<event>
 6    1  0.1661841E-002  0.9620270E+02  0.7546771E-02  0.1383633E+00
         -2   -1    0    0    0  501 -0.00000000000E+00  0.00000000000E+00  0.35556803756E+02  0.35556803756E+02  0.00000000000E+00 0.  1.
          2   -1    0    0  501    0  0.00000000000E+00 -0.00000000000E+00 -0.10057819885E+03  0.10057819885E+03  0.00000000000E+00 0. -1.
         23    2    1    2    0    0  0.90747943537E+01  0.15871184057E+02 -0.37839823279E+02  0.10337703835E+03  0.94449528617E+02 0.  0.
         13    1    3    3    0    0 -0.17110788243E+02 -0.55072392302E+01 -0.60213558976E+02  0.62839330381E+02  0.00000000000E+00 0. -1.
        -13    1    3    3    0    0  0.26185582596E+02  0.21378423287E+02  0.22373735697E+02  0.40537707967E+02  0.00000000000E+00 0.  1.
         22    1    1    2    0    0 -0.90747943537E+01 -0.15871184057E+02 -0.27181571819E+02  0.32757964261E+02  0.00000000000E+00 0. -1.
<mgrwt>
<rscale>  0 0.63518289E+02</rscale>
<asrwt>0</asrwt>
<pdfrwt beam="1">  1        2 0.15473569E-01 0.96202702E+02</pdfrwt>
<pdfrwt beam="2">  1       -2 0.54702774E-02 0.96202702E+02</pdfrwt>
<totfact> 0.55634063E+04</totfact>
</mgrwt>
</event>
<event>
 6    1  0.1661841E-002  0.9004338E+02  0.7546771E-02  0.1368893E+00
          2   -1    0    0  501    0  0.00000000000E+00  0.00000000000E+00  0.64058983346E+02  0.64058983346E+02  0.00000000000E+00 0. -1.
         -2   -1    0    0    0  501 -0.00000000000E+00 -0.00000000000E+00 -0.56831700186E+02  0.56831700186E+02  0.00000000000E+00 0.  1.
         23    2    1    2    0    0 -0.21604388242E+02  0.18425847736E+02 -0.45318073742E+01  0.90157352013E+02  0.85449104079E+02 0.  0.
         11    1    3    3    0    0 -0.35130391316E+01  0.38408308021E+02  0.28182723640E+02  0.47768247621E+02  0.00000000000E+00 0. -1.
        -11    1    3    3    0    0 -0.18091349110E+02 -0.19982460286E+02 -0.32714531014E+02  0.42389104392E+02  0.00000000000E+00 0.  1.
         22    1    1    2    0    0  0.21604388242E+02 -0.18425847736E+02  0.11759090534E+02  0.30733331519E+02  0.00000000000E+00 0.  1.
<mgrwt>
<rscale>  0 0.67475846E+02</rscale>
<asrwt>0</asrwt>
<pdfrwt beam="1">  1        2 0.98552283E-02 0.90043383E+02</pdfrwt>
<pdfrwt beam="2">  1       -2 0.87433384E-02 0.90043383E+02</pdfrwt>
<totfact> 0.46223264E+04</totfact>
</mgrwt>
</event>
<event>
 6    1  0.1661841E-002  0.9508428E+02  0.7546771E-02  0.1370947E+00
          2   -1    0    0  501    0  0.00000000000E+00  0.00000000000E+00  0.17509400137E+03  0.17509400137E+03  0.00000000000E+00 0. -1.
         -2   -1    0    0    0  501 -0.00000000000E+00 -0.00000000000E+00 -0.26697635743E+02  0.26697635743E+02  0.00000000000E+00 0.  1.
         23    2    1    2    0    0 -0.10170107451E+02 -0.20971884400E+02  0.64946727238E+02  0.11514815399E+03  0.92183344304E+02 0.  0.
         11    1    3    3    0    0 -0.22893952057E+02 -0.50158368612E+02  0.17195379111E+02  0.57755311837E+02  0.00000000000E+00 0.  1.
        -11    1    3    3    0    0  0.12723844606E+02  0.29186484212E+02  0.47751348127E+02  0.57392842151E+02  0.00000000000E+00 0. -1.
         22    1    1    2    0    0  0.10170107451E+02  0.20971884400E+02  0.83449638385E+02  0.86643483122E+02  0.00000000000E+00 0. -1.
<mgrwt>
<rscale>  0 0.66904696E+02</rscale>
<asrwt>0</asrwt>
<pdfrwt beam="1">  1        2 0.26937538E-01 0.95084278E+02</pdfrwt>
<pdfrwt beam="2">  1       -2 0.41073287E-02 0.95084278E+02</pdfrwt>
<totfact> 0.45756516E+04</totfact>
</mgrwt>
</event>
<event>
 6    1  0.1661841E-002  0.9596337E+02  0.7546771E-02  0.1357298E+00
          2   -1    0    0  501    0  0.00000000000E+00  0.00000000000E+00  0.72516311397E+02  0.72516311397E+02  0.00000000000E+00 0. -1.
         -2   -1    0    0    0  501 -0.00000000000E+00 -0.00000000000E+00 -0.58711121295E+02  0.58711121295E+02  0.00000000000E+00 0.  1.
         23    2    1    2    0    0  0.11234907084E+02  0.26168918579E+02 -0.66046054522E+01  0.96190378145E+02  0.91640234601E+02 0.  0.
         11    1    3    3    0    0  0.24892008396E+02 -0.27639775915E+02  0.94932965571E+01  0.38388695916E+02  0.00000000000E+00 0. -1.
        -11    1    3    3    0    0 -0.13657101313E+02  0.53808694494E+02 -0.16097902009E+02  0.57801682229E+02  0.00000000000E+00 0.  1.
         22    1    1    2    0    0 -0.11234907084E+02 -0.26168918579E+02  0.20409795554E+02  0.35037054547E+02  0.00000000000E+00 0.  1.
<mgrwt>
<rscale>  0 0.70828671E+02</rscale>
<asrwt>0</asrwt>
<pdfrwt beam="1">  1        2 0.11156356E-01 0.95963368E+02</pdfrwt>
<pdfrwt beam="2">  1       -2 0.90324802E-02 0.95963368E+02</pdfrwt>
<totfact> 0.38174445E+04</totfact>
</mgrwt>
</event>
<event>
 6    1  0.1661841E-002  0.9132722E+02  0.7546771E-02  0.1403739E+00
         -2   -1    0    0    0  501 -0.00000000000E+00  0.00000000000E+00  0.66229594639E+03  0.66229594639E+03  0.00000000000E+00 0.  1.
          2   -1    0    0  501    0  0.00000000000E+00 -0.00000000000E+00 -0.77119528681E+01  0.77119528681E+01  0.00000000000E+00 0. -1.
         23    2    1    2    0    0  0.15490701766E+02  0.41064349391E+00  0.64573875344E+03  0.65216500876E+03  0.90002947107E+02 0.  0.
         11    1    3    3    0    0 -0.32684207606E+02 -0.19683353718E+02  0.32073117890E+03  0.32299254009E+03  0.00000000000E+00 0. -1.
        -11    1    3    3    0    0  0.48174909372E+02  0.20093997211E+02  0.32500757454E+03  0.32917246866E+03  0.00000000000E+00 0.  1.
         22    1    1    2    0    0 -0.15490701766E+02 -0.41064349391E+00  0.88452400864E+01  0.17842890502E+02  0.00000000000E+00 0. -1.
<mgrwt>
<rscale>  0 0.58614638E+02</rscale>
<asrwt>0</asrwt>
<pdfrwt beam="1">  1        2 0.11864548E-02 0.91327219E+02</pdfrwt>
<pdfrwt beam="2">  1       -2 0.10189164E+00 0.91327219E+02</pdfrwt>
<totfact> 0.83320756E+03</totfact>
</mgrwt>
</event>
<event>
 6    1  0.1661841E-002  0.9388196E+02  0.7546771E-02  0.1364069E+00
          2   -1    0    0  501    0  0.00000000000E+00  0.00000000000E+00  0.41847991139E+02  0.41847991139E+02  0.00000000000E+00 0. -1.
         -2   -1    0    0    0  501 -0.00000000000E+00 -0.00000000000E+00 -0.19446187465E+03  0.19446187465E+03  0.00000000000E+00 0.  1.
         23    2    1    2    0    0  0.26016944914E+02 -0.77505307800E+01 -0.17665235702E+03  0.20004968987E+03  0.89871413843E+02 0.  0.
         13    1    3    3    0    0  0.40925331184E+01 -0.47921511986E+02 -0.88377408243E+02  0.10061702851E+03  0.00000000000E+00 0. -1.
        -13    1    3    3    0    0  0.21924411795E+02  0.40170981206E+02 -0.88274948774E+02  0.99432661357E+02  0.00000000000E+00 0.  1.
         22    1    1    2    0    0 -0.26016944914E+02  0.77505307800E+01  0.24038473501E+02  0.36260175927E+02  0.00000000000E+00 0. -1.
<mgrwt>
<rscale>  0 0.68844070E+02</rscale>
<asrwt>0</asrwt>
<pdfrwt beam="1">  1        2 0.64381526E-02 0.93881964E+02</pdfrwt>
<pdfrwt beam="2">  1       -2 0.29917211E-01 0.93881964E+02</pdfrwt>
<totfact> 0.10457084E+04</totfact>
</mgrwt>
</event>
<event>
 6    1  0.1661841E-002  0.9749396E+02  0.7546771E-02  0.1341957E+00
          2   -1    0    0  501    0  0.00000000000E+00  0.00000000000E+00  0.43544755802E+03  0.43544755802E+03  0.00000000000E+00 0. -1.
         -2   -1    0    0    0  501 -0.00000000000E+00 -0.00000000000E+00 -0.12178291852E+02  0.12178291852E+02  0.00000000000E+00 0.  1.
         23    2    1    2    0    0  0.20455322509E+02 -0.28756678940E+02  0.21089807945E+03  0.23234257660E+03  0.90882925697E+02 0.  0.
         11    1    3    3    0    0  0.80533655278E+00 -0.34319415226E+02  0.18756539873E+02  0.39118775754E+02  0.00000000000E+00 0.  1.
        -11    1    3    3    0    0  0.19649985956E+02  0.55627362868E+01  0.19214153957E+03  0.19322380085E+03  0.00000000000E+00 0. -1.
         22    1    1    2    0    0 -0.20455322509E+02  0.28756678940E+02  0.21237118672E+03  0.21528327327E+03  0.00000000000E+00 0.  1.
<mgrwt>
<rscale>  0 0.75621529E+02</rscale>
<asrwt>0</asrwt>
<pdfrwt beam="1">  1        2 0.66991920E-01 0.97493964E+02</pdfrwt>
<pdfrwt beam="2">  1       -2 0.18735837E-02 0.97493964E+02</pdfrwt>
<totfact> 0.54846678E+04</totfact>
</mgrwt>
</event>
<event>
 6    1  0.1661841E-002  0.1016892E+03  0.7546771E-02  0.1323115E+00
         -2   -1    0    0    0  501 -0.00000000000E+00  0.00000000000E+00  0.75242334232E+02  0.75242334232E+02  0.00000000000E+00 0.  1.
          2   -1    0    0  501    0  0.00000000000E+00 -0.00000000000E+00 -0.91313369282E+02  0.91313369282E+02  0.00000000000E+00 0. -1.
         23    2    1    2    0    0  0.23706317332E+02  0.36195628897E+02  0.27302710392E+02  0.10529074757E+03  0.92024944973E+02 0.  0.
         11    1    3    3    0    0  0.48080284129E+02  0.50961933076E+02  0.72340167530E+01  0.70435526144E+02  0.00000000000E+00 0.  1.
        -11    1    3    3    0    0 -0.24373966798E+02 -0.14766304179E+02  0.20068693639E+02  0.34855221430E+02  0.00000000000E+00 0. -1.
         22    1    1    2    0    0 -0.23706317332E+02 -0.36195628897E+02 -0.43373745442E+02  0.61264955940E+02  0.00000000000E+00 0. -1.
<mgrwt>
<rscale>  0 0.82129238E+02</rscale>
<asrwt>0</asrwt>
<pdfrwt beam="1">  1        2 0.14048211E-01 0.10168925E+03</pdfrwt>
<pdfrwt beam="2">  1       -2 0.11575744E-01 0.10168925E+03</pdfrwt>
<totfact> 0.19856724E+04</totfact>
</mgrwt>
</event>
<event>
 6    1  0.1661841E-002  0.9370878E+02  0.7546771E-02  0.1391397E+00
         -2   -1    0    0    0  501 -0.00000000000E+00  0.00000000000E+00  0.63383184556E+03  0.63383184556E+03  0.00000000000E+00 0. -1.
          2   -1    0    0  501    0  0.00000000000E+00 -0.00000000000E+00 -0.10548446608E+02  0.10548446608E+02  0.00000000000E+00 0.  1.
         23    2    1    2    0    0  0.58237153356E+01 -0.16452828110E+02  0.61946708700E+03  0.62651481008E+03  0.92069127114E+02 0.  0.
         13    1    3    3    0    0 -0.64380687057E+01 -0.44833187513E+02  0.52850879712E+03  0.53044605009E+03  0.00000000000E+00 0. -1.
        -13    1    3    3    0    0  0.12261784041E+02  0.28380359403E+02  0.90958289880E+02  0.96068759988E+02  0.00000000000E+00 0.  1.
         22    1    1    2    0    0 -0.58237153356E+01  0.16452828110E+02  0.38163119529E+01  0.17865482082E+02  0.00000000000E+00 0.  1.
<mgrwt>
<rscale>  0 0.61560686E+02</rscale>
<asrwt>0</asrwt>
<pdfrwt beam="1">  1        2 0.16228384E-02 0.93708780E+02</pdfrwt>
<pdfrwt beam="2">  1       -2 0.97512562E-01 0.93708780E+02</pdfrwt>
<totfact> 0.60313730E+03</totfact>
</mgrwt>
</event>
<event>
 6    1  0.1661841E-002  0.9483327E+02  0.7546771E-02  0.1365865E+00
         -1   -1    0    0    0  501 -0.00000000000E+00  0.00000000000E+00  0.15659859952E+02  0.15659859952E+02  0.00000000000E+00 0.  1.
          1   -1    0    0  501    0  0.00000000000E+00 -0.00000000000E+00 -0.24500407602E+03  0.24500407602E+03  0.00000000000E+00 0. -1.
         23    2    1    2    0    0 -0.16331861092E+02  0.19662429702E+02 -0.20245120648E+03  0.22356171510E+03  0.91323647689E+02 0.  0.
         11    1    3    3    0    0  0.17067384874E+02  0.92928037805E+01 -0.13913146949E+01  0.19483007599E+02  0.00000000000E+00 0.  1.
        -11    1    3    3    0    0 -0.33399245966E+02  0.10369625921E+02 -0.20105989178E+03  0.20407870750E+03  0.00000000000E+00 0. -1.
         22    1    1    2    0    0  0.16331861092E+02 -0.19662429702E+02 -0.26893009589E+02  0.37102220867E+02  0.00000000000E+00 0.  1.
<mgrwt>
<rscale>  0 0.68330253E+02</rscale>
<asrwt>0</asrwt>
<pdfrwt beam="1">  1        1 0.37692934E-01 0.94833272E+02</pdfrwt>
<pdfrwt beam="2">  1       -1 0.24092093E-02 0.94833272E+02</pdfrwt>
<totfact> 0.51725966E+04</totfact>
</mgrwt>
</event>
<event>
 6    1  0.1661841E-002  0.9423749E+02  0.7546771E-02  0.1376518E+00
          2   -1    0    0  501    0  0.00000000000E+00  0.00000000000E+00  0.14198098821E+02  0.14198098821E+02  0.00000000000E+00 0.  1.
         -2   -1    0    0    0  501 -0.00000000000E+00 -0.00000000000E+00 -0.43682434133E+03  0.43682434133E+03  0.00000000000E+00 0. -1.
         23    2    1    2    0    0 -0.22718062669E+00 -0.21842162109E+02 -0.41826276381E+03  0.42874753043E+03  0.91671007443E+02 0.  0.
         13    1    3    3    0    0  0.25780497114E+01 -0.13112858519E+02 -0.41930644086E+03  0.41951934967E+03  0.00000000000E+00 0. -1.
        -13    1    3    3    0    0 -0.28052303381E+01 -0.87293035903E+01  0.10436770513E+01  0.92281807638E+01  0.00000000000E+00 0.  1.
         22    1    1    2    0    0  0.22718062669E+00  0.21842162109E+02 -0.43634787011E+01  0.22274909719E+02  0.00000000000E+00 0. -1.
<mgrwt>
<rscale>  0 0.65387928E+02</rscale>
<asrwt>0</asrwt>
<pdfrwt beam="1">  1        2 0.21843227E-02 0.94237494E+02</pdfrwt>
<pdfrwt beam="2">  1       -2 0.67203752E-01 0.94237494E+02</pdfrwt>
<totfact> 0.90882862E+03</totfact>
</mgrwt>
</event>
<event>
 6    1  0.1661841E-002  0.9238424E+02  0.7546771E-02  0.1384047E+00
          2   -1    0    0  501    0  0.00000000000E+00  0.00000000000E+00  0.15947041523E+03  0.15947041523E+03  0.00000000000E+00 0.  1.
         -2   -1    0    0    0  501 -0.00000000000E+00 -0.00000000000E+00 -0.36211050508E+02  0.36211050508E+02  0.00000000000E+00 0. -1.
         23    2    1    2    0    0  0.93281314480E+01 -0.18261873534E+02  0.25562332864E+02  0.95855516730E+02  0.90079615701E+02 0.  0.
         11    1    3    3    0    0  0.51324500581E+01 -0.14429008445E+02 -0.33335026097E+02  0.36684632930E+02  0.00000000000E+00 0. -1.
        -11    1    3    3    0    0  0.41956813899E+01 -0.38328650891E+01  0.58897358961E+02  0.59170883800E+02  0.00000000000E+00 0.  1.
         22    1    1    2    0    0 -0.93281314480E+01  0.18261873534E+02  0.97697031855E+02  0.99825949004E+02  0.00000000000E+00 0.  1.
<mgrwt>
<rscale>  0 0.63411855E+02</rscale>
<asrwt>0</asrwt>
<pdfrwt beam="1">  1        2 0.24533910E-01 0.92384237E+02</pdfrwt>
<pdfrwt beam="2">  1       -2 0.55709309E-02 0.92384237E+02</pdfrwt>
<totfact> 0.32108618E+04</totfact>
</mgrwt>
</event>
<event>
 6    1  0.1661841E-002  0.9483409E+02  0.7546771E-02  0.1396922E+00
          4   -1    0    0  501    0  0.00000000000E+00  0.00000000000E+00  0.25528645735E+02  0.25528645735E+02  0.00000000000E+00 0. -1.
         -4   -1    0    0    0  501 -0.00000000000E+00 -0.00000000000E+00 -0.12010445476E+03  0.12010445476E+03  0.00000000000E+00 0.  1.
         23    2    1    2    0    0 -0.71871351559E+01  0.13638996675E+02 -0.76259864682E+02  0.12169252909E+03  0.93572578959E+02 0.  0.
         11    1    3    3    0    0  0.30921005969E+02 -0.18887629860E+02 -0.81479234756E+01  0.37138118273E+02  0.00000000000E+00 0.  1.
        -11    1    3    3    0    0 -0.38108141125E+02  0.32526626535E+02 -0.68111941206E+02  0.84554410817E+02  0.00000000000E+00 0. -1.
         22    1    1    2    0    0  0.71871351559E+01 -0.13638996675E+02 -0.18315944344E+02  0.23940571406E+02  0.00000000000E+00 0.  1.
<mgrwt>
<rscale>  0 0.60217371E+02</rscale>
<asrwt>0</asrwt>
<pdfrwt beam="1">  1        4 0.39274840E-02 0.94834090E+02</pdfrwt>
<pdfrwt beam="2">  1       -4 0.18477608E-01 0.94834090E+02</pdfrwt>
<totfact> 0.13424622E+04</totfact>
</mgrwt>
</event>
<event>
 6    1  0.1661841E-002  0.9059284E+02  0.7546771E-02  0.1401117E+00
         -2   -1    0    0    0  501 -0.00000000000E+00  0.00000000000E+00  0.19185974905E+03  0.19185974905E+03  0.00000000000E+00 0.  1.
          2   -1    0    0  501    0  0.00000000000E+00 -0.00000000000E+00 -0.80458771634E+02  0.80458771634E+02  0.00000000000E+00 0. -1.
         23    2    1    2    0    0 -0.10461799640E+02  0.12819869794E+02  0.18012872138E+03  0.20162692921E+03  0.89068872231E+02 0.  0.
         11    1    3    3    0    0  0.99179055743E+01 -0.22315638865E+02  0.14755126652E+03  0.14955844624E+03  0.00000000000E+00 0.  1.
        -11    1    3    3    0    0 -0.20379705215E+02  0.35135508658E+02  0.32577454862E+02  0.52068482968E+02  0.00000000000E+00 0. -1.
         22    1    1    2    0    0  0.10461799640E+02 -0.12819869794E+02 -0.68727743973E+02  0.70691591472E+02  0.00000000000E+00 0. -1.
<mgrwt>
<rscale>  0 0.59224206E+02</rscale>
<asrwt>0</asrwt>
<pdfrwt beam="1">  1        2 0.12378273E-01 0.90592838E+02</pdfrwt>
<pdfrwt beam="2">  1       -2 0.29516884E-01 0.90592838E+02</pdfrwt>
<totfact> 0.47899651E+03</totfact>
</mgrwt>
</event>
<event>
 6    1  0.1661841E-002  0.1021015E+03  0.7546771E-02  0.1337167E+00
         -2   -1    0    0    0  501 -0.00000000000E+00  0.00000000000E+00  0.20226528193E+03  0.20226528193E+03  0.00000000000E+00 0.  1.
          2   -1    0    0  501    0  0.00000000000E+00 -0.00000000000E+00 -0.45890371049E+02  0.45890371049E+02  0.00000000000E+00 0. -1.
         23    2    1    2    0    0  0.89249529161E+00 -0.33373056959E+02  0.18021778309E+03  0.20713078206E+03  0.96489139583E+02 0.  0.
         13    1    3    3    0    0  0.22339541732E+02  0.96699566425E+01  0.42510470396E+01  0.24711021573E+02  0.00000000000E+00 0. -1.
        -13    1    3    3    0    0 -0.21447046440E+02 -0.43043013601E+02  0.17596673605E+03  0.18241976049E+03  0.00000000000E+00 0.  1.
         22    1    1    2    0    0 -0.89249529161E+00  0.33373056959E+02 -0.23842872208E+02  0.41024870917E+02  0.00000000000E+00 0. -1.
<mgrwt>
<rscale>  0 0.77207915E+02</rscale>
<asrwt>0</asrwt>
<pdfrwt beam="1">  1        2 0.70600572E-02 0.10210148E+03</pdfrwt>
<pdfrwt beam="2">  1       -2 0.31117735E-01 0.10210148E+03</pdfrwt>
<totfact> 0.87462989E+03</totfact>
</mgrwt>
</event>
<event>
 6    1  0.1661841E-002  0.8859074E+02  0.7546771E-02  0.1431047E+00
          2   -1    0    0  501    0  0.00000000000E+00  0.00000000000E+00  0.37218027091E+02  0.37218027091E+02  0.00000000000E+00 0. -1.
         -2   -1    0    0    0  501 -0.00000000000E+00 -0.00000000000E+00 -0.69115536771E+02  0.69115536771E+02  0.00000000000E+00 0.  1.
         23    2    1    2    0    0  0.83317422973E+01 -0.73891358174E+01 -0.34197843915E+02  0.94962161335E+02  0.87888009986E+02 0.  0.
         11    1    3    3    0    0  0.27264777397E+01 -0.24893716524E+02  0.23539913719E+02  0.34369439058E+02  0.00000000000E+00 0. -1.
        -11    1    3    3    0    0  0.56052645576E+01  0.17504580707E+02 -0.57737757633E+02  0.60592722278E+02  0.00000000000E+00 0.  1.
         22    1    1    2    0    0 -0.83317422973E+01  0.73891358174E+01  0.23003342347E+01  0.11371402527E+02  0.00000000000E+00 0. -1.
<mgrwt>
<rscale>  0 0.52750493E+02</rscale>
<asrwt>0</asrwt>
<pdfrwt beam="1">  1        2 0.57258503E-02 0.88590742E+02</pdfrwt>
<pdfrwt beam="2">  1       -2 0.10633159E-01 0.88590742E+02</pdfrwt>
<totfact> 0.66977595E+04</totfact>
</mgrwt>
</event>
<event>
 6    1  0.1661841E-002  0.8862552E+02  0.7546771E-02  0.1426560E+00
         -1   -1    0    0    0  501 -0.00000000000E+00  0.00000000000E+00  0.73740096117E+01  0.73740096117E+01  0.00000000000E+00 0.  1.
          1   -1    0    0  501    0  0.00000000000E+00 -0.00000000000E+00 -0.35502643611E+03  0.35502643611E+03  0.00000000000E+00 0. -1.
         23    2    1    2    0    0 -0.24068101918E+01  0.11661733415E+02 -0.27946472862E+03  0.29318086104E+03  0.87821944730E+02 0.  0.
         11    1    3    3    0    0  0.38535491255E+02 -0.12944415448E+02 -0.11856905212E+03  0.12534417456E+03  0.00000000000E+00 0. -1.
        -11    1    3    3    0    0 -0.40942301446E+02  0.24606148863E+02 -0.16089567651E+03  0.16783668648E+03  0.00000000000E+00 0.  1.
         22    1    1    2    0    0  0.24068101918E+01 -0.11661733415E+02 -0.68187697874E+02  0.69219584677E+02  0.00000000000E+00 0.  1.
<mgrwt>
<rscale>  0 0.53656745E+02</rscale>
<asrwt>0</asrwt>
<pdfrwt beam="1">  1        1 0.54619456E-01 0.88625520E+02</pdfrwt>
<pdfrwt beam="2">  1       -1 0.11344629E-02 0.88625520E+02</pdfrwt>
<totfact> 0.95019175E+04</totfact>
</mgrwt>
</event>
<event>
 6    1  0.1661841E-002  0.1228549E+03  0.7546771E-02  0.1259798E+00
          3   -1    0    0  501    0  0.00000000000E+00  0.00000000000E+00  0.41304856728E+03  0.41304856728E+03  0.00000000000E+00 0. -1.
         -3   -1    0    0    0  501 -0.00000000000E+00 -0.00000000000E+00 -0.27776790066E+02  0.27776790066E+02  0.00000000000E+00 0.  1.
         23    2    1    2    0    0 -0.24402969265E+02 -0.76359937874E+02  0.29795927546E+03  0.32229342923E+03  0.93096614706E+02 0.  0.
         13    1    3    3    0    0  0.63426783253E+01  0.10885249492E+02  0.12946492879E+03  0.13007646217E+03  0.00000000000E+00 0. -1.
        -13    1    3    3    0    0 -0.30745647590E+02 -0.87245187366E+02  0.16849434667E+03  0.19221696706E+03  0.00000000000E+00 0.  1.
         22    1    1    2    0    0  0.24402969265E+02  0.76359937874E+02  0.87312501754E+02  0.11853192812E+03  0.00000000000E+00 0.  1.
<mgrwt>
<rscale>  0 0.11041799E+03</rscale>
<asrwt>0</asrwt>
<pdfrwt beam="1">  1        3 0.63545929E-01 0.12285489E+03</pdfrwt>
<pdfrwt beam="2">  1       -3 0.42733526E-02 0.12285489E+03</pdfrwt>
<totfact> 0.16146077E+03</totfact>
</mgrwt>
</event>
<event>
 6    1  0.1661841E-002  0.1007856E+03  0.7546771E-02  0.1327361E+00
         -2   -1    0    0    0  501 -0.00000000000E+00  0.00000000000E+00  0.16330556037E+02  0.16330556037E+02  0.00000000000E+00 0.  1.
          2   -1    0    0  501    0  0.00000000000E+00 -0.00000000000E+00 -0.32747801888E+03  0.32747801888E+03  0.00000000000E+00 0. -1.
         23    2    1    2    0    0  0.35080865842E+02 -0.21644096959E+02 -0.25467416822E+03  0.27389171653E+03  0.91970681971E+02 0.  0.
         11    1    3    3    0    0  0.19978529857E+02  0.32924687808E+02 -0.15022767284E+03  0.15508555835E+03  0.00000000000E+00 0. -1.
        -11    1    3    3    0    0  0.15102335985E+02 -0.54568784767E+02 -0.10444649538E+03  0.11880615818E+03  0.00000000000E+00 0.  1.
         22    1    1    2    0    0 -0.35080865842E+02  0.21644096959E+02 -0.56473294619E+02  0.69916858386E+02  0.00000000000E+00 0. -1.
<mgrwt>
<rscale>  0 0.80598577E+02</rscale>
<asrwt>0</asrwt>
<pdfrwt beam="1">  1        2 0.50381231E-01 0.10078562E+03</pdfrwt>
<pdfrwt beam="2">  1       -2 0.25123934E-02 0.10078562E+03</pdfrwt>
<totfact> 0.48704875E+04</totfact>
</mgrwt>
</event>
<event>
 6    1  0.1661841E-002  0.9341322E+02  0.7546771E-02  0.1381443E+00
         -2   -1    0    0    0  501 -0.00000000000E+00  0.00000000000E+00  0.86289070013E+02  0.86289070013E+02  0.00000000000E+00 0. -1.
          2   -1    0    0  501    0  0.00000000000E+00 -0.00000000000E+00 -0.38093197970E+02  0.38093197970E+02  0.00000000000E+00 0.  1.
         23    2    1    2    0    0  0.15505442891E+02 -0.13703658425E+02  0.44047436813E+02  0.10327732713E+03  0.91092373973E+02 0.  0.
         13    1    3    3    0    0  0.48072049700E+02 -0.30076685059E+02  0.23050700945E+02  0.61211630925E+02  0.00000000000E+00 0.  1.
        -13    1    3    3    0    0 -0.32566606808E+02  0.16373026634E+02  0.20996735868E+02  0.42065696206E+02  0.00000000000E+00 0. -1.
         22    1    1    2    0    0 -0.15505442891E+02  0.13703658425E+02  0.41484352306E+01  0.21104940852E+02  0.00000000000E+00 0.  1.
<mgrwt>
<rscale>  0 0.64086010E+02</rscale>
<asrwt>0</asrwt>
<pdfrwt beam="1">  1        2 0.58604920E-02 0.93413220E+02</pdfrwt>
<pdfrwt beam="2">  1       -2 0.13275242E-01 0.93413220E+02</pdfrwt>
<totfact> 0.46152142E+04</totfact>
</mgrwt>
</event>
<event>
 6    1  0.1661841E-002  0.9060219E+02  0.7546771E-02  0.1427876E+00
         -1   -1    0    0    0  501 -0.00000000000E+00  0.00000000000E+00  0.12689295970E+02  0.12689295970E+02  0.00000000000E+00 0.  1.
          1   -1    0    0  501    0  0.00000000000E+00 -0.00000000000E+00 -0.20336179551E+03  0.20336179551E+03  0.00000000000E+00 0. -1.
         23    2    1    2    0    0 -0.10620896961E+02 -0.25557579001E+01 -0.17256258779E+03  0.19490152283E+03  0.89941211601E+02 0.  0.
         13    1    3    3    0    0  0.38057620981E+02  0.70089293406E+01 -0.97790730140E+02  0.10516907581E+03  0.00000000000E+00 0. -1.
        -13    1    3    3    0    0 -0.48678517943E+02 -0.95646872407E+01 -0.74771857653E+02  0.89732447018E+02  0.00000000000E+00 0.  1.
         22    1    1    2    0    0  0.10620896961E+02  0.25557579001E+01 -0.18109911751E+02  0.21149568656E+02  0.00000000000E+00 0.  1.
<mgrwt>
<rscale>  0 0.53388800E+02</rscale>
<asrwt>0</asrwt>
<pdfrwt beam="1">  1        1 0.31286430E-01 0.90602190E+02</pdfrwt>
<pdfrwt beam="2">  1       -1 0.19521994E-02 0.90602190E+02</pdfrwt>
<totfact> 0.87211480E+04</totfact>
</mgrwt>
</event>
<event>
 6    1  0.1661841E-002  0.9325653E+02  0.7546771E-02  0.1396424E+00
          2   -1    0    0  501    0  0.00000000000E+00  0.00000000000E+00  0.12914305430E+03  0.12914305430E+03  0.00000000000E+00 0. -1.
         -2   -1    0    0    0  501 -0.00000000000E+00 -0.00000000000E+00 -0.24094601730E+02  0.24094601730E+02  0.00000000000E+00 0.  1.
         23    2    1    2    0    0 -0.23086931611E+01  0.16177498459E+02  0.77723225021E+02  0.12139884982E+03  0.91813612870E+02 0.  0.
         13    1    3    3    0    0  0.18778044447E+02 -0.33845121146E+02  0.27873503710E+02  0.47697372964E+02  0.00000000000E+00 0.  1.
        -13    1    3    3    0    0 -0.21086737608E+02  0.50022619605E+02  0.49849721312E+02  0.73701476851E+02  0.00000000000E+00 0. -1.
         22    1    1    2    0    0  0.23086931611E+01 -0.16177498459E+02  0.27325227545E+02  0.31838806210E+02  0.00000000000E+00 0. -1.
<mgrwt>
<rscale>  0 0.60336734E+02</rscale>
<asrwt>0</asrwt>
<pdfrwt beam="1">  1        2 0.19868162E-01 0.93256533E+02</pdfrwt>
<pdfrwt beam="2">  1       -2 0.37068619E-02 0.93256533E+02</pdfrwt>
<totfact> 0.74168087E+04</totfact>
</mgrwt>
</event>
<event>
 6    1  0.1661841E-002  0.9155056E+02  0.7546771E-02  0.1365469E+00
          2   -1    0    0  501    0  0.00000000000E+00  0.00000000000E+00  0.13048664429E+03  0.13048664429E+03  0.00000000000E+00 0. -1.
         -2   -1    0    0    0  501 -0.00000000000E+00 -0.00000000000E+00 -0.31121365741E+02  0.31121365741E+02  0.00000000000E+00 0.  1.
         23    2    1    2    0    0  0.28536644368E+02  0.18704211907E+01  0.49376423218E+02  0.10401700201E+03  0.86969345120E+02 0.  0.
         11    1    3    3    0    0  0.28868280144E+02  0.22538766551E+02  0.67324250360E+02  0.76641557152E+02  0.00000000000E+00 0. -1.
        -11    1    3    3    0    0 -0.33163577590E+00 -0.20668345361E+02 -0.17947827142E+02  0.27375444861E+02  0.00000000000E+00 0.  1.
         22    1    1    2    0    0 -0.28536644368E+02 -0.18704211907E+01  0.49988855329E+02  0.57591008017E+02  0.00000000000E+00 0. -1.
<mgrwt>
<rscale>  0 0.68443027E+02</rscale>
<asrwt>0</asrwt>
<pdfrwt beam="1">  1        2 0.20074868E-01 0.91550563E+02</pdfrwt>
<pdfrwt beam="2">  1       -2 0.47879025E-02 0.91550563E+02</pdfrwt>
<totfact> 0.50143991E+04</totfact>
</mgrwt>
</event>
<event>
 6    1  0.1661841E-002  0.9552577E+02  0.7546771E-02  0.1411526E+00
          2   -1    0    0  501    0  0.00000000000E+00  0.00000000000E+00  0.57214867478E+03  0.57214867478E+03  0.00000000000E+00 0. -1.
         -2   -1    0    0    0  501 -0.00000000000E+00 -0.00000000000E+00 -0.54544826840E+01  0.54544826840E+01  0.00000000000E+00 0.  1.
         23    2    1    2    0    0 -0.59376724352E+01 -0.10412909951E+02  0.53939229081E+03  0.54778573870E+03  0.94770710116E+02 0.  0.
         13    1    3    3    0    0  0.42590267136E+02 -0.91827513921E+01  0.18369017593E+03  0.18878647862E+03  0.00000000000E+00 0.  1.
        -13    1    3    3    0    0 -0.48527939571E+02 -0.12301585592E+01  0.35570211488E+03  0.35899926008E+03  0.00000000000E+00 0. -1.
         22    1    1    2    0    0  0.59376724352E+01  0.10412909951E+02  0.27301901286E+02  0.29817418758E+02  0.00000000000E+00 0.  1.
<mgrwt>
<rscale>  0 0.56854742E+02</rscale>
<asrwt>0</asrwt>
<pdfrwt beam="1">  1        2 0.88022825E-01 0.95525767E+02</pdfrwt>
<pdfrwt beam="2">  1       -2 0.83915164E-03 0.95525767E+02</pdfrwt>
<totfact> 0.12769063E+05</totfact>
</mgrwt>
</event>
<event>
 6    1  0.1661841E-002  0.9187761E+02  0.7546771E-02  0.1430246E+00
         -2   -1    0    0    0  501 -0.00000000000E+00  0.00000000000E+00  0.47466319652E+02  0.47466319652E+02  0.00000000000E+00 0.  1.
          2   -1    0    0  501    0  0.00000000000E+00 -0.00000000000E+00 -0.71921235435E+02  0.71921235435E+02  0.00000000000E+00 0. -1.
         23    2    1    2    0    0 -0.39805064040E+01  0.92882244308E+01  0.11244276776E+01  0.91884494236E+02  0.91320208055E+02 0.  0.
         11    1    3    3    0    0  0.20965832882E+02  0.12245143029E+02  0.39293970519E+02  0.46190104951E+02  0.00000000000E+00 0.  1.
        -11    1    3    3    0    0 -0.24946339286E+02 -0.29569185985E+01 -0.38169542842E+02  0.45694389285E+02  0.00000000000E+00 0. -1.
         22    1    1    2    0    0  0.39805064040E+01 -0.92882244308E+01 -0.25579343460E+02  0.27503060851E+02  0.00000000000E+00 0. -1.
<mgrwt>
<rscale>  0 0.52910731E+02</rscale>
<asrwt>0</asrwt>
<pdfrwt beam="1">  1        2 0.11064806E-01 0.91877614E+02</pdfrwt>
<pdfrwt beam="2">  1       -2 0.73025107E-02 0.91877614E+02</pdfrwt>
<totfact> 0.53083158E+04</totfact>
</mgrwt>
</event>
<event>
 6    1  0.1661841E-002  0.9351719E+02  0.7546771E-02  0.1396488E+00
          4   -1    0    0  501    0  0.00000000000E+00  0.00000000000E+00  0.73673517039E+02  0.73673517039E+02  0.00000000000E+00 0. -1.
         -4   -1    0    0    0  501 -0.00000000000E+00 -0.00000000000E+00 -0.43977399533E+02  0.43977399533E+02  0.00000000000E+00 0.  1.
         23    2    1    2    0    0  0.44310468232E+01 -0.15570331715E+02  0.13036692378E+02  0.94421498773E+02  0.92105345538E+02 0.  0.
         13    1    3    3    0    0  0.74478269840E+01  0.19624459905E+02  0.43162587430E+02  0.47995817599E+02  0.00000000000E+00 0. -1.
        -13    1    3    3    0    0 -0.30167801608E+01 -0.35194791621E+02 -0.30125895052E+02  0.46425681174E+02  0.00000000000E+00 0.  1.
         22    1    1    2    0    0 -0.44310468232E+01  0.15570331715E+02  0.16659425128E+02  0.23229417799E+02  0.00000000000E+00 0.  1.
<mgrwt>
<rscale>  0 0.60321289E+02</rscale>
<asrwt>0</asrwt>
<pdfrwt beam="1">  1        4 0.11334387E-01 0.93517186E+02</pdfrwt>
<pdfrwt beam="2">  1       -4 0.67657537E-02 0.93517186E+02</pdfrwt>
<totfact> 0.13035060E+04</totfact>
</mgrwt>
</event>
<event>
 6    1  0.1661841E-002  0.9308074E+02  0.7546771E-02  0.1389558E+00
         -2   -1    0    0    0  501 -0.00000000000E+00  0.00000000000E+00  0.33758743613E+02  0.33758743613E+02  0.00000000000E+00 0.  1.
          2   -1    0    0  501    0  0.00000000000E+00 -0.00000000000E+00 -0.92224257666E+02  0.92224257666E+02  0.00000000000E+00 0. -1.
         23    2    1    2    0    0  0.10758076737E+02 -0.14856372134E+02 -0.46184389032E+02  0.10390871670E+03  0.91255551103E+02 0.  0.
         11    1    3    3    0    0  0.37323865779E+02  0.25447097599E+01 -0.58837181944E+02  0.69723457198E+02  0.00000000000E+00 0. -1.
        -11    1    3    3    0    0 -0.26565789042E+02 -0.17401081894E+02  0.12652792912E+02  0.34185259498E+02  0.00000000000E+00 0.  1.
         22    1    1    2    0    0 -0.10758076737E+02  0.14856372134E+02 -0.12281125021E+02  0.22074284583E+02  0.00000000000E+00 0. -1.
<mgrwt>
<rscale>  0 0.62016836E+02</rscale>
<asrwt>0</asrwt>
<pdfrwt beam="1">  1        2 0.14188347E-01 0.93080737E+02</pdfrwt>
<pdfrwt beam="2">  1       -2 0.51936530E-02 0.93080737E+02</pdfrwt>
<totfact> 0.66166322E+04</totfact>
</mgrwt>
</event>
<event>
 6    1  0.1661841E-002  0.9187884E+02  0.7546771E-02  0.1423955E+00
         -2   -1    0    0    0  501 -0.00000000000E+00  0.00000000000E+00  0.87475918767E+01  0.87475918767E+01  0.00000000000E+00 0.  1.
          2   -1    0    0  501    0  0.00000000000E+00 -0.00000000000E+00 -0.31821025119E+03  0.31821025119E+03  0.00000000000E+00 0. -1.
         23    2    1    2    0    0 -0.96904046048E+01 -0.54553263641E+01 -0.24746871038E+03  0.26397439896E+03  0.91203378020E+02 0.  0.
         13    1    3    3    0    0 -0.41044734806E+02 -0.10590806935E+02 -0.21266904634E+03  0.21685238924E+03  0.00000000000E+00 0. -1.
        -13    1    3    3    0    0  0.31354330201E+02  0.51354805714E+01 -0.34799664040E+02  0.47122009723E+02  0.00000000000E+00 0.  1.
         22    1    1    2    0    0  0.96904046048E+01  0.54553263641E+01 -0.61993948939E+02  0.62983444112E+02  0.00000000000E+00 0.  1.
<mgrwt>
<rscale>  0 0.54192884E+02</rscale>
<asrwt>0</asrwt>
<pdfrwt beam="1">  1        2 0.48955425E-01 0.91878837E+02</pdfrwt>
<pdfrwt beam="2">  1       -2 0.13457833E-02 0.91878837E+02</pdfrwt>
<totfact> 0.12143815E+05</totfact>
</mgrwt>
</event>
<event>
 6    1  0.1661841E-002  0.9289623E+02  0.7546771E-02  0.1349468E+00
         -2   -1    0    0    0  501 -0.00000000000E+00  0.00000000000E+00  0.46421185781E+02  0.46421185781E+02  0.00000000000E+00 0. -1.
          2   -1    0    0  501    0  0.00000000000E+00 -0.00000000000E+00 -0.17313312106E+03  0.17313312106E+03  0.00000000000E+00 0.  1.
         23    2    1    2    0    0 -0.29393895956E+02 -0.20534230079E+02 -0.53985640104E+01  0.93052963871E+02  0.85697455432E+02 0.  0.
         11    1    3    3    0    0 -0.54459909513E+02  0.26104586830E+01  0.10317394979E+02  0.55490043052E+02  0.00000000000E+00 0. -1.
        -11    1    3    3    0    0  0.25066013558E+02 -0.23144688762E+02 -0.15715958989E+02  0.37562920820E+02  0.00000000000E+00 0.  1.
         22    1    1    2    0    0  0.29393895956E+02  0.20534230079E+02 -0.12131337127E+03  0.12650134297E+03  0.00000000000E+00 0.  1.
<mgrwt>
<rscale>  0 0.73221590E+02</rscale>
<asrwt>0</asrwt>
<pdfrwt beam="1">  1        2 0.26635865E-01 0.92896230E+02</pdfrwt>
<pdfrwt beam="2">  1       -2 0.71417209E-02 0.92896230E+02</pdfrwt>
<totfact> 0.20213285E+04</totfact>
</mgrwt>
</event>
<event>
 6    1  0.1661841E-002  0.8383630E+02  0.7546771E-02  0.1423653E+00
         -2   -1    0    0    0  501 -0.00000000000E+00  0.00000000000E+00  0.69401507000E+02  0.69401507000E+02  0.00000000000E+00 0. -1.
          2   -1    0    0  501    0  0.00000000000E+00 -0.00000000000E+00 -0.47102321949E+02  0.47102321949E+02  0.00000000000E+00 0.  1.
         23    2    1    2    0    0  0.14020288543E+00 -0.14704651035E+02  0.40498769583E+02  0.93105724410E+02  0.82536532283E+02 0.  0.
         13    1    3    3    0    0 -0.13201073316E+02 -0.31366616589E+02  0.56822754433E+02  0.66234118053E+02  0.00000000000E+00 0. -1.
        -13    1    3    3    0    0  0.13341276201E+02  0.16661965554E+02 -0.16323984850E+02  0.26871606357E+02  0.00000000000E+00 0.  1.
         22    1    1    2    0    0 -0.14020288543E+00  0.14704651035E+02 -0.18199584532E+02  0.23398104539E+02  0.00000000000E+00 0.  1.
<mgrwt>
<rscale>  0 0.54255367E+02</rscale>
<asrwt>0</asrwt>
<pdfrwt beam="1">  1        2 0.72465110E-02 0.83836302E+02</pdfrwt>
<pdfrwt beam="2">  1       -2 0.10677155E-01 0.83836302E+02</pdfrwt>
<totfact> 0.49026556E+04</totfact>
</mgrwt>
</event>
<event>
 6    1  0.1661841E-002  0.1046221E+03  0.7546771E-02  0.1320962E+00
          2   -1    0    0  501    0  0.00000000000E+00  0.00000000000E+00  0.91708744261E+03  0.91708744261E+03  0.00000000000E+00 0. -1.
         -2   -1    0    0    0  501 -0.00000000000E+00 -0.00000000000E+00 -0.60527124788E+01  0.60527124788E+01  0.00000000000E+00 0.  1.
         23    2    1    2    0    0  0.40737060011E+02  0.66957517958E+01  0.72992349276E+03  0.73738326705E+03  0.96132388388E+02 0.  0.
         11    1    3    3    0    0 -0.61228108364E+01 -0.36092149329E+02  0.37942465441E+03  0.38118656906E+03  0.00000000000E+00 0. -1.
        -11    1    3    3    0    0  0.46859870848E+02  0.42787901125E+02  0.35049883835E+03  0.35619669799E+03  0.00000000000E+00 0.  1.
         22    1    1    2    0    0 -0.40737060011E+02 -0.66957517958E+01  0.18111123738E+03  0.18575688804E+03  0.00000000000E+00 0. -1.
<mgrwt>
<rscale>  0 0.82920525E+02</rscale>
<asrwt>0</asrwt>
<pdfrwt beam="1">  1        2 0.14109027E+00 0.10462207E+03</pdfrwt>
<pdfrwt beam="2">  1       -2 0.93118726E-03 0.10462207E+03</pdfrwt>
<totfact> 0.63554769E+04</totfact>
</mgrwt>
</event>
<event>
 6    1  0.1661841E-002  0.1330030E+03  0.7546771E-02  0.1242272E+00
          2   -1    0    0  501    0  0.00000000000E+00  0.00000000000E+00  0.16758546936E+04  0.16758546936E+04  0.00000000000E+00 0. -1.
         -2   -1    0    0    0  501 -0.00000000000E+00 -0.00000000000E+00 -0.89379237842E+01  0.89379237842E+01  0.00000000000E+00 0.  1.
         23    2    1    2    0    0 -0.87256730402E+02  0.20430822604E+02  0.13124813204E+04  0.13192031709E+04  0.98278351855E+02 0.  0.
         13    1    3    3    0    0 -0.20369783637E+02 -0.38676671454E+02  0.41862647720E+03  0.42090253078E+03  0.00000000000E+00 0.  1.
        -13    1    3    3    0    0 -0.66886946764E+02  0.59107494058E+02  0.89385484315E+03  0.89830064017E+03  0.00000000000E+00 0. -1.
         22    1    1    2    0    0  0.87256730402E+02 -0.20430822604E+02  0.35443544950E+03  0.36558944648E+03  0.00000000000E+00 0.  1.
<mgrwt>
<rscale>  0 0.12050172E+03</rscale>
<asrwt>0</asrwt>
<pdfrwt beam="1">  1        2 0.25782355E+00 0.13300297E+03</pdfrwt>
<pdfrwt beam="2">  1       -2 0.13750665E-02 0.13300297E+03</pdfrwt>
<totfact> 0.14319408E+04</totfact>
</mgrwt>
</event>
<event>
 6    1  0.1661841E-002  0.9246797E+02  0.7546771E-02  0.1408016E+00
         -3   -1    0    0    0  501 -0.00000000000E+00  0.00000000000E+00  0.40124197490E+02  0.40124197490E+02  0.00000000000E+00 0.  1.
          3   -1    0    0  501    0  0.00000000000E+00 -0.00000000000E+00 -0.70993227151E+02  0.70993227151E+02  0.00000000000E+00 0. -1.
         23    2    1    2    0    0 -0.93315009467E+00 -0.13928848699E+02 -0.23860629364E+02  0.95496884640E+02  0.91408105479E+02 0.  0.
         11    1    3    3    0    0 -0.31079156729E+02  0.23787176915E+02  0.46683767443E+01  0.39414940187E+02  0.00000000000E+00 0.  1.
        -11    1    3    3    0    0  0.30146006634E+02 -0.37716025614E+02 -0.28529006108E+02  0.56081944453E+02  0.00000000000E+00 0. -1.
         22    1    1    2    0    0  0.93315009467E+00  0.13928848699E+02 -0.70084002974E+01  0.15620540001E+02  0.00000000000E+00 0. -1.
<mgrwt>
<rscale>  0 0.57638862E+02</rscale>
<asrwt>0</asrwt>
<pdfrwt beam="1">  1        3 0.10922035E-01 0.92467969E+02</pdfrwt>
<pdfrwt beam="2">  1       -3 0.61729535E-02 0.92467969E+02</pdfrwt>
<totfact> 0.21186467E+04</totfact>
</mgrwt>
</event>
<event>
 6    1  0.1661841E-002  0.9224649E+02  0.7546771E-02  0.1429822E+00
         -2   -1    0    0    0  501 -0.00000000000E+00  0.00000000000E+00  0.68763630848E+02  0.68763630848E+02  0.00000000000E+00 0.  1.
          2   -1    0    0  501    0  0.00000000000E+00 -0.00000000000E+00 -0.41200856405E+02  0.41200856405E+02  0.00000000000E+00 0. -1.
         23    2    1    2    0    0 -0.99915019984E+01  0.10719394222E+01  0.33677117990E+02  0.98201649018E+02  0.91697526834E+02 0.  0.
         11    1    3    3    0    0 -0.21813585436E+02  0.42145373333E+02  0.74006147972E+01  0.48029512826E+02  0.00000000000E+00 0. -1.
        -11    1    3    3    0    0  0.11822083437E+02 -0.41073433911E+02  0.26276503193E+02  0.50172136192E+02  0.00000000000E+00 0.  1.
         22    1    1    2    0    0  0.99915019984E+01 -0.10719394222E+01 -0.61143435471E+01  0.11762838234E+02  0.00000000000E+00 0. -1.
<mgrwt>
<rscale>  0 0.52995790E+02</rscale>
<asrwt>0</asrwt>
<pdfrwt beam="1">  1        2 0.63385933E-02 0.92246494E+02</pdfrwt>
<pdfrwt beam="2">  1       -2 0.10579020E-01 0.92246494E+02</pdfrwt>
<totfact> 0.59690018E+04</totfact>
</mgrwt>
</event>
<event>
 6    1  0.1661841E-002  0.9650691E+02  0.7546771E-02  0.1343626E+00
          2   -1    0    0  501    0  0.00000000000E+00  0.00000000000E+00  0.12808952898E+03  0.12808952898E+03  0.00000000000E+00 0.  1.
         -2   -1    0    0    0  501 -0.00000000000E+00 -0.00000000000E+00 -0.35977558301E+02  0.35977558301E+02  0.00000000000E+00 0. -1.
         23    2    1    2    0    0  0.30388740556E+02 -0.18062072277E+02  0.48750217143E+02  0.10812108048E+03  0.89799055478E+02 0.  0.
         11    1    3    3    0    0  0.35348232404E+01  0.25911748707E+01 -0.25834172170E+02  0.26203313040E+02  0.00000000000E+00 0. -1.
        -11    1    3    3    0    0  0.26853917316E+02 -0.20653247148E+02  0.74584389313E+02  0.81917767439E+02  0.00000000000E+00 0.  1.
         22    1    1    2    0    0 -0.30388740556E+02  0.18062072277E+02  0.43361753540E+02  0.55946006807E+02  0.00000000000E+00 0.  1.
<mgrwt>
<rscale>  0 0.75079289E+02</rscale>
<asrwt>0</asrwt>
<pdfrwt beam="1">  1        2 0.19706081E-01 0.96506914E+02</pdfrwt>
<pdfrwt beam="2">  1       -2 0.55350090E-02 0.96506914E+02</pdfrwt>
<totfact> 0.41536451E+04</totfact>
</mgrwt>
</event>
<event>
 6    1  0.1661841E-002  0.9288660E+02  0.7546771E-02  0.1406072E+00
          2   -1    0    0  501    0  0.00000000000E+00  0.00000000000E+00  0.73168179144E+02  0.73168179144E+02  0.00000000000E+00 0. -1.
         -2   -1    0    0    0  501 -0.00000000000E+00 -0.00000000000E+00 -0.58270214249E+02  0.58270214249E+02  0.00000000000E+00 0.  1.
         23    2    1    2    0    0  0.42682729677E+01  0.13541618061E+02 -0.18890442060E+02  0.94788017973E+02  0.91795021522E+02 0.  0.
         11    1    3    3    0    0 -0.35422853029E+01 -0.48637049971E+01  0.35932576839E+02  0.36432862772E+02  0.00000000000E+00 0. -1.
        -11    1    3    3    0    0  0.78105582706E+01  0.18405323058E+02 -0.54823018899E+02  0.58355155201E+02  0.00000000000E+00 0.  1.
         22    1    1    2    0    0 -0.42682729677E+01 -0.13541618061E+02  0.33788406955E+02  0.36650375420E+02  0.00000000000E+00 0. -1.
<mgrwt>
<rscale>  0 0.58079700E+02</rscale>
<asrwt>0</asrwt>
<pdfrwt beam="1">  1        2 0.11256643E-01 0.92886595E+02</pdfrwt>
<pdfrwt beam="2">  1       -2 0.89646483E-02 0.92886595E+02</pdfrwt>
<totfact> 0.38049727E+04</totfact>
</mgrwt>
</event>
<event>
 6    1  0.1661841E-002  0.8961728E+02  0.7546771E-02  0.1408105E+00
          2   -1    0    0  501    0  0.00000000000E+00  0.00000000000E+00  0.10735058617E+02  0.10735058617E+02  0.00000000000E+00 0. -1.
         -2   -1    0    0    0  501 -0.00000000000E+00 -0.00000000000E+00 -0.35639108788E+03  0.35639108788E+03  0.00000000000E+00 0.  1.
         23    2    1    2    0    0 -0.92978363294E+01 -0.12168142568E+02 -0.33861118264E+03  0.35026959531E+03  0.88299167244E+02 0.  0.
         11    1    3    3    0    0  0.31763311918E+02 -0.27739926199E+02 -0.21481160984E+03  0.21891194397E+03  0.00000000000E+00 0.  1.
        -11    1    3    3    0    0 -0.41061148248E+02  0.15571783630E+02 -0.12379957280E+03  0.13135765134E+03  0.00000000000E+00 0. -1.
         22    1    1    2    0    0  0.92978363294E+01  0.12168142568E+02 -0.70448466235E+01  0.16856551187E+02  0.00000000000E+00 0. -1.
<mgrwt>
<rscale>  0 0.57618876E+02</rscale>
<asrwt>0</asrwt>
<pdfrwt beam="1">  1        2 0.16515475E-02 0.89617277E+02</pdfrwt>
<pdfrwt beam="2">  1       -2 0.54829399E-01 0.89617277E+02</pdfrwt>
<totfact> 0.19973154E+04</totfact>
</mgrwt>
</event>
<event>
 6    1  0.1661841E-002  0.9419149E+02  0.7546771E-02  0.1372649E+00
         -2   -1    0    0    0  501 -0.00000000000E+00  0.00000000000E+00  0.56186124772E+01  0.56186124772E+01  0.00000000000E+00 0.  1.
          2   -1    0    0  501    0  0.00000000000E+00 -0.00000000000E+00 -0.61471603247E+03  0.61471603247E+03  0.00000000000E+00 0. -1.
         23    2    1    2    0    0 -0.20384659619E+02 -0.11310469303E+02 -0.48208923795E+03  0.49120471283E+03  0.91261029429E+02 0.  0.
         13    1    3    3    0    0 -0.42245174046E+02 -0.78726673982E+01 -0.45100742784E+03  0.45305003431E+03  0.00000000000E+00 0. -1.
        -13    1    3    3    0    0  0.21860514427E+02 -0.34378019049E+01 -0.31081810110E+02  0.38154678516E+02  0.00000000000E+00 0.  1.
         22    1    1    2    0    0  0.20384659619E+02  0.11310469303E+02 -0.12700818204E+03  0.12912993212E+03  0.00000000000E+00 0. -1.
<mgrwt>
<rscale>  0 0.66436203E+02</rscale>
<asrwt>0</asrwt>
<pdfrwt beam="1">  1        2 0.94571670E-01 0.94191489E+02</pdfrwt>
<pdfrwt beam="2">  1       -2 0.86440217E-03 0.94191489E+02</pdfrwt>
<totfact> 0.11278122E+05</totfact>
</mgrwt>
</event>
<event>
 6    1  0.1661841E-002  0.8922453E+02  0.7546771E-02  0.1342787E+00
          4   -1    0    0  501    0  0.00000000000E+00  0.00000000000E+00  0.89850216796E+02  0.89850216796E+02  0.00000000000E+00 0. -1.
         -4   -1    0    0    0  501 -0.00000000000E+00 -0.00000000000E+00 -0.68892330113E+02  0.68892330113E+02  0.00000000000E+00 0.  1.
         23    2    1    2    0    0  0.36132971279E+02  0.27462433294E+02 -0.26499839513E+02  0.93076630090E+02  0.76819533446E+02 0.  0.
         13    1    3    3    0    0  0.26922997966E+02  0.13799783264E+02  0.24848078187E+02  0.39149825379E+02  0.00000000000E+00 0. -1.
        -13    1    3    3    0    0  0.92099733132E+01  0.13662650030E+02 -0.51347917700E+02  0.53926804711E+02  0.00000000000E+00 0.  1.
         22    1    1    2    0    0 -0.36132971279E+02 -0.27462433294E+02  0.47457726196E+02  0.65665916818E+02  0.00000000000E+00 0. -1.
<mgrwt>
<rscale>  0 0.75351298E+02</rscale>
<asrwt>0</asrwt>
<pdfrwt beam="1">  1        4 0.13823110E-01 0.89224535E+02</pdfrwt>
<pdfrwt beam="2">  1       -4 0.10598820E-01 0.89224535E+02</pdfrwt>
<totfact> 0.43735869E+03</totfact>
</mgrwt>
</event>
<event>
 6    1  0.1661841E-002  0.9381809E+02  0.7546771E-02  0.1371160E+00
         -2   -1    0    0    0  501 -0.00000000000E+00  0.00000000000E+00  0.20691900330E+03  0.20691900330E+03  0.00000000000E+00 0.  1.
          2   -1    0    0  501    0  0.00000000000E+00 -0.00000000000E+00 -0.17050112251E+02  0.17050112251E+02  0.00000000000E+00 0. -1.
         23    2    1    2    0    0 -0.76019226048E+01  0.22952688782E+02  0.13972257013E+03  0.16829804002E+03  0.90648874894E+02 0.  0.
         11    1    3    3    0    0 -0.12494272511E+02  0.48755853546E+02  0.13146066920E+03  0.14076628732E+03  0.00000000000E+00 0.  1.
        -11    1    3    3    0    0  0.48923499062E+01 -0.25803164764E+02  0.82619009363E+01  0.27531752696E+02  0.00000000000E+00 0. -1.
         22    1    1    2    0    0  0.76019226048E+01 -0.22952688782E+02  0.50146320919E+02  0.55671075536E+02  0.00000000000E+00 0.  1.
<mgrwt>
<rscale>  0 0.66845733E+02</rscale>
<asrwt>0</asrwt>
<pdfrwt beam="1">  1        2 0.26230943E-02 0.93818088E+02</pdfrwt>
<pdfrwt beam="2">  1       -2 0.31833691E-01 0.93818088E+02</pdfrwt>
<totfact> 0.30205780E+04</totfact>
</mgrwt>
</event>
<event>
 6    1  0.1661841E-002  0.9315995E+02  0.7546771E-02  0.1419641E+00
         -2   -1    0    0    0  501 -0.00000000000E+00  0.00000000000E+00  0.24232071178E+02  0.24232071178E+02  0.00000000000E+00 0.  1.
          2   -1    0    0  501    0  0.00000000000E+00 -0.00000000000E+00 -0.11297297528E+03  0.11297297528E+03  0.00000000000E+00 0. -1.
         23    2    1    2    0    0  0.10001082819E+02  0.54670306702E+01 -0.77276855909E+02  0.12103920337E+03  0.92460079009E+02 0.  0.
         13    1    3    3    0    0  0.44786102261E+02 -0.12294809840E+02 -0.17493931874E+02  0.49628569969E+02  0.00000000000E+00 0.  1.
        -13    1    3    3    0    0 -0.34785019443E+02  0.17761840510E+02 -0.59782924035E+02  0.71410633397E+02  0.00000000000E+00 0. -1.
         22    1    1    2    0    0 -0.10001082819E+02 -0.54670306702E+01 -0.11464048189E+02  0.16165843088E+02  0.00000000000E+00 0.  1.
<mgrwt>
<rscale>  0 0.55096916E+02</rscale>
<asrwt>0</asrwt>
<pdfrwt beam="1">  1        2 0.17380458E-01 0.93159950E+02</pdfrwt>
<pdfrwt beam="2">  1       -2 0.37280109E-02 0.93159950E+02</pdfrwt>
<totfact> 0.85515339E+04</totfact>
</mgrwt>
</event>
<event>
 6    1  0.1661841E-002  0.9292235E+02  0.7546771E-02  0.1398815E+00
          2   -1    0    0  501    0  0.00000000000E+00  0.00000000000E+00  0.19201672076E+02  0.19201672076E+02  0.00000000000E+00 0.  1.
         -2   -1    0    0    0  501 -0.00000000000E+00 -0.00000000000E+00 -0.16357089738E+03  0.16357089738E+03  0.00000000000E+00 0. -1.
         23    2    1    2    0    0  0.26321541315E+01 -0.15683075039E+02 -0.13624269957E+03  0.16491402812E+03  0.91551495929E+02 0.  0.
         13    1    3    3    0    0 -0.27288405281E+02  0.10706582087E+01 -0.12628729123E+03  0.12920635936E+03  0.00000000000E+00 0. -1.
        -13    1    3    3    0    0  0.29920559412E+02 -0.16753733248E+02 -0.99554083366E+01  0.35707668762E+02  0.00000000000E+00 0.  1.
         22    1    1    2    0    0 -0.26321541315E+01  0.15683075039E+02 -0.81265257310E+01  0.17858541332E+02  0.00000000000E+00 0. -1.
<mgrwt>
<rscale>  0 0.59766246E+02</rscale>
<asrwt>0</asrwt>
<pdfrwt beam="1">  1        2 0.29541034E-02 0.92922352E+02</pdfrwt>
<pdfrwt beam="2">  1       -2 0.25164753E-01 0.92922352E+02</pdfrwt>
<totfact> 0.38998004E+04</totfact>
</mgrwt>
</event>
<event>
 6    1  0.1661841E-002  0.9109864E+02  0.7546771E-02  0.1409028E+00
         -2   -1    0    0    0  501 -0.00000000000E+00  0.00000000000E+00  0.11377887183E+03  0.11377887183E+03  0.00000000000E+00 0.  1.
          2   -1    0    0  501    0  0.00000000000E+00 -0.00000000000E+00 -0.28789400115E+02  0.28789400115E+02  0.00000000000E+00 0. -1.
         23    2    1    2    0    0  0.13939803172E+02  0.34893297878E+01  0.89298339276E+02  0.12756627626E+03  0.89958145300E+02 0.  0.
         11    1    3    3    0    0  0.15460888288E+02  0.40679441107E+02  0.76854079839E+02  0.88319904797E+02  0.00000000000E+00 0.  1.
        -11    1    3    3    0    0 -0.15210851161E+01 -0.37190111320E+02  0.12444259438E+02  0.39246371461E+02  0.00000000000E+00 0. -1.
         22    1    1    2    0    0 -0.13939803172E+02 -0.34893297878E+01 -0.43088675639E+01  0.15001995685E+02  0.00000000000E+00 0.  1.
<mgrwt>
<rscale>  0 0.57411278E+02</rscale>
<asrwt>0</asrwt>
<pdfrwt beam="1">  1        2 0.44291385E-02 0.91098636E+02</pdfrwt>
<pdfrwt beam="2">  1       -2 0.17504442E-01 0.91098636E+02</pdfrwt>
<totfact> 0.42128768E+04</totfact>
</mgrwt>
</event>
<event>
 6    1  0.1661841E-002  0.9081378E+02  0.7546771E-02  0.1428985E+00
         -2   -1    0    0    0  501 -0.00000000000E+00  0.00000000000E+00  0.32329813669E+02  0.32329813669E+02  0.00000000000E+00 0.  1.
          2   -1    0    0  501    0  0.00000000000E+00 -0.00000000000E+00 -0.79837819309E+02  0.79837819309E+02  0.00000000000E+00 0. -1.
         23    2    1    2    0    0  0.28270845723E+01 -0.10285156654E+02 -0.44206405879E+02  0.10100172882E+03  0.90185176444E+02 0.  0.
         11    1    3    3    0    0  0.26714580736E+02 -0.25440913189E+02  0.11400844197E+02  0.38612020618E+02  0.00000000000E+00 0.  1.
        -11    1    3    3    0    0 -0.23887496164E+02  0.15155756535E+02 -0.55607250076E+02  0.62389708207E+02  0.00000000000E+00 0. -1.
         22    1    1    2    0    0 -0.28270845723E+01  0.10285156654E+02 -0.33015997614E+01  0.11165904153E+02  0.00000000000E+00 0. -1.
<mgrwt>
<rscale>  0 0.53164356E+02</rscale>
<asrwt>0</asrwt>
<pdfrwt beam="1">  1        2 0.12282741E-01 0.90813781E+02</pdfrwt>
<pdfrwt beam="2">  1       -2 0.49738175E-02 0.90813781E+02</pdfrwt>
<totfact> 0.83286980E+04</totfact>
</mgrwt>
</event>
<event>
 6    1  0.1661841E-002  0.9454532E+02  0.7546771E-02  0.1394145E+00
         -1   -1    0    0    0  501 -0.00000000000E+00  0.00000000000E+00  0.72074568605E+02  0.72074568605E+02  0.00000000000E+00 0.  1.
          1   -1    0    0  501    0  0.00000000000E+00 -0.00000000000E+00 -0.10162164956E+03  0.10162164956E+03  0.00000000000E+00 0. -1.
         23    2    1    2    0    0 -0.15283917006E+02 -0.55567130859E+01  0.39716825860E+02  0.10254873777E+03  0.93136148635E+02 0.  0.
         11    1    3    3    0    0 -0.27820735664E+02 -0.45127141229E+02  0.21159165478E+02  0.57080316153E+02  0.00000000000E+00 0. -1.
        -11    1    3    3    0    0  0.12536818659E+02  0.39570428143E+02  0.18557660382E+02  0.45468421617E+02  0.00000000000E+00 0.  1.
         22    1    1    2    0    0  0.15283917006E+02  0.55567130859E+01 -0.69263906815E+02  0.71147480396E+02  0.00000000000E+00 0. -1.
<mgrwt>
<rscale>  0 0.60887499E+02</rscale>
<asrwt>0</asrwt>
<pdfrwt beam="1">  1        1 0.15634100E-01 0.94545319E+02</pdfrwt>
<pdfrwt beam="2">  1       -1 0.11088395E-01 0.94545319E+02</pdfrwt>
<totfact> 0.16392509E+04</totfact>
</mgrwt>
</event>
<event>
 6    1  0.1661841E-002  0.9015567E+02  0.7546771E-02  0.1398025E+00
         -2   -1    0    0    0  501 -0.00000000000E+00  0.00000000000E+00  0.22994827148E+03  0.22994827148E+03  0.00000000000E+00 0.  1.
          2   -1    0    0  501    0  0.00000000000E+00 -0.00000000000E+00 -0.13084985811E+02  0.13084985811E+02  0.00000000000E+00 0. -1.
         23    2    1    2    0    0  0.17581995694E+02 -0.13234072660E+01  0.19583780835E+03  0.21559334702E+03  0.88414739264E+02 0.  0.
         13    1    3    3    0    0 -0.33679137961E+02 -0.15142043113E+02  0.86257642015E+02  0.93829348337E+02  0.00000000000E+00 0.  1.
        -13    1    3    3    0    0  0.51261133655E+02  0.13818635847E+02  0.10958016634E+03  0.12176399868E+03  0.00000000000E+00 0. -1.
         22    1    1    2    0    0 -0.17581995694E+02  0.13234072660E+01  0.21025477319E+02  0.27439910274E+02  0.00000000000E+00 0.  1.
<mgrwt>
<rscale>  0 0.59954048E+02</rscale>
<asrwt>0</asrwt>
<pdfrwt beam="1">  1        2 0.20130749E-02 0.90155666E+02</pdfrwt>
<pdfrwt beam="2">  1       -2 0.35376654E-01 0.90155666E+02</pdfrwt>
<totfact> 0.35376474E+04</totfact>
</mgrwt>
</event>
<event>
 6    1  0.1661841E-002  0.9155175E+02  0.7546771E-02  0.1427588E+00
          1   -1    0    0  501    0  0.00000000000E+00  0.00000000000E+00  0.22809601633E+03  0.22809601633E+03  0.00000000000E+00 0. -1.
         -1   -1    0    0    0  501 -0.00000000000E+00 -0.00000000000E+00 -0.12054437799E+02  0.12054437799E+02  0.00000000000E+00 0.  1.
         23    2    1    2    0    0  0.22710664980E+01 -0.10388703800E+02  0.17205270997E+03  0.19489447698E+03  0.90932058388E+02 0.  0.
         13    1    3    3    0    0 -0.93195639279E+01  0.33983742268E+02  0.32274051744E+02  0.47784552173E+02  0.00000000000E+00 0.  1.
        -13    1    3    3    0    0  0.11590630426E+02 -0.44372446068E+02  0.13977865822E+03  0.14710992481E+03  0.00000000000E+00 0. -1.
         22    1    1    2    0    0 -0.22710664980E+01  0.10388703800E+02  0.43988868561E+02  0.45255977141E+02  0.00000000000E+00 0. -1.
<mgrwt>
<rscale>  0 0.53447155E+02</rscale>
<asrwt>0</asrwt>
<pdfrwt beam="1">  1        1 0.35091692E-01 0.91551746E+02</pdfrwt>
<pdfrwt beam="2">  1       -1 0.18545291E-02 0.91551746E+02</pdfrwt>
<totfact> 0.81658619E+04</totfact>
</mgrwt>
</event>
<event>
 6    1  0.1661841E-002  0.9361256E+02  0.7546771E-02  0.1382825E+00
          2   -1    0    0  501    0  0.00000000000E+00  0.00000000000E+00  0.43463520692E+02  0.43463520692E+02  0.00000000000E+00 0. -1.
         -2   -1    0    0    0  501 -0.00000000000E+00 -0.00000000000E+00 -0.84188673517E+02  0.84188673517E+02  0.00000000000E+00 0.  1.
         23    2    1    2    0    0  0.16011535906E+02 -0.12158236621E+02 -0.49293739078E+02  0.10579784292E+03  0.91428216950E+02 0.  0.
         13    1    3    3    0    0 -0.27758768031E+02  0.13762995851E+02  0.50138079579E+01  0.31386422664E+02  0.00000000000E+00 0. -1.
        -13    1    3    3    0    0  0.43770303937E+02 -0.25921232472E+02 -0.54307547036E+02  0.74411420257E+02  0.00000000000E+00 0.  1.
         22    1    1    2    0    0 -0.16011535906E+02  0.12158236621E+02  0.85685862535E+01  0.21854351287E+02  0.00000000000E+00 0. -1.
<mgrwt>
<rscale>  0 0.63727084E+02</rscale>
<asrwt>0</asrwt>
<pdfrwt beam="1">  1        2 0.66866955E-02 0.93612557E+02</pdfrwt>
<pdfrwt beam="2">  1       -2 0.12952104E-01 0.93612557E+02</pdfrwt>
<totfact> 0.40619471E+04</totfact>
</mgrwt>
</event>
<event>
 6    1  0.1661841E-002  0.9785795E+02  0.7546771E-02  0.1344763E+00
          3   -1    0    0  501    0  0.00000000000E+00  0.00000000000E+00  0.11109592276E+03  0.11109592276E+03  0.00000000000E+00 0. -1.
         -3   -1    0    0    0  501 -0.00000000000E+00 -0.00000000000E+00 -0.44148875506E+02  0.44148875506E+02  0.00000000000E+00 0.  1.
         23    2    1    2    0    0  0.28255275934E+02 -0.17526417151E+02  0.72163558515E+02  0.12158847782E+03  0.92036095342E+02 0.  0.
         11    1    3    3    0    0  0.21493921325E+02 -0.44399345255E+02  0.78918330021E+02  0.93066606934E+02  0.00000000000E+00 0. -1.
        -11    1    3    3    0    0  0.67613546088E+01  0.26872928103E+02 -0.67547715053E+01  0.28521870890E+02  0.00000000000E+00 0.  1.
         22    1    1    2    0    0 -0.28255275934E+02  0.17526417151E+02 -0.52165112574E+01  0.33656320446E+02  0.00000000000E+00 0. -1.
<mgrwt>
<rscale>  0 0.74712574E+02</rscale>
<asrwt>0</asrwt>
<pdfrwt beam="1">  1        3 0.17091680E-01 0.97857952E+02</pdfrwt>
<pdfrwt beam="2">  1       -3 0.67921347E-02 0.97857952E+02</pdfrwt>
<totfact> 0.86850017E+03</totfact>
</mgrwt>
</event>
<event>
 6    1  0.1661841E-002  0.9305489E+02  0.7546771E-02  0.1418938E+00
         -2   -1    0    0    0  501 -0.00000000000E+00  0.00000000000E+00  0.64914395377E+02  0.64914395377E+02  0.00000000000E+00 0.  1.
          2   -1    0    0  501    0  0.00000000000E+00 -0.00000000000E+00 -0.42294118949E+02  0.42294118949E+02  0.00000000000E+00 0. -1.
         23    2    1    2    0    0 -0.63563240773E+01 -0.96567709325E+01  0.22060022749E+02  0.95633974819E+02  0.92333939889E+02 0.  0.
         13    1    3    3    0    0 -0.49611733322E+01 -0.24267960095E+02  0.54589568469E+02  0.59946376985E+02  0.00000000000E+00 0.  1.
        -13    1    3    3    0    0 -0.13951507452E+01  0.14611189163E+02 -0.32529545720E+02  0.35687597834E+02  0.00000000000E+00 0. -1.
         22    1    1    2    0    0  0.63563240773E+01  0.96567709325E+01  0.56025367981E+00  0.11574539507E+02  0.00000000000E+00 0. -1.
<mgrwt>
<rscale>  0 0.55246274E+02</rscale>
<asrwt>0</asrwt>
<pdfrwt beam="1">  1        2 0.65067875E-02 0.93054890E+02</pdfrwt>
<pdfrwt beam="2">  1       -2 0.99868301E-02 0.93054890E+02</pdfrwt>
<totfact> 0.63251883E+04</totfact>
</mgrwt>
</event>
<event>
 6    1  0.1661841E-002  0.9493680E+02  0.7546771E-02  0.1356385E+00
          1   -1    0    0  501    0  0.00000000000E+00  0.00000000000E+00  0.48544198447E+02  0.48544198447E+02  0.00000000000E+00 0. -1.
         -1   -1    0    0    0  501 -0.00000000000E+00 -0.00000000000E+00 -0.86463734795E+02  0.86463734795E+02  0.00000000000E+00 0.  1.
         23    2    1    2    0    0  0.28918142700E+02  0.74783363966E+01 -0.43818966976E+02  0.10456145932E+03  0.90115550357E+02 0.  0.
         11    1    3    3    0    0  0.23789221167E+02  0.37688605978E+02 -0.56013811812E+02  0.71581458339E+02  0.00000000000E+00 0.  1.
        -11    1    3    3    0    0  0.51289215322E+01 -0.30210269581E+02  0.12194844836E+02  0.32980000982E+02  0.00000000000E+00 0. -1.
         22    1    1    2    0    0 -0.28918142700E+02 -0.74783363966E+01  0.58994306283E+01  0.30446473921E+02  0.00000000000E+00 0. -1.
<mgrwt>
<rscale>  0 0.71102160E+02</rscale>
<asrwt>0</asrwt>
<pdfrwt beam="1">  1        1 0.74683384E-02 0.94936805E+02</pdfrwt>
<pdfrwt beam="2">  1       -1 0.13302113E-01 0.94936805E+02</pdfrwt>
<totfact> 0.32562340E+04</totfact>
</mgrwt>
</event>
<event>
 6    1  0.1661841E-002  0.1065450E+03  0.7546771E-02  0.1298673E+00
         -1   -1    0    0    0  501 -0.00000000000E+00  0.00000000000E+00  0.97247004746E+02  0.97247004746E+02  0.00000000000E+00 0.  1.
          1   -1    0    0  501    0  0.00000000000E+00 -0.00000000000E+00 -0.75290853402E+02  0.75290853402E+02  0.00000000000E+00 0. -1.
         23    2    1    2    0    0 -0.26557577835E+02 -0.52219870118E+02 -0.77979527019E+01  0.10682997062E+03  0.88992217531E+02 0.  0.
         11    1    3    3    0    0 -0.36674727849E+02 -0.16604162894E+02 -0.40737308759E+02  0.57273573427E+02  0.00000000000E+00 0. -1.
        -11    1    3    3    0    0  0.10117150014E+02 -0.35615707224E+02  0.32939356057E+02  0.49556397195E+02  0.00000000000E+00 0.  1.
         22    1    1    2    0    0  0.26557577835E+02  0.52219870118E+02  0.29754104046E+02  0.65707887526E+02  0.00000000000E+00 0.  1.
<mgrwt>
<rscale>  0 0.91748011E+02</rscale>
<asrwt>0</asrwt>
<pdfrwt beam="1">  1        1 0.11583208E-01 0.10654499E+03</pdfrwt>
<pdfrwt beam="2">  1       -1 0.14961078E-01 0.10654499E+03</pdfrwt>
<totfact> 0.15421675E+04</totfact>
</mgrwt>
</event>
<event>
 6    1  0.1661841E-002  0.9156362E+02  0.7546771E-02  0.1415572E+00
         -2   -1    0    0    0  501 -0.00000000000E+00  0.00000000000E+00  0.33289104235E+02  0.33289104235E+02  0.00000000000E+00 0. -1.
          2   -1    0    0  501    0  0.00000000000E+00 -0.00000000000E+00 -0.82234854772E+02  0.82234854772E+02  0.00000000000E+00 0.  1.
         23    2    1    2    0    0 -0.11412571357E+02 -0.57570780238E+01 -0.39984574906E+02  0.99913276734E+02  0.90667005603E+02 0.  0.
         13    1    3    3    0    0 -0.31408452762E+02  0.29772084967E+02 -0.67874091903E+00  0.43281966654E+02  0.00000000000E+00 0.  1.
        -13    1    3    3    0    0  0.19995881404E+02 -0.35529162991E+02 -0.39305833987E+02  0.56631310080E+02  0.00000000000E+00 0. -1.
         22    1    1    2    0    0  0.11412571357E+02  0.57570780238E+01 -0.89611756312E+01  0.15610682274E+02  0.00000000000E+00 0. -1.
<mgrwt>
<rscale>  0 0.55968755E+02</rscale>
<asrwt>0</asrwt>
<pdfrwt beam="1">  1        2 0.12651516E-01 0.91563621E+02</pdfrwt>
<pdfrwt beam="2">  1       -2 0.51214007E-02 0.91563621E+02</pdfrwt>
<totfact> 0.77098398E+04</totfact>
</mgrwt>
</event>
<event>
 6    1  0.1661841E-002  0.9951432E+02  0.7546771E-02  0.1335372E+00
          4   -1    0    0  501    0  0.00000000000E+00  0.00000000000E+00  0.13381777753E+03  0.13381777753E+03  0.00000000000E+00 0. -1.
         -4   -1    0    0    0  501 -0.00000000000E+00 -0.00000000000E+00 -0.54381390475E+02  0.54381390475E+02  0.00000000000E+00 0.  1.
         23    2    1    2    0    0 -0.14489130169E+02 -0.34264857192E+02 -0.10619474747E+01  0.99519986720E+02  0.92298887821E+02 0.  0.
         13    1    3    3    0    0  0.44652154111E+01 -0.53095571913E+02 -0.29165360353E+02  0.60742869129E+02  0.00000000000E+00 0.  1.
        -13    1    3    3    0    0 -0.18954345580E+02  0.18830714722E+02  0.28103412878E+02  0.38777117591E+02  0.00000000000E+00 0. -1.
         22    1    1    2    0    0  0.14489130169E+02  0.34264857192E+02  0.80498334533E+02  0.88679181288E+02  0.00000000000E+00 0. -1.
<mgrwt>
<rscale>  0 0.77813831E+02</rscale>
<asrwt>0</asrwt>
<pdfrwt beam="1">  1        4 0.20587350E-01 0.99514321E+02</pdfrwt>
<pdfrwt beam="2">  1       -4 0.83663678E-02 0.99514321E+02</pdfrwt>
<totfact> 0.33216836E+03</totfact>
</mgrwt>
</event>
<event>
 6    1  0.1661841E-002  0.1011151E+03  0.7546771E-02  0.1337534E+00
          1   -1    0    0  501    0  0.00000000000E+00  0.00000000000E+00  0.11109966406E+02  0.11109966406E+02  0.00000000000E+00 0. -1.
         -1   -1    0    0    0  501 -0.00000000000E+00 -0.00000000000E+00 -0.79584938839E+03  0.79584938839E+03  0.00000000000E+00 0.  1.
         23    2    1    2    0    0  0.21642907286E+02  0.26420034762E+02 -0.75479565023E+03  0.76153839995E+03  0.95172618483E+02 0.  0.
         11    1    3    3    0    0 -0.28387042571E+02  0.15660937129E+02 -0.10902507269E+03  0.11374337613E+03  0.00000000000E+00 0. -1.
        -11    1    3    3    0    0  0.50029949857E+02  0.10759097633E+02 -0.64577057754E+03  0.64779502382E+03  0.00000000000E+00 0.  1.
         22    1    1    2    0    0 -0.21642907286E+02 -0.26420034762E+02 -0.29943771746E+02  0.45420954845E+02  0.00000000000E+00 0. -1.
<mgrwt>
<rscale>  0 0.77084929E+02</rscale>
<asrwt>0</asrwt>
<pdfrwt beam="1">  1        1 0.17092250E-02 0.10111509E+03</pdfrwt>
<pdfrwt beam="2">  1       -1 0.12243841E+00 0.10111509E+03</pdfrwt>
<totfact> 0.44538230E+03</totfact>
</mgrwt>
</event>
<event>
 6    1  0.1661841E-002  0.8737042E+02  0.7546771E-02  0.1394454E+00
         -2   -1    0    0    0  501 -0.00000000000E+00  0.00000000000E+00  0.13921067268E+03  0.13921067268E+03  0.00000000000E+00 0.  1.
          2   -1    0    0  501    0  0.00000000000E+00 -0.00000000000E+00 -0.24010092752E+02  0.24010092752E+02  0.00000000000E+00 0. -1.
         23    2    1    2    0    0  0.20472312956E+02 -0.11666858069E+01  0.64707547994E+02  0.10872284779E+03  0.84930054223E+02 0.  0.
         11    1    3    3    0    0  0.17070812878E+02 -0.79553807596E+01 -0.17771785105E+02  0.25894730761E+02  0.00000000000E+00 0. -1.
        -11    1    3    3    0    0  0.34015000790E+01  0.67886949527E+01  0.82479333099E+02  0.82828117028E+02  0.00000000000E+00 0.  1.
         22    1    1    2    0    0 -0.20472312956E+02  0.11666858069E+01  0.50493031939E+02  0.54497917647E+02  0.00000000000E+00 0.  1.
<mgrwt>
<rscale>  0 0.60812251E+02</rscale>
<asrwt>0</asrwt>
<pdfrwt beam="1">  1        2 0.36938605E-02 0.87370423E+02</pdfrwt>
<pdfrwt beam="2">  1       -2 0.21417026E-01 0.87370423E+02</pdfrwt>
<totfact> 0.37915758E+04</totfact>
</mgrwt>
</event>
<event>
 6    1  0.1661841E-002  0.1061767E+03  0.7546771E-02  0.1397889E+00
          2   -1    0    0  501    0  0.00000000000E+00  0.00000000000E+00  0.30717323261E+03  0.30717323261E+03  0.00000000000E+00 0. -1.
         -2   -1    0    0    0  501 -0.00000000000E+00 -0.00000000000E+00 -0.11495741500E+02  0.11495741500E+02  0.00000000000E+00 0.  1.
         23    2    1    2    0    0  0.10276449148E+02 -0.33779715559E+01  0.24788083134E+03  0.26966349702E+03  0.10562423483E+03 0.  0.
         13    1    3    3    0    0 -0.33635199017E+02  0.12898328294E+02  0.30217000637E+02  0.47018726197E+02  0.00000000000E+00 0.  1.
        -13    1    3    3    0    0  0.43911648166E+02 -0.16276299850E+02  0.21766383070E+03  0.22264477083E+03  0.00000000000E+00 0. -1.
         22    1    1    2    0    0 -0.10276449148E+02  0.33779715559E+01  0.47796659772E+02  0.49005477085E+02  0.00000000000E+00 0.  1.
<mgrwt>
<rscale>  0 0.59986382E+02</rscale>
<asrwt>0</asrwt>
<pdfrwt beam="1">  1        2 0.47257414E-01 0.10617672E+03</pdfrwt>
<pdfrwt beam="2">  1       -2 0.17685758E-02 0.10617672E+03</pdfrwt>
<totfact> 0.87068631E+04</totfact>
</mgrwt>
</event>
<event>
 6    1  0.1661841E-002  0.9501124E+02  0.7546771E-02  0.1392123E+00
         -2   -1    0    0    0  501 -0.00000000000E+00  0.00000000000E+00  0.29220960168E+03  0.29220960168E+03  0.00000000000E+00 0. -1.
          2   -1    0    0  501    0  0.00000000000E+00 -0.00000000000E+00 -0.10686957978E+02  0.10686957978E+02  0.00000000000E+00 0.  1.
         23    2    1    2    0    0  0.11585656802E+02  0.11820401907E+02  0.24587951961E+03  0.26359793831E+03  0.93558460722E+02 0.  0.
         13    1    3    3    0    0 -0.10450711394E+02  0.41549146911E+02  0.57995247982E+02  0.72104075932E+02  0.00000000000E+00 0.  1.
        -13    1    3    3    0    0  0.22036368195E+02 -0.29728745003E+02  0.18788427163E+03  0.19149386238E+03  0.00000000000E+00 0. -1.
         22    1    1    2    0    0 -0.11585656802E+02 -0.11820401907E+02  0.35643124092E+02  0.39298621347E+02  0.00000000000E+00 0.  1.
<mgrwt>
<rscale>  0 0.61381855E+02</rscale>
<asrwt>0</asrwt>
<pdfrwt beam="1">  1        2 0.16441476E-02 0.95011236E+02</pdfrwt>
<pdfrwt beam="2">  1       -2 0.44955317E-01 0.95011236E+02</pdfrwt>
<totfact> 0.29895868E+04</totfact>
</mgrwt>
</event>
<event>
 6    1  0.1661841E-002  0.9212382E+02  0.7546771E-02  0.1418920E+00
         -2   -1    0    0    0  501 -0.00000000000E+00  0.00000000000E+00  0.28509958437E+02  0.28509958437E+02  0.00000000000E+00 0.  1.
          2   -1    0    0  501    0  0.00000000000E+00 -0.00000000000E+00 -0.97161380619E+02  0.97161380619E+02  0.00000000000E+00 0. -1.
         23    2    1    2    0    0  0.82862644156E+01  0.85665478363E+01 -0.53997680608E+02  0.10678271650E+03  0.91349609267E+02 0.  0.
         11    1    3    3    0    0  0.34691907123E+02  0.71329805102E+01 -0.68139345468E+02  0.76794389324E+02  0.00000000000E+00 0. -1.
        -11    1    3    3    0    0 -0.26405642707E+02  0.14335673261E+01  0.14141664861E+02  0.29988327180E+02  0.00000000000E+00 0.  1.
         22    1    1    2    0    0 -0.82862644156E+01 -0.85665478363E+01 -0.14653741574E+02  0.18888622552E+02  0.00000000000E+00 0.  1.
<mgrwt>
<rscale>  0 0.55250133E+02</rscale>
<asrwt>0</asrwt>
<pdfrwt beam="1">  1        2 0.14947905E-01 0.92123824E+02</pdfrwt>
<pdfrwt beam="2">  1       -2 0.43861474E-02 0.92123824E+02</pdfrwt>
<totfact> 0.79896985E+04</totfact>
</mgrwt>
</event>
<event>
 6    1  0.1661841E-002  0.9191677E+02  0.7546771E-02  0.1414097E+00
          2   -1    0    0  501    0  0.00000000000E+00  0.00000000000E+00  0.25291175000E+02  0.25291175000E+02  0.00000000000E+00 0. -1.
         -2   -1    0    0    0  501 -0.00000000000E+00 -0.00000000000E+00 -0.12355441299E+03  0.12355441299E+03  0.00000000000E+00 0.  1.
         23    2    1    2    0    0 -0.29399926814E+01 -0.12589106140E+02 -0.99971946754E+02  0.13580531054E+03  0.91003093814E+02 0.  0.
         11    1    3    3    0    0  0.14150213250E+02  0.36683521694E+02 -0.36422013517E+02  0.53595450996E+02  0.00000000000E+00 0. -1.
        -11    1    3    3    0    0 -0.17090205931E+02 -0.49272627833E+02 -0.63549933237E+02  0.82209859548E+02  0.00000000000E+00 0.  1.
         22    1    1    2    0    0  0.29399926814E+01  0.12589106140E+02  0.17087087594E+01  0.13040277451E+02  0.00000000000E+00 0.  1.
<mgrwt>
<rscale>  0 0.56289525E+02</rscale>
<asrwt>0</asrwt>
<pdfrwt beam="1">  1        2 0.38909500E-02 0.91916768E+02</pdfrwt>
<pdfrwt beam="2">  1       -2 0.19008371E-01 0.91916768E+02</pdfrwt>
<totfact> 0.43580896E+04</totfact>
</mgrwt>
</event>
<event>
 6    1  0.1661841E-002  0.9238867E+02  0.7546771E-02  0.1423154E+00
         -3   -1    0    0    0  501 -0.00000000000E+00  0.00000000000E+00  0.21830024819E+02  0.21830024819E+02  0.00000000000E+00 0.  1.
          3   -1    0    0  501    0  0.00000000000E+00 -0.00000000000E+00 -0.14159668713E+03  0.14159668713E+03  0.00000000000E+00 0. -1.
         23    2    1    2    0    0 -0.86931826647E+01  0.68573821337E+01 -0.80208298860E+02  0.12234801633E+03  0.91722793133E+02 0.  0.
         11    1    3    3    0    0  0.90945329494E+01  0.30201974425E+02  0.52634514052E+01  0.31977706445E+02  0.00000000000E+00 0.  1.
        -11    1    3    3    0    0 -0.17787715614E+02 -0.23344592292E+02 -0.85471750265E+02  0.90370309889E+02  0.00000000000E+00 0. -1.
         22    1    1    2    0    0  0.86931826647E+01 -0.68573821337E+01 -0.39558363454E+02  0.41078695619E+02  0.00000000000E+00 0. -1.
<mgrwt>
<rscale>  0 0.54359215E+02</rscale>
<asrwt>0</asrwt>
<pdfrwt beam="1">  1        3 0.21784107E-01 0.92388668E+02</pdfrwt>
<pdfrwt beam="2">  1       -3 0.33584652E-02 0.92388668E+02</pdfrwt>
<totfact> 0.16926487E+04</totfact>
</mgrwt>
</event>
<event>
 6    1  0.1661841E-002  0.1016175E+03  0.7546771E-02  0.1331882E+00
          2   -1    0    0  501    0  0.00000000000E+00  0.00000000000E+00  0.33806027481E+03  0.33806027481E+03  0.00000000000E+00 0. -1.
         -2   -1    0    0    0  501 -0.00000000000E+00 -0.00000000000E+00 -0.14729334461E+02  0.14729334461E+02  0.00000000000E+00 0.  1.
         23    2    1    2    0    0  0.36363500248E+02 -0.75539396959E+01  0.20563405359E+03  0.22937193101E+03  0.94587274953E+02 0.  0.
         13    1    3    3    0    0 -0.55756583201E+01  0.38483464415E+01 -0.85012727122E+01  0.10870573755E+02  0.00000000000E+00 0.  1.
        -13    1    3    3    0    0  0.41939158568E+02 -0.11402286137E+02  0.21413532630E+03  0.21850135725E+03  0.00000000000E+00 0. -1.
         22    1    1    2    0    0 -0.36363500248E+02  0.75539396959E+01  0.11769688676E+03  0.12341767827E+03  0.00000000000E+00 0.  1.
<mgrwt>
<rscale>  0 0.79010783E+02</rscale>
<asrwt>0</asrwt>
<pdfrwt beam="1">  1        2 0.52009267E-01 0.10161751E+03</pdfrwt>
<pdfrwt beam="2">  1       -2 0.22660517E-02 0.10161751E+03</pdfrwt>
<totfact> 0.54752914E+04</totfact>
</mgrwt>
</event>
<event>
 6    1  0.1661841E-002  0.9284692E+02  0.7546771E-02  0.1426997E+00
         -2   -1    0    0    0  501 -0.00000000000E+00  0.00000000000E+00  0.29746732189E+03  0.29746732189E+03  0.00000000000E+00 0. -1.
          2   -1    0    0  501    0  0.00000000000E+00 -0.00000000000E+00 -0.89449601912E+01  0.89449601912E+01  0.00000000000E+00 0.  1.
         23    2    1    2    0    0 -0.38264734024E+01  0.95491944821E+01  0.26196923663E+03  0.27793602065E+03  0.92275249241E+02 0.  0.
         13    1    3    3    0    0  0.20045240780E+02  0.12587192214E+02  0.11503482473E+02  0.26316899414E+02  0.00000000000E+00 0.  1.
        -13    1    3    3    0    0 -0.23871714183E+02 -0.30379977314E+01  0.25046575415E+03  0.25161912124E+03  0.00000000000E+00 0. -1.
         22    1    1    2    0    0  0.38264734024E+01 -0.95491944821E+01  0.26553125072E+02  0.28476261430E+02  0.00000000000E+00 0. -1.
<mgrwt>
<rscale>  0 0.53567481E+02</rscale>
<asrwt>0</asrwt>
<pdfrwt beam="1">  1        2 0.13761480E-02 0.92846920E+02</pdfrwt>
<pdfrwt beam="2">  1       -2 0.45764196E-01 0.92846920E+02</pdfrwt>
<totfact> 0.36674735E+04</totfact>
</mgrwt>
</event>
<event>
 6    1  0.1661841E-002  0.8750727E+02  0.7546771E-02  0.1402494E+00
         -2   -1    0    0    0  501 -0.00000000000E+00  0.00000000000E+00  0.33479507016E+02  0.33479507016E+02  0.00000000000E+00 0.  1.
          2   -1    0    0  501    0  0.00000000000E+00 -0.00000000000E+00 -0.10043086099E+03  0.10043086099E+03  0.00000000000E+00 0. -1.
         23    2    1    2    0    0  0.17939463494E+02 -0.94981588274E+00 -0.29453079695E+02  0.92330961149E+02  0.85643423463E+02 0.  0.
         13    1    3    3    0    0 -0.26470354513E+02  0.12168695047E+02  0.10703658889E+02  0.31037479292E+02  0.00000000000E+00 0.  1.
        -13    1    3    3    0    0  0.44409818007E+02 -0.13118510930E+02 -0.40156738584E+02  0.61293481857E+02  0.00000000000E+00 0. -1.
         22    1    1    2    0    0 -0.17939463494E+02  0.94981588274E+00 -0.37498274278E+02  0.41579406856E+02  0.00000000000E+00 0. -1.
<mgrwt>
<rscale>  0 0.58903003E+02</rscale>
<asrwt>0</asrwt>
<pdfrwt beam="1">  1        2 0.15450902E-01 0.87507271E+02</pdfrwt>
<pdfrwt beam="2">  1       -2 0.51506934E-02 0.87507271E+02</pdfrwt>
<totfact> 0.60152679E+04</totfact>
</mgrwt>
</event>
<event>
 6    1  0.1661841E-002  0.9244842E+02  0.7546771E-02  0.1425435E+00
         -2   -1    0    0    0  501 -0.00000000000E+00  0.00000000000E+00  0.72330772821E+03  0.72330772821E+03  0.00000000000E+00 0. -1.
          2   -1    0    0  501    0  0.00000000000E+00 -0.00000000000E+00 -0.37065167342E+01  0.37065167342E+01  0.00000000000E+00 0.  1.
         23    2    1    2    0    0 -0.78745626384E+01 -0.72031695000E+01  0.66316112581E+03  0.66957403553E+03  0.91830364710E+02 0.  0.
         11    1    3    3    0    0  0.12850969798E+02 -0.11957502617E+02  0.62959375427E+03  0.62983841158E+03  0.00000000000E+00 0. -1.
        -11    1    3    3    0    0 -0.20725532436E+02  0.47543331166E+01  0.33567371543E+02  0.39735623947E+02  0.00000000000E+00 0.  1.
         22    1    1    2    0    0  0.78745626384E+01  0.72031695000E+01  0.56440085670E+02  0.57440209418E+02  0.00000000000E+00 0. -1.
<mgrwt>
<rscale>  0 0.53887422E+02</rscale>
<asrwt>0</asrwt>
<pdfrwt beam="1">  1        2 0.57023392E-03 0.92448420E+02</pdfrwt>
<pdfrwt beam="2">  1       -2 0.11127800E+00 0.92448420E+02</pdfrwt>
<totfact> 0.18591491E+04</totfact>
</mgrwt>
</event>
<event>
 6    1  0.1661841E-002  0.9962746E+02  0.7546771E-02  0.1374770E+00
          2   -1    0    0  501    0  0.00000000000E+00  0.00000000000E+00  0.10007000809E+03  0.10007000809E+03  0.00000000000E+00 0. -1.
         -2   -1    0    0    0  501 -0.00000000000E+00 -0.00000000000E+00 -0.35171803730E+02  0.35171803730E+02  0.00000000000E+00 0.  1.
         23    2    1    2    0    0  0.55343412041E+01 -0.18201887351E+02  0.54699320388E+02  0.11365582401E+03  0.97794136040E+02 0.  0.
         11    1    3    3    0    0  0.38156517272E+02 -0.26471341903E+02  0.63688679750E+02  0.78821949232E+02  0.00000000000E+00 0.  1.
        -11    1    3    3    0    0 -0.32622176068E+02  0.82694545516E+01 -0.89893593613E+01  0.34833874774E+02  0.00000000000E+00 0. -1.
         22    1    1    2    0    0 -0.55343412041E+01  0.18201887351E+02  0.10198883974E+02  0.21585987817E+02  0.00000000000E+00 0. -1.
<mgrwt>
<rscale>  0 0.65858754E+02</rscale>
<asrwt>0</asrwt>
<pdfrwt beam="1">  1        2 0.15395386E-01 0.99627459E+02</pdfrwt>
<pdfrwt beam="2">  1       -2 0.54110468E-02 0.99627459E+02</pdfrwt>
<totfact> 0.57151728E+04</totfact>
</mgrwt>
</event>
<event>
 6    1  0.1738751E-002  0.8440296E+02  0.7546771E-02  0.1445249E+00
         -2   -1    0    0    0  501 -0.00000000000E+00  0.00000000000E+00  0.21646733919E+02  0.21646733919E+02  0.00000000000E+00 0.  1.
          2   -1    0    0  501    0  0.00000000000E+00 -0.00000000000E+00 -0.11353454798E+03  0.11353454798E+03  0.00000000000E+00 0. -1.
         23    2    1    2    0    0 -0.22204373348E+01  0.10169343705E+02 -0.65569871130E+02  0.10687969160E+03  0.83758668704E+02 0.  0.
         13    1    3    3    0    0 -0.12558423545E+02  0.55053275725E+01 -0.84069440356E+02  0.85180358272E+02  0.00000000000E+00 0. -1.
        -13    1    3    3    0    0  0.10337986210E+02  0.46640161326E+01  0.18499569225E+02  0.21699333328E+02  0.00000000000E+00 0.  1.
         22    1    1    2    0    0  0.22204373348E+01 -0.10169343705E+02 -0.26317942933E+02  0.28301590301E+02  0.00000000000E+00 0.  1.
<mgrwt>
<rscale>  0 0.50017253E+02</rscale>
<asrwt>0</asrwt>
<pdfrwt beam="1">  1        2 0.17466854E-01 0.84402965E+02</pdfrwt>
<pdfrwt beam="2">  1       -2 0.33302667E-02 0.84402965E+02</pdfrwt>
<totfact> 0.98754687E+04</totfact>
</mgrwt>
</event>
<event>
 6    1  0.1661841E-002  0.9531385E+02  0.7546771E-02  0.1394758E+00
          2   -1    0    0  501    0  0.00000000000E+00  0.00000000000E+00  0.36254474960E+02  0.36254474960E+02  0.00000000000E+00 0. -1.
         -2   -1    0    0    0  501 -0.00000000000E+00 -0.00000000000E+00 -0.86155478855E+02  0.86155478855E+02  0.00000000000E+00 0.  1.
         23    2    1    2    0    0  0.15238406123E+02  0.38527528339E+01 -0.47552829325E+02  0.10651760819E+03  0.94008917411E+02 0.  0.
         13    1    3    3    0    0 -0.20620823901E+02  0.76982121956E+00  0.20780364606E+02  0.29285398345E+02  0.00000000000E+00 0. -1.
        -13    1    3    3    0    0  0.35859230024E+02  0.30829316143E+01 -0.68333193931E+02  0.77232209848E+02  0.00000000000E+00 0.  1.
         22    1    1    2    0    0 -0.15238406123E+02 -0.38527528339E+01 -0.23481745697E+01  0.15892345622E+02  0.00000000000E+00 0. -1.
<mgrwt>
<rscale>  0 0.60738729E+02</rscale>
<asrwt>0</asrwt>
<pdfrwt beam="1">  1        2 0.55776116E-02 0.95313846E+02</pdfrwt>
<pdfrwt beam="2">  1       -2 0.13254689E-01 0.95313846E+02</pdfrwt>
<totfact> 0.49425112E+04</totfact>
</mgrwt>
</event>
<event>
 6    1  0.1661841E-002  0.9067971E+02  0.7546771E-02  0.1361031E+00
          4   -1    0    0  501    0  0.00000000000E+00  0.00000000000E+00  0.29071274712E+02  0.29071274712E+02  0.00000000000E+00 0. -1.
         -4   -1    0    0    0  501 -0.00000000000E+00 -0.00000000000E+00 -0.15733348813E+03  0.15733348813E+03  0.00000000000E+00 0.  1.
         23    2    1    2    0    0  0.29238236615E+02 -0.12240622305E+02 -0.12515901412E+03  0.15455610258E+03  0.84959418035E+02 0.  0.
         11    1    3    3    0    0 -0.38137779265E+01 -0.35849528937E+02 -0.18703049137E+02  0.40614500786E+02  0.00000000000E+00 0. -1.
        -11    1    3    3    0    0  0.33052014542E+02  0.23608906632E+02 -0.10645596499E+03  0.11394160179E+03  0.00000000000E+00 0.  1.
         22    1    1    2    0    0 -0.29238236615E+02  0.12240622305E+02 -0.31031992942E+01  0.31848660264E+02  0.00000000000E+00 0. -1.
<mgrwt>
<rscale>  0 0.69724842E+02</rscale>
<asrwt>0</asrwt>
<pdfrwt beam="1">  1        4 0.44725038E-02 0.90679711E+02</pdfrwt>
<pdfrwt beam="2">  1       -4 0.24205152E-01 0.90679711E+02</pdfrwt>
<totfact> 0.66459391E+03</totfact>
</mgrwt>
</event>
<event>
 6    1  0.1661841E-002  0.9735132E+02  0.7546771E-02  0.1341146E+00
          2   -1    0    0  501    0  0.00000000000E+00  0.00000000000E+00  0.67546518243E+02  0.67546518243E+02  0.00000000000E+00 0. -1.
         -2   -1    0    0    0  501 -0.00000000000E+00 -0.00000000000E+00 -0.67269610180E+02  0.67269610180E+02  0.00000000000E+00 0.  1.
         23    2    1    2    0    0 -0.35429926918E+02 -0.60676966625E+01 -0.87814931264E+01  0.97746581673E+02  0.90472000879E+02 0.  0.
         11    1    3    3    0    0 -0.30248203785E+02 -0.11840078553E+02  0.38191662220E+02  0.50137255165E+02  0.00000000000E+00 0. -1.
        -11    1    3    3    0    0 -0.51817231329E+01  0.57723818909E+01 -0.46973155346E+02  0.47609326508E+02  0.00000000000E+00 0.  1.
         22    1    1    2    0    0  0.35429926918E+02  0.60676966625E+01  0.90584011898E+01  0.37069546750E+02  0.00000000000E+00 0.  1.
<mgrwt>
<rscale>  0 0.75887153E+02</rscale>
<asrwt>0</asrwt>
<pdfrwt beam="1">  1        2 0.10391772E-01 0.97351321E+02</pdfrwt>
<pdfrwt beam="2">  1       -2 0.10349171E-01 0.97351321E+02</pdfrwt>
<totfact> 0.33720286E+04</totfact>
</mgrwt>
</event>
<event>
 6    1  0.1661841E-002  0.1325731E+03  0.7546771E-02  0.1239411E+00
          1   -1    0    0  501    0  0.00000000000E+00  0.00000000000E+00  0.41713564591E+03  0.41713564591E+03  0.00000000000E+00 0. -1.
         -1   -1    0    0    0  501 -0.00000000000E+00 -0.00000000000E+00 -0.46139180701E+02  0.46139180701E+02  0.00000000000E+00 0.  1.
         23    2    1    2    0    0  0.95735194046E+02  0.55666452876E+01  0.75406124140E+02  0.15251790448E+03  0.91539132126E+02 0.  0.
         11    1    3    3    0    0  0.19048009712E+02  0.18950817380E+02  0.69423687283E+02  0.74441980826E+02  0.00000000000E+00 0. -1.
        -11    1    3    3    0    0  0.76687184333E+02 -0.13384172093E+02  0.59824368570E+01  0.78075923653E+02  0.00000000000E+00 0.  1.
         22    1    1    2    0    0 -0.95735194046E+02 -0.55666452876E+01  0.29559034107E+03  0.31075692213E+03  0.00000000000E+00 0. -1.
<mgrwt>
<rscale>  0 0.12226234E+03</rscale>
<asrwt>0</asrwt>
<pdfrwt beam="1">  1        1 0.64174712E-01 0.13257310E+03</pdfrwt>
<pdfrwt beam="2">  1       -1 0.70983358E-02 0.13257310E+03</pdfrwt>
<totfact> 0.56871503E+03</totfact>
</mgrwt>
</event>
<event>
 6    1  0.1661841E-002  0.9079212E+02  0.7546771E-02  0.1408010E+00
         -2   -1    0    0    0  501 -0.00000000000E+00  0.00000000000E+00  0.86527255395E+02  0.86527255395E+02  0.00000000000E+00 0. -1.
          2   -1    0    0  501    0  0.00000000000E+00 -0.00000000000E+00 -0.64201841646E+02  0.64201841646E+02  0.00000000000E+00 0.  1.
         23    2    1    2    0    0  0.71385367842E+01 -0.12906357235E+02  0.60970886453E+02  0.10936479691E+03  0.89586143150E+02 0.  0.
         11    1    3    3    0    0  0.31585711294E+01 -0.43574484809E+02  0.64853759049E+02  0.78196690216E+02  0.00000000000E+00 0. -1.
        -11    1    3    3    0    0  0.39799656548E+01  0.30668127574E+02 -0.38828725956E+01  0.31168106697E+02  0.00000000000E+00 0.  1.
         22    1    1    2    0    0 -0.71385367842E+01  0.12906357235E+02 -0.38645472705E+02  0.41364300128E+02  0.00000000000E+00 0.  1.
<mgrwt>
<rscale>  0 0.57640364E+02</rscale>
<asrwt>0</asrwt>
<pdfrwt beam="1">  1        2 0.98772064E-02 0.90792124E+02</pdfrwt>
<pdfrwt beam="2">  1       -2 0.13311885E-01 0.90792124E+02</pdfrwt>
<totfact> 0.23893600E+04</totfact>
</mgrwt>
</event>
<event>
 6    1  0.1661841E-002  0.9980385E+02  0.7546771E-02  0.1341790E+00
          2   -1    0    0  501    0  0.00000000000E+00  0.00000000000E+00  0.12270922220E+03  0.12270922220E+03  0.00000000000E+00 0. -1.
         -2   -1    0    0    0  501 -0.00000000000E+00 -0.00000000000E+00 -0.35955394527E+02  0.35955394527E+02  0.00000000000E+00 0.  1.
         23    2    1    2    0    0  0.32799996332E+02  0.35413723208E+01  0.63262381076E+02  0.11816487425E+03  0.94193564381E+02 0.  0.
         13    1    3    3    0    0  0.29520140967E+02  0.29333677033E+02  0.77906018292E+02  0.88324690869E+02  0.00000000000E+00 0. -1.
        -13    1    3    3    0    0  0.32798553656E+01 -0.25792304712E+02 -0.14643637215E+02  0.29840183386E+02  0.00000000000E+00 0.  1.
         22    1    1    2    0    0 -0.32799996332E+02 -0.35413723208E+01  0.23491446600E+02  0.40499742476E+02  0.00000000000E+00 0.  1.
<mgrwt>
<rscale>  0 0.75675987E+02</rscale>
<asrwt>0</asrwt>
<pdfrwt beam="1">  1        2 0.18878342E-01 0.99803851E+02</pdfrwt>
<pdfrwt beam="2">  1       -2 0.55315992E-02 0.99803851E+02</pdfrwt>
<totfact> 0.43817560E+04</totfact>
</mgrwt>
</event>
<event>
 6    1  0.1661841E-002  0.9285298E+02  0.7546771E-02  0.1399384E+00
         -4   -1    0    0    0  501 -0.00000000000E+00  0.00000000000E+00  0.16182469009E+03  0.16182469009E+03  0.00000000000E+00 0.  1.
          4   -1    0    0  501    0  0.00000000000E+00 -0.00000000000E+00 -0.18246323662E+02  0.18246323662E+02  0.00000000000E+00 0. -1.
         23    2    1    2    0    0  0.62414055329E+01 -0.14509667718E+02  0.12119792503E+03  0.15267813589E+03  0.91499675121E+02 0.  0.
         13    1    3    3    0    0  0.36559046595E+02  0.20258700282E+02  0.33413665754E+02  0.53511231384E+02  0.00000000000E+00 0. -1.
        -13    1    3    3    0    0 -0.30317641062E+02 -0.34768368000E+02  0.87784259274E+02  0.99166904506E+02  0.00000000000E+00 0.  1.
         22    1    1    2    0    0 -0.62414055329E+01  0.14509667718E+02  0.22380441395E+02  0.27392877858E+02  0.00000000000E+00 0. -1.
<mgrwt>
<rscale>  0 0.59631753E+02</rscale>
<asrwt>0</asrwt>
<pdfrwt beam="1">  1        4 0.28071268E-02 0.92852981E+02</pdfrwt>
<pdfrwt beam="2">  1       -4 0.24896105E-01 0.92852981E+02</pdfrwt>
<totfact> 0.13181564E+04</totfact>
</mgrwt>
</event>
<event>
 6    1  0.1661841E-002  0.8498120E+02  0.7546771E-02  0.1440273E+00
         -3   -1    0    0    0  501 -0.00000000000E+00  0.00000000000E+00  0.57431920415E+02  0.57431920415E+02  0.00000000000E+00 0.  1.
          3   -1    0    0  501    0  0.00000000000E+00 -0.00000000000E+00 -0.40466982964E+02  0.40466982964E+02  0.00000000000E+00 0. -1.
         23    2    1    2    0    0  0.39168450737E+01  0.10259633093E+02  0.18005842139E+02  0.86867800573E+02  0.84268634015E+02 0.  0.
         13    1    3    3    0    0  0.32210237335E+01  0.17677162323E+02 -0.31790613360E+02  0.36517121457E+02  0.00000000000E+00 0. -1.
        -13    1    3    3    0    0  0.69582134021E+00 -0.74175292299E+01  0.49796455499E+02  0.50350679117E+02  0.00000000000E+00 0.  1.
         22    1    1    2    0    0 -0.39168450737E+01 -0.10259633093E+02 -0.10409046888E+01  0.11031102806E+02  0.00000000000E+00 0.  1.
<mgrwt>
<rscale>  0 0.50952013E+02</rscale>
<asrwt>0</asrwt>
<pdfrwt beam="1">  1        3 0.62256896E-02 0.84981200E+02</pdfrwt>
<pdfrwt beam="2">  1       -3 0.88356801E-02 0.84981200E+02</pdfrwt>
<totfact> 0.28895233E+04</totfact>
</mgrwt>
</event>
<event>
 6    1  0.1661841E-002  0.1069090E+03  0.7546771E-02  0.1300933E+00
         -2   -1    0    0    0  501 -0.00000000000E+00  0.00000000000E+00  0.26551216775E+02  0.26551216775E+02  0.00000000000E+00 0.  1.
          2   -1    0    0  501    0  0.00000000000E+00 -0.00000000000E+00 -0.25952423253E+03  0.25952423253E+03  0.00000000000E+00 0. -1.
         23    2    1    2    0    0  0.31368240791E+02 -0.45933081265E+02 -0.12397081079E+03  0.16370186077E+03  0.91300179656E+02 0.  0.
         11    1    3    3    0    0  0.49868721125E+02 -0.13788793973E+02 -0.11416075406E+03  0.12533833393E+03  0.00000000000E+00 0.  1.
        -11    1    3    3    0    0 -0.18500480334E+02 -0.32144287292E+02 -0.98100567352E+01  0.38363526835E+02  0.00000000000E+00 0. -1.
         22    1    1    2    0    0 -0.31368240791E+02  0.45933081265E+02 -0.10900220496E+03  0.12237358854E+03  0.00000000000E+00 0. -1.
<mgrwt>
<rscale>  0 0.90797215E+02</rscale>
<asrwt>0</asrwt>
<pdfrwt beam="1">  1        2 0.39926806E-01 0.10690901E+03</pdfrwt>
<pdfrwt beam="2">  1       -2 0.40848024E-02 0.10690901E+03</pdfrwt>
<totfact> 0.30752642E+04</totfact>
</mgrwt>
</event>
<event>
 6    1  0.1661841E-002  0.9267968E+02  0.7546771E-02  0.1422428E+00
          2   -1    0    0  501    0  0.00000000000E+00  0.00000000000E+00  0.26194615804E+02  0.26194615804E+02  0.00000000000E+00 0.  1.
         -2   -1    0    0    0  501 -0.00000000000E+00 -0.00000000000E+00 -0.10429661368E+03  0.10429661368E+03  0.00000000000E+00 0. -1.
         23    2    1    2    0    0 -0.58470835008E+01 -0.94244782476E+01 -0.64374818029E+02  0.11284343522E+03  0.92013664752E+02 0.  0.
         13    1    3    3    0    0 -0.10266724999E+02 -0.42793203304E+02 -0.65792154685E+02  0.79153468082E+02  0.00000000000E+00 0. -1.
        -13    1    3    3    0    0  0.44196414986E+01  0.33368725056E+02  0.14173366559E+01  0.33689967142E+02  0.00000000000E+00 0.  1.
         22    1    1    2    0    0  0.58470835008E+01  0.94244782476E+01 -0.13727179843E+02  0.17647794257E+02  0.00000000000E+00 0.  1.
<mgrwt>
<rscale>  0 0.54510554E+02</rscale>
<asrwt>0</asrwt>
<pdfrwt beam="1">  1        2 0.40299410E-02 0.92679683E+02</pdfrwt>
<pdfrwt beam="2">  1       -2 0.16045633E-01 0.92679683E+02</pdfrwt>
<totfact> 0.55090980E+04</totfact>
</mgrwt>
</event>
<event>
 6    1  0.1661841E-002  0.9449039E+02  0.7546771E-02  0.1376862E+00
          3   -1    0    0  501    0  0.00000000000E+00  0.00000000000E+00  0.46652997766E+02  0.46652997766E+02  0.00000000000E+00 0. -1.
         -3   -1    0    0    0  501 -0.00000000000E+00 -0.00000000000E+00 -0.74509082935E+02  0.74509082935E+02  0.00000000000E+00 0.  1.
         23    2    1    2    0    0 -0.16367498823E+02  0.14013229618E+02 -0.13942663343E+02  0.95513514874E+02  0.92000913259E+02 0.  0.
         13    1    3    3    0    0  0.34570874102E+02  0.55142596749E+01  0.12903036161E+02  0.37310062157E+02  0.00000000000E+00 0. -1.
        -13    1    3    3    0    0 -0.50938372925E+02  0.84989699432E+01 -0.26845699505E+02  0.58203452718E+02  0.00000000000E+00 0.  1.
         22    1    1    2    0    0  0.16367498823E+02 -0.14013229618E+02 -0.13913421825E+02  0.25648565826E+02  0.00000000000E+00 0.  1.
<mgrwt>
<rscale>  0 0.65295995E+02</rscale>
<asrwt>0</asrwt>
<pdfrwt beam="1">  1        3 0.71773844E-02 0.94490389E+02</pdfrwt>
<pdfrwt beam="2">  1       -3 0.11462936E-01 0.94490389E+02</pdfrwt>
<totfact> 0.15465875E+04</totfact>
</mgrwt>
</event>
<event>
 6    1  0.1661841E-002  0.9858335E+02  0.7546771E-02  0.1340356E+00
          1   -1    0    0  501    0  0.00000000000E+00  0.00000000000E+00  0.87461217430E+02  0.87461217430E+02  0.00000000000E+00 0. -1.
         -1   -1    0    0    0  501 -0.00000000000E+00 -0.00000000000E+00 -0.75452084271E+02  0.75452084271E+02  0.00000000000E+00 0.  1.
         23    2    1    2    0    0 -0.13065072108E+01 -0.35066978014E+02 -0.34681566952E+02  0.10450592730E+03  0.92126423166E+02 0.  0.
         11    1    3    3    0    0 -0.18757399079E+02 -0.62734262582E+02 -0.18680657548E+02  0.68091076422E+02  0.00000000000E+00 0.  1.
        -11    1    3    3    0    0  0.17450891869E+02  0.27667284568E+02 -0.16000909404E+02  0.36414850873E+02  0.00000000000E+00 0. -1.
         22    1    1    2    0    0  0.13065072108E+01  0.35066978014E+02  0.46690700111E+02  0.58407374406E+02  0.00000000000E+00 0. -1.
<mgrwt>
<rscale>  0 0.76146962E+02</rscale>
<asrwt>0</asrwt>
<pdfrwt beam="1">  1        1 0.13455572E-01 0.98583354E+02</pdfrwt>
<pdfrwt beam="2">  1       -1 0.11608013E-01 0.98583354E+02</pdfrwt>
<totfact> 0.18618279E+04</totfact>
</mgrwt>
</event>
<event>
 6    1  0.1661841E-002  0.8770822E+02  0.7546771E-02  0.1398985E+00
         -2   -1    0    0    0  501 -0.00000000000E+00  0.00000000000E+00  0.15869358619E+02  0.15869358619E+02  0.00000000000E+00 0.  1.
          2   -1    0    0  501    0  0.00000000000E+00 -0.00000000000E+00 -0.19588908559E+03  0.19588908559E+03  0.00000000000E+00 0. -1.
         23    2    1    2    0    0 -0.13390542278E+02 -0.13280683378E+02 -0.11859907796E+03  0.14750753528E+03  0.85656572995E+02 0.  0.
         11    1    3    3    0    0 -0.22257267915E+02  0.24183715736E+02 -0.13415362182E+02  0.35499436957E+02  0.00000000000E+00 0.  1.
        -11    1    3    3    0    0  0.88667256366E+01 -0.37464399114E+02 -0.10518371578E+03  0.11200809832E+03  0.00000000000E+00 0. -1.
         22    1    1    2    0    0  0.13390542278E+02  0.13280683378E+02 -0.61420649008E+02  0.64250908927E+02  0.00000000000E+00 0. -1.
<mgrwt>
<rscale>  0 0.59725959E+02</rscale>
<asrwt>0</asrwt>
<pdfrwt beam="1">  1        2 0.30136781E-01 0.87708219E+02</pdfrwt>
<pdfrwt beam="2">  1       -2 0.24414399E-02 0.87708219E+02</pdfrwt>
<totfact> 0.85591823E+04</totfact>
</mgrwt>
</event>
<event>
 6    1  0.1661841E-002  0.9122038E+02  0.7546771E-02  0.1432107E+00
          2   -1    0    0  501    0  0.00000000000E+00  0.00000000000E+00  0.47237788159E+02  0.47237788159E+02  0.00000000000E+00 0. -1.
         -2   -1    0    0    0  501 -0.00000000000E+00 -0.00000000000E+00 -0.71598970844E+02  0.71598970844E+02  0.00000000000E+00 0.  1.
         23    2    1    2    0    0 -0.82037461756E+01  0.57852045608E+01 -0.40518978692E+02  0.99814550536E+02  0.90666348891E+02 0.  0.
         11    1    3    3    0    0 -0.35212930230E+02  0.31065623333E+02 -0.28910339579E+01  0.47046588461E+02  0.00000000000E+00 0. -1.
        -11    1    3    3    0    0  0.27009184055E+02 -0.25280418772E+02 -0.37627944734E+02  0.52767962075E+02  0.00000000000E+00 0.  1.
         22    1    1    2    0    0  0.82037461756E+01 -0.57852045608E+01  0.16157796008E+02  0.19022208467E+02  0.00000000000E+00 0.  1.
<mgrwt>
<rscale>  0 0.52539426E+02</rscale>
<asrwt>0</asrwt>
<pdfrwt beam="1">  1        2 0.72673520E-02 0.91220375E+02</pdfrwt>
<pdfrwt beam="2">  1       -2 0.11015226E-01 0.91220375E+02</pdfrwt>
<totfact> 0.47094152E+04</totfact>
</mgrwt>
</event>
<event>
 6    1  0.1661841E-002  0.9363333E+02  0.7546771E-02  0.1386224E+00
         -2   -1    0    0    0  501 -0.00000000000E+00  0.00000000000E+00  0.73374746077E+03  0.73374746077E+03  0.00000000000E+00 0.  1.
          2   -1    0    0  501    0  0.00000000000E+00 -0.00000000000E+00 -0.44364343767E+01  0.44364343767E+01  0.00000000000E+00 0. -1.
         23    2    1    2    0    0  0.32090118623E+01  0.18741693745E+02  0.64460585300E+03  0.65137078991E+03  0.91682339535E+02 0.  0.
         11    1    3    3    0    0  0.26256882480E+02  0.17561954909E+02  0.60272623366E+03  0.60355344327E+03  0.00000000000E+00 0.  1.
        -11    1    3    3    0    0 -0.23047870618E+02  0.11797388352E+01  0.41879619340E+02  0.47817346641E+02  0.00000000000E+00 0. -1.
         22    1    1    2    0    0 -0.32090118623E+01 -0.18741693745E+02  0.84705173398E+02  0.86813105243E+02  0.00000000000E+00 0. -1.
<mgrwt>
<rscale>  0 0.62855563E+02</rscale>
<asrwt>0</asrwt>
<pdfrwt beam="1">  1        2 0.68252895E-03 0.93633329E+02</pdfrwt>
<pdfrwt beam="2">  1       -2 0.11288413E+00 0.93633329E+02</pdfrwt>
<totfact> 0.14062597E+04</totfact>
</mgrwt>
</event>
<event>
 6    1  0.1661841E-002  0.9500665E+02  0.7546771E-02  0.1422412E+00
          2   -1    0    0  501    0  0.00000000000E+00  0.00000000000E+00  0.25741447872E+03  0.25741447872E+03  0.00000000000E+00 0. -1.
         -2   -1    0    0    0  501 -0.00000000000E+00 -0.00000000000E+00 -0.10815250173E+02  0.10815250173E+02  0.00000000000E+00 0.  1.
         23    2    1    2    0    0  0.47715000117E+01  0.91261504718E+01  0.21687576366E+03  0.23677280279E+03  0.94446860424E+02 0.  0.
         13    1    3    3    0    0 -0.20941526057E+02 -0.11901598742E+02  0.19614422458E+03  0.19761769253E+03  0.00000000000E+00 0. -1.
        -13    1    3    3    0    0  0.25713026069E+02  0.21027749214E+02  0.20731539077E+02  0.39155110255E+02  0.00000000000E+00 0.  1.
         22    1    1    2    0    0 -0.47715000117E+01 -0.91261504718E+01  0.29723464888E+02  0.31456926101E+02  0.00000000000E+00 0. -1.
<mgrwt>
<rscale>  0 0.54513780E+02</rscale>
<asrwt>0</asrwt>
<pdfrwt beam="1">  1        2 0.39602223E-01 0.95006649E+02</pdfrwt>
<pdfrwt beam="2">  1       -2 0.16638848E-02 0.95006649E+02</pdfrwt>
<totfact> 0.11256247E+05</totfact>
</mgrwt>
</event>
<event>
 6    1  0.1661841E-002  0.9351159E+02  0.7546771E-02  0.1376404E+00
         -2   -1    0    0    0  501 -0.00000000000E+00  0.00000000000E+00  0.15645141768E+02  0.15645141768E+02  0.00000000000E+00 0.  1.
          2   -1    0    0  501    0  0.00000000000E+00 -0.00000000000E+00 -0.28377609638E+03  0.28377609638E+03  0.00000000000E+00 0. -1.
         23    2    1    2    0    0 -0.10845616189E+02 -0.19597043856E+02 -0.13381719755E+03  0.16325275114E+03  0.90789574708E+02 0.  0.
         11    1    3    3    0    0 -0.86770277110E+01 -0.33090341272E+02 -0.14283814145E+03  0.14687748687E+03  0.00000000000E+00 0. -1.
        -11    1    3    3    0    0 -0.21685884777E+01  0.13493297416E+02  0.90209438991E+01  0.16375264272E+02  0.00000000000E+00 0.  1.
         22    1    1    2    0    0  0.10845616189E+02  0.19597043856E+02 -0.13431375705E+03  0.13616848700E+03  0.00000000000E+00 0.  1.
<mgrwt>
<rscale>  0 0.65418643E+02</rscale>
<asrwt>0</asrwt>
<pdfrwt beam="1">  1        2 0.43657862E-01 0.93511595E+02</pdfrwt>
<pdfrwt beam="2">  1       -2 0.24069448E-02 0.93511595E+02</pdfrwt>
<totfact> 0.59631085E+04</totfact>
</mgrwt>
</event>
<event>
 6    1  0.1661841E-002  0.9345384E+02  0.7546771E-02  0.1404607E+00
         -4   -1    0    0    0  501 -0.00000000000E+00  0.00000000000E+00  0.93315877803E+02  0.93315877803E+02  0.00000000000E+00 0.  1.
          4   -1    0    0  501    0  0.00000000000E+00 -0.00000000000E+00 -0.38986992846E+02  0.38986992846E+02  0.00000000000E+00 0. -1.
         23    2    1    2    0    0 -0.12761870002E+02  0.63760395510E+01  0.65551434429E+02  0.11415170477E+03  0.92358550978E+02 0.  0.
         11    1    3    3    0    0  0.23599484563E+02 -0.13907615759E+02  0.67111129318E+02  0.72486282330E+02  0.00000000000E+00 0.  1.
        -11    1    3    3    0    0 -0.36361354565E+02  0.20283655311E+02 -0.15596948885E+01  0.41665422435E+02  0.00000000000E+00 0. -1.
         22    1    1    2    0    0  0.12761870002E+02 -0.63760395510E+01 -0.11222549472E+02  0.18151165884E+02  0.00000000000E+00 0. -1.
<mgrwt>
<rscale>  0 0.58414889E+02</rscale>
<asrwt>0</asrwt>
<pdfrwt beam="1">  1        4 0.59979989E-02 0.93453845E+02</pdfrwt>
<pdfrwt beam="2">  1       -4 0.14356289E-01 0.93453845E+02</pdfrwt>
<totfact> 0.10582037E+04</totfact>
</mgrwt>
</event>
<event>
 6    1  0.1661841E-002  0.9330600E+02  0.7546771E-02  0.1426417E+00
         -2   -1    0    0    0  501 -0.00000000000E+00  0.00000000000E+00  0.45858193951E+02  0.45858193951E+02  0.00000000000E+00 0. -1.
          2   -1    0    0  501    0  0.00000000000E+00 -0.00000000000E+00 -0.60974580745E+02  0.60974580745E+02  0.00000000000E+00 0.  1.
         23    2    1    2    0    0  0.81779558952E+01  0.61397139683E+01 -0.66253224651E+01  0.93540926681E+02  0.92743921722E+02 0.  0.
         13    1    3    3    0    0  0.69438385145E+01 -0.43287019823E+02 -0.20674842692E+01  0.43889149794E+02  0.00000000000E+00 0. -1.
        -13    1    3    3    0    0  0.12341173807E+01  0.49426733791E+02 -0.45578381959E+01  0.49651776887E+02  0.00000000000E+00 0.  1.
         22    1    1    2    0    0 -0.81779558952E+01 -0.61397139683E+01 -0.84910643291E+01  0.13291848016E+02  0.00000000000E+00 0.  1.
<mgrwt>
<rscale>  0 0.53685957E+02</rscale>
<asrwt>0</asrwt>
<pdfrwt beam="1">  1        2 0.93807047E-02 0.93306002E+02</pdfrwt>
<pdfrwt beam="2">  1       -2 0.70551068E-02 0.93306002E+02</pdfrwt>
<totfact> 0.68454070E+04</totfact>
</mgrwt>
</event>
<event>
 6    1  0.1661841E-002  0.1042054E+03  0.7546771E-02  0.1324353E+00
         -2   -1    0    0    0  501 -0.00000000000E+00  0.00000000000E+00  0.38602188946E+03  0.38602188946E+03  0.00000000000E+00 0.  1.
          2   -1    0    0  501    0  0.00000000000E+00 -0.00000000000E+00 -0.13435868008E+02  0.13435868008E+02  0.00000000000E+00 0. -1.
         23    2    1    2    0    0 -0.19085225349E+02 -0.34394155957E+02  0.28468379823E+03  0.30315612385E+03  0.96496459320E+02 0.  0.
         11    1    3    3    0    0 -0.25447986618E+02 -0.24703541869E+02  0.25424921361E+02  0.43638190041E+02  0.00000000000E+00 0. -1.
        -11    1    3    3    0    0  0.63627612688E+01 -0.96906140875E+01  0.25925887687E+03  0.25951793381E+03  0.00000000000E+00 0.  1.
         22    1    1    2    0    0  0.19085225349E+02  0.34394155957E+02  0.87902223223E+02  0.96301633622E+02  0.00000000000E+00 0. -1.
<mgrwt>
<rscale>  0 0.81679145E+02</rscale>
<asrwt>0</asrwt>
<pdfrwt beam="1">  1        2 0.20670569E-02 0.10420542E+03</pdfrwt>
<pdfrwt beam="2">  1       -2 0.59387974E-01 0.10420542E+03</pdfrwt>
<totfact> 0.12785871E+04</totfact>
</mgrwt>
</event>
<event>
 6    1  0.1661841E-002  0.9136516E+02  0.7546771E-02  0.1419567E+00
          1   -1    0    0  501    0  0.00000000000E+00  0.00000000000E+00  0.36831082427E+03  0.36831082427E+03  0.00000000000E+00 0. -1.
         -1   -1    0    0    0  501 -0.00000000000E+00 -0.00000000000E+00 -0.73654116717E+01  0.73654116717E+01  0.00000000000E+00 0.  1.
         23    2    1    2    0    0  0.51741473394E+01 -0.10934050100E+02  0.30270351430E+03  0.31619141460E+03  0.90560851624E+02 0.  0.
         11    1    3    3    0    0  0.25681668141E+02  0.21135191578E+02  0.46472884381E+02  0.57148695385E+02  0.00000000000E+00 0.  1.
        -11    1    3    3    0    0 -0.20507520802E+02 -0.32069241677E+02  0.25623062992E+03  0.25904271922E+03  0.00000000000E+00 0. -1.
         22    1    1    2    0    0 -0.51741473394E+01  0.10934050100E+02  0.58241898299E+02  0.59484821339E+02  0.00000000000E+00 0.  1.
<mgrwt>
<rscale>  0 0.55112535E+02</rscale>
<asrwt>0</asrwt>
<pdfrwt beam="1">  1        1 0.56663189E-01 0.91365163E+02</pdfrwt>
<pdfrwt beam="2">  1       -1 0.11331405E-02 0.91365163E+02</pdfrwt>
<totfact> 0.91379429E+04</totfact>
</mgrwt>
</event>
<event>
 6    1  0.1661841E-002  0.9347785E+02  0.7546771E-02  0.1384032E+00
          2   -1    0    0  501    0  0.00000000000E+00  0.00000000000E+00  0.81203728474E+02  0.81203728474E+02  0.00000000000E+00 0.  1.
         -2   -1    0    0    0  501 -0.00000000000E+00 -0.00000000000E+00 -0.39952732670E+02  0.39952732670E+02  0.00000000000E+00 0. -1.
         23    2    1    2    0    0 -0.16176547899E+02  0.11417159173E+02  0.38781204120E+02  0.10120321338E+03  0.91356862792E+02 0.  0.
         13    1    3    3    0    0  0.92428757969E+01  0.84602182492E+01 -0.27463741163E+02  0.30187135082E+02  0.00000000000E+00 0. -1.
        -13    1    3    3    0    0 -0.25419423696E+02  0.29569409240E+01  0.66244945283E+02  0.71016078294E+02  0.00000000000E+00 0.  1.
         22    1    1    2    0    0  0.16176547899E+02 -0.11417159173E+02  0.24697916835E+01  0.19953247768E+02  0.00000000000E+00 0.  1.
<mgrwt>
<rscale>  0 0.63415696E+02</rscale>
<asrwt>0</asrwt>
<pdfrwt beam="1">  1        2 0.12492881E-01 0.93477851E+02</pdfrwt>
<pdfrwt beam="2">  1       -2 0.61465743E-02 0.93477851E+02</pdfrwt>
<totfact> 0.59746462E+04</totfact>
</mgrwt>
</event>
<event>
 6    1  0.1661841E-002  0.9810671E+02  0.7546771E-02  0.1346524E+00
          2   -1    0    0  501    0  0.00000000000E+00  0.00000000000E+00  0.79149010560E+02  0.79149010560E+02  0.00000000000E+00 0. -1.
         -2   -1    0    0    0  501 -0.00000000000E+00 -0.00000000000E+00 -0.54251456583E+02  0.54251456583E+02  0.00000000000E+00 0.  1.
         23    2    1    2    0    0 -0.31374156804E+02 -0.63696917212E+01  0.11812206619E+02  0.98815253493E+02  0.92736268040E+02 0.  0.
         13    1    3    3    0    0  0.30606459180E+02 -0.15765418702E+02 -0.24816988169E+01  0.34517569431E+02  0.00000000000E+00 0.  1.
        -13    1    3    3    0    0 -0.61980615984E+02  0.93957269811E+01  0.14293905436E+02  0.64297684063E+02  0.00000000000E+00 0. -1.
         22    1    1    2    0    0  0.31374156804E+02  0.63696917212E+01  0.13085347358E+02  0.34585213651E+02  0.00000000000E+00 0.  1.
<mgrwt>
<rscale>  0 0.74149765E+02</rscale>
<asrwt>0</asrwt>
<pdfrwt beam="1">  1        2 0.12176771E-01 0.98106708E+02</pdfrwt>
<pdfrwt beam="2">  1       -2 0.83463780E-02 0.98106708E+02</pdfrwt>
<totfact> 0.38946075E+04</totfact>
</mgrwt>
</event>
<event>
 6    1  0.1661841E-002  0.9972454E+02  0.7546771E-02  0.1358532E+00
          2   -1    0    0  501    0  0.00000000000E+00  0.00000000000E+00  0.38625082704E+03  0.38625082704E+03  0.00000000000E+00 0. -1.
         -2   -1    0    0    0  501 -0.00000000000E+00 -0.00000000000E+00 -0.10051275860E+02  0.10051275860E+02  0.00000000000E+00 0.  1.
         23    2    1    2    0    0 -0.18694574283E+02  0.16377475228E+02  0.30499609594E+03  0.32088565350E+03  0.96577819810E+02 0.  0.
         11    1    3    3    0    0 -0.10258797874E+02 -0.22619754365E+02  0.25818841480E+03  0.25938032646E+03  0.00000000000E+00 0. -1.
        -11    1    3    3    0    0 -0.84357764087E+01  0.38997229593E+02  0.46807681148E+02  0.61505327038E+02  0.00000000000E+00 0.  1.
         22    1    1    2    0    0  0.18694574283E+02 -0.16377475228E+02  0.71203455234E+02  0.75416449397E+02  0.00000000000E+00 0. -1.
<mgrwt>
<rscale>  0 0.70461115E+02</rscale>
<asrwt>0</asrwt>
<pdfrwt beam="1">  1        2 0.59423193E-01 0.99724541E+02</pdfrwt>
<pdfrwt beam="2">  1       -2 0.15463504E-02 0.99724541E+02</pdfrwt>
<totfact> 0.82242526E+04</totfact>
</mgrwt>
</event>
<event>
 6    1  0.1661841E-002  0.9236160E+02  0.7546771E-02  0.1387686E+00
          2   -1    0    0  501    0  0.00000000000E+00  0.00000000000E+00  0.29442086638E+02  0.29442086638E+02  0.00000000000E+00 0. -1.
         -2   -1    0    0    0  501 -0.00000000000E+00 -0.00000000000E+00 -0.10615136210E+03  0.10615136210E+03  0.00000000000E+00 0.  1.
         23    2    1    2    0    0 -0.16768469522E+02 -0.96535728600E+01 -0.61220979980E+02  0.11080917276E+03  0.90312188203E+02 0.  0.
         13    1    3    3    0    0 -0.19823934330E+02  0.37264090170E+02 -0.43365438947E+02  0.60515800280E+02  0.00000000000E+00 0.  1.
        -13    1    3    3    0    0  0.30554648081E+01 -0.46917663030E+02 -0.17855541033E+02  0.50293372476E+02  0.00000000000E+00 0. -1.
         22    1    1    2    0    0  0.16768469522E+02  0.96535728600E+01 -0.15488295483E+02  0.24784275984E+02  0.00000000000E+00 0. -1.
<mgrwt>
<rscale>  0 0.62485844E+02</rscale>
<asrwt>0</asrwt>
<pdfrwt beam="1">  1        2 0.45295519E-02 0.92361596E+02</pdfrwt>
<pdfrwt beam="2">  1       -2 0.16330978E-01 0.92361596E+02</pdfrwt>
<totfact> 0.45940708E+04</totfact>
</mgrwt>
</event>
<event>
 6    1  0.1661841E-002  0.9381361E+02  0.7546771E-02  0.1384741E+00
         -2   -1    0    0    0  501 -0.00000000000E+00  0.00000000000E+00  0.14931529941E+02  0.14931529941E+02  0.00000000000E+00 0.  1.
          2   -1    0    0  501    0  0.00000000000E+00 -0.00000000000E+00 -0.25436186640E+03  0.25436186640E+03  0.00000000000E+00 0. -1.
         23    2    1    2    0    0  0.94479570141E+01 -0.16902850753E+02 -0.14361456305E+03  0.17154047981E+03  0.91793372528E+02 0.  0.
         11    1    3    3    0    0 -0.37124339975E+02 -0.60995554711E+01 -0.99936427145E+02  0.10678347562E+03  0.00000000000E+00 0.  1.
        -11    1    3    3    0    0  0.46572296990E+02 -0.10803295282E+02 -0.43678135902E+02  0.64757004190E+02  0.00000000000E+00 0. -1.
         22    1    1    2    0    0 -0.94479570141E+01  0.16902850753E+02 -0.95815773414E+02  0.97752916531E+02  0.00000000000E+00 0. -1.
<mgrwt>
<rscale>  0 0.63233758E+02</rscale>
<asrwt>0</asrwt>
<pdfrwt beam="1">  1        2 0.39132595E-01 0.93813610E+02</pdfrwt>
<pdfrwt beam="2">  1       -2 0.22971584E-02 0.93813610E+02</pdfrwt>
<totfact> 0.71573214E+04</totfact>
</mgrwt>
</event>
<event>
 6    1  0.1661841E-002  0.1026185E+03  0.7546771E-02  0.1301429E+00
         -2   -1    0    0    0  501 -0.00000000000E+00  0.00000000000E+00  0.16166040775E+02  0.16166040775E+02  0.00000000000E+00 0.  1.
          2   -1    0    0  501    0  0.00000000000E+00 -0.00000000000E+00 -0.78971322818E+03  0.78971322818E+03  0.00000000000E+00 0. -1.
         23    2    1    2    0    0 -0.48357742516E+02  0.39314580420E+02 -0.70813096324E+03  0.71552778928E+03  0.81525754476E+02 0.  0.
         13    1    3    3    0    0 -0.38655244569E+02 -0.15609962941E+02 -0.19699193506E+03  0.20135471525E+03  0.00000000000E+00 0.  1.
        -13    1    3    3    0    0 -0.97024979476E+01  0.54924543361E+02 -0.51113902818E+03  0.51417307403E+03  0.00000000000E+00 0. -1.
         22    1    1    2    0    0  0.48357742516E+02 -0.39314580420E+02 -0.65416224170E+02  0.90351479675E+02  0.00000000000E+00 0.  1.
<mgrwt>
<rscale>  0 0.90590080E+02</rscale>
<asrwt>0</asrwt>
<pdfrwt beam="1">  1        2 0.12149434E+00 0.10261850E+03</pdfrwt>
<pdfrwt beam="2">  1       -2 0.24870833E-02 0.10261850E+03</pdfrwt>
<totfact> 0.18741153E+04</totfact>
</mgrwt>
</event>
<event>
 6    1  0.1661841E-002  0.1107812E+03  0.7546771E-02  0.1358845E+00
         -2   -1    0    0    0  501 -0.00000000000E+00  0.00000000000E+00  0.56064205034E+02  0.56064205034E+02  0.00000000000E+00 0.  1.
          2   -1    0    0  501    0  0.00000000000E+00 -0.00000000000E+00 -0.15938569494E+03  0.15938569494E+03  0.00000000000E+00 0. -1.
         23    2    1    2    0    0 -0.11247509055E+02 -0.14097679318E+02 -0.21844432059E+00  0.11078142797E+03  0.10930336703E+03 0.  0.
         11    1    3    3    0    0  0.46350051593E+02  0.10266056503E+02 -0.65504209117E+01  0.47923138596E+02  0.00000000000E+00 0. -1.
        -11    1    3    3    0    0 -0.57597560648E+02 -0.24363735821E+02  0.63319765911E+01  0.62858289376E+02  0.00000000000E+00 0.  1.
         22    1    1    2    0    0  0.11247509055E+02  0.14097679318E+02 -0.10310304559E+03  0.10466847200E+03  0.00000000000E+00 0. -1.
<mgrwt>
<rscale>  0 0.70368277E+02</rscale>
<asrwt>0</asrwt>
<pdfrwt beam="1">  1        2 0.24520876E-01 0.11078121E+03</pdfrwt>
<pdfrwt beam="2">  1       -2 0.86252624E-02 0.11078121E+03</pdfrwt>
<totfact> 0.16875881E+04</totfact>
</mgrwt>
</event>
<event>
 6    1  0.1661841E-002  0.9377111E+02  0.7546771E-02  0.1364595E+00
          2   -1    0    0  501    0  0.00000000000E+00  0.00000000000E+00  0.21455826511E+03  0.21455826511E+03  0.00000000000E+00 0. -1.
         -2   -1    0    0    0  501 -0.00000000000E+00 -0.00000000000E+00 -0.23134603809E+02  0.23134603809E+02  0.00000000000E+00 0.  1.
         23    2    1    2    0    0 -0.24110657092E+02  0.12163356764E+02  0.80674538649E+02  0.12369883749E+03  0.89798386272E+02 0.  0.
         13    1    3    3    0    0  0.50816444339E+01  0.33492285887E+02  0.80725035167E+02  0.87544774983E+02  0.00000000000E+00 0. -1.
        -13    1    3    3    0    0 -0.29192301526E+02 -0.21328929123E+02 -0.50496517533E-01  0.36154062508E+02  0.00000000000E+00 0.  1.
         22    1    1    2    0    0  0.24110657092E+02 -0.12163356764E+02  0.11074912265E+03  0.11399403142E+03  0.00000000000E+00 0. -1.
<mgrwt>
<rscale>  0 0.68693068E+02</rscale>
<asrwt>0</asrwt>
<pdfrwt beam="1">  1        2 0.33008963E-01 0.93771111E+02</pdfrwt>
<pdfrwt beam="2">  1       -2 0.35591700E-02 0.93771111E+02</pdfrwt>
<totfact> 0.45340760E+04</totfact>
</mgrwt>
</event>
<event>
 6    1  0.1661841E-002  0.8713038E+02  0.7546771E-02  0.1404904E+00
          2   -1    0    0  501    0  0.00000000000E+00  0.00000000000E+00  0.93241101997E+02  0.93241101997E+02  0.00000000000E+00 0. -1.
         -2   -1    0    0    0  501 -0.00000000000E+00 -0.00000000000E+00 -0.33013058388E+02  0.33013058388E+02  0.00000000000E+00 0.  1.
         23    2    1    2    0    0  0.16895038396E+02 -0.46406194784E+01  0.31587337971E+02  0.92679352999E+02  0.85350599767E+02 0.  0.
         13    1    3    3    0    0  0.93716229375E+01 -0.23034875888E+02  0.55956728605E+02  0.61233881959E+02  0.00000000000E+00 0. -1.
        -13    1    3    3    0    0  0.75234154588E+01  0.18394256410E+02 -0.24369390634E+02  0.31445471040E+02  0.00000000000E+00 0.  1.
         22    1    1    2    0    0 -0.16895038396E+02  0.46406194784E+01  0.28640705638E+02  0.33574807386E+02  0.00000000000E+00 0.  1.
<mgrwt>
<rscale>  0 0.58346598E+02</rscale>
<asrwt>0</asrwt>
<pdfrwt beam="1">  1        2 0.14344785E-01 0.87130377E+02</pdfrwt>
<pdfrwt beam="2">  1       -2 0.50789321E-02 0.87130377E+02</pdfrwt>
<totfact> 0.66883824E+04</totfact>
</mgrwt>
</event>
<event>
 6    1  0.1661841E-002  0.9400200E+02  0.7546771E-02  0.1417953E+00
         -2   -1    0    0    0  501 -0.00000000000E+00  0.00000000000E+00  0.12131661288E+02  0.12131661288E+02  0.00000000000E+00 0. -1.
          2   -1    0    0  501    0  0.00000000000E+00 -0.00000000000E+00 -0.22986697234E+03  0.22986697234E+03  0.00000000000E+00 0.  1.
         23    2    1    2    0    0  0.11287612882E+02  0.14985662573E+01 -0.18890377563E+03  0.21100003140E+03  0.93309811367E+02 0.  0.
         13    1    3    3    0    0 -0.63057949627E+01 -0.36388663630E+02 -0.32766756657E+02  0.49371633887E+02  0.00000000000E+00 0. -1.
        -13    1    3    3    0    0  0.17593407845E+02  0.37887229887E+02 -0.15613701898E+03  0.16162839751E+03  0.00000000000E+00 0.  1.
         22    1    1    2    0    0 -0.11287612882E+02 -0.14985662573E+01 -0.28831535420E+02  0.30998602228E+02  0.00000000000E+00 0.  1.
<mgrwt>
<rscale>  0 0.55456425E+02</rscale>
<asrwt>0</asrwt>
<pdfrwt beam="1">  1        2 0.35364146E-01 0.94002004E+02</pdfrwt>
<pdfrwt beam="2">  1       -2 0.18664096E-02 0.94002004E+02</pdfrwt>
<totfact> 0.10740756E+05</totfact>
</mgrwt>
</event>
<event>
 6    1  0.1661841E-002  0.9074678E+02  0.7546771E-02  0.1404531E+00
          2   -1    0    0  501    0  0.00000000000E+00  0.00000000000E+00  0.38512455091E+03  0.38512455091E+03  0.00000000000E+00 0. -1.
         -2   -1    0    0    0  501 -0.00000000000E+00 -0.00000000000E+00 -0.74238200418E+01  0.74238200418E+01  0.00000000000E+00 0.  1.
         23    2    1    2    0    0 -0.15584706078E+02 -0.68444709866E+00  0.33552152140E+03  0.34757685505E+03  0.89395902093E+02 0.  0.
         13    1    3    3    0    0  0.31702699619E+02  0.15396004493E+01  0.22660670519E+03  0.22881877189E+03  0.00000000000E+00 0. -1.
        -13    1    3    3    0    0 -0.47287405697E+02 -0.22240475480E+01  0.10891481621E+03  0.11875808316E+03  0.00000000000E+00 0.  1.
         22    1    1    2    0    0  0.15584706078E+02  0.68444709866E+00  0.42179209473E+02  0.44971515909E+02  0.00000000000E+00 0. -1.
<mgrwt>
<rscale>  0 0.58432261E+02</rscale>
<asrwt>0</asrwt>
<pdfrwt beam="1">  1        2 0.59249915E-01 0.90746784E+02</pdfrwt>
<pdfrwt beam="2">  1       -2 0.11421265E-02 0.90746784E+02</pdfrwt>
<totfact> 0.12530782E+05</totfact>
</mgrwt>
</event>
<event>
 6    1  0.1661841E-002  0.9640784E+02  0.7546771E-02  0.1349439E+00
         -2   -1    0    0    0  501 -0.00000000000E+00  0.00000000000E+00  0.59631650687E+02  0.59631650687E+02  0.00000000000E+00 0.  1.
          2   -1    0    0  501    0  0.00000000000E+00 -0.00000000000E+00 -0.88568836423E+02  0.88568836423E+02  0.00000000000E+00 0. -1.
         23    2    1    2    0    0 -0.20481087556E+02 -0.24710436592E+02  0.10923554385E+02  0.97024719142E+02  0.90908698484E+02 0.  0.
         13    1    3    3    0    0 -0.50286311880E+02 -0.35075112735E+02 -0.53063303485E+01  0.61539693187E+02  0.00000000000E+00 0. -1.
        -13    1    3    3    0    0  0.29805224324E+02  0.10364676142E+02  0.16229884734E+02  0.35485025955E+02  0.00000000000E+00 0.  1.
         22    1    1    2    0    0  0.20481087556E+02  0.24710436592E+02 -0.39860740121E+02  0.51175767968E+02  0.00000000000E+00 0.  1.
<mgrwt>
<rscale>  0 0.73230698E+02</rscale>
<asrwt>0</asrwt>
<pdfrwt beam="1">  1        2 0.13625975E-01 0.96407842E+02</pdfrwt>
<pdfrwt beam="2">  1       -2 0.91741001E-02 0.96407842E+02</pdfrwt>
<totfact> 0.29416790E+04</totfact>
</mgrwt>
</event>
<event>
 6    1  0.1661841E-002  0.9282674E+02  0.7546771E-02  0.1401303E+00
          1   -1    0    0  501    0  0.00000000000E+00  0.00000000000E+00  0.20753930802E+03  0.20753930802E+03  0.00000000000E+00 0. -1.
         -1   -1    0    0    0  501 -0.00000000000E+00 -0.00000000000E+00 -0.14363809708E+02  0.14363809708E+02  0.00000000000E+00 0.  1.
         23    2    1    2    0    0  0.12980440313E+02  0.81660665609E+01  0.15373808052E+03  0.17958897829E+03  0.91551227459E+02 0.  0.
         11    1    3    3    0    0 -0.81687357440E+01  0.31230788313E+02  0.14285546876E+03  0.14645741817E+03  0.00000000000E+00 0. -1.
        -11    1    3    3    0    0  0.21149176057E+02 -0.23064721752E+02  0.10882611754E+02  0.33131560120E+02  0.00000000000E+00 0.  1.
         22    1    1    2    0    0 -0.12980440313E+02 -0.81660665609E+01  0.39437417793E+02  0.42314139433E+02  0.00000000000E+00 0.  1.
<mgrwt>
<rscale>  0 0.59180559E+02</rscale>
<asrwt>0</asrwt>
<pdfrwt beam="1">  1        1 0.31929122E-01 0.92826740E+02</pdfrwt>
<pdfrwt beam="2">  1       -1 0.22098170E-02 0.92826740E+02</pdfrwt>
<totfact> 0.71515787E+04</totfact>
</mgrwt>
</event>
<event>
 6    1  0.1661841E-002  0.9210308E+02  0.7546771E-02  0.1417078E+00
          1   -1    0    0  501    0  0.00000000000E+00  0.00000000000E+00  0.93421375658E+03  0.93421375658E+03  0.00000000000E+00 0. -1.
         -1   -1    0    0    0  501 -0.00000000000E+00 -0.00000000000E+00 -0.29716463611E+01  0.29716463611E+01  0.00000000000E+00 0.  1.
         23    2    1    2    0    0 -0.11801390446E+02 -0.33587604130E+01  0.85715154320E+03  0.86208569449E+03  0.91282104212E+02 0.  0.
         11    1    3    3    0    0  0.39390386815E+02 -0.92240966639E+01  0.35525568816E+03  0.35755180114E+03  0.00000000000E+00 0.  1.
        -11    1    3    3    0    0 -0.51191777261E+02  0.58653362509E+01  0.50189585504E+03  0.50453389335E+03  0.00000000000E+00 0. -1.
         22    1    1    2    0    0  0.11801390446E+02  0.33587604130E+01  0.74090567017E+02  0.75099708448E+02  0.00000000000E+00 0. -1.
<mgrwt>
<rscale>  0 0.55643850E+02</rscale>
<asrwt>0</asrwt>
<pdfrwt beam="1">  1        1 0.14372496E+00 0.92103076E+02</pdfrwt>
<pdfrwt beam="2">  1       -1 0.45717711E-03 0.92103076E+02</pdfrwt>
<totfact> 0.92393236E+04</totfact>
</mgrwt>
</event>
<event>
 6    1  0.1661841E-002  0.9268692E+02  0.7546771E-02  0.1399502E+00
          1   -1    0    0  501    0  0.00000000000E+00  0.00000000000E+00  0.12390431749E+03  0.12390431749E+03  0.00000000000E+00 0. -1.
         -1   -1    0    0    0  501 -0.00000000000E+00 -0.00000000000E+00 -0.24753799582E+02  0.24753799582E+02  0.00000000000E+00 0.  1.
         23    2    1    2    0    0  0.10421265586E+02  0.11943016651E+02  0.72596931120E+02  0.11773350884E+03  0.91321554257E+02 0.  0.
         11    1    3    3    0    0  0.41628655480E+01  0.38100689463E+02  0.80954407488E+02  0.89569012939E+02  0.00000000000E+00 0. -1.
        -11    1    3    3    0    0  0.62584000381E+01 -0.26157672812E+02 -0.83574763674E+01  0.28164495898E+02  0.00000000000E+00 0.  1.
         22    1    1    2    0    0 -0.10421265586E+02 -0.11943016651E+02  0.26553586786E+02  0.30924608233E+02  0.00000000000E+00 0.  1.
<mgrwt>
<rscale>  0 0.59603888E+02</rscale>
<asrwt>0</asrwt>
<pdfrwt beam="1">  1        1 0.19062202E-01 0.92686918E+02</pdfrwt>
<pdfrwt beam="2">  1       -1 0.38082769E-02 0.92686918E+02</pdfrwt>
<totfact> 0.61948910E+04</totfact>
</mgrwt>
</event>
<event>
 6    1  0.1661841E-002  0.9545365E+02  0.7546771E-02  0.1369482E+00
         -4   -1    0    0    0  501 -0.00000000000E+00  0.00000000000E+00  0.31114174652E+02  0.31114174652E+02  0.00000000000E+00 0.  1.
          4   -1    0    0  501    0  0.00000000000E+00 -0.00000000000E+00 -0.12915945618E+03  0.12915945618E+03  0.00000000000E+00 0. -1.
         23    2    1    2    0    0  0.11485569416E+02  0.20620636248E+02 -0.52409644064E+02  0.10889522729E+03  0.92489300953E+02 0.  0.
         13    1    3    3    0    0 -0.38431248355E+02 -0.43215354922E+01 -0.13900027288E+02  0.41095587083E+02  0.00000000000E+00 0. -1.
        -13    1    3    3    0    0  0.49916817771E+02  0.24942171740E+02 -0.38509616776E+02  0.67799640204E+02  0.00000000000E+00 0.  1.
         22    1    1    2    0    0 -0.11485569416E+02 -0.20620636248E+02 -0.45635637460E+02  0.51378403541E+02  0.00000000000E+00 0.  1.
<mgrwt>
<rscale>  0 0.67311439E+02</rscale>
<asrwt>0</asrwt>
<pdfrwt beam="1">  1        4 0.19870686E-01 0.95453652E+02</pdfrwt>
<pdfrwt beam="2">  1       -4 0.47867960E-02 0.95453652E+02</pdfrwt>
<totfact> 0.86423720E+03</totfact>
</mgrwt>
</event>
<event>
 6    1  0.1661841E-002  0.9232882E+02  0.7546771E-02  0.1367067E+00
          2   -1    0    0  501    0  0.00000000000E+00  0.00000000000E+00  0.93777190467E+02  0.93777190467E+02  0.00000000000E+00 0. -1.
         -2   -1    0    0    0  501 -0.00000000000E+00 -0.00000000000E+00 -0.39373146475E+02  0.39373146475E+02  0.00000000000E+00 0.  1.
         23    2    1    2    0    0  0.19583503712E+02 -0.18803048037E+02  0.31265989778E+02  0.97479091016E+02  0.88247055675E+02 0.  0.
         11    1    3    3    0    0  0.18610559058E+02 -0.28088852725E+02  0.59149747939E+02  0.68073704447E+02  0.00000000000E+00 0. -1.
        -11    1    3    3    0    0  0.97294465388E+00  0.92858046884E+01 -0.27883758162E+02  0.29405386568E+02  0.00000000000E+00 0.  1.
         22    1    1    2    0    0 -0.19583503712E+02  0.18803048037E+02  0.23138054214E+02  0.35671245926E+02  0.00000000000E+00 0.  1.
<mgrwt>
<rscale>  0 0.67989434E+02</rscale>
<asrwt>0</asrwt>
<pdfrwt beam="1">  1        2 0.14427260E-01 0.92328820E+02</pdfrwt>
<pdfrwt beam="2">  1       -2 0.60574072E-02 0.92328820E+02</pdfrwt>
<totfact> 0.51498502E+04</totfact>
</mgrwt>
</event>
<event>
 6    1  0.1661841E-002  0.9260349E+02  0.7546771E-02  0.1407377E+00
          4   -1    0    0  501    0  0.00000000000E+00  0.00000000000E+00  0.67270893741E+02  0.67270893741E+02  0.00000000000E+00 0. -1.
         -4   -1    0    0    0  501 -0.00000000000E+00 -0.00000000000E+00 -0.82445877566E+02  0.82445877566E+02  0.00000000000E+00 0.  1.
         23    2    1    2    0    0  0.10442908518E+00  0.14038297286E+02 -0.54851780013E+02  0.10762956598E+03  0.91533168891E+02 0.  0.
         11    1    3    3    0    0 -0.21716836598E+02 -0.16668971612E+02  0.12781084673E+02  0.30213105300E+02  0.00000000000E+00 0. -1.
        -11    1    3    3    0    0  0.21821265683E+02  0.30707268899E+02 -0.67632864686E+02  0.77416460684E+02  0.00000000000E+00 0.  1.
         22    1    1    2    0    0 -0.10442908518E+00 -0.14038297286E+02  0.39676796189E+02  0.42087205323E+02  0.00000000000E+00 0. -1.
<mgrwt>
<rscale>  0 0.57783270E+02</rscale>
<asrwt>0</asrwt>
<pdfrwt beam="1">  1        4 0.10349368E-01 0.92603486E+02</pdfrwt>
<pdfrwt beam="2">  1       -4 0.12683981E-01 0.92603486E+02</pdfrwt>
<totfact> 0.53289267E+03</totfact>
</mgrwt>
</event>
<event>
 6    1  0.1661841E-002  0.1020790E+03  0.7546771E-02  0.1322169E+00
          2   -1    0    0  501    0  0.00000000000E+00  0.00000000000E+00  0.24392954924E+03  0.24392954924E+03  0.00000000000E+00 0. -1.
         -2   -1    0    0    0  501 -0.00000000000E+00 -0.00000000000E+00 -0.49486599633E+02  0.49486599633E+02  0.00000000000E+00 0.  1.
         23    2    1    2    0    0 -0.41703565365E+02  0.12372851959E+02  0.84771225886E+01  0.10243038069E+03  0.92346339673E+02 0.  0.
         13    1    3    3    0    0 -0.80080288173E+01  0.41739937634E+02  0.30781739603E+02  0.52477294254E+02  0.00000000000E+00 0. -1.
        -13    1    3    3    0    0 -0.33695536548E+02 -0.29367085675E+02 -0.22304617015E+02  0.49953086435E+02  0.00000000000E+00 0.  1.
         22    1    1    2    0    0  0.41703565365E+02 -0.12372851959E+02  0.18596582702E+03  0.19098576818E+03  0.00000000000E+00 0. -1.
<mgrwt>
<rscale>  0 0.82475568E+02</rscale>
<asrwt>0</asrwt>
<pdfrwt beam="1">  1        2 0.37527622E-01 0.10207900E+03</pdfrwt>
<pdfrwt beam="2">  1       -2 0.76133232E-02 0.10207900E+03</pdfrwt>
<totfact> 0.12835224E+04</totfact>
</mgrwt>
</event>
<event>
 6    1  0.1661841E-002  0.1081877E+03  0.7546771E-02  0.1297773E+00
         -2   -1    0    0    0  501 -0.00000000000E+00  0.00000000000E+00  0.84522123469E+01  0.84522123469E+01  0.00000000000E+00 0.  1.
          2   -1    0    0  501    0  0.00000000000E+00 -0.00000000000E+00 -0.94947039802E+03  0.94947039802E+03  0.00000000000E+00 0. -1.
         23    2    1    2    0    0 -0.18676384490E+02 -0.53742777316E+02 -0.77296445806E+03  0.78049896815E+03  0.92018978558E+02 0.  0.
         11    1    3    3    0    0 -0.21064132045E+02  0.94743696716E+00 -0.56675221785E+03  0.56714431296E+03  0.00000000000E+00 0. -1.
        -11    1    3    3    0    0  0.23877475557E+01 -0.54690214283E+02 -0.20621224021E+03  0.21335465519E+03  0.00000000000E+00 0.  1.
         22    1    1    2    0    0  0.18676384490E+02  0.53742777316E+02 -0.16805372761E+03  0.17742364221E+03  0.00000000000E+00 0.  1.
<mgrwt>
<rscale>  0 0.92130393E+02</rscale>
<asrwt>0</asrwt>
<pdfrwt beam="1">  1        2 0.14607226E+00 0.10818773E+03</pdfrwt>
<pdfrwt beam="2">  1       -2 0.13003413E-02 0.10818773E+03</pdfrwt>
<totfact> 0.37877331E+04</totfact>
</mgrwt>
</event>
<event>
 6    1  0.1661841E-002  0.9080257E+02  0.7546771E-02  0.1419617E+00
          2   -1    0    0  501    0  0.00000000000E+00  0.00000000000E+00  0.15446086212E+02  0.15446086212E+02  0.00000000000E+00 0.  1.
         -2   -1    0    0    0  501 -0.00000000000E+00 -0.00000000000E+00 -0.17283652986E+03  0.17283652986E+03  0.00000000000E+00 0. -1.
         23    2    1    2    0    0  0.11705029116E+02 -0.38222335423E+01 -0.14234604669E+03  0.16884165273E+03  0.89963823354E+02 0.  0.
         11    1    3    3    0    0  0.43991828876E+02 -0.96565973813E+01 -0.12245064339E+03  0.13047103490E+03  0.00000000000E+00 0. -1.
        -11    1    3    3    0    0 -0.32286799760E+02  0.58343638390E+01 -0.19895403295E+02  0.38370617827E+02  0.00000000000E+00 0.  1.
         22    1    1    2    0    0 -0.11705029116E+02  0.38222335423E+01 -0.15044396964E+02  0.19440963347E+02  0.00000000000E+00 0. -1.
<mgrwt>
<rscale>  0 0.55101974E+02</rscale>
<asrwt>0</asrwt>
<pdfrwt beam="1">  1        2 0.23763209E-02 0.90802570E+02</pdfrwt>
<pdfrwt beam="2">  1       -2 0.26590236E-01 0.90802570E+02</pdfrwt>
<totfact> 0.47226013E+04</totfact>
</mgrwt>
</event>
<event>
 6    1  0.1661841E-002  0.9259035E+02  0.7546771E-02  0.1410773E+00
         -2   -1    0    0    0  501 -0.00000000000E+00  0.00000000000E+00  0.54046033550E+02  0.54046033550E+02  0.00000000000E+00 0. -1.
          2   -1    0    0  501    0  0.00000000000E+00 -0.00000000000E+00 -0.97336850920E+02  0.97336850920E+02  0.00000000000E+00 0.  1.
         23    2    1    2    0    0  0.76304650514E+01 -0.10916257093E+02  0.13035383968E+02  0.93503444053E+02  0.91627420289E+02 0.  0.
         13    1    3    3    0    0 -0.25104062454E+02 -0.40901286630E+02  0.36453505676E+01  0.48129178058E+02  0.00000000000E+00 0. -1.
        -13    1    3    3    0    0  0.32734527506E+02  0.29985029538E+02  0.93900334003E+01  0.45374265996E+02  0.00000000000E+00 0.  1.
         22    1    1    2    0    0 -0.76304650514E+01  0.10916257093E+02 -0.56326201337E+02  0.57879440416E+02  0.00000000000E+00 0.  1.
<mgrwt>
<rscale>  0 0.57021682E+02</rscale>
<asrwt>0</asrwt>
<pdfrwt beam="1">  1        2 0.14974900E-01 0.92590349E+02</pdfrwt>
<pdfrwt beam="2">  1       -2 0.83147744E-02 0.92590349E+02</pdfrwt>
<totfact> 0.30514673E+04</totfact>
</mgrwt>
</event>
<event>
 6    1  0.1661841E-002  0.8855770E+02  0.7546771E-02  0.1437008E+00
         -2   -1    0    0    0  501 -0.00000000000E+00  0.00000000000E+00  0.50082306269E+01  0.50082306269E+01  0.00000000000E+00 0.  1.
          2   -1    0    0  501    0  0.00000000000E+00 -0.00000000000E+00 -0.48683862341E+03  0.48683862341E+03  0.00000000000E+00 0. -1.
         23    2    1    2    0    0  0.53367142373E+01  0.86814870662E+01 -0.43017680440E+03  0.43919761919E+03  0.87969409039E+02 0.  0.
         11    1    3    3    0    0  0.48336780036E+01 -0.35298591800E+02 -0.29260225823E+03  0.29476335686E+03  0.00000000000E+00 0.  1.
        -11    1    3    3    0    0  0.50303623375E+00  0.43980078866E+02 -0.13757454617E+03  0.14443426234E+03  0.00000000000E+00 0. -1.
         22    1    1    2    0    0 -0.53367142373E+01 -0.86814870662E+01 -0.51653588386E+02  0.52649234844E+02  0.00000000000E+00 0.  1.
<mgrwt>
<rscale>  0 0.51578640E+02</rscale>
<asrwt>0</asrwt>
<pdfrwt beam="1">  1        2 0.74898241E-01 0.88557697E+02</pdfrwt>
<pdfrwt beam="2">  1       -2 0.77049711E-03 0.88557697E+02</pdfrwt>
<totfact> 0.16980311E+05</totfact>
</mgrwt>
</event>
<event>
 6    1  0.1661841E-002  0.9344039E+02  0.7546771E-02  0.1405960E+00
          4   -1    0    0  501    0  0.00000000000E+00  0.00000000000E+00  0.39250515050E+02  0.39250515050E+02  0.00000000000E+00 0. -1.
         -4   -1    0    0    0  501 -0.00000000000E+00 -0.00000000000E+00 -0.74574918033E+02  0.74574918033E+02  0.00000000000E+00 0.  1.
         23    2    1    2    0    0 -0.13717585738E+02  0.26537660940E+01 -0.35206783342E+02  0.99853014990E+02  0.92389893259E+02 0.  0.
         11    1    3    3    0    0 -0.19900308002E+01 -0.35224558170E+02  0.12851135850E+02  0.37548387628E+02  0.00000000000E+00 0. -1.
        -11    1    3    3    0    0 -0.11727554938E+02  0.37878324264E+02 -0.48057919191E+02  0.62304627363E+02  0.00000000000E+00 0.  1.
         22    1    1    2    0    0  0.13717585738E+02 -0.26537660940E+01 -0.11761964184E+00  0.13972418092E+02  0.00000000000E+00 0.  1.
<mgrwt>
<rscale>  0 0.58105205E+02</rscale>
<asrwt>0</asrwt>
<pdfrwt beam="1">  1        4 0.60385408E-02 0.93440393E+02</pdfrwt>
<pdfrwt beam="2">  1       -4 0.11473064E-01 0.93440393E+02</pdfrwt>
<totfact> 0.15346730E+04</totfact>
</mgrwt>
</event>
<event>
 6    1  0.1661841E-002  0.9769475E+02  0.7546771E-02  0.1354180E+00
          2   -1    0    0  501    0  0.00000000000E+00  0.00000000000E+00  0.11937429913E+03  0.11937429913E+03  0.00000000000E+00 0. -1.
         -2   -1    0    0    0  501 -0.00000000000E+00 -0.00000000000E+00 -0.47179315096E+02  0.47179315096E+02  0.00000000000E+00 0.  1.
         23    2    1    2    0    0 -0.96274508432E+01 -0.26774707951E+02  0.10056948359E+02  0.98211033992E+02  0.93459575175E+02 0.  0.
         11    1    3    3    0    0 -0.20100228759E+02  0.31855918607E+02 -0.77619096377E+00  0.37675206952E+02  0.00000000000E+00 0. -1.
        -11    1    3    3    0    0  0.10472777916E+02 -0.58630626558E+02  0.10833139323E+02  0.60535827040E+02  0.00000000000E+00 0.  1.
         22    1    1    2    0    0  0.96274508432E+01  0.26774707951E+02  0.62138035672E+02  0.68342580232E+02  0.00000000000E+00 0. -1.
<mgrwt>
<rscale>  0 0.71768756E+02</rscale>
<asrwt>0</asrwt>
<pdfrwt beam="1">  1        2 0.18365277E-01 0.97694754E+02</pdfrwt>
<pdfrwt beam="2">  1       -2 0.72583562E-02 0.97694754E+02</pdfrwt>
<totfact> 0.29922689E+04</totfact>
</mgrwt>
</event>
<event>
 6    1  0.1661841E-002  0.8403057E+02  0.7546771E-02  0.1440337E+00
         -2   -1    0    0    0  501 -0.00000000000E+00  0.00000000000E+00  0.81510955192E+02  0.81510955192E+02  0.00000000000E+00 0.  1.
          2   -1    0    0  501    0  0.00000000000E+00 -0.00000000000E+00 -0.31312358261E+02  0.31312358261E+02  0.00000000000E+00 0. -1.
         23    2    1    2    0    0  0.89832183282E+01 -0.69339924295E+01  0.55076097849E+02  0.10047145215E+03  0.83260781162E+02 0.  0.
         13    1    3    3    0    0  0.20781249200E+02 -0.42090223690E+02  0.31393850513E+02  0.56471418422E+02  0.00000000000E+00 0.  1.
        -13    1    3    3    0    0 -0.11798030872E+02  0.35156231260E+02  0.23682247336E+02  0.44000033724E+02  0.00000000000E+00 0. -1.
         22    1    1    2    0    0 -0.89832183282E+01  0.69339924295E+01 -0.48775009174E+01  0.12351861307E+02  0.00000000000E+00 0. -1.
<mgrwt>
<rscale>  0 0.50939934E+02</rscale>
<asrwt>0</asrwt>
<pdfrwt beam="1">  1        2 0.48172859E-02 0.84030567E+02</pdfrwt>
<pdfrwt beam="2">  1       -2 0.12540147E-01 0.84030567E+02</pdfrwt>
<totfact> 0.63966873E+04</totfact>
</mgrwt>
</event>
<event>
 6    1  0.1661841E-002  0.9108630E+02  0.7546771E-02  0.1431715E+00
         -2   -1    0    0    0  501 -0.00000000000E+00  0.00000000000E+00  0.35404850582E+03  0.35404850582E+03  0.00000000000E+00 0.  1.
          2   -1    0    0  501    0  0.00000000000E+00 -0.00000000000E+00 -0.79367458247E+01  0.79367458247E+01  0.00000000000E+00 0. -1.
         23    2    1    2    0    0 -0.20929736644E+01 -0.99244267739E+01  0.33394922116E+03  0.34614851788E+03  0.90519828374E+02 0.  0.
         13    1    3    3    0    0  0.16198809610E+01 -0.32121875010E+02  0.39943999571E+02  0.51283154838E+02  0.00000000000E+00 0. -1.
        -13    1    3    3    0    0 -0.37128546254E+01  0.22197448236E+02  0.29400522159E+03  0.29486536304E+03  0.00000000000E+00 0.  1.
         22    1    1    2    0    0  0.20929736644E+01  0.99244267739E+01  0.12162538837E+02  0.15836733770E+02  0.00000000000E+00 0. -1.
<mgrwt>
<rscale>  0 0.52617283E+02</rscale>
<asrwt>0</asrwt>
<pdfrwt beam="1">  1        2 0.12210381E-02 0.91086300E+02</pdfrwt>
<pdfrwt beam="2">  1       -2 0.54468989E-01 0.91086300E+02</pdfrwt>
<totfact> 0.30590430E+04</totfact>
</mgrwt>
</event>
<event>
 6    1  0.1661841E-002  0.9522925E+02  0.7546771E-02  0.1389635E+00
          1   -1    0    0  501    0  0.00000000000E+00  0.00000000000E+00  0.96512275830E+02  0.96512275830E+02  0.00000000000E+00 0. -1.
         -1   -1    0    0    0  501 -0.00000000000E+00 -0.00000000000E+00 -0.36727763480E+02  0.36727763480E+02  0.00000000000E+00 0.  1.
         23    2    1    2    0    0  0.12476015397E+02 -0.11705638531E+02  0.31721607691E+02  0.10037364992E+03  0.93679967284E+02 0.  0.
         11    1    3    3    0    0 -0.63406204788E+01 -0.48544962284E+02  0.12109489299E+01  0.48972269995E+02  0.00000000000E+00 0.  1.
        -11    1    3    3    0    0  0.18816635876E+02  0.36839323752E+02  0.30510658761E+02  0.51401379926E+02  0.00000000000E+00 0. -1.
         22    1    1    2    0    0 -0.12476015397E+02  0.11705638531E+02  0.28062904658E+02  0.32866389389E+02  0.00000000000E+00 0.  1.
<mgrwt>
<rscale>  0 0.61997700E+02</rscale>
<asrwt>0</asrwt>
<pdfrwt beam="1">  1        1 0.14848042E-01 0.95229246E+02</pdfrwt>
<pdfrwt beam="2">  1       -1 0.56504252E-02 0.95229246E+02</pdfrwt>
<totfact> 0.47995040E+04</totfact>
</mgrwt>
</event>
<event>
 6    1  0.1661841E-002  0.9195439E+02  0.7546771E-02  0.1402460E+00
          2   -1    0    0  501    0  0.00000000000E+00  0.00000000000E+00  0.32398653977E+01  0.32398653977E+01  0.00000000000E+00 0. -1.
         -2   -1    0    0    0  501 -0.00000000000E+00 -0.00000000000E+00 -0.90759734587E+03  0.90759734587E+03  0.00000000000E+00 0.  1.
         23    2    1    2    0    0 -0.13379653146E+02  0.78061189419E+01 -0.81195128963E+03  0.81714166859E+03  0.90640273647E+02 0.  0.
         11    1    3    3    0    0  0.47615185366E+01 -0.11778304952E+02 -0.14640674019E+02  0.19384268416E+02  0.00000000000E+00 0. -1.
        -11    1    3    3    0    0 -0.18141171682E+02  0.19584423894E+02 -0.79731061561E+03  0.79775740018E+03  0.00000000000E+00 0.  1.
         22    1    1    2    0    0  0.13379653146E+02 -0.78061189419E+01 -0.92406190838E+02  0.93695542671E+02  0.00000000000E+00 0.  1.
<mgrwt>
<rscale>  0 0.58910754E+02</rscale>
<asrwt>0</asrwt>
<pdfrwt beam="1">  1        2 0.49844022E-03 0.91954390E+02</pdfrwt>
<pdfrwt beam="2">  1       -2 0.13963053E+00 0.91954390E+02</pdfrwt>
<totfact> 0.12948003E+04</totfact>
</mgrwt>
</event>
<event>
 6    1  0.1661841E-002  0.9333170E+02  0.7546771E-02  0.1379945E+00
         -1   -1    0    0    0  501 -0.00000000000E+00  0.00000000000E+00  0.60360358315E+03  0.60360358315E+03  0.00000000000E+00 0.  1.
          1   -1    0    0  501    0  0.00000000000E+00 -0.00000000000E+00 -0.22859772424E+02  0.22859772424E+02  0.00000000000E+00 0. -1.
         23    2    1    2    0    0  0.91819785276E+01  0.19175200818E+02  0.59407991350E+03  0.60136656907E+03  0.90877993562E+02 0.  0.
         13    1    3    3    0    0 -0.33449791777E+02  0.31143999666E+02  0.38121090658E+03  0.38394087121E+03  0.00000000000E+00 0.  1.
        -13    1    3    3    0    0  0.42631770305E+02 -0.11968798848E+02  0.21286900691E+03  0.21742569786E+03  0.00000000000E+00 0. -1.
         22    1    1    2    0    0 -0.91819785276E+01 -0.19175200818E+02 -0.13336102769E+02  0.25096786510E+02  0.00000000000E+00 0. -1.
<mgrwt>
<rscale>  0 0.64478339E+02</rscale>
<asrwt>0</asrwt>
<pdfrwt beam="1">  1        1 0.35168885E-02 0.93331703E+02</pdfrwt>
<pdfrwt beam="2">  1       -1 0.92862078E-01 0.93331703E+02</pdfrwt>
<totfact> 0.30403764E+03</totfact>
</mgrwt>
</event>
<event>
 6    1  0.1661841E-002  0.9093520E+02  0.7546771E-02  0.1419891E+00
         -2   -1    0    0    0  501 -0.00000000000E+00  0.00000000000E+00  0.17289914399E+02  0.17289914399E+02  0.00000000000E+00 0. -1.
          2   -1    0    0  501    0  0.00000000000E+00 -0.00000000000E+00 -0.17467014489E+03  0.17467014489E+03  0.00000000000E+00 0.  1.
         23    2    1    2    0    0  0.93388180731E+01 -0.78627024513E+01 -0.10844838684E+03  0.14152831397E+03  0.90112016036E+02 0.  0.
         11    1    3    3    0    0  0.26758057672E+02  0.32740722064E+02 -0.31241997002E+02  0.52573861455E+02  0.00000000000E+00 0.  1.
        -11    1    3    3    0    0 -0.17419239599E+02 -0.40603424515E+02 -0.77206389833E+02  0.88954452512E+02  0.00000000000E+00 0. -1.
         22    1    1    2    0    0 -0.93388180731E+01  0.78627024513E+01 -0.48931843656E+02  0.50431745324E+02  0.00000000000E+00 0. -1.
<mgrwt>
<rscale>  0 0.55044038E+02</rscale>
<asrwt>0</asrwt>
<pdfrwt beam="1">  1        2 0.26872332E-01 0.90935202E+02</pdfrwt>
<pdfrwt beam="2">  1       -2 0.26599866E-02 0.90935202E+02</pdfrwt>
<totfact> 0.85991712E+04</totfact>
</mgrwt>
</event>
<event>
 6    1  0.1661841E-002  0.9704855E+02  0.7546771E-02  0.1370935E+00
         -2   -1    0    0    0  501 -0.00000000000E+00  0.00000000000E+00  0.59143781819E+02  0.59143781819E+02  0.00000000000E+00 0.  1.
          2   -1    0    0  501    0  0.00000000000E+00 -0.00000000000E+00 -0.96060314682E+02  0.96060314682E+02  0.00000000000E+00 0. -1.
         23    2    1    2    0    0 -0.72207735329E+01  0.20701953624E+02  0.15600172256E+02  0.98294389325E+02  0.94539468711E+02 0.  0.
         11    1    3    3    0    0 -0.27158121550E+02 -0.10635200094E+02  0.43127401210E+02  0.52063843330E+02  0.00000000000E+00 0.  1.
        -11    1    3    3    0    0  0.19937348017E+02  0.31337153718E+02 -0.27527228954E+02  0.46230545995E+02  0.00000000000E+00 0. -1.
         22    1    1    2    0    0  0.72207735329E+01 -0.20701953624E+02 -0.52516705120E+02  0.56909707176E+02  0.00000000000E+00 0.  1.
<mgrwt>
<rscale>  0 0.66907876E+02</rscale>
<asrwt>0</asrwt>
<pdfrwt beam="1">  1        2 0.14778510E-01 0.97048553E+02</pdfrwt>
<pdfrwt beam="2">  1       -2 0.90990435E-02 0.97048553E+02</pdfrwt>
<totfact> 0.27122274E+04</totfact>
</mgrwt>
</event>
<event>
 6    1  0.1661841E-002  0.9553661E+02  0.7546771E-02  0.1354779E+00
          2   -1    0    0  501    0  0.00000000000E+00  0.00000000000E+00  0.22152762362E+03  0.22152762362E+03  0.00000000000E+00 0. -1.
         -2   -1    0    0    0  501 -0.00000000000E+00 -0.00000000000E+00 -0.19319290369E+02  0.19319290369E+02  0.00000000000E+00 0.  1.
         23    2    1    2    0    0  0.40875346941E+01  0.29839049764E+02  0.12058292463E+03  0.15384240742E+03  0.90665140919E+02 0.  0.
         11    1    3    3    0    0 -0.37990840531E+02  0.16859091683E+02  0.93043676953E+02  0.10190514588E+03  0.00000000000E+00 0. -1.
        -11    1    3    3    0    0  0.42078375225E+02  0.12979958081E+02  0.27539247676E+02  0.51937261536E+02  0.00000000000E+00 0.  1.
         22    1    1    2    0    0 -0.40875346941E+01 -0.29839049764E+02  0.81625408625E+02  0.87004506572E+02  0.00000000000E+00 0.  1.
<mgrwt>
<rscale>  0 0.71586791E+02</rscale>
<asrwt>0</asrwt>
<pdfrwt beam="1">  1        2 0.34081171E-01 0.95536614E+02</pdfrwt>
<pdfrwt beam="2">  1       -2 0.29721987E-02 0.95536614E+02</pdfrwt>
<totfact> 0.57158855E+04</totfact>
</mgrwt>
</event>
<event>
 6    1  0.1661841E-002  0.9571296E+02  0.7546771E-02  0.1370053E+00
          1   -1    0    0  501    0  0.00000000000E+00  0.00000000000E+00  0.72277772910E+02  0.72277772910E+02  0.00000000000E+00 0.  1.
         -1   -1    0    0    0  501 -0.00000000000E+00 -0.00000000000E+00 -0.49419270567E+02  0.49419270567E+02  0.00000000000E+00 0. -1.
         23    2    1    2    0    0  0.45004089416E+01 -0.22751132684E+02  0.23271323163E+02  0.98501394315E+02  0.92860661645E+02 0.  0.
         13    1    3    3    0    0  0.41434804041E+02  0.54837560884E+01  0.30107671167E+02  0.51511032118E+02  0.00000000000E+00 0.  1.
        -13    1    3    3    0    0 -0.36934395099E+02 -0.28234888773E+02 -0.68363480041E+01  0.46990362197E+02  0.00000000000E+00 0. -1.
         22    1    1    2    0    0 -0.45004089416E+01  0.22751132684E+02 -0.41282081973E+00  0.23195649163E+02  0.00000000000E+00 0.  1.
<mgrwt>
<rscale>  0 0.67152547E+02</rscale>
<asrwt>0</asrwt>
<pdfrwt beam="1">  1        1 0.11119657E-01 0.95712957E+02</pdfrwt>
<pdfrwt beam="2">  1       -1 0.76029647E-02 0.95712957E+02</pdfrwt>
<totfact> 0.44970572E+04</totfact>
</mgrwt>
</event>
<event>
 6    1  0.1661841E-002  0.9185685E+02  0.7546771E-02  0.1418090E+00
         -2   -1    0    0    0  501 -0.00000000000E+00  0.00000000000E+00  0.44709452621E+01  0.44709452621E+01  0.00000000000E+00 0.  1.
          2   -1    0    0  501    0  0.00000000000E+00 -0.00000000000E+00 -0.64689591038E+03  0.64689591038E+03  0.00000000000E+00 0. -1.
         23    2    1    2    0    0  0.10529356350E+02 -0.61170876030E+01 -0.60691575355E+03  0.61382767329E+03  0.91046111817E+02 0.  0.
         11    1    3    3    0    0  0.18373320739E+02  0.32582659543E+02 -0.46556152841E+03  0.46706182177E+03  0.00000000000E+00 0. -1.
        -11    1    3    3    0    0 -0.78439643892E+01 -0.38699747146E+02 -0.14135422514E+03  0.14676585152E+03  0.00000000000E+00 0.  1.
         22    1    1    2    0    0 -0.10529356350E+02  0.61170876030E+01 -0.35509211564E+02  0.37539182353E+02  0.00000000000E+00 0. -1.
<mgrwt>
<rscale>  0 0.55426980E+02</rscale>
<asrwt>0</asrwt>
<pdfrwt beam="1">  1        2 0.99522498E-01 0.91856848E+02</pdfrwt>
<pdfrwt beam="2">  1       -2 0.68783739E-03 0.91856848E+02</pdfrwt>
<totfact> 0.14638268E+05</totfact>
</mgrwt>
</event>
<event>
 6    1  0.1661841E-002  0.9166694E+02  0.7546771E-02  0.1427812E+00
          2   -1    0    0  501    0  0.00000000000E+00  0.00000000000E+00  0.38277502496E+03  0.38277502496E+03  0.00000000000E+00 0. -1.
         -2   -1    0    0    0  501 -0.00000000000E+00 -0.00000000000E+00 -0.70217474745E+01  0.70217474745E+01  0.00000000000E+00 0.  1.
         23    2    1    2    0    0  0.89470472307E+00 -0.10519980147E+02  0.31245231540E+03  0.32562136998E+03  0.91056887230E+02 0.  0.
         11    1    3    3    0    0  0.14574856826E+02 -0.48129815205E+02  0.20121229279E+03  0.20740128334E+03  0.00000000000E+00 0. -1.
        -11    1    3    3    0    0 -0.13680152103E+02  0.37609835057E+02  0.11124002261E+03  0.11822008664E+03  0.00000000000E+00 0.  1.
         22    1    1    2    0    0 -0.89470472307E+00  0.10519980147E+02  0.63300962085E+02  0.64175402451E+02  0.00000000000E+00 0.  1.
<mgrwt>
<rscale>  0 0.53401631E+02</rscale>
<asrwt>0</asrwt>
<pdfrwt beam="1">  1        2 0.58888449E-01 0.91666936E+02</pdfrwt>
<pdfrwt beam="2">  1       -2 0.10802691E-02 0.91666936E+02</pdfrwt>
<totfact> 0.13669110E+05</totfact>
</mgrwt>
</event>
<event>
 6    1  0.1661841E-002  0.9679759E+02  0.7546771E-02  0.1349739E+00
         -2   -1    0    0    0  501 -0.00000000000E+00  0.00000000000E+00  0.12525799889E+02  0.12525799889E+02  0.00000000000E+00 0.  1.
          2   -1    0    0  501    0  0.00000000000E+00 -0.00000000000E+00 -0.37588978938E+03  0.37588978938E+03  0.00000000000E+00 0. -1.
         23    2    1    2    0    0 -0.31470239703E+02  0.21979920414E+01 -0.20197801565E+03  0.22397520582E+03  0.91512659567E+02 0.  0.
         11    1    3    3    0    0  0.28277287831E+02  0.15055974351E+02 -0.42751483347E+02  0.53422623476E+02  0.00000000000E+00 0.  1.
        -11    1    3    3    0    0 -0.59747527534E+02 -0.12857982310E+02 -0.15922653230E+03  0.17055258235E+03  0.00000000000E+00 0. -1.
         22    1    1    2    0    0  0.31470239703E+02 -0.21979920414E+01 -0.16138597385E+03  0.16444038345E+03  0.00000000000E+00 0.  1.
<mgrwt>
<rscale>  0 0.73137078E+02</rscale>
<asrwt>0</asrwt>
<pdfrwt beam="1">  1        2 0.57829194E-01 0.96797593E+02</pdfrwt>
<pdfrwt beam="2">  1       -2 0.19270463E-02 0.96797593E+02</pdfrwt>
<totfact> 0.61475003E+04</totfact>
</mgrwt>
</event>
<event>
 6    1  0.1661841E-002  0.9081197E+02  0.7546771E-02  0.1385236E+00
         -2   -1    0    0    0  501 -0.00000000000E+00  0.00000000000E+00  0.15020052050E+03  0.15020052050E+03  0.00000000000E+00 0.  1.
          2   -1    0    0  501    0  0.00000000000E+00 -0.00000000000E+00 -0.33653727786E+02  0.33653727786E+02  0.00000000000E+00 0. -1.
         23    2    1    2    0    0  0.23300780743E+00 -0.21176901557E+02  0.13013758897E+03  0.15869028209E+03  0.88307973121E+02 0.  0.
         11    1    3    3    0    0 -0.22254277341E+02 -0.45371065251E+01 -0.27611117966E+01  0.22879290504E+02  0.00000000000E+00 0. -1.
        -11    1    3    3    0    0  0.22487285149E+02 -0.16639795032E+02  0.13289870076E+03  0.13581099159E+03  0.00000000000E+00 0.  1.
         22    1    1    2    0    0 -0.23300780743E+00  0.21176901557E+02 -0.13590796246E+02  0.25163966198E+02  0.00000000000E+00 0. -1.
<mgrwt>
<rscale>  0 0.63107284E+02</rscale>
<asrwt>0</asrwt>
<pdfrwt beam="1">  1        2 0.51774967E-02 0.90811968E+02</pdfrwt>
<pdfrwt beam="2">  1       -2 0.23107772E-01 0.90811968E+02</pdfrwt>
<totfact> 0.21594728E+04</totfact>
</mgrwt>
</event>
<event>
 6    1  0.1661841E-002  0.9153442E+02  0.7546771E-02  0.1413398E+00
         -1   -1    0    0    0  501 -0.00000000000E+00  0.00000000000E+00  0.18829367207E+04  0.18829367207E+04  0.00000000000E+00 0.  1.
          1   -1    0    0  501    0  0.00000000000E+00 -0.00000000000E+00 -0.19773193091E+01  0.19773193091E+01  0.00000000000E+00 0. -1.
         23    2    1    2    0    0  0.12062195354E+02 -0.54431487200E+01  0.18292304020E+04  0.18315191545E+04  0.90572761487E+02 0.  0.
         11    1    3    3    0    0  0.70254128843E+01 -0.38574641052E+02  0.15149060655E+04  0.15154133914E+04  0.00000000000E+00 0.  1.
        -11    1    3    3    0    0  0.50367824697E+01  0.33131492332E+02  0.31432433649E+03  0.31610576311E+03  0.00000000000E+00 0. -1.
         22    1    1    2    0    0 -0.12062195354E+02  0.54431487200E+01  0.51728999331E+02  0.53394885490E+02  0.00000000000E+00 0.  1.
<mgrwt>
<rscale>  0 0.56442554E+02</rscale>
<asrwt>0</asrwt>
<pdfrwt beam="1">  1        1 0.30420448E-03 0.91534417E+02</pdfrwt>
<pdfrwt beam="2">  1       -1 0.28968114E+00 0.91534417E+02</pdfrwt>
<totfact> 0.36846262E+03</totfact>
</mgrwt>
</event>
<event>
 6    1  0.1661841E-002  0.9075365E+02  0.7546771E-02  0.1392430E+00
          2   -1    0    0  501    0  0.00000000000E+00  0.00000000000E+00  0.95194808021E+02  0.95194808021E+02  0.00000000000E+00 0. -1.
         -2   -1    0    0    0  501 -0.00000000000E+00 -0.00000000000E+00 -0.44911487603E+02  0.44911487603E+02  0.00000000000E+00 0.  1.
         23    2    1    2    0    0  0.14444345400E+02 -0.12186888803E+02  0.48316503678E+01  0.90882178740E+02  0.88764104200E+02 0.  0.
         11    1    3    3    0    0  0.12665016881E+02 -0.13024745246E+02 -0.41085526320E+02  0.44922901892E+02  0.00000000000E+00 0.  1.
        -11    1    3    3    0    0  0.17793285188E+01  0.83785644346E+00  0.45917176688E+02  0.45959276848E+02  0.00000000000E+00 0. -1.
         22    1    1    2    0    0 -0.14444345400E+02  0.12186888803E+02  0.45451670050E+02  0.49224116884E+02  0.00000000000E+00 0. -1.
<mgrwt>
<rscale>  0 0.61306404E+02</rscale>
<asrwt>0</asrwt>
<pdfrwt beam="1">  1        2 0.14645355E-01 0.90753653E+02</pdfrwt>
<pdfrwt beam="2">  1       -2 0.69094596E-02 0.90753653E+02</pdfrwt>
<totfact> 0.41406438E+04</totfact>
</mgrwt>
</event>
<event>
 6    1  0.1661841E-002  0.9797263E+02  0.7546771E-02  0.1337741E+00
          4   -1    0    0  501    0  0.00000000000E+00  0.00000000000E+00  0.24090799354E+02  0.24090799354E+02  0.00000000000E+00 0. -1.
         -4   -1    0    0    0  501 -0.00000000000E+00 -0.00000000000E+00 -0.21972763620E+03  0.21972763620E+03  0.00000000000E+00 0.  1.
         23    2    1    2    0    0 -0.30266313315E+02  0.21989572975E+02 -0.17632840593E+03  0.20171847658E+03  0.90548583723E+02 0.  0.
         11    1    3    3    0    0 -0.59492888590E+02  0.29827422876E+02 -0.13482166695E+03  0.15035278790E+03  0.00000000000E+00 0.  1.
        -11    1    3    3    0    0  0.29226575275E+02 -0.78378499010E+01 -0.41506738983E+02  0.51365688688E+02  0.00000000000E+00 0. -1.
         22    1    1    2    0    0  0.30266313315E+02 -0.21989572975E+02 -0.19308430916E+02  0.42099958976E+02  0.00000000000E+00 0. -1.
<mgrwt>
<rscale>  0 0.77015605E+02</rscale>
<asrwt>0</asrwt>
<pdfrwt beam="1">  1        4 0.37062767E-02 0.97972634E+02</pdfrwt>
<pdfrwt beam="2">  1       -4 0.33804253E-01 0.97972634E+02</pdfrwt>
<totfact> 0.49014635E+03</totfact>
</mgrwt>
</event>
<event>
 6    1  0.1661841E-002  0.9657034E+02  0.7546771E-02  0.1360042E+00
         -2   -1    0    0    0  501 -0.00000000000E+00  0.00000000000E+00  0.55281408421E+02  0.55281408421E+02  0.00000000000E+00 0.  1.
          2   -1    0    0  501    0  0.00000000000E+00 -0.00000000000E+00 -0.78683401648E+02  0.78683401648E+02  0.00000000000E+00 0. -1.
         23    2    1    2    0    0 -0.25860307938E+02 -0.65743558443E+01  0.27411044122E+01  0.96609231697E+02  0.92810841577E+02 0.  0.
         11    1    3    3    0    0 -0.11662138843E+02  0.12297872111E+02 -0.42400913840E+02  0.45662683182E+02  0.00000000000E+00 0. -1.
        -11    1    3    3    0    0 -0.14198169095E+02 -0.18872227955E+02  0.45142018253E+02  0.50946548515E+02  0.00000000000E+00 0.  1.
         22    1    1    2    0    0  0.25860307938E+02  0.65743558443E+01 -0.26143097639E+02  0.37355578373E+02  0.00000000000E+00 0. -1.
<mgrwt>
<rscale>  0 0.70015002E+02</rscale>
<asrwt>0</asrwt>
<pdfrwt beam="1">  1        2 0.12105139E-01 0.96570337E+02</pdfrwt>
<pdfrwt beam="2">  1       -2 0.85048320E-02 0.96570337E+02</pdfrwt>
<totfact> 0.38025984E+04</totfact>
</mgrwt>
</event>
<event>
 6    1  0.1661841E-002  0.9944700E+02  0.7546771E-02  0.1384846E+00
         -4   -1    0    0    0  501 -0.00000000000E+00  0.00000000000E+00  0.12419968948E+04  0.12419968948E+04  0.00000000000E+00 0.  1.
          4   -1    0    0  501    0  0.00000000000E+00 -0.00000000000E+00 -0.50318229380E+01  0.50318229380E+01  0.00000000000E+00 0. -1.
         23    2    1    2    0    0  0.12807738799E+02 -0.99665496127E+01  0.12180623116E+04  0.12221151747E+04  0.98113886900E+02 0.  0.
         13    1    3    3    0    0 -0.90343097046E+01 -0.44941690918E+02  0.33888235882E+03  0.34196875216E+03  0.00000000000E+00 0.  1.
        -13    1    3    3    0    0  0.21842048504E+02  0.34975141306E+02  0.87917995282E+03  0.88014642250E+03  0.00000000000E+00 0. -1.
         22    1    1    2    0    0 -0.12807738799E+02  0.99665496127E+01  0.18902760177E+02  0.24913543036E+02  0.00000000000E+00 0.  1.
<mgrwt>
<rscale>  0 0.63206916E+02</rscale>
<asrwt>0</asrwt>
<pdfrwt beam="1">  1        4 0.77412760E-03 0.99446996E+02</pdfrwt>
<pdfrwt beam="2">  1       -4 0.19107620E+00 0.99446996E+02</pdfrwt>
<totfact> 0.11179549E+03</totfact>
</mgrwt>
</event>
<event>
 6    1  0.1661841E-002  0.9694740E+02  0.7546771E-02  0.1367931E+00
          3   -1    0    0  501    0  0.00000000000E+00  0.00000000000E+00  0.22518313304E+03  0.22518313304E+03  0.00000000000E+00 0. -1.
         -3   -1    0    0    0  501 -0.00000000000E+00 -0.00000000000E+00 -0.16027432372E+02  0.16027432372E+02  0.00000000000E+00 0.  1.
         23    2    1    2    0    0 -0.23090900035E+02  0.10873656558E+01  0.17242896930E+03  0.19781442704E+03  0.94151081051E+02 0.  0.
         13    1    3    3    0    0 -0.38409612028E+02  0.14587472208E+02  0.17257183757E+03  0.17739541077E+03  0.00000000000E+00 0. -1.
        -13    1    3    3    0    0  0.15318711993E+02 -0.13500106552E+02 -0.14286826694E+00  0.20419016269E+02  0.00000000000E+00 0.  1.
         22    1    1    2    0    0  0.23090900035E+02 -0.10873656558E+01  0.36726731366E+02  0.43396138369E+02  0.00000000000E+00 0. -1.
<mgrwt>
<rscale>  0 0.67745833E+02</rscale>
<asrwt>0</asrwt>
<pdfrwt beam="1">  1        3 0.34643557E-01 0.96947399E+02</pdfrwt>
<pdfrwt beam="2">  1       -3 0.24657590E-02 0.96947399E+02</pdfrwt>
<totfact> 0.11846424E+04</totfact>
</mgrwt>
</event>
<event>
 6    1  0.1661841E-002  0.8763208E+02  0.7546771E-02  0.1419162E+00
         -2   -1    0    0    0  501 -0.00000000000E+00  0.00000000000E+00  0.18669241358E+03  0.18669241358E+03  0.00000000000E+00 0. -1.
          2   -1    0    0  501    0  0.00000000000E+00 -0.00000000000E+00 -0.14123092917E+02  0.14123092917E+02  0.00000000000E+00 0.  1.
         23    2    1    2    0    0 -0.45028068254E+01 -0.13039405661E+02  0.13661294305E+03  0.16230365819E+03  0.86539470084E+02 0.  0.
         13    1    3    3    0    0 -0.10675162738E+01 -0.41214263027E+02  0.12502241641E+03  0.13164482395E+03  0.00000000000E+00 0. -1.
        -13    1    3    3    0    0 -0.34352905516E+01  0.28174857366E+02  0.11590526637E+02  0.30658834232E+02  0.00000000000E+00 0.  1.
         22    1    1    2    0    0  0.45028068254E+01  0.13039405661E+02  0.35956377610E+02  0.38511848308E+02  0.00000000000E+00 0.  1.
<mgrwt>
<rscale>  0 0.55198538E+02</rscale>
<asrwt>0</asrwt>
<pdfrwt beam="1">  1        2 0.21727837E-02 0.87632079E+02</pdfrwt>
<pdfrwt beam="2">  1       -2 0.28721908E-01 0.87632079E+02</pdfrwt>
<totfact> 0.46254495E+04</totfact>
</mgrwt>
</event>
<event>
 6    1  0.1661841E-002  0.9264691E+02  0.7546771E-02  0.1400213E+00
          2   -1    0    0  501    0  0.00000000000E+00  0.00000000000E+00  0.31423695293E+02  0.31423695293E+02  0.00000000000E+00 0. -1.
         -2   -1    0    0    0  501 -0.00000000000E+00 -0.00000000000E+00 -0.13546239874E+03  0.13546239874E+03  0.00000000000E+00 0.  1.
         23    2    1    2    0    0  0.13517045428E+02  0.79728032672E+01 -0.11504953904E+03  0.14771542348E+03  0.91308125538E+02 0.  0.
         11    1    3    3    0    0  0.39833881033E+02  0.24410301957E+02 -0.26111512334E+02  0.53520201757E+02  0.00000000000E+00 0. -1.
        -11    1    3    3    0    0 -0.26316835605E+02 -0.16437498689E+02 -0.88938026711E+02  0.94195221718E+02  0.00000000000E+00 0.  1.
         22    1    1    2    0    0 -0.13517045428E+02 -0.79728032672E+01  0.11010835597E+02  0.19170670557E+02  0.00000000000E+00 0.  1.
<mgrwt>
<rscale>  0 0.59436194E+02</rscale>
<asrwt>0</asrwt>
<pdfrwt beam="1">  1        2 0.48344147E-02 0.92646910E+02</pdfrwt>
<pdfrwt beam="2">  1       -2 0.20840369E-01 0.92646910E+02</pdfrwt>
<totfact> 0.28183701E+04</totfact>
</mgrwt>
</event>
<event>
 6    1  0.1661841E-002  0.1030702E+03  0.7546771E-02  0.1311715E+00
          4   -1    0    0  501    0  0.00000000000E+00  0.00000000000E+00  0.63814300033E+02  0.63814300033E+02  0.00000000000E+00 0. -1.
         -4   -1    0    0    0  501 -0.00000000000E+00 -0.00000000000E+00 -0.13105990994E+03  0.13105990994E+03  0.00000000000E+00 0.  1.
         23    2    1    2    0    0 -0.36218783783E+02  0.35878803042E+02 -0.92039377309E+02  0.13818364895E+03  0.89578931990E+02 0.  0.
         13    1    3    3    0    0 -0.55032650809E+01 -0.83002216615E+01 -0.83032601946E+02  0.83627702301E+02  0.00000000000E+00 0.  1.
        -13    1    3    3    0    0 -0.30715518702E+02  0.44179024703E+02 -0.90067753636E+01  0.54555946654E+02  0.00000000000E+00 0. -1.
         22    1    1    2    0    0  0.36218783783E+02 -0.35878803042E+02  0.24793767403E+02  0.56690561017E+02  0.00000000000E+00 0. -1.
<mgrwt>
<rscale>  0 0.86437580E+02</rscale>
<asrwt>0</asrwt>
<pdfrwt beam="1">  1        4 0.98175848E-02 0.10307024E+03</pdfrwt>
<pdfrwt beam="2">  1       -4 0.20163063E-01 0.10307024E+03</pdfrwt>
<totfact> 0.26676116E+03</totfact>
</mgrwt>
</event>
<event>
 6    1  0.1661841E-002  0.9285368E+02  0.7546771E-02  0.1394007E+00
          1   -1    0    0  501    0  0.00000000000E+00  0.00000000000E+00  0.22756809805E+03  0.22756809805E+03  0.00000000000E+00 0. -1.
         -1   -1    0    0    0  501 -0.00000000000E+00 -0.00000000000E+00 -0.13320564460E+02  0.13320564460E+02  0.00000000000E+00 0.  1.
         23    2    1    2    0    0  0.17124380946E+02 -0.16690473528E+01  0.18346864958E+03  0.20562721270E+03  0.91245685280E+02 0.  0.
         13    1    3    3    0    0  0.46943215166E+02 -0.11791088585E+02  0.54590191660E+02  0.72957413918E+02  0.00000000000E+00 0.  1.
        -13    1    3    3    0    0 -0.29818834220E+02  0.10122041232E+02  0.12887845792E+03  0.13266979878E+03  0.00000000000E+00 0. -1.
         22    1    1    2    0    0 -0.17124380946E+02  0.16690473528E+01  0.30778884007E+02  0.35261449808E+02  0.00000000000E+00 0.  1.
<mgrwt>
<rscale>  0 0.60920901E+02</rscale>
<asrwt>0</asrwt>
<pdfrwt beam="1">  1        1 0.35010474E-01 0.92853676E+02</pdfrwt>
<pdfrwt beam="2">  1       -1 0.20493178E-02 0.92853676E+02</pdfrwt>
<totfact> 0.71160054E+04</totfact>
</mgrwt>
</event>
<event>
 6    1  0.1661841E-002  0.9264048E+02  0.7546771E-02  0.1362842E+00
          3   -1    0    0  501    0  0.00000000000E+00  0.00000000000E+00  0.82734336771E+02  0.82734336771E+02  0.00000000000E+00 0. -1.
         -3   -1    0    0    0  501 -0.00000000000E+00 -0.00000000000E+00 -0.11237004803E+03  0.11237004803E+03  0.00000000000E+00 0.  1.
         23    2    1    2    0    0 -0.16122343561E+02  0.23910850619E+02 -0.89402254033E+02  0.12874401730E+03  0.88037493284E+02 0.  0.
         13    1    3    3    0    0  0.10162808119E+02 -0.20038419028E+02 -0.70768175750E+02  0.74249280165E+02  0.00000000000E+00 0.  1.
        -13    1    3    3    0    0 -0.26285151680E+02  0.43949269648E+02 -0.18634078283E+02  0.54494737130E+02  0.00000000000E+00 0. -1.
         22    1    1    2    0    0  0.16122343561E+02 -0.23910850619E+02  0.59766542779E+02  0.66360367502E+02  0.00000000000E+00 0. -1.
<mgrwt>
<rscale>  0 0.69198033E+02</rscale>
<asrwt>0</asrwt>
<pdfrwt beam="1">  1        3 0.12728360E-01 0.92640482E+02</pdfrwt>
<pdfrwt beam="2">  1       -3 0.17287700E-01 0.92640482E+02</pdfrwt>
<totfact> 0.30206384E+03</totfact>
</mgrwt>
</event>
<event>
 6    1  0.1661841E-002  0.9120196E+02  0.7546771E-02  0.1425009E+00
          2   -1    0    0  501    0  0.00000000000E+00  0.00000000000E+00  0.94292301386E+02  0.94292301386E+02  0.00000000000E+00 0.  1.
         -2   -1    0    0    0  501 -0.00000000000E+00 -0.00000000000E+00 -0.59373341098E+02  0.59373341098E+02  0.00000000000E+00 0. -1.
         23    2    1    2    0    0  0.76084353394E+01 -0.82028694539E+01 -0.23503280528E+02  0.94181749055E+02  0.90513105702E+02 0.  0.
         11    1    3    3    0    0 -0.91334053949E+01  0.23994376797E+02 -0.45140642900E+02  0.51930981633E+02  0.00000000000E+00 0. -1.
        -11    1    3    3    0    0  0.16741840734E+02 -0.32197246251E+02  0.21637362371E+02  0.42250767422E+02  0.00000000000E+00 0.  1.
         22    1    1    2    0    0 -0.76084353394E+01  0.82028694539E+01  0.58422240816E+02  0.59483893430E+02  0.00000000000E+00 0.  1.
<mgrwt>
<rscale>  0 0.53975042E+02</rscale>
<asrwt>0</asrwt>
<pdfrwt beam="1">  1        2 0.14506508E-01 0.91201961E+02</pdfrwt>
<pdfrwt beam="2">  1       -2 0.91343602E-02 0.91201961E+02</pdfrwt>
<totfact> 0.27346966E+04</totfact>
</mgrwt>
</event>
<event>
 6    1  0.1661841E-002  0.9188281E+02  0.7546771E-02  0.1368313E+00
         -2   -1    0    0    0  501 -0.00000000000E+00  0.00000000000E+00  0.83395562140E+01  0.83395562140E+01  0.00000000000E+00 0.  1.
          2   -1    0    0  501    0  0.00000000000E+00 -0.00000000000E+00 -0.43437880936E+03  0.43437880936E+03  0.00000000000E+00 0. -1.
         23    2    1    2    0    0  0.93521771871E+01 -0.25309320868E+02 -0.29699228792E+03  0.31088079819E+03  0.87831808905E+02 0.  0.
         13    1    3    3    0    0  0.11713662639E+01  0.14987649098E+02 -0.47586956601E+01  0.15768541746E+02  0.00000000000E+00 0.  1.
        -13    1    3    3    0    0  0.81808109232E+01 -0.40296969965E+02 -0.29223359226E+03  0.29511225644E+03  0.00000000000E+00 0. -1.
         22    1    1    2    0    0 -0.93521771871E+01  0.25309320868E+02 -0.12904696523E+03  0.13183756739E+03  0.00000000000E+00 0. -1.
<mgrwt>
<rscale>  0 0.67638505E+02</rscale>
<asrwt>0</asrwt>
<pdfrwt beam="1">  1        2 0.66827512E-01 0.91882814E+02</pdfrwt>
<pdfrwt beam="2">  1       -2 0.12830086E-02 0.91882814E+02</pdfrwt>
<totfact> 0.93727887E+04</totfact>
</mgrwt>
</event>
<event>
 6    1  0.1661841E-002  0.9439653E+02  0.7546771E-02  0.1408879E+00
         -2   -1    0    0    0  501 -0.00000000000E+00  0.00000000000E+00  0.34679157932E+03  0.34679157932E+03  0.00000000000E+00 0.  1.
          2   -1    0    0  501    0  0.00000000000E+00 -0.00000000000E+00 -0.83079736905E+01  0.83079736905E+01  0.00000000000E+00 0. -1.
         23    2    1    2    0    0  0.10945623177E+02  0.69129609077E+01  0.29605779076E+03  0.31074253032E+03  0.93504593365E+02 0.  0.
         11    1    3    3    0    0  0.17870148343E+02  0.15057178051E+02  0.11608599603E+02  0.26092535281E+02  0.00000000000E+00 0. -1.
        -11    1    3    3    0    0 -0.69245251662E+01 -0.81442171433E+01  0.28444919116E+03  0.28464999504E+03  0.00000000000E+00 0.  1.
         22    1    1    2    0    0 -0.10945623177E+02 -0.69129609077E+01  0.42425814864E+02  0.44357022692E+02  0.00000000000E+00 0. -1.
<mgrwt>
<rscale>  0 0.57444688E+02</rscale>
<asrwt>0</asrwt>
<pdfrwt beam="1">  1        2 0.12781501E-02 0.94396529E+02</pdfrwt>
<pdfrwt beam="2">  1       -2 0.53352539E-01 0.94396529E+02</pdfrwt>
<totfact> 0.30107629E+04</totfact>
</mgrwt>
</event>
<event>
 6    1  0.1661841E-002  0.8911356E+02  0.7546771E-02  0.1425365E+00
         -3   -1    0    0    0  501 -0.00000000000E+00  0.00000000000E+00  0.50761226432E+02  0.50761226432E+02  0.00000000000E+00 0.  1.
          3   -1    0    0  501    0  0.00000000000E+00 -0.00000000000E+00 -0.51868690621E+02  0.51868690621E+02  0.00000000000E+00 0. -1.
         23    2    1    2    0    0  0.11903778152E+02  0.76492393194E+00  0.49514199024E+01  0.89251011292E+02  0.88311615401E+02 0.  0.
         13    1    3    3    0    0  0.30007303360E+02  0.30983855598E+02 -0.18499259861E+02  0.46932506624E+02  0.00000000000E+00 0. -1.
        -13    1    3    3    0    0 -0.18103525208E+02 -0.30218931666E+02  0.23450679763E+02  0.42318504668E+02  0.00000000000E+00 0.  1.
         22    1    1    2    0    0 -0.11903778152E+02 -0.76492393194E+00 -0.60588840917E+01  0.13378905761E+02  0.00000000000E+00 0. -1.
<mgrwt>
<rscale>  0 0.53901736E+02</rscale>
<asrwt>0</asrwt>
<pdfrwt beam="1">  1        3 0.79797985E-02 0.89113559E+02</pdfrwt>
<pdfrwt beam="2">  1       -3 0.78094195E-02 0.89113559E+02</pdfrwt>
<totfact> 0.24034121E+04</totfact>
</mgrwt>
</event>
<event>
 6    1  0.1661841E-002  0.1099296E+03  0.7546771E-02  0.1298487E+00
         -4   -1    0    0    0  501 -0.00000000000E+00  0.00000000000E+00  0.11011774694E+02  0.11011774694E+02  0.00000000000E+00 0.  1.
          4   -1    0    0  501    0  0.00000000000E+00 -0.00000000000E+00 -0.60932704143E+03  0.60932704143E+03  0.00000000000E+00 0. -1.
         23    2    1    2    0    0 -0.26584406418E+02 -0.46453336221E+02 -0.38224718498E+03  0.39774039056E+03  0.96020126774E+02 0.  0.
         13    1    3    3    0    0  0.32263540277E+02 -0.21694292694E+02 -0.81596367207E+02  0.90385538158E+02  0.00000000000E+00 0. -1.
        -13    1    3    3    0    0 -0.58847946695E+02 -0.24759043527E+02 -0.30065081778E+03  0.30735485240E+03  0.00000000000E+00 0.  1.
         22    1    1    2    0    0  0.26584406418E+02  0.46453336221E+02 -0.21606808175E+03  0.22259842556E+03  0.00000000000E+00 0. -1.
<mgrwt>
<rscale>  0 0.91826848E+02</rscale>
<asrwt>0</asrwt>
<pdfrwt beam="1">  1        4 0.93742667E-01 0.10992956E+03</pdfrwt>
<pdfrwt beam="2">  1       -4 0.16941184E-02 0.10992956E+03</pdfrwt>
<totfact> 0.20472380E+03</totfact>
</mgrwt>
</event>
<event>
 6    1  0.1661841E-002  0.9155357E+02  0.7546771E-02  0.1410187E+00
         -4   -1    0    0    0  501 -0.00000000000E+00  0.00000000000E+00  0.65684417548E+02  0.65684417548E+02  0.00000000000E+00 0.  1.
          4   -1    0    0  501    0  0.00000000000E+00 -0.00000000000E+00 -0.70754283711E+02  0.70754283711E+02  0.00000000000E+00 0. -1.
         23    2    1    2    0    0 -0.11543870583E+02 -0.77476190191E+01  0.31891511776E+02  0.96949082274E+02  0.90491819972E+02 0.  0.
         13    1    3    3    0    0 -0.40193285972E+02 -0.27052913307E+02  0.38366275802E+02  0.61800740081E+02  0.00000000000E+00 0. -1.
        -13    1    3    3    0    0  0.28649415389E+02  0.19305294288E+02 -0.64747640263E+01  0.35148342193E+02  0.00000000000E+00 0.  1.
         22    1    1    2    0    0  0.11543870583E+02  0.77476190191E+01 -0.36961377938E+02  0.39489618985E+02  0.00000000000E+00 0. -1.
<mgrwt>
<rscale>  0 0.57152030E+02</rscale>
<asrwt>0</asrwt>
<pdfrwt beam="1">  1        4 0.10885274E-01 0.91553569E+02</pdfrwt>
<pdfrwt beam="2">  1       -4 0.10105295E-01 0.91553569E+02</pdfrwt>
<totfact> 0.71617902E+03</totfact>
</mgrwt>
</event>
<event>
 6    1  0.1661841E-002  0.9252675E+02  0.7546771E-02  0.1409028E+00
          4   -1    0    0  501    0  0.00000000000E+00  0.00000000000E+00  0.46403854703E+03  0.46403854703E+03  0.00000000000E+00 0. -1.
         -4   -1    0    0    0  501 -0.00000000000E+00 -0.00000000000E+00 -0.62214725613E+01  0.62214725613E+01  0.00000000000E+00 0.  1.
         23    2    1    2    0    0  0.13690902189E+02  0.80833294261E+00  0.41890199376E+03  0.42899892761E+03  0.91504673706E+02 0.  0.
         13    1    3    3    0    0  0.52835540238E+02 -0.51766016685E+00  0.26271714387E+03  0.26797790948E+03  0.00000000000E+00 0. -1.
        -13    1    3    3    0    0 -0.39144638049E+02  0.13259931095E+01  0.15618484988E+03  0.16102101813E+03  0.00000000000E+00 0.  1.
         22    1    1    2    0    0 -0.13690902189E+02 -0.80833294261E+00  0.38915080716E+02  0.41261091988E+02  0.00000000000E+00 0.  1.
<mgrwt>
<rscale>  0 0.57411304E+02</rscale>
<asrwt>0</asrwt>
<pdfrwt beam="1">  1        4 0.71390518E-01 0.92526750E+02</pdfrwt>
<pdfrwt beam="2">  1       -4 0.95714999E-03 0.92526750E+02</pdfrwt>
<totfact> 0.84296950E+03</totfact>
</mgrwt>
</event>
<event>
 6    1  0.1661841E-002  0.9035960E+02  0.7546771E-02  0.1430168E+00
          2   -1    0    0  501    0  0.00000000000E+00  0.00000000000E+00  0.17888704269E+03  0.17888704269E+03  0.00000000000E+00 0. -1.
         -2   -1    0    0    0  501 -0.00000000000E+00 -0.00000000000E+00 -0.14523998419E+02  0.14523998419E+02  0.00000000000E+00 0.  1.
         23    2    1    2    0    0 -0.18206964396E+01 -0.10478584617E+02  0.13764746974E+03  0.16465625727E+03  0.89731496486E+02 0.  0.
         13    1    3    3    0    0 -0.17322601274E+02 -0.35028990428E+02  0.12835279323E+03  0.13416982602E+03  0.00000000000E+00 0. -1.
        -13    1    3    3    0    0  0.15501904834E+02  0.24550405811E+02  0.92946765150E+01  0.30486431252E+02  0.00000000000E+00 0.  1.
         22    1    1    2    0    0  0.18206964396E+01  0.10478584617E+02  0.26715574523E+02  0.28754783832E+02  0.00000000000E+00 0.  1.
<mgrwt>
<rscale>  0 0.52926243E+02</rscale>
<asrwt>0</asrwt>
<pdfrwt beam="1">  1        2 0.27521082E-01 0.90359599E+02</pdfrwt>
<pdfrwt beam="2">  1       -2 0.22344614E-02 0.90359599E+02</pdfrwt>
<totfact> 0.10769247E+05</totfact>
</mgrwt>
</event>
<event>
 6    1  0.1661841E-002  0.9423787E+02  0.7546771E-02  0.1375045E+00
         -2   -1    0    0    0  501 -0.00000000000E+00  0.00000000000E+00  0.25570866486E+03  0.25570866486E+03  0.00000000000E+00 0.  1.
          2   -1    0    0  501    0  0.00000000000E+00 -0.00000000000E+00 -0.13350987199E+02  0.13350987199E+02  0.00000000000E+00 0. -1.
         23    2    1    2    0    0  0.60147441558E+00 -0.22369722805E+02  0.18870895421E+03  0.21093090015E+03  0.91542388936E+02 0.  0.
         11    1    3    3    0    0 -0.40906712182E+02 -0.13944048646E+02  0.13931290676E+03  0.14586254346E+03  0.00000000000E+00 0.  1.
        -11    1    3    3    0    0  0.41508186598E+02 -0.84256741592E+01  0.49396047446E+02  0.65068356695E+02  0.00000000000E+00 0. -1.
         22    1    1    2    0    0 -0.60147441558E+00  0.22369722805E+02  0.53648723451E+02  0.58128751903E+02  0.00000000000E+00 0.  1.
<mgrwt>
<rscale>  0 0.65784483E+02</rscale>
<asrwt>0</asrwt>
<pdfrwt beam="1">  1        2 0.20539982E-02 0.94237865E+02</pdfrwt>
<pdfrwt beam="2">  1       -2 0.39339791E-01 0.94237865E+02</pdfrwt>
<totfact> 0.28458233E+04</totfact>
</mgrwt>
</event>
<event>
 6    1  0.2177545E-002  0.9697588E+02  0.7546771E-02  0.1336068E+00
         -2   -1    0    0    0  501 -0.00000000000E+00  0.00000000000E+00  0.16047796584E+02  0.16047796584E+02  0.00000000000E+00 0.  1.
          2   -1    0    0  501    0  0.00000000000E+00 -0.00000000000E+00 -0.68670781667E+03  0.68670781667E+03  0.00000000000E+00 0. -1.
         23    2    1    2    0    0 -0.68808795176E+00 -0.39710389399E+02 -0.65146624379E+03  0.65864450876E+03  0.88469958943E+02 0.  0.
         13    1    3    3    0    0 -0.40613237016E+02 -0.39999284356E+02 -0.37304173387E+03  0.37737184974E+03  0.00000000000E+00 0. -1.
        -13    1    3    3    0    0  0.39925149065E+02  0.28889495759E+00 -0.27842450992E+03  0.28127265902E+03  0.00000000000E+00 0.  1.
         22    1    1    2    0    0  0.68808795176E+00  0.39710389399E+02 -0.19193776304E+02  0.44111104498E+02  0.00000000000E+00 0.  1.
<mgrwt>
<rscale>  0 0.77578280E+02</rscale>
<asrwt>0</asrwt>
<pdfrwt beam="1">  1        2 0.10564735E+00 0.96975884E+02</pdfrwt>
<pdfrwt beam="2">  1       -2 0.24688919E-02 0.96975884E+02</pdfrwt>
<totfact> 0.22260167E+04</totfact>
</mgrwt>
</event>
<event>
 6    1  0.1661841E-002  0.2121841E+03  0.7546771E-02  0.1144184E+00
          2   -1    0    0  501    0  0.00000000000E+00  0.00000000000E+00  0.19641360848E+04  0.19641360848E+04  0.00000000000E+00 0. -1.
         -2   -1    0    0    0  501 -0.00000000000E+00 -0.00000000000E+00 -0.20735900914E+02  0.20735900914E+02  0.00000000000E+00 0.  1.
         23    2    1    2    0    0  0.14561648997E+03 -0.12388340873E+03  0.10575351634E+04  0.10786114847E+04  0.92037231975E+02 0.  0.
         11    1    3    3    0    0  0.49184590820E+02 -0.10186574421E+03  0.54375743785E+03  0.55539887021E+03  0.00000000000E+00 0. -1.
        -11    1    3    3    0    0  0.96431899153E+02 -0.22017664517E+02  0.51377772552E+03  0.52321261449E+03  0.00000000000E+00 0.  1.
         22    1    1    2    0    0 -0.14561648997E+03  0.12388340873E+03  0.88586502051E+03  0.90626050100E+03  0.00000000000E+00 0.  1.
<mgrwt>
<rscale>  0 0.20672714E+03</rscale>
<asrwt>0</asrwt>
<pdfrwt beam="1">  1        2 0.30217463E+00 0.21218415E+03</pdfrwt>
<pdfrwt beam="2">  1       -2 0.31901402E-02 0.21218415E+03</pdfrwt>
<totfact> 0.29999399E+03</totfact>
</mgrwt>
</event>
<event>
 6    1  0.1661841E-002  0.1087511E+03  0.7546771E-02  0.1313969E+00
          1   -1    0    0  501    0  0.00000000000E+00  0.00000000000E+00  0.15921335439E+03  0.15921335439E+03  0.00000000000E+00 0. -1.
         -1   -1    0    0    0  501 -0.00000000000E+00 -0.00000000000E+00 -0.55399018358E+02  0.55399018358E+02  0.00000000000E+00 0.  1.
         23    2    1    2    0    0 -0.35918577919E+02  0.21125057444E+02  0.67254516599E+01  0.10895886471E+03  0.10045093433E+03 0.  0.
         13    1    3    3    0    0  0.25772511122E+01 -0.13095943210E+02 -0.38291965488E+02  0.40551455865E+02  0.00000000000E+00 0.  1.
        -13    1    3    3    0    0 -0.38495829031E+02  0.34221000654E+02  0.45017417148E+02  0.68407408847E+02  0.00000000000E+00 0. -1.
         22    1    1    2    0    0  0.35918577919E+02 -0.21125057444E+02  0.97088884376E+02  0.10565350804E+03  0.00000000000E+00 0. -1.
<mgrwt>
<rscale>  0 0.85562184E+02</rscale>
<asrwt>0</asrwt>
<pdfrwt beam="1">  1        1 0.24494362E-01 0.10875110E+03</pdfrwt>
<pdfrwt beam="2">  1       -1 0.85229260E-02 0.10875110E+03</pdfrwt>
<totfact> 0.14045057E+04</totfact>
</mgrwt>
</event>
<event>
 6    1  0.1661841E-002  0.9287318E+02  0.7546771E-02  0.1407658E+00
          1   -1    0    0  501    0  0.00000000000E+00  0.00000000000E+00  0.46472419806E+02  0.46472419806E+02  0.00000000000E+00 0. -1.
         -1   -1    0    0    0  501 -0.00000000000E+00 -0.00000000000E+00 -0.85339881662E+02  0.85339881662E+02  0.00000000000E+00 0.  1.
         23    2    1    2    0    0  0.25303294855E+01 -0.13622724021E+02 -0.57016743254E+02  0.10897860723E+03  0.91833799042E+02 0.  0.
         11    1    3    3    0    0 -0.31321234707E+02 -0.19878375383E+02 -0.63885723033E+02  0.73875267572E+02  0.00000000000E+00 0.  1.
        -11    1    3    3    0    0  0.33851564192E+02  0.62556513620E+01  0.68689797795E+01  0.35103339662E+02  0.00000000000E+00 0. -1.
         22    1    1    2    0    0 -0.25303294855E+01  0.13622724021E+02  0.18149281398E+02  0.22833694233E+02  0.00000000000E+00 0. -1.
<mgrwt>
<rscale>  0 0.57719834E+02</rscale>
<asrwt>0</asrwt>
<pdfrwt beam="1">  1        1 0.71496031E-02 0.92873181E+02</pdfrwt>
<pdfrwt beam="2">  1       -1 0.13129212E-01 0.92873181E+02</pdfrwt>
<totfact> 0.35111940E+04</totfact>
</mgrwt>
</event>
<event>
 6    1  0.1661841E-002  0.9130413E+02  0.7546771E-02  0.1416314E+00
          2   -1    0    0  501    0  0.00000000000E+00  0.00000000000E+00  0.91515436553E+02  0.91515436553E+02  0.00000000000E+00 0. -1.
         -2   -1    0    0    0  501 -0.00000000000E+00 -0.00000000000E+00 -0.45405154481E+02  0.45405154481E+02  0.00000000000E+00 0.  1.
         23    2    1    2    0    0  0.66634412831E+01 -0.10863893334E+02  0.23416009627E+01  0.91334155836E+02  0.90410283149E+02 0.  0.
         13    1    3    3    0    0 -0.24825829394E+02  0.10894398699E+01  0.35982903740E+02  0.43729601484E+02  0.00000000000E+00 0. -1.
        -13    1    3    3    0    0  0.31489270678E+02 -0.11953333204E+02 -0.33641302777E+02  0.47604554352E+02  0.00000000000E+00 0.  1.
         22    1    1    2    0    0 -0.66634412831E+01  0.10863893334E+02  0.43768681109E+02  0.45586435199E+02  0.00000000000E+00 0. -1.
<mgrwt>
<rscale>  0 0.55808410E+02</rscale>
<asrwt>0</asrwt>
<pdfrwt beam="1">  1        2 0.14079298E-01 0.91304134E+02</pdfrwt>
<pdfrwt beam="2">  1       -2 0.69854084E-02 0.91304134E+02</pdfrwt>
<totfact> 0.42670646E+04</totfact>
</mgrwt>
</event>
<event>
 6    1  0.1661841E-002  0.9186340E+02  0.7546771E-02  0.1416336E+00
         -4   -1    0    0    0  501 -0.00000000000E+00  0.00000000000E+00  0.62087044576E+03  0.62087044576E+03  0.00000000000E+00 0.  1.
          4   -1    0    0  501    0  0.00000000000E+00 -0.00000000000E+00 -0.54070958914E+01  0.54070958914E+01  0.00000000000E+00 0. -1.
         23    2    1    2    0    0 -0.60930493493E+01  0.10924758086E+02  0.59667982718E+03  0.60370994732E+03  0.91007739950E+02 0.  0.
         11    1    3    3    0    0  0.42009592243E+02  0.12194387746E+02  0.28331710868E+03  0.28667419312E+03  0.00000000000E+00 0. -1.
        -11    1    3    3    0    0 -0.48102641593E+02 -0.12696296601E+01  0.31336271851E+03  0.31703575419E+03  0.00000000000E+00 0.  1.
         22    1    1    2    0    0  0.60930493493E+01 -0.10924758086E+02  0.18783522684E+02  0.22567594334E+02  0.00000000000E+00 0. -1.
<mgrwt>
<rscale>  0 0.55803664E+02</rscale>
<asrwt>0</asrwt>
<pdfrwt beam="1">  1        4 0.83186140E-03 0.91863400E+02</pdfrwt>
<pdfrwt beam="2">  1       -4 0.95518474E-01 0.91863400E+02</pdfrwt>
<totfact> 0.54569531E+03</totfact>
</mgrwt>
</event>
<event>
 6    1  0.1661841E-002  0.9410321E+02  0.7546771E-02  0.1365527E+00
          1   -1    0    0  501    0  0.00000000000E+00  0.00000000000E+00  0.28324125956E+02  0.28324125956E+02  0.00000000000E+00 0. -1.
         -1   -1    0    0    0  501 -0.00000000000E+00 -0.00000000000E+00 -0.23551016085E+03  0.23551016085E+03  0.00000000000E+00 0.  1.
         23    2    1    2    0    0  0.10499457369E+01  0.26286656356E+02 -0.21638750733E+03  0.23596391215E+03  0.90351114108E+02 0.  0.
         11    1    3    3    0    0 -0.30458227892E+02 -0.15128348682E+02 -0.42359366884E+02  0.54322063133E+02  0.00000000000E+00 0. -1.
        -11    1    3    3    0    0  0.31508173629E+02  0.41415005038E+02 -0.17402814044E+03  0.18164184901E+03  0.00000000000E+00 0.  1.
         22    1    1    2    0    0 -0.10499457369E+01 -0.26286656356E+02  0.92014724360E+01  0.27870374655E+02  0.00000000000E+00 0. -1.
<mgrwt>
<rscale>  0 0.68426403E+02</rscale>
<asrwt>0</asrwt>
<pdfrwt beam="1">  1        1 0.43575579E-02 0.94103212E+02</pdfrwt>
<pdfrwt beam="2">  1       -1 0.36232332E-01 0.94103212E+02</pdfrwt>
<totfact> 0.13366567E+04</totfact>
</mgrwt>
</event>
<event>
 6    1  0.1661841E-002  0.9884528E+02  0.7546771E-02  0.1412095E+00
         -2   -1    0    0    0  501 -0.00000000000E+00  0.00000000000E+00  0.50464463966E+01  0.50464463966E+01  0.00000000000E+00 0.  1.
          2   -1    0    0  501    0  0.00000000000E+00 -0.00000000000E+00 -0.59475824388E+03  0.59475824388E+03  0.00000000000E+00 0. -1.
         23    2    1    2    0    0 -0.10330208148E+02  0.28788811916E+01 -0.53283036258E+03  0.54192119700E+03  0.98261830398E+02 0.  0.
         13    1    3    3    0    0 -0.33193112131E+02  0.41706812097E+02 -0.26186906771E+03  0.26723893708E+03  0.00000000000E+00 0.  1.
        -13    1    3    3    0    0  0.22862903984E+02 -0.38827930906E+02 -0.27096129487E+03  0.27468225992E+03  0.00000000000E+00 0. -1.
         22    1    1    2    0    0  0.10330208148E+02 -0.28788811916E+01 -0.56881434908E+02  0.57883493282E+02  0.00000000000E+00 0. -1.
<mgrwt>
<rscale>  0 0.56728946E+02</rscale>
<asrwt>0</asrwt>
<pdfrwt beam="1">  1        2 0.91501276E-01 0.98845275E+02</pdfrwt>
<pdfrwt beam="2">  1       -2 0.77637631E-03 0.98845275E+02</pdfrwt>
<totfact> 0.13717650E+05</totfact>
</mgrwt>
</event>
<event>
 6    1  0.1661841E-002  0.9566421E+02  0.7546771E-02  0.1369061E+00
         -2   -1    0    0    0  501 -0.00000000000E+00  0.00000000000E+00  0.38482020860E+02  0.38482020860E+02  0.00000000000E+00 0.  1.
          2   -1    0    0  501    0  0.00000000000E+00 -0.00000000000E+00 -0.94585212083E+02  0.94585212083E+02  0.00000000000E+00 0. -1.
         23    2    1    2    0    0  0.23330708241E+02 -0.36340201700E+01 -0.36544799905E+02  0.10240685590E+03  0.92704442641E+02 0.  0.
         11    1    3    3    0    0  0.52474756595E+02 -0.17519915591E+02 -0.42266853103E+02  0.69620646314E+02  0.00000000000E+00 0. -1.
        -11    1    3    3    0    0 -0.29144048354E+02  0.13885895421E+02  0.57220531980E+01  0.32786209584E+02  0.00000000000E+00 0.  1.
         22    1    1    2    0    0 -0.23330708241E+02  0.36340201700E+01 -0.19558391317E+02  0.30660377045E+02  0.00000000000E+00 0.  1.
<mgrwt>
<rscale>  0 0.67428806E+02</rscale>
<asrwt>0</asrwt>
<pdfrwt beam="1">  1        2 0.14551571E-01 0.95664213E+02</pdfrwt>
<pdfrwt beam="2">  1       -2 0.59203109E-02 0.95664213E+02</pdfrwt>
<totfact> 0.53025007E+04</totfact>
</mgrwt>
</event>
<event>
 6    1  0.1661841E-002  0.7821916E+02  0.7546771E-02  0.1446050E+00
         -1   -1    0    0    0  501 -0.00000000000E+00  0.00000000000E+00  0.85337667762E+02  0.85337667762E+02  0.00000000000E+00 0.  1.
          1   -1    0    0  501    0  0.00000000000E+00 -0.00000000000E+00 -0.33734879509E+02  0.33734879509E+02  0.00000000000E+00 0. -1.
         23    2    1    2    0    0  0.10743320171E+02 -0.71830085680E+01  0.64074457026E+02  0.10111267360E+03  0.77144164902E+02 0.  0.
         11    1    3    3    0    0  0.42452383553E+02  0.42749015535E+01  0.24798450793E+02  0.49350205819E+02  0.00000000000E+00 0. -1.
        -11    1    3    3    0    0 -0.31709063382E+02 -0.11457910122E+02  0.39276006232E+02  0.51762467778E+02  0.00000000000E+00 0.  1.
         22    1    1    2    0    0 -0.10743320171E+02  0.71830085680E+01 -0.12471668773E+02  0.17959873673E+02  0.00000000000E+00 0. -1.
<mgrwt>
<rscale>  0 0.49868825E+02</rscale>
<asrwt>0</asrwt>
<pdfrwt beam="1">  1        1 0.51899815E-02 0.78219158E+02</pdfrwt>
<pdfrwt beam="2">  1       -1 0.13128872E-01 0.78219158E+02</pdfrwt>
<totfact> 0.52598972E+04</totfact>
</mgrwt>
</event>
<event>
 6    1  0.1661841E-002  0.9201678E+02  0.7546771E-02  0.1397173E+00
         -3   -1    0    0    0  501 -0.00000000000E+00  0.00000000000E+00  0.64664131398E+03  0.64664131398E+03  0.00000000000E+00 0.  1.
          3   -1    0    0  501    0  0.00000000000E+00 -0.00000000000E+00 -0.48253865546E+01  0.48253865546E+01  0.00000000000E+00 0. -1.
         23    2    1    2    0    0 -0.10032105955E+02 -0.13487359435E+02  0.58580510693E+03  0.59298795202E+03  0.90468425045E+02 0.  0.
         11    1    3    3    0    0 -0.16115727580E+02 -0.14583127435E+02  0.29466524322E+02  0.36615028838E+02  0.00000000000E+00 0. -1.
        -11    1    3    3    0    0  0.60836216255E+01  0.10957680003E+01  0.55633858260E+03  0.55637292318E+03  0.00000000000E+00 0.  1.
         22    1    1    2    0    0  0.10032105955E+02  0.13487359435E+02  0.56010820499E+02  0.58478748511E+02  0.00000000000E+00 0. -1.
<mgrwt>
<rscale>  0 0.60157195E+02</rscale>
<asrwt>0</asrwt>
<pdfrwt beam="1">  1        3 0.74236767E-03 0.92016781E+02</pdfrwt>
<pdfrwt beam="2">  1       -3 0.99483211E-01 0.92016781E+02</pdfrwt>
<totfact> 0.81583865E+03</totfact>
</mgrwt>
</event>
<event>
 6    1  0.1661841E-002  0.1211567E+03  0.7546771E-02  0.1262309E+00
          1   -1    0    0  501    0  0.00000000000E+00  0.00000000000E+00  0.17706995002E+03  0.17706995002E+03  0.00000000000E+00 0. -1.
         -1   -1    0    0    0  501 -0.00000000000E+00 -0.00000000000E+00 -0.64449443412E+02  0.64449443412E+02  0.00000000000E+00 0.  1.
         23    2    1    2    0    0  0.79048926421E+02  0.90477847563E+01  0.26023659733E+02  0.12392003516E+03  0.91369300484E+02 0.  0.
         11    1    3    3    0    0  0.43442711428E+02 -0.13539468997E+01  0.59682072482E+02  0.73831240841E+02  0.00000000000E+00 0. -1.
        -11    1    3    3    0    0  0.35606214994E+02  0.10401731656E+02 -0.33658412749E+02  0.50088794320E+02  0.00000000000E+00 0.  1.
         22    1    1    2    0    0 -0.79048926421E+02 -0.90477847563E+01  0.86596846880E+02  0.11759935828E+03  0.00000000000E+00 0. -1.
<mgrwt>
<rscale>  0 0.10906644E+03</rscale>
<asrwt>0</asrwt>
<pdfrwt beam="1">  1        1 0.27241531E-01 0.12115669E+03</pdfrwt>
<pdfrwt beam="2">  1       -1 0.99152991E-02 0.12115669E+03</pdfrwt>
<totfact> 0.98780032E+03</totfact>
</mgrwt>
</event>
<event>
 6    1  0.1661841E-002  0.9500745E+02  0.7546771E-02  0.1356422E+00
          2   -1    0    0  501    0  0.00000000000E+00  0.00000000000E+00  0.11659771503E+02  0.11659771503E+02  0.00000000000E+00 0. -1.
         -2   -1    0    0    0  501 -0.00000000000E+00 -0.00000000000E+00 -0.39135266123E+03  0.39135266123E+03  0.00000000000E+00 0.  1.
         23    2    1    2    0    0 -0.18122914087E+02 -0.23635681049E+02 -0.34211802148E+03  0.35506500155E+03  0.90218231347E+02 0.  0.
         11    1    3    3    0    0 -0.22729832292E+02 -0.49355965740E+02 -0.12394705354E+03  0.13533487618E+03  0.00000000000E+00 0. -1.
        -11    1    3    3    0    0  0.46069182050E+01  0.25720284691E+02 -0.21817096794E+03  0.21973012536E+03  0.00000000000E+00 0.  1.
         22    1    1    2    0    0  0.18122914087E+02  0.23635681049E+02 -0.37574868241E+02  0.47947431182E+02  0.00000000000E+00 0. -1.
<mgrwt>
<rscale>  0 0.71090884E+02</rscale>
<asrwt>0</asrwt>
<pdfrwt beam="1">  1        2 0.17938109E-02 0.95007446E+02</pdfrwt>
<pdfrwt beam="2">  1       -2 0.60208104E-01 0.95007446E+02</pdfrwt>
<totfact> 0.14894884E+04</totfact>
</mgrwt>
</event>
<event>
 6    1  0.1661841E-002  0.9608822E+02  0.7546771E-02  0.1353478E+00
          2   -1    0    0  501    0  0.00000000000E+00  0.00000000000E+00  0.61323479846E+02  0.61323479846E+02  0.00000000000E+00 0.  1.
         -2   -1    0    0    0  501 -0.00000000000E+00 -0.00000000000E+00 -0.65084776571E+02  0.65084776571E+02  0.00000000000E+00 0. -1.
         23    2    1    2    0    0 -0.29153710695E+02  0.81160989108E+01 -0.31415065749E+01  0.96139558912E+02  0.91198332306E+02 0.  0.
         11    1    3    3    0    0 -0.52509619528E+02 -0.21115464852E+02 -0.11615091828E+02  0.57775715980E+02  0.00000000000E+00 0. -1.
        -11    1    3    3    0    0  0.23355908833E+02  0.29231563763E+02  0.84735852534E+01  0.38363842932E+02  0.00000000000E+00 0.  1.
         22    1    1    2    0    0  0.29153710695E+02 -0.81160989108E+01 -0.61979014935E+00  0.30268697505E+02  0.00000000000E+00 0.  1.
<mgrwt>
<rscale>  0 0.71982723E+02</rscale>
<asrwt>0</asrwt>
<pdfrwt beam="1">  1        2 0.94343815E-02 0.96088218E+02</pdfrwt>
<pdfrwt beam="2">  1       -2 0.10013043E-01 0.96088218E+02</pdfrwt>
<totfact> 0.39862064E+04</totfact>
</mgrwt>
</event>
<event>
 6    1  0.1661841E-002  0.8321973E+02  0.7546771E-02  0.1435698E+00
          2   -1    0    0  501    0  0.00000000000E+00  0.00000000000E+00  0.37152410170E+02  0.37152410170E+02  0.00000000000E+00 0. -1.
         -2   -1    0    0    0  501 -0.00000000000E+00 -0.00000000000E+00 -0.74409096999E+02  0.74409096999E+02  0.00000000000E+00 0.  1.
         23    2    1    2    0    0  0.22092935169E+01  0.12327778304E+02 -0.47107371618E+02  0.95627547003E+02  0.82271916164E+02 0.  0.
         11    1    3    3    0    0 -0.12195090170E+01  0.10294703848E+02  0.23093500011E+02  0.25313590664E+02  0.00000000000E+00 0. -1.
        -11    1    3    3    0    0  0.34288025338E+01  0.20330744559E+01 -0.70200871629E+02  0.70313956339E+02  0.00000000000E+00 0.  1.
         22    1    1    2    0    0 -0.22092935169E+01 -0.12327778304E+02  0.98506847891E+01  0.15933960166E+02  0.00000000000E+00 0. -1.
<mgrwt>
<rscale>  0 0.51833084E+02</rscale>
<asrwt>0</asrwt>
<pdfrwt beam="1">  1        2 0.57157554E-02 0.83219729E+02</pdfrwt>
<pdfrwt beam="2">  1       -2 0.11447554E-01 0.83219729E+02</pdfrwt>
<totfact> 0.59231466E+04</totfact>
</mgrwt>
</event>
<event>
 6    1  0.1661841E-002  0.9315054E+02  0.7546771E-02  0.1425542E+00
          2   -1    0    0  501    0  0.00000000000E+00  0.00000000000E+00  0.67850145327E+02  0.67850145327E+02  0.00000000000E+00 0. -1.
         -2   -1    0    0    0  501 -0.00000000000E+00 -0.00000000000E+00 -0.39806964216E+02  0.39806964216E+02  0.00000000000E+00 0.  1.
         23    2    1    2    0    0 -0.10337876765E+02  0.12698687285E+01  0.27905457179E+02  0.97240621149E+02  0.92566406425E+02 0.  0.
         13    1    3    3    0    0  0.23030728192E+02 -0.20720086567E+02 -0.18434103515E+02  0.36049307910E+02  0.00000000000E+00 0.  1.
        -13    1    3    3    0    0 -0.33368604956E+02  0.21989955296E+02  0.46339560694E+02  0.61191313239E+02  0.00000000000E+00 0. -1.
         22    1    1    2    0    0  0.10337876765E+02 -0.12698687285E+01  0.13772393225E+00  0.10416488394E+02  0.00000000000E+00 0. -1.
<mgrwt>
<rscale>  0 0.53865400E+02</rscale>
<asrwt>0</asrwt>
<pdfrwt beam="1">  1        2 0.10438484E-01 0.93150544E+02</pdfrwt>
<pdfrwt beam="2">  1       -2 0.61241483E-02 0.93150544E+02</pdfrwt>
<totfact> 0.74428216E+04</totfact>
</mgrwt>
</event>
<event>
 6    1  0.1661841E-002  0.9436048E+02  0.7546771E-02  0.1363548E+00
         -1   -1    0    0    0  501 -0.00000000000E+00  0.00000000000E+00  0.32300499014E+02  0.32300499014E+02  0.00000000000E+00 0.  1.
          1   -1    0    0  501    0  0.00000000000E+00 -0.00000000000E+00 -0.12216195596E+03  0.12216195596E+03  0.00000000000E+00 0. -1.
         23    2    1    2    0    0  0.26961698824E+02  0.64858722201E+00 -0.51294693842E+02  0.10740133424E+03  0.90424261736E+02 0.  0.
         13    1    3    3    0    0 -0.17187839776E+02 -0.10596606266E+02  0.16256400309E+02  0.25922585742E+02  0.00000000000E+00 0.  1.
        -13    1    3    3    0    0  0.44149538600E+02  0.11245193488E+02 -0.67551094151E+02  0.81478748494E+02  0.00000000000E+00 0. -1.
         22    1    1    2    0    0 -0.26961698824E+02 -0.64858722201E+00 -0.38566763107E+02  0.47061120741E+02  0.00000000000E+00 0.  1.
<mgrwt>
<rscale>  0 0.68993923E+02</rscale>
<asrwt>0</asrwt>
<pdfrwt beam="1">  1        1 0.18794148E-01 0.94360484E+02</pdfrwt>
<pdfrwt beam="2">  1       -1 0.49693074E-02 0.94360484E+02</pdfrwt>
<totfact> 0.42894383E+04</totfact>
</mgrwt>
</event>
<event>
 6    1  0.1661841E-002  0.9875586E+02  0.7546771E-02  0.1339547E+00
         -2   -1    0    0    0  501 -0.00000000000E+00  0.00000000000E+00  0.15496680015E+03  0.15496680015E+03  0.00000000000E+00 0.  1.
          2   -1    0    0  501    0  0.00000000000E+00 -0.00000000000E+00 -0.61685315059E+02  0.61685315059E+02  0.00000000000E+00 0. -1.
         23    2    1    2    0    0  0.22570815867E+02  0.27271573775E+02  0.13156786561E+03  0.16450782119E+03  0.92192947156E+02 0.  0.
         11    1    3    3    0    0 -0.17112784039E+02 -0.12134361975E+02 -0.60841223840E+00  0.20987145674E+02  0.00000000000E+00 0. -1.
        -11    1    3    3    0    0  0.39683599906E+02  0.39405935749E+02  0.13217627785E+03  0.14352067551E+03  0.00000000000E+00 0.  1.
         22    1    1    2    0    0 -0.22570815867E+02 -0.27271573775E+02 -0.38286380523E+02  0.52144294018E+02  0.00000000000E+00 0. -1.
<mgrwt>
<rscale>  0 0.76414163E+02</rscale>
<asrwt>0</asrwt>
<pdfrwt beam="1">  1        2 0.94900485E-02 0.98755860E+02</pdfrwt>
<pdfrwt beam="2">  1       -2 0.23841046E-01 0.98755860E+02</pdfrwt>
<totfact> 0.96488145E+03</totfact>
</mgrwt>
</event>
<event>
 6    1  0.1661841E-002  0.8894725E+02  0.7546771E-02  0.1419513E+00
         -2   -1    0    0    0  501 -0.00000000000E+00  0.00000000000E+00  0.25427921863E+03  0.25427921863E+03  0.00000000000E+00 0.  1.
          2   -1    0    0  501    0  0.00000000000E+00 -0.00000000000E+00 -0.10423605061E+02  0.10423605061E+02  0.00000000000E+00 0. -1.
         23    2    1    2    0    0  0.12290855244E+02  0.45931358905E+01  0.22273335633E+03  0.23983694806E+03  0.87974153102E+02 0.  0.
         13    1    3    3    0    0  0.23944604596E+02 -0.37427997268E+02  0.12948015887E+03  0.13689160168E+03  0.00000000000E+00 0.  1.
        -13    1    3    3    0    0 -0.11653749352E+02  0.42021133159E+02  0.93253197459E+02  0.10294534638E+03  0.00000000000E+00 0. -1.
         22    1    1    2    0    0 -0.12290855244E+02 -0.45931358905E+01  0.21122257244E+02  0.24865875633E+02  0.00000000000E+00 0. -1.
<mgrwt>
<rscale>  0 0.55124107E+02</rscale>
<asrwt>0</asrwt>
<pdfrwt beam="1">  1        2 0.16036317E-02 0.88947252E+02</pdfrwt>
<pdfrwt beam="2">  1       -2 0.39119875E-01 0.88947252E+02</pdfrwt>
<totfact> 0.39858114E+04</totfact>
</mgrwt>
</event>
<event>
 6    1  0.1661841E-002  0.9897907E+02  0.7546771E-02  0.1334175E+00
         -2   -1    0    0    0  501 -0.00000000000E+00  0.00000000000E+00  0.28356680556E+02  0.28356680556E+02  0.00000000000E+00 0.  1.
          2   -1    0    0  501    0  0.00000000000E+00 -0.00000000000E+00 -0.16903125730E+03  0.16903125730E+03  0.00000000000E+00 0. -1.
         23    2    1    2    0    0 -0.38574009462E+02  0.16194569827E+01 -0.90821686748E+02  0.13433329895E+03  0.91138792921E+02 0.  0.
         11    1    3    3    0    0 -0.10833820088E+02 -0.27090274219E+02  0.58373181990E+01  0.29754476953E+02  0.00000000000E+00 0.  1.
        -11    1    3    3    0    0 -0.27740189374E+02  0.28709731202E+02 -0.96659004947E+02  0.10457882199E+03  0.00000000000E+00 0. -1.
         22    1    1    2    0    0  0.38574009462E+02 -0.16194569827E+01 -0.49852889993E+02  0.63054638906E+02  0.00000000000E+00 0.  1.
<mgrwt>
<rscale>  0 0.78221623E+02</rscale>
<asrwt>0</asrwt>
<pdfrwt beam="1">  1        2 0.26004809E-01 0.98979071E+02</pdfrwt>
<pdfrwt beam="2">  1       -2 0.43625662E-02 0.98979071E+02</pdfrwt>
<totfact> 0.43715298E+04</totfact>
</mgrwt>
</event>
<event>
 6    1  0.1661841E-002  0.9451563E+02  0.7546771E-02  0.1402720E+00
          2   -1    0    0  501    0  0.00000000000E+00  0.00000000000E+00  0.10652947475E+02  0.10652947475E+02  0.00000000000E+00 0. -1.
         -2   -1    0    0    0  501 -0.00000000000E+00 -0.00000000000E+00 -0.27884985499E+03  0.27884985499E+03  0.00000000000E+00 0.  1.
         23    2    1    2    0    0 -0.13897888495E+02 -0.29454292664E+01 -0.23969425180E+03  0.25765585220E+03  0.93441837366E+02 0.  0.
         11    1    3    3    0    0 -0.36080775608E+02 -0.24846712661E+02 -0.21028454963E+03  0.21479937922E+03  0.00000000000E+00 0.  1.
        -11    1    3    3    0    0  0.22182887113E+02  0.21901283395E+02 -0.29409702164E+02  0.42856472981E+02  0.00000000000E+00 0. -1.
         22    1    1    2    0    0  0.13897888495E+02  0.29454292664E+01 -0.28502655719E+02  0.31846950266E+02  0.00000000000E+00 0.  1.
<mgrwt>
<rscale>  0 0.58850490E+02</rscale>
<asrwt>0</asrwt>
<pdfrwt beam="1">  1        2 0.16389150E-02 0.94515627E+02</pdfrwt>
<pdfrwt beam="2">  1       -2 0.42899977E-01 0.94515627E+02</pdfrwt>
<totfact> 0.32812737E+04</totfact>
</mgrwt>
</event>
<event>
 6    1  0.1661841E-002  0.9901973E+02  0.7546771E-02  0.1388702E+00
         -2   -1    0    0    0  501 -0.00000000000E+00  0.00000000000E+00  0.16742634401E+03  0.16742634401E+03  0.00000000000E+00 0.  1.
          2   -1    0    0  501    0  0.00000000000E+00 -0.00000000000E+00 -0.27197046486E+02  0.27197046486E+02  0.00000000000E+00 0. -1.
         23    2    1    2    0    0  0.13065142907E+02 -0.82414278344E+01  0.14741702095E+03  0.17758571284E+03  0.97807403842E+02 0.  0.
         13    1    3    3    0    0  0.68822832714E+01 -0.27021528344E+01 -0.14065251855E+02  0.15890209650E+02  0.00000000000E+00 0. -1.
        -13    1    3    3    0    0  0.61828596360E+01 -0.55392750000E+01  0.16148227280E+03  0.16169550319E+03  0.00000000000E+00 0.  1.
         22    1    1    2    0    0 -0.13065142907E+02  0.82414278344E+01 -0.71877234267E+01  0.17037677659E+02  0.00000000000E+00 0. -1.
<mgrwt>
<rscale>  0 0.62230667E+02</rscale>
<asrwt>0</asrwt>
<pdfrwt beam="1">  1        2 0.41841611E-02 0.99019732E+02</pdfrwt>
<pdfrwt beam="2">  1       -2 0.25757898E-01 0.99019732E+02</pdfrwt>
<totfact> 0.23856744E+04</totfact>
</mgrwt>
</event>
<event>
 6    1  0.1661841E-002  0.9490631E+02  0.7546771E-02  0.1376726E+00
          2   -1    0    0  501    0  0.00000000000E+00  0.00000000000E+00  0.52447620842E+02  0.52447620842E+02  0.00000000000E+00 0.  1.
         -2   -1    0    0    0  501 -0.00000000000E+00 -0.00000000000E+00 -0.10128962864E+03  0.10128962864E+03  0.00000000000E+00 0. -1.
         23    2    1    2    0    0  0.92027474700E+01 -0.19222828142E+02 -0.74303754191E+02  0.12053321038E+03  0.92482426632E+02 0.  0.
         13    1    3    3    0    0 -0.21424123359E+02  0.10272923119E+02 -0.74306363144E+02  0.78012573441E+02  0.00000000000E+00 0. -1.
        -13    1    3    3    0    0  0.30626870829E+02 -0.29495751261E+02  0.26089532873E-02  0.42520636943E+02  0.00000000000E+00 0.  1.
         22    1    1    2    0    0 -0.92027474700E+01  0.19222828142E+02  0.25461746396E+02  0.33204039096E+02  0.00000000000E+00 0.  1.
<mgrwt>
<rscale>  0 0.65332325E+02</rscale>
<asrwt>0</asrwt>
<pdfrwt beam="1">  1        2 0.80688649E-02 0.94906306E+02</pdfrwt>
<pdfrwt beam="2">  1       -2 0.15583020E-01 0.94906306E+02</pdfrwt>
<totfact> 0.23882251E+04</totfact>
</mgrwt>
</event>
<event>
 6    1  0.1661841E-002  0.8457871E+02  0.7546771E-02  0.1439488E+00
          2   -1    0    0  501    0  0.00000000000E+00  0.00000000000E+00  0.16536552248E+02  0.16536552248E+02  0.00000000000E+00 0. -1.
         -2   -1    0    0    0  501 -0.00000000000E+00 -0.00000000000E+00 -0.16182844635E+03  0.16182844635E+03  0.00000000000E+00 0.  1.
         23    2    1    2    0    0 -0.31546712577E+01  0.10820421882E+02 -0.14402483559E+03  0.16702308881E+03  0.83824372638E+02 0.  0.
         11    1    3    3    0    0 -0.17615145536E+02  0.31017296303E+02 -0.20741659324E+02  0.41262361224E+02  0.00000000000E+00 0. -1.
        -11    1    3    3    0    0  0.14460474279E+02 -0.20196874421E+02 -0.12328317626E+03  0.12576072758E+03  0.00000000000E+00 0.  1.
         22    1    1    2    0    0  0.31546712577E+01 -0.10820421882E+02 -0.12670585154E+01  0.11341909792E+02  0.00000000000E+00 0.  1.
<mgrwt>
<rscale>  0 0.51101728E+02</rscale>
<asrwt>0</asrwt>
<pdfrwt beam="1">  1        2 0.25440850E-02 0.84578714E+02</pdfrwt>
<pdfrwt beam="2">  1       -2 0.24896684E-01 0.84578714E+02</pdfrwt>
<totfact> 0.47804793E+04</totfact>
</mgrwt>
</event>
<event>
 6    1  0.1661841E-002  0.9343017E+02  0.7546771E-02  0.1383340E+00
          4   -1    0    0  501    0  0.00000000000E+00  0.00000000000E+00  0.11257293043E+02  0.11257293043E+02  0.00000000000E+00 0. -1.
         -4   -1    0    0    0  501 -0.00000000000E+00 -0.00000000000E+00 -0.29251543569E+03  0.29251543569E+03  0.00000000000E+00 0.  1.
         23    2    1    2    0    0  0.18336902830E+02  0.81191667832E+01 -0.24695409610E+03  0.26403697048E+03  0.91252579817E+02 0.  0.
         13    1    3    3    0    0 -0.28388873480E+02 -0.18583947039E+02 -0.54495864448E+02  0.64195720005E+02  0.00000000000E+00 0. -1.
        -13    1    3    3    0    0  0.46725776310E+02  0.26703113822E+02 -0.19245823165E+03  0.19984125047E+03  0.00000000000E+00 0.  1.
         22    1    1    2    0    0 -0.18336902830E+02 -0.81191667832E+01 -0.34304046549E+02  0.39735758257E+02  0.00000000000E+00 0. -1.
<mgrwt>
<rscale>  0 0.63593919E+02</rscale>
<asrwt>0</asrwt>
<pdfrwt beam="1">  1        4 0.17318911E-02 0.93430167E+02</pdfrwt>
<pdfrwt beam="2">  1       -4 0.45002377E-01 0.93430167E+02</pdfrwt>
<totfact> 0.89721531E+03</totfact>
</mgrwt>
</event>
<event>
 6    1  0.1661841E-002  0.9922115E+02  0.7546771E-02  0.1334876E+00
          2   -1    0    0  501    0  0.00000000000E+00  0.00000000000E+00  0.10431786426E+03  0.10431786426E+03  0.00000000000E+00 0. -1.
         -2   -1    0    0    0  501 -0.00000000000E+00 -0.00000000000E+00 -0.45033344294E+02  0.45033344294E+02  0.00000000000E+00 0.  1.
         23    2    1    2    0    0 -0.23880132758E+02  0.29378190888E+02  0.43002594284E+02  0.10813907509E+03  0.91714217036E+02 0.  0.
         13    1    3    3    0    0  0.31284296594E+02 -0.65063477517E+01  0.55902717877E+01  0.32439033788E+02  0.00000000000E+00 0.  1.
        -13    1    3    3    0    0 -0.55164429352E+02  0.35884538639E+02  0.37412322497E+02  0.75700041306E+02  0.00000000000E+00 0. -1.
         22    1    1    2    0    0  0.23880132758E+02 -0.29378190888E+02  0.16281925682E+02  0.41212133460E+02  0.00000000000E+00 0.  1.
<mgrwt>
<rscale>  0 0.77982436E+02</rscale>
<asrwt>0</asrwt>
<pdfrwt beam="1">  1        2 0.16048902E-01 0.99221149E+02</pdfrwt>
<pdfrwt beam="2">  1       -2 0.69282068E-02 0.99221149E+02</pdfrwt>
<totfact> 0.37525794E+04</totfact>
</mgrwt>
</event>
<event>
 6    1  0.1661841E-002  0.9727983E+02  0.7546771E-02  0.1343529E+00
         -3   -1    0    0    0  501 -0.00000000000E+00  0.00000000000E+00  0.17704560382E+03  0.17704560382E+03  0.00000000000E+00 0.  1.
          3   -1    0    0  501    0  0.00000000000E+00 -0.00000000000E+00 -0.24635061457E+02  0.24635061457E+02  0.00000000000E+00 0. -1.
         23    2    1    2    0    0  0.31569230165E+02  0.14095258325E+02  0.11756619162E+03  0.15259480806E+03  0.90928947166E+02 0.  0.
         13    1    3    3    0    0 -0.26218541541E+02  0.26365875308E+02  0.34951729705E+02  0.51031311081E+02  0.00000000000E+00 0. -1.
        -13    1    3    3    0    0  0.57787771706E+02 -0.12270616984E+02  0.82614461916E+02  0.10156349697E+03  0.00000000000E+00 0.  1.
         22    1    1    2    0    0 -0.31569230165E+02 -0.14095258325E+02  0.34844350738E+02  0.49085857218E+02  0.00000000000E+00 0.  1.
<mgrwt>
<rscale>  0 0.75110628E+02</rscale>
<asrwt>0</asrwt>
<pdfrwt beam="1">  1        3 0.37900096E-02 0.97279834E+02</pdfrwt>
<pdfrwt beam="2">  1       -3 0.27237784E-01 0.97279834E+02</pdfrwt>
<totfact> 0.95406228E+03</totfact>
</mgrwt>
</event>
<event>
 6    1  0.1661841E-002  0.9435633E+02  0.7546771E-02  0.1366293E+00
         -2   -1    0    0    0  501 -0.00000000000E+00  0.00000000000E+00  0.23368194147E+03  0.23368194147E+03  0.00000000000E+00 0.  1.
          2   -1    0    0  501    0  0.00000000000E+00 -0.00000000000E+00 -0.15455722500E+02  0.15455722500E+02  0.00000000000E+00 0. -1.
         23    2    1    2    0    0  0.24355948767E+02  0.84062948188E+01  0.17490786633E+03  0.19873570262E+03  0.90770258110E+02 0.  0.
         11    1    3    3    0    0  0.34117150110E+02 -0.20968490466E+02  0.28652203281E+02  0.49240291195E+02  0.00000000000E+00 0. -1.
        -11    1    3    3    0    0 -0.97612013437E+01  0.29374785285E+02  0.14625566305E+03  0.14949541142E+03  0.00000000000E+00 0.  1.
         22    1    1    2    0    0 -0.24355948767E+02 -0.84062948188E+01  0.43318352638E+02  0.50401961352E+02  0.00000000000E+00 0.  1.
<mgrwt>
<rscale>  0 0.68208631E+02</rscale>
<asrwt>0</asrwt>
<pdfrwt beam="1">  1        2 0.23778036E-02 0.94356334E+02</pdfrwt>
<pdfrwt beam="2">  1       -2 0.35951065E-01 0.94356334E+02</pdfrwt>
<totfact> 0.27627939E+04</totfact>
</mgrwt>
</event>
<event>
 6    1  0.1661841E-002  0.8994659E+02  0.7546771E-02  0.1414721E+00
         -2   -1    0    0    0  501 -0.00000000000E+00  0.00000000000E+00  0.33294532085E+02  0.33294532085E+02  0.00000000000E+00 0. -1.
          2   -1    0    0  501    0  0.00000000000E+00 -0.00000000000E+00 -0.87281834022E+02  0.87281834022E+02  0.00000000000E+00 0.  1.
         23    2    1    2    0    0  0.54079706451E+01  0.12547451311E+02 -0.33565548973E+02  0.96005393904E+02  0.88902783420E+02 0.  0.
         11    1    3    3    0    0 -0.14412580762E+02  0.41965651130E+02 -0.40251550802E+02  0.59908477705E+02  0.00000000000E+00 0.  1.
        -11    1    3    3    0    0  0.19820551407E+02 -0.29418199818E+02  0.66860018287E+01  0.36096916199E+02  0.00000000000E+00 0. -1.
         22    1    1    2    0    0 -0.54079706451E+01 -0.12547451311E+02 -0.20421752964E+02  0.24570972204E+02  0.00000000000E+00 0.  1.
<mgrwt>
<rscale>  0 0.56153538E+02</rscale>
<asrwt>0</asrwt>
<pdfrwt beam="1">  1        2 0.13427974E-01 0.89946593E+02</pdfrwt>
<pdfrwt beam="2">  1       -2 0.51222358E-02 0.89946593E+02</pdfrwt>
<totfact> 0.71673992E+04</totfact>
</mgrwt>
</event>
<event>
 6    1  0.1661841E-002  0.9512892E+02  0.7546771E-02  0.1357672E+00
         -2   -1    0    0    0  501 -0.00000000000E+00  0.00000000000E+00  0.54342394040E+01  0.54342394040E+01  0.00000000000E+00 0.  1.
          2   -1    0    0  501    0  0.00000000000E+00 -0.00000000000E+00 -0.73818396355E+03  0.73818396355E+03  0.00000000000E+00 0. -1.
         23    2    1    2    0    0  0.28095733921E+02  0.73873539151E+01 -0.61635217944E+03  0.62365015856E+03  0.90584589791E+02 0.  0.
         13    1    3    3    0    0  0.31523796564E+02  0.11189333193E+02 -0.61749872052E+03  0.61840409181E+03  0.00000000000E+00 0. -1.
        -13    1    3    3    0    0 -0.34280626438E+01 -0.38019792778E+01  0.11465410749E+01  0.52460667509E+01  0.00000000000E+00 0.  1.
         22    1    1    2    0    0 -0.28095733921E+02 -0.73873539151E+01 -0.11639754470E+03  0.11996804439E+03  0.00000000000E+00 0. -1.
<mgrwt>
<rscale>  0 0.70716959E+02</rscale>
<asrwt>0</asrwt>
<pdfrwt beam="1">  1        2 0.11356678E+00 0.95128919E+02</pdfrwt>
<pdfrwt beam="2">  1       -2 0.83603667E-03 0.95128919E+02</pdfrwt>
<totfact> 0.95804295E+04</totfact>
</mgrwt>
</event>
<event>
 6    1  0.1661841E-002  0.9197946E+02  0.7546771E-02  0.1396517E+00
         -2   -1    0    0    0  501 -0.00000000000E+00  0.00000000000E+00  0.63260885024E+02  0.63260885024E+02  0.00000000000E+00 0.  1.
          2   -1    0    0  501    0  0.00000000000E+00 -0.00000000000E+00 -0.54087483214E+02  0.54087483214E+02  0.00000000000E+00 0. -1.
         23    2    1    2    0    0 -0.16911064898E+02 -0.17991774494E+01  0.23698341184E+02  0.94983328124E+02  0.90393584347E+02 0.  0.
         13    1    3    3    0    0  0.18364256780E+02  0.18322470867E+02  0.42844180718E+02  0.50085753335E+02  0.00000000000E+00 0.  1.
        -13    1    3    3    0    0 -0.35275321678E+02 -0.20121648316E+02 -0.19145839534E+02  0.44897574789E+02  0.00000000000E+00 0. -1.
         22    1    1    2    0    0  0.16911064898E+02  0.17991774494E+01 -0.14524939375E+02  0.22365040115E+02  0.00000000000E+00 0. -1.
<mgrwt>
<rscale>  0 0.60314524E+02</rscale>
<asrwt>0</asrwt>
<pdfrwt beam="1">  1        2 0.83211513E-02 0.91979461E+02</pdfrwt>
<pdfrwt beam="2">  1       -2 0.97324439E-02 0.91979461E+02</pdfrwt>
<totfact> 0.48330150E+04</totfact>
</mgrwt>
</event>
<event>
 6    1  0.1661841E-002  0.8563736E+02  0.7546771E-02  0.1412431E+00
         -2   -1    0    0    0  501 -0.00000000000E+00  0.00000000000E+00  0.96246243250E+02  0.96246243250E+02  0.00000000000E+00 0.  1.
          2   -1    0    0  501    0  0.00000000000E+00 -0.00000000000E+00 -0.34499916837E+02  0.34499916837E+02  0.00000000000E+00 0. -1.
         23    2    1    2    0    0  0.14870959343E+02  0.69249039919E+01  0.71586296437E+02  0.11161700074E+03  0.84051515694E+02 0.  0.
         11    1    3    3    0    0 -0.22724318631E+02 -0.37170156055E+01  0.68679298683E+02  0.72436571770E+02  0.00000000000E+00 0.  1.
        -11    1    3    3    0    0  0.37595277973E+02  0.10641919597E+02  0.29069977540E+01  0.39180428974E+02  0.00000000000E+00 0. -1.
         22    1    1    2    0    0 -0.14870959343E+02 -0.69249039919E+01 -0.98399700241E+01  0.19129159343E+02  0.00000000000E+00 0. -1.
<mgrwt>
<rscale>  0 0.56654786E+02</rscale>
<asrwt>0</asrwt>
<pdfrwt beam="1">  1        2 0.53076796E-02 0.85637358E+02</pdfrwt>
<pdfrwt beam="2">  1       -2 0.14807114E-01 0.85637358E+02</pdfrwt>
<totfact> 0.43421446E+04</totfact>
</mgrwt>
</event>
<event>
 6    1  0.1661841E-002  0.9155520E+02  0.7546771E-02  0.1402784E+00
         -3   -1    0    0    0  501 -0.00000000000E+00  0.00000000000E+00  0.35588768133E+03  0.35588768133E+03  0.00000000000E+00 0.  1.
          3   -1    0    0  501    0  0.00000000000E+00 -0.00000000000E+00 -0.10158110957E+02  0.10158110957E+02  0.00000000000E+00 0. -1.
         23    2    1    2    0    0  0.11726843183E+02  0.10309149506E+02  0.33452514416E+03  0.34682766071E+03  0.90213949827E+02 0.  0.
         11    1    3    3    0    0  0.22901124881E+02  0.42899844623E+02  0.26274340697E+03  0.26720583095E+03  0.00000000000E+00 0. -1.
        -11    1    3    3    0    0 -0.11174281698E+02 -0.32590695117E+02  0.71781737194E+02  0.79621829760E+02  0.00000000000E+00 0.  1.
         22    1    1    2    0    0 -0.11726843183E+02 -0.10309149506E+02  0.11204426214E+02  0.19218131578E+02  0.00000000000E+00 0. -1.
<mgrwt>
<rscale>  0 0.58835695E+02</rscale>
<asrwt>0</asrwt>
<pdfrwt beam="1">  1        3 0.15627866E-02 0.91555197E+02</pdfrwt>
<pdfrwt beam="2">  1       -3 0.54751941E-01 0.91555197E+02</pdfrwt>
<totfact> 0.95857441E+03</totfact>
</mgrwt>
</event>
<event>
 6    1  0.1661841E-002  0.1321642E+03  0.7546771E-02  0.1240702E+00
         -2   -1    0    0    0  501 -0.00000000000E+00  0.00000000000E+00  0.39009573095E+02  0.39009573095E+02  0.00000000000E+00 0. -1.
          2   -1    0    0  501    0  0.00000000000E+00 -0.00000000000E+00 -0.55317027591E+03  0.55317027591E+03  0.00000000000E+00 0.  1.
         23    2    1    2    0    0 -0.91798338193E+02 -0.21510130057E+02 -0.95560089161E+02  0.16309233539E+03  0.92616189902E+02 0.  0.
         11    1    3    3    0    0 -0.55953055747E+02 -0.57951254086E+02 -0.65245720781E+02  0.10366338012E+03  0.00000000000E+00 0. -1.
        -11    1    3    3    0    0 -0.35845282446E+02  0.36441124029E+02 -0.30314368380E+02  0.59428955269E+02  0.00000000000E+00 0.  1.
         22    1    1    2    0    0  0.91798338193E+02  0.21510130057E+02 -0.41860061365E+03  0.42908751361E+03  0.00000000000E+00 0.  1.
<mgrwt>
<rscale>  0 0.12146350E+03</rscale>
<asrwt>0</asrwt>
<pdfrwt beam="1">  1        2 0.85103118E-01 0.13216421E+03</pdfrwt>
<pdfrwt beam="2">  1       -2 0.60014729E-02 0.13216421E+03</pdfrwt>
<totfact> 0.78464813E+03</totfact>
</mgrwt>
</event>
<event>
 6    1  0.1661841E-002  0.1064097E+03  0.7546771E-02  0.1302462E+00
          2   -1    0    0  501    0  0.00000000000E+00  0.00000000000E+00  0.17854155330E+02  0.17854155330E+02  0.00000000000E+00 0. -1.
         -2   -1    0    0    0  501 -0.00000000000E+00 -0.00000000000E+00 -0.56303701033E+03  0.56303701033E+03  0.00000000000E+00 0.  1.
         23    2    1    2    0    0  0.52861165117E+02  0.14617480836E+02 -0.49579811979E+03  0.50708855327E+03  0.91186905567E+02 0.  0.
         11    1    3    3    0    0  0.58121774005E+02  0.38836803237E+02 -0.44620485868E+03  0.45164722274E+03  0.00000000000E+00 0.  1.
        -11    1    3    3    0    0 -0.52606088881E+01 -0.24219322401E+02 -0.49593261112E+02  0.55441330532E+02  0.00000000000E+00 0. -1.
         22    1    1    2    0    0 -0.52861165117E+02 -0.14617480836E+02 -0.49384735204E+02  0.73802612384E+02  0.00000000000E+00 0. -1.
<mgrwt>
<rscale>  0 0.90161303E+02</rscale>
<asrwt>0</asrwt>
<pdfrwt beam="1">  1        2 0.27467938E-02 0.10640970E+03</pdfrwt>
<pdfrwt beam="2">  1       -2 0.86621057E-01 0.10640970E+03</pdfrwt>
<totfact> 0.39166172E+03</totfact>
</mgrwt>
</event>
<event>
 6    1  0.1661841E-002  0.9298593E+02  0.7546771E-02  0.1412320E+00
          2   -1    0    0  501    0  0.00000000000E+00  0.00000000000E+00  0.15814829686E+03  0.15814829686E+03  0.00000000000E+00 0. -1.
         -2   -1    0    0    0  501 -0.00000000000E+00 -0.00000000000E+00 -0.19068301648E+02  0.19068301648E+02  0.00000000000E+00 0.  1.
         23    2    1    2    0    0 -0.27862971578E+01  0.12530416968E+02  0.10222186642E+03  0.13818716782E+03  0.92095649061E+02 0.  0.
         11    1    3    3    0    0 -0.77539885934E+01  0.47671504103E+02  0.27778461743E+02  0.55716600573E+02  0.00000000000E+00 0.  1.
        -11    1    3    3    0    0  0.49676914356E+01 -0.35141087135E+02  0.74443404674E+02  0.82470567251E+02  0.00000000000E+00 0. -1.
         22    1    1    2    0    0  0.27862971578E+01 -0.12530416968E+02  0.36858128793E+02  0.39029430682E+02  0.00000000000E+00 0. -1.
<mgrwt>
<rscale>  0 0.56679274E+02</rscale>
<asrwt>0</asrwt>
<pdfrwt beam="1">  1        2 0.24330506E-01 0.92985931E+02</pdfrwt>
<pdfrwt beam="2">  1       -2 0.29335850E-02 0.92985931E+02</pdfrwt>
<totfact> 0.83388889E+04</totfact>
</mgrwt>
</event>
<event>
 6    1  0.1661841E-002  0.9250593E+02  0.7546771E-02  0.1420159E+00
          1   -1    0    0  501    0  0.00000000000E+00  0.00000000000E+00  0.49733659554E+03  0.49733659554E+03  0.00000000000E+00 0. -1.
         -1   -1    0    0    0  501 -0.00000000000E+00 -0.00000000000E+00 -0.54895949113E+01  0.54895949113E+01  0.00000000000E+00 0.  1.
         23    2    1    2    0    0  0.10874210394E+02 -0.38894142236E+01  0.45031809096E+03  0.45972136087E+03  0.91782191098E+02 0.  0.
         11    1    3    3    0    0 -0.19601259687E+02 -0.34843843069E+02  0.11827709930E+03  0.12485101121E+03  0.00000000000E+00 0. -1.
        -11    1    3    3    0    0  0.30475470081E+02  0.30954428845E+02  0.33204099166E+03  0.33487034966E+03  0.00000000000E+00 0.  1.
         22    1    1    2    0    0 -0.10874210394E+02  0.38894142236E+01  0.41528909671E+02  0.43104829581E+02  0.00000000000E+00 0.  1.
<mgrwt>
<rscale>  0 0.54987235E+02</rscale>
<asrwt>0</asrwt>
<pdfrwt beam="1">  1        1 0.76513287E-01 0.92505927E+02</pdfrwt>
<pdfrwt beam="2">  1       -1 0.84455345E-03 0.92505927E+02</pdfrwt>
<totfact> 0.95056625E+04</totfact>
</mgrwt>
</event>
<event>
 6    1  0.1661841E-002  0.9654616E+02  0.7546771E-02  0.1354810E+00
         -3   -1    0    0    0  501 -0.00000000000E+00  0.00000000000E+00  0.86288280262E+02  0.86288280262E+02  0.00000000000E+00 0.  1.
          3   -1    0    0  501    0  0.00000000000E+00 -0.00000000000E+00 -0.77814680391E+02  0.77814680391E+02  0.00000000000E+00 0. -1.
         23    2    1    2    0    0  0.27026697446E+02 -0.10967555306E+02  0.53557754859E+02  0.11040649266E+03  0.92034943751E+02 0.  0.
         13    1    3    3    0    0 -0.26925851356E+02  0.18954140585E+02  0.84919639083E+01  0.34005504960E+02  0.00000000000E+00 0. -1.
        -13    1    3    3    0    0  0.53952548802E+02 -0.29921695891E+02  0.45065790951E+02  0.76400987698E+02  0.00000000000E+00 0.  1.
         22    1    1    2    0    0 -0.27026697446E+02  0.10967555306E+02 -0.45084154987E+02  0.53696467995E+02  0.00000000000E+00 0. -1.
<mgrwt>
<rscale>  0 0.71577280E+02</rscale>
<asrwt>0</asrwt>
<pdfrwt beam="1">  1        3 0.11971489E-01 0.96546157E+02</pdfrwt>
<pdfrwt beam="2">  1       -3 0.13275120E-01 0.96546157E+02</pdfrwt>
<totfact> 0.52844477E+03</totfact>
</mgrwt>
</event>
<event>
 6    1  0.1661841E-002  0.9077403E+02  0.7546771E-02  0.1423093E+00
         -1   -1    0    0    0  501 -0.00000000000E+00  0.00000000000E+00  0.92674276717E+02  0.92674276717E+02  0.00000000000E+00 0.  1.
          1   -1    0    0  501    0  0.00000000000E+00 -0.00000000000E+00 -0.29800241978E+02  0.29800241978E+02  0.00000000000E+00 0. -1.
         23    2    1    2    0    0  0.96993658172E+01  0.65153681263E+01  0.63489474011E+02  0.11077381425E+03  0.90018869653E+02 0.  0.
         13    1    3    3    0    0 -0.26842389450E+02  0.24990782044E+01  0.68554576899E+02  0.73664708491E+02  0.00000000000E+00 0.  1.
        -13    1    3    3    0    0  0.36541755268E+02  0.40162899220E+01 -0.50651028879E+01  0.37109105756E+02  0.00000000000E+00 0. -1.
         22    1    1    2    0    0 -0.96993658172E+01 -0.65153681263E+01 -0.61543927230E+00  0.11700704448E+02  0.00000000000E+00 0. -1.
<mgrwt>
<rscale>  0 0.54371814E+02</rscale>
<asrwt>0</asrwt>
<pdfrwt beam="1">  1        1 0.45846527E-02 0.90774030E+02</pdfrwt>
<pdfrwt beam="2">  1       -1 0.14257581E-01 0.90774030E+02</pdfrwt>
<totfact> 0.56015068E+04</totfact>
</mgrwt>
</event>
<event>
 6    1  0.1661841E-002  0.9208896E+02  0.7546771E-02  0.1417972E+00
          1   -1    0    0  501    0  0.00000000000E+00  0.00000000000E+00  0.30835570789E+03  0.30835570789E+03  0.00000000000E+00 0. -1.
         -1   -1    0    0    0  501 -0.00000000000E+00 -0.00000000000E+00 -0.88319430438E+01  0.88319430438E+01  0.00000000000E+00 0.  1.
         23    2    1    2    0    0  0.12059870254E+02 -0.10739697271E+01  0.25842716794E+03  0.27434463331E+03  0.91289554808E+02 0.  0.
         13    1    3    3    0    0  0.35152228180E+02  0.13592960431E+01  0.24501854526E+03  0.24753103715E+03  0.00000000000E+00 0. -1.
        -13    1    3    3    0    0 -0.23092357925E+02 -0.24332657702E+01  0.13408622675E+02  0.26813596157E+02  0.00000000000E+00 0.  1.
         22    1    1    2    0    0 -0.12059870254E+02  0.10739697271E+01  0.41096596910E+02  0.42843017623E+02  0.00000000000E+00 0. -1.
<mgrwt>
<rscale>  0 0.55452376E+02</rscale>
<asrwt>0</asrwt>
<pdfrwt beam="1">  1        1 0.47439331E-01 0.92088961E+02</pdfrwt>
<pdfrwt beam="2">  1       -1 0.13587607E-02 0.92088961E+02</pdfrwt>
<totfact> 0.88004954E+04</totfact>
</mgrwt>
</event>
<event>
 6    1  0.1661841E-002  0.9433352E+02  0.7546771E-02  0.1372119E+00
          2   -1    0    0  501    0  0.00000000000E+00  0.00000000000E+00  0.19746675701E+02  0.19746675701E+02  0.00000000000E+00 0. -1.
         -2   -1    0    0    0  501 -0.00000000000E+00 -0.00000000000E+00 -0.17690325820E+03  0.17690325820E+03  0.00000000000E+00 0.  1.
         23    2    1    2    0    0 -0.23261949550E+02 -0.26357542672E+01 -0.13249580859E+03  0.16264670953E+03  0.91382423538E+02 0.  0.
         13    1    3    3    0    0 -0.26927604854E+02  0.40420590079E+02 -0.51147692758E+02  0.70533725834E+02  0.00000000000E+00 0. -1.
        -13    1    3    3    0    0  0.36656553043E+01 -0.43056344346E+02 -0.81348115830E+02  0.92112983701E+02  0.00000000000E+00 0.  1.
         22    1    1    2    0    0  0.23261949550E+02  0.26357542672E+01 -0.24660773914E+02  0.34003224369E+02  0.00000000000E+00 0.  1.
<mgrwt>
<rscale>  0 0.66581502E+02</rscale>
<asrwt>0</asrwt>
<pdfrwt beam="1">  1        2 0.30379500E-02 0.94333519E+02</pdfrwt>
<pdfrwt beam="2">  1       -2 0.27215886E-01 0.94333519E+02</pdfrwt>
<totfact> 0.32843690E+04</totfact>
</mgrwt>
</event>
<event>
 6    1  0.1661841E-002  0.9816785E+02  0.7546771E-02  0.1343487E+00
          4   -1    0    0  501    0  0.00000000000E+00  0.00000000000E+00  0.86405639840E+02  0.86405639840E+02  0.00000000000E+00 0.  1.
         -4   -1    0    0    0  501 -0.00000000000E+00 -0.00000000000E+00 -0.65597519866E+02  0.65597519866E+02  0.00000000000E+00 0. -1.
         23    2    1    2    0    0 -0.15811497700E+01 -0.33630254209E+02 -0.18871230520E+02  0.99965241912E+02  0.92214056501E+02 0.  0.
         13    1    3    3    0    0  0.84712601153E+01 -0.27748676041E+02 -0.54903280111E+02  0.62097676582E+02  0.00000000000E+00 0. -1.
        -13    1    3    3    0    0 -0.10052409885E+02 -0.58815781677E+01  0.36032049591E+02  0.37867565330E+02  0.00000000000E+00 0.  1.
         22    1    1    2    0    0  0.15811497700E+01  0.33630254209E+02  0.39679350494E+02  0.52037917794E+02  0.00000000000E+00 0. -1.
<mgrwt>
<rscale>  0 0.75124113E+02</rscale>
<asrwt>0</asrwt>
<pdfrwt beam="1">  1        4 0.13293175E-01 0.98167847E+02</pdfrwt>
<pdfrwt beam="2">  1       -4 0.10091926E-01 0.98167847E+02</pdfrwt>
<totfact> 0.52137430E+03</totfact>
</mgrwt>
</event>
<event>
 6    1  0.1661841E-002  0.9510476E+02  0.7546771E-02  0.1385341E+00
         -2   -1    0    0    0  501 -0.00000000000E+00  0.00000000000E+00  0.80303116926E+02  0.80303116926E+02  0.00000000000E+00 0.  1.
          2   -1    0    0  501    0  0.00000000000E+00 -0.00000000000E+00 -0.46274229481E+02  0.46274229481E+02  0.00000000000E+00 0. -1.
         23    2    1    2    0    0 -0.88576283918E+01 -0.16135236024E+02  0.44931214472E+02  0.10518425975E+03  0.93306543404E+02 0.  0.
         13    1    3    3    0    0  0.24819309423E+01  0.11250940086E+02 -0.25929465763E+02  0.28373946303E+02  0.00000000000E+00 0. -1.
        -13    1    3    3    0    0 -0.11339559334E+02 -0.27386176110E+02  0.70860680235E+02  0.76810313443E+02  0.00000000000E+00 0.  1.
         22    1    1    2    0    0  0.88576283918E+01  0.16135236024E+02 -0.10902327027E+02  0.21393086661E+02  0.00000000000E+00 0.  1.
<mgrwt>
<rscale>  0 0.63080503E+02</rscale>
<asrwt>0</asrwt>
<pdfrwt beam="1">  1        2 0.71191123E-02 0.95104755E+02</pdfrwt>
<pdfrwt beam="2">  1       -2 0.12354326E-01 0.95104755E+02</pdfrwt>
<totfact> 0.40553898E+04</totfact>
</mgrwt>
</event>
<event>
 6    1  0.1661841E-002  0.9269087E+02  0.7546771E-02  0.1398121E+00
          3   -1    0    0  501    0  0.00000000000E+00  0.00000000000E+00  0.70558945027E+02  0.70558945027E+02  0.00000000000E+00 0. -1.
         -3   -1    0    0    0  501 -0.00000000000E+00 -0.00000000000E+00 -0.45777803654E+02  0.45777803654E+02  0.00000000000E+00 0.  1.
         23    2    1    2    0    0  0.15423846063E+02 -0.49522343668E+01  0.80364808856E+01  0.93038609111E+02  0.91264330972E+02 0.  0.
         11    1    3    3    0    0 -0.79840123140E+01  0.30784054067E+02  0.31107431166E+02  0.44486792548E+02  0.00000000000E+00 0. -1.
        -11    1    3    3    0    0  0.23407858377E+02 -0.35736288434E+02 -0.23070950280E+02  0.48551816564E+02  0.00000000000E+00 0.  1.
         22    1    1    2    0    0 -0.15423846063E+02  0.49522343668E+01  0.16744660488E+02  0.23298139570E+02  0.00000000000E+00 0. -1.
<mgrwt>
<rscale>  0 0.59931103E+02</rscale>
<asrwt>0</asrwt>
<pdfrwt beam="1">  1        3 0.10855222E-01 0.92690872E+02</pdfrwt>
<pdfrwt beam="2">  1       -3 0.70427390E-02 0.92690872E+02</pdfrwt>
<totfact> 0.17359907E+04</totfact>
</mgrwt>
</event>
<event>
 6    1  0.1661841E-002  0.9661777E+02  0.7546771E-02  0.1345597E+00
          3   -1    0    0  501    0  0.00000000000E+00  0.00000000000E+00  0.95979202632E+01  0.95979202632E+01  0.00000000000E+00 0. -1.
         -3   -1    0    0    0  501 -0.00000000000E+00 -0.00000000000E+00 -0.60168711434E+03  0.60168711434E+03  0.00000000000E+00 0.  1.
         23    2    1    2    0    0 -0.34027175005E+02  0.13740779836E+01 -0.54306796199E+03  0.55159568945E+03  0.90417125336E+02 0.  0.
         13    1    3    3    0    0 -0.17244117184E+02  0.30605016171E+02 -0.80868479110E+02  0.88168801205E+02  0.00000000000E+00 0. -1.
        -13    1    3    3    0    0 -0.16783057821E+02 -0.29230938187E+02 -0.46219948288E+03  0.46342688825E+03  0.00000000000E+00 0.  1.
         22    1    1    2    0    0  0.34027175005E+02 -0.13740779836E+01 -0.49021232084E+02  0.59689345148E+02  0.00000000000E+00 0. -1.
<mgrwt>
<rscale>  0 0.74445368E+02</rscale>
<asrwt>0</asrwt>
<pdfrwt beam="1">  1        3 0.14766037E-02 0.96617769E+02</pdfrwt>
<pdfrwt beam="2">  1       -3 0.92567210E-01 0.96617769E+02</pdfrwt>
<totfact> 0.34913352E+03</totfact>
</mgrwt>
</event>
<event>
 6    1  0.1661841E-002  0.8962085E+02  0.7546771E-02  0.1390676E+00
          2   -1    0    0  501    0  0.00000000000E+00  0.00000000000E+00  0.76574795263E+02  0.76574795263E+02  0.00000000000E+00 0. -1.
         -2   -1    0    0    0  501 -0.00000000000E+00 -0.00000000000E+00 -0.50477684001E+02  0.50477684001E+02  0.00000000000E+00 0.  1.
         23    2    1    2    0    0 -0.16628806066E+02  0.11440008618E+02 -0.52442741040E+01  0.89774155468E+02  0.87318414958E+02 0.  0.
         13    1    3    3    0    0  0.33804522387E+02  0.11653274169E+02 -0.14343045417E+02  0.38526192187E+02  0.00000000000E+00 0.  1.
        -13    1    3    3    0    0 -0.50433328453E+02 -0.21326555094E+00  0.90987713126E+01  0.51247963281E+02  0.00000000000E+00 0. -1.
         22    1    1    2    0    0  0.16628806066E+02 -0.11440008618E+02  0.31341385366E+02  0.37278323796E+02  0.00000000000E+00 0. -1.
<mgrwt>
<rscale>  0 0.61738805E+02</rscale>
<asrwt>0</asrwt>
<pdfrwt beam="1">  1        2 0.11780738E-01 0.89620849E+02</pdfrwt>
<pdfrwt beam="2">  1       -2 0.77657975E-02 0.89620849E+02</pdfrwt>
<totfact> 0.44697689E+04</totfact>
</mgrwt>
</event>
<event>
 6    1  0.1661841E-002  0.1050139E+03  0.7546771E-02  0.1402624E+00
          2   -1    0    0  501    0  0.00000000000E+00  0.00000000000E+00  0.84956299438E+02  0.84956299438E+02  0.00000000000E+00 0. -1.
         -2   -1    0    0    0  501 -0.00000000000E+00 -0.00000000000E+00 -0.42139309266E+02  0.42139309266E+02  0.00000000000E+00 0.  1.
         23    2    1    2    0    0  0.88515431489E+00 -0.10335424239E+02  0.27427682794E+02  0.10853664122E+03  0.10450033594E+03 0.  0.
         11    1    3    3    0    0  0.14082182930E+02 -0.42830872600E+02  0.49610558133E+02  0.67037295605E+02  0.00000000000E+00 0.  1.
        -11    1    3    3    0    0 -0.13197028615E+02  0.32495448361E+02 -0.22182875339E+02  0.41499345619E+02  0.00000000000E+00 0. -1.
         22    1    1    2    0    0 -0.88515431489E+00  0.10335424239E+02  0.15389307377E+02  0.18558967480E+02  0.00000000000E+00 0. -1.
<mgrwt>
<rscale>  0 0.58872703E+02</rscale>
<asrwt>0</asrwt>
<pdfrwt beam="1">  1        2 0.13070200E-01 0.10501393E+03</pdfrwt>
<pdfrwt beam="2">  1       -2 0.64829707E-02 0.10501393E+03</pdfrwt>
<totfact> 0.53108780E+04</totfact>
</mgrwt>
</event>
<event>
 6    1  0.1661841E-002  0.9955667E+02  0.7546771E-02  0.1341980E+00
         -2   -1    0    0    0  501 -0.00000000000E+00  0.00000000000E+00  0.11333375826E+02  0.11333375826E+02  0.00000000000E+00 0.  1.
          2   -1    0    0  501    0  0.00000000000E+00 -0.00000000000E+00 -0.38891141550E+03  0.38891141550E+03  0.00000000000E+00 0. -1.
         23    2    1    2    0    0 -0.32477784918E+02  0.65337719845E+01 -0.27659671330E+03  0.29396814777E+03  0.93883083697E+02 0.  0.
         13    1    3    3    0    0  0.24654927647E+02  0.24253020113E+02 -0.59901417614E+02  0.69168303970E+02  0.00000000000E+00 0.  1.
        -13    1    3    3    0    0 -0.57132712565E+02 -0.17719248129E+02 -0.21669529569E+03  0.22479984380E+03  0.00000000000E+00 0. -1.
         22    1    1    2    0    0  0.32477784918E+02 -0.65337719845E+01 -0.10098132637E+03  0.10627664355E+03  0.00000000000E+00 0. -1.
<mgrwt>
<rscale>  0 0.75614166E+02</rscale>
<asrwt>0</asrwt>
<pdfrwt beam="1">  1        2 0.59832523E-01 0.99556668E+02</pdfrwt>
<pdfrwt beam="2">  1       -2 0.17435963E-02 0.99556668E+02</pdfrwt>
<totfact> 0.68728568E+04</totfact>
</mgrwt>
</event>
<event>
 6    1  0.1661841E-002  0.9274240E+02  0.7546771E-02  0.1428626E+00
         -2   -1    0    0    0  501 -0.00000000000E+00  0.00000000000E+00  0.43785048882E+02  0.43785048882E+02  0.00000000000E+00 0. -1.
          2   -1    0    0  501    0  0.00000000000E+00 -0.00000000000E+00 -0.61987184087E+02  0.61987184087E+02  0.00000000000E+00 0.  1.
         23    2    1    2    0    0  0.93101344765E+01 -0.38363987275E+01 -0.11000766111E+02  0.93392561083E+02  0.92194126990E+02 0.  0.
         13    1    3    3    0    0 -0.27335788915E+02  0.70821952558E+01 -0.37446571426E+02  0.46900411052E+02  0.00000000000E+00 0.  1.
        -13    1    3    3    0    0  0.36645923392E+02 -0.10918593983E+02  0.26445805315E+02  0.46492150031E+02  0.00000000000E+00 0. -1.
         22    1    1    2    0    0 -0.93101344765E+01  0.38363987275E+01 -0.72013690942E+01  0.12379671886E+02  0.00000000000E+00 0. -1.
<mgrwt>
<rscale>  0 0.53236766E+02</rscale>
<asrwt>0</asrwt>
<pdfrwt beam="1">  1        2 0.95364898E-02 0.92742405E+02</pdfrwt>
<pdfrwt beam="2">  1       -2 0.67361614E-02 0.92742405E+02</pdfrwt>
<totfact> 0.71896605E+04</totfact>
</mgrwt>
</event>
<event>
 6    1  0.1661841E-002  0.9128626E+02  0.7546771E-02  0.1413975E+00
         -2   -1    0    0    0  501 -0.00000000000E+00  0.00000000000E+00  0.13502617594E+03  0.13502617594E+03  0.00000000000E+00 0. -1.
          2   -1    0    0  501    0  0.00000000000E+00 -0.00000000000E+00 -0.20234538308E+02  0.20234538308E+02  0.00000000000E+00 0.  1.
         23    2    1    2    0    0  0.85938741248E+01  0.10049115577E+02  0.98968319064E+02  0.13463992845E+03  0.90323544873E+02 0.  0.
         11    1    3    3    0    0  0.30699094094E+02 -0.29729236302E+02  0.30800281808E+02  0.52677502112E+02  0.00000000000E+00 0. -1.
        -11    1    3    3    0    0 -0.22105219969E+02  0.39778351879E+02  0.68168037256E+02  0.81962426339E+02  0.00000000000E+00 0.  1.
         22    1    1    2    0    0 -0.85938741248E+01 -0.10049115577E+02  0.15823318568E+02  0.20620785797E+02  0.00000000000E+00 0. -1.
<mgrwt>
<rscale>  0 0.56316284E+02</rscale>
<asrwt>0</asrwt>
<pdfrwt beam="1">  1        2 0.31130060E-02 0.91286265E+02</pdfrwt>
<pdfrwt beam="2">  1       -2 0.20773257E-01 0.91286265E+02</pdfrwt>
<totfact> 0.50351076E+04</totfact>
</mgrwt>
</event>
<event>
 6    1  0.1661841E-002  0.9561012E+02  0.7546771E-02  0.1380662E+00
         -2   -1    0    0    0  501 -0.00000000000E+00  0.00000000000E+00  0.30305924318E+02  0.30305924318E+02  0.00000000000E+00 0.  1.
          2   -1    0    0  501    0  0.00000000000E+00 -0.00000000000E+00 -0.11897298540E+03  0.11897298540E+03  0.00000000000E+00 0. -1.
         23    2    1    2    0    0  0.13744920021E+02  0.13897427122E+02 -0.54868845835E+02  0.11023559197E+03  0.93590780456E+02 0.  0.
         13    1    3    3    0    0  0.11353101136E+02  0.53077415260E+02 -0.42942009790E+02  0.69210700913E+02  0.00000000000E+00 0. -1.
        -13    1    3    3    0    0  0.23918188854E+01 -0.39179988138E+02 -0.11926836046E+02  0.41024891056E+02  0.00000000000E+00 0.  1.
         22    1    1    2    0    0 -0.13744920021E+02 -0.13897427122E+02 -0.33798215244E+02  0.39043317747E+02  0.00000000000E+00 0. -1.
<mgrwt>
<rscale>  0 0.64290165E+02</rscale>
<asrwt>0</asrwt>
<pdfrwt beam="1">  1        2 0.18303536E-01 0.95610122E+02</pdfrwt>
<pdfrwt beam="2">  1       -2 0.46624499E-02 0.95610122E+02</pdfrwt>
<totfact> 0.58201553E+04</totfact>
</mgrwt>
</event>
<event>
 6    1  0.1661841E-002  0.9540837E+02  0.7546771E-02  0.1361621E+00
         -2   -1    0    0    0  501 -0.00000000000E+00  0.00000000000E+00  0.80746219665E+03  0.80746219665E+03  0.00000000000E+00 0. -1.
          2   -1    0    0  501    0  0.00000000000E+00 -0.00000000000E+00 -0.48230108032E+02  0.48230108032E+02  0.00000000000E+00 0.  1.
         23    2    1    2    0    0 -0.91584047892E+00 -0.26930631536E+02  0.80063131541E+03  0.80629601275E+03  0.91524091259E+02 0.  0.
         13    1    3    3    0    0  0.22750809701E+02 -0.26232512241E+02  0.74534063218E+03  0.74614904813E+03  0.00000000000E+00 0. -1.
        -13    1    3    3    0    0 -0.23666650180E+02 -0.69811929488E+00  0.55290683228E+02  0.60146964621E+02  0.00000000000E+00 0.  1.
         22    1    1    2    0    0  0.91584047892E+00  0.26930631536E+02 -0.41399226786E+02  0.49396291938E+02  0.00000000000E+00 0.  1.
<mgrwt>
<rscale>  0 0.69552739E+02</rscale>
<asrwt>0</asrwt>
<pdfrwt beam="1">  1        2 0.74200172E-02 0.95408369E+02</pdfrwt>
<pdfrwt beam="2">  1       -2 0.12422494E+00 0.95408369E+02</pdfrwt>
<totfact> 0.46470335E+02</totfact>
</mgrwt>
</event>
<event>
 6    1  0.1661841E-002  0.9552461E+02  0.7546771E-02  0.1353656E+00
         -2   -1    0    0    0  501 -0.00000000000E+00  0.00000000000E+00  0.33698427834E+02  0.33698427834E+02  0.00000000000E+00 0.  1.
          2   -1    0    0  501    0  0.00000000000E+00 -0.00000000000E+00 -0.12880963327E+03  0.12880963327E+03  0.00000000000E+00 0. -1.
         23    2    1    2    0    0  0.24314665967E+02  0.18755889388E+02 -0.49677082650E+02  0.10766969970E+03  0.90454216739E+02 0.  0.
         13    1    3    3    0    0  0.34397141401E+02  0.11863304618E+02 -0.72874823783E+02  0.81453307326E+02  0.00000000000E+00 0. -1.
        -13    1    3    3    0    0 -0.10082475434E+02  0.68925847708E+01  0.23197741132E+02  0.26216392378E+02  0.00000000000E+00 0.  1.
         22    1    1    2    0    0 -0.24314665967E+02 -0.18755889388E+02 -0.45434122789E+02  0.54838361404E+02  0.00000000000E+00 0. -1.
<mgrwt>
<rscale>  0 0.71928275E+02</rscale>
<asrwt>0</asrwt>
<pdfrwt beam="1">  1        2 0.19816867E-01 0.95524613E+02</pdfrwt>
<pdfrwt beam="2">  1       -2 0.51843735E-02 0.95524613E+02</pdfrwt>
<totfact> 0.45453538E+04</totfact>
</mgrwt>
</event>
<event>
 6    1  0.1661841E-002  0.9539620E+02  0.7546771E-02  0.1377350E+00
         -2   -1    0    0    0  501 -0.00000000000E+00  0.00000000000E+00  0.50823341014E+03  0.50823341014E+03  0.00000000000E+00 0.  1.
          2   -1    0    0  501    0  0.00000000000E+00 -0.00000000000E+00 -0.95475692911E+01  0.95475692911E+01  0.00000000000E+00 0. -1.
         23    2    1    2    0    0  0.18662536024E+02 -0.91204922666E+01  0.48138933710E+03  0.49075057670E+03  0.93107255498E+02 0.  0.
         13    1    3    3    0    0  0.45558425354E+02 -0.18869085448E+00  0.42697233933E+03  0.42939606924E+03  0.00000000000E+00 0.  1.
        -13    1    3    3    0    0 -0.26895889330E+02 -0.89318014121E+01  0.54416997773E+02  0.61354507462E+02  0.00000000000E+00 0. -1.
         22    1    1    2    0    0 -0.18662536024E+02  0.91204922666E+01  0.17296503753E+02  0.27030402736E+02  0.00000000000E+00 0. -1.
<mgrwt>
<rscale>  0 0.65165478E+02</rscale>
<asrwt>0</asrwt>
<pdfrwt beam="1">  1        2 0.14688572E-02 0.95396198E+02</pdfrwt>
<pdfrwt beam="2">  1       -2 0.78189735E-01 0.95396198E+02</pdfrwt>
<totfact> 0.11289426E+04</totfact>
</mgrwt>
</event>
<event>
 6    1  0.1661841E-002  0.9585706E+02  0.7546771E-02  0.1361246E+00
         -4   -1    0    0    0  501 -0.00000000000E+00  0.00000000000E+00  0.23144415027E+03  0.23144415027E+03  0.00000000000E+00 0.  1.
          4   -1    0    0  501    0  0.00000000000E+00 -0.00000000000E+00 -0.16239287893E+02  0.16239287893E+02  0.00000000000E+00 0. -1.
         23    2    1    2    0    0 -0.13158273541E+02  0.23275219874E+02  0.16646017818E+03  0.19208739280E+03  0.92052699743E+02 0.  0.
         13    1    3    3    0    0 -0.20305915393E+00  0.25105890979E+02 -0.71112131544E-02  0.25106713155E+02  0.00000000000E+00 0. -1.
        -13    1    3    3    0    0 -0.12955214387E+02 -0.18306711057E+01  0.16646728939E+03  0.16698067964E+03  0.00000000000E+00 0.  1.
         22    1    1    2    0    0  0.13158273541E+02 -0.23275219874E+02  0.48744684201E+02  0.55596045368E+02  0.00000000000E+00 0.  1.
<mgrwt>
<rscale>  0 0.69662156E+02</rscale>
<asrwt>0</asrwt>
<pdfrwt beam="1">  1        4 0.24983522E-02 0.95857058E+02</pdfrwt>
<pdfrwt beam="2">  1       -4 0.35606790E-01 0.95857058E+02</pdfrwt>
<totfact> 0.81484239E+03</totfact>
</mgrwt>
</event>
<event>
 6    1  0.1661841E-002  0.9317096E+02  0.7546771E-02  0.1394377E+00
          2   -1    0    0  501    0  0.00000000000E+00  0.00000000000E+00  0.85117760381E+02  0.85117760381E+02  0.00000000000E+00 0. -1.
         -2   -1    0    0    0  501 -0.00000000000E+00 -0.00000000000E+00 -0.35631626515E+02  0.35631626515E+02  0.00000000000E+00 0.  1.
         23    2    1    2    0    0 -0.14726749609E+02  0.83519259353E+01  0.40659005896E+02  0.10165619415E+03  0.91619840801E+02 0.  0.
         11    1    3    3    0    0 -0.48505098190E+02  0.17503306715E+02  0.42190054191E+02  0.66626653593E+02  0.00000000000E+00 0. -1.
        -11    1    3    3    0    0  0.33778348581E+02 -0.91513807799E+01 -0.15310482944E+01  0.35029540561E+02  0.00000000000E+00 0.  1.
         22    1    1    2    0    0  0.14726749609E+02 -0.83519259353E+01  0.88271279699E+01  0.19093192742E+02  0.00000000000E+00 0. -1.
<mgrwt>
<rscale>  0 0.60831141E+02</rscale>
<asrwt>0</asrwt>
<pdfrwt beam="1">  1        2 0.13095040E-01 0.93170956E+02</pdfrwt>
<pdfrwt beam="2">  1       -2 0.54817887E-02 0.93170956E+02</pdfrwt>
<totfact> 0.67063111E+04</totfact>
</mgrwt>
</event>
<event>
 6    1  0.1661841E-002  0.1171176E+03  0.7546771E-02  0.1333867E+00
          2   -1    0    0  501    0  0.00000000000E+00  0.00000000000E+00  0.21076645053E+03  0.21076645053E+03  0.00000000000E+00 0. -1.
         -2   -1    0    0    0  501 -0.00000000000E+00 -0.00000000000E+00 -0.27554066831E+02  0.27554066831E+02  0.00000000000E+00 0.  1.
         23    2    1    2    0    0 -0.22052130768E+02  0.79180469787E+01  0.10717356379E+03  0.15875360167E+03  0.11474990775E+03 0.  0.
         13    1    3    3    0    0 -0.38202906573E+02  0.32553708535E+02  0.11731335589E+03  0.12759948856E+03  0.00000000000E+00 0. -1.
        -13    1    3    3    0    0  0.16150775804E+02 -0.24635661557E+02 -0.10139792107E+02  0.31154113106E+02  0.00000000000E+00 0.  1.
         22    1    1    2    0    0  0.22052130768E+02 -0.79180469787E+01  0.76038819918E+02  0.79566915700E+02  0.00000000000E+00 0. -1.
<mgrwt>
<rscale>  0 0.78327160E+02</rscale>
<asrwt>0</asrwt>
<pdfrwt beam="1">  1        2 0.32425607E-01 0.11711760E+03</pdfrwt>
<pdfrwt beam="2">  1       -2 0.42390873E-02 0.11711760E+03</pdfrwt>
<totfact> 0.36693399E+04</totfact>
</mgrwt>
</event>
<event>
 6    1  0.1661841E-002  0.9245590E+02  0.7546771E-02  0.1408812E+00
         -3   -1    0    0    0  501 -0.00000000000E+00  0.00000000000E+00  0.44808674889E+02  0.44808674889E+02  0.00000000000E+00 0.  1.
          3   -1    0    0  501    0  0.00000000000E+00 -0.00000000000E+00 -0.76975558185E+02  0.76975558185E+02  0.00000000000E+00 0. -1.
         23    2    1    2    0    0  0.89132204220E+01  0.10525850379E+02 -0.65468429999E+01  0.92687403534E+02  0.91421302748E+02 0.  0.
         11    1    3    3    0    0 -0.30861945267E+02 -0.15574447321E+02 -0.23922715981E+02  0.42039498272E+02  0.00000000000E+00 0. -1.
        -11    1    3    3    0    0  0.39775165689E+02  0.26100297700E+02  0.17375872982E+02  0.50647905262E+02  0.00000000000E+00 0.  1.
         22    1    1    2    0    0 -0.89132204220E+01 -0.10525850379E+02 -0.25620040296E+02  0.29096829540E+02  0.00000000000E+00 0. -1.
<mgrwt>
<rscale>  0 0.57459710E+02</rscale>
<asrwt>0</asrwt>
<pdfrwt beam="1">  1        3 0.11842394E-01 0.92455901E+02</pdfrwt>
<pdfrwt beam="2">  1       -3 0.68936423E-02 0.92455901E+02</pdfrwt>
<totfact> 0.15545441E+04</totfact>
</mgrwt>
</event>
<event>
 6    1  0.1661841E-002  0.8438566E+02  0.7546771E-02  0.1438384E+00
         -2   -1    0    0    0  501 -0.00000000000E+00  0.00000000000E+00  0.13659249776E+03  0.13659249776E+03  0.00000000000E+00 0.  1.
          2   -1    0    0  501    0  0.00000000000E+00 -0.00000000000E+00 -0.17149820301E+02  0.17149820301E+02  0.00000000000E+00 0. -1.
         23    2    1    2    0    0 -0.10920355057E+02 -0.37231914819E+01  0.11105452093E+03  0.13947776481E+03  0.83593205160E+02 0.  0.
         11    1    3    3    0    0  0.14063441267E+02 -0.28583836806E+02  0.11499991724E+02  0.33868361586E+02  0.00000000000E+00 0. -1.
        -11    1    3    3    0    0 -0.24983796324E+02  0.24860645324E+02  0.99554529205E+02  0.10560940323E+03  0.00000000000E+00 0.  1.
         22    1    1    2    0    0  0.10920355057E+02  0.37231914819E+01  0.83881565269E+01  0.14264553246E+02  0.00000000000E+00 0. -1.
<mgrwt>
<rscale>  0 0.51313355E+02</rscale>
<asrwt>0</asrwt>
<pdfrwt beam="1">  1        2 0.26384340E-02 0.84385664E+02</pdfrwt>
<pdfrwt beam="2">  1       -2 0.21014230E-01 0.84385664E+02</pdfrwt>
<totfact> 0.60778798E+04</totfact>
</mgrwt>
</event>
<event>
 6    1  0.1661841E-002  0.9149642E+02  0.7546771E-02  0.1403353E+00
         -3   -1    0    0    0  501 -0.00000000000E+00  0.00000000000E+00  0.10064481496E+03  0.10064481496E+03  0.00000000000E+00 0.  1.
          3   -1    0    0  501    0  0.00000000000E+00 -0.00000000000E+00 -0.28467838385E+02  0.28467838385E+02  0.00000000000E+00 0. -1.
         23    2    1    2    0    0  0.13772815496E+02 -0.71197847151E+01  0.63128263712E+02  0.11116102430E+03  0.90173243606E+02 0.  0.
         13    1    3    3    0    0  0.31697818204E+02 -0.25142429227E+02 -0.27470460221E+01  0.40551691558E+02  0.00000000000E+00 0. -1.
        -13    1    3    3    0    0 -0.17925002709E+02  0.18022644511E+02  0.65875309734E+02  0.70609332739E+02  0.00000000000E+00 0.  1.
         22    1    1    2    0    0 -0.13772815496E+02  0.71197847151E+01  0.90487128643E+01  0.17951629051E+02  0.00000000000E+00 0.  1.
<mgrwt>
<rscale>  0 0.58703742E+02</rscale>
<asrwt>0</asrwt>
<pdfrwt beam="1">  1        3 0.43796675E-02 0.91496424E+02</pdfrwt>
<pdfrwt beam="2">  1       -3 0.15483818E-01 0.91496424E+02</pdfrwt>
<totfact> 0.20204960E+04</totfact>
</mgrwt>
</event>
<event>
 6    1  0.1661841E-002  0.9415967E+02  0.7546771E-02  0.1392972E+00
          2   -1    0    0  501    0  0.00000000000E+00  0.00000000000E+00  0.49188492103E+02  0.49188492103E+02  0.00000000000E+00 0.  1.
         -2   -1    0    0    0  501 -0.00000000000E+00 -0.00000000000E+00 -0.68816426811E+02  0.68816426811E+02  0.00000000000E+00 0. -1.
         23    2    1    2    0    0  0.11290477790E+02 -0.12406479974E+02 -0.29335592704E+02  0.98623632635E+02  0.92653377060E+02 0.  0.
         11    1    3    3    0    0  0.15638456319E+02  0.82031890470E+01 -0.59369297691E+02  0.61940028535E+02  0.00000000000E+00 0. -1.
        -11    1    3    3    0    0 -0.43479785281E+01 -0.20609669021E+02  0.30033704988E+02  0.36683604099E+02  0.00000000000E+00 0.  1.
         22    1    1    2    0    0 -0.11290477790E+02  0.12406479974E+02  0.97076579958E+01  0.19381286280E+02  0.00000000000E+00 0.  1.
<mgrwt>
<rscale>  0 0.61173506E+02</rscale>
<asrwt>0</asrwt>
<pdfrwt beam="1">  1        2 0.75674603E-02 0.94159672E+02</pdfrwt>
<pdfrwt beam="2">  1       -2 0.10587143E-01 0.94159672E+02</pdfrwt>
<totfact> 0.47847128E+04</totfact>
</mgrwt>
</event>
<event>
 6    1  0.1661841E-002  0.1006779E+03  0.7546771E-02  0.1326055E+00
          2   -1    0    0  501    0  0.00000000000E+00  0.00000000000E+00  0.15315020165E+04  0.15315020165E+04  0.00000000000E+00 0. -1.
         -2   -1    0    0    0  501 -0.00000000000E+00 -0.00000000000E+00 -0.40589815681E+01  0.40589815681E+01  0.00000000000E+00 0.  1.
         23    2    1    2    0    0  0.12129718086E+02  0.40543491845E+02  0.13206629441E+04  0.13244948692E+04  0.91351747779E+02 0.  0.
         11    1    3    3    0    0 -0.36827009028E+02  0.15283112429E+02  0.78363573038E+03  0.78464945042E+03  0.00000000000E+00 0. -1.
        -11    1    3    3    0    0  0.48956727114E+02  0.25260379416E+02  0.53702721372E+03  0.53984541877E+03  0.00000000000E+00 0.  1.
         22    1    1    2    0    0 -0.12129718086E+02 -0.40543491845E+02  0.20678009086E+03  0.21106612890E+03  0.00000000000E+00 0.  1.
<mgrwt>
<rscale>  0 0.81065261E+02</rscale>
<asrwt>0</asrwt>
<pdfrwt beam="1">  1        2 0.23561523E+00 0.10067794E+03</pdfrwt>
<pdfrwt beam="2">  1       -2 0.62445993E-03 0.10067794E+03</pdfrwt>
<totfact> 0.51193871E+04</totfact>
</mgrwt>
</event>
<event>
 6    1  0.1661841E-002  0.9116130E+02  0.7546771E-02  0.1383406E+00
          1   -1    0    0  501    0  0.00000000000E+00  0.00000000000E+00  0.20475182982E+03  0.20475182982E+03  0.00000000000E+00 0. -1.
         -1   -1    0    0    0  501 -0.00000000000E+00 -0.00000000000E+00 -0.17881448406E+02  0.17881448406E+02  0.00000000000E+00 0.  1.
         23    2    1    2    0    0 -0.17902568595E+02 -0.12024065365E+02  0.11036329088E+03  0.14314481987E+03  0.88573717157E+02 0.  0.
         13    1    3    3    0    0  0.79235110087E+01  0.24610929749E+02  0.20651464417E+01  0.25937322908E+02  0.00000000000E+00 0.  1.
        -13    1    3    3    0    0 -0.25826079603E+02 -0.36634995114E+02  0.10829814444E+03  0.11720749696E+03  0.00000000000E+00 0. -1.
         22    1    1    2    0    0  0.17902568595E+02  0.12024065365E+02  0.76507090534E+02  0.79488458358E+02  0.00000000000E+00 0. -1.
<mgrwt>
<rscale>  0 0.63576830E+02</rscale>
<asrwt>0</asrwt>
<pdfrwt beam="1">  1        1 0.31500280E-01 0.91161305E+02</pdfrwt>
<pdfrwt beam="2">  1       -1 0.27509922E-02 0.91161305E+02</pdfrwt>
<totfact> 0.52978887E+04</totfact>
</mgrwt>
</event>
<event>
 6    1  0.1661841E-002  0.9641211E+02  0.7546771E-02  0.1368851E+00
         -4   -1    0    0    0  501 -0.00000000000E+00  0.00000000000E+00  0.41415128930E+02  0.41415128930E+02  0.00000000000E+00 0.  1.
          4   -1    0    0  501    0  0.00000000000E+00 -0.00000000000E+00 -0.90862110806E+02  0.90862110806E+02  0.00000000000E+00 0. -1.
         23    2    1    2    0    0 -0.18981018077E+01 -0.23069552608E+02 -0.27207936224E+02  0.10017767277E+03  0.93592132574E+02 0.  0.
         13    1    3    3    0    0 -0.56705917324E+01  0.86800544373E+01  0.31590488167E+02  0.33248427004E+02  0.00000000000E+00 0.  1.
        -13    1    3    3    0    0  0.37724899247E+01 -0.31749607045E+02 -0.58798424391E+02  0.66929245765E+02  0.00000000000E+00 0. -1.
         22    1    1    2    0    0  0.18981018077E+01  0.23069552608E+02 -0.22239045651E+02  0.32099566967E+02  0.00000000000E+00 0. -1.
<mgrwt>
<rscale>  0 0.67487716E+02</rscale>
<asrwt>0</asrwt>
<pdfrwt beam="1">  1        4 0.13978786E-01 0.96412107E+02</pdfrwt>
<pdfrwt beam="2">  1       -4 0.63715583E-02 0.96412107E+02</pdfrwt>
<totfact> 0.10140865E+04</totfact>
</mgrwt>
</event>
<event>
 6    1  0.1661841E-002  0.9696851E+02  0.7546771E-02  0.1339899E+00
         -2   -1    0    0    0  501 -0.00000000000E+00  0.00000000000E+00  0.29286540240E+02  0.29286540240E+02  0.00000000000E+00 0.  1.
          2   -1    0    0  501    0  0.00000000000E+00 -0.00000000000E+00 -0.17658653192E+03  0.17658653192E+03  0.00000000000E+00 0. -1.
         23    2    1    2    0    0  0.30717182324E+01  0.37039156990E+02 -0.68423538992E+02  0.11867886712E+03  0.89563152077E+02 0.  0.
         13    1    3    3    0    0  0.90594806744E+01 -0.25182458929E+02 -0.44138324829E+02  0.51618040901E+02  0.00000000000E+00 0. -1.
        -13    1    3    3    0    0 -0.59877624420E+01  0.62221615919E+02 -0.24285214164E+02  0.67060826222E+02  0.00000000000E+00 0.  1.
         22    1    1    2    0    0 -0.30717182324E+01 -0.37039156990E+02 -0.78876452683E+02  0.87194205033E+02  0.00000000000E+00 0. -1.
<mgrwt>
<rscale>  0 0.76297519E+02</rscale>
<asrwt>0</asrwt>
<pdfrwt beam="1">  1        2 0.27167159E-01 0.96968515E+02</pdfrwt>
<pdfrwt beam="2">  1       -2 0.45056215E-02 0.96968515E+02</pdfrwt>
<totfact> 0.39642549E+04</totfact>
</mgrwt>
</event>
<event>
 6    1  0.1661841E-002  0.9413834E+02  0.7546771E-02  0.1385804E+00
          2   -1    0    0  501    0  0.00000000000E+00  0.00000000000E+00  0.43748226548E+03  0.43748226548E+03  0.00000000000E+00 0.  1.
         -2   -1    0    0    0  501 -0.00000000000E+00 -0.00000000000E+00 -0.73178275676E+01  0.73178275676E+01  0.00000000000E+00 0. -1.
         23    2    1    2    0    0 -0.41225753854E+01  0.18381059170E+02  0.34844923779E+03  0.36094168324E+03  0.92234312603E+02 0.  0.
         11    1    3    3    0    0 -0.11383479676E+02 -0.34484201221E+02  0.90173816751E+02  0.97211424075E+02  0.00000000000E+00 0. -1.
        -11    1    3    3    0    0  0.72609042901E+01  0.52865260391E+02  0.25827542104E+03  0.26373025917E+03  0.00000000000E+00 0.  1.
         22    1    1    2    0    0  0.41225753854E+01 -0.18381059170E+02  0.81715200126E+02  0.83858409809E+02  0.00000000000E+00 0. -1.
<mgrwt>
<rscale>  0 0.62962488E+02</rscale>
<asrwt>0</asrwt>
<pdfrwt beam="1">  1        2 0.67304943E-01 0.94138342E+02</pdfrwt>
<pdfrwt beam="2">  1       -2 0.11258200E-02 0.94138342E+02</pdfrwt>
<totfact> 0.11239968E+05</totfact>
</mgrwt>
</event>
<event>
 6    1  0.1661841E-002  0.9121690E+02  0.7546771E-02  0.1388026E+00
          2   -1    0    0  501    0  0.00000000000E+00  0.00000000000E+00  0.27412377750E+03  0.27412377750E+03  0.00000000000E+00 0. -1.
         -2   -1    0    0    0  501 -0.00000000000E+00 -0.00000000000E+00 -0.11320020102E+02  0.11320020102E+02  0.00000000000E+00 0.  1.
         23    2    1    2    0    0 -0.16348976530E+02  0.11479427137E+02  0.22210953735E+03  0.24011074315E+03  0.89002562386E+02 0.  0.
         13    1    3    3    0    0 -0.30387812081E+02 -0.29894855312E+02  0.14863822210E+03  0.15463001832E+03  0.00000000000E+00 0. -1.
        -13    1    3    3    0    0  0.14038835551E+02  0.41374282449E+02  0.73471315250E+02  0.85480724824E+02  0.00000000000E+00 0.  1.
         22    1    1    2    0    0  0.16348976530E+02 -0.11479427137E+02  0.40694220047E+02  0.45333054455E+02  0.00000000000E+00 0. -1.
<mgrwt>
<rscale>  0 0.62400361E+02</rscale>
<asrwt>0</asrwt>
<pdfrwt beam="1">  1        2 0.42172884E-01 0.91216898E+02</pdfrwt>
<pdfrwt beam="2">  1       -2 0.17415418E-02 0.91216898E+02</pdfrwt>
<totfact> 0.98120846E+04</totfact>
</mgrwt>
</event>
<event>
 6    1  0.1661841E-002  0.8634053E+02  0.7546771E-02  0.1420781E+00
         -2   -1    0    0    0  501 -0.00000000000E+00  0.00000000000E+00  0.13155225982E+03  0.13155225982E+03  0.00000000000E+00 0.  1.
          2   -1    0    0  501    0  0.00000000000E+00 -0.00000000000E+00 -0.19243439188E+02  0.19243439188E+02  0.00000000000E+00 0. -1.
         23    2    1    2    0    0  0.12491364298E+02 -0.64725627007E+01  0.92936294540E+02  0.12685362272E+03  0.85186609884E+02 0.  0.
         13    1    3    3    0    0  0.45997895626E+02 -0.10028274839E+02  0.75343405260E+02  0.88842565330E+02  0.00000000000E+00 0. -1.
        -13    1    3    3    0    0 -0.33506531327E+02  0.35557121385E+01  0.17592889281E+02  0.38011057387E+02  0.00000000000E+00 0.  1.
         22    1    1    2    0    0 -0.12491364298E+02  0.64725627007E+01  0.19372526088E+02  0.23942076288E+02  0.00000000000E+00 0.  1.
<mgrwt>
<rscale>  0 0.54856046E+02</rscale>
<asrwt>0</asrwt>
<pdfrwt beam="1">  1        2 0.29605292E-02 0.86340528E+02</pdfrwt>
<pdfrwt beam="2">  1       -2 0.20238809E-01 0.86340528E+02</pdfrwt>
<totfact> 0.55751964E+04</totfact>
</mgrwt>
</event>
<event>
 6    1  0.1661841E-002  0.8965587E+02  0.7546771E-02  0.1381582E+00
          2   -1    0    0  501    0  0.00000000000E+00  0.00000000000E+00  0.40093243535E+01  0.40093243535E+01  0.00000000000E+00 0. -1.
         -2   -1    0    0    0  501 -0.00000000000E+00 -0.00000000000E+00 -0.80717204169E+03  0.80717204169E+03  0.00000000000E+00 0.  1.
         23    2    1    2    0    0  0.21720190222E+02  0.85770739303E+01 -0.67224077638E+03  0.67819306774E+03  0.86561208686E+02 0.  0.
         13    1    3    3    0    0  0.49022284318E+02  0.71435686372E+01 -0.23846146411E+03  0.24355304309E+03  0.00000000000E+00 0. -1.
        -13    1    3    3    0    0 -0.27302094096E+02  0.14335052930E+01 -0.43377931227E+03  0.43464002465E+03  0.00000000000E+00 0.  1.
         22    1    1    2    0    0 -0.21720190222E+02 -0.85770739303E+01 -0.13092194096E+03  0.13298829830E+03  0.00000000000E+00 0.  1.
<mgrwt>
<rscale>  0 0.64049651E+02</rscale>
<asrwt>0</asrwt>
<pdfrwt beam="1">  1        2 0.61681839E-03 0.89655874E+02</pdfrwt>
<pdfrwt beam="2">  1       -2 0.12418046E+00 0.89655874E+02</pdfrwt>
<totfact> 0.12808080E+04</totfact>
</mgrwt>
</event>
<event>
 6    1  0.1661841E-002  0.1063690E+03  0.7546771E-02  0.1301948E+00
         -4   -1    0    0    0  501 -0.00000000000E+00  0.00000000000E+00  0.18211956093E+03  0.18211956093E+03  0.00000000000E+00 0. -1.
          4   -1    0    0  501    0  0.00000000000E+00 -0.00000000000E+00 -0.64624421968E+02  0.64624421968E+02  0.00000000000E+00 0.  1.
         23    2    1    2    0    0  0.55211224541E+02  0.48974105262E+01  0.14893575986E+03  0.18301975997E+03  0.90786056352E+02 0.  0.
         11    1    3    3    0    0  0.20578449063E+02  0.28093310712E+02  0.13445730955E+03  0.13889375351E+03  0.00000000000E+00 0. -1.
        -11    1    3    3    0    0  0.34632775478E+02 -0.23195900186E+02  0.14478450315E+02  0.44126006462E+02  0.00000000000E+00 0.  1.
         22    1    1    2    0    0 -0.55211224541E+02 -0.48974105262E+01 -0.31440620901E+02  0.63724222928E+02  0.00000000000E+00 0.  1.
<mgrwt>
<rscale>  0 0.90374048E+02</rscale>
<asrwt>0</asrwt>
<pdfrwt beam="1">  1        4 0.99422188E-02 0.10636904E+03</pdfrwt>
<pdfrwt beam="2">  1       -4 0.28018394E-01 0.10636904E+03</pdfrwt>
<totfact> 0.14440204E+03</totfact>
</mgrwt>
</event>
<event>
 6    1  0.1661841E-002  0.9203457E+02  0.7546771E-02  0.1398213E+00
         -2   -1    0    0    0  501 -0.00000000000E+00  0.00000000000E+00  0.39573809037E+02  0.39573809037E+02  0.00000000000E+00 0.  1.
          2   -1    0    0  501    0  0.00000000000E+00 -0.00000000000E+00 -0.87429103280E+02  0.87429103280E+02  0.00000000000E+00 0. -1.
         23    2    1    2    0    0  0.12574973222E+02 -0.10720169860E+02 -0.19338328767E+02  0.94044312327E+02  0.90538995622E+02 0.  0.
         11    1    3    3    0    0  0.42682487513E+02 -0.26663263670E+02  0.72276154453E+01  0.50842529391E+02  0.00000000000E+00 0.  1.
        -11    1    3    3    0    0 -0.30107514291E+02  0.15943093809E+02 -0.26565944212E+02  0.43201782937E+02  0.00000000000E+00 0. -1.
         22    1    1    2    0    0 -0.12574973222E+02  0.10720169860E+02 -0.28516965476E+02  0.32958599990E+02  0.00000000000E+00 0. -1.
<mgrwt>
<rscale>  0 0.59909253E+02</rscale>
<asrwt>0</asrwt>
<pdfrwt beam="1">  1        2 0.13450631E-01 0.92034568E+02</pdfrwt>
<pdfrwt beam="2">  1       -2 0.60882783E-02 0.92034568E+02</pdfrwt>
<totfact> 0.55439361E+04</totfact>
</mgrwt>
</event>
<event>
 6    1  0.1661841E-002  0.9811789E+02  0.7546771E-02  0.1344065E+00
         -2   -1    0    0    0  501 -0.00000000000E+00  0.00000000000E+00  0.32201403290E+02  0.32201403290E+02  0.00000000000E+00 0.  1.
          2   -1    0    0  501    0  0.00000000000E+00 -0.00000000000E+00 -0.20097577710E+03  0.20097577710E+03  0.00000000000E+00 0. -1.
         23    2    1    2    0    0 -0.33360942364E+02 -0.12689321904E+01 -0.50638422208E+02  0.11041454061E+03  0.92263526436E+02 0.  0.
         13    1    3    3    0    0 -0.21246484668E+02 -0.17615253220E+02 -0.74269280709E+02  0.79231536106E+02  0.00000000000E+00 0. -1.
        -13    1    3    3    0    0 -0.12114457696E+02  0.16346321029E+02  0.23630858501E+02  0.31183004505E+02  0.00000000000E+00 0.  1.
         22    1    1    2    0    0  0.33360942364E+02  0.12689321904E+01 -0.11813595161E+03  0.12276263978E+03  0.00000000000E+00 0. -1.
<mgrwt>
<rscale>  0 0.74937504E+02</rscale>
<asrwt>0</asrwt>
<pdfrwt beam="1">  1        2 0.30919350E-01 0.98117893E+02</pdfrwt>
<pdfrwt beam="2">  1       -2 0.49540621E-02 0.98117893E+02</pdfrwt>
<totfact> 0.30005986E+04</totfact>
</mgrwt>
</event>
<event>
 6    1  0.1661841E-002  0.9372590E+02  0.7546771E-02  0.1377726E+00
         -2   -1    0    0    0  501 -0.00000000000E+00  0.00000000000E+00  0.43045399518E+02  0.43045399518E+02  0.00000000000E+00 0.  1.
          2   -1    0    0  501    0  0.00000000000E+00 -0.00000000000E+00 -0.11977977246E+03  0.11977977246E+03  0.00000000000E+00 0. -1.
         23    2    1    2    0    0 -0.96216469455E+01  0.19526086987E+02 -0.11953839464E+02  0.94485127489E+02  0.91163045560E+02 0.  0.
         11    1    3    3    0    0  0.98525699557E+01  0.41267363882E+02 -0.36793071963E+02  0.56158691233E+02  0.00000000000E+00 0. -1.
        -11    1    3    3    0    0 -0.19474216901E+02 -0.21741276895E+02  0.24839232499E+02  0.38326436256E+02  0.00000000000E+00 0.  1.
         22    1    1    2    0    0  0.96216469455E+01 -0.19526086987E+02 -0.64780533474E+02  0.68340044485E+02  0.00000000000E+00 0. -1.
<mgrwt>
<rscale>  0 0.65065260E+02</rscale>
<asrwt>0</asrwt>
<pdfrwt beam="1">  1        2 0.18427657E-01 0.93725904E+02</pdfrwt>
<pdfrwt beam="2">  1       -2 0.66223692E-02 0.93725904E+02</pdfrwt>
<totfact> 0.34082108E+04</totfact>
</mgrwt>
</event>
<event>
 6    1  0.1661841E-002  0.9219660E+02  0.7546771E-02  0.1378406E+00
          2   -1    0    0  501    0  0.00000000000E+00  0.00000000000E+00  0.51893097512E+03  0.51893097512E+03  0.00000000000E+00 0. -1.
         -2   -1    0    0    0  501 -0.00000000000E+00 -0.00000000000E+00 -0.63680171950E+01  0.63680171950E+01  0.00000000000E+00 0.  1.
         23    2    1    2    0    0 -0.84193898204E+01 -0.20990698599E+02  0.42212015061E+03  0.43207133039E+03  0.89379625434E+02 0.  0.
         11    1    3    3    0    0  0.68482164987E+00  0.14544726818E+02  0.35725750134E+03  0.35755410825E+03  0.00000000000E+00 0. -1.
        -11    1    3    3    0    0 -0.91042114702E+01 -0.35535425417E+02  0.64862649263E+02  0.74517222140E+02  0.00000000000E+00 0.  1.
         22    1    1    2    0    0  0.84193898204E+01  0.20990698599E+02  0.90442807316E+02  0.93227661924E+02  0.00000000000E+00 0.  1.
<mgrwt>
<rscale>  0 0.64884567E+02</rscale>
<asrwt>0</asrwt>
<pdfrwt beam="1">  1        2 0.79835501E-01 0.92196600E+02</pdfrwt>
<pdfrwt beam="2">  1       -2 0.97969537E-03 0.92196600E+02</pdfrwt>
<totfact> 0.11359402E+05</totfact>
</mgrwt>
</event>
<event>
 6    1  0.1661841E-002  0.9008886E+02  0.7546771E-02  0.1424429E+00
          2   -1    0    0  501    0  0.00000000000E+00  0.00000000000E+00  0.94937227826E+01  0.94937227826E+01  0.00000000000E+00 0. -1.
         -2   -1    0    0    0  501 -0.00000000000E+00 -0.00000000000E+00 -0.57279545801E+03  0.57279545801E+03  0.00000000000E+00 0.  1.
         23    2    1    2    0    0  0.41123178631E+01 -0.10965707126E+02 -0.56342015352E+03  0.57057713939E+03  0.89324379178E+02 0.  0.
         13    1    3    3    0    0  0.41531059027E+02  0.13507164044E+02 -0.33376727237E+03  0.33661233555E+03  0.00000000000E+00 0.  1.
        -13    1    3    3    0    0 -0.37418741164E+02 -0.24472871170E+02 -0.22965288115E+03  0.23396480384E+03  0.00000000000E+00 0. -1.
         22    1    1    2    0    0 -0.41123178631E+01  0.10965707126E+02  0.11841828615E+00  0.11712041405E+02  0.00000000000E+00 0. -1.
<mgrwt>
<rscale>  0 0.54094849E+02</rscale>
<asrwt>0</asrwt>
<pdfrwt beam="1">  1        2 0.14605726E-02 0.90088860E+02</pdfrwt>
<pdfrwt beam="2">  1       -2 0.88122385E-01 0.90088860E+02</pdfrwt>
<totfact> 0.86946961E+03</totfact>
</mgrwt>
</event>
<event>
 6    1  0.1661841E-002  0.1027078E+03  0.7546771E-02  0.1377033E+00
          2   -1    0    0  501    0  0.00000000000E+00  0.00000000000E+00  0.57557888422E+01  0.57557888422E+01  0.00000000000E+00 0. -1.
         -2   -1    0    0    0  501 -0.00000000000E+00 -0.00000000000E+00 -0.62661238497E+03  0.62661238497E+03  0.00000000000E+00 0.  1.
         23    2    1    2    0    0  0.92284201011E+00  0.16705381020E+02 -0.55471815128E+03  0.56414636440E+03  0.10133593497E+03 0.  0.
         11    1    3    3    0    0  0.38160919802E+02  0.27070318662E+01 -0.90862890249E+02  0.98588278442E+02  0.00000000000E+00 0. -1.
        -11    1    3    3    0    0 -0.37238077792E+02  0.13998349154E+02 -0.46385526103E+03  0.46555808596E+03  0.00000000000E+00 0.  1.
         22    1    1    2    0    0 -0.92284201011E+00 -0.16705381020E+02 -0.66138444850E+02  0.68221809413E+02  0.00000000000E+00 0.  1.
<mgrwt>
<rscale>  0 0.65250237E+02</rscale>
<asrwt>0</asrwt>
<pdfrwt beam="1">  1        2 0.88550606E-03 0.10270780E+03</pdfrwt>
<pdfrwt beam="2">  1       -2 0.96401896E-01 0.10270780E+03</pdfrwt>
<totfact> 0.14335294E+04</totfact>
</mgrwt>
</event>
<event>
 6    1  0.1661841E-002  0.9356240E+02  0.7546771E-02  0.1379137E+00
         -4   -1    0    0    0  501 -0.00000000000E+00  0.00000000000E+00  0.45787111939E+03  0.45787111939E+03  0.00000000000E+00 0.  1.
          4   -1    0    0  501    0  0.00000000000E+00 -0.00000000000E+00 -0.76178697957E+01  0.76178697957E+01  0.00000000000E+00 0. -1.
         23    2    1    2    0    0 -0.76608173735E+01 -0.19963963300E+02  0.40141473667E+03  0.41217437301E+03  0.91086085630E+02 0.  0.
         11    1    3    3    0    0 -0.32739612481E+02 -0.11625403331E+02  0.57044729109E+02  0.66791716156E+02  0.00000000000E+00 0. -1.
        -11    1    3    3    0    0  0.25078795108E+02 -0.83385599690E+01  0.34437000756E+03  0.34538265685E+03  0.00000000000E+00 0.  1.
         22    1    1    2    0    0  0.76608173735E+01  0.19963963300E+02  0.48838512921E+02  0.53314616174E+02  0.00000000000E+00 0. -1.
<mgrwt>
<rscale>  0 0.64691168E+02</rscale>
<asrwt>0</asrwt>
<pdfrwt beam="1">  1        4 0.11719803E-02 0.93562401E+02</pdfrwt>
<pdfrwt beam="2">  1       -4 0.70441689E-01 0.93562401E+02</pdfrwt>
<totfact> 0.64276984E+03</totfact>
</mgrwt>
</event>
<event>
 6    1  0.1661841E-002  0.9990841E+02  0.7546771E-02  0.1337617E+00
         -2   -1    0    0    0  501 -0.00000000000E+00  0.00000000000E+00  0.53219262588E+01  0.53219262588E+01  0.00000000000E+00 0.  1.
          2   -1    0    0  501    0  0.00000000000E+00 -0.00000000000E+00 -0.86685760545E+03  0.86685760545E+03  0.00000000000E+00 0. -1.
         23    2    1    2    0    0  0.31840374737E+02 -0.15365700816E+02 -0.67004185314E+03  0.67744946305E+03  0.93443971446E+02 0.  0.
         13    1    3    3    0    0  0.20404596876E+00  0.25437198325E+02 -0.59257516302E+02  0.64486788815E+02  0.00000000000E+00 0.  1.
        -13    1    3    3    0    0  0.31636328768E+02 -0.40802899141E+02 -0.61078433684E+03  0.61296267424E+03  0.00000000000E+00 0. -1.
         22    1    1    2    0    0 -0.31840374737E+02  0.15365700816E+02 -0.19149382605E+03  0.19473006866E+03  0.00000000000E+00 0.  1.
<mgrwt>
<rscale>  0 0.77056904E+02</rscale>
<asrwt>0</asrwt>
<pdfrwt beam="1">  1        2 0.13336273E+00 0.99908408E+02</pdfrwt>
<pdfrwt beam="2">  1       -2 0.81875775E-03 0.99908408E+02</pdfrwt>
<totfact> 0.81539061E+04</totfact>
</mgrwt>
</event>
<event>
 6    1  0.1661841E-002  0.1014024E+03  0.7546771E-02  0.1324566E+00
         -2   -1    0    0    0  501 -0.00000000000E+00  0.00000000000E+00  0.19713530981E+03  0.19713530981E+03  0.00000000000E+00 0.  1.
          2   -1    0    0  501    0  0.00000000000E+00 -0.00000000000E+00 -0.35571201539E+02  0.35571201539E+02  0.00000000000E+00 0. -1.
         23    2    1    2    0    0  0.12316018264E+02  0.40703906896E+02  0.16088495684E+03  0.19017471631E+03  0.92054120195E+02 0.  0.
         11    1    3    3    0    0  0.41064302624E+02  0.31179361337E+02  0.39177135333E+02  0.64755520662E+02  0.00000000000E+00 0. -1.
        -11    1    3    3    0    0 -0.28748284360E+02  0.95245455595E+01  0.12170782150E+03  0.12541919565E+03  0.00000000000E+00 0.  1.
         22    1    1    2    0    0 -0.12316018264E+02 -0.40703906896E+02  0.67915143447E+00  0.42531795038E+02  0.00000000000E+00 0. -1.
<mgrwt>
<rscale>  0 0.81602012E+02</rscale>
<asrwt>0</asrwt>
<pdfrwt beam="1">  1        2 0.54724927E-02 0.10140243E+03</pdfrwt>
<pdfrwt beam="2">  1       -2 0.30328509E-01 0.10140243E+03</pdfrwt>
<totfact> 0.12656770E+04</totfact>
</mgrwt>
</event>
<event>
 6    1  0.1661841E-002  0.9703450E+02  0.7546771E-02  0.1341534E+00
          2   -1    0    0  501    0  0.00000000000E+00  0.00000000000E+00  0.20564704086E+03  0.20564704086E+03  0.00000000000E+00 0. -1.
         -2   -1    0    0    0  501 -0.00000000000E+00 -0.00000000000E+00 -0.30385588268E+02  0.30385588268E+02  0.00000000000E+00 0.  1.
         23    2    1    2    0    0  0.16735821638E+02  0.31936354884E+02  0.57313240646E+02  0.11269650632E+03  0.90087049531E+02 0.  0.
         11    1    3    3    0    0 -0.31537016160E+02  0.36391818128E+02  0.33679410344E+02  0.58764364168E+02  0.00000000000E+00 0.  1.
        -11    1    3    3    0    0  0.48272837799E+02 -0.44554632436E+01  0.23633830302E+02  0.53932142147E+02  0.00000000000E+00 0. -1.
         22    1    1    2    0    0 -0.16735821638E+02 -0.31936354884E+02  0.11794821195E+03  0.12333612281E+03  0.00000000000E+00 0. -1.
<mgrwt>
<rscale>  0 0.75759715E+02</rscale>
<asrwt>0</asrwt>
<pdfrwt beam="1">  1        2 0.31638005E-01 0.97034504E+02</pdfrwt>
<pdfrwt beam="2">  1       -2 0.46747060E-02 0.97034504E+02</pdfrwt>
<totfact> 0.31874096E+04</totfact>
</mgrwt>
</event>
<event>
 6    1  0.2054368E-002  0.7818304E+02  0.7546771E-02  0.1460992E+00
          2   -1    0    0  501    0  0.00000000000E+00  0.00000000000E+00  0.44755804832E+02  0.44755804832E+02  0.00000000000E+00 0. -1.
         -2   -1    0    0    0  501 -0.00000000000E+00 -0.00000000000E+00 -0.15631615335E+03  0.15631615335E+03  0.00000000000E+00 0.  1.
         23    2    1    2    0    0 -0.10265389874E+02 -0.16383300569E+01 -0.14571814798E+03  0.16536736997E+03  0.77488876927E+02 0.  0.
         13    1    3    3    0    0  0.21631835136E+01  0.36786564909E+02 -0.82428812477E+02  0.90290862479E+02  0.00000000000E+00 0. -1.
        -13    1    3    3    0    0 -0.12428573388E+02 -0.38424894966E+02 -0.63289335500E+02  0.75076507495E+02  0.00000000000E+00 0.  1.
         22    1    1    2    0    0  0.10265389874E+02  0.16383300569E+01  0.34157799464E+02  0.35704588204E+02  0.00000000000E+00 0. -1.
<mgrwt>
<rscale>  0 0.47211058E+02</rscale>
<asrwt>0</asrwt>
<pdfrwt beam="1">  1        2 0.68855084E-02 0.78183044E+02</pdfrwt>
<pdfrwt beam="2">  1       -2 0.24048639E-01 0.78183044E+02</pdfrwt>
<totfact> 0.13796278E+04</totfact>
</mgrwt>
</event>
<event>
 6    1  0.1661841E-002  0.9913007E+02  0.7546771E-02  0.1334247E+00
          2   -1    0    0  501    0  0.00000000000E+00  0.00000000000E+00  0.56093810622E+03  0.56093810622E+03  0.00000000000E+00 0. -1.
         -2   -1    0    0    0  501 -0.00000000000E+00 -0.00000000000E+00 -0.97681506671E+01  0.97681506671E+01  0.00000000000E+00 0.  1.
         23    2    1    2    0    0 -0.17639666183E+02  0.34090396439E+02  0.47701202977E+03  0.48720349700E+03  0.91397253734E+02 0.  0.
         13    1    3    3    0    0  0.11804787141E+02  0.57453208234E+02  0.23066087111E+03  0.23800138991E+03  0.00000000000E+00 0.  1.
        -13    1    3    3    0    0 -0.29444453324E+02 -0.23362811794E+02  0.24635115866E+03  0.24920210710E+03  0.00000000000E+00 0. -1.
         22    1    1    2    0    0  0.17639666183E+02 -0.34090396439E+02  0.74157925776E+02  0.83502759881E+02  0.00000000000E+00 0. -1.
<mgrwt>
<rscale>  0 0.78197152E+02</rscale>
<asrwt>0</asrwt>
<pdfrwt beam="1">  1        2 0.86298145E-01 0.99130071E+02</pdfrwt>
<pdfrwt beam="2">  1       -2 0.15027928E-02 0.99130071E+02</pdfrwt>
<totfact> 0.57304038E+04</totfact>
</mgrwt>
</event>
<event>
 6    1  0.1661841E-002  0.1059939E+03  0.7546771E-02  0.1296217E+00
          2   -1    0    0  501    0  0.00000000000E+00  0.00000000000E+00  0.30476935242E+03  0.30476935242E+03  0.00000000000E+00 0. -1.
         -2   -1    0    0    0  501 -0.00000000000E+00 -0.00000000000E+00 -0.31949393972E+02  0.31949393972E+02  0.00000000000E+00 0.  1.
         23    2    1    2    0    0  0.96676064531E+01  0.61515630361E+02  0.76384520825E+02  0.13064954309E+03  0.85773379879E+02 0.  0.
         13    1    3    3    0    0 -0.15316991374E+00 -0.33038173648E+01  0.63809579455E+02  0.63895235350E+02  0.00000000000E+00 0. -1.
        -13    1    3    3    0    0  0.98207763668E+01  0.64819447726E+02  0.12574941370E+02  0.66754307744E+02  0.00000000000E+00 0.  1.
         22    1    1    2    0    0 -0.96676064531E+01 -0.61515630361E+02  0.19643543763E+03  0.20606920330E+03  0.00000000000E+00 0. -1.
<mgrwt>
<rscale>  0 0.92796489E+02</rscale>
<asrwt>0</asrwt>
<pdfrwt beam="1">  1        2 0.46887591E-01 0.10599391E+03</pdfrwt>
<pdfrwt beam="2">  1       -2 0.49152916E-02 0.10599391E+03</pdfrwt>
<totfact> 0.19714589E+04</totfact>
</mgrwt>
</event>
<event>
 6    1  0.1661841E-002  0.9447885E+02  0.7546771E-02  0.1375672E+00
         -2   -1    0    0    0  501 -0.00000000000E+00  0.00000000000E+00  0.23529774641E+03  0.23529774641E+03  0.00000000000E+00 0.  1.
          2   -1    0    0  501    0  0.00000000000E+00 -0.00000000000E+00 -0.15081486217E+02  0.15081486217E+02  0.00000000000E+00 0. -1.
         23    2    1    2    0    0  0.43404939396E+00 -0.21975022353E+02  0.19656529913E+03  0.21809211499E+03  0.91886689957E+02 0.  0.
         13    1    3    3    0    0 -0.15045364413E+02 -0.32383156689E+02  0.19621295984E+03  0.19943559722E+03  0.00000000000E+00 0.  1.
        -13    1    3    3    0    0  0.15479413807E+02  0.10408134335E+02  0.35233928288E+00  0.18656517765E+02  0.00000000000E+00 0. -1.
         22    1    1    2    0    0 -0.43404939396E+00  0.21975022353E+02  0.23650961064E+02  0.32287117641E+02  0.00000000000E+00 0.  1.
<mgrwt>
<rscale>  0 0.65615202E+02</rscale>
<asrwt>0</asrwt>
<pdfrwt beam="1">  1        2 0.23202288E-02 0.94478854E+02</pdfrwt>
<pdfrwt beam="2">  1       -2 0.36199651E-01 0.94478854E+02</pdfrwt>
<totfact> 0.28197204E+04</totfact>
</mgrwt>
</event>
<event>
 6    1  0.1661841E-002  0.9167379E+02  0.7546771E-02  0.1427628E+00
          4   -1    0    0  501    0  0.00000000000E+00  0.00000000000E+00  0.26512239020E+02  0.26512239020E+02  0.00000000000E+00 0.  1.
         -4   -1    0    0    0  501 -0.00000000000E+00 -0.00000000000E+00 -0.10075365651E+03  0.10075365651E+03  0.00000000000E+00 0. -1.
         23    2    1    2    0    0  0.46880071101E+01 -0.94904736386E+01 -0.71692166737E+02  0.11637805001E+03  0.91060624052E+02 0.  0.
         11    1    3    3    0    0  0.55295768189E+01  0.30630616450E+02 -0.69542784616E+02  0.76190614751E+02  0.00000000000E+00 0. -1.
        -11    1    3    3    0    0 -0.84156970881E+00 -0.40121090088E+02 -0.21493821209E+01  0.40187435262E+02  0.00000000000E+00 0.  1.
         22    1    1    2    0    0 -0.46880071101E+01  0.94904736386E+01 -0.25492507503E+01  0.10887845514E+02  0.00000000000E+00 0. -1.
<mgrwt>
<rscale>  0 0.53439044E+02</rscale>
<asrwt>0</asrwt>
<pdfrwt beam="1">  1        4 0.40788060E-02 0.91673790E+02</pdfrwt>
<pdfrwt beam="2">  1       -4 0.15500563E-01 0.91673790E+02</pdfrwt>
<totfact> 0.17033587E+04</totfact>
</mgrwt>
</event>
<event>
 6    1  0.1661841E-002  0.1068079E+03  0.7546771E-02  0.1346262E+00
         -3   -1    0    0    0  501 -0.00000000000E+00  0.00000000000E+00  0.87232186303E+02  0.87232186303E+02  0.00000000000E+00 0.  1.
          3   -1    0    0  501    0  0.00000000000E+00 -0.00000000000E+00 -0.59177068960E+02  0.59177068960E+02  0.00000000000E+00 0. -1.
         23    2    1    2    0    0 -0.62973830735E+01 -0.24113451916E+02  0.45388585143E+02  0.11605197108E+03  0.10385962032E+03 0.  0.
         13    1    3    3    0    0 -0.44436366341E+02  0.57554218476E+00  0.53869596150E+02  0.69834484975E+02  0.00000000000E+00 0.  1.
        -13    1    3    3    0    0  0.38138983267E+02 -0.24688994101E+02 -0.84810110067E+01  0.46217486107E+02  0.00000000000E+00 0. -1.
         22    1    1    2    0    0  0.62973830735E+01  0.24113451916E+02 -0.17333467799E+02  0.30357284181E+02  0.00000000000E+00 0. -1.
<mgrwt>
<rscale>  0 0.74233376E+02</rscale>
<asrwt>0</asrwt>
<pdfrwt beam="1">  1        3 0.91041645E-02 0.10680794E+03</pdfrwt>
<pdfrwt beam="2">  1       -3 0.13420336E-01 0.10680794E+03</pdfrwt>
<totfact> 0.83310396E+03</totfact>
</mgrwt>
</event>
<event>
 6    1  0.1661841E-002  0.1213117E+03  0.7546771E-02  0.1292960E+00
         -2   -1    0    0    0  501 -0.00000000000E+00  0.00000000000E+00  0.51690353183E+02  0.51690353183E+02  0.00000000000E+00 0.  1.
          2   -1    0    0  501    0  0.00000000000E+00 -0.00000000000E+00 -0.31345229702E+03  0.31345229702E+03  0.00000000000E+00 0. -1.
         23    2    1    2    0    0  0.42989637013E+02  0.99610682019E+01 -0.24435215106E+02  0.12374814335E+03  0.11300084723E+03 0.  0.
         13    1    3    3    0    0  0.48109607946E+02 -0.33723755423E+02 -0.46136417079E+02  0.74702041722E+02  0.00000000000E+00 0. -1.
        -13    1    3    3    0    0 -0.51199709322E+01  0.43684823625E+02  0.21701201973E+02  0.49046101625E+02  0.00000000000E+00 0.  1.
         22    1    1    2    0    0 -0.42989637013E+02 -0.99610682019E+01 -0.23732672873E+03  0.24139450686E+03  0.00000000000E+00 0. -1.
<mgrwt>
<rscale>  0 0.94212158E+02</rscale>
<asrwt>0</asrwt>
<pdfrwt beam="1">  1        2 0.48223430E-01 0.12131168E+03</pdfrwt>
<pdfrwt beam="2">  1       -2 0.79523621E-02 0.12131168E+03</pdfrwt>
<totfact> 0.93495365E+03</totfact>
</mgrwt>
</event>
<event>
 6    1  0.1661841E-002  0.9183172E+02  0.7546771E-02  0.1406374E+00
         -2   -1    0    0    0  501 -0.00000000000E+00  0.00000000000E+00  0.35950783593E+02  0.35950783593E+02  0.00000000000E+00 0.  1.
          2   -1    0    0  501    0  0.00000000000E+00 -0.00000000000E+00 -0.93394695725E+02  0.93394695725E+02  0.00000000000E+00 0. -1.
         23    2    1    2    0    0  0.40100857293E+01  0.14063185540E+02 -0.27238433049E+02  0.95786204271E+02  0.90659862776E+02 0.  0.
         11    1    3    3    0    0  0.30210789621E+01 -0.27728480926E+02  0.18772056495E+02  0.33621208747E+02  0.00000000000E+00 0.  1.
        -11    1    3    3    0    0  0.98900676714E+00  0.41791666467E+02 -0.46010489544E+02  0.62164995524E+02  0.00000000000E+00 0. -1.
         22    1    1    2    0    0 -0.40100857293E+01 -0.14063185540E+02 -0.30205479082E+02  0.33559275047E+02  0.00000000000E+00 0. -1.
<mgrwt>
<rscale>  0 0.58010847E+02</rscale>
<asrwt>0</asrwt>
<pdfrwt beam="1">  1        2 0.14368415E-01 0.91831719E+02</pdfrwt>
<pdfrwt beam="2">  1       -2 0.55308898E-02 0.91831719E+02</pdfrwt>
<totfact> 0.59249134E+04</totfact>
</mgrwt>
</event>
<event>
 6    1  0.1661841E-002  0.9612392E+02  0.7546771E-02  0.1397903E+00
          2   -1    0    0  501    0  0.00000000000E+00  0.00000000000E+00  0.20397120322E+03  0.20397120322E+03  0.00000000000E+00 0. -1.
         -2   -1    0    0    0  501 -0.00000000000E+00 -0.00000000000E+00 -0.15123660105E+02  0.15123660105E+02  0.00000000000E+00 0.  1.
         23    2    1    2    0    0  0.74363386771E+00  0.14556339015E+02  0.15733650831E+03  0.18437620391E+03  0.95012460895E+02 0.  0.
         13    1    3    3    0    0 -0.32246279429E+02  0.27711877211E+02  0.13700802356E+03  0.14345371796E+03  0.00000000000E+00 0. -1.
        -13    1    3    3    0    0  0.32989913297E+02 -0.13155538196E+02  0.20328484747E+02  0.40922485954E+02  0.00000000000E+00 0.  1.
         22    1    1    2    0    0 -0.74363386771E+00 -0.14556339015E+02  0.31511034804E+02  0.34718659411E+02  0.00000000000E+00 0.  1.
<mgrwt>
<rscale>  0 0.59982994E+02</rscale>
<asrwt>0</asrwt>
<pdfrwt beam="1">  1        2 0.31380183E-01 0.96123919E+02</pdfrwt>
<pdfrwt beam="2">  1       -2 0.23267171E-02 0.96123919E+02</pdfrwt>
<totfact> 0.89079450E+04</totfact>
</mgrwt>
</event>
<event>
 6    1  0.1661841E-002  0.9273758E+02  0.7546771E-02  0.1423528E+00
          4   -1    0    0  501    0  0.00000000000E+00  0.00000000000E+00  0.84381005616E+01  0.84381005616E+01  0.00000000000E+00 0. -1.
         -4   -1    0    0    0  501 -0.00000000000E+00 -0.00000000000E+00 -0.32335982991E+03  0.32335982991E+03  0.00000000000E+00 0.  1.
         23    2    1    2    0    0  0.12585554426E+01  0.10812217120E+02 -0.29293814773E+03  0.30726701402E+03  0.92096533663E+02 0.  0.
         11    1    3    3    0    0 -0.24091969097E+02  0.22016609876E+02 -0.35043803201E+02  0.47887599942E+02  0.00000000000E+00 0. -1.
        -11    1    3    3    0    0  0.25350524539E+02 -0.11204392755E+02 -0.25789434453E+03  0.25937941408E+03  0.00000000000E+00 0.  1.
         22    1    1    2    0    0 -0.12585554426E+01 -0.10812217120E+02 -0.21983581623E+02  0.24530916449E+02  0.00000000000E+00 0. -1.
<mgrwt>
<rscale>  0 0.54281411E+02</rscale>
<asrwt>0</asrwt>
<pdfrwt beam="1">  1        4 0.12981693E-02 0.92737584E+02</pdfrwt>
<pdfrwt beam="2">  1       -4 0.49747666E-01 0.92737584E+02</pdfrwt>
<totfact> 0.11327642E+04</totfact>
</mgrwt>
</event>
<event>
 6    1  0.1661841E-002  0.1078592E+03  0.7546771E-02  0.1297380E+00
         -1   -1    0    0    0  501 -0.00000000000E+00  0.00000000000E+00  0.11170248695E+03  0.11170248695E+03  0.00000000000E+00 0.  1.
          1   -1    0    0  501    0  0.00000000000E+00 -0.00000000000E+00 -0.62224401912E+02  0.62224401912E+02  0.00000000000E+00 0. -1.
         23    2    1    2    0    0  0.23877390966E+02 -0.52677675818E+02  0.41387471409E+02  0.11552718546E+03  0.91041421677E+02 0.  0.
         11    1    3    3    0    0  0.57094627557E+02 -0.47427034162E+02  0.27912576412E+02  0.79298373170E+02  0.00000000000E+00 0. -1.
        -11    1    3    3    0    0 -0.33217236591E+02 -0.52506416554E+01  0.13474894997E+02  0.36228812287E+02  0.00000000000E+00 0.  1.
         22    1    1    2    0    0 -0.23877390966E+02  0.52677675818E+02  0.80906136290E+01  0.58399703405E+02  0.00000000000E+00 0.  1.
<mgrwt>
<rscale>  0 0.92298260E+02</rscale>
<asrwt>0</asrwt>
<pdfrwt beam="1">  1        1 0.95729850E-02 0.10785920E+03</pdfrwt>
<pdfrwt beam="2">  1       -1 0.17184998E-01 0.10785920E+03</pdfrwt>
<totfact> 0.15963888E+04</totfact>
</mgrwt>
</event>
<event>
 6    1  0.1661841E-002  0.9108744E+02  0.7546771E-02  0.1422291E+00
         -2   -1    0    0    0  501 -0.00000000000E+00  0.00000000000E+00  0.31897232616E+02  0.31897232616E+02  0.00000000000E+00 0.  1.
          2   -1    0    0  501    0  0.00000000000E+00 -0.00000000000E+00 -0.82835505684E+02  0.82835505684E+02  0.00000000000E+00 0. -1.
         23    2    1    2    0    0  0.39605933303E+01 -0.11017103887E+02 -0.44616863402E+02  0.10142773557E+03  0.90331933251E+02 0.  0.
         13    1    3    3    0    0  0.23916124030E+02  0.14031715241E+02 -0.59851617312E+02  0.65962763102E+02  0.00000000000E+00 0. -1.
        -13    1    3    3    0    0 -0.19955530700E+02 -0.25048819127E+02  0.15234753910E+02  0.35464972464E+02  0.00000000000E+00 0.  1.
         22    1    1    2    0    0 -0.39605933303E+01  0.11017103887E+02 -0.63214096656E+01  0.13305002734E+02  0.00000000000E+00 0.  1.
<mgrwt>
<rscale>  0 0.54539210E+02</rscale>
<asrwt>0</asrwt>
<pdfrwt beam="1">  1        2 0.12743924E-01 0.91087436E+02</pdfrwt>
<pdfrwt beam="2">  1       -2 0.49072666E-02 0.91087436E+02</pdfrwt>
<totfact> 0.81385086E+04</totfact>
</mgrwt>
</event>
<event>
 6    1  0.1661841E-002  0.9420015E+02  0.7546771E-02  0.1367557E+00
         -2   -1    0    0    0  501 -0.00000000000E+00  0.00000000000E+00  0.14194126697E+02  0.14194126697E+02  0.00000000000E+00 0.  1.
          2   -1    0    0  501    0  0.00000000000E+00 -0.00000000000E+00 -0.29495958433E+03  0.29495958433E+03  0.00000000000E+00 0. -1.
         23    2    1    2    0    0  0.19639888638E+02  0.16036465959E+02 -0.15928238619E+03  0.18505282419E+03  0.90723622749E+02 0.  0.
         13    1    3    3    0    0  0.37581624745E+02  0.45163105543E+02 -0.11454706551E+03  0.12873661033E+03  0.00000000000E+00 0. -1.
        -13    1    3    3    0    0 -0.17941736107E+02 -0.29126639584E+02 -0.44735320677E+02  0.56316213864E+02  0.00000000000E+00 0.  1.
         22    1    1    2    0    0 -0.19639888638E+02 -0.16036465959E+02 -0.12148307144E+03  0.12410088683E+03  0.00000000000E+00 0. -1.
<mgrwt>
<rscale>  0 0.67850974E+02</rscale>
<asrwt>0</asrwt>
<pdfrwt beam="1">  1        2 0.45378396E-01 0.94200155E+02</pdfrwt>
<pdfrwt beam="2">  1       -2 0.21837119E-02 0.94200155E+02</pdfrwt>
<totfact> 0.65968691E+04</totfact>
</mgrwt>
</event>
<event>
 6    1  0.1661841E-002  0.9147941E+02  0.7546771E-02  0.1419520E+00
         -2   -1    0    0    0  501 -0.00000000000E+00  0.00000000000E+00  0.10467981643E+03  0.10467981643E+03  0.00000000000E+00 0.  1.
          2   -1    0    0  501    0  0.00000000000E+00 -0.00000000000E+00 -0.32709961316E+02  0.32709961316E+02  0.00000000000E+00 0. -1.
         23    2    1    2    0    0 -0.11328664926E+01 -0.12006659331E+02  0.81108660781E+02  0.12225831965E+03  0.90680971631E+02 0.  0.
         11    1    3    3    0    0  0.37627705419E+02  0.17937901543E+02  0.45462325535E+02  0.61680106760E+02  0.00000000000E+00 0. -1.
        -11    1    3    3    0    0 -0.38760571912E+02 -0.29944560874E+02  0.35646335246E+02  0.60578212893E+02  0.00000000000E+00 0.  1.
         22    1    1    2    0    0  0.11328664926E+01  0.12006659331E+02 -0.91388056712E+01  0.15131458088E+02  0.00000000000E+00 0. -1.
<mgrwt>
<rscale>  0 0.55122538E+02</rscale>
<asrwt>0</asrwt>
<pdfrwt beam="1">  1        2 0.50323018E-02 0.91479407E+02</pdfrwt>
<pdfrwt beam="2">  1       -2 0.16104587E-01 0.91479407E+02</pdfrwt>
<totfact> 0.40960268E+04</totfact>
</mgrwt>
</event>
<event>
 6    1  0.1661841E-002  0.9807602E+02  0.7546771E-02  0.1336376E+00
         -2   -1    0    0    0  501 -0.00000000000E+00  0.00000000000E+00  0.38259963000E+02  0.38259963000E+02  0.00000000000E+00 0.  1.
          2   -1    0    0  501    0  0.00000000000E+00 -0.00000000000E+00 -0.12975034254E+03  0.12975034254E+03  0.00000000000E+00 0. -1.
         23    2    1    2    0    0 -0.21251713581E+02 -0.31729801589E+02 -0.45172550724E+02  0.10797900616E+03  0.90335434870E+02 0.  0.
         13    1    3    3    0    0  0.22101561283E+02 -0.44270792880E+02 -0.93443556184E+01  0.50355725546E+02  0.00000000000E+00 0. -1.
        -13    1    3    3    0    0 -0.43353274864E+02  0.12540991290E+02 -0.35828195106E+02  0.57623280613E+02  0.00000000000E+00 0.  1.
         22    1    1    2    0    0  0.21251713581E+02  0.31729801589E+02 -0.46317828814E+02  0.60031299378E+02  0.00000000000E+00 0. -1.
<mgrwt>
<rscale>  0 0.77474236E+02</rscale>
<asrwt>0</asrwt>
<pdfrwt beam="1">  1        2 0.19961591E-01 0.98076024E+02</pdfrwt>
<pdfrwt beam="2">  1       -2 0.58861481E-02 0.98076024E+02</pdfrwt>
<totfact> 0.37411790E+04</totfact>
</mgrwt>
</event>
<event>
 6    1  0.1661841E-002  0.9282573E+02  0.7546771E-02  0.1367684E+00
         -2   -1    0    0    0  501 -0.00000000000E+00  0.00000000000E+00  0.11678095301E+02  0.11678095301E+02  0.00000000000E+00 0.  1.
          2   -1    0    0  501    0  0.00000000000E+00 -0.00000000000E+00 -0.30537855232E+03  0.30537855232E+03  0.00000000000E+00 0. -1.
         23    2    1    2    0    0 -0.62615572913E+01  0.25690510585E+02 -0.23533720966E+03  0.25298264294E+03  0.88979806378E+02 0.  0.
         13    1    3    3    0    0 -0.44802876182E+02  0.16381191971E+02 -0.84648564586E+02  0.97164914713E+02  0.00000000000E+00 0.  1.
        -13    1    3    3    0    0  0.38541318891E+02  0.93093186134E+01 -0.15068864507E+03  0.15581772822E+03  0.00000000000E+00 0. -1.
         22    1    1    2    0    0  0.62615572913E+01 -0.25690510585E+02 -0.58363247356E+02  0.64074004681E+02  0.00000000000E+00 0. -1.
<mgrwt>
<rscale>  0 0.67815220E+02</rscale>
<asrwt>0</asrwt>
<pdfrwt beam="1">  1        2 0.46981317E-01 0.92825726E+02</pdfrwt>
<pdfrwt beam="2">  1       -2 0.17966300E-02 0.92825726E+02</pdfrwt>
<totfact> 0.84035448E+04</totfact>
</mgrwt>
</event>
<event>
 6    1  0.1661841E-002  0.1057890E+03  0.7546771E-02  0.1325548E+00
          4   -1    0    0  501    0  0.00000000000E+00  0.00000000000E+00  0.54960980794E+02  0.54960980794E+02  0.00000000000E+00 0. -1.
         -4   -1    0    0    0  501 -0.00000000000E+00 -0.00000000000E+00 -0.17988025247E+03  0.17988025247E+03  0.00000000000E+00 0.  1.
         23    2    1    2    0    0  0.36767687384E+02 -0.16810624792E+01 -0.15475739278E+03  0.18745977826E+03  0.99179781402E+02 0.  0.
         11    1    3    3    0    0  0.56409926055E+02  0.67214501915E+01 -0.15603788296E+03  0.16605745563E+03  0.00000000000E+00 0.  1.
        -11    1    3    3    0    0 -0.19642238671E+02 -0.84025126707E+01  0.12804901781E+01  0.21402322637E+02  0.00000000000E+00 0. -1.
         22    1    1    2    0    0 -0.36767687384E+02  0.16810624792E+01  0.29838121107E+02  0.47381454999E+02  0.00000000000E+00 0. -1.
<mgrwt>
<rscale>  0 0.81247574E+02</rscale>
<asrwt>0</asrwt>
<pdfrwt beam="1">  1        4 0.84555355E-02 0.10578903E+03</pdfrwt>
<pdfrwt beam="2">  1       -4 0.27673885E-01 0.10578903E+03</pdfrwt>
<totfact> 0.19323610E+03</totfact>
</mgrwt>
</event>
<event>
 6    1  0.1661841E-002  0.9500244E+02  0.7546771E-02  0.1394183E+00
          2   -1    0    0  501    0  0.00000000000E+00  0.00000000000E+00  0.27003843013E+03  0.27003843013E+03  0.00000000000E+00 0. -1.
         -2   -1    0    0    0  501 -0.00000000000E+00 -0.00000000000E+00 -0.11570166099E+02  0.11570166099E+02  0.00000000000E+00 0.  1.
         23    2    1    2    0    0  0.40399358724E+01  0.15501425093E+02  0.20822911091E+03  0.22887731739E+03  0.93642130064E+02 0.  0.
         13    1    3    3    0    0 -0.10914453094E+02  0.20208182344E+02  0.31296404206E+01  0.23179529096E+02  0.00000000000E+00 0.  1.
        -13    1    3    3    0    0  0.14954388966E+02 -0.47067572510E+01  0.20509947049E+03  0.20569778829E+03  0.00000000000E+00 0. -1.
         22    1    1    2    0    0 -0.40399358724E+01 -0.15501425093E+02  0.50239153116E+02  0.52731278835E+02  0.00000000000E+00 0. -1.
<mgrwt>
<rscale>  0 0.60878141E+02</rscale>
<asrwt>0</asrwt>
<pdfrwt beam="1">  1        2 0.41544369E-01 0.95002441E+02</pdfrwt>
<pdfrwt beam="2">  1       -2 0.17800258E-02 0.95002441E+02</pdfrwt>
<totfact> 0.97184184E+04</totfact>
</mgrwt>
</event>
<event>
 6    1  0.1661841E-002  0.8775458E+02  0.7546771E-02  0.1434751E+00
          2   -1    0    0  501    0  0.00000000000E+00  0.00000000000E+00  0.47818621876E+01  0.47818621876E+01  0.00000000000E+00 0. -1.
         -2   -1    0    0    0  501 -0.00000000000E+00 -0.00000000000E+00 -0.73105401423E+03  0.73105401423E+03  0.00000000000E+00 0.  1.
         23    2    1    2    0    0 -0.56644486921E+01  0.92357495323E+01 -0.71437463366E+03  0.71974438823E+03  0.87083190837E+02 0.  0.
         11    1    3    3    0    0  0.78629350257E+01  0.35586889798E+02 -0.61424970336E+03  0.61532995258E+03  0.00000000000E+00 0.  1.
        -11    1    3    3    0    0 -0.13527383718E+02 -0.26351140266E+02 -0.10012493030E+03  0.10441443565E+03  0.00000000000E+00 0. -1.
         22    1    1    2    0    0  0.56644486921E+01 -0.92357495323E+01 -0.11897518388E+02  0.16091488191E+02  0.00000000000E+00 0. -1.
<mgrwt>
<rscale>  0 0.52018037E+02</rscale>
<asrwt>0</asrwt>
<pdfrwt beam="1">  1        2 0.73567167E-03 0.87754585E+02</pdfrwt>
<pdfrwt beam="2">  1       -2 0.11246976E+00 0.87754585E+02</pdfrwt>
<totfact> 0.12679435E+04</totfact>
</mgrwt>
</event>
<event>
 6    1  0.1661841E-002  0.9647074E+02  0.7546771E-02  0.1360397E+00
          2   -1    0    0  501    0  0.00000000000E+00  0.00000000000E+00  0.33852304334E+02  0.33852304334E+02  0.00000000000E+00 0. -1.
         -2   -1    0    0    0  501 -0.00000000000E+00 -0.00000000000E+00 -0.14098568763E+03  0.14098568763E+03  0.00000000000E+00 0.  1.
         23    2    1    2    0    0 -0.19793116297E+02 -0.17780045984E+02 -0.11196876179E+03  0.14779583278E+03  0.92729213756E+02 0.  0.
         13    1    3    3    0    0 -0.20288825993E+02  0.98215032905E+01  0.85858399894E+01  0.24120842344E+02  0.00000000000E+00 0. -1.
        -13    1    3    3    0    0  0.49570969628E+00 -0.27601549275E+02 -0.12055460178E+03  0.12367499044E+03  0.00000000000E+00 0.  1.
         22    1    1    2    0    0  0.19793116297E+02  0.17780045984E+02  0.48353784925E+01  0.27042159180E+02  0.00000000000E+00 0. -1.
<mgrwt>
<rscale>  0 0.69910598E+02</rscale>
<asrwt>0</asrwt>
<pdfrwt beam="1">  1        2 0.52080468E-02 0.96470745E+02</pdfrwt>
<pdfrwt beam="2">  1       -2 0.21690106E-01 0.96470745E+02</pdfrwt>
<totfact> 0.24048698E+04</totfact>
</mgrwt>
</event>
<event>
 6    1  0.1661841E-002  0.1064622E+03  0.7546771E-02  0.1354440E+00
         -4   -1    0    0    0  501 -0.00000000000E+00  0.00000000000E+00  0.52057103193E+02  0.52057103193E+02  0.00000000000E+00 0.  1.
          4   -1    0    0  501    0  0.00000000000E+00 -0.00000000000E+00 -0.11439603246E+03  0.11439603246E+03  0.00000000000E+00 0. -1.
         23    2    1    2    0    0 -0.21848515296E+02  0.13416057483E+01 -0.67112388238E+01  0.10667356163E+03  0.10418757362E+03 0.  0.
         11    1    3    3    0    0  0.10879499134E+02  0.45394664962E+02 -0.19060194967E+02  0.50421524576E+02  0.00000000000E+00 0. -1.
        -11    1    3    3    0    0 -0.32728014430E+02 -0.44053059214E+02  0.12348956143E+02  0.56252037052E+02  0.00000000000E+00 0.  1.
         22    1    1    2    0    0  0.21848515296E+02 -0.13416057483E+01 -0.55627690440E+02  0.59779574023E+02  0.00000000000E+00 0. -1.
<mgrwt>
<rscale>  0 0.71689654E+02</rscale>
<asrwt>0</asrwt>
<pdfrwt beam="1">  1        4 0.17599389E-01 0.10646224E+03</pdfrwt>
<pdfrwt beam="2">  1       -4 0.80087852E-02 0.10646224E+03</pdfrwt>
<totfact> 0.48039333E+03</totfact>
</mgrwt>
</event>
<event>
 6    1  0.1661841E-002  0.1124161E+03  0.7546771E-02  0.1287630E+00
          2   -1    0    0  501    0  0.00000000000E+00  0.00000000000E+00  0.95385458447E+03  0.95385458447E+03  0.00000000000E+00 0. -1.
         -2   -1    0    0    0  501 -0.00000000000E+00 -0.00000000000E+00 -0.90183454107E+01  0.90183454107E+01  0.00000000000E+00 0.  1.
         23    2    1    2    0    0  0.60380142694E+02  0.10431675266E+02  0.75683118190E+03  0.76513450924E+03  0.94248596015E+02 0.  0.
         13    1    3    3    0    0  0.80310790520E+01  0.11066703086E+02  0.59266445384E+03  0.59282216979E+03  0.00000000000E+00 0. -1.
        -13    1    3    3    0    0  0.52349063642E+02 -0.63502781943E+00  0.16416672806E+03  0.17231233944E+03  0.00000000000E+00 0.  1.
         22    1    1    2    0    0 -0.60380142694E+02 -0.10431675266E+02  0.18800505716E+03  0.19773842064E+03  0.00000000000E+00 0. -1.
<mgrwt>
<rscale>  0 0.96592093E+02</rscale>
<asrwt>0</asrwt>
<pdfrwt beam="1">  1        2 0.14674678E+00 0.11241610E+03</pdfrwt>
<pdfrwt beam="2">  1       -2 0.13874385E-02 0.11241610E+03</pdfrwt>
<totfact> 0.34437603E+04</totfact>
</mgrwt>
</event>
<event>
 6    1  0.1661841E-002  0.1612239E+03  0.7546771E-02  0.1196294E+00
         -2   -1    0    0    0  501 -0.00000000000E+00  0.00000000000E+00  0.23295009996E+02  0.23295009996E+02  0.00000000000E+00 0.  1.
          2   -1    0    0  501    0  0.00000000000E+00 -0.00000000000E+00 -0.92490568227E+03  0.92490568227E+03  0.00000000000E+00 0. -1.
         23    2    1    2    0    0 -0.78319091548E+02 -0.10664562553E+03 -0.48840153965E+03  0.51432403142E+03  0.92119356363E+02 0.  0.
         11    1    3    3    0    0  0.16242051498E+02 -0.14781204135E+02 -0.14190034217E+03  0.14358967700E+03  0.00000000000E+00 0. -1.
        -11    1    3    3    0    0 -0.94561143046E+02 -0.91864421391E+02 -0.34650119748E+03  0.37073435442E+03  0.00000000000E+00 0.  1.
         22    1    1    2    0    0  0.78319091548E+02  0.10664562553E+03 -0.41320913262E+03  0.43387666085E+03  0.00000000000E+00 0. -1.
<mgrwt>
<rscale>  0 0.15345253E+03</rscale>
<asrwt>0</asrwt>
<pdfrwt beam="1">  1        2 0.14229319E+00 0.16122390E+03</pdfrwt>
<pdfrwt beam="2">  1       -2 0.35838474E-02 0.16122390E+03</pdfrwt>
<totfact> 0.92411821E+03</totfact>
</mgrwt>
</event>
<event>
 6    1  0.1661841E-002  0.9253540E+02  0.7546771E-02  0.1421388E+00
          2   -1    0    0  501    0  0.00000000000E+00  0.00000000000E+00  0.23827037247E+03  0.23827037247E+03  0.00000000000E+00 0.  1.
         -2   -1    0    0    0  501 -0.00000000000E+00 -0.00000000000E+00 -0.12412127174E+02  0.12412127174E+02  0.00000000000E+00 0. -1.
         23    2    1    2    0    0  0.72883828765E+01  0.86642539539E+01  0.16868663979E+03  0.19240057880E+03  0.91840135321E+02 0.  0.
         11    1    3    3    0    0  0.30468378362E+02  0.56120238107E+01  0.16600042529E+03  0.16886668732E+03  0.00000000000E+00 0.  1.
        -11    1    3    3    0    0 -0.23179995485E+02  0.30522301432E+01  0.26862145022E+01  0.23533891474E+02  0.00000000000E+00 0. -1.
         22    1    1    2    0    0 -0.72883828765E+01 -0.86642539539E+01  0.57171605501E+02  0.58281920842E+02  0.00000000000E+00 0. -1.
<mgrwt>
<rscale>  0 0.54728384E+02</rscale>
<asrwt>0</asrwt>
<pdfrwt beam="1">  1        2 0.36656977E-01 0.92535400E+02</pdfrwt>
<pdfrwt beam="2">  1       -2 0.19095582E-02 0.92535400E+02</pdfrwt>
<totfact> 0.99837354E+04</totfact>
</mgrwt>
</event>
<event>
 6    1  0.1661841E-002  0.9242842E+02  0.7546771E-02  0.1396431E+00
         -1   -1    0    0    0  501 -0.00000000000E+00  0.00000000000E+00  0.23694293784E+02  0.23694293784E+02  0.00000000000E+00 0.  1.
          1   -1    0    0  501    0  0.00000000000E+00 -0.00000000000E+00 -0.14540790045E+03  0.14540790045E+03  0.00000000000E+00 0. -1.
         23    2    1    2    0    0 -0.15172561614E+02  0.71733871202E+01 -0.73621219720E+02  0.11816554936E+03  0.90891963089E+02 0.  0.
         13    1    3    3    0    0 -0.13717813270E+02  0.15690312275E+02 -0.93867135463E+02  0.96153020858E+02  0.00000000000E+00 0. -1.
        -13    1    3    3    0    0 -0.14547483436E+01 -0.85169251549E+01  0.20245915743E+02  0.22012528503E+02  0.00000000000E+00 0.  1.
         22    1    1    2    0    0  0.15172561614E+02 -0.71733871202E+01 -0.48092386948E+02  0.50936644875E+02  0.00000000000E+00 0. -1.
<mgrwt>
<rscale>  0 0.60335177E+02</rscale>
<asrwt>0</asrwt>
<pdfrwt beam="1">  1        1 0.22370446E-01 0.92428421E+02</pdfrwt>
<pdfrwt beam="2">  1       -1 0.36452760E-02 0.92428421E+02</pdfrwt>
<totfact> 0.53984899E+04</totfact>
</mgrwt>
</event>
<event>
 6    1  0.1661841E-002  0.9667341E+02  0.7546771E-02  0.1405728E+00
         -4   -1    0    0    0  501 -0.00000000000E+00  0.00000000000E+00  0.22431686100E+03  0.22431686100E+03  0.00000000000E+00 0.  1.
          4   -1    0    0  501    0  0.00000000000E+00 -0.00000000000E+00 -0.17104024982E+02  0.17104024982E+02  0.00000000000E+00 0. -1.
         23    2    1    2    0    0  0.10765106766E+02  0.66671185231E+01  0.20732687233E+03  0.22875790855E+03  0.95840548514E+02 0.  0.
         13    1    3    3    0    0  0.16317882342E+02 -0.16527796921E+02  0.20323657563E+03  0.20455939731E+03  0.00000000000E+00 0.  1.
        -13    1    3    3    0    0 -0.55527755757E+01  0.23194915444E+02  0.40902967056E+01  0.24198511239E+02  0.00000000000E+00 0. -1.
         22    1    1    2    0    0 -0.10765106766E+02 -0.66671185231E+01 -0.11403631937E+00  0.12662977429E+02  0.00000000000E+00 0. -1.
<mgrwt>
<rscale>  0 0.58158051E+02</rscale>
<asrwt>0</asrwt>
<pdfrwt beam="1">  1        4 0.26313886E-02 0.96673413E+02</pdfrwt>
<pdfrwt beam="2">  1       -4 0.34510284E-01 0.96673413E+02</pdfrwt>
<totfact> 0.80049815E+03</totfact>
</mgrwt>
</event>
<event>
 6    1  0.1661841E-002  0.8830291E+02  0.7546771E-02  0.1382637E+00
         -2   -1    0    0    0  501 -0.00000000000E+00  0.00000000000E+00  0.28108639545E+03  0.28108639545E+03  0.00000000000E+00 0. -1.
          2   -1    0    0  501    0  0.00000000000E+00 -0.00000000000E+00 -0.13843430378E+02  0.13843430378E+02  0.00000000000E+00 0.  1.
         23    2    1    2    0    0 -0.15156237291E+02  0.18643567906E+02  0.25059817552E+03  0.26570067647E+03  0.84971228943E+02 0.  0.
         13    1    3    3    0    0 -0.14097925703E+02  0.52059597778E+02  0.17284134097E+03  0.18106099077E+03  0.00000000000E+00 0. -1.
        -13    1    3    3    0    0 -0.10583115881E+01 -0.33416029872E+02  0.77756834548E+02  0.84639685696E+02  0.00000000000E+00 0.  1.
         22    1    1    2    0    0  0.15156237291E+02 -0.18643567906E+02  0.16644789550E+02  0.29229149359E+02  0.00000000000E+00 0.  1.
<mgrwt>
<rscale>  0 0.63775799E+02</rscale>
<asrwt>0</asrwt>
<pdfrwt beam="1">  1        2 0.21297587E-02 0.88302910E+02</pdfrwt>
<pdfrwt beam="2">  1       -2 0.43244057E-01 0.88302910E+02</pdfrwt>
<totfact> 0.22468451E+04</totfact>
</mgrwt>
</event>
<event>
 6    1  0.1661841E-002  0.9151525E+02  0.7546771E-02  0.1403856E+00
         -3   -1    0    0    0  501 -0.00000000000E+00  0.00000000000E+00  0.43013575064E+02  0.43013575064E+02  0.00000000000E+00 0.  1.
          3   -1    0    0  501    0  0.00000000000E+00 -0.00000000000E+00 -0.79406368197E+02  0.79406368197E+02  0.00000000000E+00 0. -1.
         23    2    1    2    0    0  0.43470799831E+01  0.14745098107E+02 -0.10243459559E+02  0.92086749084E+02  0.90214887190E+02 0.  0.
         13    1    3    3    0    0  0.78319764051E+01 -0.21406762453E+02 -0.39395541554E+02  0.45514811078E+02  0.00000000000E+00 0. -1.
        -13    1    3    3    0    0 -0.34848964220E+01  0.36151860559E+02  0.29152081995E+02  0.46571938006E+02  0.00000000000E+00 0.  1.
         22    1    1    2    0    0 -0.43470799831E+01 -0.14745098107E+02 -0.26149333574E+02  0.30333194176E+02  0.00000000000E+00 0. -1.
<mgrwt>
<rscale>  0 0.58587709E+02</rscale>
<asrwt>0</asrwt>
<pdfrwt beam="1">  1        3 0.12216364E-01 0.91515250E+02</pdfrwt>
<pdfrwt beam="2">  1       -3 0.66174731E-02 0.91515250E+02</pdfrwt>
<totfact> 0.15717499E+04</totfact>
</mgrwt>
</event>
<event>
 6    1  0.1661841E-002  0.9429094E+02  0.7546771E-02  0.1398092E+00
         -2   -1    0    0    0  501 -0.00000000000E+00  0.00000000000E+00  0.72221954697E+02  0.72221954697E+02  0.00000000000E+00 0.  1.
          2   -1    0    0  501    0  0.00000000000E+00 -0.00000000000E+00 -0.42207759874E+02  0.42207759874E+02  0.00000000000E+00 0. -1.
         23    2    1    2    0    0 -0.12852610608E+02 -0.84756890772E+01  0.30274160929E+02  0.99031841759E+02  0.93025555399E+02 0.  0.
         13    1    3    3    0    0  0.36997288948E+02 -0.34447440878E+01  0.31797617067E+02  0.48905563104E+02  0.00000000000E+00 0.  1.
        -13    1    3    3    0    0 -0.49849899556E+02 -0.50309449895E+01 -0.15234561372E+01  0.50126278655E+02  0.00000000000E+00 0. -1.
         22    1    1    2    0    0  0.12852610608E+02  0.84756890772E+01 -0.25996610689E+00  0.15397872812E+02  0.00000000000E+00 0. -1.
<mgrwt>
<rscale>  0 0.59937989E+02</rscale>
<asrwt>0</asrwt>
<pdfrwt beam="1">  1        2 0.64935015E-02 0.94290937E+02</pdfrwt>
<pdfrwt beam="2">  1       -2 0.11111070E-01 0.94290937E+02</pdfrwt>
<totfact> 0.53776077E+04</totfact>
</mgrwt>
</event>
<event>
 6    1  0.1661841E-002  0.1053677E+03  0.7546771E-02  0.1375323E+00
          4   -1    0    0  501    0  0.00000000000E+00  0.00000000000E+00  0.17779688525E+02  0.17779688525E+02  0.00000000000E+00 0. -1.
         -4   -1    0    0    0  501 -0.00000000000E+00 -0.00000000000E+00 -0.54093486492E+03  0.54093486492E+03  0.00000000000E+00 0.  1.
         23    2    1    2    0    0  0.12497675916E+02 -0.98881539332E+01 -0.53071662833E+03  0.54107530610E+03  0.10415555572E+03 0.  0.
         11    1    3    3    0    0 -0.18951956201E+02  0.35122933016E+02 -0.11458122434E+03  0.12133282342E+03  0.00000000000E+00 0. -1.
        -11    1    3    3    0    0  0.31449632117E+02 -0.45011086949E+02 -0.41613540400E+03  0.41974248268E+03  0.00000000000E+00 0.  1.
         22    1    1    2    0    0 -0.12497675916E+02  0.98881539332E+01  0.75614519391E+01  0.17639247346E+02  0.00000000000E+00 0. -1.
<mgrwt>
<rscale>  0 0.65709448E+02</rscale>
<asrwt>0</asrwt>
<pdfrwt beam="1">  1        4 0.27353367E-02 0.10536768E+03</pdfrwt>
<pdfrwt beam="2">  1       -4 0.83220747E-01 0.10536768E+03</pdfrwt>
<totfact> 0.12664000E+03</totfact>
</mgrwt>
</event>
<event>
 6    1  0.1661841E-002  0.1075346E+03  0.7546771E-02  0.1312412E+00
         -4   -1    0    0    0  501 -0.00000000000E+00  0.00000000000E+00  0.52916432710E+03  0.52916432710E+03  0.00000000000E+00 0.  1.
          4   -1    0    0  501    0  0.00000000000E+00 -0.00000000000E+00 -0.13327467058E+02  0.13327467058E+02  0.00000000000E+00 0. -1.
         23    2    1    2    0    0  0.30510466200E+02  0.32159463302E+02  0.45302170120E+03  0.46560965184E+03  0.97972274121E+02 0.  0.
         13    1    3    3    0    0  0.13749624527E+02 -0.22344152361E+02  0.35130416995E+02  0.43845860895E+02  0.00000000000E+00 0. -1.
        -13    1    3    3    0    0  0.16760841674E+02  0.54503615663E+02  0.41789128421E+03  0.42176379094E+03  0.00000000000E+00 0.  1.
         22    1    1    2    0    0 -0.30510466200E+02 -0.32159463302E+02  0.62815158840E+02  0.76882142320E+02  0.00000000000E+00 0. -1.
<mgrwt>
<rscale>  0 0.86165762E+02</rscale>
<asrwt>0</asrwt>
<pdfrwt beam="1">  1        4 0.20503800E-02 0.10753458E+03</pdfrwt>
<pdfrwt beam="2">  1       -4 0.81409880E-01 0.10753458E+03</pdfrwt>
<totfact> 0.20843610E+03</totfact>
</mgrwt>
</event>
<event>
 6    1  0.1661841E-002  0.1078576E+03  0.7546771E-02  0.1299134E+00
          3   -1    0    0  501    0  0.00000000000E+00  0.00000000000E+00  0.86755101249E+02  0.86755101249E+02  0.00000000000E+00 0. -1.
         -3   -1    0    0    0  501 -0.00000000000E+00 -0.00000000000E+00 -0.43635007840E+03  0.43635007840E+03  0.00000000000E+00 0.  1.
         23    2    1    2    0    0 -0.29623254076E+02 -0.47515467533E+02 -0.41972633310E+03  0.43336297149E+03  0.92184670774E+02 0.  0.
         11    1    3    3    0    0 -0.55467632072E+02 -0.54265709454E+02 -0.35421953628E+03  0.36261950487E+03  0.00000000000E+00 0.  1.
        -11    1    3    3    0    0  0.25844377996E+02  0.67502419214E+01 -0.65506796822E+02  0.70743466623E+02  0.00000000000E+00 0. -1.
         22    1    1    2    0    0  0.29623254076E+02  0.47515467533E+02  0.70131355951E+02  0.89742208155E+02  0.00000000000E+00 0. -1.
<mgrwt>
<rscale>  0 0.91552946E+02</rscale>
<asrwt>0</asrwt>
<pdfrwt beam="1">  1        3 0.13346938E-01 0.10785764E+03</pdfrwt>
<pdfrwt beam="2">  1       -3 0.67130783E-01 0.10785764E+03</pdfrwt>
<totfact> 0.22338369E+02</totfact>
</mgrwt>
</event>
<event>
 6    1  0.1661841E-002  0.9548351E+02  0.7546771E-02  0.1364973E+00
          2   -1    0    0  501    0  0.00000000000E+00  0.00000000000E+00  0.28020291316E+02  0.28020291316E+02  0.00000000000E+00 0. -1.
         -2   -1    0    0    0  501 -0.00000000000E+00 -0.00000000000E+00 -0.13518607145E+03  0.13518607145E+03  0.00000000000E+00 0.  1.
         23    2    1    2    0    0  0.25276317625E+02  0.26719621307E+01 -0.96145459523E+02  0.13550294997E+03  0.92038407466E+02 0.  0.
         11    1    3    3    0    0  0.20642194901E+02  0.25454911961E+02  0.37049738922E+01  0.32981503677E+02  0.00000000000E+00 0. -1.
        -11    1    3    3    0    0  0.46341227243E+01 -0.22782949830E+02 -0.99850433415E+02  0.10252144629E+03  0.00000000000E+00 0.  1.
         22    1    1    2    0    0 -0.25276317625E+02 -0.26719621307E+01 -0.11020320613E+02  0.27703412799E+02  0.00000000000E+00 0. -1.
<mgrwt>
<rscale>  0 0.68584818E+02</rscale>
<asrwt>0</asrwt>
<pdfrwt beam="1">  1        2 0.43108140E-02 0.95483507E+02</pdfrwt>
<pdfrwt beam="2">  1       -2 0.20797857E-01 0.95483507E+02</pdfrwt>
<totfact> 0.32950173E+04</totfact>
</mgrwt>
</event>
<event>
 6    1  0.1661841E-002  0.9432370E+02  0.7546771E-02  0.1371332E+00
         -2   -1    0    0    0  501 -0.00000000000E+00  0.00000000000E+00  0.68983778365E+02  0.68983778365E+02  0.00000000000E+00 0.  1.
          2   -1    0    0  501    0  0.00000000000E+00 -0.00000000000E+00 -0.61391068096E+02  0.61391068096E+02  0.00000000000E+00 0. -1.
         23    2    1    2    0    0  0.23555468958E+02  0.28283339442E+01  0.28727743052E+02  0.98601442465E+02  0.91291301035E+02 0.  0.
         11    1    3    3    0    0  0.27452690222E+02  0.36801006641E+02 -0.99464066427E+01  0.46977604189E+02  0.00000000000E+00 0. -1.
        -11    1    3    3    0    0 -0.38972212643E+01 -0.33972672697E+02  0.38674149695E+02  0.51623838276E+02  0.00000000000E+00 0.  1.
         22    1    1    2    0    0 -0.23555468958E+02 -0.28283339442E+01 -0.21135032784E+02  0.31773403996E+02  0.00000000000E+00 0. -1.
<mgrwt>
<rscale>  0 0.66798336E+02</rscale>
<asrwt>0</asrwt>
<pdfrwt beam="1">  1        2 0.94447797E-02 0.94323705E+02</pdfrwt>
<pdfrwt beam="2">  1       -2 0.10612889E-01 0.94323705E+02</pdfrwt>
<totfact> 0.36265143E+04</totfact>
</mgrwt>
</event>
<event>
 6    1  0.1661841E-002  0.9355670E+02  0.7546771E-02  0.1390749E+00
          4   -1    0    0  501    0  0.00000000000E+00  0.00000000000E+00  0.13804687095E+02  0.13804687095E+02  0.00000000000E+00 0. -1.
         -4   -1    0    0    0  501 -0.00000000000E+00 -0.00000000000E+00 -0.22959590213E+03  0.22959590213E+03  0.00000000000E+00 0.  1.
         23    2    1    2    0    0  0.68102184020E+01 -0.16360638306E+02 -0.19343998431E+03  0.21487644024E+03  0.91862982097E+02 0.  0.
         13    1    3    3    0    0 -0.15252209951E+02 -0.33878106932E+02 -0.26646865723E+02  0.45721018040E+02  0.00000000000E+00 0. -1.
        -13    1    3    3    0    0  0.22062428353E+02  0.17517468626E+02 -0.16679311858E+03  0.16915542220E+03  0.00000000000E+00 0.  1.
         22    1    1    2    0    0 -0.68102184020E+01  0.16360638306E+02 -0.22351230733E+02  0.28524148993E+02  0.00000000000E+00 0.  1.
<mgrwt>
<rscale>  0 0.61720717E+02</rscale>
<asrwt>0</asrwt>
<pdfrwt beam="1">  1        4 0.21237983E-02 0.93556705E+02</pdfrwt>
<pdfrwt beam="2">  1       -4 0.35322442E-01 0.93556705E+02</pdfrwt>
<totfact> 0.10546815E+04</totfact>
</mgrwt>
</event>
<event>
 6    1  0.1661841E-002  0.9200338E+02  0.7546771E-02  0.1389587E+00
         -2   -1    0    0    0  501 -0.00000000000E+00  0.00000000000E+00  0.10602580532E+03  0.10602580532E+03  0.00000000000E+00 0.  1.
          2   -1    0    0  501    0  0.00000000000E+00 -0.00000000000E+00 -0.44444021020E+02  0.44444021020E+02  0.00000000000E+00 0. -1.
         23    2    1    2    0    0 -0.16659064541E+02  0.91062299879E+01  0.81530887449E+02  0.12293049860E+03  0.90023186030E+02 0.  0.
         11    1    3    3    0    0 -0.12970991589E+02 -0.30666922053E+02  0.75522973357E+02  0.82537423243E+02  0.00000000000E+00 0.  1.
        -11    1    3    3    0    0 -0.36880729527E+01  0.39773152041E+02  0.60079140918E+01  0.40393075361E+02  0.00000000000E+00 0. -1.
         22    1    1    2    0    0  0.16659064541E+02 -0.91062299879E+01 -0.19949103146E+02  0.27539327739E+02  0.00000000000E+00 0. -1.
<mgrwt>
<rscale>  0 0.62009487E+02</rscale>
<asrwt>0</asrwt>
<pdfrwt beam="1">  1        2 0.68375417E-02 0.92003380E+02</pdfrwt>
<pdfrwt beam="2">  1       -2 0.16311662E-01 0.92003380E+02</pdfrwt>
<totfact> 0.27162178E+04</totfact>
</mgrwt>
</event>
<event>
 6    1  0.1661841E-002  0.9485672E+02  0.7546771E-02  0.1360083E+00
         -2   -1    0    0    0  501 -0.00000000000E+00  0.00000000000E+00  0.33819209646E+02  0.33819209646E+02  0.00000000000E+00 0.  1.
          2   -1    0    0  501    0  0.00000000000E+00 -0.00000000000E+00 -0.11884710920E+03  0.11884710920E+03  0.00000000000E+00 0. -1.
         23    2    1    2    0    0 -0.27534220059E+02  0.57882302018E+01 -0.48434901031E+02  0.10650698150E+03  0.90587861151E+02 0.  0.
         11    1    3    3    0    0 -0.20045975305E+02  0.30802671563E+02 -0.65646312432E+02  0.75233530007E+02  0.00000000000E+00 0. -1.
        -11    1    3    3    0    0 -0.74882447537E+01 -0.25014441361E+02  0.17211411401E+02  0.31273451496E+02  0.00000000000E+00 0.  1.
         22    1    1    2    0    0  0.27534220059E+02 -0.57882302018E+01 -0.36592998523E+02  0.46159337343E+02  0.00000000000E+00 0. -1.
<mgrwt>
<rscale>  0 0.70003029E+02</rscale>
<asrwt>0</asrwt>
<pdfrwt beam="1">  1        2 0.18284171E-01 0.94856721E+02</pdfrwt>
<pdfrwt beam="2">  1       -2 0.52029553E-02 0.94856721E+02</pdfrwt>
<totfact> 0.49451811E+04</totfact>
</mgrwt>
</event>
<event>
 6    1  0.1661841E-002  0.9304268E+02  0.7546771E-02  0.1388123E+00
         -2   -1    0    0    0  501 -0.00000000000E+00  0.00000000000E+00  0.96277224710E+01  0.96277224710E+01  0.00000000000E+00 0.  1.
          2   -1    0    0  501    0  0.00000000000E+00 -0.00000000000E+00 -0.32489008890E+03  0.32489008890E+03  0.00000000000E+00 0. -1.
         23    2    1    2    0    0  0.16931464520E+02  0.81577540827E+01 -0.25992437098E+03  0.27607538515E+03  0.91124728878E+02 0.  0.
         11    1    3    3    0    0 -0.43844967621E+01 -0.36522663545E+02 -0.62340072007E+02  0.72383791985E+02  0.00000000000E+00 0. -1.
        -11    1    3    3    0    0  0.21315961282E+02  0.44680417628E+02 -0.19758429897E+03  0.20369159316E+03  0.00000000000E+00 0.  1.
         22    1    1    2    0    0 -0.16931464520E+02 -0.81577540827E+01 -0.55337995446E+02  0.58442426220E+02  0.00000000000E+00 0. -1.
<mgrwt>
<rscale>  0 0.62376045E+02</rscale>
<asrwt>0</asrwt>
<pdfrwt beam="1">  1        2 0.49983098E-01 0.93042677E+02</pdfrwt>
<pdfrwt beam="2">  1       -2 0.14811878E-02 0.93042677E+02</pdfrwt>
<totfact> 0.10384739E+05</totfact>
</mgrwt>
</event>
<event>
 6    1  0.1661841E-002  0.9269064E+02  0.7546771E-02  0.1405371E+00
         -4   -1    0    0    0  501 -0.00000000000E+00  0.00000000000E+00  0.43583265805E+03  0.43583265805E+03  0.00000000000E+00 0.  1.
          4   -1    0    0  501    0  0.00000000000E+00 -0.00000000000E+00 -0.77911964534E+01  0.77911964534E+01  0.00000000000E+00 0. -1.
         23    2    1    2    0    0  0.14394703961E+02 -0.12246707979E+01  0.41081276533E+03  0.42113974243E+03  0.91557889753E+02 0.  0.
         13    1    3    3    0    0  0.33692228371E+02  0.90528623097E+01  0.38791320868E+03  0.38947885442E+03  0.00000000000E+00 0.  1.
        -13    1    3    3    0    0 -0.19297524410E+02 -0.10277533108E+02  0.22899556649E+02  0.31660888015E+02  0.00000000000E+00 0. -1.
         22    1    1    2    0    0 -0.14394703961E+02  0.12246707979E+01  0.17228696269E+02  0.22484112075E+02  0.00000000000E+00 0. -1.
<mgrwt>
<rscale>  0 0.58239698E+02</rscale>
<asrwt>0</asrwt>
<pdfrwt beam="1">  1        4 0.11986459E-02 0.92690639E+02</pdfrwt>
<pdfrwt beam="2">  1       -4 0.67051159E-01 0.92690639E+02</pdfrwt>
<totfact> 0.68851842E+03</totfact>
</mgrwt>
</event>
<event>
 6    1  0.1661841E-002  0.9737180E+02  0.7546771E-02  0.1348727E+00
          2   -1    0    0  501    0  0.00000000000E+00  0.00000000000E+00  0.77024180882E+02  0.77024180882E+02  0.00000000000E+00 0. -1.
         -2   -1    0    0    0  501 -0.00000000000E+00 -0.00000000000E+00 -0.62210403780E+02  0.62210403780E+02  0.00000000000E+00 0.  1.
         23    2    1    2    0    0 -0.15467273500E+02 -0.27478145752E+02  0.33026674843E+02  0.10282037469E+03  0.92124823786E+02 0.  0.
         13    1    3    3    0    0 -0.15245883603E+02 -0.59830111286E+02  0.33938201561E+02  0.70454813238E+02  0.00000000000E+00 0. -1.
        -13    1    3    3    0    0 -0.22138989718E+00  0.32351965534E+02 -0.91152671751E+00  0.32365561456E+02  0.00000000000E+00 0.  1.
         22    1    1    2    0    0  0.15467273500E+02  0.27478145752E+02 -0.18212897740E+02  0.36414209968E+02  0.00000000000E+00 0. -1.
<mgrwt>
<rscale>  0 0.73453717E+02</rscale>
<asrwt>0</asrwt>
<pdfrwt beam="1">  1        2 0.11849874E-01 0.97371804E+02</pdfrwt>
<pdfrwt beam="2">  1       -2 0.95708314E-02 0.97371804E+02</pdfrwt>
<totfact> 0.32532553E+04</totfact>
</mgrwt>
</event>
<event>
 6    1  0.1661841E-002  0.9364426E+02  0.7546771E-02  0.1411285E+00
         -2   -1    0    0    0  501 -0.00000000000E+00  0.00000000000E+00  0.11439194297E+03  0.11439194297E+03  0.00000000000E+00 0.  1.
          2   -1    0    0  501    0  0.00000000000E+00 -0.00000000000E+00 -0.25026100584E+02  0.25026100584E+02  0.00000000000E+00 0. -1.
         23    2    1    2    0    0  0.70905015441E+01  0.10622820409E+02  0.73461648033E+02  0.11902042301E+03  0.92769218157E+02 0.  0.
         13    1    3    3    0    0 -0.16011753232E+02 -0.34547283997E+02  0.50717640814E+02  0.63420581539E+02  0.00000000000E+00 0.  1.
        -13    1    3    3    0    0  0.23102254776E+02  0.45170104406E+02  0.22744007219E+02  0.55599841475E+02  0.00000000000E+00 0. -1.
         22    1    1    2    0    0 -0.70905015441E+01 -0.10622820409E+02  0.15904194352E+02  0.20397620537E+02  0.00000000000E+00 0.  1.
<mgrwt>
<rscale>  0 0.56908104E+02</rscale>
<asrwt>0</asrwt>
<pdfrwt beam="1">  1        2 0.38501694E-02 0.93644260E+02</pdfrwt>
<pdfrwt beam="2">  1       -2 0.17598760E-01 0.93644260E+02</pdfrwt>
<totfact> 0.50337720E+04</totfact>
</mgrwt>
</event>
<event>
 6    1  0.1661841E-002  0.9080513E+02  0.7546771E-02  0.1431689E+00
          2   -1    0    0  501    0  0.00000000000E+00  0.00000000000E+00  0.23974826697E+02  0.23974826697E+02  0.00000000000E+00 0.  1.
         -2   -1    0    0    0  501 -0.00000000000E+00 -0.00000000000E+00 -0.10766467252E+03  0.10766467252E+03  0.00000000000E+00 0. -1.
         23    2    1    2    0    0  0.49061337617E+01 -0.89897052942E+01 -0.79062861833E+02  0.12040144198E+03  0.90225751085E+02 0.  0.
         11    1    3    3    0    0 -0.14686782690E+02  0.37291983768E+02 -0.29062812269E+02  0.49507986185E+02  0.00000000000E+00 0. -1.
        -11    1    3    3    0    0  0.19592916452E+02 -0.46281689062E+02 -0.50000049564E+02  0.70893455790E+02  0.00000000000E+00 0.  1.
         22    1    1    2    0    0 -0.49061337617E+01  0.89897052942E+01 -0.46269839929E+01  0.11238057245E+02  0.00000000000E+00 0.  1.
<mgrwt>
<rscale>  0 0.52622554E+02</rscale>
<asrwt>0</asrwt>
<pdfrwt beam="1">  1        2 0.36884349E-02 0.90805127E+02</pdfrwt>
<pdfrwt beam="2">  1       -2 0.16563795E-01 0.90805127E+02</pdfrwt>
<totfact> 0.58566919E+04</totfact>
</mgrwt>
</event>
<event>
 6    1  0.1661841E-002  0.8864199E+02  0.7546771E-02  0.1409479E+00
         -1   -1    0    0    0  501 -0.00000000000E+00  0.00000000000E+00  0.14473648221E+02  0.14473648221E+02  0.00000000000E+00 0.  1.
          1   -1    0    0  501    0  0.00000000000E+00 -0.00000000000E+00 -0.20342607854E+03  0.20342607854E+03  0.00000000000E+00 0. -1.
         23    2    1    2    0    0  0.14932064332E+02  0.41147567291E+01 -0.13291894776E+03  0.15976497866E+03  0.87278313267E+02 0.  0.
         13    1    3    3    0    0  0.71596642837E+01  0.33131626265E+02 -0.12382231096E+03  0.12837807501E+03  0.00000000000E+00 0. -1.
        -13    1    3    3    0    0  0.77724000488E+01 -0.29016869536E+02 -0.90966368001E+01  0.31386903658E+02  0.00000000000E+00 0.  1.
         22    1    1    2    0    0 -0.14932064332E+02 -0.41147567291E+01 -0.56033482566E+02  0.58134748100E+02  0.00000000000E+00 0. -1.
<mgrwt>
<rscale>  0 0.57310327E+02</rscale>
<asrwt>0</asrwt>
<pdfrwt beam="1">  1        1 0.31296322E-01 0.88641986E+02</pdfrwt>
<pdfrwt beam="2">  1       -1 0.22267150E-02 0.88641986E+02</pdfrwt>
<totfact> 0.72010988E+04</totfact>
</mgrwt>
</event>
<event>
 6    1  0.1661841E-002  0.8925911E+02  0.7546771E-02  0.1432846E+00
          2   -1    0    0  501    0  0.00000000000E+00  0.00000000000E+00  0.26463649274E+02  0.26463649274E+02  0.00000000000E+00 0.  1.
         -2   -1    0    0    0  501 -0.00000000000E+00 -0.00000000000E+00 -0.94612935964E+02  0.94612935964E+02  0.00000000000E+00 0. -1.
         23    2    1    2    0    0  0.80912117753E+01 -0.68413622077E+01 -0.58313114727E+02  0.10661898434E+03  0.88627966961E+02 0.  0.
         11    1    3    3    0    0 -0.23770354237E+02 -0.20087248576E+02 -0.64451661431E+02  0.71571949513E+02  0.00000000000E+00 0. -1.
        -11    1    3    3    0    0  0.31861566013E+02  0.13245886368E+02  0.61385467045E+01  0.35047034826E+02  0.00000000000E+00 0.  1.
         22    1    1    2    0    0 -0.80912117753E+01  0.68413622077E+01 -0.98361719629E+01  0.14457600898E+02  0.00000000000E+00 0. -1.
<mgrwt>
<rscale>  0 0.52393006E+02</rscale>
<asrwt>0</asrwt>
<pdfrwt beam="1">  1        2 0.40713307E-02 0.89259109E+02</pdfrwt>
<pdfrwt beam="2">  1       -2 0.14555836E-01 0.89259109E+02</pdfrwt>
<totfact> 0.63304043E+04</totfact>
</mgrwt>
</event>
<event>
 6    1  0.1661841E-002  0.9704790E+02  0.7546771E-02  0.1362458E+00
          2   -1    0    0  501    0  0.00000000000E+00  0.00000000000E+00  0.36979244338E+03  0.36979244338E+03  0.00000000000E+00 0. -1.
         -2   -1    0    0    0  501 -0.00000000000E+00 -0.00000000000E+00 -0.10128604623E+02  0.10128604623E+02  0.00000000000E+00 0.  1.
         23    2    1    2    0    0 -0.24802920401E+02  0.47129762043E+01  0.29163427823E+03  0.30735784720E+03  0.93706440509E+02 0.  0.
         13    1    3    3    0    0 -0.55318526564E+02  0.15174769235E+02  0.12369485134E+03  0.13634819122E+03  0.00000000000E+00 0.  1.
        -13    1    3    3    0    0  0.30515606163E+02 -0.10461793030E+02  0.16793942689E+03  0.17100965598E+03  0.00000000000E+00 0. -1.
         22    1    1    2    0    0  0.24802920401E+02 -0.47129762043E+01  0.68029560532E+02  0.72563200806E+02  0.00000000000E+00 0.  1.
<mgrwt>
<rscale>  0 0.69309193E+02</rscale>
<asrwt>0</asrwt>
<pdfrwt beam="1">  1        2 0.56891135E-01 0.97047895E+02</pdfrwt>
<pdfrwt beam="2">  1       -2 0.15582471E-02 0.97047895E+02</pdfrwt>
<totfact> 0.84838399E+04</totfact>
</mgrwt>
</event>
<event>
 6    1  0.1661841E-002  0.1027478E+03  0.7546771E-02  0.1321603E+00
          1   -1    0    0  501    0  0.00000000000E+00  0.00000000000E+00  0.15670375993E+03  0.15670375993E+03  0.00000000000E+00 0.  1.
         -1   -1    0    0    0  501 -0.00000000000E+00 -0.00000000000E+00 -0.35486123067E+02  0.35486123067E+02  0.00000000000E+00 0. -1.
         23    2    1    2    0    0  0.34470102491E+02 -0.25854215682E+02  0.65877269802E+02  0.12205298357E+03  0.93276404778E+02 0.  0.
         13    1    3    3    0    0 -0.14120942314E+02 -0.30950493071E+02  0.64795702712E+02  0.73183448423E+02  0.00000000000E+00 0.  1.
        -13    1    3    3    0    0  0.48591044805E+02  0.50962773886E+01  0.10815670903E+01  0.48869535150E+02  0.00000000000E+00 0. -1.
         22    1    1    2    0    0 -0.34470102491E+02  0.25854215682E+02  0.55340367059E+02  0.70136899422E+02  0.00000000000E+00 0. -1.
<mgrwt>
<rscale>  0 0.82683740E+02</rscale>
<asrwt>0</asrwt>
<pdfrwt beam="1">  1        1 0.24108270E-01 0.10274783E+03</pdfrwt>
<pdfrwt beam="2">  1       -1 0.54594036E-02 0.10274783E+03</pdfrwt>
<totfact> 0.27628012E+04</totfact>
</mgrwt>
</event>
<event>
 6    1  0.1661841E-002  0.9377473E+02  0.7546771E-02  0.1400791E+00
          1   -1    0    0  501    0  0.00000000000E+00  0.00000000000E+00  0.15391226338E+02  0.15391226338E+02  0.00000000000E+00 0. -1.
         -1   -1    0    0    0  501 -0.00000000000E+00 -0.00000000000E+00 -0.19701756758E+03  0.19701756758E+03  0.00000000000E+00 0.  1.
         23    2    1    2    0    0 -0.11197407809E+02 -0.99747404152E+01 -0.16660754163E+03  0.19118518137E+03  0.92567938604E+02 0.  0.
         13    1    3    3    0    0 -0.30352718864E+02  0.30382427003E+02 -0.47812385301E+02  0.64268216104E+02  0.00000000000E+00 0. -1.
        -13    1    3    3    0    0  0.19155311054E+02 -0.40357167419E+02 -0.11879515633E+03  0.12691696526E+03  0.00000000000E+00 0.  1.
         22    1    1    2    0    0  0.11197407809E+02  0.99747404152E+01 -0.15018799607E+02  0.21223612549E+02  0.00000000000E+00 0. -1.
<mgrwt>
<rscale>  0 0.59300397E+02</rscale>
<asrwt>0</asrwt>
<pdfrwt beam="1">  1        1 0.23678811E-02 0.93774734E+02</pdfrwt>
<pdfrwt beam="2">  1       -1 0.30310394E-01 0.93774734E+02</pdfrwt>
<totfact> 0.41581599E+04</totfact>
</mgrwt>
</event>
<event>
 6    1  0.1661841E-002  0.9655459E+02  0.7546771E-02  0.1379879E+00
         -3   -1    0    0    0  501 -0.00000000000E+00  0.00000000000E+00  0.12877778061E+04  0.12877778061E+04  0.00000000000E+00 0.  1.
          3   -1    0    0  501    0  0.00000000000E+00 -0.00000000000E+00 -0.27903051016E+01  0.27903051016E+01  0.00000000000E+00 0. -1.
         23    2    1    2    0    0  0.51142539120E+01  0.18529172255E+02  0.11707420706E+04  0.11747168954E+04  0.94621894048E+02 0.  0.
         11    1    3    3    0    0 -0.58277142867E+01 -0.18398619821E+02  0.54600716011E+02  0.57911222177E+02  0.00000000000E+00 0. -1.
        -11    1    3    3    0    0  0.10941968199E+02  0.36927792076E+02  0.11161413545E+04  0.11168056733E+04  0.00000000000E+00 0.  1.
         22    1    1    2    0    0 -0.51142539120E+01 -0.18529172255E+02  0.11424543041E+03  0.11585121573E+03  0.00000000000E+00 0. -1.
<mgrwt>
<rscale>  0 0.64495500E+02</rscale>
<asrwt>0</asrwt>
<pdfrwt beam="1">  1        3 0.42927874E-03 0.96554589E+02</pdfrwt>
<pdfrwt beam="2">  1       -3 0.19811919E+00 0.96554589E+02</pdfrwt>
<totfact> 0.34166214E+03</totfact>
</mgrwt>
</event>
<event>
 6    1  0.1661841E-002  0.9956134E+02  0.7546771E-02  0.1342457E+00
          2   -1    0    0  501    0  0.00000000000E+00  0.00000000000E+00  0.15100736232E+02  0.15100736232E+02  0.00000000000E+00 0. -1.
         -2   -1    0    0    0  501 -0.00000000000E+00 -0.00000000000E+00 -0.29603035930E+03  0.29603035930E+03  0.00000000000E+00 0.  1.
         23    2    1    2    0    0 -0.29879768267E+02 -0.13654584492E+02 -0.22865839599E+03  0.24939351047E+03  0.93985173177E+02 0.  0.
         13    1    3    3    0    0 -0.59666115429E+02 -0.27030018496E+02 -0.17123713930E+03  0.18333800780E+03  0.00000000000E+00 0.  1.
        -13    1    3    3    0    0  0.29786347163E+02  0.13375434004E+02 -0.57421256691E+02  0.66055502663E+02  0.00000000000E+00 0. -1.
         22    1    1    2    0    0  0.29879768267E+02  0.13654584492E+02 -0.52271227079E+02  0.61737585065E+02  0.00000000000E+00 0. -1.
<mgrwt>
<rscale>  0 0.75458510E+02</rscale>
<asrwt>0</asrwt>
<pdfrwt beam="1">  1        2 0.23231904E-02 0.99561343E+02</pdfrwt>
<pdfrwt beam="2">  1       -2 0.45543129E-01 0.99561343E+02</pdfrwt>
<totfact> 0.18384563E+04</totfact>
</mgrwt>
</event>
<event>
 6    1  0.1661841E-002  0.9045353E+02  0.7546771E-02  0.1425337E+00
         -1   -1    0    0    0  501 -0.00000000000E+00  0.00000000000E+00  0.35900431863E+02  0.35900431863E+02  0.00000000000E+00 0.  1.
          1   -1    0    0  501    0  0.00000000000E+00 -0.00000000000E+00 -0.88251302346E+02  0.88251302346E+02  0.00000000000E+00 0. -1.
         23    2    1    2    0    0  0.76750702487E+01  0.84440259760E+01 -0.23989113329E+02  0.93580546027E+02  0.89730890770E+02 0.  0.
         13    1    3    3    0    0  0.42995867884E+02 -0.84676123504E+01  0.60341642943E+01  0.44235237681E+02  0.00000000000E+00 0.  1.
        -13    1    3    3    0    0 -0.35320797635E+02  0.16911638326E+02 -0.30023277624E+02  0.49345308346E+02  0.00000000000E+00 0. -1.
         22    1    1    2    0    0 -0.76750702487E+01 -0.84440259760E+01 -0.28361757153E+02  0.30571188182E+02  0.00000000000E+00 0. -1.
<mgrwt>
<rscale>  0 0.53907472E+02</rscale>
<asrwt>0</asrwt>
<pdfrwt beam="1">  1        1 0.13577123E-01 0.90453530E+02</pdfrwt>
<pdfrwt beam="2">  1       -1 0.55231433E-02 0.90453530E+02</pdfrwt>
<totfact> 0.55277796E+04</totfact>
</mgrwt>
</event>
<event>
 6    1  0.1661841E-002  0.9247718E+02  0.7546771E-02  0.1390902E+00
          1   -1    0    0  501    0  0.00000000000E+00  0.00000000000E+00  0.23716918868E+03  0.23716918868E+03  0.00000000000E+00 0. -1.
         -1   -1    0    0    0  501 -0.00000000000E+00 -0.00000000000E+00 -0.13149143966E+02  0.13149143966E+02  0.00000000000E+00 0.  1.
         23    2    1    2    0    0 -0.16234217478E+02  0.84555944893E+01  0.17389226468E+03  0.19695316398E+03  0.90647571351E+02 0.  0.
         11    1    3    3    0    0  0.98471851746E+01 -0.44334072705E+01  0.16661475645E+03  0.16696436513E+03  0.00000000000E+00 0. -1.
        -11    1    3    3    0    0 -0.26081402653E+02  0.12889001760E+02  0.72775082312E+01  0.29988798855E+02  0.00000000000E+00 0.  1.
         22    1    1    2    0    0  0.16234217478E+02 -0.84555944893E+01  0.50127780032E+02  0.53365168661E+02  0.00000000000E+00 0. -1.
<mgrwt>
<rscale>  0 0.61682808E+02</rscale>
<asrwt>0</asrwt>
<pdfrwt beam="1">  1        1 0.36487564E-01 0.92477181E+02</pdfrwt>
<pdfrwt beam="2">  1       -1 0.20229454E-02 0.92477181E+02</pdfrwt>
<totfact> 0.68877263E+04</totfact>
</mgrwt>
</event>
<event>
 6    1  0.1661841E-002  0.9242969E+02  0.7546771E-02  0.1420207E+00
          3   -1    0    0  501    0  0.00000000000E+00  0.00000000000E+00  0.90065354166E+02  0.90065354166E+02  0.00000000000E+00 0. -1.
         -3   -1    0    0    0  501 -0.00000000000E+00 -0.00000000000E+00 -0.31393051820E+02  0.31393051820E+02  0.00000000000E+00 0.  1.
         23    2    1    2    0    0  0.95972356159E+01  0.64602504221E+01  0.42905648011E+02  0.10190261002E+03  0.91702810919E+02 0.  0.
         11    1    3    3    0    0  0.40366270074E+02  0.17502843666E+02  0.51858759454E+02  0.68008207066E+02  0.00000000000E+00 0. -1.
        -11    1    3    3    0    0 -0.30769034459E+02 -0.11042593243E+02 -0.89531114434E+01  0.33894402953E+02  0.00000000000E+00 0.  1.
         22    1    1    2    0    0 -0.95972356159E+01 -0.64602504221E+01  0.15766654335E+02  0.19555795967E+02  0.00000000000E+00 0. -1.
<mgrwt>
<rscale>  0 0.54977195E+02</rscale>
<asrwt>0</asrwt>
<pdfrwt beam="1">  1        3 0.13856208E-01 0.92429688E+02</pdfrwt>
<pdfrwt beam="2">  1       -3 0.48297003E-02 0.92429688E+02</pdfrwt>
<totfact> 0.20979910E+04</totfact>
</mgrwt>
</event>
<event>
 6    1  0.1661841E-002  0.8653657E+02  0.7546771E-02  0.1432453E+00
         -1   -1    0    0    0  501 -0.00000000000E+00  0.00000000000E+00  0.40348765875E+03  0.40348765875E+03  0.00000000000E+00 0.  1.
          1   -1    0    0  501    0  0.00000000000E+00 -0.00000000000E+00 -0.12692280995E+02  0.12692280995E+02  0.00000000000E+00 0. -1.
         23    2    1    2    0    0  0.12145407880E+01 -0.11633632678E+02  0.39452400370E+03  0.40390316614E+03  0.85742414288E+02 0.  0.
         11    1    3    3    0    0  0.15414764633E+02 -0.46265458914E+02  0.24074794673E+03  0.24563729666E+03  0.00000000000E+00 0. -1.
        -11    1    3    3    0    0 -0.14200223845E+02  0.34631826236E+02  0.15377605697E+03  0.15826586948E+03  0.00000000000E+00 0.  1.
         22    1    1    2    0    0 -0.12145407880E+01  0.11633632678E+02 -0.37286259439E+01  0.12276773601E+02  0.00000000000E+00 0.  1.
<mgrwt>
<rscale>  0 0.52470727E+02</rscale>
<asrwt>0</asrwt>
<pdfrwt beam="1">  1        1 0.19526589E-02 0.86536571E+02</pdfrwt>
<pdfrwt beam="2">  1       -1 0.62075015E-01 0.86536571E+02</pdfrwt>
<totfact> 0.15140698E+04</totfact>
</mgrwt>
</event>
<event>
 6    1  0.1661841E-002  0.9158625E+02  0.7546771E-02  0.1382726E+00
         -2   -1    0    0    0  501 -0.00000000000E+00  0.00000000000E+00  0.94607228401E+01  0.94607228401E+01  0.00000000000E+00 0.  1.
          2   -1    0    0  501    0  0.00000000000E+00 -0.00000000000E+00 -0.43767726173E+03  0.43767726173E+03  0.00000000000E+00 0. -1.
         23    2    1    2    0    0 -0.12482770380E+02  0.17509003576E+02 -0.40606784611E+03  0.41626810679E+03  0.89026155247E+02 0.  0.
         11    1    3    3    0    0 -0.43730441353E+02  0.28156101903E+02 -0.16644276209E+03  0.17437978847E+03  0.00000000000E+00 0. -1.
        -11    1    3    3    0    0  0.31247670973E+02 -0.10647098327E+02 -0.23962508402E+03  0.24188831831E+03  0.00000000000E+00 0.  1.
         22    1    1    2    0    0  0.12482770380E+02 -0.17509003576E+02 -0.22148692774E+02  0.30869877781E+02  0.00000000000E+00 0.  1.
<mgrwt>
<rscale>  0 0.63752636E+02</rscale>
<asrwt>0</asrwt>
<pdfrwt beam="1">  1        2 0.67334966E-01 0.91586249E+02</pdfrwt>
<pdfrwt beam="2">  1       -2 0.14554958E-02 0.91586249E+02</pdfrwt>
<totfact> 0.77655303E+04</totfact>
</mgrwt>
</event>
<event>
 6    1  0.1661841E-002  0.9422407E+02  0.7546771E-02  0.1415387E+00
          2   -1    0    0  501    0  0.00000000000E+00  0.00000000000E+00  0.79057179611E+01  0.79057179611E+01  0.00000000000E+00 0. -1.
         -2   -1    0    0    0  501 -0.00000000000E+00 -0.00000000000E+00 -0.37968110233E+03  0.37968110233E+03  0.00000000000E+00 0.  1.
         23    2    1    2    0    0  0.65738985613E+01  0.97553472068E+01 -0.35358421116E+03  0.36592344742E+03  0.93486854951E+02 0.  0.
         13    1    3    3    0    0 -0.38531503690E+02 -0.15440619671E+02 -0.13089115619E+03  0.13731563742E+03  0.00000000000E+00 0. -1.
        -13    1    3    3    0    0  0.45105402252E+02  0.25195966878E+02 -0.22269305497E+03  0.22860781000E+03  0.00000000000E+00 0.  1.
         22    1    1    2    0    0 -0.65738985613E+01 -0.97553472068E+01 -0.18191173206E+02  0.21663372868E+02  0.00000000000E+00 0. -1.
<mgrwt>
<rscale>  0 0.56008857E+02</rscale>
<asrwt>0</asrwt>
<pdfrwt beam="1">  1        2 0.12162643E-02 0.94224068E+02</pdfrwt>
<pdfrwt beam="2">  1       -2 0.58412476E-01 0.94224068E+02</pdfrwt>
<totfact> 0.26849650E+04</totfact>
</mgrwt>
</event>
<event>
 6    1  0.1661841E-002  0.9403692E+02  0.7546771E-02  0.1379361E+00
         -2   -1    0    0    0  501 -0.00000000000E+00  0.00000000000E+00  0.78080843399E+01  0.78080843399E+01  0.00000000000E+00 0.  1.
          2   -1    0    0  501    0  0.00000000000E+00 -0.00000000000E+00 -0.42369043689E+03  0.42369043689E+03  0.00000000000E+00 0. -1.
         23    2    1    2    0    0  0.50259284286E+01 -0.20373713665E+02 -0.33750312815E+03  0.35035882082E+03  0.91665662329E+02 0.  0.
         13    1    3    3    0    0  0.12789717007E+02 -0.49661734485E+02 -0.28634688037E+03  0.29090273397E+03  0.00000000000E+00 0. -1.
        -13    1    3    3    0    0 -0.77637885786E+01  0.29288020820E+02 -0.51156247778E+02  0.59456086849E+02  0.00000000000E+00 0.  1.
         22    1    1    2    0    0 -0.50259284286E+01  0.20373713665E+02 -0.78379224407E+02  0.81139700417E+02  0.00000000000E+00 0.  1.
<mgrwt>
<rscale>  0 0.64632107E+02</rscale>
<asrwt>0</asrwt>
<pdfrwt beam="1">  1        2 0.65183137E-01 0.94036917E+02</pdfrwt>
<pdfrwt beam="2">  1       -2 0.12012439E-02 0.94036917E+02</pdfrwt>
<totfact> 0.10603622E+05</totfact>
</mgrwt>
</event>
<event>
 6    1  0.1661841E-002  0.8920162E+02  0.7546771E-02  0.1397703E+00
          2   -1    0    0  501    0  0.00000000000E+00  0.00000000000E+00  0.52551235604E+02  0.52551235604E+02  0.00000000000E+00 0. -1.
         -2   -1    0    0    0  501 -0.00000000000E+00 -0.00000000000E+00 -0.58737200947E+02  0.58737200947E+02  0.00000000000E+00 0.  1.
         23    2    1    2    0    0 -0.18296555198E+02 -0.98974171587E-01  0.58411310905E+01  0.89392665804E+02  0.87304960678E+02 0.  0.
         11    1    3    3    0    0 -0.32472486351E+02 -0.32073189785E+02 -0.15757839664E+02  0.48285208746E+02  0.00000000000E+00 0.  1.
        -11    1    3    3    0    0  0.14175931153E+02  0.31974215613E+02  0.21598970754E+02  0.41107457058E+02  0.00000000000E+00 0. -1.
         22    1    1    2    0    0  0.18296555198E+02  0.98974171587E-01 -0.12027096433E+02  0.21895770748E+02  0.00000000000E+00 0.  1.
<mgrwt>
<rscale>  0 0.60030712E+02</rscale>
<asrwt>0</asrwt>
<pdfrwt beam="1">  1        2 0.80848055E-02 0.89201625E+02</pdfrwt>
<pdfrwt beam="2">  1       -2 0.90364925E-02 0.89201625E+02</pdfrwt>
<totfact> 0.55929297E+04</totfact>
</mgrwt>
</event>
<event>
 6    1  0.1661841E-002  0.9649624E+02  0.7546771E-02  0.1348158E+00
         -3   -1    0    0    0  501 -0.00000000000E+00  0.00000000000E+00  0.26167715700E+03  0.26167715700E+03  0.00000000000E+00 0.  1.
          3   -1    0    0  501    0  0.00000000000E+00 -0.00000000000E+00 -0.79177021856E+02  0.79177021856E+02  0.00000000000E+00 0. -1.
         23    2    1    2    0    0  0.22398851596E+02  0.23844823949E+02  0.24883526137E+03  0.26689045021E+03  0.90781280726E+02 0.  0.
         13    1    3    3    0    0  0.40155932620E+02  0.25709228773E+02  0.24368762406E+03  0.24830852077E+03  0.00000000000E+00 0.  1.
        -13    1    3    3    0    0 -0.17757081024E+02 -0.18644048232E+01  0.51476373148E+01  0.18581929441E+02  0.00000000000E+00 0. -1.
         22    1    1    2    0    0 -0.22398851596E+02 -0.23844823949E+02 -0.66335126233E+02  0.73963728640E+02  0.00000000000E+00 0. -1.
<mgrwt>
<rscale>  0 0.73632610E+02</rscale>
<asrwt>0</asrwt>
<pdfrwt beam="1">  1        3 0.12181080E-01 0.96496244E+02</pdfrwt>
<pdfrwt beam="2">  1       -3 0.40258024E-01 0.96496244E+02</pdfrwt>
<totfact> 0.71059774E+02</totfact>
</mgrwt>
</event>
<event>
 6    1  0.1661841E-002  0.9307868E+02  0.7546771E-02  0.1403477E+00
         -1   -1    0    0    0  501 -0.00000000000E+00  0.00000000000E+00  0.15027310868E+03  0.15027310868E+03  0.00000000000E+00 0.  1.
          1   -1    0    0  501    0  0.00000000000E+00 -0.00000000000E+00 -0.27281520532E+02  0.27281520532E+02  0.00000000000E+00 0. -1.
         23    2    1    2    0    0 -0.69574244163E+01  0.12947264366E+02  0.13108938401E+03  0.16077333883E+03  0.91910839786E+02 0.  0.
         11    1    3    3    0    0 -0.15842094845E+02  0.46486233179E+01 -0.99066181482E+01  0.19254161912E+02  0.00000000000E+00 0. -1.
        -11    1    3    3    0    0  0.88846704282E+01  0.82986410485E+01  0.14099600215E+03  0.14151917692E+03  0.00000000000E+00 0.  1.
         22    1    1    2    0    0  0.69574244163E+01 -0.12947264366E+02 -0.80977958592E+01  0.16781290381E+02  0.00000000000E+00 0. -1.
<mgrwt>
<rscale>  0 0.58675090E+02</rscale>
<asrwt>0</asrwt>
<pdfrwt beam="1">  1        1 0.41971571E-02 0.93078676E+02</pdfrwt>
<pdfrwt beam="2">  1       -1 0.23118939E-01 0.93078676E+02</pdfrwt>
<totfact> 0.29576820E+04</totfact>
</mgrwt>
</event>
<event>
 6    1  0.1661841E-002  0.9046608E+02  0.7546771E-02  0.1432660E+00
          4   -1    0    0  501    0  0.00000000000E+00  0.00000000000E+00  0.21040133722E+02  0.21040133722E+02  0.00000000000E+00 0.  1.
         -4   -1    0    0    0  501 -0.00000000000E+00 -0.00000000000E+00 -0.13490884106E+03  0.13490884106E+03  0.00000000000E+00 0. -1.
         23    2    1    2    0    0 -0.24363070373E+01 -0.99109617260E+01 -0.11425734940E+03  0.14573556218E+03  0.89888538971E+02 0.  0.
         13    1    3    3    0    0 -0.14024808928E+02 -0.33776408198E+02 -0.11344335502E+03  0.11919285135E+03  0.00000000000E+00 0. -1.
        -13    1    3    3    0    0  0.11588501891E+02  0.23865446472E+02 -0.81399438445E+00  0.26542710830E+02  0.00000000000E+00 0.  1.
         22    1    1    2    0    0  0.24363070373E+01  0.99109617260E+01  0.38864205949E+00  0.10213412601E+02  0.00000000000E+00 0.  1.
<mgrwt>
<rscale>  0 0.52429824E+02</rscale>
<asrwt>0</asrwt>
<pdfrwt beam="1">  1        4 0.32369438E-02 0.90466083E+02</pdfrwt>
<pdfrwt beam="2">  1       -4 0.20755205E-01 0.90466083E+02</pdfrwt>
<totfact> 0.14567667E+04</totfact>
</mgrwt>
</event>
<event>
 6    1  0.1661841E-002  0.9923231E+02  0.7546771E-02  0.1335097E+00
          2   -1    0    0  501    0  0.00000000000E+00  0.00000000000E+00  0.66756260993E+02  0.66756260993E+02  0.00000000000E+00 0. -1.
         -2   -1    0    0    0  501 -0.00000000000E+00 -0.00000000000E+00 -0.97640873785E+02  0.97640873785E+02  0.00000000000E+00 0.  1.
         23    2    1    2    0    0  0.34633883735E+02 -0.14896234084E+02 -0.60705045190E+02  0.11632779028E+03  0.91791331761E+02 0.  0.
         11    1    3    3    0    0 -0.60060645283E+01 -0.27422108048E+02  0.13231011961E+02  0.31033924960E+02  0.00000000000E+00 0. -1.
        -11    1    3    3    0    0  0.40639948264E+02  0.12525873964E+02 -0.73936057151E+02  0.85293865315E+02  0.00000000000E+00 0.  1.
         22    1    1    2    0    0 -0.34633883735E+02  0.14896234084E+02  0.29820432399E+02  0.48069344503E+02  0.00000000000E+00 0. -1.
<mgrwt>
<rscale>  0 0.77907545E+02</rscale>
<asrwt>0</asrwt>
<pdfrwt beam="1">  1        2 0.10270194E-01 0.99232315E+02</pdfrwt>
<pdfrwt beam="2">  1       -2 0.15021673E-01 0.99232315E+02</pdfrwt>
<totfact> 0.18953058E+04</totfact>
</mgrwt>
</event>
<event>
 6    1  0.1661841E-002  0.9078343E+02  0.7546771E-02  0.1426581E+00
         -2   -1    0    0    0  501 -0.00000000000E+00  0.00000000000E+00  0.11229453641E+02  0.11229453641E+02  0.00000000000E+00 0.  1.
          2   -1    0    0  501    0  0.00000000000E+00 -0.00000000000E+00 -0.23223831929E+03  0.23223831929E+03  0.00000000000E+00 0. -1.
         23    2    1    2    0    0  0.64062245336E+01  0.90339360198E+01 -0.19090702319E+03  0.21139328725E+03  0.90105375393E+02 0.  0.
         11    1    3    3    0    0  0.18731901171E+02 -0.35520629877E+02 -0.56952173012E+02  0.69686076652E+02  0.00000000000E+00 0. -1.
        -11    1    3    3    0    0 -0.12325676638E+02  0.44554565897E+02 -0.13395485018E+03  0.14170721059E+03  0.00000000000E+00 0.  1.
         22    1    1    2    0    0 -0.64062245336E+01 -0.90339360198E+01 -0.30101842458E+02  0.32074485688E+02  0.00000000000E+00 0.  1.
<mgrwt>
<rscale>  0 0.53652397E+02</rscale>
<asrwt>0</asrwt>
<pdfrwt beam="1">  1        2 0.35728972E-01 0.90783426E+02</pdfrwt>
<pdfrwt beam="2">  1       -2 0.17276083E-02 0.90783426E+02</pdfrwt>
<totfact> 0.11806015E+05</totfact>
</mgrwt>
</event>
<event>
 6    1  0.1661841E-002  0.9172158E+02  0.7546771E-02  0.1376068E+00
          3   -1    0    0  501    0  0.00000000000E+00  0.00000000000E+00  0.84903235434E+01  0.84903235434E+01  0.00000000000E+00 0. -1.
         -3   -1    0    0    0  501 -0.00000000000E+00 -0.00000000000E+00 -0.39544402285E+03  0.39544402285E+03  0.00000000000E+00 0.  1.
         23    2    1    2    0    0 -0.91202979970E+00 -0.23848840434E+02 -0.31822675695E+03  0.33118139735E+03  0.88562125794E+02 0.  0.
         13    1    3    3    0    0 -0.11899482420E+02 -0.16777763888E+02 -0.31742492424E+03  0.31809066879E+03  0.00000000000E+00 0.  1.
        -13    1    3    3    0    0  0.10987452620E+02 -0.70710765458E+01 -0.80183270999E+00  0.13090728562E+02  0.00000000000E+00 0. -1.
         22    1    1    2    0    0  0.91202979970E+00  0.23848840434E+02 -0.68726942353E+02  0.72752949037E+02  0.00000000000E+00 0. -1.
<mgrwt>
<rscale>  0 0.65508826E+02</rscale>
<asrwt>0</asrwt>
<pdfrwt beam="1">  1        3 0.13062034E-02 0.91721585E+02</pdfrwt>
<pdfrwt beam="2">  1       -3 0.60837554E-01 0.91721585E+02</pdfrwt>
<totfact> 0.10125882E+04</totfact>
</mgrwt>
</event>
<event>
 6    1  0.1661841E-002  0.9487877E+02  0.7546771E-02  0.1374743E+00
         -2   -1    0    0    0  501 -0.00000000000E+00  0.00000000000E+00  0.17726682869E+03  0.17726682869E+03  0.00000000000E+00 0.  1.
          2   -1    0    0  501    0  0.00000000000E+00 -0.00000000000E+00 -0.19308570250E+02  0.19308570250E+02  0.00000000000E+00 0. -1.
         23    2    1    2    0    0 -0.86223652603E+01  0.20279514984E+02  0.13118449033E+03  0.16189920294E+03  0.92284221280E+02 0.  0.
         13    1    3    3    0    0  0.38605929545E+02 -0.82491291799E+00  0.32469424625E+02  0.50451578894E+02  0.00000000000E+00 0. -1.
        -13    1    3    3    0    0 -0.47228294806E+02  0.21104427902E+02  0.98715065708E+02  0.11144762404E+03  0.00000000000E+00 0.  1.
         22    1    1    2    0    0  0.86223652603E+01 -0.20279514984E+02  0.26773768112E+02  0.34676196007E+02  0.00000000000E+00 0.  1.
<mgrwt>
<rscale>  0 0.65866117E+02</rscale>
<asrwt>0</asrwt>
<pdfrwt beam="1">  1        2 0.29705494E-02 0.94878772E+02</pdfrwt>
<pdfrwt beam="2">  1       -2 0.27271819E-01 0.94878772E+02</pdfrwt>
<totfact> 0.33742795E+04</totfact>
</mgrwt>
</event>
<event>
 6    1  0.1661841E-002  0.9095380E+02  0.7546771E-02  0.1406513E+00
         -2   -1    0    0    0  501 -0.00000000000E+00  0.00000000000E+00  0.97733691490E+01  0.97733691490E+01  0.00000000000E+00 0.  1.
          2   -1    0    0  501    0  0.00000000000E+00 -0.00000000000E+00 -0.30632631089E+03  0.30632631089E+03  0.00000000000E+00 0. -1.
         23    2    1    2    0    0  0.79819393516E+01 -0.12721867943E+02 -0.21952324428E+03  0.23761954516E+03  0.89705273997E+02 0.  0.
         11    1    3    3    0    0  0.74926795475E+01  0.34081785381E+02 -0.14860873320E+03  0.15265079078E+03  0.00000000000E+00 0. -1.
        -11    1    3    3    0    0  0.48925980416E+00 -0.46803653323E+02 -0.70914511079E+02  0.84968754381E+02  0.00000000000E+00 0.  1.
         22    1    1    2    0    0 -0.79819393516E+01  0.12721867943E+02 -0.77029697456E+02  0.78480134875E+02  0.00000000000E+00 0. -1.
<mgrwt>
<rscale>  0 0.57979269E+02</rscale>
<asrwt>0</asrwt>
<pdfrwt beam="1">  1        2 0.47127129E-01 0.90953799E+02</pdfrwt>
<pdfrwt beam="2">  1       -2 0.15035951E-02 0.90953799E+02</pdfrwt>
<totfact> 0.10772885E+05</totfact>
</mgrwt>
</event>
<event>
 6    1  0.1661841E-002  0.1026271E+03  0.7546771E-02  0.1317197E+00
         -1   -1    0    0    0  501 -0.00000000000E+00  0.00000000000E+00  0.19832638936E+03  0.19832638936E+03  0.00000000000E+00 0.  1.
          1   -1    0    0  501    0  0.00000000000E+00 -0.00000000000E+00 -0.32200404013E+02  0.32200404013E+02  0.00000000000E+00 0. -1.
         23    2    1    2    0    0  0.45706279032E+02  0.99942313443E+01  0.14853950681E+03  0.18054446819E+03  0.91342056634E+02 0.  0.
         11    1    3    3    0    0 -0.21760199936E+02  0.86652193458E+01  0.81848412093E+01  0.24810964374E+02  0.00000000000E+00 0. -1.
        -11    1    3    3    0    0  0.67466478968E+02  0.13290119985E+01  0.14035466560E+03  0.15573350382E+03  0.00000000000E+00 0.  1.
         22    1    1    2    0    0 -0.45706279032E+02 -0.99942313443E+01  0.17586478545E+02  0.49982325183E+02  0.00000000000E+00 0.  1.
<mgrwt>
<rscale>  0 0.84328808E+02</rscale>
<asrwt>0</asrwt>
<pdfrwt beam="1">  1        1 0.49539084E-02 0.10262709E+03</pdfrwt>
<pdfrwt beam="2">  1       -1 0.30511751E-01 0.10262709E+03</pdfrwt>
<totfact> 0.15152986E+04</totfact>
</mgrwt>
</event>
<event>
 6    1  0.1661841E-002  0.9730525E+02  0.7546771E-02  0.1364847E+00
          2   -1    0    0  501    0  0.00000000000E+00  0.00000000000E+00  0.36918031410E+01  0.36918031410E+01  0.00000000000E+00 0.  1.
         -2   -1    0    0    0  501 -0.00000000000E+00 -0.00000000000E+00 -0.14693312037E+04  0.14693312037E+04  0.00000000000E+00 0. -1.
         23    2    1    2    0    0 -0.14966980265E+02  0.18846600402E+02 -0.13951342980E+04  0.13985235147E+04  0.94282059954E+02 0.  0.
         13    1    3    3    0    0  0.28032713255E+02 -0.20705438610E+02 -0.72882393175E+03  0.72965668070E+03  0.00000000000E+00 0.  1.
        -13    1    3    3    0    0 -0.42999693519E+02  0.39552039011E+02 -0.66631036621E+03  0.66886683395E+03  0.00000000000E+00 0. -1.
         22    1    1    2    0    0  0.14966980265E+02 -0.18846600402E+02 -0.70505102620E+02  0.74499492215E+02  0.00000000000E+00 0.  1.
<mgrwt>
<rscale>  0 0.68620871E+02</rscale>
<asrwt>0</asrwt>
<pdfrwt beam="1">  1        2 0.56797001E-03 0.97305250E+02</pdfrwt>
<pdfrwt beam="2">  1       -2 0.22605084E+00 0.97305250E+02</pdfrwt>
<totfact> 0.29478338E+03</totfact>
</mgrwt>
</event>
<event>
 6    1  0.1661841E-002  0.9251798E+02  0.7546771E-02  0.1422322E+00
          2   -1    0    0  501    0  0.00000000000E+00  0.00000000000E+00  0.12814366649E+02  0.12814366649E+02  0.00000000000E+00 0.  1.
         -2   -1    0    0    0  501 -0.00000000000E+00 -0.00000000000E+00 -0.30149733031E+03  0.30149733031E+03  0.00000000000E+00 0. -1.
         23    2    1    2    0    0 -0.78162333883E+01  0.79759814244E+01 -0.28868134085E+03  0.30314434335E+03  0.91841529636E+02 0.  0.
         11    1    3    3    0    0  0.26859529960E+02  0.37646028574E+02 -0.16301893035E+03  0.16945155493E+03  0.00000000000E+00 0. -1.
        -11    1    3    3    0    0 -0.34675763348E+02 -0.29670047150E+02 -0.12566241050E+03  0.13369278842E+03  0.00000000000E+00 0.  1.
         22    1    1    2    0    0  0.78162333883E+01 -0.79759814244E+01 -0.16228132340E-02  0.11167353612E+02  0.00000000000E+00 0.  1.
<mgrwt>
<rscale>  0 0.54532721E+02</rscale>
<asrwt>0</asrwt>
<pdfrwt beam="1">  1        2 0.19714413E-02 0.92517979E+02</pdfrwt>
<pdfrwt beam="2">  1       -2 0.46384198E-01 0.92517979E+02</pdfrwt>
<totfact> 0.21933558E+04</totfact>
</mgrwt>
</event>
<event>
 6    1  0.1661841E-002  0.9060401E+02  0.7546771E-02  0.1426072E+00
         -2   -1    0    0    0  501 -0.00000000000E+00  0.00000000000E+00  0.58464265354E+02  0.58464265354E+02  0.00000000000E+00 0. -1.
          2   -1    0    0  501    0  0.00000000000E+00 -0.00000000000E+00 -0.45640630720E+02  0.45640630720E+02  0.00000000000E+00 0.  1.
         23    2    1    2    0    0  0.98082737207E+01  0.54640579887E+01  0.16887698439E+02  0.92164428005E+02  0.89905668720E+02 0.  0.
         11    1    3    3    0    0 -0.10198264920E+02 -0.29406223759E+02  0.36051784497E+02  0.47628371467E+02  0.00000000000E+00 0. -1.
        -11    1    3    3    0    0  0.20006538640E+02  0.34870281748E+02 -0.19164086059E+02  0.44536056538E+02  0.00000000000E+00 0.  1.
         22    1    1    2    0    0 -0.98082737207E+01 -0.54640579887E+01 -0.40640638042E+01  0.11940468068E+02  0.00000000000E+00 0.  1.
<mgrwt>
<rscale>  0 0.53756620E+02</rscale>
<asrwt>0</asrwt>
<pdfrwt beam="1">  1        2 0.70216355E-02 0.90604014E+02</pdfrwt>
<pdfrwt beam="2">  1       -2 0.89945023E-02 0.90604014E+02</pdfrwt>
<totfact> 0.67313566E+04</totfact>
</mgrwt>
</event>
<event>
 6    1  0.1661841E-002  0.9587373E+02  0.7546771E-02  0.1394378E+00
          2   -1    0    0  501    0  0.00000000000E+00  0.00000000000E+00  0.14153124643E+03  0.14153124643E+03  0.00000000000E+00 0. -1.
         -2   -1    0    0    0  501 -0.00000000000E+00 -0.00000000000E+00 -0.31292485288E+02  0.31292485288E+02  0.00000000000E+00 0.  1.
         23    2    1    2    0    0  0.14246837549E+02  0.62012947291E+01  0.45272732326E+02  0.10602542832E+03  0.94606250966E+02 0.  0.
         11    1    3    3    0    0 -0.32400723971E+01 -0.40608682360E+02  0.37661783913E+02  0.55479483773E+02  0.00000000000E+00 0. -1.
        -11    1    3    3    0    0  0.17486909946E+02  0.46809977089E+02  0.76109484122E+01  0.50545944548E+02  0.00000000000E+00 0.  1.
         22    1    1    2    0    0 -0.14246837549E+02 -0.62012947291E+01  0.64966028814E+02  0.66798303394E+02  0.00000000000E+00 0. -1.
<mgrwt>
<rscale>  0 0.60830762E+02</rscale>
<asrwt>0</asrwt>
<pdfrwt beam="1">  1        2 0.21774038E-01 0.95873725E+02</pdfrwt>
<pdfrwt beam="2">  1       -2 0.48142286E-02 0.95873725E+02</pdfrwt>
<totfact> 0.45717445E+04</totfact>
</mgrwt>
</event>
<event>
 6    1  0.1661841E-002  0.9138202E+02  0.7546771E-02  0.1422908E+00
          2   -1    0    0  501    0  0.00000000000E+00  0.00000000000E+00  0.43762722468E+02  0.43762722468E+02  0.00000000000E+00 0. -1.
         -2   -1    0    0    0  501 -0.00000000000E+00 -0.00000000000E+00 -0.64491984682E+02  0.64491984682E+02  0.00000000000E+00 0.  1.
         23    2    1    2    0    0  0.11258053855E+02 -0.22737250069E+01 -0.26843735074E+02  0.95243159188E+02  0.90657375085E+02 0.  0.
         11    1    3    3    0    0  0.27499882607E+02 -0.37420762453E+02 -0.31692288650E+02  0.56222399147E+02  0.00000000000E+00 0.  1.
        -11    1    3    3    0    0 -0.16241828752E+02  0.35147037446E+02  0.48485535756E+01  0.39020760041E+02  0.00000000000E+00 0. -1.
         22    1    1    2    0    0 -0.11258053855E+02  0.22737250069E+01  0.61144728597E+01  0.13011547962E+02  0.00000000000E+00 0. -1.
<mgrwt>
<rscale>  0 0.54410380E+02</rscale>
<asrwt>0</asrwt>
<pdfrwt beam="1">  1        2 0.67327265E-02 0.91382018E+02</pdfrwt>
<pdfrwt beam="2">  1       -2 0.99218438E-02 0.91382018E+02</pdfrwt>
<totfact> 0.61042104E+04</totfact>
</mgrwt>
</event>
<event>
 6    1  0.1661841E-002  0.7917756E+02  0.7546771E-02  0.1410335E+00
         -3   -1    0    0    0  501 -0.00000000000E+00  0.00000000000E+00  0.10737151121E+03  0.10737151121E+03  0.00000000000E+00 0.  1.
          3   -1    0    0  501    0  0.00000000000E+00 -0.00000000000E+00 -0.23906842816E+02  0.23906842816E+02  0.00000000000E+00 0. -1.
         23    2    1    2    0    0  0.40887556327E+01  0.21051402087E+02  0.71705049012E+02  0.10682087867E+03  0.76218151478E+02 0.  0.
         11    1    3    3    0    0  0.20268183590E+02  0.18962756107E+02  0.82643201211E+02  0.87179608232E+02  0.00000000000E+00 0.  1.
        -11    1    3    3    0    0 -0.16179427958E+02  0.20886459798E+01 -0.10938152199E+02  0.19641270442E+02  0.00000000000E+00 0. -1.
         22    1    1    2    0    0 -0.40887556327E+01 -0.21051402087E+02  0.11759619378E+02  0.24457475347E+02  0.00000000000E+00 0. -1.
<mgrwt>
<rscale>  0 0.57119196E+02</rscale>
<asrwt>0</asrwt>
<pdfrwt beam="1">  1        3 0.36779759E-02 0.79177560E+02</pdfrwt>
<pdfrwt beam="2">  1       -3 0.16518694E-01 0.79177560E+02</pdfrwt>
<totfact> 0.22816527E+04</totfact>
</mgrwt>
</event>
<event>
 6    1  0.1661841E-002  0.9324457E+02  0.7546771E-02  0.1409661E+00
         -2   -1    0    0    0  501 -0.00000000000E+00  0.00000000000E+00  0.76177072628E+01  0.76177072628E+01  0.00000000000E+00 0.  1.
          2   -1    0    0  501    0  0.00000000000E+00 -0.00000000000E+00 -0.38683263495E+03  0.38683263495E+03  0.00000000000E+00 0. -1.
         23    2    1    2    0    0 -0.12080495944E+02 -0.54879234273E+01 -0.30080582590E+03  0.31492649089E+03  0.92295688331E+02 0.  0.
         11    1    3    3    0    0 -0.30531863529E+01  0.12887342321E+01 -0.30333965122E+03  0.30335775379E+03  0.00000000000E+00 0. -1.
        -11    1    3    3    0    0 -0.90273095907E+01 -0.67766576594E+01  0.25338253160E+01  0.11568737105E+02  0.00000000000E+00 0.  1.
         22    1    1    2    0    0  0.12080495944E+02  0.54879234273E+01 -0.78409101788E+02  0.79523851321E+02  0.00000000000E+00 0. -1.
<mgrwt>
<rscale>  0 0.57269570E+02</rscale>
<asrwt>0</asrwt>
<pdfrwt beam="1">  1        2 0.59512709E-01 0.93244570E+02</pdfrwt>
<pdfrwt beam="2">  1       -2 0.11719550E-02 0.93244570E+02</pdfrwt>
<totfact> 0.12074016E+05</totfact>
</mgrwt>
</event>
<event>
 6    1  0.1661841E-002  0.9588527E+02  0.7546771E-02  0.1376952E+00
          2   -1    0    0  501    0  0.00000000000E+00  0.00000000000E+00  0.21045015260E+03  0.21045015260E+03  0.00000000000E+00 0. -1.
         -2   -1    0    0    0  501 -0.00000000000E+00 -0.00000000000E+00 -0.17841294174E+02  0.17841294174E+02  0.00000000000E+00 0.  1.
         23    2    1    2    0    0 -0.69368116750E+01  0.19385827663E+02  0.12453351033E+03  0.15717054486E+03  0.93648573438E+02 0.  0.
         11    1    3    3    0    0 -0.10543439796E+02  0.48605657439E+02  0.11646968889E+03  0.12664463071E+03  0.00000000000E+00 0. -1.
        -11    1    3    3    0    0  0.36066281211E+01 -0.29219829776E+02  0.80638214386E+01  0.30525914150E+02  0.00000000000E+00 0.  1.
         22    1    1    2    0    0  0.69368116750E+01 -0.19385827663E+02  0.68075348100E+02  0.71120901916E+02  0.00000000000E+00 0. -1.
<mgrwt>
<rscale>  0 0.65271809E+02</rscale>
<asrwt>0</asrwt>
<pdfrwt beam="1">  1        2 0.32376945E-01 0.95885270E+02</pdfrwt>
<pdfrwt beam="2">  1       -2 0.27448146E-02 0.95885270E+02</pdfrwt>
<totfact> 0.67798153E+04</totfact>
</mgrwt>
</event>
<event>
 6    1  0.1661841E-002  0.8513878E+02  0.7546771E-02  0.1434270E+00
          2   -1    0    0  501    0  0.00000000000E+00  0.00000000000E+00  0.70818939174E+02  0.70818939174E+02  0.00000000000E+00 0. -1.
         -2   -1    0    0    0  501 -0.00000000000E+00 -0.00000000000E+00 -0.36009450303E+02  0.36009450303E+02  0.00000000000E+00 0.  1.
         23    2    1    2    0    0  0.89910352965E+01 -0.78723683071E+01  0.19387830105E+02  0.87318380314E+02  0.84295899580E+02 0.  0.
         11    1    3    3    0    0 -0.16300496403E+02 -0.36748111758E+02 -0.69068207320E+01  0.40790122253E+02  0.00000000000E+00 0. -1.
        -11    1    3    3    0    0  0.25291531699E+02  0.28875743451E+02  0.26294650837E+02  0.46528258061E+02  0.00000000000E+00 0.  1.
         22    1    1    2    0    0 -0.89910352965E+01  0.78723683071E+01  0.15421658766E+02  0.19510009163E+02  0.00000000000E+00 0. -1.
<mgrwt>
<rscale>  0 0.52112450E+02</rscale>
<asrwt>0</asrwt>
<pdfrwt beam="1">  1        2 0.10895221E-01 0.85138778E+02</pdfrwt>
<pdfrwt beam="2">  1       -2 0.55399154E-02 0.85138778E+02</pdfrwt>
<totfact> 0.81015927E+04</totfact>
</mgrwt>
</event>
<event>
 6    1  0.1661841E-002  0.9350767E+02  0.7546771E-02  0.1423328E+00
         -2   -1    0    0    0  501 -0.00000000000E+00  0.00000000000E+00  0.68205461046E+02  0.68205461046E+02  0.00000000000E+00 0. -1.
          2   -1    0    0  501    0  0.00000000000E+00 -0.00000000000E+00 -0.41343795037E+02  0.41343795037E+02  0.00000000000E+00 0.  1.
         23    2    1    2    0    0  0.43347959610E+00  0.10642174082E+02  0.30401130080E+02  0.98325549937E+02  0.92899091957E+02 0.  0.
         11    1    3    3    0    0 -0.42275910823E+02  0.23259305906E+02  0.21891647593E+02  0.52985773387E+02  0.00000000000E+00 0. -1.
        -11    1    3    3    0    0  0.42709390419E+02 -0.12617131823E+02  0.85094824868E+01  0.45339776550E+02  0.00000000000E+00 0.  1.
         22    1    1    2    0    0 -0.43347959610E+00 -0.10642174082E+02 -0.35394640711E+01  0.11223706147E+02  0.00000000000E+00 0.  1.
<mgrwt>
<rscale>  0 0.54322910E+02</rscale>
<asrwt>0</asrwt>
<pdfrwt beam="1">  1        2 0.63605839E-02 0.93507674E+02</pdfrwt>
<pdfrwt beam="2">  1       -2 0.10493148E-01 0.93507674E+02</pdfrwt>
<totfact> 0.60308595E+04</totfact>
</mgrwt>
</event>
<event>
 6    1  0.1661841E-002  0.9327183E+02  0.7546771E-02  0.1365450E+00
          2   -1    0    0  501    0  0.00000000000E+00  0.00000000000E+00  0.68899337178E+02  0.68899337178E+02  0.00000000000E+00 0. -1.
         -2   -1    0    0    0  501 -0.00000000000E+00 -0.00000000000E+00 -0.52635099297E+02  0.52635099297E+02  0.00000000000E+00 0.  1.
         23    2    1    2    0    0  0.22706515876E+02 -0.14705223070E+02  0.10361384284E+02  0.93845573564E+02  0.89262556229E+02 0.  0.
         13    1    3    3    0    0 -0.21807382501E+02  0.24923773488E+02 -0.11880766436E+01  0.33138617088E+02  0.00000000000E+00 0. -1.
        -13    1    3    3    0    0  0.44513898376E+02 -0.39628996558E+02  0.11549460928E+02  0.60706956476E+02  0.00000000000E+00 0.  1.
         22    1    1    2    0    0 -0.22706515876E+02  0.14705223070E+02  0.59028535964E+01  0.27688862911E+02  0.00000000000E+00 0. -1.
<mgrwt>
<rscale>  0 0.68448525E+02</rscale>
<asrwt>0</asrwt>
<pdfrwt beam="1">  1        2 0.10599898E-01 0.93271825E+02</pdfrwt>
<pdfrwt beam="2">  1       -2 0.80977076E-02 0.93271825E+02</pdfrwt>
<totfact> 0.47841737E+04</totfact>
</mgrwt>
</event>
<event>
 6    1  0.1661841E-002  0.9259981E+02  0.7546771E-02  0.1415771E+00
          4   -1    0    0  501    0  0.00000000000E+00  0.00000000000E+00  0.70913911350E+01  0.70913911350E+01  0.00000000000E+00 0.  1.
         -4   -1    0    0    0  501 -0.00000000000E+00 -0.00000000000E+00 -0.38810031763E+03  0.38810031763E+03  0.00000000000E+00 0. -1.
         23    2    1    2    0    0  0.93498062314E+01  0.80229075737E+01 -0.33711078142E+03  0.34959748694E+03  0.91776565663E+02 0.  0.
         13    1    3    3    0    0  0.22389201563E+02  0.17755791635E+02 -0.33097733721E+03  0.33220858242E+03  0.00000000000E+00 0. -1.
        -13    1    3    3    0    0 -0.13039395331E+02 -0.97328840610E+01 -0.61334442064E+01  0.17388904525E+02  0.00000000000E+00 0.  1.
         22    1    1    2    0    0 -0.93498062314E+01 -0.80229075737E+01 -0.43898145070E+02  0.45594221817E+02  0.00000000000E+00 0.  1.
<mgrwt>
<rscale>  0 0.55925708E+02</rscale>
<asrwt>0</asrwt>
<pdfrwt beam="1">  1        4 0.10909832E-02 0.92599805E+02</pdfrwt>
<pdfrwt beam="2">  1       -4 0.59707742E-01 0.92599805E+02</pdfrwt>
<totfact> 0.10114351E+04</totfact>
</mgrwt>
</event>
<event>
 6    1  0.1661841E-002  0.9028109E+02  0.7546771E-02  0.1400871E+00
         -2   -1    0    0    0  501 -0.00000000000E+00  0.00000000000E+00  0.37139152566E+02  0.37139152566E+02  0.00000000000E+00 0.  1.
          2   -1    0    0  501    0  0.00000000000E+00 -0.00000000000E+00 -0.12341502194E+03  0.12341502194E+03  0.00000000000E+00 0. -1.
         23    2    1    2    0    0 -0.61555756824E+01  0.15614448158E+02 -0.20377835625E+02  0.92552314566E+02  0.88707229940E+02 0.  0.
         13    1    3    3    0    0  0.19071310151E+02 -0.31435534135E+02 -0.10723054826E+02  0.38300020653E+02  0.00000000000E+00 0. -1.
        -13    1    3    3    0    0 -0.25226885833E+02  0.47049982293E+02 -0.96547807988E+01  0.54252293913E+02  0.00000000000E+00 0.  1.
         22    1    1    2    0    0  0.61555756824E+01 -0.15614448158E+02 -0.65898033745E+02  0.68001859935E+02  0.00000000000E+00 0. -1.
<mgrwt>
<rscale>  0 0.59281795E+02</rscale>
<asrwt>0</asrwt>
<pdfrwt beam="1">  1        2 0.18986926E-01 0.90281087E+02</pdfrwt>
<pdfrwt beam="2">  1       -2 0.57137159E-02 0.90281087E+02</pdfrwt>
<totfact> 0.40943039E+04</totfact>
</mgrwt>
</event>
<event>
 6    1  0.1661841E-002  0.9308949E+02  0.7546771E-02  0.1380281E+00
          2   -1    0    0  501    0  0.00000000000E+00  0.00000000000E+00  0.10849573754E+03  0.10849573754E+03  0.00000000000E+00 0. -1.
         -2   -1    0    0    0  501 -0.00000000000E+00 -0.00000000000E+00 -0.31247616086E+02  0.31247616086E+02  0.00000000000E+00 0.  1.
         23    2    1    2    0    0 -0.18205687623E+02  0.11074385094E+02  0.51727585032E+02  0.10649599514E+03  0.90617685143E+02 0.  0.
         13    1    3    3    0    0 -0.74256361381E+01  0.39072601143E+01 -0.26194671114E+02  0.27505773002E+02  0.00000000000E+00 0.  1.
        -13    1    3    3    0    0 -0.10780051485E+02  0.71671249802E+01  0.77922256146E+02  0.78990222138E+02  0.00000000000E+00 0. -1.
         22    1    1    2    0    0  0.18205687623E+02 -0.11074385094E+02  0.25520536425E+02  0.33247358489E+02  0.00000000000E+00 0. -1.
<mgrwt>
<rscale>  0 0.64389957E+02</rscale>
<asrwt>0</asrwt>
<pdfrwt beam="1">  1        2 0.16691652E-01 0.93089494E+02</pdfrwt>
<pdfrwt beam="2">  1       -2 0.48073256E-02 0.93089494E+02</pdfrwt>
<totfact> 0.61536076E+04</totfact>
</mgrwt>
</event>
<event>
 6    1  0.1661841E-002  0.9551458E+02  0.7546771E-02  0.1408513E+00
         -2   -1    0    0    0  501 -0.00000000000E+00  0.00000000000E+00  0.59983273900E+02  0.59983273900E+02  0.00000000000E+00 0.  1.
          2   -1    0    0  501    0  0.00000000000E+00 -0.00000000000E+00 -0.50665962374E+02  0.50665962374E+02  0.00000000000E+00 0. -1.
         23    2    1    2    0    0 -0.17798552413E+01  0.12441625420E+02  0.15295633799E+02  0.96731540165E+02  0.94684066884E+02 0.  0.
         11    1    3    3    0    0 -0.34173105840E+02 -0.20581576953E+02 -0.13650139370E+02  0.42163121059E+02  0.00000000000E+00 0. -1.
        -11    1    3    3    0    0  0.32393250599E+02  0.33023202373E+02  0.28945773169E+02  0.54568419106E+02  0.00000000000E+00 0.  1.
         22    1    1    2    0    0  0.17798552413E+01 -0.12441625420E+02 -0.59783222735E+01  0.13917696109E+02  0.00000000000E+00 0. -1.
<mgrwt>
<rscale>  0 0.57526943E+02</rscale>
<asrwt>0</asrwt>
<pdfrwt beam="1">  1        2 0.77947635E-02 0.95514577E+02</pdfrwt>
<pdfrwt beam="2">  1       -2 0.92281960E-02 0.95514577E+02</pdfrwt>
<totfact> 0.57214223E+04</totfact>
</mgrwt>
</event>
<event>
 6    1  0.1661841E-002  0.9373795E+02  0.7546771E-02  0.1426884E+00
         -2   -1    0    0    0  501 -0.00000000000E+00  0.00000000000E+00  0.97760211513E+02  0.97760211513E+02  0.00000000000E+00 0.  1.
          2   -1    0    0  501    0  0.00000000000E+00 -0.00000000000E+00 -0.31940541304E+02  0.31940541304E+02  0.00000000000E+00 0. -1.
         23    2    1    2    0    0  0.39610060205E+01 -0.91973617194E+01  0.71764694154E+02  0.11805496641E+03  0.93201516812E+02 0.  0.
         13    1    3    3    0    0  0.36630191462E+02  0.26481480866E+02  0.38132963513E+02  0.59136813084E+02  0.00000000000E+00 0.  1.
        -13    1    3    3    0    0 -0.32669185441E+02 -0.35678842586E+02  0.33631730641E+02  0.58918153328E+02  0.00000000000E+00 0. -1.
         22    1    1    2    0    0 -0.39610060205E+01  0.91973617194E+01 -0.59450239447E+01  0.11645786405E+02  0.00000000000E+00 0. -1.
<mgrwt>
<rscale>  0 0.53590640E+02</rscale>
<asrwt>0</asrwt>
<pdfrwt beam="1">  1        2 0.49139295E-02 0.93737953E+02</pdfrwt>
<pdfrwt beam="2">  1       -2 0.15040032E-01 0.93737953E+02</pdfrwt>
<totfact> 0.47363225E+04</totfact>
</mgrwt>
</event>
<event>
 6    1  0.1661841E-002  0.1222936E+03  0.7546771E-02  0.1260261E+00
          2   -1    0    0  501    0  0.00000000000E+00  0.00000000000E+00  0.63885309284E+03  0.63885309284E+03  0.00000000000E+00 0. -1.
         -2   -1    0    0    0  501 -0.00000000000E+00 -0.00000000000E+00 -0.18533859213E+02  0.18533859213E+02  0.00000000000E+00 0.  1.
         23    2    1    2    0    0 -0.43099549941E+02 -0.68034764316E+02  0.48253847918E+03  0.49779423087E+03  0.92029408508E+02 0.  0.
         11    1    3    3    0    0 -0.31847929465E+02 -0.74884333002E+02  0.21426246590E+03  0.22919502227E+03  0.00000000000E+00 0.  1.
        -11    1    3    3    0    0 -0.11251620476E+02  0.68495686859E+01  0.26827601328E+03  0.26859920859E+03  0.00000000000E+00 0. -1.
         22    1    1    2    0    0  0.43099549941E+02  0.68034764316E+02  0.13778075445E+03  0.15959272119E+03  0.00000000000E+00 0.  1.
<mgrwt>
<rscale>  0 0.11016720E+03</rscale>
<asrwt>0</asrwt>
<pdfrwt beam="1">  1        2 0.98285074E-01 0.12229355E+03</pdfrwt>
<pdfrwt beam="2">  1       -2 0.28513634E-02 0.12229355E+03</pdfrwt>
<totfact> 0.20038864E+04</totfact>
</mgrwt>
</event>
<event>
 6    1  0.1661841E-002  0.9685215E+02  0.7546771E-02  0.1351249E+00
          2   -1    0    0  501    0  0.00000000000E+00  0.00000000000E+00  0.25352076076E+03  0.25352076076E+03  0.00000000000E+00 0. -1.
         -2   -1    0    0    0  501 -0.00000000000E+00 -0.00000000000E+00 -0.16381101579E+02  0.16381101579E+02  0.00000000000E+00 0.  1.
         23    2    1    2    0    0  0.30416111052E+02  0.41146098603E+01  0.16213353243E+03  0.18885873261E+03  0.91860049637E+02 0.  0.
         11    1    3    3    0    0 -0.23824587575E+02 -0.19629353547E+02  0.25831310009E+02  0.40251448056E+02  0.00000000000E+00 0.  1.
        -11    1    3    3    0    0  0.54240698628E+02  0.23743963407E+02  0.13630222242E+03  0.14860728456E+03  0.00000000000E+00 0. -1.
         22    1    1    2    0    0 -0.30416111052E+02 -0.41146098603E+01  0.75006126753E+02  0.81043129730E+02  0.00000000000E+00 0.  1.
<mgrwt>
<rscale>  0 0.72667853E+02</rscale>
<asrwt>0</asrwt>
<pdfrwt beam="1">  1        2 0.39003191E-01 0.96852148E+02</pdfrwt>
<pdfrwt beam="2">  1       -2 0.25201697E-02 0.96852148E+02</pdfrwt>
<totfact> 0.63094273E+04</totfact>
</mgrwt>
</event>
<event>
 6    1  0.1661841E-002  0.9521928E+02  0.7546771E-02  0.1401555E+00
          2   -1    0    0  501    0  0.00000000000E+00  0.00000000000E+00  0.94204022175E+02  0.94204022175E+02  0.00000000000E+00 0. -1.
         -2   -1    0    0    0  501 -0.00000000000E+00 -0.00000000000E+00 -0.32365976533E+02  0.32365976533E+02  0.00000000000E+00 0.  1.
         23    2    1    2    0    0 -0.13737384828E+02 -0.33993442028E+01  0.59349755185E+02  0.11220118274E+03  0.94161779320E+02 0.  0.
         11    1    3    3    0    0  0.26442685000E+01  0.29736573056E+02  0.67976917150E+02  0.74243634058E+02  0.00000000000E+00 0. -1.
        -11    1    3    3    0    0 -0.16381653328E+02 -0.33135917258E+02 -0.86271619646E+01  0.37957548681E+02  0.00000000000E+00 0.  1.
         22    1    1    2    0    0  0.13737384828E+02  0.33993442028E+01  0.24882904572E+01  0.14368815968E+02  0.00000000000E+00 0.  1.
<mgrwt>
<rscale>  0 0.59121578E+02</rscale>
<asrwt>0</asrwt>
<pdfrwt beam="1">  1        2 0.14492926E-01 0.95219284E+02</pdfrwt>
<pdfrwt beam="2">  1       -2 0.49793810E-02 0.95219284E+02</pdfrwt>
<totfact> 0.68951075E+04</totfact>
</mgrwt>
</event>
<event>
 6    1  0.1661841E-002  0.1012786E+03  0.7546771E-02  0.1366968E+00
         -2   -1    0    0    0  501 -0.00000000000E+00  0.00000000000E+00  0.37791021837E+02  0.37791021837E+02  0.00000000000E+00 0.  1.
          2   -1    0    0  501    0  0.00000000000E+00 -0.00000000000E+00 -0.15393151794E+03  0.15393151794E+03  0.00000000000E+00 0. -1.
         23    2    1    2    0    0  0.20400932550E+02  0.28759909272E+01 -0.33687108697E+02  0.10673412605E+03  0.99160894504E+02 0.  0.
         11    1    3    3    0    0 -0.35841075535E+02  0.19508804398E+02 -0.40095744891E+01  0.41003083202E+02  0.00000000000E+00 0.  1.
        -11    1    3    3    0    0  0.56242008085E+02 -0.16632813470E+02 -0.29677534208E+02  0.65731042849E+02  0.00000000000E+00 0. -1.
         22    1    1    2    0    0 -0.20400932550E+02 -0.28759909272E+01 -0.82453387410E+02  0.84988413729E+02  0.00000000000E+00 0. -1.
<mgrwt>
<rscale>  0 0.68017243E+02</rscale>
<asrwt>0</asrwt>
<pdfrwt beam="1">  1        2 0.23681772E-01 0.10127859E+03</pdfrwt>
<pdfrwt beam="2">  1       -2 0.58140033E-02 0.10127859E+03</pdfrwt>
<totfact> 0.31652975E+04</totfact>
</mgrwt>
</event>
<event>
 6    1  0.1661841E-002  0.9541721E+02  0.7546771E-02  0.1415666E+00
          2   -1    0    0  501    0  0.00000000000E+00  0.00000000000E+00  0.14105018186E+03  0.14105018186E+03  0.00000000000E+00 0. -1.
         -2   -1    0    0    0  501 -0.00000000000E+00 -0.00000000000E+00 -0.25176685894E+02  0.25176685894E+02  0.00000000000E+00 0.  1.
         23    2    1    2    0    0 -0.11278900169E+02  0.48694035171E-01  0.68320973952E+02  0.11735501174E+03  0.94748231324E+02 0.  0.
         13    1    3    3    0    0 -0.26628946351E+02  0.42361029773E+02  0.30790253606E+02  0.58750296547E+02  0.00000000000E+00 0.  1.
        -13    1    3    3    0    0  0.15350046182E+02 -0.42312335738E+02  0.37530720346E+02  0.58604715195E+02  0.00000000000E+00 0. -1.
         22    1    1    2    0    0  0.11278900169E+02 -0.48694035171E-01  0.47552522010E+02  0.48871856008E+02  0.00000000000E+00 0. -1.
<mgrwt>
<rscale>  0 0.55948407E+02</rscale>
<asrwt>0</asrwt>
<pdfrwt beam="1">  1        2 0.21700027E-01 0.95417207E+02</pdfrwt>
<pdfrwt beam="2">  1       -2 0.38733364E-02 0.95417207E+02</pdfrwt>
<totfact> 0.63237133E+04</totfact>
</mgrwt>
</event>
<event>
 6    1  0.1661841E-002  0.1017882E+03  0.7546771E-02  0.1410879E+00
         -1   -1    0    0    0  501 -0.00000000000E+00  0.00000000000E+00  0.36244525658E+03  0.36244525658E+03  0.00000000000E+00 0.  1.
          1   -1    0    0  501    0  0.00000000000E+00 -0.00000000000E+00 -0.14731110785E+02  0.14731110785E+02  0.00000000000E+00 0. -1.
         23    2    1    2    0    0 -0.86140932783E+01  0.50948913620E+01  0.35190195440E+03  0.36632748438E+03  0.10129501359E+03 0.  0.
         13    1    3    3    0    0 -0.32550971464E+02 -0.36392810587E+02  0.23452781518E+03  0.23955646202E+03  0.00000000000E+00 0. -1.
        -13    1    3    3    0    0  0.23936878185E+02  0.41487701949E+02  0.11737413923E+03  0.12677102236E+03  0.00000000000E+00 0.  1.
         22    1    1    2    0    0  0.86140932783E+01 -0.50948913620E+01 -0.41878086105E+01  0.10848882982E+02  0.00000000000E+00 0. -1.
<mgrwt>
<rscale>  0 0.56998075E+02</rscale>
<asrwt>0</asrwt>
<pdfrwt beam="1">  1        1 0.22663250E-02 0.10178821E+03</pdfrwt>
<pdfrwt beam="2">  1       -1 0.55760802E-01 0.10178821E+03</pdfrwt>
<totfact> 0.15355330E+04</totfact>
</mgrwt>
</event>
<event>
 6    1  0.1661841E-002  0.9662165E+02  0.7546771E-02  0.1359978E+00
          3   -1    0    0  501    0  0.00000000000E+00  0.00000000000E+00  0.17456185852E+02  0.17456185852E+02  0.00000000000E+00 0. -1.
         -3   -1    0    0    0  501 -0.00000000000E+00 -0.00000000000E+00 -0.21968049836E+03  0.21968049836E+03  0.00000000000E+00 0.  1.
         23    2    1    2    0    0 -0.63426709907E+01  0.25903699732E+02 -0.14866321072E+03  0.17730339281E+03  0.92868249396E+02 0.  0.
         13    1    3    3    0    0 -0.33423711046E+02  0.38254809705E+02 -0.13559106401E+03  0.14479472216E+03  0.00000000000E+00 0.  1.
        -13    1    3    3    0    0  0.27081040056E+02 -0.12351109973E+02 -0.13072146712E+02  0.32508670655E+02  0.00000000000E+00 0. -1.
         22    1    1    2    0    0  0.63426709907E+01 -0.25903699732E+02 -0.53561101781E+02  0.59833291395E+02  0.00000000000E+00 0.  1.
<mgrwt>
<rscale>  0 0.70033717E+02</rscale>
<asrwt>0</asrwt>
<pdfrwt beam="1">  1        3 0.26855671E-02 0.96621648E+02</pdfrwt>
<pdfrwt beam="2">  1       -3 0.33797000E-01 0.96621648E+02</pdfrwt>
<totfact> 0.10881841E+04</totfact>
</mgrwt>
</event>
<event>
 6    1  0.1661841E-002  0.1018224E+03  0.7546771E-02  0.1316942E+00
          1   -1    0    0  501    0  0.00000000000E+00  0.00000000000E+00  0.35995599604E+02  0.35995599604E+02  0.00000000000E+00 0. -1.
         -1   -1    0    0    0  501 -0.00000000000E+00 -0.00000000000E+00 -0.16548232870E+03  0.16548232870E+03  0.00000000000E+00 0.  1.
         23    2    1    2    0    0  0.18502270476E+02 -0.44424865847E+02 -0.10904292199E+03  0.14919167804E+03  0.89732353370E+02 0.  0.
         13    1    3    3    0    0  0.17690443419E+02 -0.61780265005E+02 -0.35077968270E+02  0.73213501422E+02  0.00000000000E+00 0. -1.
        -13    1    3    3    0    0  0.81182705707E+00  0.17355399159E+02 -0.73964953717E+02  0.75978176614E+02  0.00000000000E+00 0.  1.
         22    1    1    2    0    0 -0.18502270476E+02  0.44424865847E+02 -0.20443807113E+02  0.52286250272E+02  0.00000000000E+00 0. -1.
<mgrwt>
<rscale>  0 0.84425275E+02</rscale>
<asrwt>0</asrwt>
<pdfrwt beam="1">  1        1 0.55377845E-02 0.10182238E+03</pdfrwt>
<pdfrwt beam="2">  1       -1 0.25458820E-01 0.10182238E+03</pdfrwt>
<totfact> 0.17560548E+04</totfact>
</mgrwt>
</event>
<event>
 6    1  0.1661841E-002  0.1095240E+03  0.7546771E-02  0.1292268E+00
         -2   -1    0    0    0  501 -0.00000000000E+00  0.00000000000E+00  0.16263026973E+02  0.16263026973E+02  0.00000000000E+00 0.  1.
          2   -1    0    0  501    0  0.00000000000E+00 -0.00000000000E+00 -0.44750036183E+03  0.44750036183E+03  0.00000000000E+00 0. -1.
         23    2    1    2    0    0 -0.60167927242E+02 -0.83508111272E+01 -0.26290436355E+03  0.28480555929E+03  0.91134991710E+02 0.  0.
         11    1    3    3    0    0 -0.55370592156E+02  0.81363858887E+01 -0.26167261300E+03  0.26759047002E+03  0.00000000000E+00 0. -1.
        -11    1    3    3    0    0 -0.47973350861E+01 -0.16487197016E+02 -0.12317505562E+01  0.17215089277E+02  0.00000000000E+00 0.  1.
         22    1    1    2    0    0  0.60167927242E+02  0.83508111272E+01 -0.16833297131E+03  0.17895782951E+03  0.00000000000E+00 0. -1.
<mgrwt>
<rscale>  0 0.94516791E+02</rscale>
<asrwt>0</asrwt>
<pdfrwt beam="1">  1        2 0.68846197E-01 0.10952398E+03</pdfrwt>
<pdfrwt beam="2">  1       -2 0.25020046E-02 0.10952398E+03</pdfrwt>
<totfact> 0.35564683E+04</totfact>
</mgrwt>
</event>
<event>
 6    1  0.1661841E-002  0.9060199E+02  0.7546771E-02  0.1427323E+00
         -2   -1    0    0    0  501 -0.00000000000E+00  0.00000000000E+00  0.15922004977E+02  0.15922004977E+02  0.00000000000E+00 0.  1.
          2   -1    0    0  501    0  0.00000000000E+00 -0.00000000000E+00 -0.18339790714E+03  0.18339790714E+03  0.00000000000E+00 0. -1.
         23    2    1    2    0    0  0.87811270463E+01  0.66523691252E+01 -0.11876163638E+03  0.14937552406E+03  0.89929743168E+02 0.  0.
         13    1    3    3    0    0 -0.28626675565E+02 -0.25087769726E+02 -0.72797682954E+02  0.82148556817E+02  0.00000000000E+00 0. -1.
        -13    1    3    3    0    0  0.37407802611E+02  0.31740138851E+02 -0.45963953422E+02  0.67226967243E+02  0.00000000000E+00 0.  1.
         22    1    1    2    0    0 -0.87811270463E+01 -0.66523691252E+01 -0.48714265790E+02  0.49944388059E+02  0.00000000000E+00 0. -1.
<mgrwt>
<rscale>  0 0.53501227E+02</rscale>
<asrwt>0</asrwt>
<pdfrwt beam="1">  1        2 0.28215062E-01 0.90601992E+02</pdfrwt>
<pdfrwt beam="2">  1       -2 0.24495393E-02 0.90601992E+02</pdfrwt>
<totfact> 0.91866866E+04</totfact>
</mgrwt>
</event>
<event>
 6    1  0.1661841E-002  0.9301799E+02  0.7546771E-02  0.1406733E+00
          2   -1    0    0  501    0  0.00000000000E+00  0.00000000000E+00  0.89376223153E+02  0.89376223153E+02  0.00000000000E+00 0. -1.
         -2   -1    0    0    0  501 -0.00000000000E+00 -0.00000000000E+00 -0.41727738744E+02  0.41727738744E+02  0.00000000000E+00 0.  1.
         23    2    1    2    0    0 -0.13783147052E+02 -0.24099887809E+01  0.13235236340E+02  0.93954872659E+02  0.91959574960E+02 0.  0.
         11    1    3    3    0    0 -0.28273145481E+02 -0.28063119095E+02  0.38308820741E+02  0.55267306387E+02  0.00000000000E+00 0. -1.
        -11    1    3    3    0    0  0.14489998429E+02  0.25653130314E+02 -0.25073584401E+02  0.38687566272E+02  0.00000000000E+00 0.  1.
         22    1    1    2    0    0  0.13783147052E+02  0.24099887809E+01  0.34413248068E+02  0.37149089238E+02  0.00000000000E+00 0. -1.
<mgrwt>
<rscale>  0 0.57929148E+02</rscale>
<asrwt>0</asrwt>
<pdfrwt beam="1">  1        2 0.13750188E-01 0.93017991E+02</pdfrwt>
<pdfrwt beam="2">  1       -2 0.64196521E-02 0.93017991E+02</pdfrwt>
<totfact> 0.49959065E+04</totfact>
</mgrwt>
</event>
<event>
 6    1  0.1661841E-002  0.9333381E+02  0.7546771E-02  0.1399669E+00
          1   -1    0    0  501    0  0.00000000000E+00  0.00000000000E+00  0.37196893996E+02  0.37196893996E+02  0.00000000000E+00 0. -1.
         -1   -1    0    0    0  501 -0.00000000000E+00 -0.00000000000E+00 -0.85032579589E+02  0.85032579589E+02  0.00000000000E+00 0.  1.
         23    2    1    2    0    0  0.52497945643E+01  0.14564843301E+02 -0.51100269021E+02  0.10640694192E+03  0.92040777872E+02 0.  0.
         11    1    3    3    0    0  0.23085585627E+02  0.40752018592E+02 -0.66038300910E+00  0.46841300032E+02  0.00000000000E+00 0. -1.
        -11    1    3    3    0    0 -0.17835791062E+02 -0.26187175291E+02 -0.50439886012E+02  0.59565641887E+02  0.00000000000E+00 0.  1.
         22    1    1    2    0    0 -0.52497945643E+01 -0.14564843301E+02  0.32645834275E+01  0.15822531665E+02  0.00000000000E+00 0. -1.
<mgrwt>
<rscale>  0 0.59564378E+02</rscale>
<asrwt>0</asrwt>
<pdfrwt beam="1">  1        1 0.57225992E-02 0.93333808E+02</pdfrwt>
<pdfrwt beam="2">  1       -1 0.13081935E-01 0.93333808E+02</pdfrwt>
<totfact> 0.47601856E+04</totfact>
</mgrwt>
</event>
<event>
 6    1  0.1661841E-002  0.9270331E+02  0.7546771E-02  0.1388584E+00
          1   -1    0    0  501    0  0.00000000000E+00  0.00000000000E+00  0.38477657905E+02  0.38477657905E+02  0.00000000000E+00 0. -1.
         -1   -1    0    0    0  501 -0.00000000000E+00 -0.00000000000E+00 -0.82046719348E+02  0.82046719348E+02  0.00000000000E+00 0.  1.
         23    2    1    2    0    0 -0.14204084744E+02 -0.12408350048E+02 -0.41439998036E+02  0.10154396405E+03  0.90764420472E+02 0.  0.
         13    1    3    3    0    0 -0.21589424887E+02 -0.49932482583E+02 -0.26117228899E+02  0.60344558406E+02  0.00000000000E+00 0. -1.
        -13    1    3    3    0    0  0.73853401434E+01  0.37524132535E+02 -0.15322769137E+02  0.41199405645E+02  0.00000000000E+00 0.  1.
         22    1    1    2    0    0  0.14204084744E+02  0.12408350048E+02 -0.21290634074E+01  0.18980413202E+02  0.00000000000E+00 0.  1.
<mgrwt>
<rscale>  0 0.62260190E+02</rscale>
<asrwt>0</asrwt>
<pdfrwt beam="1">  1        1 0.59196397E-02 0.92703307E+02</pdfrwt>
<pdfrwt beam="2">  1       -1 0.12622572E-01 0.92703307E+02</pdfrwt>
<totfact> 0.48003275E+04</totfact>
</mgrwt>
</event>
<event>
 6    1  0.1661841E-002  0.9465006E+02  0.7546771E-02  0.1411864E+00
         -1   -1    0    0    0  501 -0.00000000000E+00  0.00000000000E+00  0.49375244446E+02  0.49375244446E+02  0.00000000000E+00 0.  1.
          1   -1    0    0  501    0  0.00000000000E+00 -0.00000000000E+00 -0.76864183162E+02  0.76864183162E+02  0.00000000000E+00 0. -1.
         23    2    1    2    0    0 -0.88240438814E+01  0.85085797884E+01  0.16102623191E+01  0.94663753722E+02  0.93852936254E+02 0.  0.
         13    1    3    3    0    0  0.37912104549E+01  0.44164674313E+02 -0.22600839139E+02  0.49756302753E+02  0.00000000000E+00 0. -1.
        -13    1    3    3    0    0 -0.12615254336E+02 -0.35656094524E+02  0.24211101458E+02  0.44907450969E+02  0.00000000000E+00 0.  1.
         22    1    1    2    0    0  0.88240438814E+01 -0.85085797884E+01 -0.29099201035E+02  0.31575673885E+02  0.00000000000E+00 0. -1.
<mgrwt>
<rscale>  0 0.56780076E+02</rscale>
<asrwt>0</asrwt>
<pdfrwt beam="1">  1        1 0.11825259E-01 0.94650057E+02</pdfrwt>
<pdfrwt beam="2">  1       -1 0.75961915E-02 0.94650057E+02</pdfrwt>
<totfact> 0.41503286E+04</totfact>
</mgrwt>
</event>
<event>
 6    1  0.1661841E-002  0.9299078E+02  0.7546771E-02  0.1392245E+00
         -2   -1    0    0    0  501 -0.00000000000E+00  0.00000000000E+00  0.10166800006E+02  0.10166800006E+02  0.00000000000E+00 0.  1.
          2   -1    0    0  501    0  0.00000000000E+00 -0.00000000000E+00 -0.30452102926E+03  0.30452102926E+03  0.00000000000E+00 0. -1.
         23    2    1    2    0    0  0.98146278880E+01 -0.14632481064E+02 -0.23353918951E+03  0.25137191119E+03  0.91306343020E+02 0.  0.
         13    1    3    3    0    0  0.44461794410E+02  0.26822070409E+01 -0.17912587854E+03  0.18458094636E+03  0.00000000000E+00 0. -1.
        -13    1    3    3    0    0 -0.34647166522E+02 -0.17314688105E+02 -0.54413310974E+02  0.66790964833E+02  0.00000000000E+00 0.  1.
         22    1    1    2    0    0 -0.98146278880E+01  0.14632481064E+02 -0.60815039738E+02  0.63315918070E+02  0.00000000000E+00 0.  1.
<mgrwt>
<rscale>  0 0.61351685E+02</rscale>
<asrwt>0</asrwt>
<pdfrwt beam="1">  1        2 0.46849386E-01 0.92990777E+02</pdfrwt>
<pdfrwt beam="2">  1       -2 0.15641232E-02 0.92990777E+02</pdfrwt>
<totfact> 0.10279650E+05</totfact>
</mgrwt>
</event>
<event>
 6    1  0.1661841E-002  0.9322630E+02  0.7546771E-02  0.1393692E+00
         -3   -1    0    0    0  501 -0.00000000000E+00  0.00000000000E+00  0.10689301490E+02  0.10689301490E+02  0.00000000000E+00 0.  1.
          3   -1    0    0  501    0  0.00000000000E+00 -0.00000000000E+00 -0.29318593171E+03  0.29318593171E+03  0.00000000000E+00 0. -1.
         23    2    1    2    0    0 -0.17056262926E+02  0.10078694963E+01 -0.21682684093E+03  0.23601911239E+03  0.91647207051E+02 0.  0.
         13    1    3    3    0    0 -0.41964446583E+02 -0.31275711067E+02 -0.12761872765E+03  0.13793376863E+03  0.00000000000E+00 0. -1.
        -13    1    3    3    0    0  0.24908183656E+02  0.32283580563E+02 -0.89208113271E+02  0.98085343760E+02  0.00000000000E+00 0.  1.
         22    1    1    2    0    0  0.17056262926E+02 -0.10078694963E+01 -0.65669789299E+02  0.67856120818E+02  0.00000000000E+00 0.  1.
<mgrwt>
<rscale>  0 0.60997779E+02</rscale>
<asrwt>0</asrwt>
<pdfrwt beam="1">  1        3 0.45105527E-01 0.93226297E+02</pdfrwt>
<pdfrwt beam="2">  1       -3 0.16445079E-02 0.93226297E+02</pdfrwt>
<totfact> 0.13086623E+04</totfact>
</mgrwt>
</event>
<event>
 6    1  0.1661841E-002  0.9162926E+02  0.7546771E-02  0.1423860E+00
          4   -1    0    0  501    0  0.00000000000E+00  0.00000000000E+00  0.11518518617E+02  0.11518518617E+02  0.00000000000E+00 0. -1.
         -4   -1    0    0    0  501 -0.00000000000E+00 -0.00000000000E+00 -0.22963840253E+03  0.22963840253E+03  0.00000000000E+00 0.  1.
         23    2    1    2    0    0  0.62835634363E+01 -0.93049343196E+01 -0.19365415481E+03  0.21423784106E+03  0.90938748043E+02 0.  0.
         13    1    3    3    0    0  0.30799860686E+02  0.26446604677E+02 -0.51243638248E+02  0.65375567134E+02  0.00000000000E+00 0. -1.
        -13    1    3    3    0    0 -0.24516297250E+02 -0.35751538997E+02 -0.14241051656E+03  0.14886227393E+03  0.00000000000E+00 0.  1.
         22    1    1    2    0    0 -0.62835634363E+01  0.93049343196E+01 -0.24465729105E+02  0.26919080088E+02  0.00000000000E+00 0. -1.
<mgrwt>
<rscale>  0 0.54212562E+02</rscale>
<asrwt>0</asrwt>
<pdfrwt beam="1">  1        4 0.17720799E-02 0.91629258E+02</pdfrwt>
<pdfrwt beam="2">  1       -4 0.35328982E-01 0.91629258E+02</pdfrwt>
<totfact> 0.13812750E+04</totfact>
</mgrwt>
</event>
<event>
 6    1  0.1661841E-002  0.9205284E+02  0.7546771E-02  0.1394705E+00
          2   -1    0    0  501    0  0.00000000000E+00  0.00000000000E+00  0.15941157005E+02  0.15941157005E+02  0.00000000000E+00 0. -1.
         -2   -1    0    0    0  501 -0.00000000000E+00 -0.00000000000E+00 -0.18811890332E+03  0.18811890332E+03  0.00000000000E+00 0.  1.
         23    2    1    2    0    0  0.51761036685E+00  0.17455128612E+02 -0.14559269935E+03  0.17225260589E+03  0.90381285104E+02 0.  0.
         11    1    3    3    0    0 -0.11468409880E+02  0.10210513478E+02  0.84824273231E+01  0.17542251393E+02  0.00000000000E+00 0. -1.
        -11    1    3    3    0    0  0.11986020246E+02  0.72446151339E+01 -0.15407512667E+03  0.15471035450E+03  0.00000000000E+00 0.  1.
         22    1    1    2    0    0 -0.51761036685E+00 -0.17455128612E+02 -0.26585046967E+02  0.31807454435E+02  0.00000000000E+00 0.  1.
<mgrwt>
<rscale>  0 0.60751414E+02</rscale>
<asrwt>0</asrwt>
<pdfrwt beam="1">  1        2 0.24524856E-02 0.92052844E+02</pdfrwt>
<pdfrwt beam="2">  1       -2 0.28941371E-01 0.92052844E+02</pdfrwt>
<totfact> 0.39078881E+04</totfact>
</mgrwt>
</event>
<event>
 6    1  0.1661841E-002  0.8912823E+02  0.7546771E-02  0.1432463E+00
          1   -1    0    0  501    0  0.00000000000E+00  0.00000000000E+00  0.98778171217E+02  0.98778171217E+02  0.00000000000E+00 0. -1.
         -1   -1    0    0    0  501 -0.00000000000E+00 -0.00000000000E+00 -0.26213030010E+02  0.26213030010E+02  0.00000000000E+00 0.  1.
         23    2    1    2    0    0 -0.61603269042E+01 -0.87540525080E+01  0.71444153038E+02  0.11422831698E+03  0.88483096315E+02 0.  0.
         11    1    3    3    0    0 -0.23600405286E+02  0.19585817225E+02  0.74741582221E+02  0.80789154464E+02  0.00000000000E+00 0. -1.
        -11    1    3    3    0    0  0.17440078382E+02 -0.28339869733E+02 -0.32974291837E+01  0.33439162514E+02  0.00000000000E+00 0.  1.
         22    1    1    2    0    0  0.61603269042E+01  0.87540525080E+01  0.11209881699E+01  0.10762884249E+02  0.00000000000E+00 0. -1.
<mgrwt>
<rscale>  0 0.52468846E+02</rscale>
<asrwt>0</asrwt>
<pdfrwt beam="1">  1        1 0.15196642E-01 0.89128230E+02</pdfrwt>
<pdfrwt beam="2">  1       -1 0.40327739E-02 0.89128230E+02</pdfrwt>
<totfact> 0.75557414E+04</totfact>
</mgrwt>
</event>
<event>
 6    1  0.1661841E-002  0.9208686E+02  0.7546771E-02  0.1371158E+00
          2   -1    0    0  501    0  0.00000000000E+00  0.00000000000E+00  0.54391724192E+02  0.54391724192E+02  0.00000000000E+00 0. -1.
         -2   -1    0    0    0  501 -0.00000000000E+00 -0.00000000000E+00 -0.84375977290E+02  0.84375977290E+02  0.00000000000E+00 0.  1.
         23    2    1    2    0    0 -0.19286860527E+02  0.16786820097E+02 -0.51359405112E+02  0.10544087383E+03  0.88465863822E+02 0.  0.
         11    1    3    3    0    0 -0.42094329863E+02 -0.10151342393E+02 -0.21801097741E+00  0.43301615302E+02  0.00000000000E+00 0. -1.
        -11    1    3    3    0    0  0.22807469336E+02  0.26938162490E+02 -0.51141394135E+02  0.62139258524E+02  0.00000000000E+00 0.  1.
         22    1    1    2    0    0  0.19286860527E+02 -0.16786820097E+02  0.21375152014E+02  0.33326827655E+02  0.00000000000E+00 0. -1.
<mgrwt>
<rscale>  0 0.66846276E+02</rscale>
<asrwt>0</asrwt>
<pdfrwt beam="1">  1        2 0.83679576E-02 0.92086858E+02</pdfrwt>
<pdfrwt beam="2">  1       -2 0.12980919E-01 0.92086858E+02</pdfrwt>
<totfact> 0.30524531E+04</totfact>
</mgrwt>
</event>
<event>
 6    1  0.1661841E-002  0.9322267E+02  0.7546771E-02  0.1402515E+00
         -4   -1    0    0    0  501 -0.00000000000E+00  0.00000000000E+00  0.91067799315E+02  0.91067799315E+02  0.00000000000E+00 0.  1.
          4   -1    0    0  501    0  0.00000000000E+00 -0.00000000000E+00 -0.32086194949E+02  0.32086194949E+02  0.00000000000E+00 0. -1.
         23    2    1    2    0    0  0.68725906156E+01 -0.13168307117E+02  0.51939043309E+02  0.10671518408E+03  0.92031676497E+02 0.  0.
         13    1    3    3    0    0  0.19982913133E+02 -0.10162647140E+02 -0.22090542398E+02  0.31473612402E+02  0.00000000000E+00 0. -1.
        -13    1    3    3    0    0 -0.13110322518E+02 -0.30056599766E+01  0.74029585707E+02  0.75241571676E+02  0.00000000000E+00 0.  1.
         22    1    1    2    0    0 -0.68725906156E+01  0.13168307117E+02  0.70425610572E+01  0.16438810186E+02  0.00000000000E+00 0. -1.
<mgrwt>
<rscale>  0 0.58898048E+02</rscale>
<asrwt>0</asrwt>
<pdfrwt beam="1">  1        4 0.49363377E-02 0.93222670E+02</pdfrwt>
<pdfrwt beam="2">  1       -4 0.14010431E-01 0.93222670E+02</pdfrwt>
<totfact> 0.15068032E+04</totfact>
</mgrwt>
</event>
<event>
 6    1  0.1661841E-002  0.9773659E+02  0.7546771E-02  0.1393429E+00
          1   -1    0    0  501    0  0.00000000000E+00  0.00000000000E+00  0.12120351727E+02  0.12120351727E+02  0.00000000000E+00 0. -1.
         -1   -1    0    0    0  501 -0.00000000000E+00 -0.00000000000E+00 -0.48424809610E+03  0.48424809610E+03  0.00000000000E+00 0.  1.
         23    2    1    2    0    0 -0.14778858667E+02 -0.18200808653E+01 -0.47143733127E+03  0.48146193824E+03  0.96595617388E+02 0.  0.
         11    1    3    3    0    0  0.61099269197E+01  0.45112996873E+02 -0.19030158980E+03  0.19567117512E+03  0.00000000000E+00 0. -1.
        -11    1    3    3    0    0 -0.20888785587E+02 -0.46933077739E+02 -0.28113574147E+03  0.28579076312E+03  0.00000000000E+00 0.  1.
         22    1    1    2    0    0  0.14778858667E+02  0.18200808653E+01 -0.69041310270E+00  0.14906509588E+02  0.00000000000E+00 0. -1.
<mgrwt>
<rscale>  0 0.61061897E+02</rscale>
<asrwt>0</asrwt>
<pdfrwt beam="1">  1        1 0.18646697E-02 0.97736588E+02</pdfrwt>
<pdfrwt beam="2">  1       -1 0.74499700E-01 0.97736588E+02</pdfrwt>
<totfact> 0.11480962E+04</totfact>
</mgrwt>
</event>
<event>
 6    1  0.1661841E-002  0.9001479E+02  0.7546771E-02  0.1415517E+00
         -2   -1    0    0    0  501 -0.00000000000E+00  0.00000000000E+00  0.53413137826E+02  0.53413137826E+02  0.00000000000E+00 0.  1.
          2   -1    0    0  501    0  0.00000000000E+00 -0.00000000000E+00 -0.67798663646E+02  0.67798663646E+02  0.00000000000E+00 0. -1.
         23    2    1    2    0    0 -0.12215670087E+02 -0.56649689372E+01  0.12755562301E+02  0.90914060086E+02  0.89001952130E+02 0.  0.
         13    1    3    3    0    0 -0.44691996108E+02  0.55338379501E+01  0.28321814480E+02  0.53198900873E+02  0.00000000000E+00 0.  1.
        -13    1    3    3    0    0  0.32476326022E+02 -0.11198806887E+02 -0.15566252179E+02  0.37715159213E+02  0.00000000000E+00 0. -1.
         22    1    1    2    0    0  0.12215670087E+02  0.56649689372E+01 -0.27141088121E+02  0.30297741387E+02  0.00000000000E+00 0. -1.
<mgrwt>
<rscale>  0 0.55980845E+02</rscale>
<asrwt>0</asrwt>
<pdfrwt beam="1">  1        2 0.10430564E-01 0.90014787E+02</pdfrwt>
<pdfrwt beam="2">  1       -2 0.82174058E-02 0.90014787E+02</pdfrwt>
<totfact> 0.47464686E+04</totfact>
</mgrwt>
</event>
<event>
 6    1  0.1661841E-002  0.8766594E+02  0.7546771E-02  0.1439620E+00
         -1   -1    0    0    0  501 -0.00000000000E+00  0.00000000000E+00  0.44621059439E+02  0.44621059439E+02  0.00000000000E+00 0.  1.
          1   -1    0    0  501    0  0.00000000000E+00 -0.00000000000E+00 -0.68402197403E+02  0.68402197403E+02  0.00000000000E+00 0. -1.
         23    2    1    2    0    0 -0.41040866339E+01  0.92303423343E+01 -0.52450096583E+00  0.87667509739E+02  0.87081998231E+02 0.  0.
         11    1    3    3    0    0  0.37098477902E+02  0.23328444910E+02 -0.38530649307E+01  0.43992721147E+02  0.00000000000E+00 0.  1.
        -11    1    3    3    0    0 -0.41202564535E+02 -0.14098102576E+02  0.33285639649E+01  0.43674788592E+02  0.00000000000E+00 0. -1.
         22    1    1    2    0    0  0.41040866339E+01 -0.92303423343E+01 -0.23256636997E+02  0.25355747103E+02  0.00000000000E+00 0. -1.
<mgrwt>
<rscale>  0 0.51076478E+02</rscale>
<asrwt>0</asrwt>
<pdfrwt beam="1">  1        1 0.10523415E-01 0.87665941E+02</pdfrwt>
<pdfrwt beam="2">  1       -1 0.68647783E-02 0.87665941E+02</pdfrwt>
<totfact> 0.55551334E+04</totfact>
</mgrwt>
</event>
<event>
 6    1  0.1661841E-002  0.9638222E+02  0.7546771E-02  0.1391533E+00
         -2   -1    0    0    0  501 -0.00000000000E+00  0.00000000000E+00  0.14104157312E+02  0.14104157312E+02  0.00000000000E+00 0.  1.
          2   -1    0    0  501    0  0.00000000000E+00 -0.00000000000E+00 -0.22776854141E+03  0.22776854141E+03  0.00000000000E+00 0. -1.
         23    2    1    2    0    0 -0.78963736188E+01 -0.13922328449E+02 -0.17080402783E+03  0.19612126066E+03  0.95043932011E+02 0.  0.
         13    1    3    3    0    0  0.36052000145E+02 -0.29738447880E+02 -0.61390201155E+02  0.77154901300E+02  0.00000000000E+00 0. -1.
        -13    1    3    3    0    0 -0.43948373764E+02  0.15816119432E+02 -0.10941382668E+03  0.11896635936E+03  0.00000000000E+00 0.  1.
         22    1    1    2    0    0  0.78963736188E+01  0.13922328449E+02 -0.42860356262E+02  0.45751438061E+02  0.00000000000E+00 0. -1.
<mgrwt>
<rscale>  0 0.61527135E+02</rscale>
<asrwt>0</asrwt>
<pdfrwt beam="1">  1        2 0.35041313E-01 0.96382223E+02</pdfrwt>
<pdfrwt beam="2">  1       -2 0.21698704E-02 0.96382223E+02</pdfrwt>
<totfact> 0.87648672E+04</totfact>
</mgrwt>
</event>
<event>
 6    1  0.1661841E-002  0.9065446E+02  0.7546771E-02  0.1431084E+00
         -1   -1    0    0    0  501 -0.00000000000E+00  0.00000000000E+00  0.27247510430E+03  0.27247510430E+03  0.00000000000E+00 0.  1.
          1   -1    0    0  501    0  0.00000000000E+00 -0.00000000000E+00 -0.10498802665E+02  0.10498802665E+02  0.00000000000E+00 0. -1.
         23    2    1    2    0    0  0.56725766552E+01  0.87012687398E+01  0.25453411678E+03  0.27019594472E+03  0.90057435775E+02 0.  0.
         11    1    3    3    0    0  0.99036701711E+01 -0.93801179223E+01 -0.12873920669E+01  0.13701338381E+02  0.00000000000E+00 0. -1.
        -11    1    3    3    0    0 -0.42310935159E+01  0.18081386662E+02  0.25582150884E+03  0.25649460634E+03  0.00000000000E+00 0.  1.
         22    1    1    2    0    0 -0.56725766552E+01 -0.87012687398E+01  0.74421848621E+01  0.12777962244E+02  0.00000000000E+00 0. -1.
<mgrwt>
<rscale>  0 0.52742978E+02</rscale>
<asrwt>0</asrwt>
<pdfrwt beam="1">  1        1 0.16152006E-02 0.90654465E+02</pdfrwt>
<pdfrwt beam="2">  1       -1 0.41919241E-01 0.90654465E+02</pdfrwt>
<totfact> 0.40356175E+04</totfact>
</mgrwt>
</event>
<event>
 6    1  0.1661841E-002  0.9201781E+02  0.7546771E-02  0.1402730E+00
         -4   -1    0    0    0  501 -0.00000000000E+00  0.00000000000E+00  0.13179399890E+02  0.13179399890E+02  0.00000000000E+00 0.  1.
          4   -1    0    0  501    0  0.00000000000E+00 -0.00000000000E+00 -0.21990682687E+03  0.21990682687E+03  0.00000000000E+00 0. -1.
         23    2    1    2    0    0 -0.15054794174E+02 -0.32074781070E+01 -0.17105837028E+03  0.19423759295E+03  0.90721230849E+02 0.  0.
         13    1    3    3    0    0 -0.15236414125E+02 -0.34540969356E+02 -0.15400262867E+03  0.15856240575E+03  0.00000000000E+00 0. -1.
        -13    1    3    3    0    0  0.18161995076E+00  0.31333491249E+02 -0.17055741611E+02  0.35675187197E+02  0.00000000000E+00 0.  1.
         22    1    1    2    0    0  0.15054794174E+02  0.32074781070E+01 -0.35669056700E+02  0.38848633815E+02  0.00000000000E+00 0. -1.
<mgrwt>
<rscale>  0 0.58848107E+02</rscale>
<asrwt>0</asrwt>
<pdfrwt beam="1">  1        4 0.33831818E-01 0.92017805E+02</pdfrwt>
<pdfrwt beam="2">  1       -4 0.20276001E-02 0.92017805E+02</pdfrwt>
<totfact> 0.12234138E+04</totfact>
</mgrwt>
</event>
<event>
 6    1  0.1661841E-002  0.1570462E+03  0.7546771E-02  0.1201602E+00
         -1   -1    0    0    0  501 -0.00000000000E+00  0.00000000000E+00  0.30261226588E+02  0.30261226588E+02  0.00000000000E+00 0.  1.
          1   -1    0    0  501    0  0.00000000000E+00 -0.00000000000E+00 -0.97913798133E+03  0.97913798133E+03  0.00000000000E+00 0. -1.
         23    2    1    2    0    0  0.12529058426E+03 -0.23861659236E+02 -0.79100609828E+03  0.80644538692E+03  0.91631900967E+02 0.  0.
         13    1    3    3    0    0  0.10118745440E+03  0.15321668662E+02 -0.40597073052E+03  0.41867157594E+03  0.00000000000E+00 0. -1.
        -13    1    3    3    0    0  0.24103129860E+02 -0.39183327898E+02 -0.38503536776E+03  0.38777381098E+03  0.00000000000E+00 0.  1.
         22    1    1    2    0    0 -0.12529058426E+03  0.23861659236E+02 -0.15787065646E+03  0.20295382100E+03  0.00000000000E+00 0.  1.
<mgrwt>
<rscale>  0 0.14908516E+03</rscale>
<asrwt>0</asrwt>
<pdfrwt beam="1">  1        1 0.15063662E+00 0.15704622E+03</pdfrwt>
<pdfrwt beam="2">  1       -1 0.46555732E-02 0.15704622E+03</pdfrwt>
<totfact> 0.32072978E+03</totfact>
</mgrwt>
</event>
<event>
 6    1  0.1661841E-002  0.8799860E+02  0.7546771E-02  0.1425401E+00
         -2   -1    0    0    0  501 -0.00000000000E+00  0.00000000000E+00  0.14523970707E+02  0.14523970707E+02  0.00000000000E+00 0.  1.
          2   -1    0    0  501    0  0.00000000000E+00 -0.00000000000E+00 -0.17576309757E+03  0.17576309757E+03  0.00000000000E+00 0. -1.
         23    2    1    2    0    0  0.12380608084E+02 -0.29506444214E-01 -0.13328849108E+03  0.15971717511E+03  0.87123325494E+02 0.  0.
         11    1    3    3    0    0  0.52240222625E+01  0.18567589670E+02  0.50598964107E+01  0.19941121996E+02  0.00000000000E+00 0.  1.
        -11    1    3    3    0    0  0.71565858219E+01 -0.18597096115E+02 -0.13834838749E+03  0.13977605312E+03  0.00000000000E+00 0. -1.
         22    1    1    2    0    0 -0.12380608084E+02  0.29506444214E-01 -0.27950635782E+02  0.30569893160E+02  0.00000000000E+00 0. -1.
<mgrwt>
<rscale>  0 0.53894275E+02</rscale>
<asrwt>0</asrwt>
<pdfrwt beam="1">  1        2 0.27040476E-01 0.87998603E+02</pdfrwt>
<pdfrwt beam="2">  1       -2 0.22344571E-02 0.87998603E+02</pdfrwt>
<totfact> 0.10929787E+05</totfact>
</mgrwt>
</event>
<event>
 6    1  0.1661841E-002  0.1008134E+03  0.7546771E-02  0.1321352E+00
         -2   -1    0    0    0  501 -0.00000000000E+00  0.00000000000E+00  0.58213843879E+03  0.58213843879E+03  0.00000000000E+00 0. -1.
          2   -1    0    0  501    0  0.00000000000E+00 -0.00000000000E+00 -0.92464358045E+01  0.92464358045E+01  0.00000000000E+00 0.  1.
         23    2    1    2    0    0 -0.14374517620E+02 -0.43508482803E+02  0.38365997252E+03  0.39668413966E+03  0.89798203242E+02 0.  0.
         11    1    3    3    0    0 -0.95176787634E+01 -0.44618780076E+02  0.73660433535E+02  0.86644568284E+02  0.00000000000E+00 0.  1.
        -11    1    3    3    0    0 -0.48568388570E+01  0.11102972729E+01  0.30999953899E+03  0.31003957137E+03  0.00000000000E+00 0. -1.
         22    1    1    2    0    0  0.14374517620E+02  0.43508482803E+02  0.18923203046E+03  0.19470073493E+03  0.00000000000E+00 0.  1.
<mgrwt>
<rscale>  0 0.82776298E+02</rscale>
<asrwt>0</asrwt>
<pdfrwt beam="1">  1        2 0.14225290E-02 0.10081335E+03</pdfrwt>
<pdfrwt beam="2">  1       -2 0.89559731E-01 0.10081335E+03</pdfrwt>
<totfact> 0.88118620E+03</totfact>
</mgrwt>
</event>
<event>
 6    1  0.1661841E-002  0.1023678E+03  0.7546771E-02  0.1322581E+00
         -2   -1    0    0    0  501 -0.00000000000E+00  0.00000000000E+00  0.27257634684E+01  0.27257634684E+01  0.00000000000E+00 0. -1.
          2   -1    0    0  501    0  0.00000000000E+00 -0.00000000000E+00 -0.32331284786E+04  0.32331284786E+04  0.00000000000E+00 0.  1.
         23    2    1    2    0    0 -0.15497322324E+02 -0.39915470324E+02 -0.29842440921E+04  0.29859993253E+04  0.92982564658E+02 0.  0.
         11    1    3    3    0    0 -0.18153874879E+02 -0.68357418963E+02 -0.17572469662E+04  0.17586697245E+04  0.00000000000E+00 0.  1.
        -11    1    3    3    0    0  0.26565525551E+01  0.28441948639E+02 -0.12269971260E+04  0.12273296007E+04  0.00000000000E+00 0. -1.
         22    1    1    2    0    0  0.15497322324E+02  0.39915470324E+02 -0.24615862303E+03  0.24985491682E+03  0.00000000000E+00 0. -1.
<mgrwt>
<rscale>  0 0.82324684E+02</rscale>
<asrwt>0</asrwt>
<pdfrwt beam="1">  1        2 0.49740213E+00 0.10236781E+03</pdfrwt>
<pdfrwt beam="2">  1       -2 0.41935012E-03 0.10236781E+03</pdfrwt>
<totfact> 0.11172150E+04</totfact>
</mgrwt>
</event>
<event>
 6    1  0.1661841E-002  0.9449096E+02  0.7546771E-02  0.1369739E+00
          1   -1    0    0  501    0  0.00000000000E+00  0.00000000000E+00  0.69017192643E+01  0.69017192643E+01  0.00000000000E+00 0. -1.
         -1   -1    0    0    0  501 -0.00000000000E+00 -0.00000000000E+00 -0.51470545929E+03  0.51470545929E+03  0.00000000000E+00 0.  1.
         23    2    1    2    0    0  0.13065701821E+01 -0.24193598698E+02 -0.42190737657E+03  0.43235908278E+03  0.91331838471E+02 0.  0.
         11    1    3    3    0    0  0.22672829906E+02 -0.40673220473E+02 -0.37775501844E+03  0.38061426936E+03  0.00000000000E+00 0.  1.
        -11    1    3    3    0    0 -0.21366259724E+02  0.16479621775E+02 -0.44152358124E+02  0.51744813425E+02  0.00000000000E+00 0. -1.
         22    1    1    2    0    0 -0.13065701821E+01  0.24193598698E+02 -0.85896363458E+02  0.89248095772E+02  0.00000000000E+00 0. -1.
<mgrwt>
<rscale>  0 0.67239724E+02</rscale>
<asrwt>0</asrwt>
<pdfrwt beam="1">  1        1 0.10618028E-02 0.94490963E+02</pdfrwt>
<pdfrwt beam="2">  1       -1 0.79185467E-01 0.94490963E+02</pdfrwt>
<totfact> 0.22073508E+04</totfact>
</mgrwt>
</event>
<event>
 6    1  0.1661841E-002  0.1070753E+03  0.7546771E-02  0.1302146E+00
         -2   -1    0    0    0  501 -0.00000000000E+00  0.00000000000E+00  0.16983058781E+03  0.16983058781E+03  0.00000000000E+00 0.  1.
          2   -1    0    0  501    0  0.00000000000E+00 -0.00000000000E+00 -0.54071753488E+02  0.54071753488E+02  0.00000000000E+00 0. -1.
         23    2    1    2    0    0  0.14774642924E+01 -0.54121039676E+02  0.12951055560E+03  0.16804198259E+03  0.92378861561E+02 0.  0.
         13    1    3    3    0    0 -0.35001073973E+02 -0.22821041302E+00  0.19085565726E+02  0.39867105216E+02  0.00000000000E+00 0.  1.
        -13    1    3    3    0    0  0.36478538265E+02 -0.53892829263E+02  0.11042498988E+03  0.12817487737E+03  0.00000000000E+00 0. -1.
         22    1    1    2    0    0 -0.14774642924E+01  0.54121039676E+02 -0.13751721285E+02  0.55860358705E+02  0.00000000000E+00 0.  1.
<mgrwt>
<rscale>  0 0.90291945E+02</rscale>
<asrwt>0</asrwt>
<pdfrwt beam="1">  1        2 0.83187314E-02 0.10707532E+03</pdfrwt>
<pdfrwt beam="2">  1       -2 0.26127782E-01 0.10707532E+03</pdfrwt>
<totfact> 0.97560785E+03</totfact>
</mgrwt>
</event>
<event>
 6    1  0.1661841E-002  0.1193179E+03  0.7546771E-02  0.1265949E+00
         -2   -1    0    0    0  501 -0.00000000000E+00  0.00000000000E+00  0.43308825431E+03  0.43308825431E+03  0.00000000000E+00 0. -1.
          2   -1    0    0  501    0  0.00000000000E+00 -0.00000000000E+00 -0.23408758344E+02  0.23408758344E+02  0.00000000000E+00 0.  1.
         23    2    1    2    0    0  0.27815763101E+02  0.72428085101E+02  0.29314458956E+03  0.31649726765E+03  0.90648915372E+02 0.  0.
         13    1    3    3    0    0  0.20876824504E+02  0.61248512804E+02  0.29603577974E+03  0.30302541974E+03  0.00000000000E+00 0. -1.
        -13    1    3    3    0    0  0.69389385969E+01  0.11179572297E+02 -0.28911901824E+01  0.13471847916E+02  0.00000000000E+00 0.  1.
         22    1    1    2    0    0 -0.27815763101E+02 -0.72428085101E+02  0.11653490641E+03  0.13999974500E+03  0.00000000000E+00 0.  1.
<mgrwt>
<rscale>  0 0.10714570E+03</rscale>
<asrwt>0</asrwt>
<pdfrwt beam="1">  1        2 0.36013477E-02 0.11931794E+03</pdfrwt>
<pdfrwt beam="2">  1       -2 0.66628956E-01 0.11931794E+03</pdfrwt>
<totfact> 0.48535064E+03</totfact>
</mgrwt>
</event>
<event>
 6    1  0.1661841E-002  0.9554074E+02  0.7546771E-02  0.1380391E+00
         -1   -1    0    0    0  501 -0.00000000000E+00  0.00000000000E+00  0.71987636093E+01  0.71987636093E+01  0.00000000000E+00 0.  1.
          1   -1    0    0  501    0  0.00000000000E+00 -0.00000000000E+00 -0.46109050281E+03  0.46109050281E+03  0.00000000000E+00 0. -1.
         23    2    1    2    0    0 -0.18360560262E+02 -0.70728144675E+01 -0.37404105145E+03  0.38605018075E+03  0.93492775170E+02 0.  0.
         13    1    3    3    0    0  0.17776403694E+01  0.24462266087E+02 -0.25046270767E+02  0.35055358317E+02  0.00000000000E+00 0.  1.
        -13    1    3    3    0    0 -0.20138200631E+02 -0.31535080554E+02 -0.34899478069E+03  0.35099482244E+03  0.00000000000E+00 0. -1.
         22    1    1    2    0    0  0.18360560262E+02  0.70728144675E+01 -0.79850687748E+02  0.82239085668E+02  0.00000000000E+00 0. -1.
<mgrwt>
<rscale>  0 0.64361218E+02</rscale>
<asrwt>0</asrwt>
<pdfrwt beam="1">  1        1 0.70937005E-01 0.95540745E+02</pdfrwt>
<pdfrwt beam="2">  1       -1 0.11075020E-02 0.95540745E+02</pdfrwt>
<totfact> 0.71738553E+04</totfact>
</mgrwt>
</event>
<event>
 6    1  0.1661841E-002  0.9210709E+02  0.7546771E-02  0.1405969E+00
          1   -1    0    0  501    0  0.00000000000E+00  0.00000000000E+00  0.53680496265E+01  0.53680496265E+01  0.00000000000E+00 0. -1.
         -1   -1    0    0    0  501 -0.00000000000E+00 -0.00000000000E+00 -0.67956024328E+03  0.67956024328E+03  0.00000000000E+00 0.  1.
         23    2    1    2    0    0 -0.92161991068E+01  0.11304685945E+02 -0.65132593038E+03  0.65780634153E+03  0.90944934565E+02 0.  0.
         13    1    3    3    0    0 -0.31839200891E+02  0.19760043590E+02 -0.59905192332E+03  0.60022279269E+03  0.00000000000E+00 0.  1.
        -13    1    3    3    0    0  0.22623001784E+02 -0.84553576451E+01 -0.52274007065E+02  0.57583548842E+02  0.00000000000E+00 0. -1.
         22    1    1    2    0    0  0.92161991068E+01 -0.11304685945E+02 -0.22866263272E+02  0.27121951374E+02  0.00000000000E+00 0.  1.
<mgrwt>
<rscale>  0 0.58103121E+02</rscale>
<asrwt>0</asrwt>
<pdfrwt beam="1">  1        1 0.82585364E-03 0.92107086E+02</pdfrwt>
<pdfrwt beam="2">  1       -1 0.10454775E+00 0.92107086E+02</pdfrwt>
<totfact> 0.17337456E+04</totfact>
</mgrwt>
</event>
<event>
 6    1  0.1661841E-002  0.9071148E+02  0.7546771E-02  0.1424276E+00
         -1   -1    0    0    0  501 -0.00000000000E+00  0.00000000000E+00  0.19818002469E+02  0.19818002469E+02  0.00000000000E+00 0.  1.
          1   -1    0    0  501    0  0.00000000000E+00 -0.00000000000E+00 -0.16625405121E+03  0.16625405121E+03  0.00000000000E+00 0. -1.
         23    2    1    2    0    0 -0.99191585861E+01 -0.58164630263E+01 -0.87535705214E+02  0.12605979312E+03  0.89979724417E+02 0.  0.
         13    1    3    3    0    0  0.32186739971E+02  0.82558680135E+01 -0.67916392227E+01  0.33915659362E+02  0.00000000000E+00 0.  1.
        -13    1    3    3    0    0 -0.42105898557E+02 -0.14072331040E+02 -0.80744065991E+02  0.92144133763E+02  0.00000000000E+00 0. -1.
         22    1    1    2    0    0  0.99191585861E+01  0.58164630263E+01 -0.58900343524E+02  0.60012260551E+02  0.00000000000E+00 0. -1.
<mgrwt>
<rscale>  0 0.54126408E+02</rscale>
<asrwt>0</asrwt>
<pdfrwt beam="1">  1        1 0.25577546E-01 0.90711475E+02</pdfrwt>
<pdfrwt beam="2">  1       -1 0.30489235E-02 0.90711475E+02</pdfrwt>
<totfact> 0.59010000E+04</totfact>
</mgrwt>
</event>
<event>
 6    1  0.1661841E-002  0.9443148E+02  0.7546771E-02  0.1400056E+00
          2   -1    0    0  501    0  0.00000000000E+00  0.00000000000E+00  0.25777717850E+03  0.25777717850E+03  0.00000000000E+00 0. -1.
         -2   -1    0    0    0  501 -0.00000000000E+00 -0.00000000000E+00 -0.11589367893E+02  0.11589367893E+02  0.00000000000E+00 0.  1.
         23    2    1    2    0    0  0.70804927850E+01 -0.13061407006E+02  0.21472806624E+03  0.23457503526E+03  0.93255407383E+02 0.  0.
         13    1    3    3    0    0 -0.19313915376E+02 -0.40729149113E+02  0.16928913096E+03  0.17518761593E+03  0.00000000000E+00 0. -1.
        -13    1    3    3    0    0  0.26394408161E+02  0.27667742106E+02  0.45438935279E+02  0.59387419331E+02  0.00000000000E+00 0.  1.
         22    1    1    2    0    0 -0.70804927850E+01  0.13061407006E+02  0.31459744369E+02  0.34791511131E+02  0.00000000000E+00 0.  1.
<mgrwt>
<rscale>  0 0.59473184E+02</rscale>
<asrwt>0</asrwt>
<pdfrwt beam="1">  1        2 0.39658023E-01 0.94431482E+02</pdfrwt>
<pdfrwt beam="2">  1       -2 0.17829799E-02 0.94431482E+02</pdfrwt>
<totfact> 0.10170539E+05</totfact>
</mgrwt>
</event>
<event>
 6    1  0.1661841E-002  0.8989187E+02  0.7546771E-02  0.1349511E+00
         -2   -1    0    0    0  501 -0.00000000000E+00  0.00000000000E+00  0.75450997905E+01  0.75450997905E+01  0.00000000000E+00 0.  1.
          2   -1    0    0  501    0  0.00000000000E+00 -0.00000000000E+00 -0.55785785294E+03  0.55785785294E+03  0.00000000000E+00 0. -1.
         23    2    1    2    0    0 -0.36869104116E+02  0.14295914881E+02 -0.39993375004E+03  0.40991163916E+03  0.80726968697E+02 0.  0.
         11    1    3    3    0    0  0.75747519956E+01 -0.25566513237E+02 -0.76500954055E+02  0.81014933427E+02  0.00000000000E+00 0.  1.
        -11    1    3    3    0    0 -0.44443856112E+02  0.39862428117E+02 -0.32343279598E+03  0.32889670573E+03  0.00000000000E+00 0. -1.
         22    1    1    2    0    0  0.36869104116E+02 -0.14295914881E+02 -0.15037900311E+03  0.15549131358E+03  0.00000000000E+00 0. -1.
<mgrwt>
<rscale>  0 0.73208181E+02</rscale>
<asrwt>0</asrwt>
<pdfrwt beam="1">  1        2 0.85824311E-01 0.89891866E+02</pdfrwt>
<pdfrwt beam="2">  1       -2 0.11607842E-02 0.89891866E+02</pdfrwt>
<totfact> 0.82230913E+04</totfact>
</mgrwt>
</event>
<event>
 6    1  0.1661841E-002  0.9212000E+02  0.7546771E-02  0.1378557E+00
          2   -1    0    0  501    0  0.00000000000E+00  0.00000000000E+00  0.87374079212E+02  0.87374079212E+02  0.00000000000E+00 0. -1.
         -2   -1    0    0    0  501 -0.00000000000E+00 -0.00000000000E+00 -0.40096080409E+02  0.40096080409E+02  0.00000000000E+00 0.  1.
         23    2    1    2    0    0  0.10182856308E+02  0.20195111155E+02  0.24393255104E+02  0.95294942896E+02  0.89300404085E+02 0.  0.
         11    1    3    3    0    0  0.41569046907E+02  0.27584362886E+02  0.35457118288E+02  0.61205310014E+02  0.00000000000E+00 0. -1.
        -11    1    3    3    0    0 -0.31386190599E+02 -0.73892517308E+01 -0.11063863185E+02  0.34089632882E+02  0.00000000000E+00 0.  1.
         22    1    1    2    0    0 -0.10182856308E+02 -0.20195111155E+02  0.22884743699E+02  0.32175216725E+02  0.00000000000E+00 0.  1.
<mgrwt>
<rscale>  0 0.64844729E+02</rscale>
<asrwt>0</asrwt>
<pdfrwt beam="1">  1        2 0.13442166E-01 0.92120005E+02</pdfrwt>
<pdfrwt beam="2">  1       -2 0.61686278E-02 0.92120005E+02</pdfrwt>
<totfact> 0.54404876E+04</totfact>
</mgrwt>
</event>
<event>
 6    1  0.1661841E-002  0.8742003E+02  0.7546771E-02  0.1422506E+00
         -2   -1    0    0    0  501 -0.00000000000E+00  0.00000000000E+00  0.17290278761E+02  0.17290278761E+02  0.00000000000E+00 0.  1.
          2   -1    0    0  501    0  0.00000000000E+00 -0.00000000000E+00 -0.16176188092E+03  0.16176188092E+03  0.00000000000E+00 0. -1.
         23    2    1    2    0    0 -0.12719480145E+02  0.35285473083E+01 -0.10079110548E+03  0.13342079315E+03  0.86417737065E+02 0.  0.
         13    1    3    3    0    0  0.35592209765E+02  0.31938530930E+01 -0.61582733487E+02  0.71199994082E+02  0.00000000000E+00 0.  1.
        -13    1    3    3    0    0 -0.48311689910E+02  0.33469421523E+00 -0.39208371988E+02  0.62220799064E+02  0.00000000000E+00 0. -1.
         22    1    1    2    0    0  0.12719480145E+02 -0.35285473083E+01 -0.43680496681E+02  0.45631366532E+02  0.00000000000E+00 0.  1.
<mgrwt>
<rscale>  0 0.54494213E+02</rscale>
<asrwt>0</asrwt>
<pdfrwt beam="1">  1        2 0.24886442E-01 0.87420027E+02</pdfrwt>
<pdfrwt beam="2">  1       -2 0.26600430E-02 0.87420027E+02</pdfrwt>
<totfact> 0.92894154E+04</totfact>
</mgrwt>
</event>
<event>
 6    1  0.1661841E-002  0.9191220E+02  0.7546771E-02  0.1410526E+00
          1   -1    0    0  501    0  0.00000000000E+00  0.00000000000E+00  0.60580965060E+02  0.60580965060E+02  0.00000000000E+00 0. -1.
         -1   -1    0    0    0  501 -0.00000000000E+00 -0.00000000000E+00 -0.50453424988E+02  0.50453424988E+02  0.00000000000E+00 0.  1.
         23    2    1    2    0    0 -0.83373048314E+01  0.10831142395E+02 -0.31672121102E+01  0.91966754300E+02  0.90890199508E+02 0.  0.
         13    1    3    3    0    0  0.13846427651E+02 -0.68881098178E+01  0.38531955613E+02  0.41519648589E+02  0.00000000000E+00 0. -1.
        -13    1    3    3    0    0 -0.22183732482E+02  0.17719252213E+02 -0.41699167724E+02  0.50447105712E+02  0.00000000000E+00 0.  1.
         22    1    1    2    0    0  0.83373048314E+01 -0.10831142395E+02  0.13294752182E+02  0.19067635748E+02  0.00000000000E+00 0. -1.
<mgrwt>
<rscale>  0 0.57076725E+02</rscale>
<asrwt>0</asrwt>
<pdfrwt beam="1">  1        1 0.93201485E-02 0.91912201E+02</pdfrwt>
<pdfrwt beam="2">  1       -1 0.77620654E-02 0.91912201E+02</pdfrwt>
<totfact> 0.54640593E+04</totfact>
</mgrwt>
</event>
<event>
 6    1  0.1661841E-002  0.1758798E+03  0.7546771E-02  0.1179492E+00
          2   -1    0    0  501    0  0.00000000000E+00  0.00000000000E+00  0.42502429048E+02  0.42502429048E+02  0.00000000000E+00 0. -1.
         -2   -1    0    0    0  501 -0.00000000000E+00 -0.00000000000E+00 -0.61746553115E+03  0.61746553115E+03  0.00000000000E+00 0.  1.
         23    2    1    2    0    0  0.12178584132E+03 -0.83972766192E+02 -0.32349785680E+03  0.36821809096E+03  0.95134024114E+02 0.  0.
         11    1    3    3    0    0  0.25868055076E+02 -0.63915720472E+01 -0.56079219426E+01  0.27229712727E+02  0.00000000000E+00 0. -1.
        -11    1    3    3    0    0  0.95917786245E+02 -0.77581194145E+02 -0.31788993486E+03  0.34098837823E+03  0.00000000000E+00 0.  1.
         22    1    1    2    0    0 -0.12178584132E+03  0.83972766192E+02 -0.25146524530E+03  0.29174986924E+03  0.00000000000E+00 0. -1.
<mgrwt>
<rscale>  0 0.16843248E+03</rscale>
<asrwt>0</asrwt>
<pdfrwt beam="1">  1        2 0.65388354E-02 0.17587979E+03</pdfrwt>
<pdfrwt beam="2">  1       -2 0.94994695E-01 0.17587979E+03</pdfrwt>
<totfact> 0.10481983E+03</totfact>
</mgrwt>
</event>
<event>
 6    1  0.1661841E-002  0.8361286E+02  0.7546771E-02  0.1439793E+00
          4   -1    0    0  501    0  0.00000000000E+00  0.00000000000E+00  0.29014831538E+02  0.29014831538E+02  0.00000000000E+00 0. -1.
         -4   -1    0    0    0  501 -0.00000000000E+00 -0.00000000000E+00 -0.80873584132E+02  0.80873584132E+02  0.00000000000E+00 0.  1.
         23    2    1    2    0    0 -0.46310564141E+01 -0.10649709927E+02 -0.51638409856E+02  0.98273272280E+02  0.82802461722E+02 0.  0.
         13    1    3    3    0    0  0.23836150648E+02  0.20322543774E+02  0.44020578494E+00  0.31326692202E+02  0.00000000000E+00 0. -1.
        -13    1    3    3    0    0 -0.28467207062E+02 -0.30972253700E+02 -0.52078615641E+02  0.66946580079E+02  0.00000000000E+00 0.  1.
         22    1    1    2    0    0  0.46310564141E+01  0.10649709927E+02 -0.22034273835E+00  0.11615143389E+02  0.00000000000E+00 0. -1.
<mgrwt>
<rscale>  0 0.51043615E+02</rscale>
<asrwt>0</asrwt>
<pdfrwt beam="1">  1        4 0.44638203E-02 0.83612862E+02</pdfrwt>
<pdfrwt beam="2">  1       -4 0.12442090E-01 0.83612862E+02</pdfrwt>
<totfact> 0.20916159E+04</totfact>
</mgrwt>
</event>
<event>
 6    1  0.1661841E-002  0.9566208E+02  0.7546771E-02  0.1361887E+00
          1   -1    0    0  501    0  0.00000000000E+00  0.00000000000E+00  0.20109499257E+03  0.20109499257E+03  0.00000000000E+00 0. -1.
         -1   -1    0    0    0  501 -0.00000000000E+00 -0.00000000000E+00 -0.24622445751E+02  0.24622445751E+02  0.00000000000E+00 0.  1.
         23    2    1    2    0    0 -0.14585409366E+02 -0.22260500541E+02  0.77163296729E+02  0.12290405785E+03  0.91885630121E+02 0.  0.
         13    1    3    3    0    0  0.37556235505E+01 -0.54111449603E+02  0.63929375977E+02  0.83839840167E+02  0.00000000000E+00 0. -1.
        -13    1    3    3    0    0 -0.18341032917E+02  0.31850949062E+02  0.13233920752E+02  0.39064217681E+02  0.00000000000E+00 0.  1.
         22    1    1    2    0    0  0.14585409366E+02  0.22260500541E+02  0.99309250094E+02  0.10281338048E+03  0.00000000000E+00 0.  1.
<mgrwt>
<rscale>  0 0.69475112E+02</rscale>
<asrwt>0</asrwt>
<pdfrwt beam="1">  1        1 0.30937690E-01 0.95662078E+02</pdfrwt>
<pdfrwt beam="2">  1       -1 0.37880687E-02 0.95662078E+02</pdfrwt>
<totfact> 0.34333993E+04</totfact>
</mgrwt>
</event>
<event>
 6    1  0.1661841E-002  0.9501020E+02  0.7546771E-02  0.1405688E+00
         -2   -1    0    0    0  501 -0.00000000000E+00  0.00000000000E+00  0.54886807409E+01  0.54886807409E+01  0.00000000000E+00 0.  1.
          2   -1    0    0  501    0  0.00000000000E+00 -0.00000000000E+00 -0.53512844824E+03  0.53512844824E+03  0.00000000000E+00 0. -1.
         23    2    1    2    0    0 -0.10562119223E+02 -0.81609112440E+01 -0.46867041781E+03  0.47820382563E+03  0.94067951361E+02 0.  0.
         13    1    3    3    0    0 -0.29511263740E+02 -0.37611368310E+02 -0.37790296905E+03  0.38091492978E+03  0.00000000000E+00 0. -1.
        -13    1    3    3    0    0  0.18949144517E+02  0.29450457066E+02 -0.90767448769E+02  0.97288895849E+02  0.00000000000E+00 0.  1.
         22    1    1    2    0    0  0.10562119223E+02  0.81609112440E+01 -0.60969349680E+02  0.62413303352E+02  0.00000000000E+00 0.  1.
<mgrwt>
<rscale>  0 0.58167259E+02</rscale>
<asrwt>0</asrwt>
<pdfrwt beam="1">  1        2 0.82327490E-01 0.95010201E+02</pdfrwt>
<pdfrwt beam="2">  1       -2 0.84441205E-03 0.95010201E+02</pdfrwt>
<totfact> 0.13613897E+05</totfact>
</mgrwt>
</event>
<event>
 6    1  0.1661841E-002  0.9286311E+02  0.7546771E-02  0.1420244E+00
         -2   -1    0    0    0  501 -0.00000000000E+00  0.00000000000E+00  0.11574193121E+03  0.11574193121E+03  0.00000000000E+00 0.  1.
          2   -1    0    0  501    0  0.00000000000E+00 -0.00000000000E+00 -0.33614169111E+02  0.33614169111E+02  0.00000000000E+00 0. -1.
         23    2    1    2    0    0 -0.10651404839E+02 -0.40666184664E+01  0.94528203692E+02  0.13251090034E+03  0.92160553408E+02 0.  0.
         11    1    3    3    0    0 -0.21210394019E+02  0.14397632695E+02 -0.87327942993E+01  0.27081992872E+02  0.00000000000E+00 0. -1.
        -11    1    3    3    0    0  0.10558989179E+02 -0.18464251161E+02  0.10326099799E+03  0.10542890747E+03  0.00000000000E+00 0.  1.
         22    1    1    2    0    0  0.10651404839E+02  0.40666184664E+01 -0.12400441592E+02  0.16845199983E+02  0.00000000000E+00 0.  1.
<mgrwt>
<rscale>  0 0.54969411E+02</rscale>
<asrwt>0</asrwt>
<pdfrwt beam="1">  1        2 0.51714107E-02 0.92863111E+02</pdfrwt>
<pdfrwt beam="2">  1       -2 0.17806451E-01 0.92863111E+02</pdfrwt>
<totfact> 0.33603189E+04</totfact>
</mgrwt>
</event>
<event>
 6    1  0.1661841E-002  0.8321449E+02  0.7546771E-02  0.1411174E+00
          3   -1    0    0  501    0  0.00000000000E+00  0.00000000000E+00  0.21334967744E+03  0.21334967744E+03  0.00000000000E+00 0. -1.
         -3   -1    0    0    0  501 -0.00000000000E+00 -0.00000000000E+00 -0.14643437124E+02  0.14643437124E+02  0.00000000000E+00 0.  1.
         23    2    1    2    0    0  0.35711499995E+01 -0.17879423987E+02  0.11279837032E+03  0.14017176726E+03  0.81192518599E+02 0.  0.
         11    1    3    3    0    0 -0.24392711212E+02 -0.15615869088E+02  0.57762421866E+01  0.29533450551E+02  0.00000000000E+00 0.  1.
        -11    1    3    3    0    0  0.27963861212E+02 -0.22635548984E+01  0.10702212813E+03  0.11063831671E+03  0.00000000000E+00 0. -1.
         22    1    1    2    0    0 -0.35711499995E+01  0.17879423987E+02  0.85907869997E+02  0.87821347302E+02  0.00000000000E+00 0. -1.
<mgrwt>
<rscale>  0 0.56932631E+02</rscale>
<asrwt>0</asrwt>
<pdfrwt beam="1">  1        3 0.32823025E-01 0.83214494E+02</pdfrwt>
<pdfrwt beam="2">  1       -3 0.22528366E-02 0.83214494E+02</pdfrwt>
<totfact> 0.14461434E+04</totfact>
</mgrwt>
</event>
<event>
 6    1  0.1661841E-002  0.1002253E+03  0.7546771E-02  0.1332585E+00
         -1   -1    0    0    0  501 -0.00000000000E+00  0.00000000000E+00  0.82794968407E+02  0.82794968407E+02  0.00000000000E+00 0.  1.
          1   -1    0    0  501    0  0.00000000000E+00 -0.00000000000E+00 -0.58733675034E+02  0.58733675034E+02  0.00000000000E+00 0. -1.
         23    2    1    2    0    0 -0.38160702833E+02 -0.23858138437E+01  0.24946091284E+02  0.10328319645E+03  0.92645452396E+02 0.  0.
         11    1    3    3    0    0 -0.76266199346E+01 -0.27554070259E+02 -0.26089387536E+02  0.38704628424E+02  0.00000000000E+00 0. -1.
        -11    1    3    3    0    0 -0.30534082899E+02  0.25168256415E+02  0.51035478820E+02  0.64578568023E+02  0.00000000000E+00 0.  1.
         22    1    1    2    0    0  0.38160702833E+02  0.23858138437E+01 -0.88479791082E+00  0.38245446994E+02  0.00000000000E+00 0. -1.
<mgrwt>
<rscale>  0 0.78767834E+02</rscale>
<asrwt>0</asrwt>
<pdfrwt beam="1">  1        1 0.90359499E-02 0.10022530E+03</pdfrwt>
<pdfrwt beam="2">  1       -1 0.12737688E-01 0.10022530E+03</pdfrwt>
<totfact> 0.27218084E+04</totfact>
</mgrwt>
</event>
<event>
 6    1  0.1661841E-002  0.8949481E+02  0.7546771E-02  0.1394699E+00
          2   -1    0    0  501    0  0.00000000000E+00  0.00000000000E+00  0.35115224675E+03  0.35115224675E+03  0.00000000000E+00 0. -1.
         -2   -1    0    0    0  501 -0.00000000000E+00 -0.00000000000E+00 -0.87833681424E+01  0.87833681424E+01  0.00000000000E+00 0.  1.
         23    2    1    2    0    0  0.17403971803E+02  0.76353539759E+01  0.30706830975E+03  0.31984413167E+03  0.87453558245E+02 0.  0.
         13    1    3    3    0    0 -0.43313183843E+00 -0.39049068857E+02  0.11868984481E+03  0.12494917624E+03  0.00000000000E+00 0.  1.
        -13    1    3    3    0    0  0.17837103642E+02  0.46684422833E+02  0.18837846494E+03  0.19489495543E+03  0.00000000000E+00 0. -1.
         22    1    1    2    0    0 -0.17403971803E+02 -0.76353539759E+01  0.35300568862E+02  0.40091483221E+02  0.00000000000E+00 0. -1.
<mgrwt>
<rscale>  0 0.60752814E+02</rscale>
<asrwt>0</asrwt>
<pdfrwt beam="1">  1        2 0.54023412E-01 0.89494814E+02</pdfrwt>
<pdfrwt beam="2">  1       -2 0.13512877E-02 0.89494814E+02</pdfrwt>
<totfact> 0.10847707E+05</totfact>
</mgrwt>
</event>
<event>
 6    1  0.1661841E-002  0.7807046E+02  0.7546771E-02  0.1435365E+00
         -2   -1    0    0    0  501 -0.00000000000E+00  0.00000000000E+00  0.49549042871E+01  0.49549042871E+01  0.00000000000E+00 0.  1.
          2   -1    0    0  501    0  0.00000000000E+00 -0.00000000000E+00 -0.47374090917E+03  0.47374090917E+03  0.00000000000E+00 0. -1.
         23    2    1    2    0    0 -0.13474004505E+02  0.71328415845E+01 -0.42983711255E+03  0.43686947677E+03  0.76567422473E+02 0.  0.
         11    1    3    3    0    0 -0.28150617889E+02  0.35389264201E+02 -0.28577303184E+03  0.28932867649E+03  0.00000000000E+00 0. -1.
        -11    1    3    3    0    0  0.14676613384E+02 -0.28256422616E+02 -0.14406408070E+03  0.14754080028E+03  0.00000000000E+00 0.  1.
         22    1    1    2    0    0  0.13474004505E+02 -0.71328415845E+01 -0.38948892335E+02  0.41826336686E+02  0.00000000000E+00 0.  1.
<mgrwt>
<rscale>  0 0.51898008E+02</rscale>
<asrwt>0</asrwt>
<pdfrwt beam="1">  1        2 0.72883225E-01 0.78070458E+02</pdfrwt>
<pdfrwt beam="2">  1       -2 0.76229288E-03 0.78070458E+02</pdfrwt>
<totfact> 0.17384784E+05</totfact>
</mgrwt>
</event>
<event>
 6    1  0.1661841E-002  0.9380486E+02  0.7546771E-02  0.1390428E+00
          1   -1    0    0  501    0  0.00000000000E+00  0.00000000000E+00  0.60831198515E+03  0.60831198515E+03  0.00000000000E+00 0. -1.
         -1   -1    0    0    0  501 -0.00000000000E+00 -0.00000000000E+00 -0.51130617740E+01  0.51130617740E+01  0.00000000000E+00 0.  1.
         23    2    1    2    0    0  0.12581281070E+02 -0.12410082551E+02  0.51492961437E+03  0.52340410661E+03  0.92125198944E+02 0.  0.
         11    1    3    3    0    0  0.52657457624E+02 -0.97471592450E+01  0.30541212165E+03  0.31007157079E+03  0.00000000000E+00 0. -1.
        -11    1    3    3    0    0 -0.40076176553E+02 -0.26629233064E+01  0.20951749272E+03  0.21333253583E+03  0.00000000000E+00 0.  1.
         22    1    1    2    0    0 -0.12581281070E+02  0.12410082551E+02  0.88269309006E+02  0.90020940312E+02  0.00000000000E+00 0.  1.
<mgrwt>
<rscale>  0 0.61800257E+02</rscale>
<asrwt>0</asrwt>
<pdfrwt beam="1">  1        1 0.93586402E-01 0.93804856E+02</pdfrwt>
<pdfrwt beam="2">  1       -1 0.78662537E-03 0.93804856E+02</pdfrwt>
<totfact> 0.80796322E+04</totfact>
</mgrwt>
</event>
<event>
 6    1  0.1661841E-002  0.9465365E+02  0.7546771E-02  0.1409359E+00
         -2   -1    0    0    0  501 -0.00000000000E+00  0.00000000000E+00  0.25051591813E+03  0.25051591813E+03  0.00000000000E+00 0.  1.
          2   -1    0    0  501    0  0.00000000000E+00 -0.00000000000E+00 -0.18138409421E+02  0.18138409421E+02  0.00000000000E+00 0. -1.
         23    2    1    2    0    0  0.64839704440E+01 -0.10972033922E+02  0.23691691328E+03  0.25512533664E+03  0.93791717085E+02 0.  0.
         13    1    3    3    0    0 -0.11337961209E+02  0.27686370976E+02  0.25038471608E+02  0.39012940965E+02  0.00000000000E+00 0. -1.
        -13    1    3    3    0    0  0.17821931653E+02 -0.38658404898E+02  0.21187844168E+03  0.21611239567E+03  0.00000000000E+00 0.  1.
         22    1    1    2    0    0 -0.64839704440E+01  0.10972033922E+02 -0.45394045784E+01  0.13528990910E+02  0.00000000000E+00 0. -1.
<mgrwt>
<rscale>  0 0.57337062E+02</rscale>
<asrwt>0</asrwt>
<pdfrwt beam="1">  1        2 0.27905247E-02 0.94653651E+02</pdfrwt>
<pdfrwt beam="2">  1       -2 0.38540908E-01 0.94653651E+02</pdfrwt>
<totfact> 0.19613152E+04</totfact>
</mgrwt>
</event>
<event>
 6    1  0.1661841E-002  0.9467935E+02  0.7546771E-02  0.1381320E+00
          2   -1    0    0  501    0  0.00000000000E+00  0.00000000000E+00  0.71458376775E+01  0.71458376775E+01  0.00000000000E+00 0. -1.
         -2   -1    0    0    0  501 -0.00000000000E+00 -0.00000000000E+00 -0.48890353228E+03  0.48890353228E+03  0.00000000000E+00 0.  1.
         23    2    1    2    0    0  0.68156025936E+01  0.18711359993E+02 -0.43574137921E+03  0.44590888020E+03  0.92561398261E+02 0.  0.
         13    1    3    3    0    0 -0.64742452555E+01 -0.35249861253E+02 -0.11724526941E+03  0.12260065974E+03  0.00000000000E+00 0.  1.
        -13    1    3    3    0    0  0.13289847849E+02  0.53961221246E+02 -0.31849610980E+03  0.32330822045E+03  0.00000000000E+00 0. -1.
         22    1    1    2    0    0 -0.68156025936E+01 -0.18711359993E+02 -0.46016315392E+02  0.50140489764E+02  0.00000000000E+00 0. -1.
<mgrwt>
<rscale>  0 0.64118166E+02</rscale>
<asrwt>0</asrwt>
<pdfrwt beam="1">  1        2 0.10993594E-02 0.94679353E+02</pdfrwt>
<pdfrwt beam="2">  1       -2 0.75215942E-01 0.94679353E+02</pdfrwt>
<totfact> 0.18210483E+04</totfact>
</mgrwt>
</event>
<event>
 6    1  0.1661841E-002  0.9389578E+02  0.7546771E-02  0.1390748E+00
         -2   -1    0    0    0  501 -0.00000000000E+00  0.00000000000E+00  0.52977297870E+02  0.52977297870E+02  0.00000000000E+00 0.  1.
          2   -1    0    0  501    0  0.00000000000E+00 -0.00000000000E+00 -0.60032626099E+02  0.60032626099E+02  0.00000000000E+00 0. -1.
         23    2    1    2    0    0  0.80279774174E+01 -0.15584233548E+02  0.55849949215E+00  0.93897437755E+02  0.92244783802E+02 0.  0.
         11    1    3    3    0    0  0.27924272533E+02 -0.40304426589E+02  0.23858662409E+02  0.54529327624E+02  0.00000000000E+00 0.  1.
        -11    1    3    3    0    0 -0.19896295116E+02  0.24720193042E+02 -0.23300162917E+02  0.39368110131E+02  0.00000000000E+00 0. -1.
         22    1    1    2    0    0 -0.80279774174E+01  0.15584233548E+02 -0.76138277210E+01  0.19112486213E+02  0.00000000000E+00 0. -1.
<mgrwt>
<rscale>  0 0.61720982E+02</rscale>
<asrwt>0</asrwt>
<pdfrwt beam="1">  1        2 0.92357887E-02 0.93895777E+02</pdfrwt>
<pdfrwt beam="2">  1       -2 0.81503534E-02 0.93895777E+02</pdfrwt>
<totfact> 0.56046305E+04</totfact>
</mgrwt>
</event>
<event>
 6    1  0.1661841E-002  0.9264952E+02  0.7546771E-02  0.1401019E+00
          2   -1    0    0  501    0  0.00000000000E+00  0.00000000000E+00  0.61300258714E+02  0.61300258714E+02  0.00000000000E+00 0. -1.
         -2   -1    0    0    0  501 -0.00000000000E+00 -0.00000000000E+00 -0.51516397912E+02  0.51516397912E+02  0.00000000000E+00 0.  1.
         23    2    1    2    0    0 -0.50188037894E+01 -0.14657708457E+02 -0.30480317775E+01  0.92699642041E+02  0.91344930500E+02 0.  0.
         11    1    3    3    0    0 -0.15294298625E+02 -0.57126085243E+00  0.41836136337E+02  0.44547774501E+02  0.00000000000E+00 0. -1.
        -11    1    3    3    0    0  0.10275494836E+02 -0.14086447604E+02 -0.44884168114E+02  0.48151867540E+02  0.00000000000E+00 0.  1.
         22    1    1    2    0    0  0.50188037894E+01  0.14657708457E+02  0.12831892579E+02  0.20117014586E+02  0.00000000000E+00 0. -1.
<mgrwt>
<rscale>  0 0.59247101E+02</rscale>
<asrwt>0</asrwt>
<pdfrwt beam="1">  1        2 0.94308090E-02 0.92649518E+02</pdfrwt>
<pdfrwt beam="2">  1       -2 0.79255997E-02 0.92649518E+02</pdfrwt>
<totfact> 0.56914770E+04</totfact>
</mgrwt>
</event>
<event>
 6    1  0.1661841E-002  0.9084903E+02  0.7546771E-02  0.1402665E+00
         -3   -1    0    0    0  501 -0.00000000000E+00  0.00000000000E+00  0.34054338513E+02  0.34054338513E+02  0.00000000000E+00 0.  1.
          3   -1    0    0  501    0  0.00000000000E+00 -0.00000000000E+00 -0.88388707574E+02  0.88388707574E+02  0.00000000000E+00 0. -1.
         23    2    1    2    0    0  0.12516775083E+02  0.99839611841E+01 -0.35043655053E+02  0.97373527019E+02  0.89427047727E+02 0.  0.
         13    1    3    3    0    0 -0.18601287642E+02  0.35617897798E+02  0.50691889202E+01  0.40501101488E+02  0.00000000000E+00 0.  1.
        -13    1    3    3    0    0  0.31118062725E+02 -0.25633936614E+02 -0.40112843974E+02  0.56872425531E+02  0.00000000000E+00 0. -1.
         22    1    1    2    0    0 -0.12516775083E+02 -0.99839611841E+01 -0.19290714008E+02  0.25069519069E+02  0.00000000000E+00 0. -1.
<mgrwt>
<rscale>  0 0.58863245E+02</rscale>
<asrwt>0</asrwt>
<pdfrwt beam="1">  1        3 0.13598263E-01 0.90849029E+02</pdfrwt>
<pdfrwt beam="2">  1       -3 0.52391291E-02 0.90849029E+02</pdfrwt>
<totfact> 0.18975916E+04</totfact>
</mgrwt>
</event>
<event>
 6    1  0.1661841E-002  0.9085101E+02  0.7546771E-02  0.1427686E+00
          4   -1    0    0  501    0  0.00000000000E+00  0.00000000000E+00  0.10958057441E+03  0.10958057441E+03  0.00000000000E+00 0. -1.
         -4   -1    0    0    0  501 -0.00000000000E+00 -0.00000000000E+00 -0.32271251680E+02  0.32271251680E+02  0.00000000000E+00 0.  1.
         23    2    1    2    0    0 -0.38636577364E+01  0.10155730118E+02  0.33685108494E+02  0.96894749082E+02  0.90198886690E+02 0.  0.
         13    1    3    3    0    0 -0.81806260993E+01  0.20342626220E+02  0.62390455338E+02  0.66131036603E+02  0.00000000000E+00 0. -1.
        -13    1    3    3    0    0  0.43169683630E+01 -0.10186896102E+02 -0.28705346844E+02  0.30763712479E+02  0.00000000000E+00 0.  1.
         22    1    1    2    0    0  0.38636577364E+01 -0.10155730118E+02  0.43624214237E+02  0.44957077009E+02  0.00000000000E+00 0. -1.
<mgrwt>
<rscale>  0 0.53427302E+02</rscale>
<asrwt>0</asrwt>
<pdfrwt beam="1">  1        4 0.16858550E-01 0.90851009E+02</pdfrwt>
<pdfrwt beam="2">  1       -4 0.49648080E-02 0.90851009E+02</pdfrwt>
<totfact> 0.10746292E+04</totfact>
</mgrwt>
</event>
<event>
 6    1  0.1661841E-002  0.9209142E+02  0.7546771E-02  0.1429447E+00
          2   -1    0    0  501    0  0.00000000000E+00  0.00000000000E+00  0.15216843938E+02  0.15216843938E+02  0.00000000000E+00 0. -1.
         -2   -1    0    0    0  501 -0.00000000000E+00 -0.00000000000E+00 -0.18877942525E+03  0.18877942525E+03  0.00000000000E+00 0.  1.
         23    2    1    2    0    0  0.97689468522E+01  0.27818870200E+01 -0.16979823256E+03  0.19316383920E+03  0.91529545903E+02 0.  0.
         11    1    3    3    0    0 -0.23193212348E+02  0.35160829571E+02 -0.53981220642E+02  0.68470294414E+02  0.00000000000E+00 0.  1.
        -11    1    3    3    0    0  0.32962159200E+02 -0.32378942551E+02 -0.11581701192E+03  0.12469354478E+03  0.00000000000E+00 0. -1.
         22    1    1    2    0    0 -0.97689468522E+01 -0.27818870200E+01 -0.37643487441E+01  0.10832429989E+02  0.00000000000E+00 0. -1.
<mgrwt>
<rscale>  0 0.53071234E+02</rscale>
<asrwt>0</asrwt>
<pdfrwt beam="1">  1        2 0.23410531E-02 0.92091416E+02</pdfrwt>
<pdfrwt beam="2">  1       -2 0.29042986E-01 0.92091416E+02</pdfrwt>
<totfact> 0.41337697E+04</totfact>
</mgrwt>
</event>
<event>
 6    1  0.1661841E-002  0.9039944E+02  0.7546771E-02  0.1427125E+00
          2   -1    0    0  501    0  0.00000000000E+00  0.00000000000E+00  0.96537536497E+03  0.96537536497E+03  0.00000000000E+00 0. -1.
         -2   -1    0    0    0  501 -0.00000000000E+00 -0.00000000000E+00 -0.28164500903E+01  0.28164500903E+01  0.00000000000E+00 0.  1.
         23    2    1    2    0    0  0.10850814836E+02 -0.24505808839E+01  0.90936258544E+03  0.91384482807E+03  0.89712387435E+02 0.  0.
         13    1    3    3    0    0  0.48630514592E+02  0.11390155250E+02  0.53491228141E+03  0.53723906354E+03  0.00000000000E+00 0. -1.
        -13    1    3    3    0    0 -0.37779699756E+02 -0.13840736134E+02  0.37445030403E+03  0.37660576453E+03  0.00000000000E+00 0.  1.
         22    1    1    2    0    0 -0.10850814836E+02  0.24505808839E+01  0.53196329439E+02  0.54346986992E+02  0.00000000000E+00 0.  1.
<mgrwt>
<rscale>  0 0.53541493E+02</rscale>
<asrwt>0</asrwt>
<pdfrwt beam="1">  1        2 0.14851902E+00 0.90399436E+02</pdfrwt>
<pdfrwt beam="2">  1       -2 0.43330079E-03 0.90399436E+02</pdfrwt>
<totfact> 0.17124139E+05</totfact>
</mgrwt>
</event>
<event>
 6    1  0.1661841E-002  0.8827733E+02  0.7546771E-02  0.1425944E+00
         -1   -1    0    0    0  501 -0.00000000000E+00  0.00000000000E+00  0.21875445381E+02  0.21875445381E+02  0.00000000000E+00 0.  1.
          1   -1    0    0  501    0  0.00000000000E+00 -0.00000000000E+00 -0.12135871073E+03  0.12135871073E+03  0.00000000000E+00 0. -1.
         23    2    1    2    0    0 -0.12159974894E+02  0.25772773255E+00 -0.74757072020E+02  0.11567846614E+03  0.87435440750E+02 0.  0.
         11    1    3    3    0    0 -0.29496388186E+01 -0.26630693518E+00 -0.94153441959E+02  0.94200010198E+02  0.00000000000E+00 0. -1.
        -11    1    3    3    0    0 -0.92103360757E+01  0.52403466773E+00  0.19396369939E+02  0.21478455945E+02  0.00000000000E+00 0.  1.
         22    1    1    2    0    0  0.12159974894E+02 -0.25772773255E+00 -0.24726193325E+02  0.27555689963E+02  0.00000000000E+00 0. -1.
<mgrwt>
<rscale>  0 0.53782930E+02</rscale>
<asrwt>0</asrwt>
<pdfrwt beam="1">  1        1 0.18670571E-01 0.88277334E+02</pdfrwt>
<pdfrwt beam="2">  1       -1 0.33654532E-02 0.88277334E+02</pdfrwt>
<totfact> 0.75501695E+04</totfact>
</mgrwt>
</event>
<event>
 6    1  0.1661841E-002  0.9890666E+02  0.7546771E-02  0.1327950E+00
         -2   -1    0    0    0  501 -0.00000000000E+00  0.00000000000E+00  0.29434399556E+02  0.29434399556E+02  0.00000000000E+00 0.  1.
          2   -1    0    0  501    0  0.00000000000E+00 -0.00000000000E+00 -0.18232857234E+03  0.18232857234E+03  0.00000000000E+00 0. -1.
         23    2    1    2    0    0 -0.42227836514E+02 -0.89408137311E+01 -0.12858647859E+03  0.16222518507E+03  0.88991010039E+02 0.  0.
         11    1    3    3    0    0 -0.24938689509E+02 -0.42995383642E+02 -0.10788311447E+03  0.11878260662E+03  0.00000000000E+00 0. -1.
        -11    1    3    3    0    0 -0.17289147004E+02  0.34054569911E+02 -0.20703364120E+02  0.43442578444E+02  0.00000000000E+00 0.  1.
         22    1    1    2    0    0  0.42227836514E+02  0.89408137311E+01 -0.24307694198E+02  0.49537786830E+02  0.00000000000E+00 0.  1.
<mgrwt>
<rscale>  0 0.80389534E+02</rscale>
<asrwt>0</asrwt>
<pdfrwt beam="1">  1        2 0.28050550E-01 0.98906664E+02</pdfrwt>
<pdfrwt beam="2">  1       -2 0.45283692E-02 0.98906664E+02</pdfrwt>
<totfact> 0.38104547E+04</totfact>
</mgrwt>
</event>
<event>
 6    1  0.1661841E-002  0.9411691E+02  0.7546771E-02  0.1395160E+00
         -2   -1    0    0    0  501 -0.00000000000E+00  0.00000000000E+00  0.25093814367E+02  0.25093814367E+02  0.00000000000E+00 0.  1.
          2   -1    0    0  501    0  0.00000000000E+00 -0.00000000000E+00 -0.16063200376E+03  0.16063200376E+03  0.00000000000E+00 0. -1.
         23    2    1    2    0    0  0.16111980946E+02  0.18758724457E+01 -0.67600363302E+02  0.11587839125E+03  0.92708562779E+02 0.  0.
         13    1    3    3    0    0  0.43490758932E+02 -0.10287596702E+02 -0.72847104052E+02  0.85463333232E+02  0.00000000000E+00 0. -1.
        -13    1    3    3    0    0 -0.27378777986E+02  0.12163469148E+02  0.52467407497E+01  0.30415058017E+02  0.00000000000E+00 0.  1.
         22    1    1    2    0    0 -0.16111980946E+02 -0.18758724457E+01 -0.67937826086E+02  0.69847426873E+02  0.00000000000E+00 0.  1.
<mgrwt>
<rscale>  0 0.60641356E+02</rscale>
<asrwt>0</asrwt>
<pdfrwt beam="1">  1        2 0.24712616E-01 0.94116908E+02</pdfrwt>
<pdfrwt beam="2">  1       -2 0.38605869E-02 0.94116908E+02</pdfrwt>
<totfact> 0.54975519E+04</totfact>
</mgrwt>
</event>
<event>
 6    1  0.1661841E-002  0.9077821E+02  0.7546771E-02  0.1420822E+00
          2   -1    0    0  501    0  0.00000000000E+00  0.00000000000E+00  0.54274016758E+02  0.54274016758E+02  0.00000000000E+00 0. -1.
         -2   -1    0    0    0  501 -0.00000000000E+00 -0.00000000000E+00 -0.65403212379E+02  0.65403212379E+02  0.00000000000E+00 0.  1.
         23    2    1    2    0    0  0.11329483575E+02 -0.42401501695E+01 -0.31413360558E+02  0.96059790269E+02  0.89968594595E+02 0.  0.
         11    1    3    3    0    0 -0.17388065483E+02 -0.13843435167E+02  0.24125294393E+02  0.32802672880E+02  0.00000000000E+00 0. -1.
        -11    1    3    3    0    0  0.28717549058E+02  0.96032849977E+01 -0.55538654951E+02  0.63257117390E+02  0.00000000000E+00 0.  1.
         22    1    1    2    0    0 -0.11329483575E+02  0.42401501695E+01  0.20284164936E+02  0.23617438868E+02  0.00000000000E+00 0. -1.
<mgrwt>
<rscale>  0 0.54847287E+02</rscale>
<asrwt>0</asrwt>
<pdfrwt beam="1">  1        2 0.83498487E-02 0.90778214E+02</pdfrwt>
<pdfrwt beam="2">  1       -2 0.10062033E-01 0.90778214E+02</pdfrwt>
<totfact> 0.45615143E+04</totfact>
</mgrwt>
</event>
<event>
 6    1  0.1661841E-002  0.9124624E+02  0.7546771E-02  0.1417234E+00
         -1   -1    0    0    0  501 -0.00000000000E+00  0.00000000000E+00  0.60195422902E+03  0.60195422902E+03  0.00000000000E+00 0.  1.
          1   -1    0    0  501    0  0.00000000000E+00 -0.00000000000E+00 -0.70544467330E+01  0.70544467330E+01  0.00000000000E+00 0. -1.
         23    2    1    2    0    0 -0.65147413426E+01  0.10771881567E+02  0.58721014036E+03  0.59425720531E+03  0.90373678897E+02 0.  0.
         11    1    3    3    0    0  0.36015665049E+02  0.24846106034E+02  0.36199509275E+03  0.36462981816E+03  0.00000000000E+00 0.  1.
        -11    1    3    3    0    0 -0.42530406391E+02 -0.14074224467E+02  0.22521504761E+03  0.22962738716E+03  0.00000000000E+00 0. -1.
         22    1    1    2    0    0  0.65147413426E+01 -0.10771881567E+02  0.76896419324E+01  0.14751470445E+02  0.00000000000E+00 0. -1.
<mgrwt>
<rscale>  0 0.55610454E+02</rscale>
<asrwt>0</asrwt>
<pdfrwt beam="1">  1        1 0.10853000E-02 0.91246244E+02</pdfrwt>
<pdfrwt beam="2">  1       -1 0.92608303E-01 0.91246244E+02</pdfrwt>
<totfact> 0.15420854E+04</totfact>
</mgrwt>
</event>
<event>
 6    1  0.1661841E-002  0.9862250E+02  0.7546771E-02  0.1378421E+00
          2   -1    0    0  501    0  0.00000000000E+00  0.00000000000E+00  0.83965091528E+02  0.83965091528E+02  0.00000000000E+00 0. -1.
         -2   -1    0    0    0  501 -0.00000000000E+00 -0.00000000000E+00 -0.40830081587E+02  0.40830081587E+02  0.00000000000E+00 0.  1.
         23    2    1    2    0    0 -0.15799422901E+02 -0.95721972674E+01  0.35796961684E+02  0.10491815934E+03  0.96876978525E+02 0.  0.
         11    1    3    3    0    0  0.21684783572E+01  0.21041973424E+02 -0.26081132619E+02  0.33581131944E+02  0.00000000000E+00 0.  1.
        -11    1    3    3    0    0 -0.17967901258E+02 -0.30614170691E+02  0.61878094302E+02  0.71337027392E+02  0.00000000000E+00 0. -1.
         22    1    1    2    0    0  0.15799422901E+02  0.95721972674E+01  0.73380482580E+01  0.19877013779E+02  0.00000000000E+00 0.  1.
<mgrwt>
<rscale>  0 0.64880754E+02</rscale>
<asrwt>0</asrwt>
<pdfrwt beam="1">  1        2 0.12917706E-01 0.98622501E+02</pdfrwt>
<pdfrwt beam="2">  1       -2 0.62815510E-02 0.98622501E+02</pdfrwt>
<totfact> 0.55997975E+04</totfact>
</mgrwt>
</event>
<event>
 6    1  0.1661841E-002  0.9863234E+02  0.7546771E-02  0.1363900E+00
         -1   -1    0    0    0  501 -0.00000000000E+00  0.00000000000E+00  0.27229422900E+03  0.27229422900E+03  0.00000000000E+00 0.  1.
          1   -1    0    0  501    0  0.00000000000E+00 -0.00000000000E+00 -0.26677883675E+02  0.26677883675E+02  0.00000000000E+00 0. -1.
         23    2    1    2    0    0 -0.16170434704E+02 -0.17019543907E+02  0.25521348033E+03  0.27360968311E+03  0.95797652958E+02 0.  0.
         13    1    3    3    0    0 -0.31653685204E+01 -0.56683332992E+02  0.14038205642E+03  0.15142701728E+03  0.00000000000E+00 0. -1.
        -13    1    3    3    0    0 -0.13005066183E+02  0.39663789084E+02  0.11483142391E+03  0.12218266583E+03  0.00000000000E+00 0.  1.
         22    1    1    2    0    0  0.16170434704E+02  0.17019543907E+02 -0.95971350077E+01  0.25362429570E+02  0.00000000000E+00 0. -1.
<mgrwt>
<rscale>  0 0.68892669E+02</rscale>
<asrwt>0</asrwt>
<pdfrwt beam="1">  1        1 0.41042900E-02 0.98632338E+02</pdfrwt>
<pdfrwt beam="2">  1       -1 0.41891418E-01 0.98632338E+02</pdfrwt>
<totfact> 0.11336532E+04</totfact>
</mgrwt>
</event>
<event>
 6    1  0.1661841E-002  0.9594158E+02  0.7546771E-02  0.1355108E+00
          2   -1    0    0  501    0  0.00000000000E+00  0.00000000000E+00  0.42225848083E+02  0.42225848083E+02  0.00000000000E+00 0. -1.
         -2   -1    0    0    0  501 -0.00000000000E+00 -0.00000000000E+00 -0.16063561909E+03  0.16063561909E+03  0.00000000000E+00 0.  1.
         23    2    1    2    0    0 -0.20464528168E+02 -0.21347872918E+02 -0.13749931206E+03  0.16766289946E+03  0.91270249518E+02 0.  0.
         13    1    3    3    0    0  0.35982583347E+02 -0.14432630605E+01 -0.48440029185E+02  0.60359471006E+02  0.00000000000E+00 0. -1.
        -13    1    3    3    0    0 -0.56447111515E+02 -0.19904609857E+02 -0.89059282872E+02  0.10730342845E+03  0.00000000000E+00 0.  1.
         22    1    1    2    0    0  0.20464528168E+02  0.21347872918E+02  0.19089541055E+02  0.35198567711E+02  0.00000000000E+00 0. -1.
<mgrwt>
<rscale>  0 0.71486973E+02</rscale>
<asrwt>0</asrwt>
<pdfrwt beam="1">  1        2 0.64962842E-02 0.95941581E+02</pdfrwt>
<pdfrwt beam="2">  1       -2 0.24713173E-01 0.95941581E+02</pdfrwt>
<totfact> 0.14492325E+04</totfact>
</mgrwt>
</event>
<event>
 6    1  0.1661841E-002  0.8490309E+02  0.7546771E-02  0.1439716E+00
          2   -1    0    0  501    0  0.00000000000E+00  0.00000000000E+00  0.26286841852E+02  0.26286841852E+02  0.00000000000E+00 0. -1.
         -2   -1    0    0    0  501 -0.00000000000E+00 -0.00000000000E+00 -0.10590785042E+03  0.10590785042E+03  0.00000000000E+00 0.  1.
         23    2    1    2    0    0 -0.60441956217E+01 -0.93152515718E+01 -0.84750142306E+02  0.11996300288E+03  0.84173803677E+02 0.  0.
         13    1    3    3    0    0  0.20255052245E+02  0.26896525594E+02 -0.14481253960E+02  0.36652379824E+02  0.00000000000E+00 0. -1.
        -13    1    3    3    0    0 -0.26299247867E+02 -0.36211777166E+02 -0.70268888346E+02  0.83310623052E+02  0.00000000000E+00 0.  1.
         22    1    1    2    0    0  0.60441956217E+01  0.93152515718E+01  0.51291337387E+01  0.12231689395E+02  0.00000000000E+00 0. -1.
<mgrwt>
<rscale>  0 0.51058230E+02</rscale>
<asrwt>0</asrwt>
<pdfrwt beam="1">  1        2 0.40441295E-02 0.84903094E+02</pdfrwt>
<pdfrwt beam="2">  1       -2 0.16293516E-01 0.84903094E+02</pdfrwt>
<totfact> 0.52785834E+04</totfact>
</mgrwt>
</event>
<event>
 6    1  0.1661841E-002  0.9203367E+02  0.7546771E-02  0.1403086E+00
          2   -1    0    0  501    0  0.00000000000E+00  0.00000000000E+00  0.73055022724E+02  0.73055022724E+02  0.00000000000E+00 0. -1.
         -2   -1    0    0    0  501 -0.00000000000E+00 -0.00000000000E+00 -0.59109940291E+02  0.59109940291E+02  0.00000000000E+00 0.  1.
         23    2    1    2    0    0 -0.11077059171E+02 -0.10552058141E+02 -0.20664352488E+02  0.94325034944E+02  0.90753234557E+02 0.  0.
         11    1    3    3    0    0  0.32721179898E+02 -0.23982267447E+02 -0.26028893677E+02  0.48200913600E+02  0.00000000000E+00 0.  1.
        -11    1    3    3    0    0 -0.43798239069E+02  0.13430209306E+02  0.53645411890E+01  0.46124121344E+02  0.00000000000E+00 0. -1.
         22    1    1    2    0    0  0.11077059171E+02  0.10552058141E+02  0.34609434921E+02  0.37839928071E+02  0.00000000000E+00 0. -1.
<mgrwt>
<rscale>  0 0.58765575E+02</rscale>
<asrwt>0</asrwt>
<pdfrwt beam="1">  1        2 0.11239234E-01 0.92033672E+02</pdfrwt>
<pdfrwt beam="2">  1       -2 0.90938370E-02 0.92033672E+02</pdfrwt>
<totfact> 0.37243697E+04</totfact>
</mgrwt>
</event>
<event>
 6    1  0.1661841E-002  0.9019275E+02  0.7546771E-02  0.1398519E+00
         -2   -1    0    0    0  501 -0.00000000000E+00  0.00000000000E+00  0.22060118579E+03  0.22060118579E+03  0.00000000000E+00 0.  1.
          2   -1    0    0  501    0  0.00000000000E+00 -0.00000000000E+00 -0.13202595287E+02  0.13202595287E+02  0.00000000000E+00 0. -1.
         23    2    1    2    0    0  0.16422719929E+02 -0.59642652707E+01  0.16728036857E+03  0.19004592554E+03  0.88484201504E+02 0.  0.
         11    1    3    3    0    0  0.22829056831E+01 -0.17811335969E+02  0.17039445112E+03  0.17133804108E+03  0.00000000000E+00 0.  1.
        -11    1    3    3    0    0  0.14139814246E+02  0.11847070698E+02 -0.31140825498E+01  0.18707884465E+02  0.00000000000E+00 0. -1.
         22    1    1    2    0    0 -0.16422719929E+02  0.59642652707E+01  0.40118221936E+02  0.43757855539E+02  0.00000000000E+00 0.  1.
<mgrwt>
<rscale>  0 0.59836433E+02</rscale>
<asrwt>0</asrwt>
<pdfrwt beam="1">  1        2 0.20311687E-02 0.90192750E+02</pdfrwt>
<pdfrwt beam="2">  1       -2 0.33938641E-01 0.90192750E+02</pdfrwt>
<totfact> 0.37707521E+04</totfact>
</mgrwt>
</event>
<event>
 6    1  0.1661841E-002  0.9143097E+02  0.7546771E-02  0.1424302E+00
          1   -1    0    0  501    0  0.00000000000E+00  0.00000000000E+00  0.92943334538E+02  0.92943334538E+02  0.00000000000E+00 0. -1.
         -1   -1    0    0    0  501 -0.00000000000E+00 -0.00000000000E+00 -0.29989411194E+02  0.29989411194E+02  0.00000000000E+00 0.  1.
         23    2    1    2    0    0 -0.88272424304E+01  0.69339285969E+01  0.45363612896E+02  0.10206605945E+03  0.90739316407E+02 0.  0.
         13    1    3    3    0    0  0.21940558656E+01  0.26021333620E+02  0.66552333988E+02  0.71492215267E+02  0.00000000000E+00 0. -1.
        -13    1    3    3    0    0 -0.11021298296E+02 -0.19087405023E+02 -0.21188721092E+02  0.30573844183E+02  0.00000000000E+00 0.  1.
         22    1    1    2    0    0  0.88272424304E+01 -0.69339285969E+01  0.17590310449E+02  0.20866686282E+02  0.00000000000E+00 0.  1.
<mgrwt>
<rscale>  0 0.54121042E+02</rscale>
<asrwt>0</asrwt>
<pdfrwt beam="1">  1        1 0.14298974E-01 0.91430975E+02</pdfrwt>
<pdfrwt beam="2">  1       -1 0.46137556E-02 0.91430975E+02</pdfrwt>
<totfact> 0.67407776E+04</totfact>
</mgrwt>
</event>
<event>
 6    1  0.1661841E-002  0.9286376E+02  0.7546771E-02  0.1409256E+00
         -4   -1    0    0    0  501 -0.00000000000E+00  0.00000000000E+00  0.42855846273E+03  0.42855846273E+03  0.00000000000E+00 0.  1.
          4   -1    0    0  501    0  0.00000000000E+00 -0.00000000000E+00 -0.12727291758E+02  0.12727291758E+02  0.00000000000E+00 0. -1.
         23    2    1    2    0    0  0.70619282600E+01 -0.11526380579E+02  0.41746568840E+03  0.42766959030E+03  0.91874638523E+02 0.  0.
         11    1    3    3    0    0  0.35309687454E+02 -0.14766043374E+02  0.76689832832E+02  0.85709629125E+02  0.00000000000E+00 0. -1.
        -11    1    3    3    0    0 -0.28247759194E+02  0.32396627951E+01  0.34077585556E+03  0.34195996118E+03  0.00000000000E+00 0.  1.
         22    1    1    2    0    0 -0.70619282600E+01  0.11526380579E+02 -0.16345174197E+01  0.13616164188E+02  0.00000000000E+00 0. -1.
<mgrwt>
<rscale>  0 0.57360167E+02</rscale>
<asrwt>0</asrwt>
<pdfrwt beam="1">  1        4 0.19580452E-02 0.92863758E+02</pdfrwt>
<pdfrwt beam="2">  1       -4 0.65932060E-01 0.92863758E+02</pdfrwt>
<totfact> 0.33962337E+03</totfact>
</mgrwt>
</event>
<event>
 6    1  0.1661841E-002  0.9803593E+02  0.7546771E-02  0.1341021E+00
          2   -1    0    0  501    0  0.00000000000E+00  0.00000000000E+00  0.99026230894E+02  0.99026230894E+02  0.00000000000E+00 0. -1.
         -2   -1    0    0    0  501 -0.00000000000E+00 -0.00000000000E+00 -0.60027279311E+02  0.60027279311E+02  0.00000000000E+00 0.  1.
         23    2    1    2    0    0  0.27512413456E+02  0.22075534905E+02 -0.10146283684E+02  0.98559574270E+02  0.91470106987E+02 0.  0.
         11    1    3    3    0    0  0.15083247096E+02  0.43686320514E+02  0.27222398788E+02  0.53638213419E+02  0.00000000000E+00 0. -1.
        -11    1    3    3    0    0  0.12429166360E+02 -0.21610785609E+02 -0.37368682471E+02  0.44921360851E+02  0.00000000000E+00 0.  1.
         22    1    1    2    0    0 -0.27512413456E+02 -0.22075534905E+02  0.49145235266E+02  0.60493935935E+02  0.00000000000E+00 0. -1.
<mgrwt>
<rscale>  0 0.75928168E+02</rscale>
<asrwt>0</asrwt>
<pdfrwt beam="1">  1        2 0.15234805E-01 0.98035925E+02</pdfrwt>
<pdfrwt beam="2">  1       -2 0.92349660E-02 0.98035925E+02</pdfrwt>
<totfact> 0.25619493E+04</totfact>
</mgrwt>
</event>
<event>
 6    1  0.1661841E-002  0.8321763E+02  0.7546771E-02  0.1441075E+00
         -4   -1    0    0    0  501 -0.00000000000E+00  0.00000000000E+00  0.28967797664E+02  0.28967797664E+02  0.00000000000E+00 0.  1.
          4   -1    0    0  501    0  0.00000000000E+00 -0.00000000000E+00 -0.77534343273E+02  0.77534343273E+02  0.00000000000E+00 0. -1.
         23    2    1    2    0    0 -0.89069796129E+01  0.73621914850E+01 -0.43160272623E+02  0.93744243897E+02  0.82411394732E+02 0.  0.
         13    1    3    3    0    0 -0.26304226681E+01 -0.36836582526E+02 -0.28853630094E+02  0.46865604714E+02  0.00000000000E+00 0. -1.
        -13    1    3    3    0    0 -0.62765569448E+01  0.44198774011E+02 -0.14306642529E+02  0.46878639183E+02  0.00000000000E+00 0.  1.
         22    1    1    2    0    0  0.89069796129E+01 -0.73621914850E+01 -0.54062729864E+01  0.12757897040E+02  0.00000000000E+00 0. -1.
<mgrwt>
<rscale>  0 0.50799726E+02</rscale>
<asrwt>0</asrwt>
<pdfrwt beam="1">  1        4 0.11928360E-01 0.83217631E+02</pdfrwt>
<pdfrwt beam="2">  1       -4 0.44565843E-02 0.83217631E+02</pdfrwt>
<totfact> 0.22487587E+04</totfact>
</mgrwt>
</event>
<event>
 6    1  0.1661841E-002  0.9461566E+02  0.7546771E-02  0.1391717E+00
          2   -1    0    0  501    0  0.00000000000E+00  0.00000000000E+00  0.58852934799E+01  0.58852934799E+01  0.00000000000E+00 0. -1.
         -2   -1    0    0    0  501 -0.00000000000E+00 -0.00000000000E+00 -0.52894106428E+03  0.52894106428E+03  0.00000000000E+00 0.  1.
         23    2    1    2    0    0 -0.62002862379E+01  0.15688510337E+02 -0.43532895354E+03  0.44549233639E+03  0.93099683638E+02 0.  0.
         13    1    3    3    0    0 -0.27703497251E+02  0.43285563869E+02 -0.34165096950E+03  0.34549458572E+03  0.00000000000E+00 0.  1.
        -13    1    3    3    0    0  0.21503211013E+02 -0.27597053532E+02 -0.93677984036E+02  0.99997750677E+02  0.00000000000E+00 0. -1.
         22    1    1    2    0    0  0.62002862379E+01 -0.15688510337E+02 -0.87726817265E+02  0.89334021367E+02  0.00000000000E+00 0. -1.
<mgrwt>
<rscale>  0 0.61481786E+02</rscale>
<asrwt>0</asrwt>
<pdfrwt beam="1">  1        2 0.90542995E-03 0.94615665E+02</pdfrwt>
<pdfrwt beam="2">  1       -2 0.81375532E-01 0.94615665E+02</pdfrwt>
<totfact> 0.20038729E+04</totfact>
</mgrwt>
</event>
<event>
 6    1  0.1661841E-002  0.9307074E+02  0.7546771E-02  0.1426587E+00
         -2   -1    0    0    0  501 -0.00000000000E+00  0.00000000000E+00  0.38710861598E+02  0.38710861598E+02  0.00000000000E+00 0.  1.
          2   -1    0    0  501    0  0.00000000000E+00 -0.00000000000E+00 -0.10213957064E+03  0.10213957064E+03  0.00000000000E+00 0. -1.
         23    2    1    2    0    0 -0.64376992397E+01  0.80112010206E+01 -0.18667317204E+02  0.94924344743E+02  0.92501563122E+02 0.  0.
         11    1    3    3    0    0  0.38713798091E+02  0.77346978614E+01  0.10895698603E+02  0.40954852724E+02  0.00000000000E+00 0.  1.
        -11    1    3    3    0    0 -0.45151497330E+02  0.27650315919E+00 -0.29563015807E+02  0.53969492019E+02  0.00000000000E+00 0. -1.
         22    1    1    2    0    0  0.64376992397E+01 -0.80112010206E+01 -0.44761391841E+02  0.45926087497E+02  0.00000000000E+00 0.  1.
<mgrwt>
<rscale>  0 0.53651250E+02</rscale>
<asrwt>0</asrwt>
<pdfrwt beam="1">  1        2 0.15713780E-01 0.93070739E+02</pdfrwt>
<pdfrwt beam="2">  1       -2 0.59555173E-02 0.93070739E+02</pdfrwt>
<totfact> 0.47908698E+04</totfact>
</mgrwt>
</event>
<event>
 6    1  0.1661841E-002  0.1035927E+03  0.7546771E-02  0.1370724E+00
         -2   -1    0    0    0  501 -0.00000000000E+00  0.00000000000E+00  0.33222820971E+03  0.33222820971E+03  0.00000000000E+00 0. -1.
          2   -1    0    0  501    0  0.00000000000E+00 -0.00000000000E+00 -0.14700930219E+02  0.14700930219E+02  0.00000000000E+00 0.  1.
         23    2    1    2    0    0  0.13847441961E+02 -0.11640177387E+02  0.31083189905E+03  0.32763993316E+03  0.10200103410E+03 0.  0.
         13    1    3    3    0    0 -0.33580707247E+02 -0.36644291445E+02  0.16144644807E+03  0.16892431319E+03  0.00000000000E+00 0. -1.
        -13    1    3    3    0    0  0.47428149208E+02  0.25004114057E+02  0.14938545098E+03  0.15871561997E+03  0.00000000000E+00 0.  1.
         22    1    1    2    0    0 -0.13847441961E+02  0.11640177387E+02  0.66953804446E+01  0.19289206769E+02  0.00000000000E+00 0.  1.
<mgrwt>
<rscale>  0 0.66966282E+02</rscale>
<asrwt>0</asrwt>
<pdfrwt beam="1">  1        2 0.22616818E-02 0.10359274E+03</pdfrwt>
<pdfrwt beam="2">  1       -2 0.51112027E-01 0.10359274E+03</pdfrwt>
<totfact> 0.15292289E+04</totfact>
</mgrwt>
</event>
<event>
 6    1  0.1661841E-002  0.9384684E+02  0.7546771E-02  0.1413208E+00
         -2   -1    0    0    0  501 -0.00000000000E+00  0.00000000000E+00  0.11299918963E+03  0.11299918963E+03  0.00000000000E+00 0.  1.
          2   -1    0    0  501    0  0.00000000000E+00 -0.00000000000E+00 -0.26592349523E+02  0.26592349523E+02  0.00000000000E+00 0. -1.
         23    2    1    2    0    0  0.85110170750E+01  0.89012133859E+01  0.85964929533E+02  0.12726821589E+03  0.93035265648E+02 0.  0.
         13    1    3    3    0    0  0.44663046172E+02 -0.11867634410E+02  0.67176736823E+02  0.81537368182E+02  0.00000000000E+00 0.  1.
        -13    1    3    3    0    0 -0.36152029097E+02  0.20768847796E+02  0.18788192710E+02  0.45730847706E+02  0.00000000000E+00 0. -1.
         22    1    1    2    0    0 -0.85110170750E+01 -0.89012133859E+01  0.44191057651E+00  0.12323323267E+02  0.00000000000E+00 0.  1.
<mgrwt>
<rscale>  0 0.56484183E+02</rscale>
<asrwt>0</asrwt>
<pdfrwt beam="1">  1        2 0.40911308E-02 0.93846842E+02</pdfrwt>
<pdfrwt beam="2">  1       -2 0.17384490E-01 0.93846842E+02</pdfrwt>
<totfact> 0.47452488E+04</totfact>
</mgrwt>
</event>
<event>
 6    1  0.1661841E-002  0.9124315E+02  0.7546771E-02  0.1417663E+00
         -2   -1    0    0    0  501 -0.00000000000E+00  0.00000000000E+00  0.43400214472E+01  0.43400214472E+01  0.00000000000E+00 0.  1.
          2   -1    0    0  501    0  0.00000000000E+00 -0.00000000000E+00 -0.62034088327E+03  0.62034088327E+03  0.00000000000E+00 0. -1.
         23    2    1    2    0    0 -0.87371269250E+01 -0.89489680549E+01 -0.54606362463E+03  0.55363416966E+03  0.90381913317E+02 0.  0.
         13    1    3    3    0    0  0.34774227749E+02 -0.21090408422E+01 -0.11080587298E+03  0.11615350385E+03  0.00000000000E+00 0.  1.
        -13    1    3    3    0    0 -0.43511354674E+02 -0.68399272127E+01 -0.43525775164E+03  0.43748066581E+03  0.00000000000E+00 0. -1.
         22    1    1    2    0    0  0.87371269250E+01  0.89489680549E+01 -0.69937237197E+02  0.71046735062E+02  0.00000000000E+00 0. -1.
<mgrwt>
<rscale>  0 0.55518435E+02</rscale>
<asrwt>0</asrwt>
<pdfrwt beam="1">  1        2 0.95437105E-01 0.91243146E+02</pdfrwt>
<pdfrwt beam="2">  1       -2 0.66769528E-03 0.91243146E+02</pdfrwt>
<totfact> 0.15990770E+05</totfact>
</mgrwt>
</event>
<event>
 6    1  0.1661841E-002  0.1010472E+03  0.7546771E-02  0.1314882E+00
         -2   -1    0    0    0  501 -0.00000000000E+00  0.00000000000E+00  0.25135224894E+02  0.25135224894E+02  0.00000000000E+00 0.  1.
          2   -1    0    0  501    0  0.00000000000E+00 -0.00000000000E+00 -0.35538864832E+03  0.35538864832E+03  0.00000000000E+00 0. -1.
         23    2    1    2    0    0 -0.12078441540E+02  0.49650521028E+02 -0.91353944584E+02  0.13622073369E+03  0.87175008510E+02 0.  0.
         13    1    3    3    0    0 -0.10333364066E+02 -0.23169172486E+02 -0.10671919380E+02  0.27522333293E+02  0.00000000000E+00 0. -1.
        -13    1    3    3    0    0 -0.17450774741E+01  0.72819693514E+02 -0.80682025203E+02  0.10869840040E+03  0.00000000000E+00 0.  1.
         22    1    1    2    0    0  0.12078441540E+02 -0.49650521028E+02 -0.23889947884E+03  0.24430313952E+03  0.00000000000E+00 0. -1.
<mgrwt>
<rscale>  0 0.85210971E+02</rscale>
<asrwt>0</asrwt>
<pdfrwt beam="1">  1        2 0.54675182E-01 0.10104724E+03</pdfrwt>
<pdfrwt beam="2">  1       -2 0.38669573E-02 0.10104724E+03</pdfrwt>
<totfact> 0.23815588E+04</totfact>
</mgrwt>
</event>
<event>
 6    1  0.1661841E-002  0.9549370E+02  0.7546771E-02  0.1374800E+00
         -2   -1    0    0    0  501 -0.00000000000E+00  0.00000000000E+00  0.51976143842E+03  0.51976143842E+03  0.00000000000E+00 0.  1.
          2   -1    0    0  501    0  0.00000000000E+00 -0.00000000000E+00 -0.94690174234E+01  0.94690174234E+01  0.00000000000E+00 0. -1.
         23    2    1    2    0    0 -0.21512817843E+02 -0.18624076891E+01  0.49123345176E+03  0.50042916764E+03  0.93020308536E+02 0.  0.
         13    1    3    3    0    0 -0.88257162716E+01  0.37817668637E+02  0.37406091370E+03  0.37607131835E+03  0.00000000000E+00 0.  1.
        -13    1    3    3    0    0 -0.12687101572E+02 -0.39680076326E+02  0.11717253806E+03  0.12435784929E+03  0.00000000000E+00 0. -1.
         22    1    1    2    0    0  0.21512817843E+02  0.18624076891E+01  0.19058969236E+02  0.28801288206E+02  0.00000000000E+00 0.  1.
<mgrwt>
<rscale>  0 0.65850751E+02</rscale>
<asrwt>0</asrwt>
<pdfrwt beam="1">  1        2 0.14567723E-02 0.95493705E+02</pdfrwt>
<pdfrwt beam="2">  1       -2 0.79963276E-01 0.95493705E+02</pdfrwt>
<totfact> 0.10876518E+04</totfact>
</mgrwt>
</event>
<event>
 6    1  0.1661841E-002  0.9336963E+02  0.7546771E-02  0.1392342E+00
         -2   -1    0    0    0  501 -0.00000000000E+00  0.00000000000E+00  0.31731035383E+03  0.31731035383E+03  0.00000000000E+00 0. -1.
          2   -1    0    0  501    0  0.00000000000E+00 -0.00000000000E+00 -0.96673713249E+01  0.96673713249E+01  0.00000000000E+00 0.  1.
         23    2    1    2    0    0 -0.17046195462E+02 -0.33832658336E+01  0.25691473754E+03  0.27335521025E+03  0.91738047387E+02 0.  0.
         11    1    3    3    0    0 -0.22009735225E+01 -0.71216769348E+00  0.25820605996E+03  0.25821642254E+03  0.00000000000E+00 0. -1.
        -11    1    3    3    0    0 -0.14845221939E+02 -0.26710981401E+01 -0.12913224255E+01  0.15138787709E+02  0.00000000000E+00 0.  1.
         22    1    1    2    0    0  0.17046195462E+02  0.33832658336E+01  0.50728244967E+02  0.53622514907E+02  0.00000000000E+00 0. -1.
<mgrwt>
<rscale>  0 0.61327968E+02</rscale>
<asrwt>0</asrwt>
<pdfrwt beam="1">  1        2 0.14872881E-02 0.93369634E+02</pdfrwt>
<pdfrwt beam="2">  1       -2 0.48816970E-01 0.93369634E+02</pdfrwt>
<totfact> 0.29132949E+04</totfact>
</mgrwt>
</event>
<event>
 6    1  0.1661841E-002  0.9396406E+02  0.7546771E-02  0.1380924E+00
         -1   -1    0    0    0  501 -0.00000000000E+00  0.00000000000E+00  0.12939803703E+03  0.12939803703E+03  0.00000000000E+00 0.  1.
          1   -1    0    0  501    0  0.00000000000E+00 -0.00000000000E+00 -0.25969393000E+02  0.25969393000E+02  0.00000000000E+00 0. -1.
         23    2    1    2    0    0 -0.81884873486E+01 -0.18797949400E+02  0.93604981050E+02  0.13263158650E+03  0.91699678477E+02 0.  0.
         11    1    3    3    0    0 -0.46289102669E+02 -0.21309814742E+02  0.73615616325E+02  0.89532386303E+02  0.00000000000E+00 0.  1.
        -11    1    3    3    0    0  0.38100615320E+02  0.25118653416E+01  0.19989364725E+02  0.43099200194E+02  0.00000000000E+00 0. -1.
         22    1    1    2    0    0  0.81884873486E+01  0.18797949400E+02  0.98236629781E+01  0.22735843530E+02  0.00000000000E+00 0.  1.
<mgrwt>
<rscale>  0 0.64221585E+02</rscale>
<asrwt>0</asrwt>
<pdfrwt beam="1">  1        1 0.39952913E-02 0.93964064E+02</pdfrwt>
<pdfrwt beam="2">  1       -1 0.19907390E-01 0.93964064E+02</pdfrwt>
<totfact> 0.40232466E+04</totfact>
</mgrwt>
</event>
<event>
 6    1  0.1661841E-002  0.9337696E+02  0.7546771E-02  0.1423430E+00
         -1   -1    0    0    0  501 -0.00000000000E+00  0.00000000000E+00  0.11573388915E+02  0.11573388915E+02  0.00000000000E+00 0.  1.
          1   -1    0    0  501    0  0.00000000000E+00 -0.00000000000E+00 -0.23880130904E+03  0.23880130904E+03  0.00000000000E+00 0. -1.
         23    2    1    2    0    0  0.10659092426E+02 -0.65449695449E+00 -0.19096624932E+03  0.21257319815E+03  0.92764279635E+02 0.  0.
         13    1    3    3    0    0 -0.31160025118E+02  0.17616195679E+02 -0.34982031964E+02  0.50050175583E+02  0.00000000000E+00 0. -1.
        -13    1    3    3    0    0  0.41819117544E+02 -0.18270692633E+02 -0.15598421735E+03  0.16252302257E+03  0.00000000000E+00 0.  1.
         22    1    1    2    0    0 -0.10659092426E+02  0.65449695449E+00 -0.36261670806E+02  0.37801499802E+02  0.00000000000E+00 0. -1.
<mgrwt>
<rscale>  0 0.54301789E+02</rscale>
<asrwt>0</asrwt>
<pdfrwt beam="1">  1        1 0.36738665E-01 0.93376958E+02</pdfrwt>
<pdfrwt beam="2">  1       -1 0.17805213E-02 0.93376958E+02</pdfrwt>
<totfact> 0.82054544E+04</totfact>
</mgrwt>
</event>
<event>
 6    1  0.1661841E-002  0.9200733E+02  0.7546771E-02  0.1402753E+00
         -2   -1    0    0    0  501 -0.00000000000E+00  0.00000000000E+00  0.23684201225E+02  0.23684201225E+02  0.00000000000E+00 0.  1.
          2   -1    0    0  501    0  0.00000000000E+00 -0.00000000000E+00 -0.12358685771E+03  0.12358685771E+03  0.00000000000E+00 0. -1.
         23    2    1    2    0    0 -0.65391189690E+01 -0.13934316998E+02 -0.78726299943E+02  0.12109161388E+03  0.90710657488E+02 0.  0.
         11    1    3    3    0    0 -0.12495681810E+02 -0.46474489217E+02 -0.73124546533E+02  0.87539816755E+02  0.00000000000E+00 0. -1.
        -11    1    3    3    0    0  0.59565628405E+01  0.32540172219E+02 -0.56017534100E+01  0.33551797123E+02  0.00000000000E+00 0.  1.
         22    1    1    2    0    0  0.65391189690E+01  0.13934316998E+02 -0.21176356547E+02  0.26179445060E+02  0.00000000000E+00 0.  1.
<mgrwt>
<rscale>  0 0.58842788E+02</rscale>
<asrwt>0</asrwt>
<pdfrwt beam="1">  1        2 0.19013363E-01 0.92007329E+02</pdfrwt>
<pdfrwt beam="2">  1       -2 0.36437233E-02 0.92007329E+02</pdfrwt>
<totfact> 0.79747003E+04</totfact>
</mgrwt>
</event>
<event>
 6    1  0.1661841E-002  0.8816068E+02  0.7546771E-02  0.1394770E+00
         -2   -1    0    0    0  501 -0.00000000000E+00  0.00000000000E+00  0.10287828608E+02  0.10287828608E+02  0.00000000000E+00 0.  1.
          2   -1    0    0  501    0  0.00000000000E+00 -0.00000000000E+00 -0.28361696913E+03  0.28361696913E+03  0.00000000000E+00 0. -1.
         23    2    1    2    0    0 -0.19851666361E+02 -0.52831157902E+00 -0.22122379748E+03  0.23814339044E+03  0.85894924573E+02 0.  0.
         11    1    3    3    0    0 -0.38008802597E+02 -0.47484168408E+01 -0.21515678249E+03  0.21853983067E+03  0.00000000000E+00 0. -1.
        -11    1    3    3    0    0  0.18157136236E+02  0.42201052618E+01 -0.60670149893E+01  0.19603559768E+02  0.00000000000E+00 0.  1.
         22    1    1    2    0    0  0.19851666361E+02  0.52831157902E+00 -0.52105343042E+02  0.55761407299E+02  0.00000000000E+00 0. -1.
<mgrwt>
<rscale>  0 0.60735678E+02</rscale>
<asrwt>0</asrwt>
<pdfrwt beam="1">  1        2 0.43633380E-01 0.88160682E+02</pdfrwt>
<pdfrwt beam="2">  1       -2 0.15827429E-02 0.88160682E+02</pdfrwt>
<totfact> 0.10798969E+05</totfact>
</mgrwt>
</event>
<event>
 6    1  0.1661841E-002  0.9386113E+02  0.7546771E-02  0.1405570E+00
          2   -1    0    0  501    0  0.00000000000E+00  0.00000000000E+00  0.36597094916E+03  0.36597094916E+03  0.00000000000E+00 0. -1.
         -2   -1    0    0    0  501 -0.00000000000E+00 -0.00000000000E+00 -0.79704822142E+01  0.79704822142E+01  0.00000000000E+00 0.  1.
         23    2    1    2    0    0  0.20622760084E+01 -0.13715344402E+02  0.32036121480E+03  0.33382812988E+03  0.92830752981E+02 0.  0.
         13    1    3    3    0    0  0.34329038641E+02  0.17782001175E+00  0.27142651913E+03  0.27358887002E+03  0.00000000000E+00 0. -1.
        -13    1    3    3    0    0 -0.32266762632E+02 -0.13893164413E+02  0.48934695673E+02  0.60239259863E+02  0.00000000000E+00 0.  1.
         22    1    1    2    0    0 -0.20622760084E+01  0.13715344402E+02  0.37639252148E+02  0.40113301492E+02  0.00000000000E+00 0.  1.
<mgrwt>
<rscale>  0 0.58194203E+02</rscale>
<asrwt>0</asrwt>
<pdfrwt beam="1">  1        2 0.56303210E-01 0.93861133E+02</pdfrwt>
<pdfrwt beam="2">  1       -2 0.12262283E-02 0.93861133E+02</pdfrwt>
<totfact> 0.12012431E+05</totfact>
</mgrwt>
</event>
<event>
 6    1  0.1661841E-002  0.9285178E+02  0.7546771E-02  0.1411266E+00
          2   -1    0    0  501    0  0.00000000000E+00  0.00000000000E+00  0.76529237250E+02  0.76529237250E+02  0.00000000000E+00 0. -1.
         -2   -1    0    0    0  501 -0.00000000000E+00 -0.00000000000E+00 -0.37163668816E+02  0.37163668816E+02  0.00000000000E+00 0.  1.
         23    2    1    2    0    0  0.99776960290E+00  0.13067388736E+02  0.29974421946E+02  0.97570070555E+02  0.91922252500E+02 0.  0.
         11    1    3    3    0    0  0.16201761218E+02  0.17359710319E+02 -0.28444142826E+02  0.37053014318E+02  0.00000000000E+00 0.  1.
        -11    1    3    3    0    0 -0.15203991615E+02 -0.42923215829E+01  0.58418564772E+02  0.60517056238E+02  0.00000000000E+00 0. -1.
         22    1    1    2    0    0 -0.99776960290E+00 -0.13067388736E+02  0.93911464874E+01  0.16122835511E+02  0.00000000000E+00 0.  1.
<mgrwt>
<rscale>  0 0.56912211E+02</rscale>
<asrwt>0</asrwt>
<pdfrwt beam="1">  1        2 0.11773729E-01 0.92851778E+02</pdfrwt>
<pdfrwt beam="2">  1       -2 0.57174875E-02 0.92851778E+02</pdfrwt>
<totfact> 0.71385082E+04</totfact>
</mgrwt>
</event>
<event>
 6    1  0.1661841E-002  0.9891403E+02  0.7546771E-02  0.1341142E+00
          2   -1    0    0  501    0  0.00000000000E+00  0.00000000000E+00  0.14113997365E+02  0.14113997365E+02  0.00000000000E+00 0. -1.
         -2   -1    0    0    0  501 -0.00000000000E+00 -0.00000000000E+00 -0.34216964407E+03  0.34216964407E+03  0.00000000000E+00 0.  1.
         23    2    1    2    0    0 -0.26823030038E+02  0.21330956241E+02 -0.28222408070E+03  0.29905587652E+03  0.92787396344E+02 0.  0.
         13    1    3    3    0    0 -0.28035753234E+02  0.53760393593E+02 -0.13046153539E+03  0.14386241898E+03  0.00000000000E+00 0.  1.
        -13    1    3    3    0    0  0.12127231959E+01 -0.32429437352E+02 -0.15176254530E+03  0.15519345753E+03  0.00000000000E+00 0. -1.
         22    1    1    2    0    0  0.26823030038E+02 -0.21330956241E+02 -0.45831566012E+02  0.57227764920E+02  0.00000000000E+00 0. -1.
<mgrwt>
<rscale>  0 0.75888216E+02</rscale>
<asrwt>0</asrwt>
<pdfrwt beam="1">  1        2 0.21713840E-02 0.98914031E+02</pdfrwt>
<pdfrwt beam="2">  1       -2 0.52641488E-01 0.98914031E+02</pdfrwt>
<totfact> 0.15153910E+04</totfact>
</mgrwt>
</event>
<event>
 6    1  0.1661841E-002  0.9285830E+02  0.7546771E-02  0.1374510E+00
          4   -1    0    0  501    0  0.00000000000E+00  0.00000000000E+00  0.10558944517E+02  0.10558944517E+02  0.00000000000E+00 0. -1.
         -4   -1    0    0    0  501 -0.00000000000E+00 -0.00000000000E+00 -0.33541593520E+03  0.33541593520E+03  0.00000000000E+00 0.  1.
         23    2    1    2    0    0 -0.16737411550E+02 -0.16632876371E+02 -0.28397744753E+03  0.29877392030E+03  0.89810195533E+02 0.  0.
         11    1    3    3    0    0  0.45913345181E+01 -0.21121979656E+02 -0.27391624425E+03  0.27476776966E+03  0.00000000000E+00 0.  1.
        -11    1    3    3    0    0 -0.21328746068E+02  0.44891032845E+01 -0.10061203279E+02  0.24006150640E+02  0.00000000000E+00 0. -1.
         22    1    1    2    0    0  0.16737411550E+02  0.16632876371E+02 -0.40879543152E+02  0.47200959419E+02  0.00000000000E+00 0. -1.
<mgrwt>
<rscale>  0 0.65929128E+02</rscale>
<asrwt>0</asrwt>
<pdfrwt beam="1">  1        4 0.16244531E-02 0.92858305E+02</pdfrwt>
<pdfrwt beam="2">  1       -4 0.51602448E-01 0.92858305E+02</pdfrwt>
<totfact> 0.74987681E+03</totfact>
</mgrwt>
</event>
<event>
 6    1  0.1661841E-002  0.1002952E+03  0.7546771E-02  0.1328201E+00
          2   -1    0    0  501    0  0.00000000000E+00  0.00000000000E+00  0.17796344308E+03  0.17796344308E+03  0.00000000000E+00 0. -1.
         -2   -1    0    0    0  501 -0.00000000000E+00 -0.00000000000E+00 -0.34139045995E+02  0.34139045995E+02  0.00000000000E+00 0.  1.
         23    2    1    2    0    0  0.34643288892E+02 -0.22322993849E+02  0.55478440335E+02  0.11461668706E+03  0.91436612426E+02 0.  0.
         13    1    3    3    0    0  0.25458294478E+02 -0.53616713580E+02  0.12484792310E+02  0.60652673246E+02  0.00000000000E+00 0. -1.
        -13    1    3    3    0    0  0.91849944137E+01  0.31293719730E+02  0.42993648025E+02  0.53964013819E+02  0.00000000000E+00 0.  1.
         22    1    1    2    0    0 -0.34643288892E+02  0.22322993849E+02  0.88345956748E+02  0.97485802009E+02  0.00000000000E+00 0.  1.
<mgrwt>
<rscale>  0 0.80300355E+02</rscale>
<asrwt>0</asrwt>
<pdfrwt beam="1">  1        2 0.27378991E-01 0.10029520E+03</pdfrwt>
<pdfrwt beam="2">  1       -2 0.52521610E-02 0.10029520E+03</pdfrwt>
<totfact> 0.31425221E+04</totfact>
</mgrwt>
</event>
<event>
 6    1  0.1661841E-002  0.9520685E+02  0.7546771E-02  0.1357842E+00
          1   -1    0    0  501    0  0.00000000000E+00  0.00000000000E+00  0.47961161380E+01  0.47961161380E+01  0.00000000000E+00 0. -1.
         -1   -1    0    0    0  501 -0.00000000000E+00 -0.00000000000E+00 -0.80505577767E+03  0.80505577767E+03  0.00000000000E+00 0.  1.
         23    2    1    2    0    0 -0.25248851528E+02 -0.14053085766E+02 -0.63139809676E+03  0.63853574810E+03  0.90715771983E+02 0.  0.
         13    1    3    3    0    0  0.26260735854E+02 -0.30174352142E+02 -0.21932856487E+03  0.22294648942E+03  0.00000000000E+00 0. -1.
        -13    1    3    3    0    0 -0.51509587382E+02  0.16121266375E+02 -0.41206953189E+03  0.41558925868E+03  0.00000000000E+00 0.  1.
         22    1    1    2    0    0  0.25248851528E+02  0.14053085766E+02 -0.16886156477E+03  0.17131614571E+03  0.00000000000E+00 0. -1.
<mgrwt>
<rscale>  0 0.70666171E+02</rscale>
<asrwt>0</asrwt>
<pdfrwt beam="1">  1        1 0.73786449E-03 0.95206854E+02</pdfrwt>
<pdfrwt beam="2">  1       -1 0.12385466E+00 0.95206854E+02</pdfrwt>
<totfact> 0.13821885E+04</totfact>
</mgrwt>
</event>
<event>
 6    1  0.1661841E-002  0.9345974E+02  0.7546771E-02  0.1399756E+00
         -2   -1    0    0    0  501 -0.00000000000E+00  0.00000000000E+00  0.17487563181E+02  0.17487563181E+02  0.00000000000E+00 0.  1.
          2   -1    0    0  501    0  0.00000000000E+00 -0.00000000000E+00 -0.18304271806E+03  0.18304271806E+03  0.00000000000E+00 0. -1.
         23    2    1    2    0    0  0.75275255602E+01 -0.13432983693E+02 -0.11790384550E+03  0.15045278152E+03  0.92182503728E+02 0.  0.
         11    1    3    3    0    0  0.36033426615E+02 -0.27466434505E+02 -0.10808502067E+03  0.11719720368E+03  0.00000000000E+00 0. -1.
        -11    1    3    3    0    0 -0.28505901055E+02  0.14033450812E+02 -0.98188248289E+01  0.33255577843E+02  0.00000000000E+00 0.  1.
         22    1    1    2    0    0 -0.75275255602E+01  0.13432983693E+02 -0.47651309382E+02  0.50077499715E+02  0.00000000000E+00 0. -1.
<mgrwt>
<rscale>  0 0.59543842E+02</rscale>
<asrwt>0</asrwt>
<pdfrwt beam="1">  1        2 0.28160419E-01 0.93459738E+02</pdfrwt>
<pdfrwt beam="2">  1       -2 0.26903942E-02 0.93459738E+02</pdfrwt>
<totfact> 0.80743999E+04</totfact>
</mgrwt>
</event>
<event>
 6    1  0.1661841E-002  0.9362429E+02  0.7546771E-02  0.1392194E+00
         -2   -1    0    0    0  501 -0.00000000000E+00  0.00000000000E+00  0.10034732048E+03  0.10034732048E+03  0.00000000000E+00 0.  1.
          2   -1    0    0  501    0  0.00000000000E+00 -0.00000000000E+00 -0.11504115833E+03  0.11504115833E+03  0.00000000000E+00 0. -1.
         23    2    1    2    0    0  0.15607387391E+02 -0.74123503613E+01  0.77531123167E+02  0.12155896898E+03  0.92016163807E+02 0.  0.
         11    1    3    3    0    0  0.28927533307E+02 -0.41331396522E+02  0.66528783735E+02  0.83493506256E+02  0.00000000000E+00 0.  1.
        -11    1    3    3    0    0 -0.13320145916E+02  0.33919046161E+02  0.11002339433E+02  0.38065462728E+02  0.00000000000E+00 0. -1.
         22    1    1    2    0    0 -0.15607387391E+02  0.74123503613E+01 -0.92224961024E+02  0.93829509829E+02  0.00000000000E+00 0. -1.
<mgrwt>
<rscale>  0 0.61364265E+02</rscale>
<asrwt>0</asrwt>
<pdfrwt beam="1">  1        2 0.17698640E-01 0.93624291E+02</pdfrwt>
<pdfrwt beam="2">  1       -2 0.15438049E-01 0.93624291E+02</pdfrwt>
<totfact> 0.95178856E+03</totfact>
</mgrwt>
</event>
<event>
 6    1  0.1661841E-002  0.9414896E+02  0.7546771E-02  0.1373788E+00
         -1   -1    0    0    0  501 -0.00000000000E+00  0.00000000000E+00  0.34493730100E+02  0.34493730100E+02  0.00000000000E+00 0.  1.
          1   -1    0    0  501    0  0.00000000000E+00 -0.00000000000E+00 -0.10000728016E+03  0.10000728016E+03  0.00000000000E+00 0. -1.
         23    2    1    2    0    0 -0.21205586119E+01  0.22811570517E+02 -0.48099945481E+02  0.10572431582E+03  0.91319010523E+02 0.  0.
         11    1    3    3    0    0  0.91370740245E+01  0.30366364984E+02 -0.71760396028E+02  0.78454806622E+02  0.00000000000E+00 0. -1.
        -11    1    3    3    0    0 -0.11257632636E+02 -0.75547944669E+01  0.23660450547E+02  0.27269509202E+02  0.00000000000E+00 0.  1.
         22    1    1    2    0    0  0.21205586119E+01 -0.22811570517E+02 -0.17413604582E+02  0.28776694439E+02  0.00000000000E+00 0.  1.
<mgrwt>
<rscale>  0 0.66125282E+02</rscale>
<asrwt>0</asrwt>
<pdfrwt beam="1">  1        1 0.15385736E-01 0.94148958E+02</pdfrwt>
<pdfrwt beam="2">  1       -1 0.53067277E-02 0.94148958E+02</pdfrwt>
<totfact> 0.50213084E+04</totfact>
</mgrwt>
</event>
<event>
 6    1  0.1661841E-002  0.9370997E+02  0.7546771E-02  0.1417427E+00
         -1   -1    0    0    0  501 -0.00000000000E+00  0.00000000000E+00  0.73754044408E+03  0.73754044408E+03  0.00000000000E+00 0.  1.
          1   -1    0    0  501    0  0.00000000000E+00 -0.00000000000E+00 -0.43128072354E+01  0.43128072354E+01  0.00000000000E+00 0. -1.
         23    2    1    2    0    0  0.56078395613E+01 -0.10139671675E+02  0.70695686295E+03  0.71314063445E+03  0.92990847002E+02 0.  0.
         11    1    3    3    0    0  0.14832281263E+02  0.40031596165E+02  0.32634197919E+03  0.32912248881E+03  0.00000000000E+00 0. -1.
        -11    1    3    3    0    0 -0.92244417019E+01 -0.50171267840E+02  0.38061488376E+03  0.38401814564E+03  0.00000000000E+00 0.  1.
         22    1    1    2    0    0 -0.56078395613E+01  0.10139671675E+02  0.26270773899E+02  0.28712616869E+02  0.00000000000E+00 0. -1.
<mgrwt>
<rscale>  0 0.55569054E+02</rscale>
<asrwt>0</asrwt>
<pdfrwt beam="1">  1        1 0.66350939E-03 0.93709970E+02</pdfrwt>
<pdfrwt beam="2">  1       -1 0.11346766E+00 0.93709970E+02</pdfrwt>
<totfact> 0.19586268E+04</totfact>
</mgrwt>
</event>
<event>
 6    1  0.1661841E-002  0.9074319E+02  0.7546771E-02  0.1430658E+00
         -4   -1    0    0    0  501 -0.00000000000E+00  0.00000000000E+00  0.11106249802E+02  0.11106249802E+02  0.00000000000E+00 0.  1.
          4   -1    0    0  501    0  0.00000000000E+00 -0.00000000000E+00 -0.25105562684E+03  0.25105562684E+03  0.00000000000E+00 0. -1.
         23    2    1    2    0    0 -0.25213015160E+01 -0.10114105766E+02 -0.18295970867E+03  0.20422678885E+03  0.90142521548E+02 0.  0.
         11    1    3    3    0    0 -0.12238376181E+02 -0.24886529819E+02 -0.18441179734E+03  0.18648546382E+03  0.00000000000E+00 0. -1.
        -11    1    3    3    0    0  0.97170746650E+01  0.14772424053E+02  0.14520886675E+01  0.17741325033E+02  0.00000000000E+00 0.  1.
         22    1    1    2    0    0  0.25213015160E+01  0.10114105766E+02 -0.56989668369E+02  0.57935087793E+02  0.00000000000E+00 0.  1.
<mgrwt>
<rscale>  0 0.52828136E+02</rscale>
<asrwt>0</asrwt>
<pdfrwt beam="1">  1        4 0.38623938E-01 0.90743189E+02</pdfrwt>
<pdfrwt beam="2">  1       -4 0.17086540E-02 0.90743189E+02</pdfrwt>
<totfact> 0.12257183E+04</totfact>
</mgrwt>
</event>
<event>
 6    1  0.1661841E-002  0.1124993E+03  0.7546771E-02  0.1375148E+00
          1   -1    0    0  501    0  0.00000000000E+00  0.00000000000E+00  0.28348729888E+03  0.28348729888E+03  0.00000000000E+00 0. -1.
         -1   -1    0    0    0  501 -0.00000000000E+00 -0.00000000000E+00 -0.14564259440E+02  0.14564259440E+02  0.00000000000E+00 0.  1.
         23    2    1    2    0    0  0.91422052663E+01  0.94260749111E+01  0.25599657557E+03  0.27962537387E+03  0.11173035488E+03 0.  0.
         11    1    3    3    0    0 -0.17150679110E+02 -0.21117166202E+02  0.23014045112E+03  0.23174276201E+03  0.00000000000E+00 0. -1.
        -11    1    3    3    0    0  0.26292884376E+02  0.30543241113E+02  0.25856124446E+02  0.47882611854E+02  0.00000000000E+00 0.  1.
         22    1    1    2    0    0 -0.91422052663E+01 -0.94260749111E+01  0.12926463873E+02  0.18426184456E+02  0.00000000000E+00 0.  1.
<mgrwt>
<rscale>  0 0.65756601E+02</rscale>
<asrwt>0</asrwt>
<pdfrwt beam="1">  1        1 0.43613427E-01 0.11249935E+03</pdfrwt>
<pdfrwt beam="2">  1       -1 0.22406555E-02 0.11249935E+03</pdfrwt>
<totfact> 0.49081174E+04</totfact>
</mgrwt>
</event>
<event>
 6    1  0.1661841E-002  0.9947546E+02  0.7546771E-02  0.1397954E+00
         -3   -1    0    0    0  501 -0.00000000000E+00  0.00000000000E+00  0.40473854537E+03  0.40473854537E+03  0.00000000000E+00 0.  1.
          3   -1    0    0  501    0  0.00000000000E+00 -0.00000000000E+00 -0.10323464918E+02  0.10323464918E+02  0.00000000000E+00 0. -1.
         23    2    1    2    0    0  0.10370044052E+02 -0.80706180372E+01  0.38779090471E+03  0.40034629102E+03  0.98603723408E+02 0.  0.
         11    1    3    3    0    0  0.40476210333E+02 -0.33967141985E+02  0.14497292476E+03  0.15430242789E+03  0.00000000000E+00 0. -1.
        -11    1    3    3    0    0 -0.30106166281E+02  0.25896523948E+02  0.24281797995E+03  0.24604386314E+03  0.00000000000E+00 0.  1.
         22    1    1    2    0    0 -0.10370044052E+02  0.80706180372E+01  0.66241757340E+01  0.14715719259E+02  0.00000000000E+00 0. -1.
<mgrwt>
<rscale>  0 0.59970811E+02</rscale>
<asrwt>0</asrwt>
<pdfrwt beam="1">  1        3 0.15882257E-02 0.99475459E+02</pdfrwt>
<pdfrwt beam="2">  1       -3 0.62267456E-01 0.99475459E+02</pdfrwt>
<totfact> 0.73422878E+03</totfact>
</mgrwt>
</event>
<event>
 6    1  0.1661841E-002  0.9312969E+02  0.7546771E-02  0.1388279E+00
         -2   -1    0    0    0  501 -0.00000000000E+00  0.00000000000E+00  0.85425059147E+02  0.85425059147E+02  0.00000000000E+00 0.  1.
          2   -1    0    0  501    0  0.00000000000E+00 -0.00000000000E+00 -0.38512004255E+02  0.38512004255E+02  0.00000000000E+00 0. -1.
         23    2    1    2    0    0 -0.18644666945E+02  0.13618180936E+01  0.48812349171E+02  0.10514649468E+03  0.91234104141E+02 0.  0.
         11    1    3    3    0    0  0.36411065644E+01 -0.10288776290E+02  0.70864289185E+02  0.71699819081E+02  0.00000000000E+00 0.  1.
        -11    1    3    3    0    0 -0.22285773510E+02  0.11650594383E+02 -0.22051940014E+02  0.33446675602E+02  0.00000000000E+00 0. -1.
         22    1    1    2    0    0  0.18644666945E+02 -0.13618180936E+01 -0.18992942800E+01  0.18790568719E+02  0.00000000000E+00 0. -1.
<mgrwt>
<rscale>  0 0.62336675E+02</rscale>
<asrwt>0</asrwt>
<pdfrwt beam="1">  1        2 0.59249237E-02 0.93129694E+02</pdfrwt>
<pdfrwt beam="2">  1       -2 0.13142317E-01 0.93129694E+02</pdfrwt>
<totfact> 0.46231360E+04</totfact>
</mgrwt>
</event>
<event>
 6    1  0.1661841E-002  0.9308992E+02  0.7546771E-02  0.1389918E+00
         -1   -1    0    0    0  501 -0.00000000000E+00  0.00000000000E+00  0.73063336149E+02  0.73063336149E+02  0.00000000000E+00 0.  1.
          1   -1    0    0  501    0  0.00000000000E+00 -0.00000000000E+00 -0.43219576810E+02  0.43219576810E+02  0.00000000000E+00 0. -1.
         23    2    1    2    0    0  0.18217057571E+02 -0.71835993194E+00  0.18805334642E+02  0.94970380323E+02  0.91287213234E+02 0.  0.
         11    1    3    3    0    0 -0.24039348487E+02 -0.31935741925E+02  0.28941715092E+01  0.40076902534E+02  0.00000000000E+00 0. -1.
        -11    1    3    3    0    0  0.42256406059E+02  0.31217381993E+02  0.15911163133E+02  0.54893477789E+02  0.00000000000E+00 0.  1.
         22    1    1    2    0    0 -0.18217057571E+02  0.71835993194E+00  0.11038424698E+02  0.21312532636E+02  0.00000000000E+00 0.  1.
<mgrwt>
<rscale>  0 0.61927121E+02</rscale>
<asrwt>0</asrwt>
<pdfrwt beam="1">  1        1 0.66491657E-02 0.93089916E+02</pdfrwt>
<pdfrwt beam="2">  1       -1 0.11240513E-01 0.93089916E+02</pdfrwt>
<totfact> 0.49064401E+04</totfact>
</mgrwt>
</event>
<event>
 6    1  0.1661841E-002  0.1047637E+03  0.7546771E-02  0.1390563E+00
         -4   -1    0    0    0  501 -0.00000000000E+00  0.00000000000E+00  0.21150444867E+03  0.21150444867E+03  0.00000000000E+00 0.  1.
          4   -1    0    0  501    0  0.00000000000E+00 -0.00000000000E+00 -0.19019491964E+02  0.19019491964E+02  0.00000000000E+00 0. -1.
         23    2    1    2    0    0 -0.10768916856E+02  0.66538154688E+01  0.19091207266E+03  0.21776789129E+03  0.10399611607E+03 0.  0.
         11    1    3    3    0    0 -0.58472728192E+01 -0.26381851664E+02  0.33196090009E+01  0.27225218100E+02  0.00000000000E+00 0. -1.
        -11    1    3    3    0    0 -0.49216440370E+01  0.33035667133E+02  0.18759246366E+03  0.19054267319E+03  0.00000000000E+00 0.  1.
         22    1    1    2    0    0  0.10768916856E+02 -0.66538154688E+01  0.15728840364E+01  0.12756049339E+02  0.00000000000E+00 0. -1.
<mgrwt>
<rscale>  0 0.61766854E+02</rscale>
<asrwt>0</asrwt>
<pdfrwt beam="1">  1        4 0.29260758E-02 0.10476371E+03</pdfrwt>
<pdfrwt beam="2">  1       -4 0.32539144E-01 0.10476371E+03</pdfrwt>
<totfact> 0.77701459E+03</totfact>
</mgrwt>
</event>
<event>
 6    1  0.1661841E-002  0.9780925E+02  0.7546771E-02  0.1381723E+00
         -1   -1    0    0    0  501 -0.00000000000E+00  0.00000000000E+00  0.42712084759E+03  0.42712084759E+03  0.00000000000E+00 0.  1.
          1   -1    0    0  501    0  0.00000000000E+00 -0.00000000000E+00 -0.82557709503E+01  0.82557709503E+01  0.00000000000E+00 0. -1.
         23    2    1    2    0    0 -0.17511299078E+02 -0.39201279586E+01  0.38274222544E+03  0.39504210011E+03  0.96149033908E+02 0.  0.
         11    1    3    3    0    0 -0.51810778047E+02 -0.92445908355E+01  0.13526956516E+03  0.14514707865E+03  0.00000000000E+00 0. -1.
        -11    1    3    3    0    0  0.34299478969E+02  0.53244628768E+01  0.24747266028E+03  0.24989502146E+03  0.00000000000E+00 0.  1.
         22    1    1    2    0    0  0.17511299078E+02  0.39201279586E+01  0.36122851192E+02  0.40334518429E+02  0.00000000000E+00 0. -1.
<mgrwt>
<rscale>  0 0.64013140E+02</rscale>
<asrwt>0</asrwt>
<pdfrwt beam="1">  1        1 0.12701189E-02 0.97809252E+02</pdfrwt>
<pdfrwt beam="2">  1       -1 0.65710883E-01 0.97809252E+02</pdfrwt>
<totfact> 0.24981384E+04</totfact>
</mgrwt>
</event>
<event>
 6    1  0.1661841E-002  0.1028075E+03  0.7546771E-02  0.1316983E+00
          2   -1    0    0  501    0  0.00000000000E+00  0.00000000000E+00  0.11130965544E+02  0.11130965544E+02  0.00000000000E+00 0. -1.
         -2   -1    0    0    0  501 -0.00000000000E+00 -0.00000000000E+00 -0.75930679245E+03  0.75930679245E+03  0.00000000000E+00 0.  1.
         23    2    1    2    0    0  0.33833367860E+02  0.32218273718E+02 -0.68037828309E+03  0.68810173374E+03  0.91578785402E+02 0.  0.
         13    1    3    3    0    0 -0.20692538909E+02  0.12735706935E+02 -0.55995737116E+02  0.61040166880E+02  0.00000000000E+00 0. -1.
        -13    1    3    3    0    0  0.54525906769E+02  0.19482566783E+02 -0.62438254597E+03  0.62706156686E+03  0.00000000000E+00 0.  1.
         22    1    1    2    0    0 -0.33833367860E+02 -0.32218273718E+02 -0.67797543818E+02  0.82336024254E+02  0.00000000000E+00 0. -1.
<mgrwt>
<rscale>  0 0.84409882E+02</rscale>
<asrwt>0</asrwt>
<pdfrwt beam="1">  1        2 0.17124562E-02 0.10280753E+03</pdfrwt>
<pdfrwt beam="2">  1       -2 0.11681643E+00 0.10280753E+03</pdfrwt>
<totfact> 0.37213155E+03</totfact>
</mgrwt>
</event>
<event>
 6    1  0.1661841E-002  0.8871222E+02  0.7546771E-02  0.1422028E+00
          1   -1    0    0  501    0  0.00000000000E+00  0.00000000000E+00  0.47074213244E+03  0.47074213244E+03  0.00000000000E+00 0. -1.
         -1   -1    0    0    0  501 -0.00000000000E+00 -0.00000000000E+00 -0.55535403363E+01  0.55535403363E+01  0.00000000000E+00 0.  1.
         23    2    1    2    0    0 -0.10271860440E+02  0.75096164253E+01  0.42422678130E+03  0.43340306969E+03  0.87794950784E+02 0.  0.
         13    1    3    3    0    0  0.49623814384E-01  0.37007827606E+02  0.36082010409E+03  0.36271301228E+03  0.00000000000E+00 0. -1.
        -13    1    3    3    0    0 -0.10321484254E+02 -0.29498211180E+02  0.63406677219E+02  0.70690057405E+02  0.00000000000E+00 0.  1.
         22    1    1    2    0    0  0.10271860440E+02 -0.75096164253E+01  0.40961810801E+02  0.42892603090E+02  0.00000000000E+00 0.  1.
<mgrwt>
<rscale>  0 0.54594047E+02</rscale>
<asrwt>0</asrwt>
<pdfrwt beam="1">  1        1 0.72421835E-01 0.88712225E+02</pdfrwt>
<pdfrwt beam="2">  1       -1 0.85439119E-03 0.88712225E+02</pdfrwt>
<totfact> 0.99702610E+04</totfact>
</mgrwt>
</event>
<event>
 6    1  0.1661841E-002  0.1022917E+03  0.7546771E-02  0.1397097E+00
          2   -1    0    0  501    0  0.00000000000E+00  0.00000000000E+00  0.50891308194E+02  0.50891308194E+02  0.00000000000E+00 0.  1.
         -2   -1    0    0    0  501 -0.00000000000E+00 -0.00000000000E+00 -0.80716415834E+02  0.80716415834E+02  0.00000000000E+00 0. -1.
         23    2    1    2    0    0  0.12232248719E+02 -0.67087135558E+00 -0.45297634456E+02  0.11187255078E+03  0.10155547230E+03 0.  0.
         13    1    3    3    0    0 -0.13027590780E+02 -0.42987596031E+02 -0.43542544569E+02  0.62558810104E+02  0.00000000000E+00 0. -1.
        -13    1    3    3    0    0  0.25259839500E+02  0.42316724676E+02 -0.17550898872E+01  0.49313740675E+02  0.00000000000E+00 0.  1.
         22    1    1    2    0    0 -0.12232248719E+02  0.67087135558E+00  0.15472526816E+02  0.19735173249E+02  0.00000000000E+00 0. -1.
<mgrwt>
<rscale>  0 0.60175529E+02</rscale>
<asrwt>0</asrwt>
<pdfrwt beam="1">  1        2 0.78294320E-02 0.10229170E+03</pdfrwt>
<pdfrwt beam="2">  1       -2 0.12417910E-01 0.10229170E+03</pdfrwt>
<totfact> 0.36052704E+04</totfact>
</mgrwt>
</event>
<event>
 6    1  0.1661841E-002  0.9158997E+02  0.7546771E-02  0.1423134E+00
         -2   -1    0    0    0  501 -0.00000000000E+00  0.00000000000E+00  0.57813047197E+02  0.57813047197E+02  0.00000000000E+00 0.  1.
          2   -1    0    0  501    0  0.00000000000E+00 -0.00000000000E+00 -0.46868493925E+02  0.46868493925E+02  0.00000000000E+00 0. -1.
         23    2    1    2    0    0  0.11266153478E+02 -0.15171006396E+01  0.14587257590E+02  0.92744326067E+02  0.90881759033E+02 0.  0.
         13    1    3    3    0    0 -0.31229705990E+02  0.77986059782E+01  0.32457481259E+02  0.45712152444E+02  0.00000000000E+00 0.  1.
        -13    1    3    3    0    0  0.42495859468E+02 -0.93157066178E+01 -0.17870223669E+02  0.47032173622E+02  0.00000000000E+00 0. -1.
         22    1    1    2    0    0 -0.11266153478E+02  0.15171006396E+01 -0.36427043184E+01  0.11937215056E+02  0.00000000000E+00 0.  1.
<mgrwt>
<rscale>  0 0.54363251E+02</rscale>
<asrwt>0</asrwt>
<pdfrwt beam="1">  1        2 0.72105375E-02 0.91589966E+02</pdfrwt>
<pdfrwt beam="2">  1       -2 0.88943150E-02 0.91589966E+02</pdfrwt>
<totfact> 0.66351036E+04</totfact>
</mgrwt>
</event>
<event>
 6    1  0.1661841E-002  0.9144679E+02  0.7546771E-02  0.1375545E+00
          3   -1    0    0  501    0  0.00000000000E+00  0.00000000000E+00  0.45902147723E+02  0.45902147723E+02  0.00000000000E+00 0. -1.
         -3   -1    0    0    0  501 -0.00000000000E+00 -0.00000000000E+00 -0.81423041806E+02  0.81423041806E+02  0.00000000000E+00 0.  1.
         23    2    1    2    0    0  0.23224492931E+02  0.71140467821E+01 -0.44152036530E+02  0.10154761491E+03  0.88161947743E+02 0.  0.
         13    1    3    3    0    0 -0.18439220606E+02 -0.34973199102E+01 -0.54232269949E+02  0.57387936074E+02  0.00000000000E+00 0.  1.
        -13    1    3    3    0    0  0.41663713536E+02  0.10611366692E+02  0.10080233419E+02  0.44159678832E+02  0.00000000000E+00 0. -1.
         22    1    1    2    0    0 -0.23224492931E+02 -0.71140467821E+01  0.86311424462E+01  0.25777574623E+02  0.00000000000E+00 0. -1.
<mgrwt>
<rscale>  0 0.65649532E+02</rscale>
<asrwt>0</asrwt>
<pdfrwt beam="1">  1        3 0.70618689E-02 0.91446792E+02</pdfrwt>
<pdfrwt beam="2">  1       -3 0.12526622E-01 0.91446792E+02</pdfrwt>
<totfact> 0.13587430E+04</totfact>
</mgrwt>
</event>
<event>
 6    1  0.1661841E-002  0.9448079E+02  0.7546771E-02  0.1365001E+00
          4   -1    0    0  501    0  0.00000000000E+00  0.00000000000E+00  0.40566057901E+02  0.40566057901E+02  0.00000000000E+00 0.  1.
         -4   -1    0    0    0  501 -0.00000000000E+00 -0.00000000000E+00 -0.91615318860E+02  0.91615318860E+02  0.00000000000E+00 0. -1.
         23    2    1    2    0    0 -0.39328122192E+01 -0.25926024417E+02 -0.47405918692E+02  0.10570686644E+03  0.90768908392E+02 0.  0.
         11    1    3    3    0    0  0.17311706342E+01  0.31269635116E+02 -0.34891122488E+02  0.46884725237E+02  0.00000000000E+00 0. -1.
        -11    1    3    3    0    0 -0.56639828533E+01 -0.57195659533E+02 -0.12514796203E+02  0.58822141199E+02  0.00000000000E+00 0.  1.
         22    1    1    2    0    0  0.39328122192E+01  0.25926024417E+02 -0.36433422673E+01  0.26474510324E+02  0.00000000000E+00 0.  1.
<mgrwt>
<rscale>  0 0.68576714E+02</rscale>
<asrwt>0</asrwt>
<pdfrwt beam="1">  1        4 0.62409321E-02 0.94480794E+02</pdfrwt>
<pdfrwt beam="2">  1       -4 0.14094664E-01 0.94480794E+02</pdfrwt>
<totfact> 0.10277628E+04</totfact>
</mgrwt>
</event>
<event>
 6    1  0.1661841E-002  0.9091108E+02  0.7546771E-02  0.1410064E+00
         -1   -1    0    0    0  501 -0.00000000000E+00  0.00000000000E+00  0.26212290066E+03  0.26212290066E+03  0.00000000000E+00 0.  1.
          1   -1    0    0  501    0  0.00000000000E+00 -0.00000000000E+00 -0.11709593157E+02  0.11709593157E+02  0.00000000000E+00 0. -1.
         23    2    1    2    0    0 -0.77265510408E+01  0.11946131855E+02  0.23862544626E+03  0.25535647341E+03  0.89790953074E+02 0.  0.
         11    1    3    3    0    0 -0.19462209069E+02  0.28433358028E+02  0.29807223537E+02  0.45559894705E+02  0.00000000000E+00 0. -1.
        -11    1    3    3    0    0  0.11735658028E+02 -0.16487226173E+02  0.20881822272E+03  0.20979657871E+03  0.00000000000E+00 0.  1.
         22    1    1    2    0    0  0.77265510408E+01 -0.11946131855E+02  0.11787861242E+02  0.18476020403E+02  0.00000000000E+00 0.  1.
<mgrwt>
<rscale>  0 0.57179654E+02</rscale>
<asrwt>0</asrwt>
<pdfrwt beam="1">  1        1 0.18014761E-02 0.90911082E+02</pdfrwt>
<pdfrwt beam="2">  1       -1 0.40326596E-01 0.90911082E+02</pdfrwt>
<totfact> 0.37150122E+04</totfact>
</mgrwt>
</event>
<event>
 6    1  0.1661841E-002  0.8733410E+02  0.7546771E-02  0.1400514E+00
          1   -1    0    0  501    0  0.00000000000E+00  0.00000000000E+00  0.27110195453E+02  0.27110195453E+02  0.00000000000E+00 0. -1.
         -1   -1    0    0    0  501 -0.00000000000E+00 -0.00000000000E+00 -0.20736233777E+03  0.20736233777E+03  0.00000000000E+00 0.  1.
         23    2    1    2    0    0 -0.12867555741E+02 -0.13494231493E+02 -0.19303070130E+03  0.21186811233E+03  0.85320437782E+02 0.  0.
         11    1    3    3    0    0 -0.19696353028E+02  0.10327976104E+02 -0.57719677604E+01  0.22976706135E+02  0.00000000000E+00 0. -1.
        -11    1    3    3    0    0  0.68287972868E+01 -0.23822207597E+02 -0.18725873354E+03  0.18889140619E+03  0.00000000000E+00 0.  1.
         22    1    1    2    0    0  0.12867555741E+02  0.13494231493E+02  0.12778558982E+02  0.22604420895E+02  0.00000000000E+00 0. -1.
<mgrwt>
<rscale>  0 0.59365418E+02</rscale>
<asrwt>0</asrwt>
<pdfrwt beam="1">  1        1 0.41707993E-02 0.87334102E+02</pdfrwt>
<pdfrwt beam="2">  1       -1 0.31901898E-01 0.87334102E+02</pdfrwt>
<totfact> 0.17444407E+04</totfact>
</mgrwt>
</event>
<event>
 6    1  0.1661841E-002  0.9145376E+02  0.7546771E-02  0.1403852E+00
         -4   -1    0    0    0  501 -0.00000000000E+00  0.00000000000E+00  0.32186580580E+03  0.32186580580E+03  0.00000000000E+00 0.  1.
          4   -1    0    0  501    0  0.00000000000E+00 -0.00000000000E+00 -0.15508931556E+02  0.15508931556E+02  0.00000000000E+00 0. -1.
         23    2    1    2    0    0 -0.15384221849E+02 -0.78836581773E+00  0.30854717069E+03  0.32181539286E+03  0.90147072846E+02 0.  0.
         13    1    3    3    0    0 -0.37179784850E+02 -0.34808700739E+02  0.16384917702E+03  0.17158244333E+03  0.00000000000E+00 0. -1.
        -13    1    3    3    0    0  0.21795563001E+02  0.34020334922E+02  0.14469799366E+03  0.15023294953E+03  0.00000000000E+00 0.  1.
         22    1    1    2    0    0  0.15384221849E+02  0.78836581773E+00 -0.21902964419E+01  0.15559344493E+02  0.00000000000E+00 0.  1.
<mgrwt>
<rscale>  0 0.58588508E+02</rscale>
<asrwt>0</asrwt>
<pdfrwt beam="1">  1        4 0.23859897E-02 0.91453762E+02</pdfrwt>
<pdfrwt beam="2">  1       -4 0.49517811E-01 0.91453762E+02</pdfrwt>
<totfact> 0.45125280E+03</totfact>
</mgrwt>
</event>
<event>
 6    1  0.1661841E-002  0.8913786E+02  0.7546771E-02  0.1418188E+00
          2   -1    0    0  501    0  0.00000000000E+00  0.00000000000E+00  0.15799486156E+04  0.15799486156E+04  0.00000000000E+00 0.  1.
         -2   -1    0    0    0  501 -0.00000000000E+00 -0.00000000000E+00 -0.18968869365E+01  0.18968869365E+01  0.00000000000E+00 0. -1.
         23    2    1    2    0    0 -0.13164319306E+02 -0.19357613373E+01  0.15016875693E+04  0.15043307858E+04  0.88139156196E+02 0.  0.
         13    1    3    3    0    0 -0.18107921940E+02  0.16199285303E+02  0.11606678385E+03  0.11858251134E+03  0.00000000000E+00 0. -1.
        -13    1    3    3    0    0  0.49436026338E+01 -0.18135046640E+02  0.13856207855E+04  0.13857482745E+04  0.00000000000E+00 0.  1.
         22    1    1    2    0    0  0.13164319306E+02  0.19357613373E+01  0.76364159383E+02  0.77514716751E+02  0.00000000000E+00 0.  1.
<mgrwt>
<rscale>  0 0.55406096E+02</rscale>
<asrwt>0</asrwt>
<pdfrwt beam="1">  1        2 0.24306797E+00 0.89137856E+02</pdfrwt>
<pdfrwt beam="2">  1       -2 0.29183002E-03 0.89137856E+02</pdfrwt>
<totfact> 0.13848307E+05</totfact>
</mgrwt>
</event>
<event>
 6    1  0.1661841E-002  0.9889837E+02  0.7546771E-02  0.1345465E+00
         -2   -1    0    0    0  501 -0.00000000000E+00  0.00000000000E+00  0.17168535449E+03  0.17168535449E+03  0.00000000000E+00 0.  1.
          2   -1    0    0  501    0  0.00000000000E+00 -0.00000000000E+00 -0.27628386594E+02  0.27628386594E+02  0.00000000000E+00 0. -1.
         23    2    1    2    0    0 -0.21048765687E+02 -0.23870166424E+02  0.13274972360E+03  0.16553965108E+03  0.93637874726E+02 0.  0.
         11    1    3    3    0    0 -0.27716802187E+02 -0.31112277870E+02  0.14439741934E+03  0.15028908699E+03  0.00000000000E+00 0.  1.
        -11    1    3    3    0    0  0.66680365008E+01  0.72421114461E+01 -0.11647695740E+02  0.15250564089E+02  0.00000000000E+00 0. -1.
         22    1    1    2    0    0  0.21048765687E+02  0.23870166424E+02  0.11307244302E+02  0.33774090006E+02  0.00000000000E+00 0. -1.
<mgrwt>
<rscale>  0 0.74487637E+02</rscale>
<asrwt>0</asrwt>
<pdfrwt beam="1">  1        2 0.42505211E-02 0.98898367E+02</pdfrwt>
<pdfrwt beam="2">  1       -2 0.26413131E-01 0.98898367E+02</pdfrwt>
<totfact> 0.22365280E+04</totfact>
</mgrwt>
</event>
<event>
 6    1  0.1661841E-002  0.8167734E+02  0.7546771E-02  0.1401961E+00
         -1   -1    0    0    0  501 -0.00000000000E+00  0.00000000000E+00  0.36148883315E+03  0.36148883315E+03  0.00000000000E+00 0.  1.
          1   -1    0    0  501    0  0.00000000000E+00 -0.00000000000E+00 -0.11818009060E+02  0.11818009060E+02  0.00000000000E+00 0. -1.
         23    2    1    2    0    0 -0.16985968316E+02  0.14416278658E+02  0.33882042495E+03  0.34852613658E+03  0.78580120322E+02 0.  0.
         11    1    3    3    0    0 -0.39201989452E+02  0.31907218583E+02  0.17003482765E+03  0.17738858246E+03  0.00000000000E+00 0. -1.
        -11    1    3    3    0    0  0.22216021137E+02 -0.17490939925E+02  0.16878559730E+03  0.17113755412E+03  0.00000000000E+00 0.  1.
         22    1    1    2    0    0  0.16985968316E+02 -0.14416278658E+02  0.10850399147E+02  0.24780705632E+02  0.00000000000E+00 0. -1.
<mgrwt>
<rscale>  0 0.59026893E+02</rscale>
<asrwt>0</asrwt>
<pdfrwt beam="1">  1        1 0.18181555E-02 0.81677338E+02</pdfrwt>
<pdfrwt beam="2">  1       -1 0.55613658E-01 0.81677338E+02</pdfrwt>
<totfact> 0.20361613E+04</totfact>
</mgrwt>
</event>
<event>
 6    1  0.1661841E-002  0.1013397E+03  0.7546771E-02  0.1320880E+00
         -1   -1    0    0    0  501 -0.00000000000E+00  0.00000000000E+00  0.13987516785E+02  0.13987516785E+02  0.00000000000E+00 0.  1.
          1   -1    0    0  501    0  0.00000000000E+00 -0.00000000000E+00 -0.41476156628E+03  0.41476156628E+03  0.00000000000E+00 0. -1.
         23    2    1    2    0    0  0.38270947654E+02 -0.24595187846E+02 -0.21807513335E+03  0.24047140871E+03  0.90554657102E+02 0.  0.
         13    1    3    3    0    0  0.29421961462E+01 -0.55578879656E+01  0.83859499316E+01  0.10481926972E+02  0.00000000000E+00 0.  1.
        -13    1    3    3    0    0  0.35328751507E+02 -0.19037299880E+02 -0.22646108328E+03  0.22998948174E+03  0.00000000000E+00 0. -1.
         22    1    1    2    0    0 -0.38270947654E+02  0.24595187846E+02 -0.18269891614E+03  0.18827767435E+03  0.00000000000E+00 0.  1.
<mgrwt>
<rscale>  0 0.82950730E+02</rscale>
<asrwt>0</asrwt>
<pdfrwt beam="1">  1        1 0.63809478E-01 0.10133970E+03</pdfrwt>
<pdfrwt beam="2">  1       -1 0.21519255E-02 0.10133970E+03</pdfrwt>
<totfact> 0.32082911E+04</totfact>
</mgrwt>
</event>
<event>
 6    1  0.1661841E-002  0.9324896E+02  0.7546771E-02  0.1407031E+00
         -4   -1    0    0    0  501 -0.00000000000E+00  0.00000000000E+00  0.41841961349E+03  0.41841961349E+03  0.00000000000E+00 0.  1.
          4   -1    0    0  501    0  0.00000000000E+00 -0.00000000000E+00 -0.70105132646E+01  0.70105132646E+01  0.00000000000E+00 0. -1.
         23    2    1    2    0    0 -0.13778303045E+02  0.11228731885E+01  0.37668758993E+03  0.38805786758E+03  0.92218575680E+02 0.  0.
         11    1    3    3    0    0 -0.36427978093E+01  0.34922769920E+02  0.60838921749E+02  0.70244175804E+02  0.00000000000E+00 0. -1.
        -11    1    3    3    0    0 -0.10135505236E+02 -0.33799896731E+02  0.31584866818E+03  0.31781369177E+03  0.00000000000E+00 0.  1.
         22    1    1    2    0    0  0.13778303045E+02 -0.11228731885E+01  0.34721510293E+02  0.37372259178E+02  0.00000000000E+00 0.  1.
<mgrwt>
<rscale>  0 0.57861712E+02</rscale>
<asrwt>0</asrwt>
<pdfrwt beam="1">  1        4 0.10785408E-02 0.93248958E+02</pdfrwt>
<pdfrwt beam="2">  1       -4 0.64372229E-01 0.93248958E+02</pdfrwt>
<totfact> 0.88079519E+03</totfact>
</mgrwt>
</event>
<event>
 6    1  0.1661841E-002  0.9184041E+02  0.7546771E-02  0.1407335E+00
         -2   -1    0    0    0  501 -0.00000000000E+00  0.00000000000E+00  0.51101847324E+03  0.51101847324E+03  0.00000000000E+00 0.  1.
          2   -1    0    0  501    0  0.00000000000E+00 -0.00000000000E+00 -0.87844053724E+01  0.87844053724E+01  0.00000000000E+00 0. -1.
         23    2    1    2    0    0 -0.28360112169E+01 -0.14118946098E+02  0.49543878529E+03  0.50387920240E+03  0.90704316606E+02 0.  0.
         13    1    3    3    0    0  0.25511713217E+02  0.90282695751E+01  0.49277931664E+02  0.56219851582E+02  0.00000000000E+00 0. -1.
        -13    1    3    3    0    0 -0.28347724434E+02 -0.23147215673E+02  0.44616085362E+03  0.44765935082E+03  0.00000000000E+00 0.  1.
         22    1    1    2    0    0  0.28360112169E+01  0.14118946098E+02  0.67952825764E+01  0.15923676203E+02  0.00000000000E+00 0. -1.
<mgrwt>
<rscale>  0 0.57792729E+02</rscale>
<asrwt>0</asrwt>
<pdfrwt beam="1">  1        2 0.13514474E-02 0.91840409E+02</pdfrwt>
<pdfrwt beam="2">  1       -2 0.78618203E-01 0.91840409E+02</pdfrwt>
<totfact> 0.12437904E+04</totfact>
</mgrwt>
</event>
<event>
 6    1  0.1661841E-002  0.1007180E+03  0.7546771E-02  0.1405358E+00
         -2   -1    0    0    0  501 -0.00000000000E+00  0.00000000000E+00  0.22418836218E+02  0.22418836218E+02  0.00000000000E+00 0.  1.
          2   -1    0    0  501    0  0.00000000000E+00 -0.00000000000E+00 -0.17094982890E+03  0.17094982890E+03  0.00000000000E+00 0. -1.
         23    2    1    2    0    0 -0.57684454301E+01  0.96733840318E+01 -0.94275440215E+02  0.13795644359E+03  0.10008632463E+03 0.  0.
         11    1    3    3    0    0 -0.45905417561E+01 -0.30471238965E+02  0.46735620301E+01  0.31167477596E+02  0.00000000000E+00 0.  1.
        -11    1    3    3    0    0 -0.11779036740E+01  0.40144622996E+02 -0.98949002245E+02  0.10678896599E+03  0.00000000000E+00 0. -1.
         22    1    1    2    0    0  0.57684454301E+01 -0.96733840318E+01 -0.54255552470E+02  0.55412221532E+02  0.00000000000E+00 0.  1.
<mgrwt>
<rscale>  0 0.58242692E+02</rscale>
<asrwt>0</asrwt>
<pdfrwt beam="1">  1        2 0.26299973E-01 0.10071803E+03</pdfrwt>
<pdfrwt beam="2">  1       -2 0.34490518E-02 0.10071803E+03</pdfrwt>
<totfact> 0.61168449E+04</totfact>
</mgrwt>
</event>
<event>
 6    1  0.1661841E-002  0.9840828E+02  0.7546771E-02  0.1336833E+00
          1   -1    0    0  501    0  0.00000000000E+00  0.00000000000E+00  0.42276654731E+01  0.42276654731E+01  0.00000000000E+00 0. -1.
         -1   -1    0    0    0  501 -0.00000000000E+00 -0.00000000000E+00 -0.12195716704E+04  0.12195716704E+04  0.00000000000E+00 0.  1.
         23    2    1    2    0    0  0.98913953331E+01 -0.36176270441E+02 -0.10305554794E+04  0.10352433458E+04  0.90981462703E+02 0.  0.
         11    1    3    3    0    0 -0.83935202646E+01 -0.39359137496E+02 -0.98796803303E+03  0.98878735185E+03  0.00000000000E+00 0.  1.
        -11    1    3    3    0    0  0.18284915598E+02  0.31828670559E+01 -0.42587446369E+02  0.46455993901E+02  0.00000000000E+00 0. -1.
         22    1    1    2    0    0 -0.98913953331E+01  0.36176270441E+02 -0.18478852553E+03  0.18855599013E+03  0.00000000000E+00 0. -1.
<mgrwt>
<rscale>  0 0.77320310E+02</rscale>
<asrwt>0</asrwt>
<pdfrwt beam="1">  1        1 0.65041079E-03 0.98408276E+02</pdfrwt>
<pdfrwt beam="2">  1       -1 0.18762621E+00 0.98408276E+02</pdfrwt>
<totfact> 0.56133172E+03</totfact>
</mgrwt>
</event>
<event>
 6    1  0.1661841E-002  0.9264650E+02  0.7546771E-02  0.1404268E+00
          2   -1    0    0  501    0  0.00000000000E+00  0.00000000000E+00  0.14834511484E+03  0.14834511484E+03  0.00000000000E+00 0. -1.
         -2   -1    0    0    0  501 -0.00000000000E+00 -0.00000000000E+00 -0.25249272182E+02  0.25249272182E+02  0.00000000000E+00 0.  1.
         23    2    1    2    0    0 -0.89006609489E+01  0.11724688299E+02  0.63776468966E+02  0.11247582866E+03  0.91469579412E+02 0.  0.
         13    1    3    3    0    0  0.68082581383E+01 -0.61562759952E+01  0.81991947528E+02  0.82504130639E+02  0.00000000000E+00 0. -1.
        -13    1    3    3    0    0 -0.15708919087E+02  0.17880964295E+02 -0.18215478562E+02  0.29971698021E+02  0.00000000000E+00 0.  1.
         22    1    1    2    0    0  0.89006609489E+01 -0.11724688299E+02  0.59319373697E+02  0.61118558367E+02  0.00000000000E+00 0. -1.
<mgrwt>
<rscale>  0 0.58492697E+02</rscale>
<asrwt>0</asrwt>
<pdfrwt beam="1">  1        2 0.22822325E-01 0.92646500E+02</pdfrwt>
<pdfrwt beam="2">  1       -2 0.38845035E-02 0.92646500E+02</pdfrwt>
<totfact> 0.59317909E+04</totfact>
</mgrwt>
</event>
<event>
 6    1  0.1661841E-002  0.9061287E+02  0.7546771E-02  0.1412803E+00
         -1   -1    0    0    0  501 -0.00000000000E+00  0.00000000000E+00  0.40001141780E+02  0.40001141780E+02  0.00000000000E+00 0.  1.
          1   -1    0    0  501    0  0.00000000000E+00 -0.00000000000E+00 -0.68149500864E+02  0.68149500864E+02  0.00000000000E+00 0. -1.
         23    2    1    2    0    0 -0.64621975455E+01  0.12157033642E+02 -0.23381149167E+02  0.93580819224E+02  0.89560806864E+02 0.  0.
         13    1    3    3    0    0 -0.43268964418E+02  0.81728268926E+01  0.83531970401E+01  0.44819351647E+02  0.00000000000E+00 0.  1.
        -13    1    3    3    0    0  0.36806766873E+02  0.39842067495E+01 -0.31734346207E+02  0.48761467577E+02  0.00000000000E+00 0. -1.
         22    1    1    2    0    0  0.64621975455E+01 -0.12157033642E+02 -0.47672099171E+01  0.14569823420E+02  0.00000000000E+00 0. -1.
<mgrwt>
<rscale>  0 0.56572956E+02</rscale>
<asrwt>0</asrwt>
<pdfrwt beam="1">  1        1 0.10484539E-01 0.90612867E+02</pdfrwt>
<pdfrwt beam="2">  1       -1 0.61540218E-02 0.90612867E+02</pdfrwt>
<totfact> 0.65929187E+04</totfact>
</mgrwt>
</event>
<event>
 6    1  0.1661841E-002  0.9160820E+02  0.7546771E-02  0.1430538E+00
         -4   -1    0    0    0  501 -0.00000000000E+00  0.00000000000E+00  0.45251437467E+02  0.45251437467E+02  0.00000000000E+00 0. -1.
          4   -1    0    0  501    0  0.00000000000E+00 -0.00000000000E+00 -0.57277439744E+02  0.57277439744E+02  0.00000000000E+00 0.  1.
         23    2    1    2    0    0 -0.91189944788E+01  0.44561300634E+01 -0.97352440951E+01  0.92124035622E+02  0.91044218962E+02 0.  0.
         13    1    3    3    0    0  0.18007975656E+02  0.72850043733E+01  0.34826716073E+02  0.39878046948E+02  0.00000000000E+00 0. -1.
        -13    1    3    3    0    0 -0.27126970134E+02 -0.28288743100E+01 -0.44561960168E+02  0.52245988675E+02  0.00000000000E+00 0.  1.
         22    1    1    2    0    0  0.91189944788E+01 -0.44561300634E+01 -0.22907581819E+01  0.10404841589E+02  0.00000000000E+00 0.  1.
<mgrwt>
<rscale>  0 0.52852114E+02</rscale>
<asrwt>0</asrwt>
<pdfrwt beam="1">  1        4 0.88119138E-02 0.91608204E+02</pdfrwt>
<pdfrwt beam="2">  1       -4 0.69617596E-02 0.91608204E+02</pdfrwt>
<totfact> 0.18832276E+04</totfact>
</mgrwt>
</event>
<event>
 6    1  0.1661841E-002  0.9331452E+02  0.7546771E-02  0.1379637E+00
          2   -1    0    0  501    0  0.00000000000E+00  0.00000000000E+00  0.10483314464E+03  0.10483314464E+03  0.00000000000E+00 0. -1.
         -2   -1    0    0    0  501 -0.00000000000E+00 -0.00000000000E+00 -0.53981880961E+02  0.53981880961E+02  0.00000000000E+00 0.  1.
         23    2    1    2    0    0  0.17549954088E+02  0.12208850250E+02 -0.10445193203E+02  0.93897288893E+02  0.90832493566E+02 0.  0.
         13    1    3    3    0    0  0.86181921552E+01 -0.37039652288E+02  0.10785292631E+02  0.39528870649E+02  0.00000000000E+00 0. -1.
        -13    1    3    3    0    0  0.89317619332E+01  0.49248502538E+02 -0.21230485835E+02  0.54368418243E+02  0.00000000000E+00 0.  1.
         22    1    1    2    0    0 -0.17549954088E+02 -0.12208850250E+02  0.61296456887E+02  0.64917736713E+02  0.00000000000E+00 0. -1.
<mgrwt>
<rscale>  0 0.64559207E+02</rscale>
<asrwt>0</asrwt>
<pdfrwt beam="1">  1        2 0.16128176E-01 0.93314515E+02</pdfrwt>
<pdfrwt beam="2">  1       -2 0.83049048E-02 0.93314515E+02</pdfrwt>
<totfact> 0.28091531E+04</totfact>
</mgrwt>
</event>
<event>
 6    1  0.1661841E-002  0.9320001E+02  0.7546771E-02  0.1404553E+00
         -1   -1    0    0    0  501 -0.00000000000E+00  0.00000000000E+00  0.23868836421E+03  0.23868836421E+03  0.00000000000E+00 0.  1.
          1   -1    0    0  501    0  0.00000000000E+00 -0.00000000000E+00 -0.47431719200E+02  0.47431719200E+02  0.00000000000E+00 0. -1.
         23    2    1    2    0    0 -0.40373830848E+01 -0.13817239620E+02  0.22818537488E+03  0.24648490127E+03  0.92081619615E+02 0.  0.
         11    1    3    3    0    0 -0.28699895005E+02  0.30199439890E+02  0.84800084368E+02  0.94481450305E+02  0.00000000000E+00 0. -1.
        -11    1    3    3    0    0  0.24662511920E+02 -0.44016679510E+02  0.14338529051E+03  0.15200345097E+03  0.00000000000E+00 0.  1.
         22    1    1    2    0    0  0.40373830848E+01  0.13817239620E+02 -0.36928729875E+02  0.39635182138E+02  0.00000000000E+00 0. -1.
<mgrwt>
<rscale>  0 0.58427193E+02</rscale>
<asrwt>0</asrwt>
<pdfrwt beam="1">  1        1 0.72971877E-02 0.93200007E+02</pdfrwt>
<pdfrwt beam="2">  1       -1 0.36721286E-01 0.93200007E+02</pdfrwt>
<totfact> 0.65218940E+03</totfact>
</mgrwt>
</event>
<event>
 6    1  0.1661841E-002  0.9005954E+02  0.7546771E-02  0.1430206E+00
         -2   -1    0    0    0  501 -0.00000000000E+00  0.00000000000E+00  0.93721423800E+01  0.93721423800E+01  0.00000000000E+00 0.  1.
          2   -1    0    0  501    0  0.00000000000E+00 -0.00000000000E+00 -0.27950242634E+03  0.27950242634E+03  0.00000000000E+00 0. -1.
         23    2    1    2    0    0 -0.85361370521E+01  0.65115241807E+01 -0.22221480849E+03  0.23977102127E+03  0.89417313449E+02 0.  0.
         13    1    3    3    0    0  0.34163046350E+02  0.22618468373E+02 -0.13840069783E+03  0.14433801303E+03  0.00000000000E+00 0.  1.
        -13    1    3    3    0    0 -0.42699183402E+02 -0.16106944192E+02 -0.83814110666E+02  0.95433008236E+02  0.00000000000E+00 0. -1.
         22    1    1    2    0    0  0.85361370521E+01 -0.65115241807E+01 -0.47915475466E+02  0.49103547448E+02  0.00000000000E+00 0.  1.
<mgrwt>
<rscale>  0 0.52918773E+02</rscale>
<asrwt>0</asrwt>
<pdfrwt beam="1">  1        2 0.43000366E-01 0.90059544E+02</pdfrwt>
<pdfrwt beam="2">  1       -2 0.14418683E-02 0.90059544E+02</pdfrwt>
<totfact> 0.12566074E+05</totfact>
</mgrwt>
</event>
<event>
 6    1  0.1661841E-002  0.1070123E+03  0.7546771E-02  0.1296141E+00
          2   -1    0    0  501    0  0.00000000000E+00  0.00000000000E+00  0.32987901019E+03  0.32987901019E+03  0.00000000000E+00 0.  1.
         -2   -1    0    0    0  501 -0.00000000000E+00 -0.00000000000E+00 -0.61044163162E+02  0.61044163162E+02  0.00000000000E+00 0. -1.
         23    2    1    2    0    0  0.32467524747E+02  0.51163059477E+02 -0.82121734993E+01  0.10732689270E+03  0.88203306538E+02 0.  0.
         13    1    3    3    0    0  0.54169938575E+02  0.48364698831E+01 -0.13084689614E+02  0.55937311237E+02  0.00000000000E+00 0.  1.
        -13    1    3    3    0    0 -0.21702413828E+02  0.46326589594E+02  0.48725161151E+01  0.51389581460E+02  0.00000000000E+00 0. -1.
         22    1    1    2    0    0 -0.32467524747E+02 -0.51163059477E+02  0.27704702053E+03  0.28359628066E+03  0.00000000000E+00 0.  1.
<mgrwt>
<rscale>  0 0.92829281E+02</rscale>
<asrwt>0</asrwt>
<pdfrwt beam="1">  1        2 0.50750616E-01 0.10701225E+03</pdfrwt>
<pdfrwt beam="2">  1       -2 0.93914099E-02 0.10701225E+03</pdfrwt>
<totfact> 0.67885335E+03</totfact>
</mgrwt>
</event>
<event>
 6    1  0.1661841E-002  0.9633048E+02  0.7546771E-02  0.1351629E+00
         -2   -1    0    0    0  501 -0.00000000000E+00  0.00000000000E+00  0.17372017773E+02  0.17372017773E+02  0.00000000000E+00 0.  1.
          2   -1    0    0  501    0  0.00000000000E+00 -0.00000000000E+00 -0.32043612580E+03  0.32043612580E+03  0.00000000000E+00 0. -1.
         23    2    1    2    0    0  0.27376125354E+02  0.14530896387E+02 -0.12895851928E+03  0.16096540207E+03  0.91208342708E+02 0.  0.
         11    1    3    3    0    0 -0.22587845218E+02 -0.19037953140E+02 -0.73114816567E+02  0.78857027671E+02  0.00000000000E+00 0. -1.
        -11    1    3    3    0    0  0.49963970572E+02  0.33568849527E+02 -0.55843702712E+02  0.82108374399E+02  0.00000000000E+00 0.  1.
         22    1    1    2    0    0 -0.27376125354E+02 -0.14530896387E+02 -0.17410558875E+03  0.17684274151E+03  0.00000000000E+00 0. -1.
<mgrwt>
<rscale>  0 0.72550526E+02</rscale>
<asrwt>0</asrwt>
<pdfrwt beam="1">  1        2 0.49297859E-01 0.96330478E+02</pdfrwt>
<pdfrwt beam="2">  1       -2 0.26726185E-02 0.96330478E+02</pdfrwt>
<totfact> 0.45298543E+04</totfact>
</mgrwt>
</event>
<event>
 6    1  0.1661841E-002  0.9557154E+02  0.7546771E-02  0.1346738E+00
          2   -1    0    0  501    0  0.00000000000E+00  0.00000000000E+00  0.18462598197E+02  0.18462598197E+02  0.00000000000E+00 0.  1.
         -2   -1    0    0    0  501 -0.00000000000E+00 -0.00000000000E+00 -0.31134576501E+03  0.31134576501E+03  0.00000000000E+00 0. -1.
         23    2    1    2    0    0  0.22641873006E+02  0.26035007080E+02 -0.27460895596E+03  0.29076450595E+03  0.89125996329E+02 0.  0.
         13    1    3    3    0    0 -0.20485914415E+02 -0.95045692899E+01 -0.20230227803E+02  0.30319492802E+02  0.00000000000E+00 0.  1.
        -13    1    3    3    0    0  0.43127787421E+02  0.35539576370E+02 -0.25437872816E+03  0.26044501315E+03  0.00000000000E+00 0. -1.
         22    1    1    2    0    0 -0.22641873006E+02 -0.26035007080E+02 -0.18274210849E+02  0.39043857251E+02  0.00000000000E+00 0. -1.
<mgrwt>
<rscale>  0 0.74081799E+02</rscale>
<asrwt>0</asrwt>
<pdfrwt beam="1">  1        2 0.28403997E-02 0.95571540E+02</pdfrwt>
<pdfrwt beam="2">  1       -2 0.47899349E-01 0.95571540E+02</pdfrwt>
<totfact> 0.12674914E+04</totfact>
</mgrwt>
</event>
<event>
 6    1  0.1661841E-002  0.9241582E+02  0.7546771E-02  0.1414596E+00
          2   -1    0    0  501    0  0.00000000000E+00  0.00000000000E+00  0.58797369901E+02  0.58797369901E+02  0.00000000000E+00 0. -1.
         -2   -1    0    0    0  501 -0.00000000000E+00 -0.00000000000E+00 -0.63058296013E+02  0.63058296013E+02  0.00000000000E+00 0.  1.
         23    2    1    2    0    0 -0.10029328967E+02 -0.76624998398E+01 -0.26625992621E+02  0.96174981669E+02  0.91549889528E+02 0.  0.
         13    1    3    3    0    0 -0.14403319846E+02 -0.10104109823E+02  0.32436263615E+02  0.36900675538E+02  0.00000000000E+00 0. -1.
        -13    1    3    3    0    0  0.43739908783E+01  0.24416099830E+01 -0.59062256236E+02  0.59274306130E+02  0.00000000000E+00 0.  1.
         22    1    1    2    0    0  0.10029328967E+02  0.76624998398E+01  0.22365066509E+02  0.25680684245E+02  0.00000000000E+00 0.  1.
<mgrwt>
<rscale>  0 0.56180703E+02</rscale>
<asrwt>0</asrwt>
<pdfrwt beam="1">  1        2 0.90457492E-02 0.92415819E+02</pdfrwt>
<pdfrwt beam="2">  1       -2 0.97012763E-02 0.92415819E+02</pdfrwt>
<totfact> 0.43856568E+04</totfact>
</mgrwt>
</event>
<event>
 6    1  0.1661841E-002  0.8497876E+02  0.7546771E-02  0.1433754E+00
         -2   -1    0    0    0  501 -0.00000000000E+00  0.00000000000E+00  0.51015803992E+01  0.51015803992E+01  0.00000000000E+00 0.  1.
          2   -1    0    0  501    0  0.00000000000E+00 -0.00000000000E+00 -0.46473096443E+03  0.46473096443E+03  0.00000000000E+00 0. -1.
         23    2    1    2    0    0  0.10685879438E+02 -0.57017765849E+01 -0.41332414255E+03  0.42196947280E+03  0.84111181681E+02 0.  0.
         13    1    3    3    0    0 -0.97553759469E+01  0.35545202727E+02 -0.23107391155E+03  0.23399525935E+03  0.00000000000E+00 0. -1.
        -13    1    3    3    0    0  0.20441255385E+02 -0.41246979312E+02 -0.18225023100E+03  0.18797421345E+03  0.00000000000E+00 0.  1.
         22    1    1    2    0    0 -0.10685879438E+02  0.57017765849E+01 -0.46305241482E+02  0.47863072031E+02  0.00000000000E+00 0.  1.
<mgrwt>
<rscale>  0 0.52213873E+02</rscale>
<asrwt>0</asrwt>
<pdfrwt beam="1">  1        2 0.71497076E-01 0.84978757E+02</pdfrwt>
<pdfrwt beam="2">  1       -2 0.78485847E-03 0.84978757E+02</pdfrwt>
<totfact> 0.17272269E+05</totfact>
</mgrwt>
</event>
<event>
 6    1  0.1661841E-002  0.9813824E+02  0.7546771E-02  0.1351077E+00
          1   -1    0    0  501    0  0.00000000000E+00  0.00000000000E+00  0.27571285464E+02  0.27571285464E+02  0.00000000000E+00 0. -1.
         -1   -1    0    0    0  501 -0.00000000000E+00 -0.00000000000E+00 -0.23416118302E+03  0.23416118302E+03  0.00000000000E+00 0.  1.
         23    2    1    2    0    0 -0.26034423881E+02  0.14060156690E+02 -0.21014505848E+03  0.23193115304E+03  0.93571549705E+02 0.  0.
         11    1    3    3    0    0 -0.13512183254E+02 -0.38739930270E+02 -0.11877798347E+03  0.12566451628E+03  0.00000000000E+00 0.  1.
        -11    1    3    3    0    0 -0.12522240628E+02  0.52800086961E+02 -0.91367075010E+02  0.10626663677E+03  0.00000000000E+00 0. -1.
         22    1    1    2    0    0  0.26034423881E+02 -0.14060156690E+02  0.35551609240E+01  0.29801315444E+02  0.00000000000E+00 0. -1.
<mgrwt>
<rscale>  0 0.72720931E+02</rscale>
<asrwt>0</asrwt>
<pdfrwt beam="1">  1        1 0.42417363E-02 0.98138240E+02</pdfrwt>
<pdfrwt beam="2">  1       -1 0.36024796E-01 0.98138240E+02</pdfrwt>
<totfact> 0.14064355E+04</totfact>
</mgrwt>
</event>
<event>
 6    1  0.1661841E-002  0.9487343E+02  0.7546771E-02  0.1372785E+00
         -2   -1    0    0    0  501 -0.00000000000E+00  0.00000000000E+00  0.24010512214E+03  0.24010512214E+03  0.00000000000E+00 0. -1.
          2   -1    0    0  501    0  0.00000000000E+00 -0.00000000000E+00 -0.21297368417E+02  0.21297368417E+02  0.00000000000E+00 0.  1.
         23    2    1    2    0    0 -0.64802284208E+01 -0.21820202392E+02  0.21897026469E+03  0.23863977977E+03  0.92102405380E+02 0.  0.
         11    1    3    3    0    0  0.38449903186E+02 -0.68306590551E+01  0.51691809439E+02  0.64784999199E+02  0.00000000000E+00 0.  1.
        -11    1    3    3    0    0 -0.44930131607E+02 -0.14989543337E+02  0.16727845525E+03  0.17385478057E+03  0.00000000000E+00 0. -1.
         22    1    1    2    0    0  0.64802284208E+01  0.21820202392E+02 -0.16251096414E+00  0.22762710792E+02  0.00000000000E+00 0.  1.
<mgrwt>
<rscale>  0 0.66399021E+02</rscale>
<asrwt>0</asrwt>
<pdfrwt beam="1">  1        2 0.32765184E-02 0.94873430E+02</pdfrwt>
<pdfrwt beam="2">  1       -2 0.36939248E-01 0.94873430E+02</pdfrwt>
<totfact> 0.17148914E+04</totfact>
</mgrwt>
</event>
<event>
 6    1  0.1661841E-002  0.9027137E+02  0.7546771E-02  0.1422672E+00
          4   -1    0    0  501    0  0.00000000000E+00  0.00000000000E+00  0.12602027222E+03  0.12602027222E+03  0.00000000000E+00 0. -1.
         -4   -1    0    0    0  501 -0.00000000000E+00 -0.00000000000E+00 -0.21902880942E+02  0.21902880942E+02  0.00000000000E+00 0.  1.
         23    2    1    2    0    0 -0.33454021389E+01  0.11480137466E+02  0.78407819257E+02  0.11956883488E+03  0.89475889950E+02 0.  0.
         13    1    3    3    0    0 -0.41117196280E+02  0.24731761261E+02  0.55814422599E+02  0.73603896739E+02  0.00000000000E+00 0. -1.
        -13    1    3    3    0    0  0.37771794142E+02 -0.13251623795E+02  0.22593396657E+02  0.45964938142E+02  0.00000000000E+00 0.  1.
         22    1    1    2    0    0  0.33454021389E+01 -0.11480137466E+02  0.25709572019E+02  0.28354318279E+02  0.00000000000E+00 0.  1.
<mgrwt>
<rscale>  0 0.54459536E+02</rscale>
<asrwt>0</asrwt>
<pdfrwt beam="1">  1        4 0.19387734E-01 0.90271370E+02</pdfrwt>
<pdfrwt beam="2">  1       -4 0.33696741E-02 0.90271370E+02</pdfrwt>
<totfact> 0.15440794E+04</totfact>
</mgrwt>
</event>
<event>
 6    1  0.1661841E-002  0.9282046E+02  0.7546771E-02  0.1411764E+00
          2   -1    0    0  501    0  0.00000000000E+00  0.00000000000E+00  0.32428019061E+03  0.32428019061E+03  0.00000000000E+00 0. -1.
         -2   -1    0    0    0  501 -0.00000000000E+00 -0.00000000000E+00 -0.86358929891E+01  0.86358929891E+01  0.00000000000E+00 0.  1.
         23    2    1    2    0    0  0.12481049803E+02  0.36979335552E+01  0.27722732439E+03  0.29235359910E+03  0.91903134875E+02 0.  0.
         13    1    3    3    0    0 -0.28007765538E+02  0.96928962822E+01  0.22004626345E+03  0.22203320749E+03  0.00000000000E+00 0. -1.
        -13    1    3    3    0    0  0.40488815341E+02 -0.59949627270E+01  0.57181060935E+02  0.70320391605E+02  0.00000000000E+00 0.  1.
         22    1    1    2    0    0 -0.12481049803E+02 -0.36979335552E+01  0.38416973235E+02  0.40562484506E+02  0.00000000000E+00 0. -1.
<mgrwt>
<rscale>  0 0.56801970E+02</rscale>
<asrwt>0</asrwt>
<pdfrwt beam="1">  1        2 0.49889251E-01 0.92820459E+02</pdfrwt>
<pdfrwt beam="2">  1       -2 0.13285992E-02 0.92820459E+02</pdfrwt>
<totfact> 0.12144936E+05</totfact>
</mgrwt>
</event>
<event>
 6    1  0.1661841E-002  0.9434282E+02  0.7546771E-02  0.1379596E+00
         -2   -1    0    0    0  501 -0.00000000000E+00  0.00000000000E+00  0.34069332201E+02  0.34069332201E+02  0.00000000000E+00 0.  1.
          2   -1    0    0  501    0  0.00000000000E+00 -0.00000000000E+00 -0.14183107973E+03  0.14183107973E+03  0.00000000000E+00 0. -1.
         23    2    1    2    0    0  0.86797269779E+01 -0.18793860134E+02 -0.35613364700E+02  0.10084086235E+03  0.92043581711E+02 0.  0.
         11    1    3    3    0    0  0.25056175885E+02  0.26442457927E+02 -0.38041296507E+02  0.52670255089E+02  0.00000000000E+00 0. -1.
        -11    1    3    3    0    0 -0.16376448907E+02 -0.45236318061E+02  0.24279318073E+01  0.48170607256E+02  0.00000000000E+00 0.  1.
         22    1    1    2    0    0 -0.86797269779E+01  0.18793860134E+02 -0.72148382833E+02  0.75059549589E+02  0.00000000000E+00 0. -1.
<mgrwt>
<rscale>  0 0.64570096E+02</rscale>
<asrwt>0</asrwt>
<pdfrwt beam="1">  1        2 0.21820166E-01 0.94342820E+02</pdfrwt>
<pdfrwt beam="2">  1       -2 0.52414357E-02 0.94342820E+02</pdfrwt>
<totfact> 0.40108198E+04</totfact>
</mgrwt>
</event>
<event>
 6    1  0.1661841E-002  0.9312836E+02  0.7546771E-02  0.1403830E+00
         -2   -1    0    0    0  501 -0.00000000000E+00  0.00000000000E+00  0.10230609318E+03  0.10230609318E+03  0.00000000000E+00 0.  1.
          2   -1    0    0  501    0  0.00000000000E+00 -0.00000000000E+00 -0.28763842952E+02  0.28763842952E+02  0.00000000000E+00 0. -1.
         23    2    1    2    0    0 -0.14592849825E+02  0.12566810133E+00  0.68583050318E+02  0.11565693116E+03  0.91977844481E+02 0.  0.
         11    1    3    3    0    0 -0.91253875516E+01 -0.45224921612E+02  0.44133783360E+02  0.63846355154E+02  0.00000000000E+00 0. -1.
        -11    1    3    3    0    0 -0.54674622733E+01  0.45350589713E+02  0.24449266958E+02  0.51810576004E+02  0.00000000000E+00 0.  1.
         22    1    1    2    0    0  0.14592849825E+02 -0.12566810133E+00  0.49591999054E+01  0.15413004969E+02  0.00000000000E+00 0.  1.
<mgrwt>
<rscale>  0 0.58593644E+02</rscale>
<asrwt>0</asrwt>
<pdfrwt beam="1">  1        2 0.44252067E-02 0.93128357E+02</pdfrwt>
<pdfrwt beam="2">  1       -2 0.15739399E-01 0.93128357E+02</pdfrwt>
<totfact> 0.50349537E+04</totfact>
</mgrwt>
</event>
<event>
 6    1  0.1661841E-002  0.1013793E+03  0.7546771E-02  0.1350644E+00
         -1   -1    0    0    0  501 -0.00000000000E+00  0.00000000000E+00  0.47873670648E+02  0.47873670648E+02  0.00000000000E+00 0.  1.
          1   -1    0    0  501    0  0.00000000000E+00 -0.00000000000E+00 -0.12779072948E+03  0.12779072948E+03  0.00000000000E+00 0. -1.
         23    2    1    2    0    0  0.25974515972E+02 -0.75133851902E+01 -0.11416256028E+02  0.10202007637E+03  0.97706901721E+02 0.  0.
         13    1    3    3    0    0  0.15624024297E+02  0.35387799115E+02 -0.34837399006E+02  0.52058148554E+02  0.00000000000E+00 0. -1.
        -13    1    3    3    0    0  0.10350491675E+02 -0.42901184305E+02  0.23421142978E+02  0.49961927816E+02  0.00000000000E+00 0.  1.
         22    1    1    2    0    0 -0.25974515972E+02  0.75133851902E+01 -0.68500802799E+02  0.73644323753E+02  0.00000000000E+00 0. -1.
<mgrwt>
<rscale>  0 0.72855286E+02</rscale>
<asrwt>0</asrwt>
<pdfrwt beam="1">  1        1 0.19660112E-01 0.10137931E+03</pdfrwt>
<pdfrwt beam="2">  1       -1 0.73651801E-02 0.10137931E+03</pdfrwt>
<totfact> 0.22859042E+04</totfact>
</mgrwt>
</event>
<event>
 6    1  0.1683683E-002  0.1128985E+03  0.7546771E-02  0.1379442E+00
          2   -1    0    0  501    0  0.00000000000E+00  0.00000000000E+00  0.15095669933E+02  0.15095669933E+02  0.00000000000E+00 0. -1.
         -2   -1    0    0    0  501 -0.00000000000E+00 -0.00000000000E+00 -0.27569277073E+03  0.27569277073E+03  0.00000000000E+00 0.  1.
         23    2    1    2    0    0 -0.12109743101E+02  0.11401597852E+00 -0.25138360893E+03  0.27557176199E+03  0.11224713042E+03 0.  0.
         11    1    3    3    0    0  0.11914444325E+01 -0.18351358753E+02  0.42929451823E+01  0.18884419140E+02  0.00000000000E+00 0. -1.
        -11    1    3    3    0    0 -0.13301187534E+02  0.18465374731E+02 -0.25567655412E+03  0.25668734285E+03  0.00000000000E+00 0.  1.
         22    1    1    2    0    0  0.12109743101E+02 -0.11401597852E+00 -0.92134918673E+01  0.15216678679E+02  0.00000000000E+00 0.  1.
<mgrwt>
<rscale>  0 0.64610745E+02</rscale>
<asrwt>0</asrwt>
<pdfrwt beam="1">  1        2 0.23224109E-02 0.11289853E+03</pdfrwt>
<pdfrwt beam="2">  1       -2 0.42414270E-01 0.11289853E+03</pdfrwt>
<totfact> 0.21415347E+04</totfact>
</mgrwt>
</event>
<event>
 6    1  0.1661841E-002  0.9513036E+02  0.7546771E-02  0.1404707E+00
         -4   -1    0    0    0  501 -0.00000000000E+00  0.00000000000E+00  0.16020593075E+03  0.16020593075E+03  0.00000000000E+00 0.  1.
          4   -1    0    0  501    0  0.00000000000E+00 -0.00000000000E+00 -0.18837199719E+02  0.18837199719E+02  0.00000000000E+00 0. -1.
         23    2    1    2    0    0 -0.13273050377E+02  0.24847890909E+01  0.11364681096E+03  0.14820722776E+03  0.94167067900E+02 0.  0.
         11    1    3    3    0    0 -0.68950975089E+01  0.48269424067E+02  0.62411311509E+02  0.79200072435E+02  0.00000000000E+00 0.  1.
        -11    1    3    3    0    0 -0.63779528685E+01 -0.45784634976E+02  0.51235499451E+02  0.69007155329E+02  0.00000000000E+00 0. -1.
         22    1    1    2    0    0  0.13273050377E+02 -0.24847890909E+01  0.27721920071E+02  0.30835902704E+02  0.00000000000E+00 0. -1.
<mgrwt>
<rscale>  0 0.58391816E+02</rscale>
<asrwt>0</asrwt>
<pdfrwt beam="1">  1        4 0.28980308E-02 0.95130356E+02</pdfrwt>
<pdfrwt beam="2">  1       -4 0.24647065E-01 0.95130356E+02</pdfrwt>
<totfact> 0.12871615E+04</totfact>
</mgrwt>
</event>
<event>
 6    1  0.1661841E-002  0.9158688E+02  0.7546771E-02  0.1419914E+00
          2   -1    0    0  501    0  0.00000000000E+00  0.00000000000E+00  0.10878038495E+03  0.10878038495E+03  0.00000000000E+00 0. -1.
         -2   -1    0    0    0  501 -0.00000000000E+00 -0.00000000000E+00 -0.29231313624E+02  0.29231313624E+02  0.00000000000E+00 0.  1.
         23    2    1    2    0    0  0.45546015995E+01 -0.11042527375E+02  0.46183232054E+02  0.10257215799E+03  0.90804597157E+02 0.  0.
         11    1    3    3    0    0  0.22661545085E+02 -0.17569690807E+02  0.67808303434E+02  0.73622046123E+02  0.00000000000E+00 0. -1.
        -11    1    3    3    0    0 -0.18106943485E+02  0.65271634319E+01 -0.21625071380E+02  0.28950111866E+02  0.00000000000E+00 0.  1.
         22    1    1    2    0    0 -0.45546015995E+01  0.11042527375E+02  0.33365839273E+02  0.35439540586E+02  0.00000000000E+00 0. -1.
<mgrwt>
<rscale>  0 0.55039062E+02</rscale>
<asrwt>0</asrwt>
<pdfrwt beam="1">  1        2 0.16735444E-01 0.91586880E+02</pdfrwt>
<pdfrwt beam="2">  1       -2 0.44971252E-02 0.91586880E+02</pdfrwt>
<totfact> 0.67567466E+04</totfact>
</mgrwt>
</event>
<event>
 6    1  0.1661841E-002  0.9007360E+02  0.7546771E-02  0.1420485E+00
         -1   -1    0    0    0  501 -0.00000000000E+00  0.00000000000E+00  0.21695806571E+02  0.21695806571E+02  0.00000000000E+00 0.  1.
          1   -1    0    0  501    0  0.00000000000E+00 -0.00000000000E+00 -0.13948053708E+03  0.13948053708E+03  0.00000000000E+00 0. -1.
         23    2    1    2    0    0 -0.68255444292E+01  0.10409212821E+02 -0.76887950627E+02  0.11842723403E+03  0.89209377540E+02 0.  0.
         11    1    3    3    0    0 -0.31266307408E+02 -0.24539685599E+02 -0.13398493428E+02  0.41943983768E+02  0.00000000000E+00 0. -1.
        -11    1    3    3    0    0  0.24440762978E+02  0.34948898420E+02 -0.63489457199E+02  0.76483250266E+02  0.00000000000E+00 0.  1.
         22    1    1    2    0    0  0.68255444292E+01 -0.10409212821E+02 -0.40896779878E+02  0.42749109613E+02  0.00000000000E+00 0. -1.
<mgrwt>
<rscale>  0 0.54918478E+02</rscale>
<asrwt>0</asrwt>
<pdfrwt beam="1">  1        1 0.21458544E-01 0.90073597E+02</pdfrwt>
<pdfrwt beam="2">  1       -1 0.33378164E-02 0.90073597E+02</pdfrwt>
<totfact> 0.64359273E+04</totfact>
</mgrwt>
</event>
<event>
 6    1  0.1661841E-002  0.9263759E+02  0.7546771E-02  0.1402311E+00
         -2   -1    0    0    0  501 -0.00000000000E+00  0.00000000000E+00  0.14672957408E+02  0.14672957408E+02  0.00000000000E+00 0. -1.
          2   -1    0    0  501    0  0.00000000000E+00 -0.00000000000E+00 -0.43630161626E+03  0.43630161626E+03  0.00000000000E+00 0.  1.
         23    2    1    2    0    0  0.51794047015E+01  0.14275410121E+02 -0.42536507664E+03  0.43533569951E+03  0.91384403881E+02 0.  0.
         11    1    3    3    0    0 -0.56030672535E+01  0.49330270780E+02 -0.16222539857E+03  0.16965243859E+03  0.00000000000E+00 0. -1.
        -11    1    3    3    0    0  0.10782471955E+02 -0.35054860658E+02 -0.26313967807E+03  0.26568326092E+03  0.00000000000E+00 0.  1.
         22    1    1    2    0    0 -0.51794047015E+01 -0.14275410121E+02  0.37364177872E+01  0.15638874162E+02  0.00000000000E+00 0. -1.
<mgrwt>
<rscale>  0 0.58945552E+02</rscale>
<asrwt>0</asrwt>
<pdfrwt beam="1">  1        2 0.67123324E-01 0.92637589E+02</pdfrwt>
<pdfrwt beam="2">  1       -2 0.22573781E-02 0.92637589E+02</pdfrwt>
<totfact> 0.41595448E+04</totfact>
</mgrwt>
</event>
<event>
 6    1  0.1661841E-002  0.9162762E+02  0.7546771E-02  0.1419171E+00
         -2   -1    0    0    0  501 -0.00000000000E+00  0.00000000000E+00  0.11732872742E+02  0.11732872742E+02  0.00000000000E+00 0.  1.
          2   -1    0    0  501    0  0.00000000000E+00 -0.00000000000E+00 -0.23330229549E+03  0.23330229549E+03  0.00000000000E+00 0. -1.
         23    2    1    2    0    0  0.11629937787E+02 -0.32152455775E+01 -0.20492796427E+03  0.22447959971E+03  0.90829658636E+02 0.  0.
         11    1    3    3    0    0  0.33386803143E+02  0.24290961710E+02 -0.17015326883E+03  0.17509101730E+03  0.00000000000E+00 0. -1.
        -11    1    3    3    0    0 -0.21756865356E+02 -0.27506207288E+02 -0.34774695441E+02  0.49388582410E+02  0.00000000000E+00 0.  1.
         22    1    1    2    0    0 -0.11629937787E+02  0.32152455775E+01 -0.16641458472E+02  0.20555568518E+02  0.00000000000E+00 0.  1.
<mgrwt>
<rscale>  0 0.55196616E+02</rscale>
<asrwt>0</asrwt>
<pdfrwt beam="1">  1        2 0.35892663E-01 0.91627617E+02</pdfrwt>
<pdfrwt beam="2">  1       -2 0.18050572E-02 0.91627617E+02</pdfrwt>
<totfact> 0.11049857E+05</totfact>
</mgrwt>
</event>
<event>
 6    1  0.1661841E-002  0.9201215E+02  0.7546771E-02  0.1430002E+00
         -2   -1    0    0    0  501 -0.00000000000E+00  0.00000000000E+00  0.81340542899E+02  0.81340542899E+02  0.00000000000E+00 0.  1.
          2   -1    0    0  501    0  0.00000000000E+00 -0.00000000000E+00 -0.39070372277E+02  0.39070372277E+02  0.00000000000E+00 0. -1.
         23    2    1    2    0    0  0.83619464964E+01  0.56614740900E+01  0.52582932316E+02  0.10597736080E+03  0.91456338181E+02 0.  0.
         13    1    3    3    0    0  0.17421918023E+02 -0.33889070760E+02 -0.17744297296E+01  0.38146309722E+02  0.00000000000E+00 0. -1.
        -13    1    3    3    0    0 -0.90599715262E+01  0.39550544850E+02  0.54357362046E+02  0.67831051080E+02  0.00000000000E+00 0.  1.
         22    1    1    2    0    0 -0.83619464964E+01 -0.56614740900E+01 -0.10312761695E+02  0.14433554374E+02  0.00000000000E+00 0. -1.
<mgrwt>
<rscale>  0 0.52959675E+02</rscale>
<asrwt>0</asrwt>
<pdfrwt beam="1">  1        2 0.60108265E-02 0.92012153E+02</pdfrwt>
<pdfrwt beam="2">  1       -2 0.12513930E-01 0.92012153E+02</pdfrwt>
<totfact> 0.48991440E+04</totfact>
</mgrwt>
</event>
<event>
 6    1  0.1661841E-002  0.8834031E+02  0.7546771E-02  0.1418750E+00
         -2   -1    0    0    0  501 -0.00000000000E+00  0.00000000000E+00  0.65309017057E+02  0.65309017057E+02  0.00000000000E+00 0.  1.
          2   -1    0    0  501    0  0.00000000000E+00 -0.00000000000E+00 -0.45440566277E+02  0.45440566277E+02  0.00000000000E+00 0. -1.
         23    2    1    2    0    0  0.13471365456E+02  0.14733871829E+01  0.30571900015E+02  0.93480756432E+02  0.87294685952E+02 0.  0.
         11    1    3    3    0    0  0.13529219917E+02  0.15185347824E+02 -0.27279488977E+02  0.34026535218E+02  0.00000000000E+00 0. -1.
        -11    1    3    3    0    0 -0.57854461176E-01 -0.13711960641E+02  0.57851388993E+02  0.59454221214E+02  0.00000000000E+00 0.  1.
         22    1    1    2    0    0 -0.13471365456E+02 -0.14733871829E+01 -0.10703449235E+02  0.17268826901E+02  0.00000000000E+00 0.  1.
<mgrwt>
<rscale>  0 0.55286314E+02</rscale>
<asrwt>0</asrwt>
<pdfrwt beam="1">  1        2 0.69908563E-02 0.88340312E+02</pdfrwt>
<pdfrwt beam="2">  1       -2 0.10047541E-01 0.88340312E+02</pdfrwt>
<totfact> 0.56806892E+04</totfact>
</mgrwt>
</event>
<event>
 6    1  0.1661841E-002  0.7802599E+02  0.7546771E-02  0.1449916E+00
         -2   -1    0    0    0  501 -0.00000000000E+00  0.00000000000E+00  0.58095233136E+01  0.58095233136E+01  0.00000000000E+00 0.  1.
          2   -1    0    0  501    0  0.00000000000E+00 -0.00000000000E+00 -0.35289602092E+03  0.35289602092E+03  0.00000000000E+00 0. -1.
         23    2    1    2    0    0  0.11977505135E+02  0.27840327650E+01 -0.29030640333E+03  0.30060915387E+03  0.77050918917E+02 0.  0.
         11    1    3    3    0    0 -0.18717912290E+02  0.30205242217E+02 -0.10729100499E+03  0.11302246082E+03  0.00000000000E+00 0.  1.
        -11    1    3    3    0    0  0.30695417425E+02 -0.27421209452E+02 -0.18301539834E+03  0.18758669304E+03  0.00000000000E+00 0. -1.
         22    1    1    2    0    0 -0.11977505135E+02 -0.27840327650E+01 -0.56780094274E+02  0.58096390365E+02  0.00000000000E+00 0.  1.
<mgrwt>
<rscale>  0 0.49161777E+02</rscale>
<asrwt>0</asrwt>
<pdfrwt beam="1">  1        2 0.54291719E-01 0.78025993E+02</pdfrwt>
<pdfrwt beam="2">  1       -2 0.89377243E-03 0.78025993E+02</pdfrwt>
<totfact> 0.18937987E+05</totfact>
</mgrwt>
</event>
<event>
 6    1  0.1661841E-002  0.7460110E+02  0.7546771E-02  0.1459399E+00
          2   -1    0    0  501    0  0.00000000000E+00  0.00000000000E+00  0.29009487097E+03  0.29009487097E+03  0.00000000000E+00 0. -1.
         -2   -1    0    0    0  501 -0.00000000000E+00 -0.00000000000E+00 -0.66400187766E+01  0.66400187766E+01  0.00000000000E+00 0.  1.
         23    2    1    2    0    0  0.11766741670E+02  0.33920453203E+01  0.22617264047E+03  0.23815832480E+03  0.73589144536E+02 0.  0.
         13    1    3    3    0    0  0.24882279559E+02  0.27642043687E+02  0.67131937039E+02  0.76745732036E+02  0.00000000000E+00 0.  1.
        -13    1    3    3    0    0 -0.13115537889E+02 -0.24249998366E+02  0.15904070343E+03  0.16141259277E+03  0.00000000000E+00 0. -1.
         22    1    1    2    0    0 -0.11766741670E+02 -0.33920453203E+01  0.57282211719E+02  0.58576564942E+02  0.00000000000E+00 0. -1.
<mgrwt>
<rscale>  0 0.47485023E+02</rscale>
<asrwt>0</asrwt>
<pdfrwt beam="1">  1        2 0.44629970E-01 0.74601102E+02</pdfrwt>
<pdfrwt beam="2">  1       -2 0.10215416E-02 0.74601102E+02</pdfrwt>
<totfact> 0.19082240E+05</totfact>
</mgrwt>
</event>
<event>
 6    1  0.1661841E-002  0.9165631E+02  0.7546771E-02  0.1404401E+00
         -2   -1    0    0    0  501 -0.00000000000E+00  0.00000000000E+00  0.26855475320E+02  0.26855475320E+02  0.00000000000E+00 0.  1.
          2   -1    0    0  501    0  0.00000000000E+00 -0.00000000000E+00 -0.10639985019E+03  0.10639985019E+03  0.00000000000E+00 0. -1.
         23    2    1    2    0    0 -0.12110408874E+02  0.91375098489E+01 -0.70032002715E+02  0.11534886541E+03  0.90392053069E+02 0.  0.
         11    1    3    3    0    0  0.16220202134E+02  0.12024729608E+02  0.15336784132E+02  0.25355591631E+02  0.00000000000E+00 0.  1.
        -11    1    3    3    0    0 -0.28330611008E+02 -0.28872197595E+01 -0.85368786847E+02  0.89993273781E+02  0.00000000000E+00 0. -1.
         22    1    1    2    0    0  0.12110408874E+02 -0.91375098489E+01 -0.95123721576E+01  0.17906460102E+02  0.00000000000E+00 0.  1.
<mgrwt>
<rscale>  0 0.58462124E+02</rscale>
<asrwt>0</asrwt>
<pdfrwt beam="1">  1        2 0.16369208E-01 0.91656311E+02</pdfrwt>
<pdfrwt beam="2">  1       -2 0.41316116E-02 0.91656311E+02</pdfrwt>
<totfact> 0.78540122E+04</totfact>
</mgrwt>
</event>
<event>
 6    1  0.1661841E-002  0.1112175E+03  0.7546771E-02  0.1286553E+00
         -2   -1    0    0    0  501 -0.00000000000E+00  0.00000000000E+00  0.32376074676E+02  0.32376074676E+02  0.00000000000E+00 0.  1.
          2   -1    0    0  501    0  0.00000000000E+00 -0.00000000000E+00 -0.25629839924E+03  0.25629839924E+03  0.00000000000E+00 0. -1.
         23    2    1    2    0    0 -0.19456801835E+02  0.61571197183E+02 -0.10297393310E+03  0.15156833671E+03  0.90552472832E+02 0.  0.
         11    1    3    3    0    0  0.36338255681E+02  0.29302428029E+02 -0.40387442638E+02  0.61727195280E+02  0.00000000000E+00 0.  1.
        -11    1    3    3    0    0 -0.55795057516E+02  0.32268769154E+02 -0.62586490458E+02  0.89841141432E+02  0.00000000000E+00 0. -1.
         22    1    1    2    0    0  0.19456801835E+02 -0.61571197183E+02 -0.12094839146E+03  0.13710613720E+03  0.00000000000E+00 0.  1.
<mgrwt>
<rscale>  0 0.97082588E+02</rscale>
<asrwt>0</asrwt>
<pdfrwt beam="1">  1        2 0.39430522E-01 0.11121749E+03</pdfrwt>
<pdfrwt beam="2">  1       -2 0.49809347E-02 0.11121749E+03</pdfrwt>
<totfact> 0.23307750E+04</totfact>
</mgrwt>
</event>
<event>
 6    1  0.1661841E-002  0.9895531E+02  0.7546771E-02  0.1339801E+00
          4   -1    0    0  501    0  0.00000000000E+00  0.00000000000E+00  0.73605944785E+02  0.73605944785E+02  0.00000000000E+00 0.  1.
         -4   -1    0    0    0  501 -0.00000000000E+00 -0.00000000000E+00 -0.79242268012E+02  0.79242268012E+02  0.00000000000E+00 0. -1.
         23    2    1    2    0    0  0.26963293397E+02  0.22365400479E+02 -0.37178136760E+02  0.10570888388E+03  0.92546874338E+02 0.  0.
         11    1    3    3    0    0  0.19541101516E+01  0.26594199637E+02  0.26237097669E+02  0.37409294232E+02  0.00000000000E+00 0.  1.
        -11    1    3    3    0    0  0.25009183245E+02 -0.42287991580E+01 -0.63415234429E+02  0.68299589652E+02  0.00000000000E+00 0. -1.
         22    1    1    2    0    0 -0.26963293397E+02 -0.22365400479E+02  0.31541813533E+02  0.47139328913E+02  0.00000000000E+00 0.  1.
<mgrwt>
<rscale>  0 0.76329972E+02</rscale>
<asrwt>0</asrwt>
<pdfrwt beam="1">  1        4 0.11323992E-01 0.98955315E+02</pdfrwt>
<pdfrwt beam="2">  1       -4 0.12191118E-01 0.98955315E+02</pdfrwt>
<totfact> 0.49902823E+03</totfact>
</mgrwt>
</event>
<event>
 6    1  0.1661841E-002  0.9250232E+02  0.7546771E-02  0.1416433E+00
         -2   -1    0    0    0  501 -0.00000000000E+00  0.00000000000E+00  0.62520932340E+02  0.62520932340E+02  0.00000000000E+00 0.  1.
          2   -1    0    0  501    0  0.00000000000E+00 -0.00000000000E+00 -0.43863473057E+02  0.43863473057E+02  0.00000000000E+00 0. -1.
         23    2    1    2    0    0 -0.64315922605E+01  0.10406106505E+02  0.16488459636E+02  0.93960356497E+02  0.91689840551E+02 0.  0.
         11    1    3    3    0    0  0.41738162912E+02  0.14436320465E+02  0.78870766082E+01  0.44862986629E+02  0.00000000000E+00 0. -1.
        -11    1    3    3    0    0 -0.48169755173E+02 -0.40302139600E+01  0.86013830282E+01  0.49097369868E+02  0.00000000000E+00 0.  1.
         22    1    1    2    0    0  0.64315922605E+01 -0.10406106505E+02  0.21689996460E+01  0.12424048899E+02  0.00000000000E+00 0. -1.
<mgrwt>
<rscale>  0 0.55782753E+02</rscale>
<asrwt>0</asrwt>
<pdfrwt beam="1">  1        2 0.67482266E-02 0.92502320E+02</pdfrwt>
<pdfrwt beam="2">  1       -2 0.96186050E-02 0.92502320E+02</pdfrwt>
<totfact> 0.63983705E+04</totfact>
</mgrwt>
</event>
<event>
 6    1  0.1661841E-002  0.9411484E+02  0.7546771E-02  0.1392758E+00
         -1   -1    0    0    0  501 -0.00000000000E+00  0.00000000000E+00  0.11810211878E+02  0.11810211878E+02  0.00000000000E+00 0.  1.
          1   -1    0    0  501    0  0.00000000000E+00 -0.00000000000E+00 -0.28624357817E+03  0.28624357817E+03  0.00000000000E+00 0. -1.
         23    2    1    2    0    0  0.99421694599E+01 -0.13612367000E+02 -0.19092785354E+03  0.21286392018E+03  0.92592980220E+02 0.  0.
         11    1    3    3    0    0 -0.25395721076E+02 -0.69753925201E+01 -0.96404679289E+01  0.28045273606E+02  0.00000000000E+00 0. -1.
        -11    1    3    3    0    0  0.35337890536E+02 -0.66369744796E+01 -0.18128738561E+03  0.18481864657E+03  0.00000000000E+00 0.  1.
         22    1    1    2    0    0 -0.99421694599E+01  0.13612367000E+02 -0.83505512751E+02  0.85189869872E+02  0.00000000000E+00 0. -1.
<mgrwt>
<rscale>  0 0.61225981E+02</rscale>
<asrwt>0</asrwt>
<pdfrwt beam="1">  1        1 0.44037472E-01 0.94114841E+02</pdfrwt>
<pdfrwt beam="2">  1       -1 0.18169557E-02 0.94114841E+02</pdfrwt>
<totfact> 0.63966443E+04</totfact>
</mgrwt>
</event>
<event>
 6    1  0.1661841E-002  0.9266152E+02  0.7546771E-02  0.1397431E+00
          2   -1    0    0  501    0  0.00000000000E+00  0.00000000000E+00  0.71374238475E+02  0.71374238475E+02  0.00000000000E+00 0.  1.
         -2   -1    0    0    0  501 -0.00000000000E+00 -0.00000000000E+00 -0.11472223373E+03  0.11472223373E+03  0.00000000000E+00 0. -1.
         23    2    1    2    0    0  0.73232807237E+01 -0.14667018660E+02 -0.94519268617E+02  0.13236332513E+03  0.91199812621E+02 0.  0.
         11    1    3    3    0    0 -0.37006939552E+02 -0.14433294130E+02 -0.72950498905E+02  0.83063884119E+02  0.00000000000E+00 0. -1.
        -11    1    3    3    0    0  0.44330220276E+02 -0.23372452993E+00 -0.21568769712E+02  0.49299441009E+02  0.00000000000E+00 0.  1.
         22    1    1    2    0    0 -0.73232807237E+01  0.14667018660E+02  0.51171273364E+02  0.53733147076E+02  0.00000000000E+00 0.  1.
<mgrwt>
<rscale>  0 0.60095716E+02</rscale>
<asrwt>0</asrwt>
<pdfrwt beam="1">  1        2 0.10980652E-01 0.92661522E+02</pdfrwt>
<pdfrwt beam="2">  1       -2 0.17649574E-01 0.92661522E+02</pdfrwt>
<totfact> 0.13335165E+04</totfact>
</mgrwt>
</event>
<event>
 6    1  0.1661841E-002  0.1614847E+03  0.7546771E-02  0.1195492E+00
          2   -1    0    0  501    0  0.00000000000E+00  0.00000000000E+00  0.34389321851E+03  0.34389321851E+03  0.00000000000E+00 0. -1.
         -2   -1    0    0    0  501 -0.00000000000E+00 -0.00000000000E+00 -0.68507054499E+02  0.68507054499E+02  0.00000000000E+00 0.  1.
         23    2    1    2    0    0  0.25140409481E+02  0.13162395051E+03  0.93892517149E+02  0.18679697430E+03  0.90113263703E+02 0.  0.
         13    1    3    3    0    0  0.52714500443E+02  0.66223491665E+02  0.75631217287E+02  0.11350969313E+03  0.00000000000E+00 0. -1.
        -13    1    3    3    0    0 -0.27574090963E+02  0.65400458843E+02  0.18261299862E+02  0.73287281175E+02  0.00000000000E+00 0.  1.
         22    1    1    2    0    0 -0.25140409481E+02 -0.13162395051E+03  0.18149364687E+03  0.22560329871E+03  0.00000000000E+00 0. -1.
<mgrwt>
<rscale>  0 0.15412655E+03</rscale>
<asrwt>0</asrwt>
<pdfrwt beam="1">  1        2 0.52906648E-01 0.16148469E+03</pdfrwt>
<pdfrwt beam="2">  1       -2 0.10539547E-01 0.16148469E+03</pdfrwt>
<totfact> 0.55610329E+03</totfact>
</mgrwt>
</event>
<event>
 6    1  0.1661841E-002  0.9452231E+02  0.7546771E-02  0.1367257E+00
          4   -1    0    0  501    0  0.00000000000E+00  0.00000000000E+00  0.27194177457E+02  0.27194177457E+02  0.00000000000E+00 0. -1.
         -4   -1    0    0    0  501 -0.00000000000E+00 -0.00000000000E+00 -0.16900518399E+03  0.16900518399E+03  0.00000000000E+00 0.  1.
         23    2    1    2    0    0  0.17033539186E+02  0.18601918992E+02 -0.14246315173E+03  0.17096846490E+03  0.91094969900E+02 0.  0.
         11    1    3    3    0    0 -0.52951729631E+00  0.49772644898E+02 -0.44834757875E+02  0.66990686535E+02  0.00000000000E+00 0. -1.
        -11    1    3    3    0    0  0.17563056482E+02 -0.31170725906E+02 -0.97628393853E+02  0.10397777836E+03  0.00000000000E+00 0.  1.
         22    1    1    2    0    0 -0.17033539186E+02 -0.18601918992E+02  0.65214519639E+00  0.25230896550E+02  0.00000000000E+00 0. -1.
<mgrwt>
<rscale>  0 0.67935633E+02</rscale>
<asrwt>0</asrwt>
<pdfrwt beam="1">  1        4 0.41837196E-02 0.94522306E+02</pdfrwt>
<pdfrwt beam="2">  1       -4 0.26000798E-01 0.94522306E+02</pdfrwt>
<totfact> 0.65556052E+03</totfact>
</mgrwt>
</event>
<event>
 6    1  0.1661841E-002  0.9669487E+02  0.7546771E-02  0.1415385E+00
          2   -1    0    0  501    0  0.00000000000E+00  0.00000000000E+00  0.59628872412E+01  0.59628872412E+01  0.00000000000E+00 0. -1.
         -2   -1    0    0    0  501 -0.00000000000E+00 -0.00000000000E+00 -0.65317507402E+03  0.65317507402E+03  0.00000000000E+00 0.  1.
         23    2    1    2    0    0 -0.10385213847E+02 -0.32608779453E+01 -0.63671653491E+03  0.64401695931E+03  0.96080237671E+02 0.  0.
         11    1    3    3    0    0  0.15082200653E+02 -0.16251185966E+02 -0.58073274166E+03  0.58115582339E+03  0.00000000000E+00 0.  1.
        -11    1    3    3    0    0 -0.25467414500E+02  0.12990308021E+02 -0.55983793247E+02  0.62861135928E+02  0.00000000000E+00 0. -1.
         22    1    1    2    0    0  0.10385213847E+02  0.32608779453E+01 -0.10495651873E+02  0.15121001947E+02  0.00000000000E+00 0. -1.
<mgrwt>
<rscale>  0 0.56009404E+02</rscale>
<asrwt>0</asrwt>
<pdfrwt beam="1">  1        2 0.91736761E-03 0.96694871E+02</pdfrwt>
<pdfrwt beam="2">  1       -2 0.10048844E+00 0.96694871E+02</pdfrwt>
<totfact> 0.12323224E+04</totfact>
</mgrwt>
</event>
<event>
 6    1  0.1661841E-002  0.8729435E+02  0.7546771E-02  0.1397658E+00
         -2   -1    0    0    0  501 -0.00000000000E+00  0.00000000000E+00  0.84529714615E+02  0.84529714615E+02  0.00000000000E+00 0.  1.
          2   -1    0    0  501    0  0.00000000000E+00 -0.00000000000E+00 -0.33962741203E+02  0.33962741203E+02  0.00000000000E+00 0. -1.
         23    2    1    2    0    0 -0.13395123287E+02  0.14221256319E+02  0.44820476876E+02  0.98128377601E+02  0.85080138012E+02 0.  0.
         11    1    3    3    0    0 -0.30774053967E+02  0.14205667467E+02  0.63892227874E+02  0.72326068388E+02  0.00000000000E+00 0.  1.
        -11    1    3    3    0    0  0.17378930680E+02  0.15588852473E-01 -0.19071750998E+02  0.25802309213E+02  0.00000000000E+00 0. -1.
         22    1    1    2    0    0  0.13395123287E+02 -0.14221256319E+02  0.57464965368E+01  0.20364078217E+02  0.00000000000E+00 0. -1.
<mgrwt>
<rscale>  0 0.60041439E+02</rscale>
<asrwt>0</asrwt>
<pdfrwt beam="1">  1        2 0.52250371E-02 0.87294349E+02</pdfrwt>
<pdfrwt beam="2">  1       -2 0.13004572E-01 0.87294349E+02</pdfrwt>
<totfact> 0.54701210E+04</totfact>
</mgrwt>
</event>
<event>
 6    1  0.1661841E-002  0.1172784E+03  0.7546771E-02  0.1270698E+00
          2   -1    0    0  501    0  0.00000000000E+00  0.00000000000E+00  0.49395709485E+02  0.49395709485E+02  0.00000000000E+00 0. -1.
         -2   -1    0    0    0  501 -0.00000000000E+00 -0.00000000000E+00 -0.42722680548E+03  0.42722680548E+03  0.00000000000E+00 0.  1.
         23    2    1    2    0    0  0.41404532310E+02  0.61953412906E+02 -0.38432864702E+03  0.40182426074E+03  0.90563055001E+02 0.  0.
         13    1    3    3    0    0  0.37289421784E+02  0.61298874610E+02 -0.13869174470E+03  0.15615201905E+03  0.00000000000E+00 0. -1.
        -13    1    3    3    0    0  0.41151105263E+01  0.65453829567E+00 -0.24563690231E+03  0.24567224168E+03  0.00000000000E+00 0.  1.
         22    1    1    2    0    0 -0.41404532310E+02 -0.61953412906E+02  0.64975510225E+01  0.74798254230E+02  0.00000000000E+00 0. -1.
<mgrwt>
<rscale>  0 0.10470689E+03</rscale>
<asrwt>0</asrwt>
<pdfrwt beam="1">  1        2 0.75993402E-02 0.11727842E+03</pdfrwt>
<pdfrwt beam="2">  1       -2 0.65727199E-01 0.11727842E+03</pdfrwt>
<totfact> 0.18971683E+03</totfact>
</mgrwt>
</event>
<event>
 6    1  0.1661841E-002  0.8591328E+02  0.7546771E-02  0.1399929E+00
         -2   -1    0    0    0  501 -0.00000000000E+00  0.00000000000E+00  0.96431274022E+01  0.96431274022E+01  0.00000000000E+00 0.  1.
          2   -1    0    0  501    0  0.00000000000E+00 -0.00000000000E+00 -0.34031001924E+03  0.34031001924E+03  0.00000000000E+00 0. -1.
         23    2    1    2    0    0  0.14241213681E+02 -0.13710644252E+02 -0.30855691451E+03  0.32029433631E+03  0.83608004687E+02 0.  0.
         11    1    3    3    0    0  0.16355915679E+02 -0.35208026948E+02 -0.28756418201E+03  0.29017284489E+03  0.00000000000E+00 0. -1.
        -11    1    3    3    0    0 -0.21147019989E+01  0.21497382696E+02 -0.20992732502E+02  0.30121491418E+02  0.00000000000E+00 0.  1.
         22    1    1    2    0    0 -0.14241213681E+02  0.13710644252E+02 -0.22109977330E+02  0.29658810335E+02  0.00000000000E+00 0.  1.
<mgrwt>
<rscale>  0 0.59502980E+02</rscale>
<asrwt>0</asrwt>
<pdfrwt beam="1">  1        2 0.52355393E-01 0.85913284E+02</pdfrwt>
<pdfrwt beam="2">  1       -2 0.14835579E-02 0.85913284E+02</pdfrwt>
<totfact> 0.97532529E+04</totfact>
</mgrwt>
</event>
<event>
 6    1  0.1661841E-002  0.9513274E+02  0.7546771E-02  0.1363381E+00
          2   -1    0    0  501    0  0.00000000000E+00  0.00000000000E+00  0.27714633099E+02  0.27714633099E+02  0.00000000000E+00 0. -1.
         -2   -1    0    0    0  501 -0.00000000000E+00 -0.00000000000E+00 -0.13485978510E+03  0.13485978510E+03  0.00000000000E+00 0.  1.
         23    2    1    2    0    0 -0.85517735235E+01  0.24967878861E+02 -0.90927007518E+02  0.13159771702E+03  0.91398635792E+02 0.  0.
         13    1    3    3    0    0 -0.35731194243E+02  0.15715741877E+02 -0.94898792899E+02  0.10261327243E+03  0.00000000000E+00 0.  1.
        -13    1    3    3    0    0  0.27179420719E+02  0.92521369843E+01  0.39717853813E+01  0.28984444596E+02  0.00000000000E+00 0. -1.
         22    1    1    2    0    0  0.85517735235E+01 -0.24967878861E+02 -0.16218144485E+02  0.30976701177E+02  0.00000000000E+00 0.  1.
<mgrwt>
<rscale>  0 0.69042231E+02</rscale>
<asrwt>0</asrwt>
<pdfrwt beam="1">  1        2 0.42637897E-02 0.95132741E+02</pdfrwt>
<pdfrwt beam="2">  1       -2 0.20747659E-01 0.95132741E+02</pdfrwt>
<totfact> 0.33545331E+04</totfact>
</mgrwt>
</event>
<event>
 6    1  0.1661841E-002  0.9224262E+02  0.7546771E-02  0.1416175E+00
          2   -1    0    0  501    0  0.00000000000E+00  0.00000000000E+00  0.52650309529E+02  0.52650309529E+02  0.00000000000E+00 0. -1.
         -2   -1    0    0    0  501 -0.00000000000E+00 -0.00000000000E+00 -0.13341381466E+03  0.13341381466E+03  0.00000000000E+00 0.  1.
         23    2    1    2    0    0 -0.53424443258E+01 -0.11174801675E+02 -0.11629481118E+03  0.14843578894E+03  0.91407233991E+02 0.  0.
         11    1    3    3    0    0 -0.26207833358E+02  0.27620667635E+02 -0.88515928181E+02  0.96357777847E+02  0.00000000000E+00 0. -1.
        -11    1    3    3    0    0  0.20865389032E+02 -0.38795469310E+02 -0.27778883004E+02  0.52078011093E+02  0.00000000000E+00 0.  1.
         22    1    1    2    0    0  0.53424443258E+01  0.11174801675E+02  0.35531306053E+02  0.37628335250E+02  0.00000000000E+00 0. -1.
<mgrwt>
<rscale>  0 0.55838432E+02</rscale>
<asrwt>0</asrwt>
<pdfrwt beam="1">  1        2 0.81000477E-02 0.92242617E+02</pdfrwt>
<pdfrwt beam="2">  1       -2 0.20525202E-01 0.92242617E+02</pdfrwt>
<totfact> 0.15024523E+04</totfact>
</mgrwt>
</event>
<event>
 6    1  0.1661841E-002  0.8175072E+02  0.7546771E-02  0.1440811E+00
         -2   -1    0    0    0  501 -0.00000000000E+00  0.00000000000E+00  0.25225949020E+03  0.25225949020E+03  0.00000000000E+00 0. -1.
          2   -1    0    0  501    0  0.00000000000E+00 -0.00000000000E+00 -0.14644395530E+02  0.14644395530E+02  0.00000000000E+00 0.  1.
         23    2    1    2    0    0  0.11214112725E+02 -0.48982184359E+01  0.24076688454E+03  0.25426732578E+03  0.80829644302E+02 0.  0.
         11    1    3    3    0    0 -0.14159730122E+02 -0.19741098236E+02  0.19764432128E+02  0.31318392265E+02  0.00000000000E+00 0.  1.
        -11    1    3    3    0    0  0.25373842848E+02  0.14842879800E+02  0.22100245241E+03  0.22294893351E+03  0.00000000000E+00 0. -1.
         22    1    1    2    0    0 -0.11214112725E+02  0.48982184359E+01 -0.31517898708E+01  0.12636559953E+02  0.00000000000E+00 0.  1.
<mgrwt>
<rscale>  0 0.50849787E+02</rscale>
<asrwt>0</asrwt>
<pdfrwt beam="1">  1        2 0.22529841E-02 0.81750720E+02</pdfrwt>
<pdfrwt beam="2">  1       -2 0.38809149E-01 0.81750720E+02</pdfrwt>
<totfact> 0.25270562E+04</totfact>
</mgrwt>
</event>
<event>
 6    1  0.1661841E-002  0.9122924E+02  0.7546771E-02  0.1414757E+00
         -2   -1    0    0    0  501 -0.00000000000E+00  0.00000000000E+00  0.15330858604E+02  0.15330858604E+02  0.00000000000E+00 0.  1.
          2   -1    0    0  501    0  0.00000000000E+00 -0.00000000000E+00 -0.17759438036E+03  0.17759438036E+03  0.00000000000E+00 0. -1.
         23    2    1    2    0    0 -0.12475429113E+02 -0.39561549166E+01 -0.14366198626E+03  0.17018090745E+03  0.90285588386E+02 0.  0.
         11    1    3    3    0    0 -0.14592333400E+02  0.19146570333E+02  0.58474393101E+00  0.24080474975E+02  0.00000000000E+00 0.  1.
        -11    1    3    3    0    0  0.21169042871E+01 -0.23102725249E+02 -0.14424673019E+03  0.14610043247E+03  0.00000000000E+00 0. -1.
         22    1    1    2    0    0  0.12475429113E+02  0.39561549166E+01 -0.18601535493E+02  0.22744331513E+02  0.00000000000E+00 0.  1.
<mgrwt>
<rscale>  0 0.56145669E+02</rscale>
<asrwt>0</asrwt>
<pdfrwt beam="1">  1        2 0.27322214E-01 0.91229244E+02</pdfrwt>
<pdfrwt beam="2">  1       -2 0.23585935E-02 0.91229244E+02</pdfrwt>
<totfact> 0.10054869E+05</totfact>
</mgrwt>
</event>
<event>
 6    1  0.1661841E-002  0.1111688E+03  0.7546771E-02  0.1300108E+00
         -2   -1    0    0    0  501 -0.00000000000E+00  0.00000000000E+00  0.13698135243E+02  0.13698135243E+02  0.00000000000E+00 0.  1.
          2   -1    0    0  501    0  0.00000000000E+00 -0.00000000000E+00 -0.51393748090E+03  0.51393748090E+03  0.00000000000E+00 0. -1.
         23    2    1    2    0    0 -0.25282005944E+02 -0.43400591269E+02 -0.27017735141E+03  0.29215459283E+03  0.99175166979E+02 0.  0.
         11    1    3    3    0    0 -0.48971273148E+02 -0.58890631765E+02 -0.14688121414E+03  0.16565139049E+03  0.00000000000E+00 0. -1.
        -11    1    3    3    0    0  0.23689267204E+02  0.15490040496E+02 -0.12329613727E+03  0.12650320234E+03  0.00000000000E+00 0.  1.
         22    1    1    2    0    0  0.25282005944E+02  0.43400591269E+02 -0.23006199425E+03  0.23548102332E+03  0.00000000000E+00 0.  1.
<mgrwt>
<rscale>  0 0.91142804E+02</rscale>
<asrwt>0</asrwt>
<pdfrwt beam="1">  1        2 0.79067310E-01 0.11116881E+03</pdfrwt>
<pdfrwt beam="2">  1       -2 0.21074053E-02 0.11116881E+03</pdfrwt>
<totfact> 0.39326051E+04</totfact>
</mgrwt>
</event>
<event>
 6    1  0.1661841E-002  0.9141729E+02  0.7546771E-02  0.1416702E+00
         -2   -1    0    0    0  501 -0.00000000000E+00  0.00000000000E+00  0.13911679829E+03  0.13911679829E+03  0.00000000000E+00 0.  1.
          2   -1    0    0  501    0  0.00000000000E+00 -0.00000000000E+00 -0.21365669184E+02  0.21365669184E+02  0.00000000000E+00 0. -1.
         23    2    1    2    0    0  0.89644460560E+01 -0.88848634709E+01  0.11607285219E+03  0.14774988308E+03  0.90541807143E+02 0.  0.
         13    1    3    3    0    0 -0.29244158075E+01 -0.36264559247E+01 -0.15167718592E+02  0.15867043759E+02  0.00000000000E+00 0. -1.
        -13    1    3    3    0    0  0.11888861864E+02 -0.52584075463E+01  0.13124057078E+03  0.13188283932E+03  0.00000000000E+00 0.  1.
         22    1    1    2    0    0 -0.89644460560E+01  0.88848634709E+01  0.16782769100E+01  0.12732584395E+02  0.00000000000E+00 0.  1.
<mgrwt>
<rscale>  0 0.55724854E+02</rscale>
<asrwt>0</asrwt>
<pdfrwt beam="1">  1        2 0.32870261E-02 0.91417290E+02</pdfrwt>
<pdfrwt beam="2">  1       -2 0.21402584E-01 0.91417290E+02</pdfrwt>
<totfact> 0.44558785E+04</totfact>
</mgrwt>
</event>
<event>
 6    1  0.1661841E-002  0.9381810E+02  0.7546771E-02  0.1371882E+00
          4   -1    0    0  501    0  0.00000000000E+00  0.00000000000E+00  0.59128576115E+01  0.59128576115E+01  0.00000000000E+00 0. -1.
         -4   -1    0    0    0  501 -0.00000000000E+00 -0.00000000000E+00 -0.58600151656E+03  0.58600151656E+03  0.00000000000E+00 0.  1.
         23    2    1    2    0    0  0.88691425683E-01  0.23892087534E+02 -0.46636295360E+03  0.47570604500E+03  0.90724842471E+02 0.  0.
         11    1    3    3    0    0 -0.26203353149E+02 -0.25962996648E+02 -0.15951745455E+03  0.16372694102E+03  0.00000000000E+00 0.  1.
        -11    1    3    3    0    0  0.26292044575E+02  0.49855084183E+02 -0.30684549906E+03  0.31197910398E+03  0.00000000000E+00 0. -1.
         22    1    1    2    0    0 -0.88691425683E-01 -0.23892087534E+02 -0.11372570534E+03  0.11620832917E+03  0.00000000000E+00 0.  1.
<mgrwt>
<rscale>  0 0.66646794E+02</rscale>
<asrwt>0</asrwt>
<pdfrwt beam="1">  1        4 0.90967031E-03 0.93818105E+02</pdfrwt>
<pdfrwt beam="2">  1       -4 0.90154088E-01 0.93818105E+02</pdfrwt>
<totfact> 0.54732769E+03</totfact>
</mgrwt>
</event>
<event>
 6    1  0.1661841E-002  0.8744384E+02  0.7546771E-02  0.1431318E+00
          4   -1    0    0  501    0  0.00000000000E+00  0.00000000000E+00  0.30820266779E+02  0.30820266779E+02  0.00000000000E+00 0. -1.
         -4   -1    0    0    0  501 -0.00000000000E+00 -0.00000000000E+00 -0.18067191286E+03  0.18067191286E+03  0.00000000000E+00 0.  1.
         23    2    1    2    0    0  0.84029847217E+01 -0.78991609717E+01 -0.16834295283E+03  0.18969916880E+03  0.86679974509E+02 0.  0.
         13    1    3    3    0    0  0.19868058880E+02  0.55494602423E+01 -0.17063621948E+03  0.17187860736E+03  0.00000000000E+00 0.  1.
        -13    1    3    3    0    0 -0.11465074159E+02 -0.13448621214E+02  0.22932666473E+01  0.17820561437E+02  0.00000000000E+00 0. -1.
         22    1    1    2    0    0 -0.84029847217E+01  0.78991609717E+01  0.18491306745E+02  0.21793010839E+02  0.00000000000E+00 0. -1.
<mgrwt>
<rscale>  0 0.52696428E+02</rscale>
<asrwt>0</asrwt>
<pdfrwt beam="1">  1        4 0.47415794E-02 0.87443838E+02</pdfrwt>
<pdfrwt beam="2">  1       -4 0.27795679E-01 0.87443838E+02</pdfrwt>
<totfact> 0.46485577E+03</totfact>
</mgrwt>
</event>
<event>
 6    1  0.1661841E-002  0.9275206E+02  0.7546771E-02  0.1408855E+00
          2   -1    0    0  501    0  0.00000000000E+00  0.00000000000E+00  0.25240323033E+03  0.25240323033E+03  0.00000000000E+00 0. -1.
         -2   -1    0    0    0  501 -0.00000000000E+00 -0.00000000000E+00 -0.12132567349E+02  0.12132567349E+02  0.00000000000E+00 0.  1.
         23    2    1    2    0    0 -0.13559414295E+02  0.15872050773E+01  0.17722669598E+03  0.20003061408E+03  0.91741854487E+02 0.  0.
         13    1    3    3    0    0  0.22497289928E+02 -0.34460860462E+02  0.90687939826E+02  0.99589062591E+02  0.00000000000E+00 0.  1.
        -13    1    3    3    0    0 -0.36056704223E+02  0.36048065540E+02  0.86538756153E+02  0.10044155149E+03  0.00000000000E+00 0. -1.
         22    1    1    2    0    0  0.13559414295E+02 -0.15872050773E+01  0.63043967000E+02  0.64505183598E+02  0.00000000000E+00 0.  1.
<mgrwt>
<rscale>  0 0.57450220E+02</rscale>
<asrwt>0</asrwt>
<pdfrwt beam="1">  1        2 0.38831262E-01 0.92752061E+02</pdfrwt>
<pdfrwt beam="2">  1       -2 0.18665490E-02 0.92752061E+02</pdfrwt>
<totfact> 0.97113256E+04</totfact>
</mgrwt>
</event>
<event>
 6    1  0.1661841E-002  0.9263211E+02  0.7546771E-02  0.1402727E+00
         -2   -1    0    0    0  501 -0.00000000000E+00  0.00000000000E+00  0.97128639294E+01  0.97128639294E+01  0.00000000000E+00 0.  1.
          2   -1    0    0  501    0  0.00000000000E+00 -0.00000000000E+00 -0.30008609507E+03  0.30008609507E+03  0.00000000000E+00 0. -1.
         23    2    1    2    0    0 -0.11690478930E+02 -0.95402386986E+01 -0.25660384244E+03  0.27281173059E+03  0.91394884659E+02 0.  0.
         13    1    3    3    0    0  0.15333928165E+02 -0.29666441590E+02 -0.22205446249E+03  0.22455157854E+03  0.00000000000E+00 0. -1.
        -13    1    3    3    0    0 -0.27024407096E+02  0.20126202892E+02 -0.34549379941E+02  0.48260152052E+02  0.00000000000E+00 0.  1.
         22    1    1    2    0    0  0.11690478930E+02  0.95402386986E+01 -0.33769388707E+02  0.36987228413E+02  0.00000000000E+00 0.  1.
<mgrwt>
<rscale>  0 0.58848800E+02</rscale>
<asrwt>0</asrwt>
<pdfrwt beam="1">  1        2 0.46167094E-01 0.92632113E+02</pdfrwt>
<pdfrwt beam="2">  1       -2 0.14942867E-02 0.92632113E+02</pdfrwt>
<totfact> 0.11135651E+05</totfact>
</mgrwt>
</event>
<event>
 6    1  0.1661841E-002  0.9127554E+02  0.7546771E-02  0.1388319E+00
         -4   -1    0    0    0  501 -0.00000000000E+00  0.00000000000E+00  0.45483854369E+02  0.45483854369E+02  0.00000000000E+00 0.  1.
          4   -1    0    0  501    0  0.00000000000E+00 -0.00000000000E+00 -0.68263353098E+02  0.68263353098E+02  0.00000000000E+00 0. -1.
         23    2    1    2    0    0 -0.11751445183E+02 -0.15990696994E+02 -0.15347766777E+02  0.92556891422E+02  0.89092229462E+02 0.  0.
         13    1    3    3    0    0 -0.45251204543E+02 -0.80508918150E+00 -0.28512508449E+02  0.53490960164E+02  0.00000000000E+00 0. -1.
        -13    1    3    3    0    0  0.33499759360E+02 -0.15185607813E+02  0.13164741672E+02  0.39065931258E+02  0.00000000000E+00 0.  1.
         22    1    1    2    0    0  0.11751445183E+02  0.15990696994E+02 -0.74317319518E+01  0.21190316045E+02  0.00000000000E+00 0. -1.
<mgrwt>
<rscale>  0 0.62326841E+02</rscale>
<asrwt>0</asrwt>
<pdfrwt beam="1">  1        4 0.10502054E-01 0.91275540E+02</pdfrwt>
<pdfrwt beam="2">  1       -4 0.69975160E-02 0.91275540E+02</pdfrwt>
<totfact> 0.13928342E+04</totfact>
</mgrwt>
</event>
<event>
 6    1  0.1661841E-002  0.9987039E+02  0.7546771E-02  0.1349967E+00
          2   -1    0    0  501    0  0.00000000000E+00  0.00000000000E+00  0.84956639777E+02  0.84956639777E+02  0.00000000000E+00 0. -1.
         -2   -1    0    0    0  501 -0.00000000000E+00 -0.00000000000E+00 -0.54875154289E+02  0.54875154289E+02  0.00000000000E+00 0.  1.
         23    2    1    2    0    0  0.27724106711E+02  0.70720844325E+01  0.22192675596E+01  0.99895048342E+02  0.95684142174E+02 0.  0.
         13    1    3    3    0    0  0.58870374426E+02  0.15303576297E+01 -0.18910586516E+02  0.61852027145E+02  0.00000000000E+00 0.  1.
        -13    1    3    3    0    0 -0.31146267715E+02  0.55417268028E+01  0.21129854076E+02  0.38043021197E+02  0.00000000000E+00 0. -1.
         22    1    1    2    0    0 -0.27724106711E+02 -0.70720844325E+01  0.27862217928E+02  0.39936745724E+02  0.00000000000E+00 0. -1.
<mgrwt>
<rscale>  0 0.73065813E+02</rscale>
<asrwt>0</asrwt>
<pdfrwt beam="1">  1        2 0.13070252E-01 0.99870394E+02</pdfrwt>
<pdfrwt beam="2">  1       -2 0.84423314E-02 0.99870394E+02</pdfrwt>
<totfact> 0.35270171E+04</totfact>
</mgrwt>
</event>
<event>
 6    1  0.1661841E-002  0.9053103E+02  0.7546771E-02  0.1423503E+00
          2   -1    0    0  501    0  0.00000000000E+00  0.00000000000E+00  0.55771165448E+01  0.55771165448E+01  0.00000000000E+00 0.  1.
         -2   -1    0    0    0  501 -0.00000000000E+00 -0.00000000000E+00 -0.47506477096E+03  0.47506477096E+03  0.00000000000E+00 0. -1.
         23    2    1    2    0    0  0.10662153459E+02 -0.48300839712E+01 -0.43137224176E+03  0.44076964265E+03  0.89771129530E+02 0.  0.
         11    1    3    3    0    0  0.63280506542E+01  0.27137093609E-01  0.25325166986E+01  0.68160547484E+01  0.00000000000E+00 0.  1.
        -11    1    3    3    0    0  0.43341028047E+01 -0.48572210648E+01 -0.43390475846E+03  0.43395358790E+03  0.00000000000E+00 0. -1.
         22    1    1    2    0    0 -0.10662153459E+02  0.48300839712E+01 -0.38115412661E+02  0.39872244856E+02  0.00000000000E+00 0.  1.
<mgrwt>
<rscale>  0 0.54286596E+02</rscale>
<asrwt>0</asrwt>
<pdfrwt beam="1">  1        2 0.85801777E-03 0.90531027E+02</pdfrwt>
<pdfrwt beam="2">  1       -2 0.73086901E-01 0.90531027E+02</pdfrwt>
<totfact> 0.27018708E+04</totfact>
</mgrwt>
</event>
<event>
 6    1  0.1661841E-002  0.9357359E+02  0.7546771E-02  0.1373951E+00
         -2   -1    0    0    0  501 -0.00000000000E+00  0.00000000000E+00  0.16260797246E+02  0.16260797246E+02  0.00000000000E+00 0.  1.
          2   -1    0    0  501    0  0.00000000000E+00 -0.00000000000E+00 -0.27749970547E+03  0.27749970547E+03  0.00000000000E+00 0. -1.
         23    2    1    2    0    0  0.95959961626E+01 -0.21202078878E+02 -0.12829109457E+03  0.15879112676E+03  0.90633358649E+02 0.  0.
         11    1    3    3    0    0  0.40591974340E+02 -0.39166402423E+02 -0.91119036291E+02  0.10716526599E+03  0.00000000000E+00 0. -1.
        -11    1    3    3    0    0 -0.30995978178E+02  0.17964323544E+02 -0.37172058276E+02  0.51625860768E+02  0.00000000000E+00 0.  1.
         22    1    1    2    0    0 -0.95959961626E+01  0.21202078878E+02 -0.13294781365E+03  0.13496937596E+03  0.00000000000E+00 0.  1.
<mgrwt>
<rscale>  0 0.66080898E+02</rscale>
<asrwt>0</asrwt>
<pdfrwt beam="1">  1        2 0.42692262E-01 0.93573591E+02</pdfrwt>
<pdfrwt beam="2">  1       -2 0.25016611E-02 0.93573591E+02</pdfrwt>
<totfact> 0.57735463E+04</totfact>
</mgrwt>
</event>
<event>
 6    1  0.1661841E-002  0.9151804E+02  0.7546771E-02  0.1384563E+00
         -1   -1    0    0    0  501 -0.00000000000E+00  0.00000000000E+00  0.15181454503E+03  0.15181454503E+03  0.00000000000E+00 0.  1.
          1   -1    0    0  501    0  0.00000000000E+00 -0.00000000000E+00 -0.27449157352E+02  0.27449157352E+02  0.00000000000E+00 0. -1.
         23    2    1    2    0    0  0.16598958669E+02 -0.12730128446E+02  0.12867959856E+03  0.15790500357E+03  0.89095283092E+02 0.  0.
         13    1    3    3    0    0  0.95470246065E+01 -0.86980514844E+01 -0.11618374683E+02  0.17372058276E+02  0.00000000000E+00 0. -1.
        -13    1    3    3    0    0  0.70519340630E+01 -0.40320769614E+01  0.14029797324E+03  0.14053294530E+03  0.00000000000E+00 0.  1.
         22    1    1    2    0    0 -0.16598958669E+02  0.12730128446E+02 -0.43142108822E+01  0.21358698806E+02  0.00000000000E+00 0. -1.
<mgrwt>
<rscale>  0 0.63279407E+02</rscale>
<asrwt>0</asrwt>
<pdfrwt beam="1">  1        1 0.42229474E-02 0.91518037E+02</pdfrwt>
<pdfrwt beam="2">  1       -1 0.23356083E-01 0.91518037E+02</pdfrwt>
<totfact> 0.28790797E+04</totfact>
</mgrwt>
</event>
<event>
 6    1  0.1661841E-002  0.9203213E+02  0.7546771E-02  0.1415173E+00
          2   -1    0    0  501    0  0.00000000000E+00  0.00000000000E+00  0.12639709323E+02  0.12639709323E+02  0.00000000000E+00 0. -1.
         -2   -1    0    0    0  501 -0.00000000000E+00 -0.00000000000E+00 -0.21934566789E+03  0.21934566789E+03  0.00000000000E+00 0.  1.
         23    2    1    2    0    0 -0.11289671809E+02 -0.57425085434E+01 -0.18898836822E+03  0.21020588912E+03  0.91156345931E+02 0.  0.
         11    1    3    3    0    0 -0.10415464928E+02 -0.14765060864E+01  0.79709671248E+01  0.13198420238E+02  0.00000000000E+00 0. -1.
        -11    1    3    3    0    0 -0.87420688100E+00 -0.42660024570E+01 -0.19695933535E+03  0.19700746888E+03  0.00000000000E+00 0.  1.
         22    1    1    2    0    0  0.11289671809E+02  0.57425085434E+01 -0.17717590342E+02  0.21779488089E+02  0.00000000000E+00 0. -1.
<mgrwt>
<rscale>  0 0.56055256E+02</rscale>
<asrwt>0</asrwt>
<pdfrwt beam="1">  1        2 0.19445708E-02 0.92032128E+02</pdfrwt>
<pdfrwt beam="2">  1       -2 0.33745485E-01 0.92032128E+02</pdfrwt>
<totfact> 0.40527436E+04</totfact>
</mgrwt>
</event>
<event>
 6    1  0.1661841E-002  0.9216286E+02  0.7546771E-02  0.1430135E+00
          2   -1    0    0  501    0  0.00000000000E+00  0.00000000000E+00  0.20753440733E+03  0.20753440733E+03  0.00000000000E+00 0. -1.
         -2   -1    0    0    0  501 -0.00000000000E+00 -0.00000000000E+00 -0.13006369936E+02  0.13006369936E+02  0.00000000000E+00 0.  1.
         23    2    1    2    0    0  0.17485107158E+01 -0.98749341036E+01  0.16064480532E+03  0.18520460558E+03  0.91615614610E+02 0.  0.
         11    1    3    3    0    0 -0.23532299941E+01 -0.27821622110E+02  0.48660312194E+01  0.28341817304E+02  0.00000000000E+00 0.  1.
        -11    1    3    3    0    0  0.41017407099E+01  0.17946688006E+02  0.15577877410E+03  0.15686278828E+03  0.00000000000E+00 0. -1.
         22    1    1    2    0    0 -0.17485107158E+01  0.98749341036E+01  0.33883232073E+02  0.35336171680E+02  0.00000000000E+00 0. -1.
<mgrwt>
<rscale>  0 0.52932984E+02</rscale>
<asrwt>0</asrwt>
<pdfrwt beam="1">  1        2 0.31928368E-01 0.92162858E+02</pdfrwt>
<pdfrwt beam="2">  1       -2 0.20009801E-02 0.92162858E+02</pdfrwt>
<totfact> 0.10799529E+05</totfact>
</mgrwt>
</event>
<event>
 6    1  0.2773742E-002  0.1146354E+03  0.7546771E-02  0.1385119E+00
          2   -1    0    0  501    0  0.00000000000E+00  0.00000000000E+00  0.53174768327E+02  0.53174768327E+02  0.00000000000E+00 0. -1.
         -2   -1    0    0    0  501 -0.00000000000E+00 -0.00000000000E+00 -0.87922028423E+02  0.87922028423E+02  0.00000000000E+00 0.  1.
         23    2    1    2    0    0  0.89210357026E+01 -0.56286304722E+01 -0.47896810918E+02  0.12423924515E+03  0.11414910942E+03 0.  0.
         11    1    3    3    0    0  0.69639889190E+01  0.33524740814E+01  0.37530889917E+02  0.38318454067E+02  0.00000000000E+00 0. -1.
        -11    1    3    3    0    0  0.19570467836E+01 -0.89811045536E+01 -0.85427700834E+02  0.85920791087E+02  0.00000000000E+00 0.  1.
         22    1    1    2    0    0 -0.89210357026E+01  0.56286304722E+01  0.13149550822E+02  0.16857551596E+02  0.00000000000E+00 0.  1.
<mgrwt>
<rscale>  0 0.63137107E+02</rscale>
<asrwt>0</asrwt>
<pdfrwt beam="1">  1        2 0.81807337E-02 0.11463545E+03</pdfrwt>
<pdfrwt beam="2">  1       -2 0.13526466E-01 0.11463545E+03</pdfrwt>
<totfact> 0.30189689E+04</totfact>
</mgrwt>
</event>
<event>
 6    1  0.1661841E-002  0.1164299E+03  0.7546771E-02  0.1280395E+00
          1   -1    0    0  501    0  0.00000000000E+00  0.00000000000E+00  0.42128388023E+03  0.42128388023E+03  0.00000000000E+00 0. -1.
         -1   -1    0    0    0  501 -0.00000000000E+00 -0.00000000000E+00 -0.19372292445E+02  0.19372292445E+02  0.00000000000E+00 0.  1.
         23    2    1    2    0    0  0.54565539572E+02  0.31966586663E+02  0.28201243857E+03  0.30510150933E+03  0.97758143989E+02 0.  0.
         13    1    3    3    0    0  0.57158716656E+02  0.60341494127E+02  0.16605354211E+03  0.18569327842E+03  0.00000000000E+00 0. -1.
        -13    1    3    3    0    0 -0.25931770839E+01 -0.28374907464E+02  0.11595889646E+03  0.11940823091E+03  0.00000000000E+00 0.  1.
         22    1    1    2    0    0 -0.54565539572E+02 -0.31966586663E+02  0.11989914921E+03  0.13555466334E+03  0.00000000000E+00 0.  1.
<mgrwt>
<rscale>  0 0.99952989E+02</rscale>
<asrwt>0</asrwt>
<pdfrwt beam="1">  1        1 0.64812898E-01 0.11642987E+03</pdfrwt>
<pdfrwt beam="2">  1       -1 0.29803530E-02 0.11642987E+03</pdfrwt>
<totfact> 0.19958648E+04</totfact>
</mgrwt>
</event>
<event>
 6    1  0.1661841E-002  0.9130753E+02  0.7546771E-02  0.1423724E+00
         -2   -1    0    0    0  501 -0.00000000000E+00  0.00000000000E+00  0.17804365430E+02  0.17804365430E+02  0.00000000000E+00 0.  1.
          2   -1    0    0  501    0  0.00000000000E+00 -0.00000000000E+00 -0.17709272534E+03  0.17709272534E+03  0.00000000000E+00 0. -1.
         23    2    1    2    0    0 -0.71224388148E+01 -0.88634987561E+01 -0.10375055550E+03  0.13820724632E+03  0.90596768289E+02 0.  0.
         11    1    3    3    0    0  0.23776657697E+02 -0.70734607483E+01 -0.10434244569E+03  0.10725068425E+03  0.00000000000E+00 0. -1.
        -11    1    3    3    0    0 -0.30899096512E+02 -0.17900380078E+01  0.59189019607E+00  0.30956562072E+02  0.00000000000E+00 0.  1.
         22    1    1    2    0    0  0.71224388148E+01  0.88634987561E+01 -0.55537804417E+02  0.56689844455E+02  0.00000000000E+00 0. -1.
<mgrwt>
<rscale>  0 0.54240774E+02</rscale>
<asrwt>0</asrwt>
<pdfrwt beam="1">  1        2 0.27245035E-01 0.91307531E+02</pdfrwt>
<pdfrwt beam="2">  1       -2 0.27391331E-02 0.91307531E+02</pdfrwt>
<totfact> 0.81246342E+04</totfact>
</mgrwt>
</event>
<event>
 6    1  0.1661841E-002  0.1178125E+03  0.7546771E-02  0.1313019E+00
         -2   -1    0    0    0  501 -0.00000000000E+00  0.00000000000E+00  0.24367581074E+03  0.24367581074E+03  0.00000000000E+00 0.  1.
          2   -1    0    0  501    0  0.00000000000E+00 -0.00000000000E+00 -0.27850740459E+02  0.27850740459E+02  0.00000000000E+00 0. -1.
         23    2    1    2    0    0  0.31381909198E+02  0.11265326752E+02  0.20505143235E+03  0.23648653000E+03  0.11299582803E+03 0.  0.
         13    1    3    3    0    0  0.46201252610E+02 -0.41653979064E+02  0.12119267539E+03  0.13622508683E+03  0.00000000000E+00 0.  1.
        -13    1    3    3    0    0 -0.14819343412E+02  0.52919305815E+02  0.83858756959E+02  0.10026144317E+03  0.00000000000E+00 0. -1.
         22    1    1    2    0    0 -0.31381909198E+02 -0.11265326752E+02  0.10773637941E+02  0.35040021207E+02  0.00000000000E+00 0. -1.
<mgrwt>
<rscale>  0 0.85929756E+02</rscale>
<asrwt>0</asrwt>
<pdfrwt beam="1">  1        2 0.42847295E-02 0.11781252E+03</pdfrwt>
<pdfrwt beam="2">  1       -2 0.37488585E-01 0.11781252E+03</pdfrwt>
<totfact> 0.11998225E+04</totfact>
</mgrwt>
</event>
<event>
 6    1  0.1661841E-002  0.8800085E+02  0.7546771E-02  0.1415071E+00
          2   -1    0    0  501    0  0.00000000000E+00  0.00000000000E+00  0.60928525158E+02  0.60928525158E+02  0.00000000000E+00 0.  1.
         -2   -1    0    0    0  501 -0.00000000000E+00 -0.00000000000E+00 -0.10505107743E+03  0.10505107743E+03  0.00000000000E+00 0. -1.
         23    2    1    2    0    0  0.10921819430E+02  0.95538837874E+01 -0.85155427297E+02  0.12245650908E+03  0.86796238301E+02 0.  0.
         11    1    3    3    0    0 -0.23811157452E+02 -0.25357131323E+02 -0.17959520275E+02  0.39147154388E+02  0.00000000000E+00 0.  1.
        -11    1    3    3    0    0  0.34732976882E+02  0.34911015110E+02 -0.67195907022E+02  0.83309354694E+02  0.00000000000E+00 0. -1.
         22    1    1    2    0    0 -0.10921819430E+02 -0.95538837874E+01  0.41032875028E+02  0.43523093504E+02  0.00000000000E+00 0.  1.
<mgrwt>
<rscale>  0 0.56077400E+02</rscale>
<asrwt>0</asrwt>
<pdfrwt beam="1">  1        2 0.93736194E-02 0.88000851E+02</pdfrwt>
<pdfrwt beam="2">  1       -2 0.16161704E-01 0.88000851E+02</pdfrwt>
<totfact> 0.18551407E+04</totfact>
</mgrwt>
</event>
<event>
 6    1  0.1661841E-002  0.9510824E+02  0.7546771E-02  0.1400314E+00
         -2   -1    0    0    0  501 -0.00000000000E+00  0.00000000000E+00  0.68907820446E+02  0.68907820446E+02  0.00000000000E+00 0.  1.
          2   -1    0    0  501    0  0.00000000000E+00 -0.00000000000E+00 -0.46816228777E+02  0.46816228777E+02  0.00000000000E+00 0. -1.
         23    2    1    2    0    0  0.99366736573E+01 -0.10536427465E+02  0.29336782089E+02  0.99530020344E+02  0.93999065842E+02 0.  0.
         11    1    3    3    0    0  0.21659016250E+02 -0.90810994496E+01 -0.30524760028E+02  0.38514157487E+02  0.00000000000E+00 0. -1.
        -11    1    3    3    0    0 -0.11722342593E+02 -0.14553280150E+01  0.59861542118E+02  0.61015862857E+02  0.00000000000E+00 0.  1.
         22    1    1    2    0    0 -0.99366736573E+01  0.10536427465E+02 -0.72451904202E+01  0.16194028878E+02  0.00000000000E+00 0. -1.
<mgrwt>
<rscale>  0 0.59412435E+02</rscale>
<asrwt>0</asrwt>
<pdfrwt beam="1">  1        2 0.72024967E-02 0.95108244E+02</pdfrwt>
<pdfrwt beam="2">  1       -2 0.10601203E-01 0.95108244E+02</pdfrwt>
<totfact> 0.50863862E+04</totfact>
</mgrwt>
</event>
<event>
 6    1  0.1661841E-002  0.9583457E+02  0.7546771E-02  0.1394777E+00
          2   -1    0    0  501    0  0.00000000000E+00  0.00000000000E+00  0.43406955605E+03  0.43406955605E+03  0.00000000000E+00 0. -1.
         -2   -1    0    0    0  501 -0.00000000000E+00 -0.00000000000E+00 -0.72673128707E+01  0.72673128707E+01  0.00000000000E+00 0.  1.
         23    2    1    2    0    0 -0.11323457390E+02  0.10523053963E+02  0.38558984316E+03  0.39732076656E+03  0.94579643881E+02 0.  0.
         11    1    3    3    0    0 -0.30994914766E+02  0.25621204283E+02  0.35789250466E+03  0.36014465947E+03  0.00000000000E+00 0. -1.
        -11    1    3    3    0    0  0.19671457375E+02 -0.15098150320E+02  0.27697338498E+02  0.37176107088E+02  0.00000000000E+00 0.  1.
         22    1    1    2    0    0  0.11323457390E+02 -0.10523053963E+02  0.41212400015E+02  0.44016102361E+02  0.00000000000E+00 0. -1.
<mgrwt>
<rscale>  0 0.60733909E+02</rscale>
<asrwt>0</asrwt>
<pdfrwt beam="1">  1        2 0.66779911E-01 0.95834568E+02</pdfrwt>
<pdfrwt beam="2">  1       -2 0.11180485E-02 0.95834568E+02</pdfrwt>
<totfact> 0.11476006E+05</totfact>
</mgrwt>
</event>
<event>
 6    1  0.1661841E-002  0.9168560E+02  0.7546771E-02  0.1430366E+00
         -2   -1    0    0    0  501 -0.00000000000E+00  0.00000000000E+00  0.77032626974E+02  0.77032626974E+02  0.00000000000E+00 0.  1.
          2   -1    0    0  501    0  0.00000000000E+00 -0.00000000000E+00 -0.34519260354E+02  0.34519260354E+02  0.00000000000E+00 0. -1.
         23    2    1    2    0    0 -0.42902981680E+01 -0.91991080856E+01  0.43250405260E+02  0.10137478195E+03  0.91121998508E+02 0.  0.
         13    1    3    3    0    0 -0.89031075165E+01 -0.11307441305E+02  0.71367385689E+02  0.72804033490E+02  0.00000000000E+00 0.  1.
        -13    1    3    3    0    0  0.46128093485E+01  0.21083332197E+01 -0.28116980429E+02  0.28570748459E+02  0.00000000000E+00 0. -1.
         22    1    1    2    0    0  0.42902981680E+01  0.91991080856E+01 -0.73703864047E+00  0.10177105379E+02  0.00000000000E+00 0. -1.
<mgrwt>
<rscale>  0 0.52886696E+02</rscale>
<asrwt>0</asrwt>
<pdfrwt beam="1">  1        2 0.53106555E-02 0.91685598E+02</pdfrwt>
<pdfrwt beam="2">  1       -2 0.11851173E-01 0.91685598E+02</pdfrwt>
<totfact> 0.62527845E+04</totfact>
</mgrwt>
</event>
<event>
 6    1  0.1661841E-002  0.9494912E+02  0.7546771E-02  0.1416827E+00
         -2   -1    0    0    0  501 -0.00000000000E+00  0.00000000000E+00  0.10259763702E+03  0.10259763702E+03  0.00000000000E+00 0.  1.
          2   -1    0    0  501    0  0.00000000000E+00 -0.00000000000E+00 -0.27887419391E+02  0.27887419391E+02  0.00000000000E+00 0. -1.
         23    2    1    2    0    0  0.89070519872E+01 -0.68608676477E+01  0.71289784279E+02  0.11873318659E+03  0.94281117807E+02 0.  0.
         13    1    3    3    0    0  0.11927967843E+02 -0.14834753533E+02  0.93251335635E+02  0.95174355406E+02  0.00000000000E+00 0.  1.
        -13    1    3    3    0    0 -0.30209158560E+01  0.79738858851E+01 -0.21961551356E+02  0.23558831182E+02  0.00000000000E+00 0. -1.
         22    1    1    2    0    0 -0.89070519872E+01  0.68608676477E+01  0.34204333474E+01  0.11751869820E+02  0.00000000000E+00 0. -1.
<mgrwt>
<rscale>  0 0.55698006E+02</rscale>
<asrwt>0</asrwt>
<pdfrwt beam="1">  1        2 0.42903723E-02 0.94949125E+02</pdfrwt>
<pdfrwt beam="2">  1       -2 0.15784252E-01 0.94949125E+02</pdfrwt>
<totfact> 0.52323085E+04</totfact>
</mgrwt>
</event>
<event>
 6    1  0.1661841E-002  0.9601517E+02  0.7546771E-02  0.1358569E+00
         -2   -1    0    0    0  501 -0.00000000000E+00  0.00000000000E+00  0.27274120384E+03  0.27274120384E+03  0.00000000000E+00 0.  1.
          2   -1    0    0  501    0  0.00000000000E+00 -0.00000000000E+00 -0.24148716875E+02  0.24148716875E+02  0.00000000000E+00 0. -1.
         23    2    1    2    0    0 -0.12432022457E+02  0.24898705486E+02  0.25121337366E+03  0.26893692867E+03  0.91893480634E+02 0.  0.
         13    1    3    3    0    0  0.26206156253E+02  0.35157625198E+02  0.19554565389E+03  0.20040190615E+03  0.00000000000E+00 0.  1.
        -13    1    3    3    0    0 -0.38638178710E+02 -0.10258919712E+02  0.55667719768E+02  0.68535022520E+02  0.00000000000E+00 0. -1.
         22    1    1    2    0    0  0.12432022457E+02 -0.24898705486E+02 -0.26208866873E+01  0.27952992045E+02  0.00000000000E+00 0. -1.
<mgrwt>
<rscale>  0 0.70450262E+02</rscale>
<asrwt>0</asrwt>
<pdfrwt beam="1">  1        2 0.37151874E-02 0.96015168E+02</pdfrwt>
<pdfrwt beam="2">  1       -2 0.41960183E-01 0.96015168E+02</pdfrwt>
<totfact> 0.11458545E+04</totfact>
</mgrwt>
</event>
<event>
 6    1  0.1661841E-002  0.9192062E+02  0.7546771E-02  0.1412753E+00
         -2   -1    0    0    0  501 -0.00000000000E+00  0.00000000000E+00  0.13169964157E+02  0.13169964157E+02  0.00000000000E+00 0. -1.
          2   -1    0    0  501    0  0.00000000000E+00 -0.00000000000E+00 -0.20993296296E+03  0.20993296296E+03  0.00000000000E+00 0.  1.
         23    2    1    2    0    0 -0.33395651684E+01  0.12769462974E+02 -0.16987260834E+03  0.19314787780E+03  0.90968058984E+02 0.  0.
         11    1    3    3    0    0 -0.33334225602E+02  0.30445271994E+02 -0.14057265388E+03  0.14764401851E+03  0.00000000000E+00 0.  1.
        -11    1    3    3    0    0  0.29994660433E+02 -0.17675809020E+02 -0.29299954458E+02  0.45503859290E+02  0.00000000000E+00 0. -1.
         22    1    1    2    0    0  0.33395651684E+01 -0.12769462974E+02 -0.26890390464E+02  0.29955049314E+02  0.00000000000E+00 0. -1.
<mgrwt>
<rscale>  0 0.56584100E+02</rscale>
<asrwt>0</asrwt>
<pdfrwt beam="1">  1        2 0.32297377E-01 0.91920616E+02</pdfrwt>
<pdfrwt beam="2">  1       -2 0.20261485E-02 0.91920616E+02</pdfrwt>
<totfact> 0.10474199E+05</totfact>
</mgrwt>
</event>
<event>
 6    1  0.1661841E-002  0.9347079E+02  0.7546771E-02  0.1373643E+00
          2   -1    0    0  501    0  0.00000000000E+00  0.00000000000E+00  0.29966716834E+03  0.29966716834E+03  0.00000000000E+00 0.  1.
         -2   -1    0    0    0  501 -0.00000000000E+00 -0.00000000000E+00 -0.14850217586E+02  0.14850217586E+02  0.00000000000E+00 0. -1.
         23    2    1    2    0    0 -0.10694605906E+02 -0.20889749385E+02  0.14344748713E+03  0.17121322872E+03  0.90476692593E+02 0.  0.
         11    1    3    3    0    0 -0.29204514971E+02 -0.29215438912E+02  0.14508486953E+03  0.15085113500E+03  0.00000000000E+00 0.  1.
        -11    1    3    3    0    0  0.18509909065E+02  0.83256895264E+01 -0.16373824002E+01  0.20362093724E+02  0.00000000000E+00 0. -1.
         22    1    1    2    0    0  0.10694605906E+02  0.20889749385E+02  0.14136946363E+03  0.14330415721E+03  0.00000000000E+00 0. -1.
<mgrwt>
<rscale>  0 0.66164777E+02</rscale>
<asrwt>0</asrwt>
<pdfrwt beam="1">  1        2 0.46102637E-01 0.93470788E+02</pdfrwt>
<pdfrwt beam="2">  1       -2 0.22846491E-02 0.93470788E+02</pdfrwt>
<totfact> 0.60728668E+04</totfact>
</mgrwt>
</event>
<event>
 6    1  0.1661841E-002  0.9209779E+02  0.7546771E-02  0.1426327E+00
         -3   -1    0    0    0  501 -0.00000000000E+00  0.00000000000E+00  0.54289380286E+03  0.54289380286E+03  0.00000000000E+00 0.  1.
          3   -1    0    0  501    0  0.00000000000E+00 -0.00000000000E+00 -0.15338825154E+02  0.15338825154E+02  0.00000000000E+00 0. -1.
         23    2    1    2    0    0  0.86804406631E+01 -0.61679697535E+01  0.53648648096E+03  0.54433422338E+03  0.91480099395E+02 0.  0.
         11    1    3    3    0    0  0.44977246381E+02  0.10158087941E+02  0.38323979126E+03  0.38600372673E+03  0.00000000000E+00 0.  1.
        -11    1    3    3    0    0 -0.36296805718E+02 -0.16326057694E+02  0.15324668970E+03  0.15833049665E+03  0.00000000000E+00 0. -1.
         22    1    1    2    0    0 -0.86804406631E+01  0.61679697535E+01 -0.89315032559E+01  0.13898404635E+02  0.00000000000E+00 0. -1.
<mgrwt>
<rscale>  0 0.53704492E+02</rscale>
<asrwt>0</asrwt>
<pdfrwt beam="1">  1        3 0.23598197E-02 0.92097788E+02</pdfrwt>
<pdfrwt beam="2">  1       -3 0.83522109E-01 0.92097788E+02</pdfrwt>
<totfact> 0.21360107E+03</totfact>
</mgrwt>
</event>
<event>
 6    1  0.1661841E-002  0.9822228E+02  0.7546771E-02  0.1331410E+00
         -4   -1    0    0    0  501 -0.00000000000E+00  0.00000000000E+00  0.16324540479E+02  0.16324540479E+02  0.00000000000E+00 0.  1.
          4   -1    0    0  501    0  0.00000000000E+00 -0.00000000000E+00 -0.29891496173E+03  0.29891496173E+03  0.00000000000E+00 0. -1.
         23    2    1    2    0    0  0.38521293056E+02 -0.15353945878E+02 -0.20101263414E+03  0.22372683083E+03  0.89039216514E+02 0.  0.
         13    1    3    3    0    0  0.18296222776E+02 -0.49884451743E+02 -0.78074680420E+02  0.94439748074E+02  0.00000000000E+00 0.  1.
        -13    1    3    3    0    0  0.20225070280E+02  0.34530505866E+02 -0.12293795372E+03  0.12928708276E+03  0.00000000000E+00 0. -1.
         22    1    1    2    0    0 -0.38521293056E+02  0.15353945878E+02 -0.81577787113E+02  0.91512671379E+02  0.00000000000E+00 0. -1.
<mgrwt>
<rscale>  0 0.79174803E+02</rscale>
<asrwt>0</asrwt>
<pdfrwt beam="1">  1        4 0.45986914E-01 0.98222277E+02</pdfrwt>
<pdfrwt beam="2">  1       -4 0.25114679E-02 0.98222277E+02</pdfrwt>
<totfact> 0.49327278E+03</totfact>
</mgrwt>
</event>
<event>
 6    1  0.1662213E-002  0.1109080E+03  0.7546771E-02  0.1354719E+00
         -2   -1    0    0    0  501 -0.00000000000E+00  0.00000000000E+00  0.15151682638E+02  0.15151682638E+02  0.00000000000E+00 0. -1.
          2   -1    0    0  501    0  0.00000000000E+00 -0.00000000000E+00 -0.28435056940E+03  0.28435056940E+03  0.00000000000E+00 0.  1.
         23    2    1    2    0    0  0.96349954643E+01  0.16688483579E+02 -0.21392779903E+03  0.24096822979E+03  0.10922108747E+03 0.  0.
         11    1    3    3    0    0  0.12313943759E+02  0.37000533901E+02 -0.21680067800E+03  0.22027983725E+03  0.00000000000E+00 0.  1.
        -11    1    3    3    0    0 -0.26789482945E+01 -0.20312050322E+02  0.28728789644E+01  0.20688392537E+02  0.00000000000E+00 0. -1.
         22    1    1    2    0    0 -0.96349954643E+01 -0.16688483579E+02 -0.55271087729E+02  0.58534022248E+02  0.00000000000E+00 0. -1.
<mgrwt>
<rscale>  0 0.71605012E+02</rscale>
<asrwt>0</asrwt>
<pdfrwt beam="1">  1        2 0.43746244E-01 0.11090800E+03</pdfrwt>
<pdfrwt beam="2">  1       -2 0.23310280E-02 0.11090800E+03</pdfrwt>
<totfact> 0.63753990E+04</totfact>
</mgrwt>
</event>
<event>
 6    1  0.1661841E-002  0.9143633E+02  0.7546771E-02  0.1422642E+00
          2   -1    0    0  501    0  0.00000000000E+00  0.00000000000E+00  0.14676710291E+03  0.14676710291E+03  0.00000000000E+00 0. -1.
         -2   -1    0    0    0  501 -0.00000000000E+00 -0.00000000000E+00 -0.18082376768E+02  0.18082376768E+02  0.00000000000E+00 0.  1.
         23    2    1    2    0    0 -0.91943798183E+01  0.69269740065E+01  0.11211443408E+03  0.14467290494E+03  0.90708784059E+02 0.  0.
         13    1    3    3    0    0 -0.37785118094E+02  0.99567850668E+00  0.10892845854E+03  0.11530011104E+03  0.00000000000E+00 0. -1.
        -13    1    3    3    0    0  0.28590738276E+02  0.59312954998E+01  0.31859755384E+01  0.29372793902E+02  0.00000000000E+00 0.  1.
         22    1    1    2    0    0  0.91943798183E+01 -0.69269740065E+01  0.16570292060E+02  0.20176574736E+02  0.00000000000E+00 0.  1.
<mgrwt>
<rscale>  0 0.54465828E+02</rscale>
<asrwt>0</asrwt>
<pdfrwt beam="1">  1        2 0.22579554E-01 0.91436334E+02</pdfrwt>
<pdfrwt beam="2">  1       -2 0.27819042E-02 0.91436334E+02</pdfrwt>
<totfact> 0.97520820E+04</totfact>
</mgrwt>
</event>
<event>
 6    1  0.1661841E-002  0.9903658E+02  0.7546771E-02  0.1401444E+00
         -3   -1    0    0    0  501 -0.00000000000E+00  0.00000000000E+00  0.10118750760E+02  0.10118750760E+02  0.00000000000E+00 0.  1.
          3   -1    0    0  501    0  0.00000000000E+00 -0.00000000000E+00 -0.32124130468E+03  0.32124130468E+03  0.00000000000E+00 0. -1.
         23    2    1    2    0    0 -0.12451550278E+02 -0.19269437097E+01 -0.24899685299E+03  0.26796954406E+03  0.98231815270E+02 0.  0.
         13    1    3    3    0    0 -0.42565658625E+02 -0.31058483092E+01 -0.22617446717E+03  0.23016596445E+03  0.00000000000E+00 0. -1.
        -13    1    3    3    0    0  0.30114108347E+02  0.11789045995E+01 -0.22822385812E+02  0.37803579616E+02  0.00000000000E+00 0.  1.
         22    1    1    2    0    0  0.12451550278E+02  0.19269437097E+01 -0.62125700932E+02  0.63390511377E+02  0.00000000000E+00 0.  1.
<mgrwt>
<rscale>  0 0.59147634E+02</rscale>
<asrwt>0</asrwt>
<pdfrwt beam="1">  1        3 0.49421742E-01 0.99036578E+02</pdfrwt>
<pdfrwt beam="2">  1       -3 0.15567308E-02 0.99036578E+02</pdfrwt>
<totfact> 0.12051843E+04</totfact>
</mgrwt>
</event>
<event>
 6    1  0.1661841E-002  0.9434880E+02  0.7546771E-02  0.1372827E+00
         -2   -1    0    0    0  501 -0.00000000000E+00  0.00000000000E+00  0.58422855860E+02  0.58422855860E+02  0.00000000000E+00 0.  1.
          2   -1    0    0  501    0  0.00000000000E+00 -0.00000000000E+00 -0.85879130229E+02  0.85879130229E+02  0.00000000000E+00 0. -1.
         23    2    1    2    0    0  0.19527837478E+02  0.12392146834E+02  0.15405705315E+02  0.95598279432E+02  0.91470178388E+02 0.  0.
         13    1    3    3    0    0 -0.22870083788E+02  0.82950588443E+01  0.39700450119E+02  0.46561512790E+02  0.00000000000E+00 0.  1.
        -13    1    3    3    0    0  0.42397921266E+02  0.40970879901E+01 -0.24294744804E+02  0.49036766642E+02  0.00000000000E+00 0. -1.
         22    1    1    2    0    0 -0.19527837478E+02 -0.12392146834E+02 -0.42861979683E+02  0.48703706657E+02  0.00000000000E+00 0.  1.
<mgrwt>
<rscale>  0 0.66387532E+02</rscale>
<asrwt>0</asrwt>
<pdfrwt beam="1">  1        2 0.13212174E-01 0.94348796E+02</pdfrwt>
<pdfrwt beam="2">  1       -2 0.89881316E-02 0.94348796E+02</pdfrwt>
<totfact> 0.31399223E+04</totfact>
</mgrwt>
</event>
<event>
 6    1  0.1661841E-002  0.9336273E+02  0.7546771E-02  0.1382496E+00
         -2   -1    0    0    0  501 -0.00000000000E+00  0.00000000000E+00  0.12489837123E+04  0.12489837123E+04  0.00000000000E+00 0.  1.
          2   -1    0    0  501    0  0.00000000000E+00 -0.00000000000E+00 -0.45531383235E+01  0.45531383235E+01  0.00000000000E+00 0. -1.
         23    2    1    2    0    0 -0.14651453215E+02 -0.14158644101E+02  0.12095018817E+04  0.12130999142E+04  0.91112390368E+02 0.  0.
         13    1    3    3    0    0  0.25728272728E+02 -0.16180317197E+02  0.94835405728E+03  0.94884095856E+03  0.00000000000E+00 0.  1.
        -13    1    3    3    0    0 -0.40379725943E+02  0.20216730960E+01  0.26114782446E+03  0.26425895566E+03  0.00000000000E+00 0. -1.
         22    1    1    2    0    0  0.14651453215E+02  0.14158644101E+02  0.34928692258E+02  0.40436936419E+02  0.00000000000E+00 0. -1.
<mgrwt>
<rscale>  0 0.63812165E+02</rscale>
<asrwt>0</asrwt>
<pdfrwt beam="1">  1        2 0.70048382E-03 0.93362733E+02</pdfrwt>
<pdfrwt beam="2">  1       -2 0.19215107E+00 0.93362733E+02</pdfrwt>
<totfact> 0.35243568E+03</totfact>
</mgrwt>
</event>
<event>
 6    1  0.1661841E-002  0.9564355E+02  0.7546771E-02  0.1415193E+00
         -2   -1    0    0    0  501 -0.00000000000E+00  0.00000000000E+00  0.42550681850E+02  0.42550681850E+02  0.00000000000E+00 0.  1.
          2   -1    0    0  501    0  0.00000000000E+00 -0.00000000000E+00 -0.67424104590E+02  0.67424104590E+02  0.00000000000E+00 0. -1.
         23    2    1    2    0    0 -0.98280817513E+01  0.55390989560E+01 -0.24281966957E+02  0.98677767891E+02  0.94975866138E+02 0.  0.
         11    1    3    3    0    0 -0.10341265752E+02 -0.29623001183E+02 -0.47218787203E+02  0.56692837655E+02  0.00000000000E+00 0. -1.
        -11    1    3    3    0    0  0.51318400041E+00  0.35162100139E+02  0.22936820246E+02  0.41984930237E+02  0.00000000000E+00 0.  1.
         22    1    1    2    0    0  0.98280817513E+01 -0.55390989560E+01 -0.59145578373E+00  0.11297018549E+02  0.00000000000E+00 0.  1.
<mgrwt>
<rscale>  0 0.56051044E+02</rscale>
<asrwt>0</asrwt>
<pdfrwt beam="1">  1        2 0.10372939E-01 0.95643546E+02</pdfrwt>
<pdfrwt beam="2">  1       -2 0.65462588E-02 0.95643546E+02</pdfrwt>
<totfact> 0.68091958E+04</totfact>
</mgrwt>
</event>
<event>
 6    1  0.1661841E-002  0.9330209E+02  0.7546771E-02  0.1357675E+00
          2   -1    0    0  501    0  0.00000000000E+00  0.00000000000E+00  0.12273659262E+03  0.12273659262E+03  0.00000000000E+00 0. -1.
         -2   -1    0    0    0  501 -0.00000000000E+00 -0.00000000000E+00 -0.35077895166E+02  0.35077895166E+02  0.00000000000E+00 0.  1.
         23    2    1    2    0    0 -0.30786191110E+02 -0.40971598489E+00  0.86143797949E+02  0.12698832438E+03  0.88075667313E+02 0.  0.
         13    1    3    3    0    0 -0.32029095731E+02 -0.38400255837E+02  0.69189779439E+02  0.85367840552E+02  0.00000000000E+00 0. -1.
        -13    1    3    3    0    0  0.12429046217E+01  0.37990539852E+02  0.16954018510E+02  0.41620483824E+02  0.00000000000E+00 0.  1.
         22    1    1    2    0    0  0.30786191110E+02  0.40971598489E+00  0.15148995090E+01  0.30826163413E+02  0.00000000000E+00 0.  1.
<mgrwt>
<rscale>  0 0.70715912E+02</rscale>
<asrwt>0</asrwt>
<pdfrwt beam="1">  1        2 0.18882553E-01 0.93302093E+02</pdfrwt>
<pdfrwt beam="2">  1       -2 0.53965993E-02 0.93302093E+02</pdfrwt>
<totfact> 0.45059878E+04</totfact>
</mgrwt>
</event>
<event>
 6    1  0.1661841E-002  0.9886807E+02  0.7546771E-02  0.1410443E+00
          3   -1    0    0  501    0  0.00000000000E+00  0.00000000000E+00  0.41942404829E+03  0.41942404829E+03  0.00000000000E+00 0. -1.
         -3   -1    0    0    0  501 -0.00000000000E+00 -0.00000000000E+00 -0.72293315432E+01  0.72293315432E+01  0.00000000000E+00 0.  1.
         23    2    1    2    0    0  0.29329288941E+01 -0.10597514283E+02  0.36121072994E+03  0.37449711183E+03  0.98254699468E+02 0.  0.
         13    1    3    3    0    0  0.32789873565E+02  0.21464538115E+02  0.71892985782E+02  0.81881033271E+02  0.00000000000E+00 0.  1.
        -13    1    3    3    0    0 -0.29856944671E+02 -0.32062052397E+02  0.28931774416E+03  0.29261607856E+03  0.00000000000E+00 0. -1.
         22    1    1    2    0    0 -0.29329288941E+01  0.10597514283E+02  0.50983986809E+02  0.52156268001E+02  0.00000000000E+00 0. -1.
<mgrwt>
<rscale>  0 0.57095193E+02</rscale>
<asrwt>0</asrwt>
<pdfrwt beam="1">  1        3 0.64526758E-01 0.98868070E+02</pdfrwt>
<pdfrwt beam="2">  1       -3 0.11122052E-02 0.98868070E+02</pdfrwt>
<totfact> 0.11609477E+04</totfact>
</mgrwt>
</event>
<event>
 6    1  0.1661841E-002  0.9162329E+02  0.7546771E-02  0.1408738E+00
          1   -1    0    0  501    0  0.00000000000E+00  0.00000000000E+00  0.34359595374E+03  0.34359595374E+03  0.00000000000E+00 0. -1.
         -1   -1    0    0    0  501 -0.00000000000E+00 -0.00000000000E+00 -0.81744247254E+01  0.81744247254E+01  0.00000000000E+00 0.  1.
         23    2    1    2    0    0  0.14100234736E+02  0.15817594917E+01  0.29706392603E+03  0.31087264883E+03  0.90518004058E+02 0.  0.
         11    1    3    3    0    0  0.39861767648E+02 -0.30294308479E+02  0.18041432847E+03  0.18723257078E+03  0.00000000000E+00 0.  1.
        -11    1    3    3    0    0 -0.25761532911E+02  0.31876067971E+02  0.11664959756E+03  0.12364007804E+03  0.00000000000E+00 0. -1.
         22    1    1    2    0    0 -0.14100234736E+02 -0.15817594917E+01  0.38357602984E+02  0.40897729636E+02  0.00000000000E+00 0.  1.
<mgrwt>
<rscale>  0 0.57476445E+02</rscale>
<asrwt>0</asrwt>
<pdfrwt beam="1">  1        1 0.52860905E-01 0.91623292E+02</pdfrwt>
<pdfrwt beam="2">  1       -1 0.12576041E-02 0.91623292E+02</pdfrwt>
<totfact> 0.85936330E+04</totfact>
</mgrwt>
</event>
<event>
 6    1  0.1661841E-002  0.9126694E+02  0.7546771E-02  0.1403267E+00
         -4   -1    0    0    0  501 -0.00000000000E+00  0.00000000000E+00  0.20562101219E+02  0.20562101219E+02  0.00000000000E+00 0.  1.
          4   -1    0    0  501    0  0.00000000000E+00 -0.00000000000E+00 -0.14271424106E+03  0.14271424106E+03  0.00000000000E+00 0. -1.
         23    2    1    2    0    0 -0.14414386718E+02 -0.60761915389E+01 -0.93669309077E+02  0.13078070724E+03  0.89916401595E+02 0.  0.
         11    1    3    3    0    0 -0.14878532002E+02  0.35296129755E+01  0.15156864692E+02  0.21530430316E+02  0.00000000000E+00 0.  1.
        -11    1    3    3    0    0  0.46414528397E+00 -0.96058045143E+01 -0.10882617377E+03  0.10925027693E+03  0.00000000000E+00 0. -1.
         22    1    1    2    0    0  0.14414386718E+02  0.60761915389E+01 -0.28482830765E+02  0.32495635037E+02  0.00000000000E+00 0. -1.
<mgrwt>
<rscale>  0 0.58723667E+02</rscale>
<asrwt>0</asrwt>
<pdfrwt beam="1">  1        4 0.21956037E-01 0.91266938E+02</pdfrwt>
<pdfrwt beam="2">  1       -4 0.31634003E-02 0.91266938E+02</pdfrwt>
<totfact> 0.13685011E+04</totfact>
</mgrwt>
</event>
<event>
 6    1  0.1661841E-002  0.1152836E+03  0.7546771E-02  0.1274726E+00
          2   -1    0    0  501    0  0.00000000000E+00  0.00000000000E+00  0.90533226376E+02  0.90533226376E+02  0.00000000000E+00 0. -1.
         -2   -1    0    0    0  501 -0.00000000000E+00 -0.00000000000E+00 -0.10576826837E+03  0.10576826837E+03  0.00000000000E+00 0.  1.
         23    2    1    2    0    0 -0.15734611728E+02  0.70870896748E+02 -0.36034564588E+02  0.12078406529E+03  0.89554668055E+02 0.  0.
         11    1    3    3    0    0 -0.14023935290E+02 -0.17080087278E+02 -0.22929012901E+02  0.31845561309E+02  0.00000000000E+00 0. -1.
        -11    1    3    3    0    0 -0.17106764377E+01  0.87950984026E+02 -0.13105551686E+02  0.88938503979E+02  0.00000000000E+00 0.  1.
         22    1    1    2    0    0  0.15734611728E+02 -0.70870896748E+02  0.20799522592E+02  0.75517429460E+02  0.00000000000E+00 0. -1.
<mgrwt>
<rscale>  0 0.10269625E+03</rscale>
<asrwt>0</asrwt>
<pdfrwt beam="1">  1        2 0.13928189E-01 0.11528357E+03</pdfrwt>
<pdfrwt beam="2">  1       -2 0.16272041E-01 0.11528357E+03</pdfrwt>
<totfact> 0.11738961E+04</totfact>
</mgrwt>
</event>
<event>
 6    1  0.1661841E-002  0.9618718E+02  0.7546771E-02  0.1363572E+00
         -1   -1    0    0    0  501 -0.00000000000E+00  0.00000000000E+00  0.42582275983E+02  0.42582275983E+02  0.00000000000E+00 0.  1.
          1   -1    0    0  501    0  0.00000000000E+00 -0.00000000000E+00 -0.13301316362E+03  0.13301316362E+03  0.00000000000E+00 0. -1.
         23    2    1    2    0    0  0.56837852676E+01  0.24808796093E+02 -0.16739878249E+02  0.97632970150E+02  0.92758781568E+02 0.  0.
         13    1    3    3    0    0  0.21171939919E+02 -0.23739901874E+00  0.33364316860E+02  0.39515630297E+02  0.00000000000E+00 0.  1.
        -13    1    3    3    0    0 -0.15488154651E+02  0.25046195111E+02 -0.50104195110E+02  0.58117339853E+02  0.00000000000E+00 0. -1.
         22    1    1    2    0    0 -0.56837852676E+01 -0.24808796093E+02 -0.73691009390E+02  0.77962469455E+02  0.00000000000E+00 0. -1.
<mgrwt>
<rscale>  0 0.68986876E+02</rscale>
<asrwt>0</asrwt>
<pdfrwt beam="1">  1        1 0.20463563E-01 0.96187179E+02</pdfrwt>
<pdfrwt beam="2">  1       -1 0.65511194E-02 0.96187179E+02</pdfrwt>
<totfact> 0.25713501E+04</totfact>
</mgrwt>
</event>
<event>
 6    1  0.1661841E-002  0.1160263E+03  0.7546771E-02  0.1274309E+00
          2   -1    0    0  501    0  0.00000000000E+00  0.00000000000E+00  0.20534385912E+03  0.20534385912E+03  0.00000000000E+00 0. -1.
         -2   -1    0    0    0  501 -0.00000000000E+00 -0.00000000000E+00 -0.43007070674E+02  0.43007070674E+02  0.00000000000E+00 0.  1.
         23    2    1    2    0    0  0.27773144845E+02 -0.66193677550E+02  0.10490186288E+03  0.15641768664E+03  0.91154491583E+02 0.  0.
         11    1    3    3    0    0  0.28707349779E+02 -0.84002224079E+02  0.57487385397E+02  0.10576050804E+03  0.00000000000E+00 0. -1.
        -11    1    3    3    0    0 -0.93420493428E+00  0.17808546529E+02  0.47414477485E+02  0.50657178598E+02  0.00000000000E+00 0.  1.
         22    1    1    2    0    0 -0.27773144845E+02  0.66193677550E+02  0.57434925567E+02  0.91933243156E+02  0.00000000000E+00 0.  1.
<mgrwt>
<rscale>  0 0.10290209E+03</rscale>
<asrwt>0</asrwt>
<pdfrwt beam="1">  1        2 0.31591362E-01 0.11602626E+03</pdfrwt>
<pdfrwt beam="2">  1       -2 0.66164725E-02 0.11602626E+03</pdfrwt>
<totfact> 0.19326808E+04</totfact>
</mgrwt>
</event>
<event>
 6    1  0.1661841E-002  0.9187451E+02  0.7546771E-02  0.1399627E+00
          2   -1    0    0  501    0  0.00000000000E+00  0.00000000000E+00  0.47289321432E+03  0.47289321432E+03  0.00000000000E+00 0. -1.
         -2   -1    0    0    0  501 -0.00000000000E+00 -0.00000000000E+00 -0.63009767471E+01  0.63009767471E+01  0.00000000000E+00 0.  1.
         23    2    1    2    0    0  0.12588615657E+02 -0.10263715920E+02  0.36937822751E+03  0.38063263233E+03  0.90427367127E+02 0.  0.
         13    1    3    3    0    0 -0.32399515892E+02 -0.97341314293E+01  0.68384873752E+02  0.76295300660E+02  0.00000000000E+00 0.  1.
        -13    1    3    3    0    0  0.44988131549E+02 -0.52958449093E+00  0.30099335376E+03  0.30433733167E+03  0.00000000000E+00 0. -1.
         22    1    1    2    0    0 -0.12588615657E+02  0.10263715920E+02  0.97214010056E+02  0.98561558733E+02  0.00000000000E+00 0. -1.
<mgrwt>
<rscale>  0 0.59574328E+02</rscale>
<asrwt>0</asrwt>
<pdfrwt beam="1">  1        2 0.72752774E-01 0.91874511E+02</pdfrwt>
<pdfrwt beam="2">  1       -2 0.96938141E-03 0.91874511E+02</pdfrwt>
<totfact> 0.12741159E+05</totfact>
</mgrwt>
</event>
<event>
 6    1  0.1661841E-002  0.1051825E+03  0.7546771E-02  0.1306918E+00
          2   -1    0    0  501    0  0.00000000000E+00  0.00000000000E+00  0.13111117685E+02  0.13111117685E+02  0.00000000000E+00 0.  1.
         -2   -1    0    0    0  501 -0.00000000000E+00 -0.00000000000E+00 -0.50167552108E+03  0.50167552108E+03  0.00000000000E+00 0. -1.
         23    2    1    2    0    0  0.48427357006E+02  0.19855311255E+02 -0.26352262820E+03  0.28373849903E+03  0.91235508261E+02 0.  0.
         13    1    3    3    0    0  0.46290125385E+02 -0.62253560303E+01 -0.24991831149E+03  0.25424534053E+03  0.00000000000E+00 0. -1.
        -13    1    3    3    0    0  0.21372316207E+01  0.26080667285E+02 -0.13604316713E+02  0.29493158499E+02  0.00000000000E+00 0.  1.
         22    1    1    2    0    0 -0.48427357006E+02 -0.19855311255E+02 -0.22504177520E+03  0.23104813974E+03  0.00000000000E+00 0. -1.
<mgrwt>
<rscale>  0 0.88341631E+02</rscale>
<asrwt>0</asrwt>
<pdfrwt beam="1">  1        2 0.20170951E-02 0.10518251E+03</pdfrwt>
<pdfrwt beam="2">  1       -2 0.77180845E-01 0.10518251E+03</pdfrwt>
<totfact> 0.76332963E+03</totfact>
</mgrwt>
</event>
<event>
 6    1  0.1661841E-002  0.9973272E+02  0.7546771E-02  0.1332491E+00
         -2   -1    0    0    0  501 -0.00000000000E+00  0.00000000000E+00  0.14202895294E+04  0.14202895294E+04  0.00000000000E+00 0.  1.
          2   -1    0    0  501    0  0.00000000000E+00 -0.00000000000E+00 -0.51706660276E+01  0.51706660276E+01  0.00000000000E+00 0. -1.
         23    2    1    2    0    0 -0.35100458600E+02  0.16695154585E+02  0.13026898649E+04  0.13065020092E+04  0.91846858738E+02 0.  0.
         11    1    3    3    0    0  0.15249540616E+02  0.24361915437E+02  0.91868022060E+03  0.91912969658E+03  0.00000000000E+00 0. -1.
        -11    1    3    3    0    0 -0.50349999215E+02 -0.76667608520E+01  0.38400964432E+03  0.38737231260E+03  0.00000000000E+00 0.  1.
         22    1    1    2    0    0  0.35100458600E+02 -0.16695154585E+02  0.11242899842E+03  0.11895818620E+03  0.00000000000E+00 0. -1.
<mgrwt>
<rscale>  0 0.78800335E+02</rscale>
<asrwt>0</asrwt>
<pdfrwt beam="1">  1        2 0.79548821E-03 0.99732722E+02</pdfrwt>
<pdfrwt beam="2">  1       -2 0.21850577E+00 0.99732722E+02</pdfrwt>
<totfact> 0.20573350E+03</totfact>
</mgrwt>
</event>
<event>
 6    1  0.1661841E-002  0.5764743E+02  0.7546771E-02  0.1492997E+00
         -4   -1    0    0    0  501 -0.00000000000E+00  0.00000000000E+00  0.62022675319E+03  0.62022675319E+03  0.00000000000E+00 0.  1.
          4   -1    0    0  501    0  0.00000000000E+00 -0.00000000000E+00 -0.30900404724E+01  0.30900404724E+01  0.00000000000E+00 0. -1.
         23    2    1    2    0    0  0.11605542892E+02 -0.11683134925E+02  0.57784902299E+03  0.58071741771E+03  0.55245285708E+02 0.  0.
         11    1    3    3    0    0  0.94758864957E+00 -0.15803849290E+02  0.55446311274E+03  0.55468910478E+03  0.00000000000E+00 0.  1.
        -11    1    3    3    0    0  0.10657954242E+02  0.41207143651E+01  0.23385910248E+02  0.26028312923E+02  0.00000000000E+00 0. -1.
         22    1    1    2    0    0 -0.11605542892E+02  0.11683134925E+02  0.39287689732E+02  0.42599375958E+02  0.00000000000E+00 0. -1.
<mgrwt>
<rscale>  0 0.42144704E+02</rscale>
<asrwt>0</asrwt>
<pdfrwt beam="1">  1        4 0.47539133E-03 0.57647427E+02</pdfrwt>
<pdfrwt beam="2">  1       -4 0.95419402E-01 0.57647427E+02</pdfrwt>
<totfact> 0.10716889E+04</totfact>
</mgrwt>
</event>
<event>
 6    1  0.1661841E-002  0.9370341E+02  0.7546771E-02  0.1415169E+00
         -2   -1    0    0    0  501 -0.00000000000E+00  0.00000000000E+00  0.26022560035E+02  0.26022560035E+02  0.00000000000E+00 0.  1.
          2   -1    0    0  501    0  0.00000000000E+00 -0.00000000000E+00 -0.11917700508E+03  0.11917700508E+03  0.00000000000E+00 0. -1.
         23    2    1    2    0    0 -0.75957722591E+01 -0.92917771895E+01 -0.63456354822E+02  0.11316818296E+03  0.92931672688E+02 0.  0.
         11    1    3    3    0    0  0.15468714339E+02 -0.37557375314E+02 -0.75411475726E+00  0.40625192342E+02  0.00000000000E+00 0.  1.
        -11    1    3    3    0    0 -0.23064486598E+02  0.28265598124E+02 -0.62702240065E+02  0.72542990623E+02  0.00000000000E+00 0. -1.
         22    1    1    2    0    0  0.75957722591E+01  0.92917771895E+01 -0.29698090227E+02  0.32031382154E+02  0.00000000000E+00 0. -1.
<mgrwt>
<rscale>  0 0.56056276E+02</rscale>
<asrwt>0</asrwt>
<pdfrwt beam="1">  1        2 0.18334924E-01 0.93703408E+02</pdfrwt>
<pdfrwt beam="2">  1       -2 0.40034708E-02 0.93703408E+02</pdfrwt>
<totfact> 0.72545264E+04</totfact>
</mgrwt>
</event>
<event>
 6    1  0.1661841E-002  0.9232558E+02  0.7546771E-02  0.1404176E+00
          2   -1    0    0  501    0  0.00000000000E+00  0.00000000000E+00  0.92016123823E+02  0.92016123823E+02  0.00000000000E+00 0. -1.
         -2   -1    0    0    0  501 -0.00000000000E+00 -0.00000000000E+00 -0.37419319532E+02  0.37419319532E+02  0.00000000000E+00 0.  1.
         23    2    1    2    0    0 -0.99685127296E+01 -0.11068926765E+02  0.23982677543E+02  0.95389633888E+02  0.91115975796E+02 0.  0.
         13    1    3    3    0    0  0.14014620456E+02  0.25077284618E+02  0.39914310294E+02  0.49177555415E+02  0.00000000000E+00 0. -1.
        -13    1    3    3    0    0 -0.23983133186E+02 -0.36146211382E+02 -0.15931632750E+02  0.46212078473E+02  0.00000000000E+00 0.  1.
         22    1    1    2    0    0  0.99685127296E+01  0.11068926765E+02  0.30614126748E+02  0.34045809467E+02  0.00000000000E+00 0. -1.
<mgrwt>
<rscale>  0 0.58513941E+02</rscale>
<asrwt>0</asrwt>
<pdfrwt beam="1">  1        2 0.14156327E-01 0.92325584E+02</pdfrwt>
<pdfrwt beam="2">  1       -2 0.57568184E-02 0.92325584E+02</pdfrwt>
<totfact> 0.56822141E+04</totfact>
</mgrwt>
</event>
<event>
 6    1  0.1661841E-002  0.1079913E+03  0.7546771E-02  0.1298086E+00
         -2   -1    0    0    0  501 -0.00000000000E+00  0.00000000000E+00  0.14532028843E+02  0.14532028843E+02  0.00000000000E+00 0.  1.
          2   -1    0    0  501    0  0.00000000000E+00 -0.00000000000E+00 -0.46765188771E+03  0.46765188771E+03  0.00000000000E+00 0. -1.
         23    2    1    2    0    0 -0.56295556517E+02  0.81088765827E+01 -0.29891050365E+03  0.31782008598E+03  0.91799642156E+02 0.  0.
         13    1    3    3    0    0 -0.35270295768E+02  0.48746983909E+02 -0.19969187167E+03  0.20855959775E+03  0.00000000000E+00 0. -1.
        -13    1    3    3    0    0 -0.21025260750E+02 -0.40638107326E+02 -0.99218631976E+02  0.10926048823E+03  0.00000000000E+00 0.  1.
         22    1    1    2    0    0  0.56295556517E+02 -0.81088765827E+01 -0.15420935523E+03  0.16436383058E+03  0.00000000000E+00 0.  1.
<mgrwt>
<rscale>  0 0.91997256E+02</rscale>
<asrwt>0</asrwt>
<pdfrwt beam="1">  1        2 0.71946438E-01 0.10799129E+03</pdfrwt>
<pdfrwt beam="2">  1       -2 0.22356969E-02 0.10799129E+03</pdfrwt>
<totfact> 0.39869598E+04</totfact>
</mgrwt>
</event>
<event>
 6    1  0.1661841E-002  0.9492732E+02  0.7546771E-02  0.1413963E+00
         -1   -1    0    0    0  501 -0.00000000000E+00  0.00000000000E+00  0.65220389530E+01  0.65220389530E+01  0.00000000000E+00 0.  1.
          1   -1    0    0  501    0  0.00000000000E+00 -0.00000000000E+00 -0.44410624463E+03  0.44410624463E+03  0.00000000000E+00 0. -1.
         23    2    1    2    0    0 -0.11558112272E+02  0.21745037675E+01 -0.36739182646E+03  0.37945744316E+03  0.94195958492E+02 0.  0.
         11    1    3    3    0    0 -0.42549143719E+02 -0.22001520742E+02 -0.27361817005E+03  0.27777940803E+03  0.00000000000E+00 0.  1.
        -11    1    3    3    0    0  0.30991031447E+02  0.24176024510E+02 -0.93773656413E+02  0.10167803513E+03  0.00000000000E+00 0. -1.
         22    1    1    2    0    0  0.11558112272E+02 -0.21745037675E+01 -0.70192379215E+02  0.71170840418E+02  0.00000000000E+00 0. -1.
<mgrwt>
<rscale>  0 0.56318806E+02</rscale>
<asrwt>0</asrwt>
<pdfrwt beam="1">  1        1 0.68324053E-01 0.94927325E+02</pdfrwt>
<pdfrwt beam="2">  1       -1 0.10033904E-02 0.94927325E+02</pdfrwt>
<totfact> 0.86413840E+04</totfact>
</mgrwt>
</event>
<event>
 6    1  0.1661841E-002  0.9162132E+02  0.7546771E-02  0.1419200E+00
         -2   -1    0    0    0  501 -0.00000000000E+00  0.00000000000E+00  0.34477810388E+02  0.34477810388E+02  0.00000000000E+00 0. -1.
          2   -1    0    0  501    0  0.00000000000E+00 -0.00000000000E+00 -0.85283102873E+02  0.85283102873E+02  0.00000000000E+00 0.  1.
         23    2    1    2    0    0 -0.18492248517E+01 -0.11920850501E+02 -0.31287923166E+02  0.96816327531E+02  0.90823679904E+02 0.  0.
         11    1    3    3    0    0 -0.19311257984E+02  0.75632918594E+01  0.26341229097E+02  0.33525936513E+02  0.00000000000E+00 0. -1.
        -11    1    3    3    0    0  0.17462033133E+02 -0.19484142361E+02 -0.57629152264E+02  0.63290391018E+02  0.00000000000E+00 0.  1.
         22    1    1    2    0    0  0.18492248517E+01  0.11920850501E+02 -0.19517369319E+02  0.22944585731E+02  0.00000000000E+00 0.  1.
<mgrwt>
<rscale>  0 0.55190600E+02</rscale>
<asrwt>0</asrwt>
<pdfrwt beam="1">  1        2 0.13120477E-01 0.91621325E+02</pdfrwt>
<pdfrwt beam="2">  1       -2 0.53042785E-02 0.91621325E+02</pdfrwt>
<totfact> 0.70109367E+04</totfact>
</mgrwt>
</event>
<event>
 6    1  0.1661841E-002  0.9120627E+02  0.7546771E-02  0.1412894E+00
          2   -1    0    0  501    0  0.00000000000E+00  0.00000000000E+00  0.34839524757E+03  0.34839524757E+03  0.00000000000E+00 0. -1.
         -2   -1    0    0    0  501 -0.00000000000E+00 -0.00000000000E+00 -0.79423300881E+01  0.79423300881E+01  0.00000000000E+00 0.  1.
         23    2    1    2    0    0 -0.83444646484E+01 -0.10589215997E+02  0.28347027768E+03  0.29778176817E+03  0.90204332171E+02 0.  0.
         11    1    3    3    0    0  0.32002928520E+02  0.66789196956E+01  0.46868874243E+02  0.57144437830E+02  0.00000000000E+00 0.  1.
        -11    1    3    3    0    0 -0.40347393169E+02 -0.17268135693E+02  0.23660140344E+03  0.24063733034E+03  0.00000000000E+00 0. -1.
         22    1    1    2    0    0  0.83444646484E+01  0.10589215997E+02  0.56982639808E+02  0.58555809491E+02  0.00000000000E+00 0. -1.
<mgrwt>
<rscale>  0 0.56553081E+02</rscale>
<asrwt>0</asrwt>
<pdfrwt beam="1">  1        2 0.53599257E-01 0.91206267E+02</pdfrwt>
<pdfrwt beam="2">  1       -2 0.12218972E-02 0.91206267E+02</pdfrwt>
<totfact> 0.12657271E+05</totfact>
</mgrwt>
</event>
<event>
 6    1  0.1661841E-002  0.9141564E+02  0.7546771E-02  0.1400693E+00
          2   -1    0    0  501    0  0.00000000000E+00  0.00000000000E+00  0.24943727000E+02  0.24943727000E+02  0.00000000000E+00 0. -1.
         -2   -1    0    0    0  501 -0.00000000000E+00 -0.00000000000E+00 -0.11800200784E+03  0.11800200784E+03  0.00000000000E+00 0.  1.
         23    2    1    2    0    0  0.13503742342E+02 -0.89712714092E+01 -0.85059603137E+02  0.12486774787E+03  0.89966569368E+02 0.  0.
         13    1    3    3    0    0  0.49449943440E+02 -0.19605096461E+02 -0.41995365122E+02  0.67773648309E+02  0.00000000000E+00 0. -1.
        -13    1    3    3    0    0 -0.35946201098E+02  0.10633825052E+02 -0.43064238015E+02  0.57094099559E+02  0.00000000000E+00 0.  1.
         22    1    1    2    0    0 -0.13503742342E+02  0.89712714092E+01 -0.79986777010E+01  0.18077986971E+02  0.00000000000E+00 0. -1.
<mgrwt>
<rscale>  0 0.59323356E+02</rscale>
<asrwt>0</asrwt>
<pdfrwt beam="1">  1        2 0.38374965E-02 0.91415635E+02</pdfrwt>
<pdfrwt beam="2">  1       -2 0.18154155E-01 0.91415635E+02</pdfrwt>
<totfact> 0.47861191E+04</totfact>
</mgrwt>
</event>
<event>
 6    1  0.1661841E-002  0.9219362E+02  0.7546771E-02  0.1427783E+00
          4   -1    0    0  501    0  0.00000000000E+00  0.00000000000E+00  0.60048016730E+02  0.60048016730E+02  0.00000000000E+00 0.  1.
         -4   -1    0    0    0  501 -0.00000000000E+00 -0.00000000000E+00 -0.43891716993E+02  0.43891716993E+02  0.00000000000E+00 0. -1.
         23    2    1    2    0    0 -0.10040045929E+02 -0.26454734780E+01  0.13122435535E+02  0.93122831016E+02  0.91607108294E+02 0.  0.
         11    1    3    3    0    0 -0.57242681909E+01 -0.94115471238E+00 -0.39687602158E+02  0.40109335366E+02  0.00000000000E+00 0. -1.
        -11    1    3    3    0    0 -0.43157777378E+01 -0.17043187656E+01  0.52810037693E+02  0.53013495650E+02  0.00000000000E+00 0.  1.
         22    1    1    2    0    0  0.10040045929E+02  0.26454734780E+01  0.30338642024E+01  0.10816902707E+02  0.00000000000E+00 0.  1.
<mgrwt>
<rscale>  0 0.53407656E+02</rscale>
<asrwt>0</asrwt>
<pdfrwt beam="1">  1        4 0.92381564E-02 0.92193619E+02</pdfrwt>
<pdfrwt beam="2">  1       -4 0.67525719E-02 0.92193619E+02</pdfrwt>
<totfact> 0.18335426E+04</totfact>
</mgrwt>
</event>
<event>
 6    1  0.1661841E-002  0.9193628E+02  0.7546771E-02  0.1381538E+00
         -2   -1    0    0    0  501 -0.00000000000E+00  0.00000000000E+00  0.10961406703E+03  0.10961406703E+03  0.00000000000E+00 0.  1.
          2   -1    0    0  501    0  0.00000000000E+00 -0.00000000000E+00 -0.30362609912E+02  0.30362609912E+02  0.00000000000E+00 0. -1.
         23    2    1    2    0    0  0.17846772424E+02 -0.12297119776E+02  0.73075717125E+02  0.11744078989E+03  0.89345130006E+02 0.  0.
         13    1    3    3    0    0  0.14686134506E+02  0.94444032383E+01  0.88750767791E+02  0.90452076166E+02  0.00000000000E+00 0.  1.
        -13    1    3    3    0    0  0.31606379177E+01 -0.21741523015E+02 -0.15675050666E+02  0.26988713723E+02  0.00000000000E+00 0. -1.
         22    1    1    2    0    0 -0.17846772424E+02  0.12297119776E+02  0.61757399912E+01  0.22535887051E+02  0.00000000000E+00 0. -1.
<mgrwt>
<rscale>  0 0.64061308E+02</rscale>
<asrwt>0</asrwt>
<pdfrwt beam="1">  1        2 0.46711708E-02 0.91936275E+02</pdfrwt>
<pdfrwt beam="2">  1       -2 0.16863702E-01 0.91936275E+02</pdfrwt>
<totfact> 0.41855175E+04</totfact>
</mgrwt>
</event>
<event>
 6    1  0.1661841E-002  0.8981700E+02  0.7546771E-02  0.1418712E+00
          2   -1    0    0  501    0  0.00000000000E+00  0.00000000000E+00  0.71605463057E+02  0.71605463057E+02  0.00000000000E+00 0. -1.
         -2   -1    0    0    0  501 -0.00000000000E+00 -0.00000000000E+00 -0.46031786727E+02  0.46031786727E+02  0.00000000000E+00 0.  1.
         23    2    1    2    0    0  0.11976557335E+02 -0.47976746696E+01  0.93139674648E+00  0.89821830483E+02  0.88885533826E+02 0.  0.
         11    1    3    3    0    0 -0.67207103625E+01  0.34376503119E+02 -0.21358829855E+02  0.41025742251E+02  0.00000000000E+00 0.  1.
        -11    1    3    3    0    0  0.18697267697E+02 -0.39174177789E+02  0.22290226601E+02  0.48796088232E+02  0.00000000000E+00 0. -1.
         22    1    1    2    0    0 -0.11976557335E+02  0.47976746696E+01  0.24642279583E+02  0.27815419301E+02  0.00000000000E+00 0. -1.
<mgrwt>
<rscale>  0 0.55294409E+02</rscale>
<asrwt>0</asrwt>
<pdfrwt beam="1">  1        2 0.11016225E-01 0.89817001E+02</pdfrwt>
<pdfrwt beam="2">  1       -2 0.70818134E-02 0.89817001E+02</pdfrwt>
<totfact> 0.55727706E+04</totfact>
</mgrwt>
</event>
<event>
 6    1  0.1661841E-002  0.9331924E+02  0.7546771E-02  0.1386417E+00
         -2   -1    0    0    0  501 -0.00000000000E+00  0.00000000000E+00  0.23289463526E+02  0.23289463526E+02  0.00000000000E+00 0.  1.
          2   -1    0    0  501    0  0.00000000000E+00 -0.00000000000E+00 -0.14907456173E+03  0.14907456173E+03  0.00000000000E+00 0. -1.
         23    2    1    2    0    0  0.15778934387E+02  0.10846423679E+02 -0.80669138867E+02  0.12335311357E+03  0.91333788852E+02 0.  0.
         11    1    3    3    0    0  0.12839687553E+02  0.45708505912E+02 -0.73717339810E+02  0.87683358043E+02  0.00000000000E+00 0. -1.
        -11    1    3    3    0    0  0.29392468340E+01 -0.34862082233E+02 -0.69517990566E+01  0.35669755531E+02  0.00000000000E+00 0.  1.
         22    1    1    2    0    0 -0.15778934387E+02 -0.10846423679E+02 -0.45115959342E+02  0.49010911687E+02  0.00000000000E+00 0.  1.
<mgrwt>
<rscale>  0 0.62806612E+02</rscale>
<asrwt>0</asrwt>
<pdfrwt beam="1">  1        2 0.22934548E-01 0.93319241E+02</pdfrwt>
<pdfrwt beam="2">  1       -2 0.35829944E-02 0.93319241E+02</pdfrwt>
<totfact> 0.66488966E+04</totfact>
</mgrwt>
</event>
<event>
 6    1  0.1661841E-002  0.9381338E+02  0.7546771E-02  0.1400158E+00
          2   -1    0    0  501    0  0.00000000000E+00  0.00000000000E+00  0.16092203386E+03  0.16092203386E+03  0.00000000000E+00 0. -1.
         -2   -1    0    0    0  501 -0.00000000000E+00 -0.00000000000E+00 -0.18917563379E+02  0.18917563379E+02  0.00000000000E+00 0.  1.
         23    2    1    2    0    0  0.13437936211E+02  0.69487088958E+01  0.11094625718E+03  0.14529288541E+03  0.92585570597E+02 0.  0.
         13    1    3    3    0    0 -0.31079624513E+02  0.23531036933E+01  0.67489356777E+01  0.31890880980E+02  0.00000000000E+00 0.  1.
        -13    1    3    3    0    0  0.44517560724E+02  0.45956052025E+01  0.10419732150E+03  0.11340200443E+03  0.00000000000E+00 0. -1.
         22    1    1    2    0    0 -0.13437936211E+02 -0.69487088958E+01  0.31058213302E+02  0.34546711832E+02  0.00000000000E+00 0.  1.
<mgrwt>
<rscale>  0 0.59449125E+02</rscale>
<asrwt>0</asrwt>
<pdfrwt beam="1">  1        2 0.24757235E-01 0.93813382E+02</pdfrwt>
<pdfrwt beam="2">  1       -2 0.29103945E-02 0.93813382E+02</pdfrwt>
<totfact> 0.82876672E+04</totfact>
</mgrwt>
</event>
<event>
 6    1  0.1661841E-002  0.9178804E+02  0.7546771E-02  0.1415007E+00
         -2   -1    0    0    0  501 -0.00000000000E+00  0.00000000000E+00  0.63239300045E+01  0.63239300045E+01  0.00000000000E+00 0.  1.
          2   -1    0    0  501    0  0.00000000000E+00 -0.00000000000E+00 -0.43479501843E+03  0.43479501843E+03  0.00000000000E+00 0. -1.
         23    2    1    2    0    0  0.10156983453E+02  0.77903822152E+01 -0.38584026221E+03  0.39660780700E+03  0.90891090123E+02 0.  0.
         13    1    3    3    0    0  0.16402260388E+02 -0.16279589758E+02 -0.36001721314E+03  0.36075816407E+03  0.00000000000E+00 0. -1.
        -13    1    3    3    0    0 -0.62452769341E+01  0.24069971974E+02 -0.25823049073E+02  0.35849642930E+02  0.00000000000E+00 0.  1.
         22    1    1    2    0    0 -0.10156983453E+02 -0.77903822152E+01 -0.42630826217E+02  0.44511141435E+02  0.00000000000E+00 0.  1.
<mgrwt>
<rscale>  0 0.56091471E+02</rscale>
<asrwt>0</asrwt>
<pdfrwt beam="1">  1        2 0.66891507E-01 0.91788042E+02</pdfrwt>
<pdfrwt beam="2">  1       -2 0.97291280E-03 0.91788042E+02</pdfrwt>
<totfact> 0.13861934E+05</totfact>
</mgrwt>
</event>
<event>
 6    1  0.1661841E-002  0.9196307E+02  0.7546771E-02  0.1389229E+00
          2   -1    0    0  501    0  0.00000000000E+00  0.00000000000E+00  0.78730540867E+02  0.78730540867E+02  0.00000000000E+00 0. -1.
         -2   -1    0    0    0  501 -0.00000000000E+00 -0.00000000000E+00 -0.50199517446E+02  0.50199517446E+02  0.00000000000E+00 0.  1.
         23    2    1    2    0    0 -0.15054473841E+02  0.11787845444E+02 -0.30480316015E+01  0.92013568786E+02  0.89953409392E+02 0.  0.
         11    1    3    3    0    0 -0.39846242461E+02 -0.11591364428E+02  0.24503415195E+02  0.48192324325E+02  0.00000000000E+00 0. -1.
        -11    1    3    3    0    0  0.24791768620E+02  0.23379209873E+02 -0.27551446796E+02  0.43821244462E+02  0.00000000000E+00 0.  1.
         22    1    1    2    0    0  0.15054473841E+02 -0.11787845444E+02  0.31579055022E+02  0.36916489527E+02  0.00000000000E+00 0.  1.
<mgrwt>
<rscale>  0 0.62098979E+02</rscale>
<asrwt>0</asrwt>
<pdfrwt beam="1">  1        2 0.12112391E-01 0.91963071E+02</pdfrwt>
<pdfrwt beam="2">  1       -2 0.77230027E-02 0.91963071E+02</pdfrwt>
<totfact> 0.43766421E+04</totfact>
</mgrwt>
</event>
<event>
 6    1  0.1661841E-002  0.9593404E+02  0.7546771E-02  0.1362587E+00
         -2   -1    0    0    0  501 -0.00000000000E+00  0.00000000000E+00  0.42470314416E+03  0.42470314416E+03  0.00000000000E+00 0. -1.
          2   -1    0    0  501    0  0.00000000000E+00 -0.00000000000E+00 -0.90243372521E+01  0.90243372521E+01  0.00000000000E+00 0.  1.
         23    2    1    2    0    0 -0.25938928799E+02 -0.27088112382E+01  0.29294347849E+03  0.30825188009E+03  0.92321039331E+02 0.  0.
         11    1    3    3    0    0  0.25802411586E+02 -0.27611882479E+02  0.13517776540E+03  0.14036099443E+03  0.00000000000E+00 0. -1.
        -11    1    3    3    0    0 -0.51741340384E+02  0.24903071240E+02  0.15776571309E+03  0.16789088566E+03  0.00000000000E+00 0.  1.
         22    1    1    2    0    0  0.25938928799E+02  0.27088112382E+01  0.12273532842E+03  0.12547560132E+03  0.00000000000E+00 0.  1.
<mgrwt>
<rscale>  0 0.69271787E+02</rscale>
<asrwt>0</asrwt>
<pdfrwt beam="1">  1        2 0.13883599E-02 0.95934040E+02</pdfrwt>
<pdfrwt beam="2">  1       -2 0.65338930E-01 0.95934040E+02</pdfrwt>
<totfact> 0.17851413E+04</totfact>
</mgrwt>
</event>
<event>
 6    1  0.1661841E-002  0.8922338E+02  0.7546771E-02  0.1430516E+00
         -4   -1    0    0    0  501 -0.00000000000E+00  0.00000000000E+00  0.14515266471E+03  0.14515266471E+03  0.00000000000E+00 0. -1.
          4   -1    0    0  501    0  0.00000000000E+00 -0.00000000000E+00 -0.24477503768E+02  0.24477503768E+02  0.00000000000E+00 0.  1.
         23    2    1    2    0    0 -0.38804531033E+01  0.10281072492E+02  0.12828598261E+03  0.15626293337E+03  0.88544071759E+02 0.  0.
         11    1    3    3    0    0 -0.27579457577E+02  0.36710588098E+02  0.10272257678E+03  0.11251764990E+03  0.00000000000E+00 0. -1.
        -11    1    3    3    0    0  0.23699004474E+02 -0.26429515605E+02  0.25563405824E+02  0.43745283466E+02  0.00000000000E+00 0.  1.
         22    1    1    2    0    0  0.38804531033E+01 -0.10281072492E+02 -0.76108216694E+01  0.13367235105E+02  0.00000000000E+00 0.  1.
<mgrwt>
<rscale>  0 0.52856530E+02</rscale>
<asrwt>0</asrwt>
<pdfrwt beam="1">  1        4 0.37657699E-02 0.89223377E+02</pdfrwt>
<pdfrwt beam="2">  1       -4 0.22331179E-01 0.89223377E+02</pdfrwt>
<totfact> 0.10037880E+04</totfact>
</mgrwt>
</event>
<event>
 6    1  0.1661841E-002  0.1030244E+03  0.7546771E-02  0.1349487E+00
         -2   -1    0    0    0  501 -0.00000000000E+00  0.00000000000E+00  0.12800518912E+02  0.12800518912E+02  0.00000000000E+00 0.  1.
          2   -1    0    0  501    0  0.00000000000E+00 -0.00000000000E+00 -0.36090333796E+03  0.36090333796E+03  0.00000000000E+00 0. -1.
         23    2    1    2    0    0  0.17776515860E+02  0.19353217499E+02 -0.21992573619E+03  0.24286075957E+03  0.99616602798E+02 0.  0.
         13    1    3    3    0    0  0.17008921341E+01 -0.72906319084E+01 -0.21009304609E+03  0.21022638836E+03  0.00000000000E+00 0. -1.
        -13    1    3    3    0    0  0.16075623726E+02  0.26643849408E+02 -0.98326901060E+01  0.32634371208E+02  0.00000000000E+00 0.  1.
         22    1    1    2    0    0 -0.17776515860E+02 -0.19353217499E+02 -0.12817708286E+03  0.13084309731E+03  0.00000000000E+00 0. -1.
<mgrwt>
<rscale>  0 0.73215741E+02</rscale>
<asrwt>0</asrwt>
<pdfrwt beam="1">  1        2 0.55523583E-01 0.10302436E+03</pdfrwt>
<pdfrwt beam="2">  1       -2 0.19693109E-02 0.10302436E+03</pdfrwt>
<totfact> 0.62702050E+04</totfact>
</mgrwt>
</event>
<event>
 6    1  0.1661841E-002  0.9996264E+02  0.7546771E-02  0.1325694E+00
         -1   -1    0    0    0  501 -0.00000000000E+00  0.00000000000E+00  0.47211155179E+02  0.47211155179E+02  0.00000000000E+00 0.  1.
          1   -1    0    0  501    0  0.00000000000E+00 -0.00000000000E+00 -0.28397751305E+03  0.28397751305E+03  0.00000000000E+00 0. -1.
         23    2    1    2    0    0 -0.35643375347E+02 -0.24956137507E+02 -0.10199657028E+02  0.10048164853E+03  0.89995942594E+02 0.  0.
         11    1    3    3    0    0 -0.46032306473E+00 -0.36931814472E+02  0.28630385831E+02  0.46731892860E+02  0.00000000000E+00 0.  1.
        -11    1    3    3    0    0 -0.35183052282E+02  0.11975676965E+02 -0.38830042858E+02  0.53749755674E+02  0.00000000000E+00 0. -1.
         22    1    1    2    0    0  0.35643375347E+02  0.24956137507E+02 -0.22656670084E+03  0.23070701969E+03  0.00000000000E+00 0. -1.
<mgrwt>
<rscale>  0 0.81195046E+02</rscale>
<asrwt>0</asrwt>
<pdfrwt beam="1">  1        1 0.43688847E-01 0.99962636E+02</pdfrwt>
<pdfrwt beam="2">  1       -1 0.72632548E-02 0.99962636E+02</pdfrwt>
<totfact> 0.86825245E+03</totfact>
</mgrwt>
</event>
<event>
 6    1  0.1661841E-002  0.9422064E+02  0.7546771E-02  0.1375988E+00
         -2   -1    0    0    0  501 -0.00000000000E+00  0.00000000000E+00  0.25968663987E+02  0.25968663987E+02  0.00000000000E+00 0.  1.
          2   -1    0    0  501    0  0.00000000000E+00 -0.00000000000E+00 -0.19991034293E+03  0.19991034293E+03  0.00000000000E+00 0. -1.
         23    2    1    2    0    0 -0.12119296644E+02  0.18415963513E+02 -0.64365728899E+02  0.11410730258E+03  0.91605154775E+02 0.  0.
         11    1    3    3    0    0 -0.29153762642E+02  0.19396097654E+02 -0.82247378384E+02  0.89391172558E+02  0.00000000000E+00 0. -1.
        -11    1    3    3    0    0  0.17034465998E+02 -0.98013414106E+00  0.17881649485E+02  0.24716130018E+02  0.00000000000E+00 0.  1.
         22    1    1    2    0    0  0.12119296644E+02 -0.18415963513E+02 -0.10957595004E+03  0.11177170434E+03  0.00000000000E+00 0. -1.
<mgrwt>
<rscale>  0 0.65530258E+02</rscale>
<asrwt>0</asrwt>
<pdfrwt beam="1">  1        2 0.30755438E-01 0.94220642E+02</pdfrwt>
<pdfrwt beam="2">  1       -2 0.39951790E-02 0.94220642E+02</pdfrwt>
<totfact> 0.41284830E+04</totfact>
</mgrwt>
</event>
<event>
 6    1  0.1661841E-002  0.9330478E+02  0.7546771E-02  0.1413061E+00
          1   -1    0    0  501    0  0.00000000000E+00  0.00000000000E+00  0.19426472418E+02  0.19426472418E+02  0.00000000000E+00 0. -1.
         -1   -1    0    0    0  501 -0.00000000000E+00 -0.00000000000E+00 -0.14641769625E+03  0.14641769625E+03  0.00000000000E+00 0.  1.
         23    2    1    2    0    0  0.32394269621E+01  0.12134851173E+02 -0.11782766782E+03  0.15029684546E+03  0.92455578266E+02 0.  0.
         13    1    3    3    0    0 -0.20354500905E+02 -0.36027695928E+01  0.73559735730E+01  0.21940738434E+02  0.00000000000E+00 0. -1.
        -13    1    3    3    0    0  0.23593927867E+02  0.15737620766E+02 -0.12518364139E+03  0.12835610703E+03  0.00000000000E+00 0.  1.
         22    1    1    2    0    0 -0.32394269621E+01 -0.12134851173E+02 -0.91635560132E+01  0.15547323205E+02  0.00000000000E+00 0. -1.
<mgrwt>
<rscale>  0 0.56516282E+02</rscale>
<asrwt>0</asrwt>
<pdfrwt beam="1">  1        1 0.29886881E-02 0.93304783E+02</pdfrwt>
<pdfrwt beam="2">  1       -1 0.22525799E-01 0.93304783E+02</pdfrwt>
<totfact> 0.49041644E+04</totfact>
</mgrwt>
</event>
<event>
 6    1  0.1661841E-002  0.9173679E+02  0.7546771E-02  0.1394397E+00
          4   -1    0    0  501    0  0.00000000000E+00  0.00000000000E+00  0.27211129536E+03  0.27211129536E+03  0.00000000000E+00 0. -1.
         -4   -1    0    0    0  501 -0.00000000000E+00 -0.00000000000E+00 -0.11138555034E+02  0.11138555034E+02  0.00000000000E+00 0.  1.
         23    2    1    2    0    0  0.51219034516E+01 -0.16974920744E+02  0.20638866923E+03  0.22585819031E+03  0.90006985930E+02 0.  0.
         11    1    3    3    0    0 -0.16501337900E+02 -0.31793245266E+02  0.27764356412E+02  0.45320680533E+02  0.00000000000E+00 0.  1.
        -11    1    3    3    0    0  0.21623241351E+02  0.14818324522E+02  0.17862431281E+03  0.18053750978E+03  0.00000000000E+00 0. -1.
         22    1    1    2    0    0 -0.51219034516E+01  0.16974920744E+02  0.54584071101E+02  0.57391660084E+02  0.00000000000E+00 0.  1.
<mgrwt>
<rscale>  0 0.60826083E+02</rscale>
<asrwt>0</asrwt>
<pdfrwt beam="1">  1        4 0.41863271E-01 0.91736794E+02</pdfrwt>
<pdfrwt beam="2">  1       -4 0.17136240E-02 0.91736794E+02</pdfrwt>
<totfact> 0.10461893E+04</totfact>
</mgrwt>
</event>
<event>
 6    1  0.1661841E-002  0.9143630E+02  0.7546771E-02  0.1408164E+00
          3   -1    0    0  501    0  0.00000000000E+00  0.00000000000E+00  0.32874216472E+03  0.32874216472E+03  0.00000000000E+00 0. -1.
         -3   -1    0    0    0  501 -0.00000000000E+00 -0.00000000000E+00 -0.87081267874E+01  0.87081267874E+01  0.00000000000E+00 0.  1.
         23    2    1    2    0    0  0.14340513264E+02  0.13579289435E+01  0.25669353148E+03  0.27249250484E+03  0.90294528051E+02 0.  0.
         11    1    3    3    0    0 -0.44502314743E+01  0.41603094231E+02  0.79747359162E+02  0.90057000300E+02  0.00000000000E+00 0.  1.
        -11    1    3    3    0    0  0.18790744739E+02 -0.40245165288E+02  0.17694617232E+03  0.18243550454E+03  0.00000000000E+00 0. -1.
         22    1    1    2    0    0 -0.14340513264E+02 -0.13579289435E+01  0.63340506448E+02  0.64957786668E+02  0.00000000000E+00 0.  1.
<mgrwt>
<rscale>  0 0.57605604E+02</rscale>
<asrwt>0</asrwt>
<pdfrwt beam="1">  1        3 0.50575708E-01 0.91436295E+02</pdfrwt>
<pdfrwt beam="2">  1       -3 0.13397121E-02 0.91436295E+02</pdfrwt>
<totfact> 0.14139350E+04</totfact>
</mgrwt>
</event>
<event>
 6    1  0.1661841E-002  0.9051178E+02  0.7546771E-02  0.1419609E+00
         -2   -1    0    0    0  501 -0.00000000000E+00  0.00000000000E+00  0.13523107629E+03  0.13523107629E+03  0.00000000000E+00 0.  1.
          2   -1    0    0  501    0  0.00000000000E+00 -0.00000000000E+00 -0.55475725471E+02  0.55475725471E+02  0.00000000000E+00 0. -1.
         23    2    1    2    0    0  0.69168639250E+01  0.10332350901E+02  0.11901661959E+03  0.14952370198E+03  0.89653673833E+02 0.  0.
         13    1    3    3    0    0 -0.12891505445E+02 -0.36027900532E+02  0.36850957361E+02  0.53124321999E+02  0.00000000000E+00 0. -1.
        -13    1    3    3    0    0  0.19808369370E+02  0.46360251433E+02  0.82165662231E+02  0.96399379977E+02  0.00000000000E+00 0.  1.
         22    1    1    2    0    0 -0.69168639250E+01 -0.10332350901E+02 -0.39261268777E+02  0.41183099782E+02  0.00000000000E+00 0. -1.
<mgrwt>
<rscale>  0 0.55103625E+02</rscale>
<asrwt>0</asrwt>
<pdfrwt beam="1">  1        2 0.85347270E-02 0.90511777E+02</pdfrwt>
<pdfrwt beam="2">  1       -2 0.20804781E-01 0.90511777E+02</pdfrwt>
<totfact> 0.13739595E+04</totfact>
</mgrwt>
</event>
<event>
 6    1  0.1661841E-002  0.8779452E+02  0.7546771E-02  0.1418669E+00
         -1   -1    0    0    0  501 -0.00000000000E+00  0.00000000000E+00  0.62158071406E+02  0.62158071406E+02  0.00000000000E+00 0.  1.
          1   -1    0    0  501    0  0.00000000000E+00 -0.00000000000E+00 -0.59514327007E+02  0.59514327007E+02  0.00000000000E+00 0. -1.
         23    2    1    2    0    0 -0.10620613267E+02 -0.88479448269E+01  0.28540653741E+02  0.92317101323E+02  0.86699450557E+02 0.  0.
         13    1    3    3    0    0 -0.29859386013E+02 -0.31620932687E+02 -0.89662703935E+01  0.44405633897E+02  0.00000000000E+00 0. -1.
        -13    1    3    3    0    0  0.19238772746E+02  0.22772987860E+02  0.37506924134E+02  0.47911467425E+02  0.00000000000E+00 0.  1.
         22    1    1    2    0    0  0.10620613267E+02  0.88479448269E+01 -0.25896909342E+02  0.29355297091E+02  0.00000000000E+00 0. -1.
<mgrwt>
<rscale>  0 0.55303610E+02</rscale>
<asrwt>0</asrwt>
<pdfrwt beam="1">  1        1 0.91560503E-02 0.87794523E+02</pdfrwt>
<pdfrwt beam="2">  1       -1 0.95627802E-02 0.87794523E+02</pdfrwt>
<totfact> 0.40659736E+04</totfact>
</mgrwt>
</event>
<event>
 6    1  0.1661841E-002  0.8914766E+02  0.7546771E-02  0.1430880E+00
          2   -1    0    0  501    0  0.00000000000E+00  0.00000000000E+00  0.41304148216E+02  0.41304148216E+02  0.00000000000E+00 0.  1.
         -2   -1    0    0    0  501 -0.00000000000E+00 -0.00000000000E+00 -0.61150533911E+02  0.61150533911E+02  0.00000000000E+00 0. -1.
         23    2    1    2    0    0 -0.10907555211E+02  0.10338833795E+01 -0.20515524608E+02  0.91477823632E+02  0.88471813540E+02 0.  0.
         13    1    3    3    0    0 -0.35173632466E+02  0.72745303631E+00  0.22732284950E+02  0.41886398602E+02  0.00000000000E+00 0.  1.
        -13    1    3    3    0    0  0.24266077255E+02  0.30643034319E+00 -0.43247809559E+02  0.49591425030E+02  0.00000000000E+00 0. -1.
         22    1    1    2    0    0  0.10907555211E+02 -0.10338833795E+01  0.66913891299E+00  0.10976858495E+02  0.00000000000E+00 0.  1.
<mgrwt>
<rscale>  0 0.52783706E+02</rscale>
<asrwt>0</asrwt>
<pdfrwt beam="1">  1        2 0.63544844E-02 0.89147661E+02</pdfrwt>
<pdfrwt beam="2">  1       -2 0.94077743E-02 0.89147661E+02</pdfrwt>
<totfact> 0.71044064E+04</totfact>
</mgrwt>
</event>
<event>
 6    1  0.1661841E-002  0.9252226E+02  0.7546771E-02  0.1401748E+00
         -2   -1    0    0    0  501 -0.00000000000E+00  0.00000000000E+00  0.32018052423E+02  0.32018052423E+02  0.00000000000E+00 0. -1.
          2   -1    0    0  501    0  0.00000000000E+00 -0.00000000000E+00 -0.98003983368E+02  0.98003983368E+02  0.00000000000E+00 0.  1.
         23    2    1    2    0    0  0.11682934696E+02  0.10000935645E+02 -0.42186455556E+02  0.10168610973E+03  0.91235180732E+02 0.  0.
         11    1    3    3    0    0  0.19855132465E+02  0.16188321967E+02 -0.68667406635E+02  0.73290523175E+02  0.00000000000E+00 0.  1.
        -11    1    3    3    0    0 -0.81721977691E+01 -0.61873863225E+01  0.26480951079E+02  0.28395586557E+02  0.00000000000E+00 0. -1.
         22    1    1    2    0    0 -0.11682934696E+02 -0.10000935645E+02 -0.23799475389E+02  0.28335926060E+02  0.00000000000E+00 0. -1.
<mgrwt>
<rscale>  0 0.59076638E+02</rscale>
<asrwt>0</asrwt>
<pdfrwt beam="1">  1        2 0.15077536E-01 0.92522256E+02</pdfrwt>
<pdfrwt beam="2">  1       -2 0.49258543E-02 0.92522256E+02</pdfrwt>
<totfact> 0.66653360E+04</totfact>
</mgrwt>
</event>
<event>
 6    1  0.1661841E-002  0.1121434E+03  0.7546771E-02  0.1285596E+00
         -4   -1    0    0    0  501 -0.00000000000E+00  0.00000000000E+00  0.46428529522E+02  0.46428529522E+02  0.00000000000E+00 0. -1.
          4   -1    0    0  501    0  0.00000000000E+00 -0.00000000000E+00 -0.16867977111E+03  0.16867977111E+03  0.00000000000E+00 0.  1.
         23    2    1    2    0    0  0.21757543399E+02 -0.60328615585E+02 -0.86945381215E+02  0.14190012944E+03  0.91995732870E+02 0.  0.
         11    1    3    3    0    0 -0.34925523500E+02 -0.10718809859E+02 -0.23742377299E+02  0.43570466561E+02  0.00000000000E+00 0.  1.
        -11    1    3    3    0    0  0.56683066899E+02 -0.49609805726E+02 -0.63203003916E+02  0.98329662876E+02  0.00000000000E+00 0. -1.
         22    1    1    2    0    0 -0.21757543399E+02  0.60328615585E+02 -0.35305860371E+02  0.73208171195E+02  0.00000000000E+00 0.  1.
<mgrwt>
<rscale>  0 0.97521260E+02</rscale>
<asrwt>0</asrwt>
<pdfrwt beam="1">  1        4 0.25950734E-01 0.11214342E+03</pdfrwt>
<pdfrwt beam="2">  1       -4 0.71428507E-02 0.11214342E+03</pdfrwt>
<totfact> 0.29155035E+03</totfact>
</mgrwt>
</event>
<event>
 6    1  0.1661841E-002  0.9972794E+02  0.7546771E-02  0.1329238E+00
          2   -1    0    0  501    0  0.00000000000E+00  0.00000000000E+00  0.26737510112E+03  0.26737510112E+03  0.00000000000E+00 0. -1.
         -2   -1    0    0    0  501 -0.00000000000E+00 -0.00000000000E+00 -0.18607604475E+02  0.18607604475E+02  0.00000000000E+00 0.  1.
         23    2    1    2    0    0 -0.35423593394E+02 -0.20961414574E+02  0.18255519240E+03  0.20801937381E+03  0.90837490812E+02 0.  0.
         11    1    3    3    0    0  0.69086233157E+01 -0.35084758056E+02  0.14605130583E+03  0.15036506662E+03  0.00000000000E+00 0. -1.
        -11    1    3    3    0    0 -0.42332216710E+02  0.14123343482E+02  0.36503886565E+02  0.57654307186E+02  0.00000000000E+00 0.  1.
         22    1    1    2    0    0  0.35423593394E+02  0.20961414574E+02  0.66212304243E+02  0.77963331786E+02  0.00000000000E+00 0.  1.
<mgrwt>
<rscale>  0 0.79934377E+02</rscale>
<asrwt>0</asrwt>
<pdfrwt beam="1">  1        2 0.41134628E-01 0.99727938E+02</pdfrwt>
<pdfrwt beam="2">  1       -2 0.28627086E-02 0.99727938E+02</pdfrwt>
<totfact> 0.49775615E+04</totfact>
</mgrwt>
</event>
<event>
 6    1  0.1661841E-002  0.9156482E+02  0.7546771E-02  0.1424722E+00
          2   -1    0    0  501    0  0.00000000000E+00  0.00000000000E+00  0.16103894687E+03  0.16103894687E+03  0.00000000000E+00 0. -1.
         -2   -1    0    0    0  501 -0.00000000000E+00 -0.00000000000E+00 -0.17434375080E+02  0.17434375080E+02  0.00000000000E+00 0.  1.
         23    2    1    2    0    0 -0.65100995399E+01  0.89957796658E+01  0.11022804143E+03  0.14329807175E+03  0.90889002643E+02 0.  0.
         11    1    3    3    0    0  0.35894603593E+02  0.27160277879E+02  0.47580008826E+02  0.65497790050E+02  0.00000000000E+00 0.  1.
        -11    1    3    3    0    0 -0.42404703133E+02 -0.18164498214E+02  0.62648032601E+02  0.77800281696E+02  0.00000000000E+00 0. -1.
         22    1    1    2    0    0  0.65100995399E+01 -0.89957796658E+01  0.33376530359E+02  0.35175250199E+02  0.00000000000E+00 0. -1.
<mgrwt>
<rscale>  0 0.54034267E+02</rscale>
<asrwt>0</asrwt>
<pdfrwt beam="1">  1        2 0.24775222E-01 0.91564820E+02</pdfrwt>
<pdfrwt beam="2">  1       -2 0.26822117E-02 0.91564820E+02</pdfrwt>
<totfact> 0.92894898E+04</totfact>
</mgrwt>
</event>
<event>
 6    1  0.1661841E-002  0.9138544E+02  0.7546771E-02  0.1361754E+00
          2   -1    0    0  501    0  0.00000000000E+00  0.00000000000E+00  0.90998673308E+01  0.90998673308E+01  0.00000000000E+00 0. -1.
         -2   -1    0    0    0  501 -0.00000000000E+00 -0.00000000000E+00 -0.48371402896E+03  0.48371402896E+03  0.00000000000E+00 0.  1.
         23    2    1    2    0    0 -0.19247256283E+01  0.30534468366E+02 -0.42345913063E+03  0.43320772611E+03  0.86111789664E+02 0.  0.
         11    1    3    3    0    0  0.16240416576E+02 -0.71705866075E+01 -0.16935225131E+02  0.24535082904E+02  0.00000000000E+00 0. -1.
        -11    1    3    3    0    0 -0.18165142204E+02  0.37705054973E+02 -0.40652390550E+03  0.40867264321E+03  0.00000000000E+00 0.  1.
         22    1    1    2    0    0  0.19247256283E+01 -0.30534468366E+02 -0.51155030990E+02  0.59606170174E+02  0.00000000000E+00 0.  1.
<mgrwt>
<rscale>  0 0.69513734E+02</rscale>
<asrwt>0</asrwt>
<pdfrwt beam="1">  1        2 0.13999799E-02 0.91385440E+02</pdfrwt>
<pdfrwt beam="2">  1       -2 0.74417527E-01 0.91385440E+02</pdfrwt>
<totfact> 0.13332070E+04</totfact>
</mgrwt>
</event>
<event>
 6    1  0.1661841E-002  0.9338519E+02  0.7546771E-02  0.1402052E+00
          2   -1    0    0  501    0  0.00000000000E+00  0.00000000000E+00  0.79358793601E+01  0.79358793601E+01  0.00000000000E+00 0. -1.
         -2   -1    0    0    0  501 -0.00000000000E+00 -0.00000000000E+00 -0.46472688972E+03  0.46472688972E+03  0.00000000000E+00 0.  1.
         23    2    1    2    0    0 -0.11512863129E+02  0.94344982171E+01 -0.44170851822E+03  0.45147226783E+03  0.92191310748E+02 0.  0.
         11    1    3    3    0    0 -0.10753639938E+02 -0.11788654516E+02 -0.91523024815E+01  0.18395047919E+02  0.00000000000E+00 0. -1.
        -11    1    3    3    0    0 -0.75922319074E+00  0.21223152734E+02 -0.43255621574E+03  0.43307721991E+03  0.00000000000E+00 0.  1.
         22    1    1    2    0    0  0.11512863129E+02 -0.94344982171E+01 -0.15082492136E+02  0.21190501246E+02  0.00000000000E+00 0.  1.
<mgrwt>
<rscale>  0 0.59005689E+02</rscale>
<asrwt>0</asrwt>
<pdfrwt beam="1">  1        2 0.12209047E-02 0.93385189E+02</pdfrwt>
<pdfrwt beam="2">  1       -2 0.71496432E-01 0.93385189E+02</pdfrwt>
<totfact> 0.17546535E+04</totfact>
</mgrwt>
</event>
<event>
 6    1  0.1661841E-002  0.9202680E+02  0.7546771E-02  0.1404677E+00
         -4   -1    0    0    0  501 -0.00000000000E+00  0.00000000000E+00  0.19747052549E+02  0.19747052549E+02  0.00000000000E+00 0.  1.
          4   -1    0    0  501    0  0.00000000000E+00 -0.00000000000E+00 -0.16096399075E+03  0.16096399075E+03  0.00000000000E+00 0. -1.
         23    2    1    2    0    0 -0.14590014147E+02 -0.31372699593E+01 -0.95518326849E+02  0.13263741170E+03  0.90808706866E+02 0.  0.
         13    1    3    3    0    0  0.14082561597E+02  0.37195627536E+02 -0.26815142012E+02  0.47967542047E+02  0.00000000000E+00 0.  1.
        -13    1    3    3    0    0 -0.28672575744E+02 -0.40332897495E+02 -0.68703184837E+02  0.84669869652E+02  0.00000000000E+00 0. -1.
         22    1    1    2    0    0  0.14590014147E+02  0.31372699593E+01 -0.45698611348E+02  0.48073631595E+02  0.00000000000E+00 0.  1.
<mgrwt>
<rscale>  0 0.58398736E+02</rscale>
<asrwt>0</asrwt>
<pdfrwt beam="1">  1        4 0.24763691E-01 0.92026802E+02</pdfrwt>
<pdfrwt beam="2">  1       -4 0.30380080E-02 0.92026802E+02</pdfrwt>
<totfact> 0.11743161E+04</totfact>
</mgrwt>
</event>
<event>
 6    1  0.1661841E-002  0.9049307E+02  0.7546771E-02  0.1371129E+00
         -2   -1    0    0    0  501 -0.00000000000E+00  0.00000000000E+00  0.11348401195E+02  0.11348401195E+02  0.00000000000E+00 0.  1.
          2   -1    0    0  501    0  0.00000000000E+00 -0.00000000000E+00 -0.31587430385E+03  0.31587430385E+03  0.00000000000E+00 0. -1.
         23    2    1    2    0    0 -0.26306748894E+02 -0.58843428724E+01 -0.20448856112E+03  0.22361700911E+03  0.86384747535E+02 0.  0.
         13    1    3    3    0    0 -0.27767655384E+02 -0.60512725743E+01 -0.21304651110E+03  0.21493365599E+03  0.00000000000E+00 0. -1.
        -13    1    3    3    0    0  0.14609064898E+01  0.16692970195E+00  0.85579499883E+01  0.86833531139E+01  0.00000000000E+00 0.  1.
         22    1    1    2    0    0  0.26306748894E+02  0.58843428724E+01 -0.10003734154E+03  0.10360569594E+03  0.00000000000E+00 0. -1.
<mgrwt>
<rscale>  0 0.66854196E+02</rscale>
<asrwt>0</asrwt>
<pdfrwt beam="1">  1        2 0.48596046E-01 0.90493067E+02</pdfrwt>
<pdfrwt beam="2">  1       -2 0.17459079E-02 0.90493067E+02</pdfrwt>
<totfact> 0.84207796E+04</totfact>
</mgrwt>
</event>
<event>
 6    1  0.1661841E-002  0.1006890E+03  0.7546771E-02  0.1327130E+00
          3   -1    0    0  501    0  0.00000000000E+00  0.00000000000E+00  0.18392572774E+03  0.18392572774E+03  0.00000000000E+00 0. -1.
         -3   -1    0    0    0  501 -0.00000000000E+00 -0.00000000000E+00 -0.30226651763E+02  0.30226651763E+02  0.00000000000E+00 0.  1.
         23    2    1    2    0    0 -0.24055881350E+02  0.33827536466E+02  0.76327029704E+02  0.12634906980E+03  0.91734858829E+02 0.  0.
         11    1    3    3    0    0 -0.50174951134E+02 -0.85591829049E+01  0.38266327473E+02  0.63679644719E+02  0.00000000000E+00 0.  1.
        -11    1    3    3    0    0  0.26119069783E+02  0.42386719371E+02  0.38060702231E+02  0.62669425079E+02  0.00000000000E+00 0. -1.
         22    1    1    2    0    0  0.24055881350E+02 -0.33827536466E+02  0.77372046276E+02  0.87803309708E+02  0.00000000000E+00 0. -1.
<mgrwt>
<rscale>  0 0.80681088E+02</rscale>
<asrwt>0</asrwt>
<pdfrwt beam="1">  1        3 0.28296265E-01 0.10068899E+03</pdfrwt>
<pdfrwt beam="2">  1       -3 0.46502542E-02 0.10068899E+03</pdfrwt>
<totfact> 0.65253095E+03</totfact>
</mgrwt>
</event>
<event>
 6    1  0.1661841E-002  0.9410481E+02  0.7546771E-02  0.1405401E+00
         -1   -1    0    0    0  501 -0.00000000000E+00  0.00000000000E+00  0.32777135865E+02  0.32777135865E+02  0.00000000000E+00 0.  1.
          1   -1    0    0  501    0  0.00000000000E+00 -0.00000000000E+00 -0.88932092868E+02  0.88932092868E+02  0.00000000000E+00 0. -1.
         23    2    1    2    0    0 -0.12667735827E+02  0.54709030717E+01 -0.47408986562E+02  0.10537232847E+03  0.93087664531E+02 0.  0.
         11    1    3    3    0    0  0.24509891753E+02 -0.22330115868E+02 -0.48718636240E+02  0.58931098628E+02  0.00000000000E+00 0.  1.
        -11    1    3    3    0    0 -0.37177627579E+02  0.27801018940E+02  0.13096496771E+01  0.46441229837E+02  0.00000000000E+00 0. -1.
         22    1    1    2    0    0  0.12667735827E+02 -0.54709030717E+01 -0.87459704406E+01  0.16336900267E+02  0.00000000000E+00 0. -1.
<mgrwt>
<rscale>  0 0.58232830E+02</rscale>
<asrwt>0</asrwt>
<pdfrwt beam="1">  1        1 0.13681860E-01 0.94104812E+02</pdfrwt>
<pdfrwt beam="2">  1       -1 0.50426363E-02 0.94104812E+02</pdfrwt>
<totfact> 0.62904496E+04</totfact>
</mgrwt>
</event>
<event>
 6    1  0.1661841E-002  0.8377703E+02  0.7546771E-02  0.1402240E+00
          1   -1    0    0  501    0  0.00000000000E+00  0.00000000000E+00  0.40547444304E+01  0.40547444304E+01  0.00000000000E+00 0. -1.
         -1   -1    0    0    0  501 -0.00000000000E+00 -0.00000000000E+00 -0.73831045424E+03  0.73831045424E+03  0.00000000000E+00 0.  1.
         23    2    1    2    0    0  0.19296576035E+02  0.70814558701E+01 -0.66074016822E+03  0.66603014958E+03  0.81216287718E+02 0.  0.
         11    1    3    3    0    0  0.41997104173E+02  0.19714653764E+02 -0.56260007689E+03  0.56450976152E+03  0.00000000000E+00 0.  1.
        -11    1    3    3    0    0 -0.22700528138E+02 -0.12633197894E+02 -0.98140091332E+02  0.10152038807E+03  0.00000000000E+00 0. -1.
         22    1    1    2    0    0 -0.19296576035E+02 -0.70814558701E+01 -0.73515541586E+02  0.76335049084E+02  0.00000000000E+00 0.  1.
<mgrwt>
<rscale>  0 0.58962063E+02</rscale>
<asrwt>0</asrwt>
<pdfrwt beam="1">  1        1 0.62380778E-03 0.83777027E+02</pdfrwt>
<pdfrwt beam="2">  1       -1 0.11358605E+00 0.83777027E+02</pdfrwt>
<totfact> 0.20976942E+04</totfact>
</mgrwt>
</event>
<event>
 6    1  0.1661841E-002  0.9592229E+02  0.7546771E-02  0.1357487E+00
         -3   -1    0    0    0  501 -0.00000000000E+00  0.00000000000E+00  0.25556327545E+03  0.25556327545E+03  0.00000000000E+00 0.  1.
          3   -1    0    0  501    0  0.00000000000E+00 -0.00000000000E+00 -0.16634371467E+02  0.16634371467E+02  0.00000000000E+00 0. -1.
         23    2    1    2    0    0  0.24000408989E+02 -0.15228801954E+02  0.21350196355E+03  0.23406019366E+03  0.91614135258E+02 0.  0.
         13    1    3    3    0    0  0.84539759187E+01 -0.23286354891E+02  0.55695784374E+01  0.25391814369E+02  0.00000000000E+00 0. -1.
        -13    1    3    3    0    0  0.15546433070E+02  0.80575529374E+01  0.20793238511E+03  0.20866837929E+03  0.00000000000E+00 0.  1.
         22    1    1    2    0    0 -0.24000408989E+02  0.15228801954E+02  0.25426940433E+02  0.38137453250E+02  0.00000000000E+00 0. -1.
<mgrwt>
<rscale>  0 0.70772050E+02</rscale>
<asrwt>0</asrwt>
<pdfrwt beam="1">  1        3 0.25591343E-02 0.95922291E+02</pdfrwt>
<pdfrwt beam="2">  1       -3 0.39317424E-01 0.95922291E+02</pdfrwt>
<totfact> 0.87910765E+03</totfact>
</mgrwt>
</event>
<event>
 6    1  0.1661841E-002  0.9358158E+02  0.7546771E-02  0.1383987E+00
         -4   -1    0    0    0  501 -0.00000000000E+00  0.00000000000E+00  0.58707741373E+03  0.58707741373E+03  0.00000000000E+00 0. -1.
          4   -1    0    0  501    0  0.00000000000E+00 -0.00000000000E+00 -0.54819476464E+01  0.54819476464E+01  0.00000000000E+00 0.  1.
         23    2    1    2    0    0  0.12011091346E+02  0.15676139152E+02  0.49059622507E+03  0.49944185755E+03  0.91474069358E+02 0.  0.
         11    1    3    3    0    0  0.31946821625E+02  0.28408285160E+02  0.10856487545E+03  0.11667888523E+03  0.00000000000E+00 0.  1.
        -11    1    3    3    0    0 -0.19935730279E+02 -0.12732146008E+02  0.38203134962E+03  0.38276297232E+03  0.00000000000E+00 0. -1.
         22    1    1    2    0    0 -0.12011091346E+02 -0.15676139152E+02  0.90999241016E+02  0.93117503830E+02  0.00000000000E+00 0.  1.
<mgrwt>
<rscale>  0 0.63427404E+02</rscale>
<asrwt>0</asrwt>
<pdfrwt beam="1">  1        4 0.84337703E-03 0.93581585E+02</pdfrwt>
<pdfrwt beam="2">  1       -4 0.90319552E-01 0.93581585E+02</pdfrwt>
<totfact> 0.60964051E+03</totfact>
</mgrwt>
</event>
<event>
 6    1  0.1661841E-002  0.9427359E+02  0.7546771E-02  0.1412152E+00
         -3   -1    0    0    0  501 -0.00000000000E+00  0.00000000000E+00  0.11618331305E+03  0.11618331305E+03  0.00000000000E+00 0.  1.
          3   -1    0    0  501    0  0.00000000000E+00 -0.00000000000E+00 -0.36331009296E+02  0.36331009296E+02  0.00000000000E+00 0. -1.
         23    2    1    2    0    0 -0.12304614464E+02 -0.10577487844E+01  0.94412923920E+02  0.13342154808E+03  0.93461151922E+02 0.  0.
         11    1    3    3    0    0 -0.29301399512E+02  0.10853366068E+02  0.10540260376E+03  0.10993669291E+03  0.00000000000E+00 0.  1.
        -11    1    3    3    0    0  0.16996785048E+02 -0.11911114852E+02 -0.10989679844E+02  0.23484855164E+02  0.00000000000E+00 0. -1.
         22    1    1    2    0    0  0.12304614464E+02  0.10577487844E+01 -0.14560620167E+02  0.19092774268E+02  0.00000000000E+00 0. -1.
<mgrwt>
<rscale>  0 0.56716473E+02</rscale>
<asrwt>0</asrwt>
<pdfrwt beam="1">  1        3 0.55893861E-02 0.94273587E+02</pdfrwt>
<pdfrwt beam="2">  1       -3 0.17874356E-01 0.94273587E+02</pdfrwt>
<totfact> 0.10861009E+04</totfact>
</mgrwt>
</event>
<event>
 6    1  0.1661841E-002  0.9367819E+02  0.7546771E-02  0.1384216E+00
          2   -1    0    0  501    0  0.00000000000E+00  0.00000000000E+00  0.15215189419E+03  0.15215189419E+03  0.00000000000E+00 0. -1.
         -2   -1    0    0    0  501 -0.00000000000E+00 -0.00000000000E+00 -0.21453308362E+02  0.21453308362E+02  0.00000000000E+00 0.  1.
         23    2    1    2    0    0 -0.15951826763E+00  0.19613735321E+02  0.98738001235E+02  0.13610582887E+03  0.91601745093E+02 0.  0.
         11    1    3    3    0    0  0.12422375537E+02 -0.32273247460E+02  0.62972006980E+02  0.71842547134E+02  0.00000000000E+00 0. -1.
        -11    1    3    3    0    0 -0.12581893805E+02  0.51886982781E+02  0.35765994255E+02  0.64263281732E+02  0.00000000000E+00 0.  1.
         22    1    1    2    0    0  0.15951826763E+00 -0.19613735321E+02  0.31960584593E+02  0.37499373686E+02  0.00000000000E+00 0. -1.
<mgrwt>
<rscale>  0 0.63368371E+02</rscale>
<asrwt>0</asrwt>
<pdfrwt beam="1">  1        2 0.23407983E-01 0.93678193E+02</pdfrwt>
<pdfrwt beam="2">  1       -2 0.33005091E-02 0.93678193E+02</pdfrwt>
<totfact> 0.73348379E+04</totfact>
</mgrwt>
</event>
<event>
 6    1  0.1661841E-002  0.8926606E+02  0.7546771E-02  0.1375492E+00
         -2   -1    0    0    0  501 -0.00000000000E+00  0.00000000000E+00  0.36476317201E+02  0.36476317201E+02  0.00000000000E+00 0.  1.
          2   -1    0    0  501    0  0.00000000000E+00 -0.00000000000E+00 -0.11436405258E+03  0.11436405258E+03  0.00000000000E+00 0. -1.
         23    2    1    2    0    0  0.26135405858E+02  0.19666889100E+00 -0.26382311726E+02  0.93083060427E+02  0.85354154254E+02 0.  0.
         13    1    3    3    0    0  0.26309334052E+02  0.28281502483E+02  0.16352446391E+02  0.41945523527E+02  0.00000000000E+00 0.  1.
        -13    1    3    3    0    0 -0.17392819387E+00 -0.28084833592E+02 -0.42734758117E+02  0.51137536900E+02  0.00000000000E+00 0. -1.
         22    1    1    2    0    0 -0.26135405858E+02 -0.19666889100E+00 -0.51505423653E+02  0.57757309353E+02  0.00000000000E+00 0. -1.
<mgrwt>
<rscale>  0 0.65663672E+02</rscale>
<asrwt>0</asrwt>
<pdfrwt beam="1">  1        2 0.17594470E-01 0.89266062E+02</pdfrwt>
<pdfrwt beam="2">  1       -2 0.56117410E-02 0.89266062E+02</pdfrwt>
<totfact> 0.45766288E+04</totfact>
</mgrwt>
</event>
<event>
 6    1  0.1661841E-002  0.9494025E+02  0.7546771E-02  0.1364539E+00
         -1   -1    0    0    0  501 -0.00000000000E+00  0.00000000000E+00  0.24930085063E+02  0.24930085063E+02  0.00000000000E+00 0.  1.
          1   -1    0    0  501    0  0.00000000000E+00 -0.00000000000E+00 -0.21171996488E+03  0.21171996488E+03  0.00000000000E+00 0. -1.
         23    2    1    2    0    0  0.12825748563E+02 -0.22666672425E+02 -0.72571558060E+02  0.11950013364E+03  0.91298264143E+02 0.  0.
         13    1    3    3    0    0  0.28483285522E+02 -0.40976619170E+02 -0.79489946514E+01  0.50532834758E+02  0.00000000000E+00 0.  1.
        -13    1    3    3    0    0 -0.15657536960E+02  0.18309946744E+02 -0.64622563408E+02  0.68967298881E+02  0.00000000000E+00 0. -1.
         22    1    1    2    0    0 -0.12825748563E+02  0.22666672425E+02 -0.11421832176E+03  0.11714991631E+03  0.00000000000E+00 0. -1.
<mgrwt>
<rscale>  0 0.68709016E+02</rscale>
<asrwt>0</asrwt>
<pdfrwt beam="1">  1        1 0.32572302E-01 0.94940249E+02</pdfrwt>
<pdfrwt beam="2">  1       -1 0.38353978E-02 0.94940249E+02</pdfrwt>
<totfact> 0.31626403E+04</totfact>
</mgrwt>
</event>
<event>
 6    1  0.1661841E-002  0.9681690E+02  0.7546771E-02  0.1361357E+00
          2   -1    0    0  501    0  0.00000000000E+00  0.00000000000E+00  0.24876987931E+02  0.24876987931E+02  0.00000000000E+00 0. -1.
         -2   -1    0    0    0  501 -0.00000000000E+00 -0.00000000000E+00 -0.21551059593E+03  0.21551059593E+03  0.00000000000E+00 0.  1.
         23    2    1    2    0    0  0.23613896161E+02  0.10642703351E+02 -0.19137971957E+03  0.21447542631E+03  0.93287878126E+02 0.  0.
         11    1    3    3    0    0 -0.28208180749E+01 -0.14247879731E+02 -0.17331203816E+03  0.17391958390E+03  0.00000000000E+00 0.  1.
        -11    1    3    3    0    0  0.26434714236E+02  0.24890583082E+02 -0.18067681405E+02  0.40555842418E+02  0.00000000000E+00 0. -1.
         22    1    1    2    0    0 -0.23613896161E+02 -0.10642703351E+02  0.74611156174E+00  0.25912157551E+02  0.00000000000E+00 0. -1.
<mgrwt>
<rscale>  0 0.69629654E+02</rscale>
<asrwt>0</asrwt>
<pdfrwt beam="1">  1        2 0.38272287E-02 0.96816896E+02</pdfrwt>
<pdfrwt beam="2">  1       -2 0.33155478E-01 0.96816896E+02</pdfrwt>
<totfact> 0.17071884E+04</totfact>
</mgrwt>
</event>
<event>
 6    1  0.1661841E-002  0.9425364E+02  0.7546771E-02  0.1367948E+00
          2   -1    0    0  501    0  0.00000000000E+00  0.00000000000E+00  0.65627038172E+01  0.65627038172E+01  0.00000000000E+00 0. -1.
         -2   -1    0    0    0  501 -0.00000000000E+00 -0.00000000000E+00 -0.56532232230E+03  0.56532232230E+03  0.00000000000E+00 0.  1.
         23    2    1    2    0    0 -0.13449768563E+02 -0.21249743315E+02 -0.48140379097E+03  0.49054394231E+03  0.90836674904E+02 0.  0.
         11    1    3    3    0    0  0.38755109203E+01 -0.40093736536E+02 -0.44017927902E+03  0.44201846678E+03  0.00000000000E+00 0.  1.
        -11    1    3    3    0    0 -0.17325279484E+02  0.18843993220E+02 -0.41224511948E+02  0.48525475526E+02  0.00000000000E+00 0. -1.
         22    1    1    2    0    0  0.13449768563E+02  0.21249743315E+02 -0.77355827511E+02  0.81341083809E+02  0.00000000000E+00 0.  1.
<mgrwt>
<rscale>  0 0.67741016E+02</rscale>
<asrwt>0</asrwt>
<pdfrwt beam="1">  1        2 0.10096467E-02 0.94253644E+02</pdfrwt>
<pdfrwt beam="2">  1       -2 0.86972668E-01 0.94253644E+02</pdfrwt>
<totfact> 0.14903999E+04</totfact>
</mgrwt>
</event>
<event>
 6    1  0.1661841E-002  0.9195382E+02  0.7546771E-02  0.1408724E+00
          3   -1    0    0  501    0  0.00000000000E+00  0.00000000000E+00  0.10565814951E+02  0.10565814951E+02  0.00000000000E+00 0. -1.
         -3   -1    0    0    0  501 -0.00000000000E+00 -0.00000000000E+00 -0.28932472555E+03  0.28932472555E+03  0.00000000000E+00 0.  1.
         23    2    1    2    0    0 -0.13357691258E+02 -0.43211208139E+01 -0.26383898315E+03  0.27940385615E+03  0.90875771240E+02 0.  0.
         11    1    3    3    0    0 -0.57923027050E+01 -0.29651349296E+02 -0.24520857390E+03  0.24706274101E+03  0.00000000000E+00 0.  1.
        -11    1    3    3    0    0 -0.75653885528E+01  0.25330228483E+02 -0.18630409255E+02  0.32341115131E+02  0.00000000000E+00 0. -1.
         22    1    1    2    0    0  0.13357691258E+02  0.43211208139E+01 -0.14919927450E+02  0.20486684357E+02  0.00000000000E+00 0.  1.
<mgrwt>
<rscale>  0 0.57479526E+02</rscale>
<asrwt>0</asrwt>
<pdfrwt beam="1">  1        3 0.16255103E-02 0.91953824E+02</pdfrwt>
<pdfrwt beam="2">  1       -3 0.44511489E-01 0.91953824E+02</pdfrwt>
<totfact> 0.13614380E+04</totfact>
</mgrwt>
</event>
<event>
 6    1  0.1661841E-002  0.9418119E+02  0.7546771E-02  0.1367575E+00
          1   -1    0    0  501    0  0.00000000000E+00  0.00000000000E+00  0.30379714764E+03  0.30379714764E+03  0.00000000000E+00 0. -1.
         -1   -1    0    0    0  501 -0.00000000000E+00 -0.00000000000E+00 -0.12404029998E+02  0.12404029998E+02  0.00000000000E+00 0.  1.
         23    2    1    2    0    0 -0.20891100230E+02  0.14382193537E+02  0.19538667839E+03  0.21690101682E+03  0.90701772018E+02 0.  0.
         11    1    3    3    0    0 -0.50984395203E+02  0.19041635194E+01  0.16365515284E+03  0.17142357902E+03  0.00000000000E+00 0. -1.
        -11    1    3    3    0    0  0.30093294973E+02  0.12478030017E+02  0.31731525546E+02  0.45477437800E+02  0.00000000000E+00 0.  1.
         22    1    1    2    0    0  0.20891100230E+02 -0.14382193537E+02  0.96006439253E+02  0.99300160815E+02  0.00000000000E+00 0.  1.
<mgrwt>
<rscale>  0 0.67845901E+02</rscale>
<asrwt>0</asrwt>
<pdfrwt beam="1">  1        1 0.46738017E-01 0.94181192E+02</pdfrwt>
<pdfrwt beam="2">  1       -1 0.19083125E-02 0.94181192E+02</pdfrwt>
<totfact> 0.55465084E+04</totfact>
</mgrwt>
</event>
<event>
 6    1  0.1661841E-002  0.9420574E+02  0.7546771E-02  0.1378180E+00
          2   -1    0    0  501    0  0.00000000000E+00  0.00000000000E+00  0.37953528720E+02  0.37953528720E+02  0.00000000000E+00 0. -1.
         -2   -1    0    0    0  501 -0.00000000000E+00 -0.00000000000E+00 -0.98755393146E+02  0.98755393146E+02  0.00000000000E+00 0.  1.
         23    2    1    2    0    0 -0.19780886852E+02  0.78418500035E+01 -0.29230844908E+02  0.98636525441E+02  0.91771148848E+02 0.  0.
         11    1    3    3    0    0 -0.25919058573E+02 -0.35560877950E+02 -0.32463000881E+02  0.54682904679E+02  0.00000000000E+00 0. -1.
        -11    1    3    3    0    0  0.61381717211E+01  0.43402727953E+02  0.32321559731E+01  0.43953620762E+02  0.00000000000E+00 0.  1.
         22    1    1    2    0    0  0.19780886852E+02 -0.78418500035E+01 -0.31571019518E+02  0.38072396425E+02  0.00000000000E+00 0.  1.
<mgrwt>
<rscale>  0 0.64944699E+02</rscale>
<asrwt>0</asrwt>
<pdfrwt beam="1">  1        2 0.58390044E-02 0.94205742E+02</pdfrwt>
<pdfrwt beam="2">  1       -2 0.15193137E-01 0.94205742E+02</pdfrwt>
<totfact> 0.37358558E+04</totfact>
</mgrwt>
</event>
<event>
 6    1  0.1661841E-002  0.8897232E+02  0.7546771E-02  0.1412505E+00
          3   -1    0    0  501    0  0.00000000000E+00  0.00000000000E+00  0.11887266263E+03  0.11887266263E+03  0.00000000000E+00 0. -1.
         -3   -1    0    0    0  501 -0.00000000000E+00 -0.00000000000E+00 -0.41693554950E+02  0.41693554950E+02  0.00000000000E+00 0.  1.
         23    2    1    2    0    0 -0.32274410124E+01  0.14250250995E+02  0.74063950264E+01  0.89280051601E+02  0.87764382854E+02 0.  0.
         13    1    3    3    0    0 -0.21614621690E+02  0.37770692396E+02 -0.20777452123E+02  0.48223641418E+02  0.00000000000E+00 0.  1.
        -13    1    3    3    0    0  0.18387180678E+02 -0.23520441401E+02  0.28183847150E+02  0.41056410183E+02  0.00000000000E+00 0. -1.
         22    1    1    2    0    0  0.32274410124E+01 -0.14250250995E+02  0.69772712652E+02  0.71286165977E+02  0.00000000000E+00 0. -1.
<mgrwt>
<rscale>  0 0.56638579E+02</rscale>
<asrwt>0</asrwt>
<pdfrwt beam="1">  1        3 0.18288102E-01 0.88972316E+02</pdfrwt>
<pdfrwt beam="2">  1       -3 0.64143931E-02 0.88972316E+02</pdfrwt>
<totfact> 0.82806844E+03</totfact>
</mgrwt>
</event>
<event>
 6    1  0.1661841E-002  0.9767734E+02  0.7546771E-02  0.1393103E+00
          2   -1    0    0  501    0  0.00000000000E+00  0.00000000000E+00  0.27699327816E+02  0.27699327816E+02  0.00000000000E+00 0. -1.
         -2   -1    0    0    0  501 -0.00000000000E+00 -0.00000000000E+00 -0.12132867393E+03  0.12132867393E+03  0.00000000000E+00 0.  1.
         23    2    1    2    0    0 -0.65295801196E+01  0.13499171188E+02 -0.91577446937E+02  0.13389283311E+03  0.96519422566E+02 0.  0.
         11    1    3    3    0    0  0.19035061419E+02  0.46633127573E+02 -0.71542041049E+02  0.87494261457E+02  0.00000000000E+00 0.  1.
        -11    1    3    3    0    0 -0.25564641538E+02 -0.33133956385E+02 -0.20035405888E+02  0.46398571657E+02  0.00000000000E+00 0. -1.
         22    1    1    2    0    0  0.65295801196E+01 -0.13499171188E+02 -0.20518991778E+01  0.15135168633E+02  0.00000000000E+00 0.  1.
<mgrwt>
<rscale>  0 0.61141363E+02</rscale>
<asrwt>0</asrwt>
<pdfrwt beam="1">  1        2 0.42614351E-02 0.97677336E+02</pdfrwt>
<pdfrwt beam="2">  1       -2 0.18665949E-01 0.97677336E+02</pdfrwt>
<totfact> 0.40216349E+04</totfact>
</mgrwt>
</event>
<event>
 6    1  0.1661841E-002  0.8822896E+02  0.7546771E-02  0.1426135E+00
          2   -1    0    0  501    0  0.00000000000E+00  0.00000000000E+00  0.76692529689E+01  0.76692529689E+01  0.00000000000E+00 0.  1.
         -2   -1    0    0    0  501 -0.00000000000E+00 -0.00000000000E+00 -0.33149846765E+03  0.33149846765E+03  0.00000000000E+00 0. -1.
         23    2    1    2    0    0 -0.17286029439E+01 -0.12023564931E+02 -0.29420787117E+03  0.30715244031E+03  0.87388763287E+02 0.  0.
         11    1    3    3    0    0 -0.37643071946E+02 -0.51244336937E+00 -0.22687168306E+03  0.22997396382E+03  0.00000000000E+00 0. -1.
        -11    1    3    3    0    0  0.35914469002E+02 -0.11511121562E+02 -0.67336188111E+02  0.77178476485E+02  0.00000000000E+00 0.  1.
         22    1    1    2    0    0  0.17286029439E+01  0.12023564931E+02 -0.29621343517E+02  0.32015280313E+02  0.00000000000E+00 0.  1.
<mgrwt>
<rscale>  0 0.53743671E+02</rscale>
<asrwt>0</asrwt>
<pdfrwt beam="1">  1        2 0.11798849E-02 0.88228964E+02</pdfrwt>
<pdfrwt beam="2">  1       -2 0.50999773E-01 0.88228964E+02</pdfrwt>
<totfact> 0.36346517E+04</totfact>
</mgrwt>
</event>
<event>
 6    1  0.1661841E-002  0.9291082E+02  0.7546771E-02  0.1375385E+00
          2   -1    0    0  501    0  0.00000000000E+00  0.00000000000E+00  0.27631530110E+03  0.27631530110E+03  0.00000000000E+00 0. -1.
         -2   -1    0    0    0  501 -0.00000000000E+00 -0.00000000000E+00 -0.12438688705E+02  0.12438688705E+02  0.00000000000E+00 0.  1.
         23    2    1    2    0    0 -0.82094135846E+00 -0.23205816546E+02  0.19359353288E+03  0.21473443069E+03  0.89962413721E+02 0.  0.
         11    1    3    3    0    0  0.19762148086E+01  0.25911062584E+02  0.16146964437E+02  0.30594330353E+02  0.00000000000E+00 0. -1.
        -11    1    3    3    0    0 -0.27971561670E+01 -0.49116879130E+02  0.17744656844E+03  0.18414010033E+03  0.00000000000E+00 0.  1.
         22    1    1    2    0    0  0.82094135846E+00  0.23205816546E+02  0.70283079509E+02  0.74019559114E+02  0.00000000000E+00 0. -1.
<mgrwt>
<rscale>  0 0.65692655E+02</rscale>
<asrwt>0</asrwt>
<pdfrwt beam="1">  1        2 0.42510042E-01 0.92910816E+02</pdfrwt>
<pdfrwt beam="2">  1       -2 0.19136446E-02 0.92910816E+02</pdfrwt>
<totfact> 0.85239201E+04</totfact>
</mgrwt>
</event>
<event>
 6    1  0.1661841E-002  0.9284545E+02  0.7546771E-02  0.1408859E+00
         -2   -1    0    0    0  501 -0.00000000000E+00  0.00000000000E+00  0.42954152777E+02  0.42954152777E+02  0.00000000000E+00 0.  1.
          2   -1    0    0  501    0  0.00000000000E+00 -0.00000000000E+00 -0.90518606645E+02  0.90518606645E+02  0.00000000000E+00 0. -1.
         23    2    1    2    0    0 -0.13532401729E+02  0.14495119360E+01 -0.98364655877E+01  0.93365053415E+02  0.91842529160E+02 0.  0.
         11    1    3    3    0    0  0.11855133815E+02  0.10030991114E+02 -0.45887812869E+02  0.48444363453E+02  0.00000000000E+00 0. -1.
        -11    1    3    3    0    0 -0.25387535545E+02 -0.85814791780E+01  0.36051347281E+02  0.44920689962E+02  0.00000000000E+00 0.  1.
         22    1    1    2    0    0  0.13532401729E+02 -0.14495119360E+01 -0.37727988281E+02  0.40107706007E+02  0.00000000000E+00 0. -1.
<mgrwt>
<rscale>  0 0.57449135E+02</rscale>
<asrwt>0</asrwt>
<pdfrwt beam="1">  1        2 0.13925939E-01 0.92845448E+02</pdfrwt>
<pdfrwt beam="2">  1       -2 0.66083313E-02 0.92845448E+02</pdfrwt>
<totfact> 0.47106605E+04</totfact>
</mgrwt>
</event>
<event>
 6    1  0.1661841E-002  0.9520139E+02  0.7546771E-02  0.1351181E+00
          2   -1    0    0  501    0  0.00000000000E+00  0.00000000000E+00  0.16030755360E+03  0.16030755360E+03  0.00000000000E+00 0. -1.
         -2   -1    0    0    0  501 -0.00000000000E+00 -0.00000000000E+00 -0.30934782728E+02  0.30934782728E+02  0.00000000000E+00 0.  1.
         23    2    1    2    0    0 -0.96784262628E+01 -0.30873415704E+02  0.54546918654E+02  0.10972087969E+03  0.89534716024E+02 0.  0.
         11    1    3    3    0    0 -0.18631129263E+01  0.17438091528E+02  0.58064439507E+02  0.60655068718E+02  0.00000000000E+00 0. -1.
        -11    1    3    3    0    0 -0.78153133365E+01 -0.48311507232E+02 -0.35175208528E+01  0.49065810973E+02  0.00000000000E+00 0.  1.
         22    1    1    2    0    0  0.96784262628E+01  0.30873415704E+02  0.74825852216E+02  0.81521456635E+02  0.00000000000E+00 0. -1.
<mgrwt>
<rscale>  0 0.72688800E+02</rscale>
<asrwt>0</asrwt>
<pdfrwt beam="1">  1        2 0.24662700E-01 0.95201392E+02</pdfrwt>
<pdfrwt beam="2">  1       -2 0.47591974E-02 0.95201392E+02</pdfrwt>
<totfact> 0.40512681E+04</totfact>
</mgrwt>
</event>
<event>
 6    1  0.1661841E-002  0.9459150E+02  0.7546771E-02  0.1377840E+00
         -2   -1    0    0    0  501 -0.00000000000E+00  0.00000000000E+00  0.32182180691E+02  0.32182180691E+02  0.00000000000E+00 0.  1.
          2   -1    0    0  501    0  0.00000000000E+00 -0.00000000000E+00 -0.12928101522E+03  0.12928101522E+03  0.00000000000E+00 0. -1.
         23    2    1    2    0    0  0.70629366518E+01  0.19921506614E+02 -0.44023803283E+02  0.10433430268E+03  0.92199782867E+02 0.  0.
         13    1    3    3    0    0 -0.14550403995E+02 -0.33666970480E+02 -0.19792092168E+02  0.41676205083E+02  0.00000000000E+00 0. -1.
        -13    1    3    3    0    0  0.21613340647E+02  0.53588477094E+02 -0.24231711115E+02  0.62658097599E+02  0.00000000000E+00 0.  1.
         22    1    1    2    0    0 -0.70629366518E+01 -0.19921506614E+02 -0.53075031250E+02  0.57128893234E+02  0.00000000000E+00 0. -1.
<mgrwt>
<rscale>  0 0.65035028E+02</rscale>
<asrwt>0</asrwt>
<pdfrwt beam="1">  1        2 0.19889387E-01 0.94591498E+02</pdfrwt>
<pdfrwt beam="2">  1       -2 0.49511047E-02 0.94591498E+02</pdfrwt>
<totfact> 0.48416575E+04</totfact>
</mgrwt>
</event>
<event>
 6    1  0.1661841E-002  0.9147069E+02  0.7546771E-02  0.1354898E+00
         -1   -1    0    0    0  501 -0.00000000000E+00  0.00000000000E+00  0.60751732997E+01  0.60751732997E+01  0.00000000000E+00 0.  1.
          1   -1    0    0  501    0  0.00000000000E+00 -0.00000000000E+00 -0.10820859983E+04  0.10820859983E+04  0.00000000000E+00 0. -1.
         23    2    1    2    0    0 -0.27910700497E+02  0.19843744778E+02 -0.10067455455E+04  0.10108924176E+04  0.84818070217E+02 0.  0.
         13    1    3    3    0    0 -0.16806480014E+02 -0.33235033492E+02 -0.41037982095E+03  0.41206628431E+03  0.00000000000E+00 0. -1.
        -13    1    3    3    0    0 -0.11104220484E+02  0.53078778269E+02 -0.59636572459E+03  0.59882613327E+03  0.00000000000E+00 0.  1.
         22    1    1    2    0    0  0.27910700497E+02 -0.19843744778E+02 -0.69265279405E+02  0.77268753970E+02  0.00000000000E+00 0. -1.
<mgrwt>
<rscale>  0 0.71550651E+02</rscale>
<asrwt>0</asrwt>
<pdfrwt beam="1">  1        1 0.16647475E+00 0.91470686E+02</pdfrwt>
<pdfrwt beam="2">  1       -1 0.93464216E-03 0.91470686E+02</pdfrwt>
<totfact> 0.26494504E+04</totfact>
</mgrwt>
</event>
<event>
 6    1  0.1661841E-002  0.9167990E+02  0.7546771E-02  0.1407939E+00
         -3   -1    0    0    0  501 -0.00000000000E+00  0.00000000000E+00  0.18064060227E+02  0.18064060227E+02  0.00000000000E+00 0.  1.
          3   -1    0    0  501    0  0.00000000000E+00 -0.00000000000E+00 -0.19834294465E+03  0.19834294465E+03  0.00000000000E+00 0. -1.
         23    2    1    2    0    0  0.13994218581E+02  0.31322264586E+01 -0.10335305819E+03  0.13815592349E+03  0.90551397354E+02 0.  0.
         13    1    3    3    0    0  0.42006656742E+02 -0.73385936310E+01 -0.99182578470E+02  0.10796109503E+03  0.00000000000E+00 0. -1.
        -13    1    3    3    0    0 -0.28012438161E+02  0.10470820090E+02 -0.41704797203E+01  0.30194828468E+02  0.00000000000E+00 0.  1.
         22    1    1    2    0    0 -0.13994218581E+02 -0.31322264586E+01 -0.76925826237E+02  0.78251081389E+02  0.00000000000E+00 0. -1.
<mgrwt>
<rscale>  0 0.57656255E+02</rscale>
<asrwt>0</asrwt>
<pdfrwt beam="1">  1        3 0.30514300E-01 0.91679903E+02</pdfrwt>
<pdfrwt beam="2">  1       -3 0.27790861E-02 0.91679903E+02</pdfrwt>
<totfact> 0.12323208E+04</totfact>
</mgrwt>
</event>
<event>
 6    1  0.1661841E-002  0.9807195E+02  0.7546771E-02  0.1361990E+00
          2   -1    0    0  501    0  0.00000000000E+00  0.00000000000E+00  0.35257972068E+02  0.35257972068E+02  0.00000000000E+00 0. -1.
         -2   -1    0    0    0  501 -0.00000000000E+00 -0.00000000000E+00 -0.14963414025E+03  0.14963414025E+03  0.00000000000E+00 0.  1.
         23    2    1    2    0    0  0.20758649535E+02  0.13304880293E+02 -0.12428516502E+03  0.15831901336E+03  0.94921896187E+02 0.  0.
         13    1    3    3    0    0 -0.22303567018E+01 -0.31804833507E+02 -0.94144417613E+02  0.99396646287E+02  0.00000000000E+00 0.  1.
        -13    1    3    3    0    0  0.22989006237E+02  0.45109713800E+02 -0.30140747411E+02  0.58922367072E+02  0.00000000000E+00 0. -1.
         22    1    1    2    0    0 -0.20758649535E+02 -0.13304880293E+02  0.99089968393E+01  0.26573098963E+02  0.00000000000E+00 0. -1.
<mgrwt>
<rscale>  0 0.69445055E+02</rscale>
<asrwt>0</asrwt>
<pdfrwt beam="1">  1        2 0.54243035E-02 0.98071952E+02</pdfrwt>
<pdfrwt beam="2">  1       -2 0.23020637E-01 0.98071952E+02</pdfrwt>
<totfact> 0.20660409E+04</totfact>
</mgrwt>
</event>
<event>
 6    1  0.1661841E-002  0.9167572E+02  0.7546771E-02  0.1404961E+00
         -2   -1    0    0    0  501 -0.00000000000E+00  0.00000000000E+00  0.17853918588E+02  0.17853918588E+02  0.00000000000E+00 0.  1.
          2   -1    0    0  501    0  0.00000000000E+00 -0.00000000000E+00 -0.16739071199E+03  0.16739071199E+03  0.00000000000E+00 0. -1.
         23    2    1    2    0    0  0.13807570760E+02  0.59328881608E+01 -0.11151619686E+03  0.14436170096E+03  0.90435559219E+02 0.  0.
         13    1    3    3    0    0 -0.80730825262E+01  0.40122166145E+02 -0.22914925873E+02  0.46904762076E+02  0.00000000000E+00 0.  1.
        -13    1    3    3    0    0  0.21880653286E+02 -0.34189277984E+02 -0.88601270984E+02  0.97456938887E+02  0.00000000000E+00 0. -1.
         22    1    1    2    0    0 -0.13807570760E+02 -0.59328881608E+01 -0.38020596548E+02  0.40882929617E+02  0.00000000000E+00 0.  1.
<mgrwt>
<rscale>  0 0.58333473E+02</rscale>
<asrwt>0</asrwt>
<pdfrwt beam="1">  1        2 0.25752418E-01 0.91675725E+02</pdfrwt>
<pdfrwt beam="2">  1       -2 0.27467567E-02 0.91675725E+02</pdfrwt>
<totfact> 0.86062533E+04</totfact>
</mgrwt>
</event>
<event>
 6    1  0.1661841E-002  0.1029250E+03  0.7546771E-02  0.1298896E+00
         -2   -1    0    0    0  501 -0.00000000000E+00  0.00000000000E+00  0.10666678353E+03  0.10666678353E+03  0.00000000000E+00 0. -1.
          2   -1    0    0  501    0  0.00000000000E+00 -0.00000000000E+00 -0.68196630412E+02  0.68196630412E+02  0.00000000000E+00 0.  1.
         23    2    1    2    0    0 -0.34588916013E+02 -0.54700524346E+02  0.39208583652E+02  0.11014026697E+03  0.80031399472E+02 0.  0.
         13    1    3    3    0    0  0.12251245367E+01 -0.38128201616E+02 -0.16752734803E+02  0.41664311011E+02  0.00000000000E+00 0.  1.
        -13    1    3    3    0    0 -0.35814040550E+02 -0.16572322730E+02  0.55961318455E+02  0.68475955959E+02  0.00000000000E+00 0. -1.
         22    1    1    2    0    0  0.34588916013E+02  0.54700524346E+02 -0.73843053109E+00  0.64723146975E+02  0.00000000000E+00 0. -1.
<mgrwt>
<rscale>  0 0.91653414E+02</rscale>
<asrwt>0</asrwt>
<pdfrwt beam="1">  1        2 0.10491789E-01 0.10292505E+03</pdfrwt>
<pdfrwt beam="2">  1       -2 0.16410274E-01 0.10292505E+03</pdfrwt>
<totfact> 0.16053147E+04</totfact>
</mgrwt>
</event>
<event>
 6    1  0.1661841E-002  0.9728054E+02  0.7546771E-02  0.1362081E+00
         -2   -1    0    0    0  501 -0.00000000000E+00  0.00000000000E+00  0.10371511639E+03  0.10371511639E+03  0.00000000000E+00 0.  1.
          2   -1    0    0  501    0  0.00000000000E+00 -0.00000000000E+00 -0.46688954156E+02  0.46688954156E+02  0.00000000000E+00 0. -1.
         23    2    1    2    0    0 -0.25223827996E+02 -0.24531706197E+00  0.72038538156E+02  0.12104980151E+03  0.93953189343E+02 0.  0.
         11    1    3    3    0    0 -0.16815306946E+02  0.73413605485E+01 -0.20677675222E+02  0.27644463730E+02  0.00000000000E+00 0. -1.
        -11    1    3    3    0    0 -0.84085210504E+01 -0.75866776104E+01  0.92716213378E+02  0.93405337784E+02  0.00000000000E+00 0.  1.
         22    1    1    2    0    0  0.25223827996E+02  0.24531706197E+00 -0.15012375925E+02  0.29354269028E+02  0.00000000000E+00 0. -1.
<mgrwt>
<rscale>  0 0.69418842E+02</rscale>
<asrwt>0</asrwt>
<pdfrwt beam="1">  1        2 0.71829160E-02 0.97280540E+02</pdfrwt>
<pdfrwt beam="2">  1       -2 0.15956172E-01 0.97280540E+02</pdfrwt>
<totfact> 0.26647737E+04</totfact>
</mgrwt>
</event>
<event>
 6    1  0.1661841E-002  0.9402020E+02  0.7546771E-02  0.1396899E+00
         -3   -1    0    0    0  501 -0.00000000000E+00  0.00000000000E+00  0.29394237562E+02  0.29394237562E+02  0.00000000000E+00 0.  1.
          3   -1    0    0  501    0  0.00000000000E+00 -0.00000000000E+00 -0.10305561825E+03  0.10305561825E+03  0.00000000000E+00 0. -1.
         23    2    1    2    0    0 -0.95373062393E+01 -0.12630011455E+02 -0.59924477234E+02  0.11149323595E+03  0.92678591329E+02 0.  0.
         13    1    3    3    0    0 -0.35252314968E+02 -0.15172373846E+02  0.76613920638E+01  0.39135962580E+02  0.00000000000E+00 0.  1.
        -13    1    3    3    0    0  0.25715008729E+02  0.25423623911E+01 -0.67585869298E+02  0.72357273367E+02  0.00000000000E+00 0. -1.
         22    1    1    2    0    0  0.95373062393E+01  0.12630011455E+02 -0.13736903454E+02  0.20956619865E+02  0.00000000000E+00 0. -1.
<mgrwt>
<rscale>  0 0.60222941E+02</rscale>
<asrwt>0</asrwt>
<pdfrwt beam="1">  1        3 0.15854710E-01 0.94020204E+02</pdfrwt>
<pdfrwt beam="2">  1       -3 0.45221904E-02 0.94020204E+02</pdfrwt>
<totfact> 0.18588352E+04</totfact>
</mgrwt>
</event>
<event>
 6    1  0.1661841E-002  0.9484185E+02  0.7546771E-02  0.1401960E+00
         -2   -1    0    0    0  501 -0.00000000000E+00  0.00000000000E+00  0.18494933768E+02  0.18494933768E+02  0.00000000000E+00 0.  1.
          2   -1    0    0  501    0  0.00000000000E+00 -0.00000000000E+00 -0.17809924838E+03  0.17809924838E+03  0.00000000000E+00 0. -1.
         23    2    1    2    0    0 -0.10425832878E+02  0.96848275845E+01 -0.11125299381E+03  0.14619235579E+03  0.93768237608E+02 0.  0.
         11    1    3    3    0    0 -0.25771210153E+02  0.36314284248E+02 -0.10605143012E+03  0.11502081700E+03  0.00000000000E+00 0. -1.
        -11    1    3    3    0    0  0.15345377275E+02 -0.26629456664E+02 -0.52015636916E+01  0.31171538794E+02  0.00000000000E+00 0.  1.
         22    1    1    2    0    0  0.10425832878E+02 -0.96848275845E+01 -0.48351320803E+02  0.50401826355E+02  0.00000000000E+00 0. -1.
<mgrwt>
<rscale>  0 0.59027107E+02</rscale>
<asrwt>0</asrwt>
<pdfrwt beam="1">  1        2 0.27399884E-01 0.94841849E+02</pdfrwt>
<pdfrwt beam="2">  1       -2 0.28453745E-02 0.94841849E+02</pdfrwt>
<totfact> 0.76831586E+04</totfact>
</mgrwt>
</event>
<event>
 6    1  0.1661841E-002  0.9893869E+02  0.7546771E-02  0.1329380E+00
         -2   -1    0    0    0  501 -0.00000000000E+00  0.00000000000E+00  0.87238995808E+02  0.87238995808E+02  0.00000000000E+00 0.  1.
          2   -1    0    0  501    0  0.00000000000E+00 -0.00000000000E+00 -0.70299392543E+02  0.70299392543E+02  0.00000000000E+00 0. -1.
         23    2    1    2    0    0  0.85133758113E+01 -0.41177763103E+02  0.43204781034E+02  0.10796071893E+03  0.89558796250E+02 0.  0.
         11    1    3    3    0    0 -0.22519173845E+02 -0.30742091875E+02 -0.15182315839E+02  0.41020630392E+02  0.00000000000E+00 0. -1.
        -11    1    3    3    0    0  0.31032549656E+02 -0.10435671228E+02  0.58387096874E+02  0.66940088538E+02  0.00000000000E+00 0.  1.
         22    1    1    2    0    0 -0.85133758113E+01  0.41177763103E+02 -0.26265177769E+02  0.49577669421E+02  0.00000000000E+00 0.  1.
<mgrwt>
<rscale>  0 0.79884500E+02</rscale>
<asrwt>0</asrwt>
<pdfrwt beam="1">  1        2 0.10815291E-01 0.98938687E+02</pdfrwt>
<pdfrwt beam="2">  1       -2 0.13421384E-01 0.98938687E+02</pdfrwt>
<totfact> 0.21342762E+04</totfact>
</mgrwt>
</event>
<event>
 6    1  0.1661841E-002  0.9360005E+02  0.7546771E-02  0.1421991E+00
          1   -1    0    0  501    0  0.00000000000E+00  0.00000000000E+00  0.67676389265E+02  0.67676389265E+02  0.00000000000E+00 0. -1.
         -1   -1    0    0    0  501 -0.00000000000E+00 -0.00000000000E+00 -0.40701813396E+02  0.40701813396E+02  0.00000000000E+00 0.  1.
         23    2    1    2    0    0 -0.87202042891E+01  0.64382132640E+01  0.20728005622E+02  0.95867719348E+02  0.92970300866E+02 0.  0.
         13    1    3    3    0    0 -0.23903557914E+02 -0.31579206484E+02 -0.14180050486E+02  0.42067804731E+02  0.00000000000E+00 0.  1.
        -13    1    3    3    0    0  0.15183353625E+02  0.38017419748E+02  0.34908056108E+02  0.53799914617E+02  0.00000000000E+00 0. -1.
         22    1    1    2    0    0  0.87202042891E+01 -0.64382132640E+01  0.62465702460E+01  0.12510483313E+02  0.00000000000E+00 0. -1.
<mgrwt>
<rscale>  0 0.54601975E+02</rscale>
<asrwt>0</asrwt>
<pdfrwt beam="1">  1        1 0.10411752E-01 0.93600050E+02</pdfrwt>
<pdfrwt beam="2">  1       -1 0.62618175E-02 0.93600050E+02</pdfrwt>
<totfact> 0.65156974E+04</totfact>
</mgrwt>
</event>
<event>
 6    1  0.1661841E-002  0.9578644E+02  0.7546771E-02  0.1357487E+00
         -4   -1    0    0    0  501 -0.00000000000E+00  0.00000000000E+00  0.80372361921E+02  0.80372361921E+02  0.00000000000E+00 0.  1.
          4   -1    0    0  501    0  0.00000000000E+00 -0.00000000000E+00 -0.62034427701E+02  0.62034427701E+02  0.00000000000E+00 0. -1.
         23    2    1    2    0    0  0.14251768099E+02 -0.24733380267E+02  0.42705382769E+02  0.10487512909E+03  0.91434074563E+02 0.  0.
         11    1    3    3    0    0  0.63064359960E+01  0.22507384523E+01 -0.27994804840E+02  0.28784475965E+02  0.00000000000E+00 0. -1.
        -11    1    3    3    0    0  0.79453321026E+01 -0.26984118719E+02  0.70700187609E+02  0.76090653127E+02  0.00000000000E+00 0.  1.
         22    1    1    2    0    0 -0.14251768099E+02  0.24733380267E+02 -0.24367448549E+02  0.37531660530E+02  0.00000000000E+00 0. -1.
<mgrwt>
<rscale>  0 0.70772241E+02</rscale>
<asrwt>0</asrwt>
<pdfrwt beam="1">  1        4 0.95437581E-02 0.95786445E+02</pdfrwt>
<pdfrwt beam="2">  1       -4 0.12364979E-01 0.95786445E+02</pdfrwt>
<totfact> 0.64325055E+03</totfact>
</mgrwt>
</event>
<event>
 6    1  0.1661841E-002  0.9344402E+02  0.7546771E-02  0.1385459E+00
          2   -1    0    0  501    0  0.00000000000E+00  0.00000000000E+00  0.16955308629E+03  0.16955308629E+03  0.00000000000E+00 0. -1.
         -2   -1    0    0    0  501 -0.00000000000E+00 -0.00000000000E+00 -0.33812392245E+02  0.33812392245E+02  0.00000000000E+00 0.  1.
         23    2    1    2    0    0 -0.18482332128E+02  0.57911947718E+01  0.33439729804E+02  0.99247171680E+02  0.91414719927E+02 0.  0.
         11    1    3    3    0    0 -0.11286537029E+02  0.16217245923E+02  0.63565920318E+02  0.66565841159E+02  0.00000000000E+00 0. -1.
        -11    1    3    3    0    0 -0.71957950992E+01 -0.10426051151E+02 -0.30126190514E+02  0.32681330521E+02  0.00000000000E+00 0.  1.
         22    1    1    2    0    0  0.18482332128E+02 -0.57911947718E+01  0.10230096425E+03  0.10411830686E+03  0.00000000000E+00 0. -1.
<mgrwt>
<rscale>  0 0.63050281E+02</rscale>
<asrwt>0</asrwt>
<pdfrwt beam="1">  1        2 0.26085090E-01 0.93444024E+02</pdfrwt>
<pdfrwt beam="2">  1       -2 0.52019066E-02 0.93444024E+02</pdfrwt>
<totfact> 0.33315068E+04</totfact>
</mgrwt>
</event>
<event>
 6    1  0.1661841E-002  0.9228503E+02  0.7546771E-02  0.1400475E+00
         -2   -1    0    0    0  501 -0.00000000000E+00  0.00000000000E+00  0.23797504409E+02  0.23797504409E+02  0.00000000000E+00 0.  1.
          2   -1    0    0  501    0  0.00000000000E+00 -0.00000000000E+00 -0.12280844650E+03  0.12280844650E+03  0.00000000000E+00 0. -1.
         23    2    1    2    0    0 -0.79384299395E+01 -0.13675858715E+02 -0.83443335185E+02  0.12441590435E+03  0.90920180857E+02 0.  0.
         13    1    3    3    0    0 -0.53278691587E+01 -0.50623592272E+02 -0.29051398140E+02  0.58609879868E+02  0.00000000000E+00 0.  1.
        -13    1    3    3    0    0 -0.26105607808E+01  0.36947733557E+02 -0.54391937045E+02  0.65806024482E+02  0.00000000000E+00 0. -1.
         22    1    1    2    0    0  0.79384299395E+01  0.13675858715E+02 -0.15567606907E+02  0.22190046559E+02  0.00000000000E+00 0. -1.
<mgrwt>
<rscale>  0 0.59374686E+02</rscale>
<asrwt>0</asrwt>
<pdfrwt beam="1">  1        2 0.18893607E-01 0.92285032E+02</pdfrwt>
<pdfrwt beam="2">  1       -2 0.36611545E-02 0.92285032E+02</pdfrwt>
<totfact> 0.79790957E+04</totfact>
</mgrwt>
</event>
<event>
 6    1  0.1661841E-002  0.9232513E+02  0.7546771E-02  0.1428691E+00
          2   -1    0    0  501    0  0.00000000000E+00  0.00000000000E+00  0.70773688682E+02  0.70773688682E+02  0.00000000000E+00 0. -1.
         -2   -1    0    0    0  501 -0.00000000000E+00 -0.00000000000E+00 -0.38427773208E+02  0.38427773208E+02  0.00000000000E+00 0.  1.
         23    2    1    2    0    0 -0.10186083167E+02  0.46486135313E+00  0.22500484841E+02  0.95027369654E+02  0.91760322466E+02 0.  0.
         11    1    3    3    0    0 -0.47224127140E+02 -0.18179679833E+02  0.15882322043E+02  0.53036469495E+02  0.00000000000E+00 0. -1.
        -11    1    3    3    0    0  0.37038043973E+02  0.18644541187E+02  0.66181627971E+01  0.41990900160E+02  0.00000000000E+00 0.  1.
         22    1    1    2    0    0  0.10186083167E+02 -0.46486135313E+00  0.98454306328E+01  0.14174092236E+02  0.00000000000E+00 0. -1.
<mgrwt>
<rscale>  0 0.53223654E+02</rscale>
<asrwt>0</asrwt>
<pdfrwt beam="1">  1        2 0.10888260E-01 0.92325127E+02</pdfrwt>
<pdfrwt beam="2">  1       -2 0.59119651E-02 0.92325127E+02</pdfrwt>
<totfact> 0.74489748E+04</totfact>
</mgrwt>
</event>
<event>
 6    1  0.1661841E-002  0.9524373E+02  0.7546771E-02  0.1351540E+00
          2   -1    0    0  501    0  0.00000000000E+00  0.00000000000E+00  0.62236830777E+02  0.62236830777E+02  0.00000000000E+00 0. -1.
         -2   -1    0    0    0  501 -0.00000000000E+00 -0.00000000000E+00 -0.65178646539E+02  0.65178646539E+02  0.00000000000E+00 0.  1.
         23    2    1    2    0    0 -0.29724858781E+02  0.12158124915E+02 -0.11581957958E+01  0.95250767909E+02  0.89665936335E+02 0.  0.
         11    1    3    3    0    0  0.23162954671E+02 -0.48419269453E+01  0.24497167521E+02  0.34059916943E+02  0.00000000000E+00 0. -1.
        -11    1    3    3    0    0 -0.52887813452E+02  0.17000051860E+02 -0.25655363317E+02  0.61190850966E+02  0.00000000000E+00 0.  1.
         22    1    1    2    0    0  0.29724858781E+02 -0.12158124915E+02 -0.17836199664E+01  0.32164709406E+02  0.00000000000E+00 0. -1.
<mgrwt>
<rscale>  0 0.72578001E+02</rscale>
<asrwt>0</asrwt>
<pdfrwt beam="1">  1        2 0.95748970E-02 0.95243726E+02</pdfrwt>
<pdfrwt beam="2">  1       -2 0.10027484E-01 0.95243726E+02</pdfrwt>
<totfact> 0.39016647E+04</totfact>
</mgrwt>
</event>
<event>
 6    1  0.1661841E-002  0.1006774E+03  0.7546771E-02  0.1391062E+00
          2   -1    0    0  501    0  0.00000000000E+00  0.00000000000E+00  0.44281067560E+03  0.44281067560E+03  0.00000000000E+00 0. -1.
         -2   -1    0    0    0  501 -0.00000000000E+00 -0.00000000000E+00 -0.74676435764E+01  0.74676435764E+01  0.00000000000E+00 0.  1.
         23    2    1    2    0    0 -0.11800618917E+01 -0.14100525851E+02  0.38950924164E+03  0.40231006179E+03  0.99678077444E+02 0.  0.
         13    1    3    3    0    0 -0.23342138188E+02 -0.78455823677E+00  0.36782502440E+03  0.36856576010E+03  0.00000000000E+00 0. -1.
        -13    1    3    3    0    0  0.22162076297E+02 -0.13315967614E+02  0.21684217242E+02  0.33744301692E+02  0.00000000000E+00 0.  1.
         22    1    1    2    0    0  0.11800618917E+01  0.14100525851E+02  0.45833790384E+02  0.47968257382E+02  0.00000000000E+00 0.  1.
<mgrwt>
<rscale>  0 0.61643413E+02</rscale>
<asrwt>0</asrwt>
<pdfrwt beam="1">  1        2 0.68124699E-01 0.10067739E+03</pdfrwt>
<pdfrwt beam="2">  1       -2 0.11488686E-02 0.10067739E+03</pdfrwt>
<totfact> 0.10886499E+05</totfact>
</mgrwt>
</event>
<event>
 6    1  0.1661841E-002  0.9323822E+02  0.7546771E-02  0.1423234E+00
          1   -1    0    0  501    0  0.00000000000E+00  0.00000000000E+00  0.44225567314E+02  0.44225567314E+02  0.00000000000E+00 0. -1.
         -1   -1    0    0    0  501 -0.00000000000E+00 -0.00000000000E+00 -0.61234554053E+02  0.61234554053E+02  0.00000000000E+00 0.  1.
         23    2    1    2    0    0 -0.47032204980E+01 -0.96767704406E+01 -0.16515362081E+02  0.94689613742E+02  0.92615363718E+02 0.  0.
         11    1    3    3    0    0  0.25873043233E+02 -0.20087320843E+02 -0.42201267840E+02  0.53421548387E+02  0.00000000000E+00 0.  1.
        -11    1    3    3    0    0 -0.30576263731E+02  0.10410550402E+02  0.25685905759E+02  0.41268065354E+02  0.00000000000E+00 0. -1.
         22    1    1    2    0    0  0.47032204980E+01  0.96767704406E+01 -0.49362465758E+00  0.10770507626E+02  0.00000000000E+00 0.  1.
<mgrwt>
<rscale>  0 0.54342595E+02</rscale>
<asrwt>0</asrwt>
<pdfrwt beam="1">  1        1 0.68039335E-02 0.93238221E+02</pdfrwt>
<pdfrwt beam="2">  1       -1 0.94207006E-02 0.93238221E+02</pdfrwt>
<totfact> 0.62171785E+04</totfact>
</mgrwt>
</event>
<event>
 6    1  0.1661841E-002  0.1055260E+03  0.7546771E-02  0.1307477E+00
          3   -1    0    0  501    0  0.00000000000E+00  0.00000000000E+00  0.98271817430E+02  0.98271817430E+02  0.00000000000E+00 0. -1.
         -3   -1    0    0    0  501 -0.00000000000E+00 -0.00000000000E+00 -0.13308172449E+03  0.13308172449E+03  0.00000000000E+00 0.  1.
         23    2    1    2    0    0  0.22602017985E+02  0.46058353208E+02 -0.10203422092E+03  0.14678799639E+03  0.92214481124E+02 0.  0.
         11    1    3    3    0    0  0.92939003527E+00  0.52869039085E+02 -0.12389155269E+02  0.54309209420E+02  0.00000000000E+00 0. -1.
        -11    1    3    3    0    0  0.21672627950E+02 -0.68106858765E+01 -0.89645065652E+02  0.92478786973E+02  0.00000000000E+00 0.  1.
         22    1    1    2    0    0 -0.22602017985E+02 -0.46058353208E+02  0.67224313857E+02  0.84565545530E+02  0.00000000000E+00 0. -1.
<mgrwt>
<rscale>  0 0.88117040E+02</rscale>
<asrwt>0</asrwt>
<pdfrwt beam="1">  1        3 0.15118741E-01 0.10552599E+03</pdfrwt>
<pdfrwt beam="2">  1       -3 0.20474112E-01 0.10552599E+03</pdfrwt>
<totfact> 0.17287623E+03</totfact>
</mgrwt>
</event>
<event>
 6    1  0.1661841E-002  0.1000256E+03  0.7546771E-02  0.1333397E+00
         -4   -1    0    0    0  501 -0.00000000000E+00  0.00000000000E+00  0.43805281830E+03  0.43805281830E+03  0.00000000000E+00 0. -1.
          4   -1    0    0  501    0  0.00000000000E+00 -0.00000000000E+00 -0.32535212207E+02  0.32535212207E+02  0.00000000000E+00 0.  1.
         23    2    1    2    0    0 -0.28717701790E+02  0.24765517174E+02  0.41866814304E+03  0.43045109167E+03  0.92558581899E+02 0.  0.
         13    1    3    3    0    0  0.29088362095E+02  0.40589786873E+01  0.62851322530E+02  0.69375044945E+02  0.00000000000E+00 0.  1.
        -13    1    3    3    0    0 -0.57806063885E+02  0.20706538487E+02  0.35581682051E+03  0.36107604672E+03  0.00000000000E+00 0. -1.
         22    1    1    2    0    0  0.28717701790E+02 -0.24765517174E+02 -0.13150536951E+02  0.40136938836E+02  0.00000000000E+00 0.  1.
<mgrwt>
<rscale>  0 0.78488272E+02</rscale>
<asrwt>0</asrwt>
<pdfrwt beam="1">  1        4 0.50054176E-02 0.10002564E+03</pdfrwt>
<pdfrwt beam="2">  1       -4 0.67392737E-01 0.10002564E+03</pdfrwt>
<totfact> 0.76429270E+02</totfact>
</mgrwt>
</event>
<event>
 6    1  0.1661841E-002  0.8522566E+02  0.7546771E-02  0.1382715E+00
         -2   -1    0    0    0  501 -0.00000000000E+00  0.00000000000E+00  0.18834621578E+02  0.18834621578E+02  0.00000000000E+00 0.  1.
          2   -1    0    0  501    0  0.00000000000E+00 -0.00000000000E+00 -0.22112548361E+03  0.22112548361E+03  0.00000000000E+00 0. -1.
         23    2    1    2    0    0  0.25464176447E+02  0.79982070280E+01 -0.87651563101E+02  0.12225469131E+03  0.80938355768E+02 0.  0.
         13    1    3    3    0    0  0.46248811045E+02  0.10886048264E+02 -0.20225009367E+02  0.51638256881E+02  0.00000000000E+00 0.  1.
        -13    1    3    3    0    0 -0.20784634598E+02 -0.28878412356E+01 -0.67426553734E+02  0.70616434424E+02  0.00000000000E+00 0. -1.
         22    1    1    2    0    0 -0.25464176447E+02 -0.79982070280E+01 -0.11463929894E+03  0.11770541389E+03  0.00000000000E+00 0. -1.
<mgrwt>
<rscale>  0 0.63755540E+02</rscale>
<asrwt>0</asrwt>
<pdfrwt beam="1">  1        2 0.34019308E-01 0.85225659E+02</pdfrwt>
<pdfrwt beam="2">  1       -2 0.28976338E-02 0.85225659E+02</pdfrwt>
<totfact> 0.58496621E+04</totfact>
</mgrwt>
</event>
<event>
 6    1  0.1661841E-002  0.9335174E+02  0.7546771E-02  0.1415924E+00
         -1   -1    0    0    0  501 -0.00000000000E+00  0.00000000000E+00  0.28674163963E+03  0.28674163963E+03  0.00000000000E+00 0.  1.
          1   -1    0    0  501    0  0.00000000000E+00 -0.00000000000E+00 -0.10347218006E+02  0.10347218006E+02  0.00000000000E+00 0. -1.
         23    2    1    2    0    0  0.11982984679E+02 -0.56899635687E+00  0.26315713842E+03  0.27922433007E+03  0.92577704236E+02 0.  0.
         11    1    3    3    0    0  0.13192316273E+02  0.33320206175E+02  0.40832220843E+02  0.54328110654E+02  0.00000000000E+00 0. -1.
        -11    1    3    3    0    0 -0.12093315939E+01 -0.33889202532E+02  0.22232491758E+03  0.22489621941E+03  0.00000000000E+00 0.  1.
         22    1    1    2    0    0 -0.11982984679E+02  0.56899635687E+00  0.13237283209E+02  0.17864527573E+02  0.00000000000E+00 0. -1.
<mgrwt>
<rscale>  0 0.55892730E+02</rscale>
<asrwt>0</asrwt>
<pdfrwt beam="1">  1        1 0.15918799E-02 0.93351738E+02</pdfrwt>
<pdfrwt beam="2">  1       -1 0.44114092E-01 0.93351738E+02</pdfrwt>
<totfact> 0.37799524E+04</totfact>
</mgrwt>
</event>
<event>
 6    1  0.1661841E-002  0.1073824E+03  0.7546771E-02  0.1303404E+00
         -4   -1    0    0    0  501 -0.00000000000E+00  0.00000000000E+00  0.32665278140E+03  0.32665278140E+03  0.00000000000E+00 0.  1.
          4   -1    0    0  501    0  0.00000000000E+00 -0.00000000000E+00 -0.24385961200E+02  0.24385961200E+02  0.00000000000E+00 0. -1.
         23    2    1    2    0    0  0.36427038458E+02 -0.37741123704E+02  0.11842631588E+03  0.15986172364E+03  0.93699823071E+02 0.  0.
         13    1    3    3    0    0  0.10440193053E+02  0.60409839888E+01  0.10700520146E+03  0.10768288749E+03  0.00000000000E+00 0.  1.
        -13    1    3    3    0    0  0.25986845405E+02 -0.43782107693E+02  0.11421114428E+02  0.52178836159E+02  0.00000000000E+00 0. -1.
         22    1    1    2    0    0 -0.36427038458E+02  0.37741123704E+02  0.18384050432E+03  0.19117701896E+03  0.00000000000E+00 0.  1.
<mgrwt>
<rscale>  0 0.89772326E+02</rscale>
<asrwt>0</asrwt>
<pdfrwt beam="1">  1        4 0.37516866E-02 0.10738239E+03</pdfrwt>
<pdfrwt beam="2">  1       -4 0.50254271E-01 0.10738239E+03</pdfrwt>
<totfact> 0.22594658E+03</totfact>
</mgrwt>
</event>
<event>
 6    1  0.1661841E-002  0.8842529E+02  0.7546771E-02  0.1428620E+00
         -1   -1    0    0    0  501 -0.00000000000E+00  0.00000000000E+00  0.16385921298E+02  0.16385921298E+02  0.00000000000E+00 0.  1.
          1   -1    0    0  501    0  0.00000000000E+00 -0.00000000000E+00 -0.15584062109E+03  0.15584062109E+03  0.00000000000E+00 0. -1.
         23    2    1    2    0    0  0.87871583787E+01  0.76013730451E+01 -0.11424152732E+03  0.14446507466E+03  0.87658634524E+02 0.  0.
         13    1    3    3    0    0  0.24350267482E+02  0.26717133352E+02 -0.10224306242E+02  0.37566969257E+02  0.00000000000E+00 0.  1.
        -13    1    3    3    0    0 -0.15563109104E+02 -0.19115760307E+02 -0.10401722108E+03  0.10689810540E+03  0.00000000000E+00 0. -1.
         22    1    1    2    0    0 -0.87871583787E+01 -0.76013730451E+01 -0.25213172463E+02  0.27761467724E+02  0.00000000000E+00 0.  1.
<mgrwt>
<rscale>  0 0.53238042E+02</rscale>
<asrwt>0</asrwt>
<pdfrwt beam="1">  1        1 0.23975479E-01 0.88425286E+02</pdfrwt>
<pdfrwt beam="2">  1       -1 0.25209111E-02 0.88425286E+02</pdfrwt>
<totfact> 0.83706168E+04</totfact>
</mgrwt>
</event>
<event>
 6    1  0.1661841E-002  0.8563267E+02  0.7546771E-02  0.1421191E+00
         -2   -1    0    0    0  501 -0.00000000000E+00  0.00000000000E+00  0.70286899479E+02  0.70286899479E+02  0.00000000000E+00 0.  1.
          2   -1    0    0  501    0  0.00000000000E+00 -0.00000000000E+00 -0.36178972297E+02  0.36178972297E+02  0.00000000000E+00 0. -1.
         23    2    1    2    0    0 -0.12679144302E+01 -0.14273630238E+02  0.34000311885E+02  0.92135634227E+02  0.84425172543E+02 0.  0.
         11    1    3    3    0    0  0.36862785420E+01 -0.31646925694E+02 -0.18341964922E+02  0.36763354480E+02  0.00000000000E+00 0. -1.
        -11    1    3    3    0    0 -0.49541929722E+01  0.17373295456E+02  0.52342276808E+02  0.55372279747E+02  0.00000000000E+00 0.  1.
         22    1    1    2    0    0  0.12679144302E+01  0.14273630238E+02  0.10761529615E+00  0.14330237549E+02  0.00000000000E+00 0.  1.
<mgrwt>
<rscale>  0 0.54769641E+02</rscale>
<asrwt>0</asrwt>
<pdfrwt beam="1">  1        2 0.55659958E-02 0.85632668E+02</pdfrwt>
<pdfrwt beam="2">  1       -2 0.10813369E-01 0.85632668E+02</pdfrwt>
<totfact> 0.67287773E+04</totfact>
</mgrwt>
</event>
<event>
 6    1  0.1661841E-002  0.9187249E+02  0.7546771E-02  0.1414976E+00
         -2   -1    0    0    0  501 -0.00000000000E+00  0.00000000000E+00  0.73010277655E+02  0.73010277655E+02  0.00000000000E+00 0.  1.
          2   -1    0    0  501    0  0.00000000000E+00 -0.00000000000E+00 -0.39113619607E+02  0.39113619607E+02  0.00000000000E+00 0. -1.
         23    2    1    2    0    0  0.12576256489E+02  0.22241352481E+01  0.36897037446E+02  0.99004778336E+02  0.90980469091E+02 0.  0.
         13    1    3    3    0    0  0.19574923976E+02  0.33885781041E+02 -0.11464957930E+02  0.40778291599E+02  0.00000000000E+00 0. -1.
        -13    1    3    3    0    0 -0.69986674867E+01 -0.31661645793E+02  0.48361995376E+02  0.58226486736E+02  0.00000000000E+00 0.  1.
         22    1    1    2    0    0 -0.12576256489E+02 -0.22241352481E+01 -0.30003793985E+01  0.13119118927E+02  0.00000000000E+00 0.  1.
<mgrwt>
<rscale>  0 0.56098192E+02</rscale>
<asrwt>0</asrwt>
<pdfrwt beam="1">  1        2 0.60174800E-02 0.91872492E+02</pdfrwt>
<pdfrwt beam="2">  1       -2 0.11232350E-01 0.91872492E+02</pdfrwt>
<totfact> 0.58012440E+04</totfact>
</mgrwt>
</event>
<event>
 6    1  0.1661841E-002  0.9210646E+02  0.7546771E-02  0.1428043E+00
          1   -1    0    0  501    0  0.00000000000E+00  0.00000000000E+00  0.28397302389E+02  0.28397302389E+02  0.00000000000E+00 0. -1.
         -1   -1    0    0    0  501 -0.00000000000E+00 -0.00000000000E+00 -0.93560755944E+02  0.93560755944E+02  0.00000000000E+00 0.  1.
         23    2    1    2    0    0 -0.38474413951E+01  0.96310472873E+01 -0.62304709191E+02  0.11120016372E+03  0.91520706658E+02 0.  0.
         11    1    3    3    0    0  0.32948057111E+02 -0.24565729131E+02 -0.20923743757E+02  0.46117811829E+02  0.00000000000E+00 0.  1.
        -11    1    3    3    0    0 -0.36795498506E+02  0.34196776418E+02 -0.41380965434E+02  0.65082351893E+02  0.00000000000E+00 0. -1.
         22    1    1    2    0    0  0.38474413951E+01 -0.96310472873E+01 -0.28587443639E+01  0.10757894612E+02  0.00000000000E+00 0.  1.
<mgrwt>
<rscale>  0 0.53354843E+02</rscale>
<asrwt>0</asrwt>
<pdfrwt beam="1">  1        1 0.43688158E-02 0.92106458E+02</pdfrwt>
<pdfrwt beam="2">  1       -1 0.14393962E-01 0.92106458E+02</pdfrwt>
<totfact> 0.59052133E+04</totfact>
</mgrwt>
</event>
<event>
 6    1  0.1661841E-002  0.9158409E+02  0.7546771E-02  0.1405828E+00
          2   -1    0    0  501    0  0.00000000000E+00  0.00000000000E+00  0.11699896595E+03  0.11699896595E+03  0.00000000000E+00 0. -1.
         -2   -1    0    0    0  501 -0.00000000000E+00 -0.00000000000E+00 -0.28625220697E+02  0.28625220697E+02  0.00000000000E+00 0.  1.
         23    2    1    2    0    0 -0.13764656241E+02 -0.56250724265E+01  0.49722231362E+02  0.10421106400E+03  0.90368901550E+02 0.  0.
         11    1    3    3    0    0 -0.29017001518E+02  0.11465070477E+02 -0.15676428005E+02  0.34916824213E+02  0.00000000000E+00 0.  1.
        -11    1    3    3    0    0  0.15252345277E+02 -0.17090142903E+02  0.65398659367E+02  0.69294239789E+02  0.00000000000E+00 0. -1.
         22    1    1    2    0    0  0.13764656241E+02  0.56250724265E+01  0.38651513895E+02  0.41413122650E+02  0.00000000000E+00 0.  1.
<mgrwt>
<rscale>  0 0.58135363E+02</rscale>
<asrwt>0</asrwt>
<pdfrwt beam="1">  1        2 0.17999841E-01 0.91584090E+02</pdfrwt>
<pdfrwt beam="2">  1       -2 0.44038802E-02 0.91584090E+02</pdfrwt>
<totfact> 0.64154579E+04</totfact>
</mgrwt>
</event>
<event>
 6    1  0.1661841E-002  0.9830645E+02  0.7546771E-02  0.1398880E+00
         -4   -1    0    0    0  501 -0.00000000000E+00  0.00000000000E+00  0.40892783437E+02  0.40892783437E+02  0.00000000000E+00 0.  1.
          4   -1    0    0  501    0  0.00000000000E+00 -0.00000000000E+00 -0.11735392092E+03  0.11735392092E+03  0.00000000000E+00 0. -1.
         23    2    1    2    0    0  0.25570212000E+01  0.13170452314E+02 -0.20138242873E+02  0.10034793383E+03  0.97386651170E+02 0.  0.
         11    1    3    3    0    0 -0.12879180582E+02 -0.31393491944E+02 -0.37054703429E+02  0.50244160607E+02  0.00000000000E+00 0. -1.
        -11    1    3    3    0    0  0.15436201782E+02  0.44563944258E+02  0.16916460556E+02  0.50103773221E+02  0.00000000000E+00 0.  1.
         22    1    1    2    0    0 -0.25570212000E+01 -0.13170452314E+02 -0.56322894613E+02  0.57898770533E+02  0.00000000000E+00 0.  1.
<mgrwt>
<rscale>  0 0.59751022E+02</rscale>
<asrwt>0</asrwt>
<pdfrwt beam="1">  1        4 0.18054449E-01 0.98306455E+02</pdfrwt>
<pdfrwt beam="2">  1       -4 0.62911974E-02 0.98306455E+02</pdfrwt>
<totfact> 0.66635661E+03</totfact>
</mgrwt>
</event>
<event>
 6    1  0.1661841E-002  0.9546689E+02  0.7546771E-02  0.1413597E+00
         -2   -1    0    0    0  501 -0.00000000000E+00  0.00000000000E+00  0.49898638784E+02  0.49898638784E+02  0.00000000000E+00 0.  1.
          2   -1    0    0  501    0  0.00000000000E+00 -0.00000000000E+00 -0.66879043940E+02  0.66879043940E+02  0.00000000000E+00 0. -1.
         23    2    1    2    0    0 -0.65543833698E+01 -0.96053046292E+01  0.87337983748E+00  0.95470889042E+02  0.94756034340E+02 0.  0.
         11    1    3    3    0    0  0.40017464609E+02  0.56530869943E+01 -0.16247831294E+02  0.43558545523E+02  0.00000000000E+00 0. -1.
        -11    1    3    3    0    0 -0.46571847979E+02 -0.15258391623E+02  0.17121211131E+02  0.51912343520E+02  0.00000000000E+00 0.  1.
         22    1    1    2    0    0  0.65543833698E+01  0.96053046292E+01 -0.17853784994E+02  0.21306793681E+02  0.00000000000E+00 0. -1.
<mgrwt>
<rscale>  0 0.56398875E+02</rscale>
<asrwt>0</asrwt>
<pdfrwt beam="1">  1        2 0.10289084E-01 0.95466894E+02</pdfrwt>
<pdfrwt beam="2">  1       -2 0.76767137E-02 0.95466894E+02</pdfrwt>
<totfact> 0.53979636E+04</totfact>
</mgrwt>
</event>
<event>
 6    1  0.1661841E-002  0.9129471E+02  0.7546771E-02  0.1394176E+00
         -2   -1    0    0    0  501 -0.00000000000E+00  0.00000000000E+00  0.15009198057E+02  0.15009198057E+02  0.00000000000E+00 0.  1.
          2   -1    0    0  501    0  0.00000000000E+00 -0.00000000000E+00 -0.21396106649E+03  0.21396106649E+03  0.00000000000E+00 0. -1.
         23    2    1    2    0    0 -0.13066879333E+02  0.12457007489E+02 -0.13851744913E+03  0.16589697855E+03  0.89491918098E+02 0.  0.
         13    1    3    3    0    0 -0.28519761350E+02 -0.79460409264E+01 -0.50942794197E+01  0.30041105783E+02  0.00000000000E+00 0.  1.
        -13    1    3    3    0    0  0.15452882017E+02  0.20403048416E+02 -0.13342316972E+03  0.13585587276E+03  0.00000000000E+00 0. -1.
         22    1    1    2    0    0  0.13066879333E+02 -0.12457007489E+02 -0.60434419297E+02  0.63073286000E+02  0.00000000000E+00 0.  1.
<mgrwt>
<rscale>  0 0.60879790E+02</rscale>
<asrwt>0</asrwt>
<pdfrwt beam="1">  1        2 0.32917087E-01 0.91294708E+02</pdfrwt>
<pdfrwt beam="2">  1       -2 0.23091074E-02 0.91294708E+02</pdfrwt>
<totfact> 0.84951654E+04</totfact>
</mgrwt>
</event>
<event>
 6    1  0.1661841E-002  0.9191819E+02  0.7546771E-02  0.1428224E+00
          2   -1    0    0  501    0  0.00000000000E+00  0.00000000000E+00  0.14259041042E+02  0.14259041042E+02  0.00000000000E+00 0. -1.
         -2   -1    0    0    0  501 -0.00000000000E+00 -0.00000000000E+00 -0.18657263307E+03  0.18657263307E+03  0.00000000000E+00 0.  1.
         23    2    1    2    0    0  0.78009878803E+01 -0.68872922899E+01 -0.16148972596E+03  0.18581680536E+03  0.91327232283E+02 0.  0.
         13    1    3    3    0    0  0.39986648870E+02 -0.29126587640E+02 -0.64895659845E+02  0.81601083707E+02  0.00000000000E+00 0. -1.
        -13    1    3    3    0    0 -0.32185660989E+02  0.22239295351E+02 -0.96594066119E+02  0.10421572166E+03  0.00000000000E+00 0.  1.
         22    1    1    2    0    0 -0.78009878803E+01  0.68872922899E+01 -0.10823866066E+02  0.15014868751E+02  0.00000000000E+00 0. -1.
<mgrwt>
<rscale>  0 0.53318110E+02</rscale>
<asrwt>0</asrwt>
<pdfrwt beam="1">  1        2 0.21936987E-02 0.91918190E+02</pdfrwt>
<pdfrwt beam="2">  1       -2 0.28703481E-01 0.91918190E+02</pdfrwt>
<totfact> 0.46047264E+04</totfact>
</mgrwt>
</event>
<event>
 6    1  0.1661841E-002  0.9169078E+02  0.7546771E-02  0.1398916E+00
          4   -1    0    0  501    0  0.00000000000E+00  0.00000000000E+00  0.12688506637E+02  0.12688506637E+02  0.00000000000E+00 0. -1.
         -4   -1    0    0    0  501 -0.00000000000E+00 -0.00000000000E+00 -0.61041642123E+03  0.61041642123E+03  0.00000000000E+00 0.  1.
         23    2    1    2    0    0  0.14270220206E+02  0.83339531587E+01 -0.59951216080E+03  0.60648333063E+03  0.90189275564E+02 0.  0.
         13    1    3    3    0    0 -0.34222455063E+02 -0.15485336337E+02 -0.25999258506E+03  0.26269205613E+03  0.00000000000E+00 0. -1.
        -13    1    3    3    0    0  0.48492675270E+02  0.23819289495E+02 -0.33951957575E+03  0.34379127450E+03  0.00000000000E+00 0.  1.
         22    1    1    2    0    0 -0.14270220206E+02 -0.83339531587E+01  0.17842462113E+01  0.16621597232E+02  0.00000000000E+00 0. -1.
<mgrwt>
<rscale>  0 0.59742483E+02</rscale>
<asrwt>0</asrwt>
<pdfrwt beam="1">  1        4 0.19520779E-02 0.91690781E+02</pdfrwt>
<pdfrwt beam="2">  1       -4 0.93910222E-01 0.91690781E+02</pdfrwt>
<totfact> 0.15702155E+03</totfact>
</mgrwt>
</event>
<event>
 6    1  0.1661841E-002  0.9305136E+02  0.7546771E-02  0.1417084E+00
         -2   -1    0    0    0  501 -0.00000000000E+00  0.00000000000E+00  0.47789359457E+02  0.47789359457E+02  0.00000000000E+00 0.  1.
          2   -1    0    0  501    0  0.00000000000E+00 -0.00000000000E+00 -0.63067048213E+02  0.63067048213E+02  0.00000000000E+00 0. -1.
         23    2    1    2    0    0  0.11751809858E+02 -0.18579270110E+01 -0.20621831061E+01  0.93074211032E+02  0.92287589806E+02 0.  0.
         11    1    3    3    0    0 -0.26055497067E+02  0.21140512395E+02  0.24423528353E+02  0.41500830461E+02  0.00000000000E+00 0. -1.
        -11    1    3    3    0    0  0.37807306925E+02 -0.22998439406E+02 -0.26485711459E+02  0.51573380571E+02  0.00000000000E+00 0.  1.
         22    1    1    2    0    0 -0.11751809858E+02  0.18579270110E+01 -0.13215505650E+02  0.17782196639E+02  0.00000000000E+00 0. -1.
<mgrwt>
<rscale>  0 0.55642732E+02</rscale>
<asrwt>0</asrwt>
<pdfrwt beam="1">  1        2 0.97026228E-02 0.93051363E+02</pdfrwt>
<pdfrwt beam="2">  1       -2 0.73522092E-02 0.93051363E+02</pdfrwt>
<totfact> 0.61683023E+04</totfact>
</mgrwt>
</event>
<event>
 6    1  0.1661841E-002  0.9385905E+02  0.7546771E-02  0.1386657E+00
         -4   -1    0    0    0  501 -0.00000000000E+00  0.00000000000E+00  0.92190700182E+01  0.92190700182E+01  0.00000000000E+00 0.  1.
          4   -1    0    0  501    0  0.00000000000E+00 -0.00000000000E+00 -0.34732787920E+03  0.34732787920E+03  0.00000000000E+00 0. -1.
         23    2    1    2    0    0  0.49191318299E+01  0.18089139981E+02 -0.26734905834E+03  0.28334614879E+03  0.91967962895E+02 0.  0.
         11    1    3    3    0    0 -0.16337940997E+02 -0.23233778125E+02 -0.19698441919E+03  0.19902160226E+03  0.00000000000E+00 0. -1.
        -11    1    3    3    0    0  0.21257072826E+02  0.41322918106E+02 -0.70364639145E+02  0.84324546532E+02  0.00000000000E+00 0.  1.
         22    1    1    2    0    0 -0.49191318299E+01 -0.18089139981E+02 -0.70759750846E+02  0.73200800426E+02  0.00000000000E+00 0. -1.
<mgrwt>
<rscale>  0 0.62745795E+02</rscale>
<asrwt>0</asrwt>
<pdfrwt beam="1">  1        4 0.53435066E-01 0.93859049E+02</pdfrwt>
<pdfrwt beam="2">  1       -4 0.14183183E-02 0.93859049E+02</pdfrwt>
<totfact> 0.86030720E+03</totfact>
</mgrwt>
</event>
<event>
 6    1  0.1661841E-002  0.9197755E+02  0.7546771E-02  0.1424089E+00
          2   -1    0    0  501    0  0.00000000000E+00  0.00000000000E+00  0.11210907546E+02  0.11210907546E+02  0.00000000000E+00 0.  1.
         -2   -1    0    0    0  501 -0.00000000000E+00 -0.00000000000E+00 -0.23902146081E+03  0.23902146081E+03  0.00000000000E+00 0. -1.
         23    2    1    2    0    0 -0.87599132406E+00  0.11027177336E+02 -0.19491336256E+03  0.21552514782E+03  0.91309936150E+02 0.  0.
         13    1    3    3    0    0 -0.26072614516E+02  0.51828122114E+01 -0.18641272364E+03  0.18829855630E+03  0.00000000000E+00 0. -1.
        -13    1    3    3    0    0  0.25196623192E+02  0.58443651243E+01 -0.85006389199E+01  0.27226591524E+02  0.00000000000E+00 0.  1.
         22    1    1    2    0    0  0.87599132406E+00 -0.11027177336E+02 -0.32897190710E+02  0.34707220537E+02  0.00000000000E+00 0.  1.
<mgrwt>
<rscale>  0 0.54165030E+02</rscale>
<asrwt>0</asrwt>
<pdfrwt beam="1">  1        2 0.17247551E-02 0.91977554E+02</pdfrwt>
<pdfrwt beam="2">  1       -2 0.36772530E-01 0.91977554E+02</pdfrwt>
<totfact> 0.40716860E+04</totfact>
</mgrwt>
</event>
<event>
 6    1  0.1661841E-002  0.9194975E+02  0.7546771E-02  0.1428112E+00
          4   -1    0    0  501    0  0.00000000000E+00  0.00000000000E+00  0.64510576057E+02  0.64510576057E+02  0.00000000000E+00 0. -1.
         -4   -1    0    0    0  501 -0.00000000000E+00 -0.00000000000E+00 -0.48552603067E+02  0.48552603067E+02  0.00000000000E+00 0.  1.
         23    2    1    2    0    0  0.54043563126E+01 -0.89011691446E+01 -0.23736018333E+01  0.91980377727E+02  0.91358185303E+02 0.  0.
         13    1    3    3    0    0  0.43104756445E+02  0.80992953009E+01  0.16053332509E+02  0.46704690313E+02  0.00000000000E+00 0. -1.
        -13    1    3    3    0    0 -0.37700400133E+02 -0.17000464445E+02 -0.18426934342E+02  0.45275687414E+02  0.00000000000E+00 0.  1.
         22    1    1    2    0    0 -0.54043563126E+01  0.89011691446E+01  0.18331574823E+02  0.21082801398E+02  0.00000000000E+00 0. -1.
<mgrwt>
<rscale>  0 0.53340923E+02</rscale>
<asrwt>0</asrwt>
<pdfrwt beam="1">  1        4 0.99247041E-02 0.91949747E+02</pdfrwt>
<pdfrwt beam="2">  1       -4 0.74696312E-02 0.91949747E+02</pdfrwt>
<totfact> 0.13794397E+04</totfact>
</mgrwt>
</event>
<event>
 6    1  0.1661841E-002  0.9968409E+02  0.7546771E-02  0.1334624E+00
          2   -1    0    0  501    0  0.00000000000E+00  0.00000000000E+00  0.17968949970E+03  0.17968949970E+03  0.00000000000E+00 0.  1.
         -2   -1    0    0    0  501 -0.00000000000E+00 -0.00000000000E+00 -0.28442276937E+02  0.28442276937E+02  0.00000000000E+00 0. -1.
         23    2    1    2    0    0 -0.56773079877E+01 -0.37067434245E+02  0.80771022879E+02  0.12829994553E+03  0.92361741967E+02 0.  0.
         11    1    3    3    0    0 -0.70447137706E+01 -0.64216070352E+02  0.31145842165E+02  0.71717467661E+02  0.00000000000E+00 0. -1.
        -11    1    3    3    0    0  0.13674057829E+01  0.27148636108E+02  0.49625180714E+02  0.56582477871E+02  0.00000000000E+00 0.  1.
         22    1    1    2    0    0  0.56773079877E+01  0.37067434245E+02  0.70476199882E+02  0.79831831103E+02  0.00000000000E+00 0.  1.
<mgrwt>
<rscale>  0 0.78068583E+02</rscale>
<asrwt>0</asrwt>
<pdfrwt beam="1">  1        2 0.27644538E-01 0.99684090E+02</pdfrwt>
<pdfrwt beam="2">  1       -2 0.43757350E-02 0.99684090E+02</pdfrwt>
<totfact> 0.40764890E+04</totfact>
</mgrwt>
</event>
<event>
 6    1  0.1661841E-002  0.9277442E+02  0.7546771E-02  0.1398443E+00
          2   -1    0    0  501    0  0.00000000000E+00  0.00000000000E+00  0.41761636064E+02  0.41761636064E+02  0.00000000000E+00 0. -1.
         -2   -1    0    0    0  501 -0.00000000000E+00 -0.00000000000E+00 -0.71539667400E+02  0.71539667400E+02  0.00000000000E+00 0.  1.
         23    2    1    2    0    0  0.12618009576E+02 -0.99566801996E+01 -0.29031548874E+02  0.97210719811E+02  0.91371459274E+02 0.  0.
         11    1    3    3    0    0  0.31490372942E+02  0.23900702163E+02  0.11455806977E+02  0.41159721396E+02  0.00000000000E+00 0. -1.
        -11    1    3    3    0    0 -0.18872363366E+02 -0.33857382363E+02 -0.40487355850E+02  0.56050998414E+02  0.00000000000E+00 0.  1.
         22    1    1    2    0    0 -0.12618009576E+02  0.99566801996E+01 -0.74648246278E+00  0.16090583654E+02  0.00000000000E+00 0.  1.
<mgrwt>
<rscale>  0 0.59854551E+02</rscale>
<asrwt>0</asrwt>
<pdfrwt beam="1">  1        2 0.64248672E-02 0.92774421E+02</pdfrwt>
<pdfrwt beam="2">  1       -2 0.11006103E-01 0.92774421E+02</pdfrwt>
<totfact> 0.55195546E+04</totfact>
</mgrwt>
</event>
<event>
 6    1  0.1661841E-002  0.9370444E+02  0.7546771E-02  0.1336655E+00
         -2   -1    0    0    0  501 -0.00000000000E+00  0.00000000000E+00  0.16748403691E+02  0.16748403691E+02  0.00000000000E+00 0.  1.
          2   -1    0    0  501    0  0.00000000000E+00 -0.00000000000E+00 -0.28202765299E+03  0.28202765299E+03  0.00000000000E+00 0. -1.
         23    2    1    2    0    0  0.42858910951E+02  0.78675177743E+01 -0.18799065150E+03  0.21005000959E+03  0.82956237803E+02 0.  0.
         11    1    3    3    0    0  0.31033581793E+02 -0.73865244846E+01 -0.18806257718E+03  0.19074898919E+03  0.00000000000E+00 0. -1.
        -11    1    3    3    0    0  0.11825329159E+02  0.15254042259E+02  0.71925674357E-01  0.19301020394E+02  0.00000000000E+00 0.  1.
         22    1    1    2    0    0 -0.42858910951E+02 -0.78675177743E+01 -0.77288597796E+02  0.88726047095E+02  0.00000000000E+00 0. -1.
<mgrwt>
<rscale>  0 0.77380149E+02</rscale>
<asrwt>0</asrwt>
<pdfrwt beam="1">  1        2 0.43388866E-01 0.93704437E+02</pdfrwt>
<pdfrwt beam="2">  1       -2 0.25766777E-02 0.93704437E+02</pdfrwt>
<totfact> 0.54399413E+04</totfact>
</mgrwt>
</event>
<event>
 6    1  0.1661841E-002  0.9251722E+02  0.7546771E-02  0.1402178E+00
         -1   -1    0    0    0  501 -0.00000000000E+00  0.00000000000E+00  0.19475188752E+03  0.19475188752E+03  0.00000000000E+00 0.  1.
          1   -1    0    0  501    0  0.00000000000E+00 -0.00000000000E+00 -0.15237966662E+02  0.15237966662E+02  0.00000000000E+00 0. -1.
         23    2    1    2    0    0 -0.54261786982E+01  0.14281284498E+02  0.16347690560E+03  0.18784071513E+03  0.91247121025E+02 0.  0.
         11    1    3    3    0    0  0.23431219058E+02  0.29811824376E+02  0.24714707487E+02  0.45261282188E+02  0.00000000000E+00 0. -1.
        -11    1    3    3    0    0 -0.28857397756E+02 -0.15530539878E+02  0.13876219811E+03  0.14257943294E+03  0.00000000000E+00 0.  1.
         22    1    1    2    0    0  0.54261786982E+01 -0.14281284498E+02  0.16037015263E+02  0.22149139052E+02  0.00000000000E+00 0. -1.
<mgrwt>
<rscale>  0 0.58976525E+02</rscale>
<asrwt>0</asrwt>
<pdfrwt beam="1">  1        1 0.23443027E-02 0.92517218E+02</pdfrwt>
<pdfrwt beam="2">  1       -1 0.29961827E-01 0.92517218E+02</pdfrwt>
<totfact> 0.42896390E+04</totfact>
</mgrwt>
</event>
<event>
 6    1  0.1661841E-002  0.9529017E+02  0.7546771E-02  0.1409976E+00
          2   -1    0    0  501    0  0.00000000000E+00  0.00000000000E+00  0.27937537460E+03  0.27937537460E+03  0.00000000000E+00 0. -1.
         -2   -1    0    0    0  501 -0.00000000000E+00 -0.00000000000E+00 -0.10480476914E+02  0.10480476914E+02  0.00000000000E+00 0.  1.
         23    2    1    2    0    0 -0.76209945062E+01  0.97453356593E+01  0.22746309689E+03  0.24661645696E+03  0.94483677276E+02 0.  0.
         13    1    3    3    0    0 -0.26708799828E+02 -0.56045825076E+01  0.21901140524E+03  0.22070515843E+03  0.00000000000E+00 0. -1.
        -13    1    3    3    0    0  0.19087805322E+02  0.15349918167E+02  0.84516916549E+01  0.25911298531E+02  0.00000000000E+00 0.  1.
         22    1    1    2    0    0  0.76209945062E+01 -0.97453356593E+01  0.41431800794E+02  0.43239394554E+02  0.00000000000E+00 0.  1.
<mgrwt>
<rscale>  0 0.57199290E+02</rscale>
<asrwt>0</asrwt>
<pdfrwt beam="1">  1        2 0.42980821E-01 0.95290169E+02</pdfrwt>
<pdfrwt beam="2">  1       -2 0.16123813E-02 0.95290169E+02</pdfrwt>
<totfact> 0.10810621E+05</totfact>
</mgrwt>
</event>
<event>
 6    1  0.1661841E-002  0.9213862E+02  0.7546771E-02  0.1419512E+00
         -2   -1    0    0    0  501 -0.00000000000E+00  0.00000000000E+00  0.57673595487E+02  0.57673595487E+02  0.00000000000E+00 0.  1.
          2   -1    0    0  501    0  0.00000000000E+00 -0.00000000000E+00 -0.64620279148E+02  0.64620279148E+02  0.00000000000E+00 0. -1.
         23    2    1    2    0    0 -0.82373360014E+01  0.84553523940E+01  0.18739568120E+02  0.94024983269E+02  0.91379315914E+02 0.  0.
         11    1    3    3    0    0  0.25474541813E+02 -0.24753503146E+02 -0.12119271094E+02  0.37530853046E+02  0.00000000000E+00 0. -1.
        -11    1    3    3    0    0 -0.33711877814E+02  0.33208855540E+02  0.30858839214E+02  0.56494130223E+02  0.00000000000E+00 0.  1.
         22    1    1    2    0    0  0.82373360014E+01 -0.84553523940E+01 -0.25686251781E+02  0.28268891366E+02  0.00000000000E+00 0.  1.
<mgrwt>
<rscale>  0 0.55124336E+02</rscale>
<asrwt>0</asrwt>
<pdfrwt beam="1">  1        2 0.99415815E-02 0.92138624E+02</pdfrwt>
<pdfrwt beam="2">  1       -2 0.88728608E-02 0.92138624E+02</pdfrwt>
<totfact> 0.44854148E+04</totfact>
</mgrwt>
</event>
<event>
 6    1  0.1661841E-002  0.9198968E+02  0.7546771E-02  0.1389085E+00
         -1   -1    0    0    0  501 -0.00000000000E+00  0.00000000000E+00  0.35784997139E+03  0.35784997139E+03  0.00000000000E+00 0.  1.
          1   -1    0    0  501    0  0.00000000000E+00 -0.00000000000E+00 -0.98363914866E+01  0.98363914866E+01  0.00000000000E+00 0. -1.
         23    2    1    2    0    0 -0.18344409195E+02  0.54894552581E+01  0.32489972596E+03  0.33767133811E+03  0.89974714131E+02 0.  0.
         11    1    3    3    0    0  0.26465412175E+02 -0.51414716996E+01  0.35223323126E+02  0.44356907747E+02  0.00000000000E+00 0. -1.
        -11    1    3    3    0    0 -0.44809821370E+02  0.10630926958E+02  0.28967640284E+03  0.29331443036E+03  0.00000000000E+00 0.  1.
         22    1    1    2    0    0  0.18344409195E+02 -0.54894552581E+01  0.23113853942E+02  0.30015024767E+02  0.00000000000E+00 0.  1.
<mgrwt>
<rscale>  0 0.62134956E+02</rscale>
<asrwt>0</asrwt>
<pdfrwt beam="1">  1        1 0.15132913E-02 0.91989677E+02</pdfrwt>
<pdfrwt beam="2">  1       -1 0.55053832E-01 0.91989677E+02</pdfrwt>
<totfact> 0.27138039E+04</totfact>
</mgrwt>
</event>
<event>
 6    1  0.1661841E-002  0.9829738E+02  0.7546771E-02  0.1345836E+00
         -2   -1    0    0    0  501 -0.00000000000E+00  0.00000000000E+00  0.52682819571E+02  0.52682819571E+02  0.00000000000E+00 0.  1.
          2   -1    0    0  501    0  0.00000000000E+00 -0.00000000000E+00 -0.12985787683E+03  0.12985787683E+03  0.00000000000E+00 0. -1.
         23    2    1    2    0    0  0.49878816418E+01 -0.31818003661E+02  0.66639592192E+00  0.98299636618E+02  0.92871471160E+02 0.  0.
         11    1    3    3    0    0 -0.34515020287E+02  0.11887574611E+02 -0.11240361002E+02  0.38196161732E+02  0.00000000000E+00 0. -1.
        -11    1    3    3    0    0  0.39502901929E+02 -0.43705578272E+02  0.11906756924E+02  0.60103474886E+02  0.00000000000E+00 0.  1.
         22    1    1    2    0    0 -0.49878816418E+01  0.31818003661E+02 -0.77841453181E+02  0.84241059784E+02  0.00000000000E+00 0. -1.
<mgrwt>
<rscale>  0 0.74369118E+02</rscale>
<asrwt>0</asrwt>
<pdfrwt beam="1">  1        2 0.19978135E-01 0.98297378E+02</pdfrwt>
<pdfrwt beam="2">  1       -2 0.81050491E-02 0.98297378E+02</pdfrwt>
<totfact> 0.23014840E+04</totfact>
</mgrwt>
</event>
<event>
 6    1  0.1661841E-002  0.9471093E+02  0.7546771E-02  0.1350357E+00
          2   -1    0    0  501    0  0.00000000000E+00  0.00000000000E+00  0.14598956304E+03  0.14598956304E+03  0.00000000000E+00 0.  1.
         -2   -1    0    0    0  501 -0.00000000000E+00 -0.00000000000E+00 -0.36568195006E+02  0.36568195006E+02  0.00000000000E+00 0. -1.
         23    2    1    2    0    0 -0.16909747833E+02  0.28716275880E+02  0.34921204181E+02  0.10094379793E+03  0.88654361235E+02 0.  0.
         13    1    3    3    0    0  0.18785841980E+02  0.40309478397E+02  0.43754115046E+02  0.62387374452E+02  0.00000000000E+00 0.  1.
        -13    1    3    3    0    0 -0.35695589814E+02 -0.11593202517E+02 -0.88329108656E+01  0.38556423474E+02  0.00000000000E+00 0. -1.
         22    1    1    2    0    0  0.16909747833E+02 -0.28716275880E+02  0.74500163855E+02  0.81613960121E+02  0.00000000000E+00 0. -1.
<mgrwt>
<rscale>  0 0.72944579E+02</rscale>
<asrwt>0</asrwt>
<pdfrwt beam="1">  1        2 0.22459933E-01 0.94710928E+02</pdfrwt>
<pdfrwt beam="2">  1       -2 0.56258762E-02 0.94710928E+02</pdfrwt>
<totfact> 0.34967267E+04</totfact>
</mgrwt>
</event>
<event>
 6    1  0.1661841E-002  0.9130613E+02  0.7546771E-02  0.1413680E+00
         -4   -1    0    0    0  501 -0.00000000000E+00  0.00000000000E+00  0.94467490165E+02  0.94467490165E+02  0.00000000000E+00 0.  1.
          4   -1    0    0  501    0  0.00000000000E+00 -0.00000000000E+00 -0.43053703761E+02  0.43053703761E+02  0.00000000000E+00 0. -1.
         23    2    1    2    0    0  0.12514200032E+02 -0.44283322523E+01  0.69739293122E+02  0.11489290355E+03  0.90336011378E+02 0.  0.
         11    1    3    3    0    0 -0.18661117144E+02  0.72577882049E+01 -0.14229800068E+02  0.24564201446E+02  0.00000000000E+00 0. -1.
        -11    1    3    3    0    0  0.31175317176E+02 -0.11686120457E+02  0.83969093190E+02  0.90328702102E+02  0.00000000000E+00 0.  1.
         22    1    1    2    0    0 -0.12514200032E+02  0.44283322523E+01 -0.18325506717E+02  0.22628290378E+02  0.00000000000E+00 0. -1.
<mgrwt>
<rscale>  0 0.56380696E+02</rscale>
<asrwt>0</asrwt>
<pdfrwt beam="1">  1        4 0.66236468E-02 0.91306135E+02</pdfrwt>
<pdfrwt beam="2">  1       -4 0.14533460E-01 0.91306135E+02</pdfrwt>
<totfact> 0.87653414E+03</totfact>
</mgrwt>
</event>
<event>
 6    1  0.1661841E-002  0.9226465E+02  0.7546771E-02  0.1392045E+00
         -2   -1    0    0    0  501 -0.00000000000E+00  0.00000000000E+00  0.98004319398E+02  0.98004319398E+02  0.00000000000E+00 0.  1.
          2   -1    0    0  501    0  0.00000000000E+00 -0.00000000000E+00 -0.31095085051E+02  0.31095085051E+02  0.00000000000E+00 0. -1.
         23    2    1    2    0    0 -0.11708151950E+02  0.13798715276E+02  0.57303130453E+02  0.10861129577E+03  0.90472534193E+02 0.  0.
         11    1    3    3    0    0 -0.36136866206E+02 -0.40789602678E+00  0.69106836072E+02  0.77985859425E+02  0.00000000000E+00 0.  1.
        -11    1    3    3    0    0  0.24428714256E+02  0.14206611303E+02 -0.11803705618E+02  0.30625436343E+02  0.00000000000E+00 0. -1.
         22    1    1    2    0    0  0.11708151950E+02 -0.13798715276E+02  0.96061038933E+01  0.20488108682E+02  0.00000000000E+00 0. -1.
<mgrwt>
<rscale>  0 0.61401004E+02</rscale>
<asrwt>0</asrwt>
<pdfrwt beam="1">  1        2 0.47838593E-02 0.92264645E+02</pdfrwt>
<pdfrwt beam="2">  1       -2 0.15077587E-01 0.92264645E+02</pdfrwt>
<totfact> 0.48729083E+04</totfact>
</mgrwt>
</event>
<event>
 6    1  0.4006213E-002  0.9757535E+02  0.7546771E-02  0.1335541E+00
          2   -1    0    0  501    0  0.00000000000E+00  0.00000000000E+00  0.25690437736E+03  0.25690437736E+03  0.00000000000E+00 0. -1.
         -2   -1    0    0    0  501 -0.00000000000E+00 -0.00000000000E+00 -0.10758569831E+03  0.10758569831E+03  0.00000000000E+00 0.  1.
         23    2    1    2    0    0 -0.39338775414E+02 -0.87487097595E+00  0.24355223447E+03  0.26237118604E+03  0.89289661780E+02 0.  0.
         13    1    3    3    0    0 -0.24590540409E+02  0.38504720007E+02  0.68492589929E+02  0.82331907639E+02  0.00000000000E+00 0.  1.
        -13    1    3    3    0    0 -0.14748235005E+02 -0.39379590983E+02  0.17505964454E+03  0.18003927840E+03  0.00000000000E+00 0. -1.
         22    1    1    2    0    0  0.39338775414E+02  0.87487097595E+00 -0.94233555419E+02  0.10211888962E+03  0.00000000000E+00 0.  1.
<mgrwt>
<rscale>  0 0.77756576E+02</rscale>
<asrwt>0</asrwt>
<pdfrwt beam="1">  1        2 0.39523750E-01 0.97575347E+02</pdfrwt>
<pdfrwt beam="2">  1       -2 0.16551646E-01 0.97575347E+02</pdfrwt>
<totfact> 0.35571352E+03</totfact>
</mgrwt>
</event>
<event>
 6    1  0.1814938E-002  0.1134548E+03  0.7546771E-02  0.1390305E+00
          4   -1    0    0  501    0  0.00000000000E+00  0.00000000000E+00  0.79510774099E+02  0.79510774099E+02  0.00000000000E+00 0. -1.
         -4   -1    0    0    0  501 -0.00000000000E+00 -0.00000000000E+00 -0.48005440930E+02  0.48005440930E+02  0.00000000000E+00 0.  1.
         23    2    1    2    0    0  0.99928947361E+01 -0.55180411179E+00  0.30332837290E+02  0.11743964917E+03  0.11301251146E+03 0.  0.
         13    1    3    3    0    0 -0.42934481664E+02  0.39913364663E+01 -0.16941556676E+02  0.46328358757E+02  0.00000000000E+00 0.  1.
        -13    1    3    3    0    0  0.52927376400E+02 -0.45431405781E+01  0.47274393966E+02  0.71111290410E+02  0.00000000000E+00 0. -1.
         22    1    1    2    0    0 -0.99928947361E+01  0.55180411179E+00  0.11724958792E+01  0.10076565862E+02  0.00000000000E+00 0. -1.
<mgrwt>
<rscale>  0 0.61830854E+02</rscale>
<asrwt>0</asrwt>
<pdfrwt beam="1">  1        4 0.12232427E-01 0.11345479E+03</pdfrwt>
<pdfrwt beam="2">  1       -4 0.73854524E-02 0.11345479E+03</pdfrwt>
<totfact> 0.10496528E+04</totfact>
</mgrwt>
</event>
<event>
 6    1  0.1661841E-002  0.1050448E+03  0.7546771E-02  0.1307389E+00
          2   -1    0    0  501    0  0.00000000000E+00  0.00000000000E+00  0.23005480530E+02  0.23005480530E+02  0.00000000000E+00 0. -1.
         -2   -1    0    0    0  501 -0.00000000000E+00 -0.00000000000E+00 -0.27296025573E+03  0.27296025573E+03  0.00000000000E+00 0.  1.
         23    2    1    2    0    0 -0.38843282184E+02 -0.34716577496E+02 -0.18451791158E+03  0.21232349547E+03  0.91216038676E+02 0.  0.
         11    1    3    3    0    0 -0.10516963560E+02  0.21403030538E+02 -0.11960974069E+03  0.12196387296E+03  0.00000000000E+00 0.  1.
        -11    1    3    3    0    0 -0.28326318623E+02 -0.56119608035E+02 -0.64908170888E+02  0.90359622514E+02  0.00000000000E+00 0. -1.
         22    1    1    2    0    0  0.38843282184E+02  0.34716577496E+02 -0.65436863625E+02  0.83642240794E+02  0.00000000000E+00 0.  1.
<mgrwt>
<rscale>  0 0.88152155E+02</rscale>
<asrwt>0</asrwt>
<pdfrwt beam="1">  1        2 0.35393048E-02 0.10504479E+03</pdfrwt>
<pdfrwt beam="2">  1       -2 0.41993885E-01 0.10504479E+03</pdfrwt>
<totfact> 0.12318194E+04</totfact>
</mgrwt>
</event>
<event>
 6    1  0.1661841E-002  0.8531843E+02  0.7546771E-02  0.1441216E+00
          1   -1    0    0  501    0  0.00000000000E+00  0.00000000000E+00  0.27612172602E+02  0.27612172602E+02  0.00000000000E+00 0. -1.
         -1   -1    0    0    0  501 -0.00000000000E+00 -0.00000000000E+00 -0.87332784606E+02  0.87332784606E+02  0.00000000000E+00 0.  1.
         23    2    1    2    0    0 -0.10005803237E+02 -0.37927259452E+01 -0.59894703057E+02  0.10424303326E+03  0.84644749750E+02 0.  0.
         11    1    3    3    0    0 -0.32613411208E+02  0.25929810496E+02 -0.11705968068E+02  0.43278393586E+02  0.00000000000E+00 0. -1.
        -11    1    3    3    0    0  0.22607607971E+02 -0.29722536441E+02 -0.48188734989E+02  0.60964639674E+02  0.00000000000E+00 0.  1.
         22    1    1    2    0    0  0.10005803237E+02  0.37927259452E+01  0.17409105241E+00  0.10701923949E+02  0.00000000000E+00 0. -1.
<mgrwt>
<rscale>  0 0.50773048E+02</rscale>
<asrwt>0</asrwt>
<pdfrwt beam="1">  1        1 0.42480266E-02 0.85318430E+02</pdfrwt>
<pdfrwt beam="2">  1       -1 0.13435813E-01 0.85318430E+02</pdfrwt>
<totfact> 0.67409516E+04</totfact>
</mgrwt>
</event>
<event>
 6    1  0.1661841E-002  0.9043915E+02  0.7546771E-02  0.1386615E+00
          1   -1    0    0  501    0  0.00000000000E+00  0.00000000000E+00  0.25204377327E+03  0.25204377327E+03  0.00000000000E+00 0. -1.
         -1   -1    0    0    0  501 -0.00000000000E+00 -0.00000000000E+00 -0.14031559688E+02  0.14031559688E+02  0.00000000000E+00 0.  1.
         23    2    1    2    0    0  0.20143405033E+02 -0.58235818940E+01  0.14630201277E+03  0.17199859935E+03  0.87974816663E+02 0.  0.
         11    1    3    3    0    0  0.21885449618E+02  0.32531375556E+01 -0.30726840988E+01  0.22338245153E+02  0.00000000000E+00 0.  1.
        -11    1    3    3    0    0 -0.17420445851E+01 -0.90767194496E+01  0.14937469686E+03  0.14966035420E+03  0.00000000000E+00 0. -1.
         22    1    1    2    0    0 -0.20143405033E+02  0.58235818940E+01  0.91710200816E+02  0.94076733607E+02  0.00000000000E+00 0. -1.
<mgrwt>
<rscale>  0 0.62756441E+02</rscale>
<asrwt>0</asrwt>
<pdfrwt beam="1">  1        1 0.38775962E-01 0.90439147E+02</pdfrwt>
<pdfrwt beam="2">  1       -1 0.21587017E-02 0.90439147E+02</pdfrwt>
<totfact> 0.58098036E+04</totfact>
</mgrwt>
</event>
<event>
 6    1  0.1661841E-002  0.1049114E+03  0.7546771E-02  0.1308767E+00
          2   -1    0    0  501    0  0.00000000000E+00  0.00000000000E+00  0.18173976771E+03  0.18173976771E+03  0.00000000000E+00 0. -1.
         -2   -1    0    0    0  501 -0.00000000000E+00 -0.00000000000E+00 -0.34477854283E+02  0.34477854283E+02  0.00000000000E+00 0.  1.
         23    2    1    2    0    0  0.28078108208E+02  0.42575654615E+02  0.80676470322E+02  0.13234457650E+03  0.91680573403E+02 0.  0.
         11    1    3    3    0    0 -0.30685541945E+01  0.16940485908E+02  0.89425124835E+02  0.91067277544E+02  0.00000000000E+00 0. -1.
        -11    1    3    3    0    0  0.31146662402E+02  0.25635168707E+02 -0.87486545131E+01  0.41277298958E+02  0.00000000000E+00 0.  1.
         22    1    1    2    0    0 -0.28078108208E+02 -0.42575654615E+02  0.66585443107E+02  0.83873045492E+02  0.00000000000E+00 0. -1.
<mgrwt>
<rscale>  0 0.87601356E+02</rscale>
<asrwt>0</asrwt>
<pdfrwt beam="1">  1        2 0.27959964E-01 0.10491136E+03</pdfrwt>
<pdfrwt beam="2">  1       -2 0.53042854E-02 0.10491136E+03</pdfrwt>
<totfact> 0.30429311E+04</totfact>
</mgrwt>
</event>
<event>
 6    1  0.1661841E-002  0.9218082E+02  0.7546771E-02  0.1395633E+00
         -1   -1    0    0    0  501 -0.00000000000E+00  0.00000000000E+00  0.20705518023E+02  0.20705518023E+02  0.00000000000E+00 0.  1.
          1   -1    0    0  501    0  0.00000000000E+00 -0.00000000000E+00 -0.17184690283E+03  0.17184690283E+03  0.00000000000E+00 0. -1.
         23    2    1    2    0    0  0.13201832024E+02 -0.10922892278E+02 -0.89155962485E+02  0.12824230870E+03  0.90574312859E+02 0.  0.
         11    1    3    3    0    0 -0.35305544003E+02 -0.22799288072E+02 -0.45105457493E+02  0.61650557740E+02  0.00000000000E+00 0. -1.
        -11    1    3    3    0    0  0.48507376027E+02  0.11876395795E+02 -0.44050504991E+02  0.66591750961E+02  0.00000000000E+00 0.  1.
         22    1    1    2    0    0 -0.13201832024E+02  0.10922892278E+02 -0.61985422326E+02  0.64310112155E+02  0.00000000000E+00 0. -1.
<mgrwt>
<rscale>  0 0.60527058E+02</rscale>
<asrwt>0</asrwt>
<pdfrwt beam="1">  1        1 0.26437986E-01 0.92180823E+02</pdfrwt>
<pdfrwt beam="2">  1       -1 0.31854642E-02 0.92180823E+02</pdfrwt>
<totfact> 0.53293382E+04</totfact>
</mgrwt>
</event>
<event>
 6    1  0.1661841E-002  0.9405527E+02  0.7546771E-02  0.1413871E+00
          2   -1    0    0  501    0  0.00000000000E+00  0.00000000000E+00  0.93937629562E+02  0.93937629562E+02  0.00000000000E+00 0. -1.
         -2   -1    0    0    0  501 -0.00000000000E+00 -0.00000000000E+00 -0.34032650662E+02  0.34032650662E+02  0.00000000000E+00 0.  1.
         23    2    1    2    0    0 -0.10756418461E+02  0.55599377912E+01  0.35142857671E+02  0.10040624398E+03  0.93272610870E+02 0.  0.
         13    1    3    3    0    0  0.27189169852E+02 -0.30511052639E+02  0.22061651923E+02  0.46442348949E+02  0.00000000000E+00 0. -1.
        -13    1    3    3    0    0 -0.37945588312E+02  0.36070990430E+02  0.13081205748E+02  0.53963895030E+02  0.00000000000E+00 0.  1.
         22    1    1    2    0    0  0.10756418461E+02 -0.55599377912E+01  0.24762121229E+02  0.27564036245E+02  0.00000000000E+00 0. -1.
<mgrwt>
<rscale>  0 0.56338991E+02</rscale>
<asrwt>0</asrwt>
<pdfrwt beam="1">  1        2 0.14451943E-01 0.94055268E+02</pdfrwt>
<pdfrwt beam="2">  1       -2 0.52357925E-02 0.94055268E+02</pdfrwt>
<totfact> 0.64083274E+04</totfact>
</mgrwt>
</event>
<event>
 6    1  0.1661841E-002  0.9274574E+02  0.7546771E-02  0.1410790E+00
          4   -1    0    0  501    0  0.00000000000E+00  0.00000000000E+00  0.19777136616E+03  0.19777136616E+03  0.00000000000E+00 0. -1.
         -4   -1    0    0    0  501 -0.00000000000E+00 -0.00000000000E+00 -0.14222924946E+02  0.14222924946E+02  0.00000000000E+00 0.  1.
         23    2    1    2    0    0  0.11604721125E+02 -0.63915677908E+01  0.16321367819E+03  0.18772446872E+03  0.91794606152E+02 0.  0.
         13    1    3    3    0    0  0.51355339150E+01  0.42403378668E+02  0.63577970482E+02  0.76593593477E+02  0.00000000000E+00 0.  1.
        -13    1    3    3    0    0  0.64691872097E+01 -0.48794946458E+02  0.99635707706E+02  0.11113087525E+03  0.00000000000E+00 0. -1.
         22    1    1    2    0    0 -0.11604721125E+02  0.63915677908E+01  0.20334763028E+02  0.24269822385E+02  0.00000000000E+00 0. -1.
<mgrwt>
<rscale>  0 0.57017978E+02</rscale>
<asrwt>0</asrwt>
<pdfrwt beam="1">  1        4 0.30426362E-01 0.92745735E+02</pdfrwt>
<pdfrwt beam="2">  1       -4 0.21881424E-02 0.92745735E+02</pdfrwt>
<totfact> 0.13337125E+04</totfact>
</mgrwt>
</event>
<event>
 6    1  0.1661841E-002  0.1035259E+03  0.7546771E-02  0.1380647E+00
         -1   -1    0    0    0  501 -0.00000000000E+00  0.00000000000E+00  0.22530807939E+03  0.22530807939E+03  0.00000000000E+00 0.  1.
          1   -1    0    0  501    0  0.00000000000E+00 -0.00000000000E+00 -0.24327470733E+02  0.24327470733E+02  0.00000000000E+00 0. -1.
         23    2    1    2    0    0  0.15251558436E+02 -0.21371920632E+01  0.20828194441E+03  0.23259186718E+03  0.10237397465E+03 0.  0.
         13    1    3    3    0    0  0.29551631166E+02 -0.37770261900E+02  0.48290619979E+02  0.68057883941E+02  0.00000000000E+00 0. -1.
        -13    1    3    3    0    0 -0.14300072731E+02  0.35633069837E+02  0.15999132443E+03  0.16453398323E+03  0.00000000000E+00 0.  1.
         22    1    1    2    0    0 -0.15251558436E+02  0.21371920632E+01 -0.73013357526E+01  0.17043682947E+02  0.00000000000E+00 0. -1.
<mgrwt>
<rscale>  0 0.64294070E+02</rscale>
<asrwt>0</asrwt>
<pdfrwt beam="1">  1        1 0.37426880E-02 0.10352588E+03</pdfrwt>
<pdfrwt beam="2">  1       -1 0.34662780E-01 0.10352588E+03</pdfrwt>
<totfact> 0.17921008E+04</totfact>
</mgrwt>
</event>
<event>
 6    1  0.1661841E-002  0.9245464E+02  0.7546771E-02  0.1423171E+00
         -1   -1    0    0    0  501 -0.00000000000E+00  0.00000000000E+00  0.22591713089E+02  0.22591713089E+02  0.00000000000E+00 0.  1.
          1   -1    0    0  501    0  0.00000000000E+00 -0.00000000000E+00 -0.13151918123E+03  0.13151918123E+03  0.00000000000E+00 0. -1.
         23    2    1    2    0    0  0.96248943816E+00  0.11003567007E+02 -0.76977304202E+02  0.12030530531E+03  0.91792462926E+02 0.  0.
         13    1    3    3    0    0  0.81512327575E+01  0.47993350175E+02 -0.64087365848E+02  0.80479778316E+02  0.00000000000E+00 0. -1.
        -13    1    3    3    0    0 -0.71887433193E+01 -0.36989783168E+02 -0.12889938355E+02  0.39825526991E+02  0.00000000000E+00 0.  1.
         22    1    1    2    0    0 -0.96248943816E+00 -0.11003567007E+02 -0.31950163941E+02  0.33805589015E+02  0.00000000000E+00 0.  1.
<mgrwt>
<rscale>  0 0.54355525E+02</rscale>
<asrwt>0</asrwt>
<pdfrwt beam="1">  1        1 0.20233721E-01 0.92454644E+02</pdfrwt>
<pdfrwt beam="2">  1       -1 0.34756481E-02 0.92454644E+02</pdfrwt>
<totfact> 0.65586566E+04</totfact>
</mgrwt>
</event>
<event>
 6    1  0.1661841E-002  0.9212347E+02  0.7546771E-02  0.1404887E+00
         -2   -1    0    0    0  501 -0.00000000000E+00  0.00000000000E+00  0.23885981862E+03  0.23885981862E+03  0.00000000000E+00 0.  1.
          2   -1    0    0  501    0  0.00000000000E+00 -0.00000000000E+00 -0.12543754923E+02  0.12543754923E+02  0.00000000000E+00 0. -1.
         23    2    1    2    0    0 -0.91349710378E+00 -0.14799449257E+02  0.21021658019E+03  0.22951632738E+03  0.90922361239E+02 0.  0.
         11    1    3    3    0    0 -0.15856589643E+01 -0.41659101932E+02  0.19334899937E+03  0.19779239279E+03  0.00000000000E+00 0.  1.
        -11    1    3    3    0    0  0.67216186056E+00  0.26859652675E+02  0.16867580820E+02  0.31723934594E+02  0.00000000000E+00 0. -1.
         22    1    1    2    0    0  0.91349710378E+00  0.14799449257E+02  0.16099483512E+02  0.21887246164E+02  0.00000000000E+00 0. -1.
<mgrwt>
<rscale>  0 0.58350630E+02</rscale>
<asrwt>0</asrwt>
<pdfrwt beam="1">  1        2 0.19298086E-02 0.92123471E+02</pdfrwt>
<pdfrwt beam="2">  1       -2 0.36747661E-01 0.92123471E+02</pdfrwt>
<totfact> 0.35029222E+04</totfact>
</mgrwt>
</event>
<event>
 6    1  0.1661841E-002  0.9935395E+02  0.7546771E-02  0.1414344E+00
          2   -1    0    0  501    0  0.00000000000E+00  0.00000000000E+00  0.30234396483E+03  0.30234396483E+03  0.00000000000E+00 0. -1.
         -2   -1    0    0    0  501 -0.00000000000E+00 -0.00000000000E+00 -0.99781835421E+01  0.99781835421E+01  0.00000000000E+00 0.  1.
         23    2    1    2    0    0 -0.10037235476E+02 -0.18010887703E+01  0.25776306051E+03  0.27624808149E+03  0.98829232226E+02 0.  0.
         13    1    3    3    0    0  0.18314122965E+02  0.19738130012E+02  0.14869600371E+02  0.30758834366E+02  0.00000000000E+00 0.  1.
        -13    1    3    3    0    0 -0.28351358441E+02 -0.21539218783E+02  0.24289346014E+03  0.24548924712E+03  0.00000000000E+00 0. -1.
         22    1    1    2    0    0  0.10037235476E+02  0.18010887703E+01  0.34602720778E+02  0.36074066890E+02  0.00000000000E+00 0. -1.
<mgrwt>
<rscale>  0 0.56235791E+02</rscale>
<asrwt>0</asrwt>
<pdfrwt beam="1">  1        2 0.46514449E-01 0.99353949E+02</pdfrwt>
<pdfrwt beam="2">  1       -2 0.15351054E-02 0.99353949E+02</pdfrwt>
<totfact> 0.10742868E+05</totfact>
</mgrwt>
</event>
<event>
 6    1  0.1661841E-002  0.9479302E+02  0.7546771E-02  0.1401265E+00
         -2   -1    0    0    0  501 -0.00000000000E+00  0.00000000000E+00  0.82596819735E+02  0.82596819735E+02  0.00000000000E+00 0.  1.
          2   -1    0    0  501    0  0.00000000000E+00 -0.00000000000E+00 -0.36168315337E+02  0.36168315337E+02  0.00000000000E+00 0. -1.
         23    2    1    2    0    0 -0.12815278675E+02  0.65882168450E+01  0.42083740389E+02  0.10371478813E+03  0.93691408909E+02 0.  0.
         13    1    3    3    0    0 -0.10410926521E+02  0.32316608399E+02 -0.17914494554E+02  0.38388535848E+02  0.00000000000E+00 0. -1.
        -13    1    3    3    0    0 -0.24043521542E+01 -0.25728391554E+02  0.59998234943E+02  0.65326252284E+02  0.00000000000E+00 0.  1.
         22    1    1    2    0    0  0.12815278675E+02 -0.65882168450E+01  0.43447640094E+01  0.15050346940E+02  0.00000000000E+00 0. -1.
<mgrwt>
<rscale>  0 0.59189556E+02</rscale>
<asrwt>0</asrwt>
<pdfrwt beam="1">  1        2 0.55643562E-02 0.94793017E+02</pdfrwt>
<pdfrwt beam="2">  1       -2 0.12707203E-01 0.94793017E+02</pdfrwt>
<totfact> 0.52985256E+04</totfact>
</mgrwt>
</event>
<event>
 6    1  0.1661841E-002  0.8919625E+02  0.7546771E-02  0.1431577E+00
          2   -1    0    0  501    0  0.00000000000E+00  0.00000000000E+00  0.40913546075E+02  0.40913546075E+02  0.00000000000E+00 0. -1.
         -2   -1    0    0    0  501 -0.00000000000E+00 -0.00000000000E+00 -0.70099744122E+02  0.70099744122E+02  0.00000000000E+00 0.  1.
         23    2    1    2    0    0  0.56410890517E+01 -0.92376563565E+01 -0.38098796985E+02  0.96992213189E+02  0.88537082101E+02 0.  0.
         11    1    3    3    0    0 -0.36088708443E+02 -0.24978961172E+02 -0.24988702927E+02  0.50505233910E+02  0.00000000000E+00 0. -1.
        -11    1    3    3    0    0  0.41729797495E+02  0.15741304816E+02 -0.13110094058E+02  0.46486979279E+02  0.00000000000E+00 0.  1.
         22    1    1    2    0    0 -0.56410890517E+01  0.92376563565E+01  0.89125989376E+01  0.14021077008E+02  0.00000000000E+00 0. -1.
<mgrwt>
<rscale>  0 0.52644814E+02</rscale>
<asrwt>0</asrwt>
<pdfrwt beam="1">  1        2 0.62943917E-02 0.89196250E+02</pdfrwt>
<pdfrwt beam="2">  1       -2 0.10784576E-01 0.89196250E+02</pdfrwt>
<totfact> 0.58146718E+04</totfact>
</mgrwt>
</event>
<event>
 6    1  0.1661841E-002  0.9457150E+02  0.7546771E-02  0.1407555E+00
          4   -1    0    0  501    0  0.00000000000E+00  0.00000000000E+00  0.76459812777E+02  0.76459812777E+02  0.00000000000E+00 0. -1.
         -4   -1    0    0    0  501 -0.00000000000E+00 -0.00000000000E+00 -0.38638221233E+02  0.38638221233E+02  0.00000000000E+00 0.  1.
         23    2    1    2    0    0  0.26011741341E+00 -0.13141059703E+02  0.27809889403E+02  0.98575646441E+02  0.93653686588E+02 0.  0.
         11    1    3    3    0    0  0.46581650447E+02 -0.10432525199E+02  0.93775541730E+01  0.48647983130E+02  0.00000000000E+00 0. -1.
        -11    1    3    3    0    0 -0.46321533033E+02 -0.27085345044E+01  0.18432335230E+02  0.49927663311E+02  0.00000000000E+00 0.  1.
         22    1    1    2    0    0 -0.26011741341E+00  0.13141059703E+02  0.10011702141E+02  0.16522387568E+02  0.00000000000E+00 0. -1.
<mgrwt>
<rscale>  0 0.57742963E+02</rscale>
<asrwt>0</asrwt>
<pdfrwt beam="1">  1        4 0.11763048E-01 0.94571497E+02</pdfrwt>
<pdfrwt beam="2">  1       -4 0.59443418E-02 0.94571497E+02</pdfrwt>
<totfact> 0.15144607E+04</totfact>
</mgrwt>
</event>
<event>
 6    1  0.1661841E-002  0.9023176E+02  0.7546771E-02  0.1404561E+00
          2   -1    0    0  501    0  0.00000000000E+00  0.00000000000E+00  0.85557682243E+02  0.85557682243E+02  0.00000000000E+00 0. -1.
         -2   -1    0    0    0  501 -0.00000000000E+00 -0.00000000000E+00 -0.33665336823E+02  0.33665336823E+02  0.00000000000E+00 0.  1.
         23    2    1    2    0    0  0.13630045267E+02 -0.81111170366E+01  0.37188027243E+02  0.97594673623E+02  0.88826812369E+02 0.  0.
         11    1    3    3    0    0  0.15113000517E+02 -0.46651703021E+02  0.32292354233E+02  0.58716099336E+02  0.00000000000E+00 0. -1.
        -11    1    3    3    0    0 -0.14829552493E+01  0.38540585985E+02  0.48956730105E+01  0.38878574286E+02  0.00000000000E+00 0.  1.
         22    1    1    2    0    0 -0.13630045267E+02  0.81111170366E+01  0.14704318176E+02  0.21628345443E+02  0.00000000000E+00 0. -1.
<mgrwt>
<rscale>  0 0.58425385E+02</rscale>
<asrwt>0</asrwt>
<pdfrwt beam="1">  1        2 0.13162720E-01 0.90231762E+02</pdfrwt>
<pdfrwt beam="2">  1       -2 0.51792826E-02 0.90231762E+02</pdfrwt>
<totfact> 0.72206404E+04</totfact>
</mgrwt>
</event>
<event>
 6    1  0.1661841E-002  0.9769787E+02  0.7546771E-02  0.1376296E+00
         -2   -1    0    0    0  501 -0.00000000000E+00  0.00000000000E+00  0.60555746814E+03  0.60555746814E+03  0.00000000000E+00 0.  1.
          2   -1    0    0  501    0  0.00000000000E+00 -0.00000000000E+00 -0.60063207499E+01  0.60063207499E+01  0.00000000000E+00 0. -1.
         23    2    1    2    0    0  0.82716297643E+00  0.19657631191E+02  0.54219830646E+03  0.55093001097E+03  0.95696221406E+02 0.  0.
         11    1    3    3    0    0 -0.16938903676E+02  0.34321594555E+02  0.50947993885E+03  0.51091555702E+03  0.00000000000E+00 0.  1.
        -11    1    3    3    0    0  0.17766066653E+02 -0.14663963364E+02  0.32718367614E+02  0.40014453953E+02  0.00000000000E+00 0. -1.
         22    1    1    2    0    0 -0.82716297643E+00 -0.19657631191E+02  0.57352840924E+02  0.60633777919E+02  0.00000000000E+00 0. -1.
<mgrwt>
<rscale>  0 0.65447437E+02</rscale>
<asrwt>0</asrwt>
<pdfrwt beam="1">  1        2 0.92404982E-03 0.97697868E+02</pdfrwt>
<pdfrwt beam="2">  1       -2 0.93162640E-01 0.97697868E+02</pdfrwt>
<totfact> 0.14507343E+04</totfact>
</mgrwt>
</event>
<event>
 6    1  0.1661841E-002  0.9392050E+02  0.7546771E-02  0.1408909E+00
         -4   -1    0    0    0  501 -0.00000000000E+00  0.00000000000E+00  0.43375740328E+03  0.43375740328E+03  0.00000000000E+00 0.  1.
          4   -1    0    0  501    0  0.00000000000E+00 -0.00000000000E+00 -0.11597499092E+02  0.11597499092E+02  0.00000000000E+00 0. -1.
         23    2    1    2    0    0  0.70074104628E+01  0.11112766746E+02  0.42188653639E+03  0.43221442612E+03  0.92997113807E+02 0.  0.
         13    1    3    3    0    0  0.27509161326E+02  0.17722175660E+02  0.40058665992E+03  0.40192101409E+03  0.00000000000E+00 0.  1.
        -13    1    3    3    0    0 -0.20501750863E+02 -0.66094089141E+01  0.21299876473E+02  0.30293412029E+02  0.00000000000E+00 0. -1.
         22    1    1    2    0    0 -0.70074104628E+01 -0.11112766746E+02  0.27336780126E+00  0.13140476251E+02  0.00000000000E+00 0. -1.
<mgrwt>
<rscale>  0 0.57438036E+02</rscale>
<asrwt>0</asrwt>
<pdfrwt beam="1">  1        4 0.17842310E-02 0.93920501E+02</pdfrwt>
<pdfrwt beam="2">  1       -4 0.66731896E-01 0.93920501E+02</pdfrwt>
<totfact> 0.38261372E+03</totfact>
</mgrwt>
</event>
<event>
 6    1  0.1661841E-002  0.9163508E+02  0.7546771E-02  0.1393181E+00
         -2   -1    0    0    0  501 -0.00000000000E+00  0.00000000000E+00  0.27446055426E+03  0.27446055426E+03  0.00000000000E+00 0.  1.
          2   -1    0    0  501    0  0.00000000000E+00 -0.00000000000E+00 -0.14391902839E+02  0.14391902839E+02  0.00000000000E+00 0. -1.
         23    2    1    2    0    0  0.15058681084E+02 -0.10112449688E+02  0.25351150462E+03  0.26956459333E+03  0.89821831905E+02 0.  0.
         13    1    3    3    0    0  0.79166312239E+01 -0.17705063849E+02  0.39588279160E+01  0.19794308634E+02  0.00000000000E+00 0. -1.
        -13    1    3    3    0    0  0.71420498597E+01  0.75926141611E+01  0.24955267670E+03  0.24977028469E+03  0.00000000000E+00 0.  1.
         22    1    1    2    0    0 -0.15058681084E+02  0.10112449688E+02  0.65571468000E+01  0.19287863770E+02  0.00000000000E+00 0. -1.
<mgrwt>
<rscale>  0 0.61122344E+02</rscale>
<asrwt>0</asrwt>
<pdfrwt beam="1">  1        2 0.22141391E-02 0.91635075E+02</pdfrwt>
<pdfrwt beam="2">  1       -2 0.42224697E-01 0.91635075E+02</pdfrwt>
<totfact> 0.22426240E+04</totfact>
</mgrwt>
</event>
<event>
 6    1  0.1661841E-002  0.9604241E+02  0.7546771E-02  0.1354221E+00
          2   -1    0    0  501    0  0.00000000000E+00  0.00000000000E+00  0.14433969138E+03  0.14433969138E+03  0.00000000000E+00 0. -1.
         -2   -1    0    0    0  501 -0.00000000000E+00 -0.00000000000E+00 -0.36583115773E+02  0.36583115773E+02  0.00000000000E+00 0.  1.
         23    2    1    2    0    0  0.19149162094E+02 -0.22996864220E+02  0.34946563848E+02  0.10220277168E+03  0.91261152968E+02 0.  0.
         11    1    3    3    0    0  0.95276106477E+01 -0.57539645442E+02  0.11746621409E+02  0.59494279362E+02  0.00000000000E+00 0.  1.
        -11    1    3    3    0    0  0.96215514459E+01  0.34542781222E+02  0.23199942438E+02  0.42708492316E+02  0.00000000000E+00 0. -1.
         22    1    1    2    0    0 -0.19149162094E+02  0.22996864220E+02  0.72810011764E+02  0.78720035480E+02  0.00000000000E+00 0. -1.
<mgrwt>
<rscale>  0 0.71756010E+02</rscale>
<asrwt>0</asrwt>
<pdfrwt beam="1">  1        2 0.22206106E-01 0.96042408E+02</pdfrwt>
<pdfrwt beam="2">  1       -2 0.56281717E-02 0.96042408E+02</pdfrwt>
<totfact> 0.35447892E+04</totfact>
</mgrwt>
</event>
<event>
 6    1  0.1661841E-002  0.9602534E+02  0.7546771E-02  0.1352380E+00
          2   -1    0    0  501    0  0.00000000000E+00  0.00000000000E+00  0.16059010919E+03  0.16059010919E+03  0.00000000000E+00 0. -1.
         -2   -1    0    0    0  501 -0.00000000000E+00 -0.00000000000E+00 -0.29551071339E+02  0.29551071339E+02  0.00000000000E+00 0.  1.
         23    2    1    2    0    0  0.14476486889E+02  0.27290810892E+02  0.61452778070E+02  0.11400574474E+03  0.90920343545E+02 0.  0.
         11    1    3    3    0    0  0.20823597570E+01  0.48677324521E+02  0.72159781418E+02  0.87068089441E+02  0.00000000000E+00 0. -1.
        -11    1    3    3    0    0  0.12394127132E+02 -0.21386513629E+02 -0.10707003347E+02  0.26937655303E+02  0.00000000000E+00 0.  1.
         22    1    1    2    0    0 -0.14476486889E+02 -0.27290810892E+02  0.69586259781E+02  0.76135435785E+02  0.00000000000E+00 0. -1.
<mgrwt>
<rscale>  0 0.72319139E+02</rscale>
<asrwt>0</asrwt>
<pdfrwt beam="1">  1        2 0.24706170E-01 0.96025340E+02</pdfrwt>
<pdfrwt beam="2">  1       -2 0.45463188E-02 0.96025340E+02</pdfrwt>
<totfact> 0.43320380E+04</totfact>
</mgrwt>
</event>
<event>
 6    1  0.1661841E-002  0.9731027E+02  0.7546771E-02  0.1379898E+00
          2   -1    0    0  501    0  0.00000000000E+00  0.00000000000E+00  0.66519688687E+02  0.66519688687E+02  0.00000000000E+00 0.  1.
         -2   -1    0    0    0  501 -0.00000000000E+00 -0.00000000000E+00 -0.57724796572E+02  0.57724796572E+02  0.00000000000E+00 0. -1.
         23    2    1    2    0    0 -0.18155905586E+02  0.47690118711E+01  0.23839497902E+02  0.10018787400E+03  0.95482501303E+02 0.  0.
         13    1    3    3    0    0 -0.22251221997E+02  0.36691617532E+02 -0.18730300294E+02  0.46821104500E+02  0.00000000000E+00 0. -1.
        -13    1    3    3    0    0  0.40953164107E+01 -0.31922605661E+02  0.42569798196E+02  0.53366769503E+02  0.00000000000E+00 0.  1.
         22    1    1    2    0    0  0.18155905586E+02 -0.47690118711E+01 -0.15044605786E+02  0.24056611256E+02  0.00000000000E+00 0.  1.
<mgrwt>
<rscale>  0 0.64490459E+02</rscale>
<asrwt>0</asrwt>
<pdfrwt beam="1">  1        2 0.10233798E-01 0.97310269E+02</pdfrwt>
<pdfrwt beam="2">  1       -2 0.88807379E-02 0.97310269E+02</pdfrwt>
<totfact> 0.43562162E+04</totfact>
</mgrwt>
</event>
<event>
 6    1  0.1661841E-002  0.9118594E+02  0.7546771E-02  0.1413791E+00
         -2   -1    0    0    0  501 -0.00000000000E+00  0.00000000000E+00  0.36274012791E+02  0.36274012791E+02  0.00000000000E+00 0.  1.
          2   -1    0    0  501    0  0.00000000000E+00 -0.00000000000E+00 -0.13173870450E+03  0.13173870450E+03  0.00000000000E+00 0. -1.
         23    2    1    2    0    0 -0.42772589462E+01  0.12597957727E+02 -0.22601978244E+02  0.93945325705E+02  0.90210150860E+02 0.  0.
         13    1    3    3    0    0 -0.21169892790E+01  0.19693636835E+02 -0.56173979465E+02  0.59563721713E+02  0.00000000000E+00 0. -1.
        -13    1    3    3    0    0 -0.21602696671E+01 -0.70956791078E+01  0.33572001221E+02  0.34381603992E+02  0.00000000000E+00 0.  1.
         22    1    1    2    0    0  0.42772589462E+01 -0.12597957727E+02 -0.72862713466E+02  0.74067391588E+02  0.00000000000E+00 0. -1.
<mgrwt>
<rscale>  0 0.56356449E+02</rscale>
<asrwt>0</asrwt>
<pdfrwt beam="1">  1        2 0.20267493E-01 0.91185935E+02</pdfrwt>
<pdfrwt beam="2">  1       -2 0.55806174E-02 0.91185935E+02</pdfrwt>
<totfact> 0.39476021E+04</totfact>
</mgrwt>
</event>
<event>
 6    1  0.1661841E-002  0.9124912E+02  0.7546771E-02  0.1428051E+00
          2   -1    0    0  501    0  0.00000000000E+00  0.00000000000E+00  0.94033543045E+02  0.94033543045E+02  0.00000000000E+00 0. -1.
         -2   -1    0    0    0  501 -0.00000000000E+00 -0.00000000000E+00 -0.51208246479E+02  0.51208246479E+02  0.00000000000E+00 0.  1.
         23    2    1    2    0    0  0.70759722850E+01  0.79793453274E+01 -0.95907744908E+01  0.91751754558E+02  0.90623739569E+02 0.  0.
         13    1    3    3    0    0  0.58371098836E+00  0.42202575662E+01  0.40690990960E+02  0.40913421242E+02  0.00000000000E+00 0. -1.
        -13    1    3    3    0    0  0.64922612966E+01  0.37590877612E+01 -0.50281765450E+02  0.50838333316E+02  0.00000000000E+00 0.  1.
         22    1    1    2    0    0 -0.70759722850E+01 -0.79793453274E+01  0.52416071057E+02  0.53490034966E+02  0.00000000000E+00 0. -1.
<mgrwt>
<rscale>  0 0.53353184E+02</rscale>
<asrwt>0</asrwt>
<pdfrwt beam="1">  1        2 0.14466699E-01 0.91249118E+02</pdfrwt>
<pdfrwt beam="2">  1       -2 0.78781918E-02 0.91249118E+02</pdfrwt>
<totfact> 0.34431307E+04</totfact>
</mgrwt>
</event>
<event>
 6    1  0.1661841E-002  0.8811854E+02  0.7546771E-02  0.1418788E+00
         -2   -1    0    0    0  501 -0.00000000000E+00  0.00000000000E+00  0.26338510593E+03  0.26338510593E+03  0.00000000000E+00 0.  1.
          2   -1    0    0  501    0  0.00000000000E+00 -0.00000000000E+00 -0.10841063125E+02  0.10841063125E+02  0.00000000000E+00 0. -1.
         23    2    1    2    0    0  0.12436663895E+02  0.56168151518E+01  0.24009457532E+03  0.25575434018E+03  0.87055489207E+02 0.  0.
         11    1    3    3    0    0 -0.27077856795E+02  0.17724815711E+02  0.17958672097E+03  0.18247950506E+03  0.00000000000E+00 0.  1.
        -11    1    3    3    0    0  0.39514520690E+02 -0.12108000559E+02  0.60507854359E+02  0.73274835121E+02  0.00000000000E+00 0. -1.
         22    1    1    2    0    0 -0.12436663895E+02 -0.56168151518E+01  0.12449467478E+02  0.18471828869E+02  0.00000000000E+00 0.  1.
<mgrwt>
<rscale>  0 0.55278155E+02</rscale>
<asrwt>0</asrwt>
<pdfrwt beam="1">  1        2 0.16678561E-02 0.88118542E+02</pdfrwt>
<pdfrwt beam="2">  1       -2 0.40520781E-01 0.88118542E+02</pdfrwt>
<totfact> 0.35331383E+04</totfact>
</mgrwt>
</event>
<event>
 6    1  0.1661841E-002  0.9075497E+02  0.7546771E-02  0.1406728E+00
         -2   -1    0    0    0  501 -0.00000000000E+00  0.00000000000E+00  0.20438981900E+03  0.20438981900E+03  0.00000000000E+00 0.  1.
          2   -1    0    0  501    0  0.00000000000E+00 -0.00000000000E+00 -0.14082916347E+02  0.14082916347E+02  0.00000000000E+00 0. -1.
         23    2    1    2    0    0  0.22365278673E+01 -0.14899660294E+02  0.17416287651E+03  0.19639035518E+03  0.89495598324E+02 0.  0.
         11    1    3    3    0    0  0.30398172103E+02 -0.40340774425E+02  0.77112400205E+02  0.92183237163E+02  0.00000000000E+00 0. -1.
        -11    1    3    3    0    0 -0.28161644236E+02  0.25441114131E+02  0.97050476302E+02  0.10420711801E+03  0.00000000000E+00 0.  1.
         22    1    1    2    0    0 -0.22365278673E+01  0.14899660294E+02  0.16144026148E+02  0.22082380171E+02  0.00000000000E+00 0.  1.
<mgrwt>
<rscale>  0 0.57930396E+02</rscale>
<asrwt>0</asrwt>
<pdfrwt beam="1">  1        2 0.21666027E-02 0.90754967E+02</pdfrwt>
<pdfrwt beam="2">  1       -2 0.31444585E-01 0.90754967E+02</pdfrwt>
<totfact> 0.39721712E+04</totfact>
</mgrwt>
</event>
<event>
 6    1  0.1661841E-002  0.9349014E+02  0.7546771E-02  0.1388974E+00
          2   -1    0    0  501    0  0.00000000000E+00  0.00000000000E+00  0.42194416715E+01  0.42194416715E+01  0.00000000000E+00 0. -1.
         -2   -1    0    0    0  501 -0.00000000000E+00 -0.00000000000E+00 -0.97470756995E+03  0.97470756995E+03  0.00000000000E+00 0.  1.
         23    2    1    2    0    0 -0.16534461864E+02  0.77802753887E+01 -0.92771722060E+03  0.93241602735E+03  0.91686888635E+02 0.  0.
         13    1    3    3    0    0 -0.45156675827E+02  0.32394598026E+02 -0.57932530024E+03  0.58198482699E+03  0.00000000000E+00 0. -1.
        -13    1    3    3    0    0  0.28622213963E+02 -0.24614322637E+02 -0.34839192036E+03  0.35043120036E+03  0.00000000000E+00 0.  1.
         22    1    1    2    0    0  0.16534461864E+02 -0.77802753887E+01 -0.42770907681E+02  0.46510984274E+02  0.00000000000E+00 0. -1.
<mgrwt>
<rscale>  0 0.62162697E+02</rscale>
<asrwt>0</asrwt>
<pdfrwt beam="1">  1        2 0.64914498E-03 0.93490142E+02</pdfrwt>
<pdfrwt beam="2">  1       -2 0.14995499E+00 0.93490142E+02</pdfrwt>
<totfact> 0.75425153E+03</totfact>
</mgrwt>
</event>
<event>
 6    1  0.1661841E-002  0.8889505E+02  0.7546771E-02  0.1415536E+00
          1   -1    0    0  501    0  0.00000000000E+00  0.00000000000E+00  0.58881084013E+03  0.58881084013E+03  0.00000000000E+00 0. -1.
         -1   -1    0    0    0  501 -0.00000000000E+00 -0.00000000000E+00 -0.47923408241E+01  0.47923408241E+01  0.00000000000E+00 0.  1.
         23    2    1    2    0    0 -0.89088936686E+01  0.10768848818E+02  0.54397625609E+03  0.55119188843E+03  0.87789487968E+02 0.  0.
         13    1    3    3    0    0 -0.23804055220E+02  0.48738764407E+01  0.38922048422E+02  0.45883696123E+02  0.00000000000E+00 0.  1.
        -13    1    3    3    0    0  0.14895161552E+02  0.58949723770E+01  0.50505420766E+03  0.50530819231E+03  0.00000000000E+00 0. -1.
         22    1    1    2    0    0  0.89088936686E+01 -0.10768848818E+02  0.40042243223E+02  0.42411292524E+02  0.00000000000E+00 0.  1.
<mgrwt>
<rscale>  0 0.55976549E+02</rscale>
<asrwt>0</asrwt>
<pdfrwt beam="1">  1        1 0.90586226E-01 0.88895054E+02</pdfrwt>
<pdfrwt beam="2">  1       -1 0.73728367E-03 0.88895054E+02</pdfrwt>
<totfact> 0.91757466E+04</totfact>
</mgrwt>
</event>
<event>
 6    1  0.1661841E-002  0.9556409E+02  0.7546771E-02  0.1385054E+00
         -2   -1    0    0    0  501 -0.00000000000E+00  0.00000000000E+00  0.31053326316E+02  0.31053326316E+02  0.00000000000E+00 0.  1.
          2   -1    0    0  501    0  0.00000000000E+00 -0.00000000000E+00 -0.15989867008E+03  0.15989867008E+03  0.00000000000E+00 0. -1.
         23    2    1    2    0    0  0.17736244735E+02 -0.42000574332E+01 -0.45877832927E+02  0.10600599758E+03  0.93809813504E+02 0.  0.
         13    1    3    3    0    0  0.14615601836E+02 -0.46938429255E+02 -0.38679499107E+02  0.62553462008E+02  0.00000000000E+00 0. -1.
        -13    1    3    3    0    0  0.31206428989E+01  0.42738371822E+02 -0.71983338194E+01  0.43452535575E+02  0.00000000000E+00 0.  1.
         22    1    1    2    0    0 -0.17736244735E+02  0.42000574332E+01 -0.82967510841E+02  0.84945998816E+02  0.00000000000E+00 0. -1.
<mgrwt>
<rscale>  0 0.63153648E+02</rscale>
<asrwt>0</asrwt>
<pdfrwt beam="1">  1        2 0.24599796E-01 0.95564094E+02</pdfrwt>
<pdfrwt beam="2">  1       -2 0.47774348E-02 0.95564094E+02</pdfrwt>
<totfact> 0.40415272E+04</totfact>
</mgrwt>
</event>
<event>
 6    1  0.1661841E-002  0.9398825E+02  0.7546771E-02  0.1394387E+00
          2   -1    0    0  501    0  0.00000000000E+00  0.00000000000E+00  0.18453441187E+03  0.18453441187E+03  0.00000000000E+00 0. -1.
         -2   -1    0    0    0  501 -0.00000000000E+00 -0.00000000000E+00 -0.16573408240E+02  0.16573408240E+02  0.00000000000E+00 0.  1.
         23    2    1    2    0    0 -0.93752021272E+01  0.13565226961E+02  0.13931900689E+03  0.16805825469E+03  0.92530435481E+02 0.  0.
         13    1    3    3    0    0 -0.59866404054E+01  0.54515310540E+01  0.15222579054E+03  0.15244097336E+03  0.00000000000E+00 0. -1.
        -13    1    3    3    0    0 -0.33885617218E+01  0.81136959066E+01 -0.12906783650E+02  0.15617281325E+02  0.00000000000E+00 0.  1.
         22    1    1    2    0    0  0.93752021272E+01 -0.13565226961E+02  0.28641996742E+02  0.33049565426E+02  0.00000000000E+00 0. -1.
<mgrwt>
<rscale>  0 0.60828665E+02</rscale>
<asrwt>0</asrwt>
<pdfrwt beam="1">  1        2 0.28389908E-01 0.93988251E+02</pdfrwt>
<pdfrwt beam="2">  1       -2 0.25497552E-02 0.93988251E+02</pdfrwt>
<totfact> 0.86587258E+04</totfact>
</mgrwt>
</event>
<event>
 6    1  0.1661841E-002  0.9439293E+02  0.7546771E-02  0.1406973E+00
          4   -1    0    0  501    0  0.00000000000E+00  0.00000000000E+00  0.63334095545E+02  0.63334095545E+02  0.00000000000E+00 0. -1.
         -4   -1    0    0    0  501 -0.00000000000E+00 -0.00000000000E+00 -0.46070031088E+02  0.46070031088E+02  0.00000000000E+00 0.  1.
         23    2    1    2    0    0  0.12895783906E+02  0.34121784119E+01  0.12392909396E+02  0.95202987394E+02  0.93445601295E+02 0.  0.
         11    1    3    3    0    0 -0.19163765291E+02 -0.21250880593E+02 -0.26564134421E+02  0.39044885243E+02  0.00000000000E+00 0.  1.
        -11    1    3    3    0    0  0.32059549197E+02  0.24663059005E+02  0.38957043817E+02  0.56158102150E+02  0.00000000000E+00 0. -1.
         22    1    1    2    0    0 -0.12895783906E+02 -0.34121784119E+01  0.48711550615E+01  0.14201139240E+02  0.00000000000E+00 0. -1.
<mgrwt>
<rscale>  0 0.57874875E+02</rscale>
<asrwt>0</asrwt>
<pdfrwt beam="1">  1        4 0.97437070E-02 0.94392927E+02</pdfrwt>
<pdfrwt beam="2">  1       -4 0.70876971E-02 0.94392927E+02</pdfrwt>
<totfact> 0.15619980E+04</totfact>
</mgrwt>
</event>
<event>
 6    1  0.1661841E-002  0.8497089E+02  0.7546771E-02  0.1444486E+00
         -2   -1    0    0    0  501 -0.00000000000E+00  0.00000000000E+00  0.28600754624E+03  0.28600754624E+03  0.00000000000E+00 0.  1.
          2   -1    0    0  501    0  0.00000000000E+00 -0.00000000000E+00 -0.81066212044E+01  0.81066212044E+01  0.00000000000E+00 0. -1.
         23    2    1    2    0    0 -0.10006656642E+02 -0.25141879497E+01  0.25897644193E+03  0.27255980875E+03  0.84342145746E+02 0.  0.
         13    1    3    3    0    0 -0.13671339735E+02 -0.14022015483E+02  0.25972226515E+03  0.26045955053E+03  0.00000000000E+00 0.  1.
        -13    1    3    3    0    0  0.36646830929E+01  0.11507827534E+02 -0.74582321180E+00  0.12100258219E+02  0.00000000000E+00 0. -1.
         22    1    1    2    0    0  0.10006656642E+02  0.25141879497E+01  0.18924483098E+02  0.21554358694E+02  0.00000000000E+00 0. -1.
<mgrwt>
<rscale>  0 0.50158903E+02</rscale>
<asrwt>0</asrwt>
<pdfrwt beam="1">  1        2 0.12471727E-02 0.84970888E+02</pdfrwt>
<pdfrwt beam="2">  1       -2 0.44001153E-01 0.84970888E+02</pdfrwt>
<totfact> 0.44599275E+04</totfact>
</mgrwt>
</event>
<event>
 6    1  0.1661841E-002  0.9289204E+02  0.7546771E-02  0.1386284E+00
         -4   -1    0    0    0  501 -0.00000000000E+00  0.00000000000E+00  0.95056116726E+02  0.95056116726E+02  0.00000000000E+00 0.  1.
          4   -1    0    0  501    0  0.00000000000E+00 -0.00000000000E+00 -0.11722876476E+03  0.11722876476E+03  0.00000000000E+00 0. -1.
         23    2    1    2    0    0  0.13363976089E+02 -0.14138239502E+02  0.71116180830E+02  0.11698907222E+03  0.90831966672E+02 0.  0.
         13    1    3    3    0    0  0.48401625405E+02  0.34446859930E+01  0.19790012779E+02  0.52404463638E+02  0.00000000000E+00 0.  1.
        -13    1    3    3    0    0 -0.35037649316E+02 -0.17582925495E+02  0.51326168052E+02  0.64584608580E+02  0.00000000000E+00 0. -1.
         22    1    1    2    0    0 -0.13363976089E+02  0.14138239502E+02 -0.93288828863E+02  0.95295809266E+02  0.00000000000E+00 0. -1.
<mgrwt>
<rscale>  0 0.62840563E+02</rscale>
<asrwt>0</asrwt>
<pdfrwt beam="1">  1        4 0.18035195E-01 0.92892044E+02</pdfrwt>
<pdfrwt beam="2">  1       -4 0.14624018E-01 0.92892044E+02</pdfrwt>
<totfact> 0.16096246E+03</totfact>
</mgrwt>
</event>
<event>
 6    1  0.1661841E-002  0.9712330E+02  0.7546771E-02  0.1345346E+00
         -2   -1    0    0    0  501 -0.00000000000E+00  0.00000000000E+00  0.24784195443E+02  0.24784195443E+02  0.00000000000E+00 0. -1.
          2   -1    0    0  501    0  0.00000000000E+00 -0.00000000000E+00 -0.18128931622E+03  0.18128931622E+03  0.00000000000E+00 0.  1.
         23    2    1    2    0    0 -0.32208603173E+02 -0.98156401825E+01 -0.94472036279E+02  0.13549132919E+03  0.91099910734E+02 0.  0.
         11    1    3    3    0    0  0.22849915344E+02 -0.30488303508E+02 -0.32823163703E+02  0.50289316534E+02  0.00000000000E+00 0. -1.
        -11    1    3    3    0    0 -0.55058518517E+02  0.20672663325E+02 -0.61648872577E+02  0.85202012654E+02  0.00000000000E+00 0.  1.
         22    1    1    2    0    0  0.32208603173E+02  0.98156401825E+01 -0.62033084496E+02  0.70582182473E+02  0.00000000000E+00 0.  1.
<mgrwt>
<rscale>  0 0.74525824E+02</rscale>
<asrwt>0</asrwt>
<pdfrwt beam="1">  1        2 0.27890664E-01 0.97123296E+02</pdfrwt>
<pdfrwt beam="2">  1       -2 0.38129531E-02 0.97123296E+02</pdfrwt>
<totfact> 0.49302419E+04</totfact>
</mgrwt>
</event>
<event>
 6    1  0.1661841E-002  0.9251720E+02  0.7546771E-02  0.1404115E+00
         -1   -1    0    0    0  501 -0.00000000000E+00  0.00000000000E+00  0.11998426861E+03  0.11998426861E+03  0.00000000000E+00 0.  1.
          1   -1    0    0  501    0  0.00000000000E+00 -0.00000000000E+00 -0.24689591237E+02  0.24689591237E+02  0.00000000000E+00 0. -1.
         23    2    1    2    0    0  0.10709673766E+02  0.10240598041E+02  0.89619672888E+02  0.12880651488E+03  0.91322864316E+02 0.  0.
         13    1    3    3    0    0  0.42901887999E+02 -0.13632689598E+02  0.21769158153E+02  0.50003184561E+02  0.00000000000E+00 0. -1.
        -13    1    3    3    0    0 -0.32192214233E+02  0.23873287638E+02  0.67850514735E+02  0.78803330321E+02  0.00000000000E+00 0.  1.
         22    1    1    2    0    0 -0.10709673766E+02 -0.10240598041E+02  0.56750044886E+01  0.15867344968E+02  0.00000000000E+00 0.  1.
<mgrwt>
<rscale>  0 0.58527873E+02</rscale>
<asrwt>0</asrwt>
<pdfrwt beam="1">  1        1 0.37983987E-02 0.92517201E+02</pdfrwt>
<pdfrwt beam="2">  1       -1 0.18459118E-01 0.92517201E+02</pdfrwt>
<totfact> 0.48469581E+04</totfact>
</mgrwt>
</event>
<event>
 6    1  0.1661841E-002  0.9227820E+02  0.7546771E-02  0.1423134E+00
         -3   -1    0    0    0  501 -0.00000000000E+00  0.00000000000E+00  0.23490754766E+02  0.23490754766E+02  0.00000000000E+00 0.  1.
          3   -1    0    0  501    0  0.00000000000E+00 -0.00000000000E+00 -0.14663519088E+03  0.14663519088E+03  0.00000000000E+00 0. -1.
         23    2    1    2    0    0  0.65910549083E+01 -0.89503780846E+01 -0.69980648512E+02  0.11581259936E+03  0.91606308361E+02 0.  0.
         13    1    3    3    0    0  0.32736864017E+02 -0.23717806121E+02 -0.75159213038E+02  0.85341337565E+02  0.00000000000E+00 0. -1.
        -13    1    3    3    0    0 -0.26145809109E+02  0.14767428036E+02  0.51785645264E+01  0.30471261794E+02  0.00000000000E+00 0.  1.
         22    1    1    2    0    0 -0.65910549083E+01  0.89503780846E+01 -0.53163787604E+02  0.54313346289E+02  0.00000000000E+00 0. -1.
<mgrwt>
<rscale>  0 0.54363230E+02</rscale>
<asrwt>0</asrwt>
<pdfrwt beam="1">  1        3 0.22559261E-01 0.92278204E+02</pdfrwt>
<pdfrwt beam="2">  1       -3 0.36139622E-02 0.92278204E+02</pdfrwt>
<totfact> 0.14208559E+04</totfact>
</mgrwt>
</event>
<event>
 6    1  0.1661841E-002  0.9134942E+02  0.7546771E-02  0.1385837E+00
          2   -1    0    0  501    0  0.00000000000E+00  0.00000000000E+00  0.24955642662E+03  0.24955642662E+03  0.00000000000E+00 0.  1.
         -2   -1    0    0    0  501 -0.00000000000E+00 -0.00000000000E+00 -0.12564390159E+02  0.12564390159E+02  0.00000000000E+00 0. -1.
         23    2    1    2    0    0  0.61872227890E+00  0.20596052621E+02  0.19592686026E+03  0.21617597053E+03  0.88995142903E+02 0.  0.
         13    1    3    3    0    0 -0.41434665657E+02  0.24038831533E+02  0.12180330911E+03  0.13088446451E+03  0.00000000000E+00 0.  1.
        -13    1    3    3    0    0  0.42053387936E+02 -0.34427789121E+01  0.74123551151E+02  0.85291506018E+02  0.00000000000E+00 0. -1.
         22    1    1    2    0    0 -0.61872227890E+00 -0.20596052621E+02  0.41065176197E+02  0.45944846250E+02  0.00000000000E+00 0. -1.
<mgrwt>
<rscale>  0 0.62954140E+02</rscale>
<asrwt>0</asrwt>
<pdfrwt beam="1">  1        2 0.38393293E-01 0.91349415E+02</pdfrwt>
<pdfrwt beam="2">  1       -2 0.19329833E-02 0.91349415E+02</pdfrwt>
<totfact> 0.93258905E+04</totfact>
</mgrwt>
</event>
<event>
 6    1  0.1661841E-002  0.9349560E+02  0.7546771E-02  0.1377069E+00
          3   -1    0    0  501    0  0.00000000000E+00  0.00000000000E+00  0.33302162903E+02  0.33302162903E+02  0.00000000000E+00 0. -1.
         -3   -1    0    0    0  501 -0.00000000000E+00 -0.00000000000E+00 -0.13530823717E+03  0.13530823717E+03  0.00000000000E+00 0.  1.
         23    2    1    2    0    0 -0.10936773970E+02 -0.19280671790E+02 -0.11061145992E+03  0.14483204875E+03  0.90829895679E+02 0.  0.
         13    1    3    3    0    0 -0.14738774008E+02 -0.21832606604E+01  0.13128648702E+02  0.19858486929E+02  0.00000000000E+00 0. -1.
        -13    1    3    3    0    0  0.38020000386E+01 -0.17097411129E+02 -0.12374010862E+03  0.12497356182E+03  0.00000000000E+00 0.  1.
         22    1    1    2    0    0  0.10936773970E+02  0.19280671790E+02  0.86053856541E+01  0.23778351326E+02  0.00000000000E+00 0. -1.
<mgrwt>
<rscale>  0 0.65240617E+02</rscale>
<asrwt>0</asrwt>
<pdfrwt beam="1">  1        3 0.51234097E-02 0.93495600E+02</pdfrwt>
<pdfrwt beam="2">  1       -3 0.20816652E-01 0.93495600E+02</pdfrwt>
<totfact> 0.95376027E+03</totfact>
</mgrwt>
</event>
<event>
 6    1  0.1661841E-002  0.8925569E+02  0.7546771E-02  0.1434170E+00
          2   -1    0    0  501    0  0.00000000000E+00  0.00000000000E+00  0.19385283429E+02  0.19385283429E+02  0.00000000000E+00 0. -1.
         -2   -1    0    0    0  501 -0.00000000000E+00 -0.00000000000E+00 -0.14926757166E+03  0.14926757166E+03  0.00000000000E+00 0.  1.
         23    2    1    2    0    0 -0.16471484903E+01  0.10255993667E+02 -0.13066046333E+03  0.15823632684E+03  0.88649195995E+02 0.  0.
         13    1    3    3    0    0 -0.37630108535E+02 -0.18816664954E+02 -0.73634167520E+02  0.84806147034E+02  0.00000000000E+00 0.  1.
        -13    1    3    3    0    0  0.35982960045E+02  0.29072658621E+02 -0.57026295809E+02  0.73430179808E+02  0.00000000000E+00 0. -1.
         22    1    1    2    0    0  0.16471484903E+01 -0.10255993667E+02  0.77817509818E+00  0.10416528247E+02  0.00000000000E+00 0. -1.
<mgrwt>
<rscale>  0 0.52131938E+02</rscale>
<asrwt>0</asrwt>
<pdfrwt beam="1">  1        2 0.29823513E-02 0.89255691E+02</pdfrwt>
<pdfrwt beam="2">  1       -2 0.22964242E-01 0.89255691E+02</pdfrwt>
<totfact> 0.44811065E+04</totfact>
</mgrwt>
</event>
<event>
 6    1  0.1661841E-002  0.9177177E+02  0.7546771E-02  0.1412882E+00
          2   -1    0    0  501    0  0.00000000000E+00  0.00000000000E+00  0.45890574755E+03  0.45890574755E+03  0.00000000000E+00 0. -1.
         -2   -1    0    0    0  501 -0.00000000000E+00 -0.00000000000E+00 -0.60875185281E+01  0.60875185281E+01  0.00000000000E+00 0.  1.
         23    2    1    2    0    0  0.52262609280E+01 -0.12161226529E+02  0.37561511759E+03  0.38666364430E+03  0.90812157904E+02 0.  0.
         13    1    3    3    0    0 -0.35186583834E+02  0.34290558764E+01  0.27301845885E+03  0.27529789861E+03  0.00000000000E+00 0. -1.
        -13    1    3    3    0    0  0.40412844763E+02 -0.15590282405E+02  0.10259665874E+03  0.11136574568E+03  0.00000000000E+00 0.  1.
         22    1    1    2    0    0 -0.52262609280E+01  0.12161226529E+02  0.77203111436E+02  0.78329621787E+02  0.00000000000E+00 0.  1.
<mgrwt>
<rscale>  0 0.56555708E+02</rscale>
<asrwt>0</asrwt>
<pdfrwt beam="1">  1        2 0.70600857E-01 0.91771767E+02</pdfrwt>
<pdfrwt beam="2">  1       -2 0.93654167E-03 0.91771767E+02</pdfrwt>
<totfact> 0.13812299E+05</totfact>
</mgrwt>
</event>
<event>
 6    1  0.1661841E-002  0.1423446E+03  0.7546771E-02  0.1222420E+00
         -4   -1    0    0    0  501 -0.00000000000E+00  0.00000000000E+00  0.75844333038E+03  0.75844333038E+03  0.00000000000E+00 0.  1.
          4   -1    0    0  501    0  0.00000000000E+00 -0.00000000000E+00 -0.22242721607E+02  0.22242721607E+02  0.00000000000E+00 0. -1.
         23    2    1    2    0    0 -0.14498816164E+02  0.10901545429E+03  0.50473112048E+03  0.52441918142E+03  0.90373607365E+02 0.  0.
         11    1    3    3    0    0  0.21440728752E+02  0.67919607743E+02  0.40021706006E+03  0.40650519447E+03  0.00000000000E+00 0.  1.
        -11    1    3    3    0    0 -0.35939544915E+02  0.41095846543E+02  0.10451406042E+03  0.11791398695E+03  0.00000000000E+00 0. -1.
         22    1    1    2    0    0  0.14498816164E+02 -0.10901545429E+03  0.23146948829E+03  0.25626687057E+03  0.00000000000E+00 0. -1.
<mgrwt>
<rscale>  0 0.13345336E+03</rscale>
<asrwt>0</asrwt>
<pdfrwt beam="1">  1        4 0.34219578E-02 0.14234456E+03</pdfrwt>
<pdfrwt beam="2">  1       -4 0.11668357E+00 0.14234456E+03</pdfrwt>
<totfact> 0.43699362E+02</totfact>
</mgrwt>
</event>
<event>
 6    1  0.1661841E-002  0.9064613E+02  0.7546771E-02  0.1418422E+00
         -2   -1    0    0    0  501 -0.00000000000E+00  0.00000000000E+00  0.13721500357E+03  0.13721500357E+03  0.00000000000E+00 0.  1.
          2   -1    0    0  501    0  0.00000000000E+00 -0.00000000000E+00 -0.40357629592E+02  0.40357629592E+02  0.00000000000E+00 0. -1.
         23    2    1    2    0    0  0.94796314471E+01  0.83110843896E+01  0.12049460897E+03  0.15078352317E+03  0.89765152101E+02 0.  0.
         11    1    3    3    0    0 -0.33860085053E+02 -0.19276253939E+02  0.45868618870E+02  0.60183133208E+02  0.00000000000E+00 0.  1.
        -11    1    3    3    0    0  0.43339716500E+02  0.27587338329E+02  0.74625990102E+02  0.90600389961E+02  0.00000000000E+00 0. -1.
         22    1    1    2    0    0 -0.94796314471E+01 -0.83110843896E+01 -0.23637234993E+02  0.26789109993E+02  0.00000000000E+00 0. -1.
<mgrwt>
<rscale>  0 0.55356069E+02</rscale>
<asrwt>0</asrwt>
<pdfrwt beam="1">  1        2 0.62088662E-02 0.90646125E+02</pdfrwt>
<pdfrwt beam="2">  1       -2 0.21110000E-01 0.90646125E+02</pdfrwt>
<totfact> 0.19961330E+04</totfact>
</mgrwt>
</event>
<event>
 6    1  0.1661841E-002  0.9273867E+02  0.7546771E-02  0.1402177E+00
         -2   -1    0    0    0  501 -0.00000000000E+00  0.00000000000E+00  0.80562020026E+02  0.80562020026E+02  0.00000000000E+00 0. -1.
          2   -1    0    0  501    0  0.00000000000E+00 -0.00000000000E+00 -0.36141162924E+02  0.36141162924E+02  0.00000000000E+00 0.  1.
         23    2    1    2    0    0  0.11917633969E+02 -0.93835437115E+01  0.37581105844E+02  0.10006397957E+03  0.91489778654E+02 0.  0.
         11    1    3    3    0    0 -0.25757643887E+02  0.28207956865E+02  0.24084672892E+02  0.45157685032E+02  0.00000000000E+00 0. -1.
        -11    1    3    3    0    0  0.37675277856E+02 -0.37591500577E+02  0.13496432953E+02  0.54906294535E+02  0.00000000000E+00 0.  1.
         22    1    1    2    0    0 -0.11917633969E+02  0.93835437115E+01  0.68397512576E+01  0.16639203384E+02  0.00000000000E+00 0.  1.
<mgrwt>
<rscale>  0 0.58976733E+02</rscale>
<asrwt>0</asrwt>
<pdfrwt beam="1">  1        2 0.55601789E-02 0.92738668E+02</pdfrwt>
<pdfrwt beam="2">  1       -2 0.12394157E-01 0.92738668E+02</pdfrwt>
<totfact> 0.55008396E+04</totfact>
</mgrwt>
</event>
<event>
 6    1  0.1661841E-002  0.9519335E+02  0.7546771E-02  0.1373597E+00
          2   -1    0    0  501    0  0.00000000000E+00  0.00000000000E+00  0.47028940052E+03  0.47028940052E+03  0.00000000000E+00 0. -1.
         -2   -1    0    0    0  501 -0.00000000000E+00 -0.00000000000E+00 -0.76348836042E+01  0.76348836042E+01  0.00000000000E+00 0.  1.
         23    2    1    2    0    0  0.14544307301E+02 -0.16816913859E+02  0.40719244352E+03  0.41817156827E+03  0.92560407210E+02 0.  0.
         11    1    3    3    0    0 -0.31328707200E+02 -0.22980905464E+02  0.28262103907E+03  0.28527926955E+03  0.00000000000E+00 0. -1.
        -11    1    3    3    0    0  0.45873014502E+02  0.61639916055E+01  0.12457140444E+03  0.13289229871E+03  0.00000000000E+00 0.  1.
         22    1    1    2    0    0 -0.14544307301E+02  0.16816913859E+02  0.55462073399E+02  0.59752715858E+02  0.00000000000E+00 0. -1.
<mgrwt>
<rscale>  0 0.66177261E+02</rscale>
<asrwt>0</asrwt>
<pdfrwt beam="1">  1        2 0.72352193E-01 0.95193353E+02</pdfrwt>
<pdfrwt beam="2">  1       -2 0.11745978E-02 0.95193353E+02</pdfrwt>
<totfact> 0.98119494E+04</totfact>
</mgrwt>
</event>
<event>
 6    1  0.1661841E-002  0.9062409E+02  0.7546771E-02  0.1429257E+00
          2   -1    0    0  501    0  0.00000000000E+00  0.00000000000E+00  0.42878914429E+01  0.42878914429E+01  0.00000000000E+00 0. -1.
         -2   -1    0    0    0  501 -0.00000000000E+00 -0.00000000000E+00 -0.68987733232E+03  0.68987733232E+03  0.00000000000E+00 0.  1.
         23    2    1    2    0    0  0.48662481972E+01  0.95175709581E+01 -0.66310692528E+03  0.66927088634E+03  0.89991446319E+02 0.  0.
         11    1    3    3    0    0 -0.42107281766E+02  0.19840888687E+01 -0.26505740187E+03  0.26838849840E+03  0.00000000000E+00 0. -1.
        -11    1    3    3    0    0  0.46973529963E+02  0.75334820894E+01 -0.39804952341E+03  0.40088238793E+03  0.00000000000E+00 0.  1.
         22    1    1    2    0    0 -0.48662481972E+01 -0.95175709581E+01 -0.22482515591E+02  0.24894337423E+02  0.00000000000E+00 0.  1.
<mgrwt>
<rscale>  0 0.53109432E+02</rscale>
<asrwt>0</asrwt>
<pdfrwt beam="1">  1        2 0.65967613E-03 0.90624086E+02</pdfrwt>
<pdfrwt beam="2">  1       -2 0.10613489E+00 0.90624086E+02</pdfrwt>
<totfact> 0.16937257E+04</totfact>
</mgrwt>
</event>
<event>
 6    1  0.1661841E-002  0.8451204E+02  0.7546771E-02  0.1393084E+00
         -4   -1    0    0    0  501 -0.00000000000E+00  0.00000000000E+00  0.55597668864E+03  0.55597668864E+03  0.00000000000E+00 0.  1.
          4   -1    0    0  501    0  0.00000000000E+00 -0.00000000000E+00 -0.62803713092E+01  0.62803713092E+01  0.00000000000E+00 0. -1.
         23    2    1    2    0    0 -0.68899900342E+01 -0.22110508038E+02  0.50390116588E+03  0.51093900830E+03  0.81276926012E+02 0.  0.
         13    1    3    3    0    0  0.20783099496E+02 -0.31469104956E+02  0.42722819738E+03  0.42888946644E+03  0.00000000000E+00 0. -1.
        -13    1    3    3    0    0 -0.27673089530E+02  0.93585969174E+01  0.76672968501E+02  0.82049541859E+02  0.00000000000E+00 0.  1.
         22    1    1    2    0    0  0.68899900342E+01  0.22110508038E+02  0.45795151453E+02  0.51318051649E+02  0.00000000000E+00 0.  1.
<mgrwt>
<rscale>  0 0.61146222E+02</rscale>
<asrwt>0</asrwt>
<pdfrwt beam="1">  1        4 0.96621141E-03 0.84512042E+02</pdfrwt>
<pdfrwt beam="2">  1       -4 0.85534836E-01 0.84512042E+02</pdfrwt>
<totfact> 0.54582970E+03</totfact>
</mgrwt>
</event>
<event>
 6    1  0.1661841E-002  0.9845145E+02  0.7546771E-02  0.1371828E+00
          1   -1    0    0  501    0  0.00000000000E+00  0.00000000000E+00  0.88417319594E+02  0.88417319594E+02  0.00000000000E+00 0. -1.
         -1   -1    0    0    0  501 -0.00000000000E+00 -0.00000000000E+00 -0.46500148042E+02  0.46500148042E+02  0.00000000000E+00 0.  1.
         23    2    1    2    0    0  0.63546399448E+01 -0.19693951938E+02  0.12923105808E+02  0.99295998826E+02  0.96252041679E+02 0.  0.
         13    1    3    3    0    0 -0.34574939505E+02  0.21227360006E+02  0.49524691821E+01  0.40872413748E+02  0.00000000000E+00 0. -1.
        -13    1    3    3    0    0  0.40929579450E+02 -0.40921311944E+02  0.79706366256E+01  0.58423585078E+02  0.00000000000E+00 0.  1.
         22    1    1    2    0    0 -0.63546399448E+01  0.19693951938E+02  0.28994065744E+02  0.35621468809E+02  0.00000000000E+00 0. -1.
<mgrwt>
<rscale>  0 0.66661739E+02</rscale>
<asrwt>0</asrwt>
<pdfrwt beam="1">  1        1 0.13602664E-01 0.98451454E+02</pdfrwt>
<pdfrwt beam="2">  1       -1 0.71538690E-02 0.98451454E+02</pdfrwt>
<totfact> 0.38053000E+04</totfact>
</mgrwt>
</event>
<event>
 6    1  0.1661841E-002  0.9352048E+02  0.7546771E-02  0.1358154E+00
         -2   -1    0    0    0  501 -0.00000000000E+00  0.00000000000E+00  0.10333111023E+02  0.10333111023E+02  0.00000000000E+00 0.  1.
          2   -1    0    0  501    0  0.00000000000E+00 -0.00000000000E+00 -0.40818777897E+03  0.40818777897E+03  0.00000000000E+00 0. -1.
         23    2    1    2    0    0  0.64270560287E+01  0.29639052726E+02 -0.23609573141E+03  0.25394344912E+03  0.88466380416E+02 0.  0.
         11    1    3    3    0    0 -0.33324501632E+02 -0.12468493594E+02 -0.93135887520E+02  0.99700949271E+02  0.00000000000E+00 0.  1.
        -11    1    3    3    0    0  0.39751557661E+02  0.42107546320E+02 -0.14295984389E+03  0.15424249984E+03  0.00000000000E+00 0. -1.
         22    1    1    2    0    0 -0.64270560287E+01 -0.29639052726E+02 -0.16175893653E+03  0.16457744087E+03  0.00000000000E+00 0. -1.
<mgrwt>
<rscale>  0 0.70573326E+02</rscale>
<asrwt>0</asrwt>
<pdfrwt beam="1">  1        2 0.62798115E-01 0.93520484E+02</pdfrwt>
<pdfrwt beam="2">  1       -2 0.15897095E-02 0.93520484E+02</pdfrwt>
<totfact> 0.73925314E+04</totfact>
</mgrwt>
</event>
<event>
 6    1  0.1661841E-002  0.9278623E+02  0.7546771E-02  0.1413401E+00
         -2   -1    0    0    0  501 -0.00000000000E+00  0.00000000000E+00  0.83075817430E+02  0.83075817430E+02  0.00000000000E+00 0.  1.
          2   -1    0    0  501    0  0.00000000000E+00 -0.00000000000E+00 -0.41695306183E+02  0.41695306183E+02  0.00000000000E+00 0. -1.
         23    2    1    2    0    0 -0.12697578398E+02 -0.41751136599E+00  0.53590509129E+02  0.10715048625E+03  0.91912356195E+02 0.  0.
         11    1    3    3    0    0 -0.46715394794E+02 -0.13899560377E+02  0.91621266714E+01  0.49593048450E+02  0.00000000000E+00 0. -1.
        -11    1    3    3    0    0  0.34017816396E+02  0.13482049011E+02  0.44428382458E+02  0.57557437797E+02  0.00000000000E+00 0.  1.
         22    1    1    2    0    0  0.12697578398E+02  0.41751136599E+00 -0.12209997883E+02  0.17620637366E+02  0.00000000000E+00 0.  1.
<mgrwt>
<rscale>  0 0.56441887E+02</rscale>
<asrwt>0</asrwt>
<pdfrwt beam="1">  1        2 0.64146625E-02 0.92786228E+02</pdfrwt>
<pdfrwt beam="2">  1       -2 0.12780895E-01 0.92786228E+02</pdfrwt>
<totfact> 0.43673063E+04</totfact>
</mgrwt>
</event>
<event>
 6    1  0.1661841E-002  0.9130761E+02  0.7546771E-02  0.1427809E+00
         -2   -1    0    0    0  501 -0.00000000000E+00  0.00000000000E+00  0.32784694497E+02  0.32784694497E+02  0.00000000000E+00 0.  1.
          2   -1    0    0  501    0  0.00000000000E+00 -0.00000000000E+00 -0.81590558237E+02  0.81590558237E+02  0.00000000000E+00 0. -1.
         23    2    1    2    0    0  0.70988399442E+01 -0.79841080547E+01 -0.49130959284E+02  0.10368669824E+03  0.90680431862E+02 0.  0.
         13    1    3    3    0    0  0.59060153375E+01 -0.29441566287E+02  0.16753704254E+02  0.34385657604E+02  0.00000000000E+00 0.  1.
        -13    1    3    3    0    0  0.11928246067E+01  0.21457458232E+02 -0.65884663538E+02  0.69301040640E+02  0.00000000000E+00 0. -1.
         22    1    1    2    0    0 -0.70988399442E+01  0.79841080547E+01  0.32509554359E+00  0.10688554490E+02  0.00000000000E+00 0. -1.
<mgrwt>
<rscale>  0 0.53402273E+02</rscale>
<asrwt>0</asrwt>
<pdfrwt beam="1">  1        2 0.12552393E-01 0.91307613E+02</pdfrwt>
<pdfrwt beam="2">  1       -2 0.50437992E-02 0.91307613E+02</pdfrwt>
<totfact> 0.79572148E+04</totfact>
</mgrwt>
</event>
<event>
 6    1  0.1661841E-002  0.9151004E+02  0.7546771E-02  0.1396514E+00
         -2   -1    0    0    0  501 -0.00000000000E+00  0.00000000000E+00  0.11644532853E+03  0.11644532853E+03  0.00000000000E+00 0.  1.
          2   -1    0    0  501    0  0.00000000000E+00 -0.00000000000E+00 -0.35840873638E+02  0.35840873638E+02  0.00000000000E+00 0. -1.
         23    2    1    2    0    0  0.14551795446E+02  0.93006967075E+01  0.93426278586E+02  0.13077674209E+03  0.89865616517E+02 0.  0.
         13    1    3    3    0    0  0.37344625010E+02  0.18142245971E+01  0.33250390135E+01  0.37536226668E+02  0.00000000000E+00 0. -1.
        -13    1    3    3    0    0 -0.22792829564E+02  0.74864721104E+01  0.90101239572E+02  0.93240515425E+02  0.00000000000E+00 0.  1.
         22    1    1    2    0    0 -0.14551795446E+02 -0.93006967075E+01 -0.12821823693E+02  0.21509460076E+02  0.00000000000E+00 0. -1.
<mgrwt>
<rscale>  0 0.60315024E+02</rscale>
<asrwt>0</asrwt>
<pdfrwt beam="1">  1        2 0.55139806E-02 0.91510036E+02</pdfrwt>
<pdfrwt beam="2">  1       -2 0.17914666E-01 0.91510036E+02</pdfrwt>
<totfact> 0.30580211E+04</totfact>
</mgrwt>
</event>
<event>
 6    1  0.1661841E-002  0.9793396E+02  0.7546771E-02  0.1344190E+00
         -2   -1    0    0    0  501 -0.00000000000E+00  0.00000000000E+00  0.97648353644E+01  0.97648353644E+01  0.00000000000E+00 0.  1.
          2   -1    0    0  501    0  0.00000000000E+00 -0.00000000000E+00 -0.45367189626E+03  0.45367189626E+03  0.00000000000E+00 0. -1.
         23    2    1    2    0    0  0.25310884051E+02 -0.21947144649E+02 -0.36015997835E+03  0.37323755289E+03  0.92025772866E+02 0.  0.
         11    1    3    3    0    0 -0.31614144847E+02 -0.12880591006E+02 -0.76367682286E+02  0.83650383602E+02  0.00000000000E+00 0.  1.
        -11    1    3    3    0    0  0.56925028898E+02 -0.90665536435E+01 -0.28379229607E+03  0.28958716929E+03  0.00000000000E+00 0. -1.
         22    1    1    2    0    0 -0.25310884051E+02  0.21947144649E+02 -0.83747082545E+02  0.90199178736E+02  0.00000000000E+00 0. -1.
<mgrwt>
<rscale>  0 0.74897011E+02</rscale>
<asrwt>0</asrwt>
<pdfrwt beam="1">  1        2 0.69795671E-01 0.97933962E+02</pdfrwt>
<pdfrwt beam="2">  1       -2 0.15022825E-02 0.97933962E+02</pdfrwt>
<totfact> 0.72088906E+04</totfact>
</mgrwt>
</event>
<event>
 6    1  0.1661841E-002  0.9163949E+02  0.7546771E-02  0.1365063E+00
          2   -1    0    0  501    0  0.00000000000E+00  0.00000000000E+00  0.11360972635E+03  0.11360972635E+03  0.00000000000E+00 0. -1.
         -2   -1    0    0    0  501 -0.00000000000E+00 -0.00000000000E+00 -0.32183415527E+02  0.32183415527E+02  0.00000000000E+00 0.  1.
         23    2    1    2    0    0  0.19439502607E+02  0.21125197812E+02  0.55666687753E+02  0.10722208505E+03  0.87026588767E+02 0.  0.
         11    1    3    3    0    0 -0.26383364028E+02 -0.35667704906E+00 -0.63871568712E+01  0.27147833963E+02  0.00000000000E+00 0.  1.
        -11    1    3    3    0    0  0.45822866635E+02  0.21481874861E+02  0.62053844624E+02  0.80074251085E+02  0.00000000000E+00 0. -1.
         22    1    1    2    0    0 -0.19439502607E+02 -0.21125197812E+02  0.25759623069E+02  0.38571056829E+02  0.00000000000E+00 0. -1.
<mgrwt>
<rscale>  0 0.68558920E+02</rscale>
<asrwt>0</asrwt>
<pdfrwt beam="1">  1        2 0.17478419E-01 0.91639486E+02</pdfrwt>
<pdfrwt beam="2">  1       -2 0.49512948E-02 0.91639486E+02</pdfrwt>
<totfact> 0.55767024E+04</totfact>
</mgrwt>
</event>
<event>
 6    1  0.1661841E-002  0.1037539E+03  0.7546771E-02  0.1319981E+00
          2   -1    0    0  501    0  0.00000000000E+00  0.00000000000E+00  0.91981346013E+01  0.91981346013E+01  0.00000000000E+00 0. -1.
         -2   -1    0    0    0  501 -0.00000000000E+00 -0.00000000000E+00 -0.59394973170E+03  0.59394973170E+03  0.00000000000E+00 0.  1.
         23    2    1    2    0    0  0.29204931231E+01  0.42977630418E+02 -0.37969639172E+03  0.39361685846E+03  0.94388957924E+02 0.  0.
         11    1    3    3    0    0 -0.39964547587E+01  0.60721660448E+02 -0.13384761116E+03  0.14703154325E+03  0.00000000000E+00 0.  1.
        -11    1    3    3    0    0  0.69169478818E+01 -0.17744030030E+02 -0.24584878057E+03  0.24658531521E+03  0.00000000000E+00 0. -1.
         22    1    1    2    0    0 -0.29204931231E+01 -0.42977630418E+02 -0.20505520538E+03  0.20953100785E+03  0.00000000000E+00 0. -1.
<mgrwt>
<rscale>  0 0.83284501E+02</rscale>
<asrwt>0</asrwt>
<pdfrwt beam="1">  1        2 0.14150975E-02 0.10375395E+03</pdfrwt>
<pdfrwt beam="2">  1       -2 0.91376890E-01 0.10375395E+03</pdfrwt>
<totfact> 0.85140718E+03</totfact>
</mgrwt>
</event>
<event>
 6    1  0.1661841E-002  0.9606340E+02  0.7546771E-02  0.1355894E+00
          1   -1    0    0  501    0  0.00000000000E+00  0.00000000000E+00  0.48658878990E+03  0.48658878990E+03  0.00000000000E+00 0. -1.
         -1   -1    0    0    0  501 -0.00000000000E+00 -0.00000000000E+00 -0.10040829103E+02  0.10040829103E+02  0.00000000000E+00 0.  1.
         23    2    1    2    0    0  0.27521102082E+02  0.93649311017E+01  0.43764902692E+03  0.44806790516E+03  0.91559073158E+02 0.  0.
         11    1    3    3    0    0  0.52936879473E+02  0.18032448127E+02  0.16753468395E+03  0.17662206182E+03  0.00000000000E+00 0.  1.
        -11    1    3    3    0    0 -0.25415777391E+02 -0.86675170256E+01  0.27011434297E+03  0.27144584334E+03  0.00000000000E+00 0. -1.
         22    1    1    2    0    0 -0.27521102082E+02 -0.93649311017E+01  0.38898933873E+02  0.48561713838E+02  0.00000000000E+00 0.  1.
<mgrwt>
<rscale>  0 0.71249663E+02</rscale>
<asrwt>0</asrwt>
<pdfrwt beam="1">  1        1 0.74859795E-01 0.96063400E+02</pdfrwt>
<pdfrwt beam="2">  1       -1 0.15447433E-02 0.96063400E+02</pdfrwt>
<totfact> 0.41812802E+04</totfact>
</mgrwt>
</event>
<event>
 6    1  0.1661841E-002  0.9939483E+02  0.7546771E-02  0.1367365E+00
          2   -1    0    0  501    0  0.00000000000E+00  0.00000000000E+00  0.10413514053E+03  0.10413514053E+03  0.00000000000E+00 0.  1.
         -2   -1    0    0    0  501 -0.00000000000E+00 -0.00000000000E+00 -0.35497536903E+02  0.35497536903E+02  0.00000000000E+00 0. -1.
         23    2    1    2    0    0 -0.33449174833E+01 -0.21393089117E+02  0.51057944048E+02  0.11174186953E+03  0.97007623513E+02 0.  0.
         11    1    3    3    0    0  0.57857837142E+00  0.24931873308E+02 -0.16376265037E+02  0.29834797069E+02  0.00000000000E+00 0. -1.
        -11    1    3    3    0    0 -0.39234958548E+01 -0.46324962425E+02  0.67434209085E+02  0.81907072456E+02  0.00000000000E+00 0.  1.
         22    1    1    2    0    0  0.33449174833E+01  0.21393089117E+02  0.17579659583E+02  0.27890807912E+02  0.00000000000E+00 0.  1.
<mgrwt>
<rscale>  0 0.67905100E+02</rscale>
<asrwt>0</asrwt>
<pdfrwt beam="1">  1        2 0.16020791E-01 0.99394828E+02</pdfrwt>
<pdfrwt beam="2">  1       -2 0.54611596E-02 0.99394828E+02</pdfrwt>
<totfact> 0.53821749E+04</totfact>
</mgrwt>
</event>
<event>
 6    1  0.1661841E-002  0.1210705E+03  0.7546771E-02  0.1261831E+00
         -2   -1    0    0    0  501 -0.00000000000E+00  0.00000000000E+00  0.13936391414E+03  0.13936391414E+03  0.00000000000E+00 0.  1.
          2   -1    0    0  501    0  0.00000000000E+00 -0.00000000000E+00 -0.93046126867E+02  0.93046126867E+02  0.00000000000E+00 0. -1.
         23    2    1    2    0    0  0.48631859272E+02  0.64131053395E+02 -0.26428003548E+02  0.12392133271E+03  0.90444500015E+02 0.  0.
         11    1    3    3    0    0  0.34569746701E+02  0.11867268797E+02 -0.52401504453E+02  0.63889100202E+02  0.00000000000E+00 0. -1.
        -11    1    3    3    0    0  0.14062112571E+02  0.52263784598E+02  0.25973500905E+02  0.60032232506E+02  0.00000000000E+00 0.  1.
         22    1    1    2    0    0 -0.48631859272E+02 -0.64131053395E+02  0.72745790818E+02  0.10848870830E+03  0.00000000000E+00 0.  1.
<mgrwt>
<rscale>  0 0.10932199E+03</rscale>
<asrwt>0</asrwt>
<pdfrwt beam="1">  1        2 0.14314789E-01 0.12107046E+03</pdfrwt>
<pdfrwt beam="2">  1       -2 0.21440602E-01 0.12107046E+03</pdfrwt>
<totfact> 0.71971692E+03</totfact>
</mgrwt>
</event>
<event>
 6    1  0.1661841E-002  0.1004435E+03  0.7546771E-02  0.1385974E+00
         -1   -1    0    0    0  501 -0.00000000000E+00  0.00000000000E+00  0.86834702586E+02  0.86834702586E+02  0.00000000000E+00 0.  1.
          1   -1    0    0  501    0  0.00000000000E+00 -0.00000000000E+00 -0.97758519367E+02  0.97758519367E+02  0.00000000000E+00 0. -1.
         23    2    1    2    0    0 -0.15389053545E+02  0.15372928136E+01  0.56619104488E+02  0.11530229577E+03  0.99245706091E+02 0.  0.
         11    1    3    3    0    0  0.28793720192E+02  0.45136145924E+01 -0.13697455509E+02  0.32203591827E+02  0.00000000000E+00 0. -1.
        -11    1    3    3    0    0 -0.44182773737E+02 -0.29763217788E+01  0.70316559997E+02  0.83098703938E+02  0.00000000000E+00 0.  1.
         22    1    1    2    0    0  0.15389053545E+02 -0.15372928136E+01 -0.67542921270E+02  0.69290926187E+02  0.00000000000E+00 0. -1.
<mgrwt>
<rscale>  0 0.62919230E+02</rscale>
<asrwt>0</asrwt>
<pdfrwt beam="1">  1        1 0.15039772E-01 0.10044350E+03</pdfrwt>
<pdfrwt beam="2">  1       -1 0.13359185E-01 0.10044350E+03</pdfrwt>
<totfact> 0.13031327E+04</totfact>
</mgrwt>
</event>
<event>
 6    1  0.1661841E-002  0.9817844E+02  0.7546771E-02  0.1358068E+00
          1   -1    0    0  501    0  0.00000000000E+00  0.00000000000E+00  0.65164189676E+03  0.65164189676E+03  0.00000000000E+00 0.  1.
         -1   -1    0    0    0  501 -0.00000000000E+00 -0.00000000000E+00 -0.63037130025E+01  0.63037130025E+01  0.00000000000E+00 0. -1.
         23    2    1    2    0    0  0.25751083937E+02 -0.50982041771E+01  0.56384481978E+03  0.57232856484E+03  0.94603886409E+02 0.  0.
         11    1    3    3    0    0  0.10924036704E+02 -0.34976101507E+02  0.88105155768E+02  0.95421070668E+02  0.00000000000E+00 0. -1.
        -11    1    3    3    0    0  0.14827047233E+02  0.29877897330E+02  0.47573966401E+03  0.47690749417E+03  0.00000000000E+00 0.  1.
         22    1    1    2    0    0 -0.25751083937E+02  0.50982041771E+01  0.81493363979E+02  0.85617044929E+02  0.00000000000E+00 0.  1.
<mgrwt>
<rscale>  0 0.70598935E+02</rscale>
<asrwt>0</asrwt>
<pdfrwt beam="1">  1        1 0.10025255E+00 0.98178436E+02</pdfrwt>
<pdfrwt beam="2">  1       -1 0.96980251E-03 0.98178436E+02</pdfrwt>
<totfact> 0.55086736E+04</totfact>
</mgrwt>
</event>
<event>
 6    1  0.1661841E-002  0.8979598E+02  0.7546771E-02  0.1427495E+00
          4   -1    0    0  501    0  0.00000000000E+00  0.00000000000E+00  0.27447417796E+02  0.27447417796E+02  0.00000000000E+00 0. -1.
         -4   -1    0    0    0  501 -0.00000000000E+00 -0.00000000000E+00 -0.94458997135E+02  0.94458997135E+02  0.00000000000E+00 0.  1.
         23    2    1    2    0    0  0.94662696217E+00  0.11246407362E+02 -0.54429855327E+02  0.10500441622E+03  0.89083895820E+02 0.  0.
         11    1    3    3    0    0  0.21655496071E+02  0.15796913509E+02  0.16159753556E+02  0.31299211196E+02  0.00000000000E+00 0. -1.
        -11    1    3    3    0    0 -0.20708869109E+02 -0.45505061471E+01 -0.70589608883E+02  0.73705205028E+02  0.00000000000E+00 0.  1.
         22    1    1    2    0    0 -0.94662696217E+00 -0.11246407362E+02 -0.12581724013E+02  0.16901998707E+02  0.00000000000E+00 0.  1.
<mgrwt>
<rscale>  0 0.53466208E+02</rscale>
<asrwt>0</asrwt>
<pdfrwt beam="1">  1        4 0.42226797E-02 0.89795981E+02</pdfrwt>
<pdfrwt beam="2">  1       -4 0.14532153E-01 0.89795981E+02</pdfrwt>
<totfact> 0.17915212E+04</totfact>
</mgrwt>
</event>
<event>
 6    1  0.1661841E-002  0.9472656E+02  0.7546771E-02  0.1407757E+00
         -1   -1    0    0    0  501 -0.00000000000E+00  0.00000000000E+00  0.46440500010E+02  0.46440500010E+02  0.00000000000E+00 0.  1.
          1   -1    0    0  501    0  0.00000000000E+00 -0.00000000000E+00 -0.74900577405E+02  0.74900577405E+02  0.00000000000E+00 0. -1.
         23    2    1    2    0    0 -0.25007027916E+01  0.12795919881E+02 -0.54368343729E+01  0.94882453126E+02  0.93825005532E+02 0.  0.
         11    1    3    3    0    0 -0.46993714086E+02  0.14424697068E+02  0.41724139225E+01  0.49334471590E+02  0.00000000000E+00 0.  1.
        -11    1    3    3    0    0  0.44493011295E+02 -0.16287771870E+01 -0.96092482954E+01  0.45547981536E+02  0.00000000000E+00 0. -1.
         22    1    1    2    0    0  0.25007027916E+01 -0.12795919881E+02 -0.23023243022E+02  0.26458624289E+02  0.00000000000E+00 0. -1.
<mgrwt>
<rscale>  0 0.57697427E+02</rscale>
<asrwt>0</asrwt>
<pdfrwt beam="1">  1        1 0.11523166E-01 0.94726558E+02</pdfrwt>
<pdfrwt beam="2">  1       -1 0.71446923E-02 0.94726558E+02</pdfrwt>
<totfact> 0.47026943E+04</totfact>
</mgrwt>
</event>
<event>
 6    1  0.1661841E-002  0.9167162E+02  0.7546771E-02  0.1419409E+00
          2   -1    0    0  501    0  0.00000000000E+00  0.00000000000E+00  0.31235061168E+02  0.31235061168E+02  0.00000000000E+00 0. -1.
         -2   -1    0    0    0  501 -0.00000000000E+00 -0.00000000000E+00 -0.95750729189E+02  0.95750729189E+02  0.00000000000E+00 0.  1.
         23    2    1    2    0    0 -0.11997099809E+02 -0.43250497239E+00 -0.68389481027E+02  0.11437135848E+03  0.90882171305E+02 0.  0.
         11    1    3    3    0    0 -0.49418155201E+01  0.42998488242E+02 -0.51423017703E+02  0.67213229958E+02  0.00000000000E+00 0.  1.
        -11    1    3    3    0    0 -0.70552842886E+01 -0.43430993214E+02 -0.16966463324E+02  0.47158128522E+02  0.00000000000E+00 0. -1.
         22    1    1    2    0    0  0.11997099809E+02  0.43250497239E+00  0.38738130060E+01  0.12614431877E+02  0.00000000000E+00 0.  1.
<mgrwt>
<rscale>  0 0.55146222E+02</rscale>
<asrwt>0</asrwt>
<pdfrwt beam="1">  1        2 0.48053941E-02 0.91671623E+02</pdfrwt>
<pdfrwt beam="2">  1       -2 0.14730881E-01 0.91671623E+02</pdfrwt>
<totfact> 0.50258140E+04</totfact>
</mgrwt>
</event>
<event>
 6    1  0.1661841E-002  0.1132663E+03  0.7546771E-02  0.1280782E+00
         -2   -1    0    0    0  501 -0.00000000000E+00  0.00000000000E+00  0.14386930006E+03  0.14386930006E+03  0.00000000000E+00 0.  1.
          2   -1    0    0  501    0  0.00000000000E+00 -0.00000000000E+00 -0.59193751155E+02  0.59193751155E+02  0.00000000000E+00 0. -1.
         23    2    1    2    0    0  0.13616536398E+02 -0.66811470014E+02  0.70516672816E+02  0.13342357706E+03  0.90443723838E+02 0.  0.
         11    1    3    3    0    0  0.70993180918E+01  0.16515535470E+02  0.41026452968E+02  0.44792109488E+02  0.00000000000E+00 0. -1.
        -11    1    3    3    0    0  0.65172183058E+01 -0.83327005484E+02  0.29490219848E+02  0.88631467572E+02  0.00000000000E+00 0.  1.
         22    1    1    2    0    0 -0.13616536398E+02  0.66811470014E+02  0.14158876094E+02  0.69639474159E+02  0.00000000000E+00 0. -1.
<mgrwt>
<rscale>  0 0.99769443E+02</rscale>
<asrwt>0</asrwt>
<pdfrwt beam="1">  1        2 0.91067310E-02 0.11326628E+03</pdfrwt>
<pdfrwt beam="2">  1       -2 0.22133738E-01 0.11326628E+03</pdfrwt>
<totfact> 0.11680602E+04</totfact>
</mgrwt>
</event>
<event>
 6    1  0.1661841E-002  0.1005153E+03  0.7546771E-02  0.1325627E+00
          1   -1    0    0  501    0  0.00000000000E+00  0.00000000000E+00  0.69498044037E+02  0.69498044037E+02  0.00000000000E+00 0. -1.
         -1   -1    0    0    0  501 -0.00000000000E+00 -0.00000000000E+00 -0.75956122842E+02  0.75956122842E+02  0.00000000000E+00 0.  1.
         23    2    1    2    0    0 -0.42704925940E+02  0.35057999392E+01  0.63973052082E+01  0.10071869738E+03  0.90924854446E+02 0.  0.
         13    1    3    3    0    0  0.19940710140E+02  0.89473571924E+01  0.26825692420E+02  0.34602093802E+02  0.00000000000E+00 0. -1.
        -13    1    3    3    0    0 -0.62645636080E+02 -0.54415572532E+01 -0.20428387212E+02  0.66116603583E+02  0.00000000000E+00 0.  1.
         22    1    1    2    0    0  0.42704925940E+02 -0.35057999392E+01 -0.12855384013E+02  0.44735469494E+02  0.00000000000E+00 0. -1.
<mgrwt>
<rscale>  0 0.81219130E+02</rscale>
<asrwt>0</asrwt>
<pdfrwt beam="1">  1        1 0.10692007E-01 0.10051532E+03</pdfrwt>
<pdfrwt beam="2">  1       -1 0.11685557E-01 0.10051532E+03</pdfrwt>
<totfact> 0.24903740E+04</totfact>
</mgrwt>
</event>
<event>
 6    1  0.1661841E-002  0.1056423E+03  0.7546771E-02  0.1347043E+00
         -2   -1    0    0    0  501 -0.00000000000E+00  0.00000000000E+00  0.64896797583E+01  0.64896797583E+01  0.00000000000E+00 0.  1.
          2   -1    0    0  501    0  0.00000000000E+00 -0.00000000000E+00 -0.66186508667E+03  0.66186508667E+03  0.00000000000E+00 0. -1.
         23    2    1    2    0    0 -0.38561471463E+01  0.25119332007E+02 -0.52348115353E+03  0.53403445975E+03  0.10253992094E+03 0.  0.
         13    1    3    3    0    0  0.33967115992E+02 -0.42415214441E+01 -0.68862395711E+02  0.76901137937E+02  0.00000000000E+00 0.  1.
        -13    1    3    3    0    0 -0.37823263139E+02  0.29360853451E+02 -0.45461875782E+03  0.45713332181E+03  0.00000000000E+00 0. -1.
         22    1    1    2    0    0  0.38561471463E+01 -0.25119332007E+02 -0.13189425339E+03  0.13432030668E+03  0.00000000000E+00 0.  1.
<mgrwt>
<rscale>  0 0.73985185E+02</rscale>
<asrwt>0</asrwt>
<pdfrwt beam="1">  1        2 0.10182543E+00 0.10564226E+03</pdfrwt>
<pdfrwt beam="2">  1       -2 0.99841198E-03 0.10564226E+03</pdfrwt>
<totfact> 0.85833661E+04</totfact>
</mgrwt>
</event>
<event>
 6    1  0.1661841E-002  0.9297458E+02  0.7546771E-02  0.1412366E+00
          2   -1    0    0  501    0  0.00000000000E+00  0.00000000000E+00  0.16751809428E+03  0.16751809428E+03  0.00000000000E+00 0.  1.
         -2   -1    0    0    0  501 -0.00000000000E+00 -0.00000000000E+00 -0.16790223947E+02  0.16790223947E+02  0.00000000000E+00 0. -1.
         23    2    1    2    0    0 -0.53920940370E+01 -0.11644160014E+02  0.13641038305E+03  0.16508199298E+03  0.92084801465E+02 0.  0.
         13    1    3    3    0    0  0.14964455732E+02 -0.10121347387E+02 -0.76236534001E+01  0.19608587390E+02  0.00000000000E+00 0. -1.
        -13    1    3    3    0    0 -0.20356549769E+02 -0.15228126271E+01  0.14403403645E+03  0.14547340559E+03  0.00000000000E+00 0.  1.
         22    1    1    2    0    0  0.53920940370E+01  0.11644160014E+02  0.14317487281E+02  0.19226325249E+02  0.00000000000E+00 0.  1.
<mgrwt>
<rscale>  0 0.56669195E+02</rscale>
<asrwt>0</asrwt>
<pdfrwt beam="1">  1        2 0.25772013E-01 0.92974576E+02</pdfrwt>
<pdfrwt beam="2">  1       -2 0.25831115E-02 0.92974576E+02</pdfrwt>
<totfact> 0.94191631E+04</totfact>
</mgrwt>
</event>
<event>
 6    1  0.1661841E-002  0.9391538E+02  0.7546771E-02  0.1363236E+00
         -2   -1    0    0    0  501 -0.00000000000E+00  0.00000000000E+00  0.69965913597E+03  0.69965913597E+03  0.00000000000E+00 0.  1.
          2   -1    0    0  501    0  0.00000000000E+00 -0.00000000000E+00 -0.52990621168E+01  0.52990621168E+01  0.00000000000E+00 0. -1.
         23    2    1    2    0    0  0.22903801459E+02 -0.15217143480E+02  0.55883697036E+03  0.56667350205E+03  0.89799515089E+02 0.  0.
         11    1    3    3    0    0 -0.67109117287E+01 -0.23973726434E+02  0.41350310058E+02  0.48266179021E+02  0.00000000000E+00 0. -1.
        -11    1    3    3    0    0  0.29614713187E+02  0.87565829547E+01  0.51748666030E+03  0.51840732303E+03  0.00000000000E+00 0.  1.
         22    1    1    2    0    0 -0.22903801459E+02  0.15217143480E+02  0.13552310350E+03  0.13828469604E+03  0.00000000000E+00 0. -1.
<mgrwt>
<rscale>  0 0.69084118E+02</rscale>
<asrwt>0</asrwt>
<pdfrwt beam="1">  1        2 0.81524088E-03 0.93915379E+02</pdfrwt>
<pdfrwt beam="2">  1       -2 0.10763979E+00 0.93915379E+02</pdfrwt>
<totfact> 0.12314575E+04</totfact>
</mgrwt>
</event>
<event>
 6    1  0.1661841E-002  0.9220809E+02  0.7546771E-02  0.1402405E+00
          2   -1    0    0  501    0  0.00000000000E+00  0.00000000000E+00  0.70104537823E+02  0.70104537823E+02  0.00000000000E+00 0. -1.
         -2   -1    0    0    0  501 -0.00000000000E+00 -0.00000000000E+00 -0.49047300884E+02  0.49047300884E+02  0.00000000000E+00 0.  1.
         23    2    1    2    0    0 -0.14765130952E+02  0.42919530589E+01 -0.10607805362E+01  0.92214194970E+02  0.90917009110E+02 0.  0.
         13    1    3    3    0    0  0.22369660903E+02 -0.30122541984E+02  0.12932433956E+02  0.39686485263E+02  0.00000000000E+00 0. -1.
        -13    1    3    3    0    0 -0.37134791855E+02  0.34414495043E+02 -0.13993214492E+02  0.52527709707E+02  0.00000000000E+00 0.  1.
         22    1    1    2    0    0  0.14765130952E+02 -0.42919530589E+01  0.22118017476E+02  0.26937643738E+02  0.00000000000E+00 0. -1.
<mgrwt>
<rscale>  0 0.58923644E+02</rscale>
<asrwt>0</asrwt>
<pdfrwt beam="1">  1        2 0.10785313E-01 0.92208093E+02</pdfrwt>
<pdfrwt beam="2">  1       -2 0.75457386E-02 0.92208093E+02</pdfrwt>
<totfact> 0.52103838E+04</totfact>
</mgrwt>
</event>
<event>
 6    1  0.1661841E-002  0.9948981E+02  0.7546771E-02  0.1338058E+00
         -2   -1    0    0    0  501 -0.00000000000E+00  0.00000000000E+00  0.36108487425E+02  0.36108487425E+02  0.00000000000E+00 0.  1.
          2   -1    0    0  501    0  0.00000000000E+00 -0.00000000000E+00 -0.12688831964E+03  0.12688831964E+03  0.00000000000E+00 0. -1.
         23    2    1    2    0    0 -0.24905563880E+02  0.25338445003E+02 -0.61556667802E+02  0.11699335887E+03  0.92929536540E+02 0.  0.
         11    1    3    3    0    0  0.21615715880E+02  0.16640753580E+02 -0.64032672885E+02  0.69601271896E+02  0.00000000000E+00 0. -1.
        -11    1    3    3    0    0 -0.46521279760E+02  0.86976914228E+01  0.24760050837E+01  0.47392086974E+02  0.00000000000E+00 0.  1.
         22    1    1    2    0    0  0.24905563880E+02 -0.25338445003E+02 -0.29223164408E+02  0.46003448190E+02  0.00000000000E+00 0.  1.
<mgrwt>
<rscale>  0 0.76909557E+02</rscale>
<asrwt>0</asrwt>
<pdfrwt beam="1">  1        2 0.19521280E-01 0.99489812E+02</pdfrwt>
<pdfrwt beam="2">  1       -2 0.55551519E-02 0.99489812E+02</pdfrwt>
<totfact> 0.41912493E+04</totfact>
</mgrwt>
</event>
<event>
 6    1  0.1661841E-002  0.9411261E+02  0.7546771E-02  0.1362744E+00
          4   -1    0    0  501    0  0.00000000000E+00  0.00000000000E+00  0.28089492088E+02  0.28089492088E+02  0.00000000000E+00 0. -1.
         -4   -1    0    0    0  501 -0.00000000000E+00 -0.00000000000E+00 -0.33550097631E+03  0.33550097631E+03  0.00000000000E+00 0.  1.
         23    2    1    2    0    0  0.82645291884E+01 -0.26282552279E+02 -0.31981571192E+03  0.33337557371E+03  0.89989491374E+02 0.  0.
         11    1    3    3    0    0 -0.94474255418E+01 -0.14868021515E+02 -0.30934472332E+03  0.30984588065E+03  0.00000000000E+00 0.  1.
        -11    1    3    3    0    0  0.17711954730E+02 -0.11414530764E+02 -0.10470988600E+02  0.23529693053E+02  0.00000000000E+00 0. -1.
         22    1    1    2    0    0 -0.82645291884E+01  0.26282552279E+02  0.12404227690E+02  0.30214894698E+02  0.00000000000E+00 0. -1.
<mgrwt>
<rscale>  0 0.69226353E+02</rscale>
<asrwt>0</asrwt>
<pdfrwt beam="1">  1        4 0.43214603E-02 0.94112611E+02</pdfrwt>
<pdfrwt beam="2">  1       -4 0.51615535E-01 0.94112611E+02</pdfrwt>
<totfact> 0.16561213E+03</totfact>
</mgrwt>
</event>
<event>
 6    1  0.1661841E-002  0.1077019E+03  0.7546771E-02  0.1297697E+00
          2   -1    0    0  501    0  0.00000000000E+00  0.00000000000E+00  0.19388729570E+03  0.19388729570E+03  0.00000000000E+00 0. -1.
         -2   -1    0    0    0  501 -0.00000000000E+00 -0.00000000000E+00 -0.78627414817E+02  0.78627414817E+02  0.00000000000E+00 0.  1.
         23    2    1    2    0    0 -0.56088093716E+02 -0.13756459194E+02 -0.33619318244E+02  0.11282710812E+03  0.90909753829E+02 0.  0.
         13    1    3    3    0    0  0.21147127785E+02  0.12962480184E+02 -0.15067556912E+02  0.29021684606E+02  0.00000000000E+00 0. -1.
        -13    1    3    3    0    0 -0.77235221501E+02 -0.26718939378E+02 -0.18551761332E+02  0.83805423514E+02  0.00000000000E+00 0.  1.
         22    1    1    2    0    0  0.56088093716E+02  0.13756459194E+02  0.14887919913E+03  0.15968760240E+03  0.00000000000E+00 0. -1.
<mgrwt>
<rscale>  0 0.92162945E+02</rscale>
<asrwt>0</asrwt>
<pdfrwt beam="1">  1        2 0.29828815E-01 0.10770189E+03</pdfrwt>
<pdfrwt beam="2">  1       -2 0.12096525E-01 0.10770189E+03</pdfrwt>
<totfact> 0.80107803E+03</totfact>
</mgrwt>
</event>
<event>
 6    1  0.1661841E-002  0.9538741E+02  0.7546771E-02  0.1387038E+00
         -2   -1    0    0    0  501 -0.00000000000E+00  0.00000000000E+00  0.11177316656E+02  0.11177316656E+02  0.00000000000E+00 0.  1.
          2   -1    0    0  501    0  0.00000000000E+00 -0.00000000000E+00 -0.29732007221E+03  0.29732007221E+03  0.00000000000E+00 0. -1.
         23    2    1    2    0    0 -0.33217771483E+01  0.17436200512E+02 -0.21565032838E+03  0.23580462733E+03  0.93721410814E+02 0.  0.
         13    1    3    3    0    0  0.78769790324E+01 -0.13595138851E+02  0.18461837527E+01  0.15820334810E+02  0.00000000000E+00 0.  1.
        -13    1    3    3    0    0 -0.11198756181E+02  0.31031339363E+02 -0.21749651214E+03  0.21998429252E+03  0.00000000000E+00 0. -1.
         22    1    1    2    0    0  0.33217771483E+01 -0.17436200512E+02 -0.70492427169E+02  0.72692761537E+02  0.00000000000E+00 0. -1.
<mgrwt>
<rscale>  0 0.62649361E+02</rscale>
<asrwt>0</asrwt>
<pdfrwt beam="1">  1        2 0.45741548E-01 0.95387411E+02</pdfrwt>
<pdfrwt beam="2">  1       -2 0.17195872E-02 0.95387411E+02</pdfrwt>
<totfact> 0.92381600E+04</totfact>
</mgrwt>
</event>
<event>
 6    1  0.1661841E-002  0.9503248E+02  0.7546771E-02  0.1366224E+00
          3   -1    0    0  501    0  0.00000000000E+00  0.00000000000E+00  0.10934034899E+03  0.10934034899E+03  0.00000000000E+00 0. -1.
         -3   -1    0    0    0  501 -0.00000000000E+00 -0.00000000000E+00 -0.33379532619E+02  0.33379532619E+02  0.00000000000E+00 0.  1.
         23    2    1    2    0    0  0.15022011201E+02  0.20293795650E+02  0.54291673909E+02  0.10944751023E+03  0.91616989017E+02 0.  0.
         11    1    3    3    0    0  0.32195470204E+02  0.35454017925E+02  0.67683083183E+02  0.82912818296E+02  0.00000000000E+00 0. -1.
        -11    1    3    3    0    0 -0.17173459003E+02 -0.15160222275E+02 -0.13391409273E+02  0.26534691931E+02  0.00000000000E+00 0.  1.
         22    1    1    2    0    0 -0.15022011201E+02 -0.20293795650E+02  0.21669142466E+02  0.33272371385E+02  0.00000000000E+00 0. -1.
<mgrwt>
<rscale>  0 0.68228209E+02</rscale>
<asrwt>0</asrwt>
<pdfrwt beam="1">  1        3 0.16821592E-01 0.95032477E+02</pdfrwt>
<pdfrwt beam="2">  1       -3 0.51353127E-02 0.95032477E+02</pdfrwt>
<totfact> 0.13803018E+04</totfact>
</mgrwt>
</event>
<event>
 6    1  0.1661841E-002  0.1126937E+03  0.7546771E-02  0.1320935E+00
          3   -1    0    0  501    0  0.00000000000E+00  0.00000000000E+00  0.35233403982E+02  0.35233403982E+02  0.00000000000E+00 0. -1.
         -3   -1    0    0    0  501 -0.00000000000E+00 -0.00000000000E+00 -0.18481727133E+03  0.18481727133E+03  0.00000000000E+00 0.  1.
         23    2    1    2    0    0 -0.31842530166E+02  0.88471881170E+01 -0.67016509092E+02  0.13111481014E+03  0.10773885781E+03 0.  0.
         13    1    3    3    0    0 -0.66349452995E+02  0.11509742432E+02 -0.15580970701E+02  0.69119394757E+02  0.00000000000E+00 0. -1.
        -13    1    3    3    0    0  0.34506922829E+02 -0.26625543155E+01 -0.51435538392E+02  0.61995415381E+02  0.00000000000E+00 0.  1.
         22    1    1    2    0    0  0.31842530166E+02 -0.88471881170E+01 -0.82567358257E+02  0.88935865176E+02  0.00000000000E+00 0.  1.
<mgrwt>
<rscale>  0 0.82930371E+02</rscale>
<asrwt>0</asrwt>
<pdfrwt beam="1">  1        3 0.54205239E-02 0.11269375E+03</pdfrwt>
<pdfrwt beam="2">  1       -3 0.28433425E-01 0.11269375E+03</pdfrwt>
<totfact> 0.52067442E+03</totfact>
</mgrwt>
</event>
<event>
 6    1  0.1661841E-002  0.9459512E+02  0.7546771E-02  0.1400851E+00
         -2   -1    0    0    0  501 -0.00000000000E+00  0.00000000000E+00  0.18356171387E+03  0.18356171387E+03  0.00000000000E+00 0. -1.
          2   -1    0    0  501    0  0.00000000000E+00 -0.00000000000E+00 -0.34512421932E+02  0.34512421932E+02  0.00000000000E+00 0.  1.
         23    2    1    2    0    0  0.26827340667E+01 -0.14346622167E+02  0.16881029215E+03  0.19350749665E+03  0.93462366187E+02 0.  0.
         13    1    3    3    0    0  0.25982296512E+02 -0.47096059922E+02  0.85553186081E+02  0.10105674763E+03  0.00000000000E+00 0. -1.
        -13    1    3    3    0    0 -0.23299562445E+02  0.32749437755E+02  0.83257106073E+02  0.92450749024E+02  0.00000000000E+00 0.  1.
         22    1    1    2    0    0 -0.26827340667E+01  0.14346622167E+02 -0.19761000216E+02  0.24566639152E+02  0.00000000000E+00 0.  1.
<mgrwt>
<rscale>  0 0.59286357E+02</rscale>
<asrwt>0</asrwt>
<pdfrwt beam="1">  1        2 0.53096035E-02 0.94595119E+02</pdfrwt>
<pdfrwt beam="2">  1       -2 0.28240263E-01 0.94595119E+02</pdfrwt>
<totfact> 0.14825382E+04</totfact>
</mgrwt>
</event>
<event>
 6    1  0.1661841E-002  0.9782541E+02  0.7546771E-02  0.1343536E+00
         -1   -1    0    0    0  501 -0.00000000000E+00  0.00000000000E+00  0.22776899225E+02  0.22776899225E+02  0.00000000000E+00 0.  1.
          1   -1    0    0  501    0  0.00000000000E+00 -0.00000000000E+00 -0.19125661855E+03  0.19125661855E+03  0.00000000000E+00 0. -1.
         23    2    1    2    0    0  0.30284591264E+02 -0.15440556382E+02 -0.11996747764E+03  0.15479666402E+03  0.91729189743E+02 0.  0.
         13    1    3    3    0    0 -0.81901923614E+01  0.33626612713E+02 -0.33286792682E+02  0.48019151393E+02  0.00000000000E+00 0.  1.
        -13    1    3    3    0    0  0.38474783625E+02 -0.49067169095E+02 -0.86680684955E+02  0.10677751262E+03  0.00000000000E+00 0. -1.
         22    1    1    2    0    0 -0.30284591264E+02  0.15440556382E+02 -0.48512241687E+02  0.59236853756E+02  0.00000000000E+00 0.  1.
<mgrwt>
<rscale>  0 0.75108341E+02</rscale>
<asrwt>0</asrwt>
<pdfrwt beam="1">  1        1 0.29424096E-01 0.97825413E+02</pdfrwt>
<pdfrwt beam="2">  1       -1 0.35041382E-02 0.97825413E+02</pdfrwt>
<totfact> 0.41003399E+04</totfact>
</mgrwt>
</event>
<event>
 6    1  0.1661841E-002  0.1000483E+03  0.7546771E-02  0.1381670E+00
         -1   -1    0    0    0  501 -0.00000000000E+00  0.00000000000E+00  0.24365592058E+02  0.24365592058E+02  0.00000000000E+00 0.  1.
          1   -1    0    0  501    0  0.00000000000E+00 -0.00000000000E+00 -0.14179805898E+03  0.14179805898E+03  0.00000000000E+00 0. -1.
         23    2    1    2    0    0  0.85371141824E+01 -0.14447294849E+02 -0.93526152899E+02  0.13695545874E+03  0.98630876282E+02 0.  0.
         13    1    3    3    0    0 -0.44759800614E+02 -0.50501382276E+01 -0.51611694254E+02  0.68503362186E+02  0.00000000000E+00 0. -1.
        -13    1    3    3    0    0  0.53296914796E+02 -0.93971566215E+01 -0.41914458645E+02  0.68452096556E+02  0.00000000000E+00 0.  1.
         22    1    1    2    0    0 -0.85371141824E+01  0.14447294849E+02 -0.23906314020E+02  0.29208192294E+02  0.00000000000E+00 0.  1.
<mgrwt>
<rscale>  0 0.64026911E+02</rscale>
<asrwt>0</asrwt>
<pdfrwt beam="1">  1        1 0.21815086E-01 0.10004827E+03</pdfrwt>
<pdfrwt beam="2">  1       -1 0.37485527E-02 0.10004827E+03</pdfrwt>
<totfact> 0.54075494E+04</totfact>
</mgrwt>
</event>
<event>
 6    1  0.1790850E-002  0.1103570E+03  0.7546771E-02  0.1287677E+00
         -2   -1    0    0    0  501 -0.00000000000E+00  0.00000000000E+00  0.35325093856E+03  0.35325093856E+03  0.00000000000E+00 0. -1.
          2   -1    0    0  501    0  0.00000000000E+00 -0.00000000000E+00 -0.71845461060E+02  0.71845461060E+02  0.00000000000E+00 0.  1.
         23    2    1    2    0    0  0.35331237277E+02  0.54215990353E+02 -0.23977928542E+02  0.11293186829E+03  0.89392370367E+02 0.  0.
         11    1    3    3    0    0  0.46814531565E+02 -0.73110976316E+01 -0.56721409759E+01  0.47720286017E+02  0.00000000000E+00 0. -1.
        -11    1    3    3    0    0 -0.11483294288E+02  0.61527087985E+02 -0.18305787566E+02  0.65211582269E+02  0.00000000000E+00 0.  1.
         22    1    1    2    0    0 -0.35331237277E+02 -0.54215990353E+02  0.30538340605E+03  0.31216453134E+03  0.00000000000E+00 0. -1.
<mgrwt>
<rscale>  0 0.96570938E+02</rscale>
<asrwt>0</asrwt>
<pdfrwt beam="1">  1        2 0.11053148E-01 0.11035699E+03</pdfrwt>
<pdfrwt beam="2">  1       -2 0.54346297E-01 0.11035699E+03</pdfrwt>
<totfact> 0.17588176E+03</totfact>
</mgrwt>
</event>
<event>
 6    1  0.1661841E-002  0.9899802E+02  0.7546771E-02  0.1348856E+00
          2   -1    0    0  501    0  0.00000000000E+00  0.00000000000E+00  0.74348001901E+02  0.74348001901E+02  0.00000000000E+00 0.  1.
         -2   -1    0    0    0  501 -0.00000000000E+00 -0.00000000000E+00 -0.13811022176E+03  0.13811022176E+03  0.00000000000E+00 0. -1.
         23    2    1    2    0    0 -0.89467804225E+00 -0.29924695695E+02 -0.11584547002E+03  0.15238366325E+03  0.94362704718E+02 0.  0.
         13    1    3    3    0    0  0.37926123998E+02 -0.27626980777E+02 -0.24126928908E+02  0.52761251377E+02  0.00000000000E+00 0. -1.
        -13    1    3    3    0    0 -0.38820802040E+02 -0.22977149186E+01 -0.91718541108E+02  0.99622411875E+02  0.00000000000E+00 0.  1.
         22    1    1    2    0    0  0.89467804225E+00  0.29924695695E+02  0.52083250158E+02  0.60074560408E+02  0.00000000000E+00 0.  1.
<mgrwt>
<rscale>  0 0.73413481E+02</rscale>
<asrwt>0</asrwt>
<pdfrwt beam="1">  1        2 0.11438154E-01 0.98998020E+02</pdfrwt>
<pdfrwt beam="2">  1       -2 0.21247726E-01 0.98998020E+02</pdfrwt>
<totfact> 0.93727887E+03</totfact>
</mgrwt>
</event>
<event>
 6    1  0.1661841E-002  0.9269695E+02  0.7546771E-02  0.1410054E+00
          1   -1    0    0  501    0  0.00000000000E+00  0.00000000000E+00  0.16502980585E+03  0.16502980585E+03  0.00000000000E+00 0. -1.
         -1   -1    0    0    0  501 -0.00000000000E+00 -0.00000000000E+00 -0.18462270713E+02  0.18462270713E+02  0.00000000000E+00 0.  1.
         23    2    1    2    0    0 -0.12119669672E+02 -0.57689052412E+01  0.10626992970E+03  0.14101780595E+03  0.91719992228E+02 0.  0.
         11    1    3    3    0    0  0.31681728728E+02  0.23558435486E+02  0.52853066853E+02  0.65971042841E+02  0.00000000000E+00 0. -1.
        -11    1    3    3    0    0 -0.43801398400E+02 -0.29327340727E+02  0.53416862851E+02  0.75046763106E+02  0.00000000000E+00 0.  1.
         22    1    1    2    0    0  0.12119669672E+02  0.57689052412E+01  0.40297605435E+02  0.42474270617E+02  0.00000000000E+00 0. -1.
<mgrwt>
<rscale>  0 0.57181872E+02</rscale>
<asrwt>0</asrwt>
<pdfrwt beam="1">  1        1 0.25389200E-01 0.92696945E+02</pdfrwt>
<pdfrwt beam="2">  1       -1 0.28403495E-02 0.92696945E+02</pdfrwt>
<totfact> 0.66152278E+04</totfact>
</mgrwt>
</event>
<event>
 6    1  0.1661841E-002  0.9505305E+02  0.7546771E-02  0.1345940E+00
          2   -1    0    0  501    0  0.00000000000E+00  0.00000000000E+00  0.64729888193E+02  0.64729888193E+02  0.00000000000E+00 0.  1.
         -2   -1    0    0    0  501 -0.00000000000E+00 -0.00000000000E+00 -0.43179179676E+03  0.43179179676E+03  0.00000000000E+00 0. -1.
         23    2    1    2    0    0 -0.35370015106E+02 -0.36211280722E+01 -0.42117791600E+03  0.43177067879E+03  0.88152887633E+02 0.  0.
         11    1    3    3    0    0 -0.25355804707E+02 -0.32395094971E+02 -0.87318316035E+02  0.96523817401E+02  0.00000000000E+00 0.  1.
        -11    1    3    3    0    0 -0.10014210399E+02  0.28773966899E+02 -0.33385959997E+03  0.33524686139E+03  0.00000000000E+00 0. -1.
         22    1    1    2    0    0  0.35370015106E+02  0.36211280722E+01  0.54116007440E+02  0.64751006157E+02  0.00000000000E+00 0.  1.
<mgrwt>
<rscale>  0 0.74336034E+02</rscale>
<asrwt>0</asrwt>
<pdfrwt beam="1">  1        2 0.99584442E-02 0.95053049E+02</pdfrwt>
<pdfrwt beam="2">  1       -2 0.66429508E-01 0.95053049E+02</pdfrwt>
<totfact> 0.13133111E+03</totfact>
</mgrwt>
</event>
<event>
 6    1  0.1661841E-002  0.9445880E+02  0.7546771E-02  0.1383131E+00
          2   -1    0    0  501    0  0.00000000000E+00  0.00000000000E+00  0.58856652935E+03  0.58856652935E+03  0.00000000000E+00 0. -1.
         -2   -1    0    0    0  501 -0.00000000000E+00 -0.00000000000E+00 -0.55222380148E+01  0.55222380148E+01  0.00000000000E+00 0.  1.
         23    2    1    2    0    0 -0.14715434746E+02  0.12751745091E+02  0.49200731433E+03  0.50099267612E+03  0.92430044629E+02 0.  0.
         11    1    3    3    0    0 -0.23105062278E+02  0.16041207378E+02  0.49113423374E+03  0.49193902039E+03  0.00000000000E+00 0. -1.
        -11    1    3    3    0    0  0.83896275327E+01 -0.32894622868E+01  0.87308059029E+00  0.90536557252E+01  0.00000000000E+00 0.  1.
         22    1    1    2    0    0  0.14715434746E+02 -0.12751745091E+02  0.91036977006E+02  0.93096091245E+02  0.00000000000E+00 0. -1.
<mgrwt>
<rscale>  0 0.63647791E+02</rscale>
<asrwt>0</asrwt>
<pdfrwt beam="1">  1        2 0.90548647E-01 0.94458796E+02</pdfrwt>
<pdfrwt beam="2">  1       -2 0.84957554E-03 0.94458796E+02</pdfrwt>
<totfact> 0.12139595E+05</totfact>
</mgrwt>
</event>
<event>
 6    1  0.1661841E-002  0.9498628E+02  0.7546771E-02  0.1367315E+00
         -2   -1    0    0    0  501 -0.00000000000E+00  0.00000000000E+00  0.14580804081E+02  0.14580804081E+02  0.00000000000E+00 0.  1.
          2   -1    0    0  501    0  0.00000000000E+00 -0.00000000000E+00 -0.28598734041E+03  0.28598734041E+03  0.00000000000E+00 0. -1.
         23    2    1    2    0    0 -0.24823917062E+02 -0.58382397697E+00 -0.15699740302E+03  0.18349544275E+03  0.91683287715E+02 0.  0.
         11    1    3    3    0    0 -0.26257273792E+02 -0.42438433570E+02 -0.61368797553E+02  0.79098637055E+02  0.00000000000E+00 0.  1.
        -11    1    3    3    0    0  0.14333567297E+01  0.41854609593E+02 -0.95628605470E+02  0.10439680570E+03  0.00000000000E+00 0. -1.
         22    1    1    2    0    0  0.24823917062E+02  0.58382397697E+00 -0.11440913330E+03  0.11707270174E+03  0.00000000000E+00 0.  1.
<mgrwt>
<rscale>  0 0.67919307E+02</rscale>
<asrwt>0</asrwt>
<pdfrwt beam="1">  1        2 0.43998055E-01 0.94986278E+02</pdfrwt>
<pdfrwt beam="2">  1       -2 0.22432005E-02 0.94986278E+02</pdfrwt>
<totfact> 0.65619780E+04</totfact>
</mgrwt>
</event>
<event>
 6    1  0.1661841E-002  0.9616784E+02  0.7546771E-02  0.1360194E+00
          2   -1    0    0  501    0  0.00000000000E+00  0.00000000000E+00  0.90366120875E+03  0.90366120875E+03  0.00000000000E+00 0. -1.
         -2   -1    0    0    0  501 -0.00000000000E+00 -0.00000000000E+00 -0.45945242144E+01  0.45945242144E+01  0.00000000000E+00 0.  1.
         23    2    1    2    0    0  0.26313969861E+02  0.58231523454E+01  0.79337026927E+03  0.79917747522E+03  0.92314238449E+02 0.  0.
         13    1    3    3    0    0  0.37908822994E+02 -0.32111165744E+02  0.28806997357E+03  0.29232262228E+03  0.00000000000E+00 0.  1.
        -13    1    3    3    0    0 -0.11594853133E+02  0.37934318089E+02  0.50530029570E+03  0.50685485294E+03  0.00000000000E+00 0. -1.
         22    1    1    2    0    0 -0.26313969861E+02 -0.58231523454E+01  0.10569641527E+03  0.10907825775E+03  0.00000000000E+00 0.  1.
<mgrwt>
<rscale>  0 0.69970413E+02</rscale>
<asrwt>0</asrwt>
<pdfrwt beam="1">  1        2 0.13902466E+00 0.96167836E+02</pdfrwt>
<pdfrwt beam="2">  1       -2 0.70685060E-03 0.96167836E+02</pdfrwt>
<totfact> 0.94698755E+04</totfact>
</mgrwt>
</event>
<event>
 6    1  0.1661841E-002  0.9267109E+02  0.7546771E-02  0.1419154E+00
          2   -1    0    0  501    0  0.00000000000E+00  0.00000000000E+00  0.32167785275E+03  0.32167785275E+03  0.00000000000E+00 0. -1.
         -2   -1    0    0    0  501 -0.00000000000E+00 -0.00000000000E+00 -0.84680764114E+01  0.84680764114E+01  0.00000000000E+00 0.  1.
         23    2    1    2    0    0 -0.10537458262E+02  0.50066249792E+01  0.28118141910E+03  0.29605898169E+03  0.91933812463E+02 0.  0.
         13    1    3    3    0    0  0.30514142838E+02  0.92656267250E+01  0.21974416459E+03  0.22204608221E+03  0.00000000000E+00 0. -1.
        -13    1    3    3    0    0 -0.41051601100E+02 -0.42590017458E+01  0.61437254508E+02  0.74012899485E+02  0.00000000000E+00 0.  1.
         22    1    1    2    0    0  0.10537458262E+02 -0.50066249792E+01  0.32028357244E+02  0.34086947474E+02  0.00000000000E+00 0. -1.
<mgrwt>
<rscale>  0 0.55200394E+02</rscale>
<asrwt>0</asrwt>
<pdfrwt beam="1">  1        2 0.49488891E-01 0.92671086E+02</pdfrwt>
<pdfrwt beam="2">  1       -2 0.13027812E-02 0.92671086E+02</pdfrwt>
<totfact> 0.12591541E+05</totfact>
</mgrwt>
</event>
<event>
 6    1  0.1661841E-002  0.9367230E+02  0.7546771E-02  0.1425318E+00
          1   -1    0    0  501    0  0.00000000000E+00  0.00000000000E+00  0.34095547921E+03  0.34095547921E+03  0.00000000000E+00 0. -1.
         -1   -1    0    0    0  501 -0.00000000000E+00 -0.00000000000E+00 -0.79230384289E+01  0.79230384289E+01  0.00000000000E+00 0.  1.
         23    2    1    2    0    0  0.56469161591E+01  0.85871563822E+01  0.29987263489E+03  0.31416253222E+03  0.93106780518E+02 0.  0.
         13    1    3    3    0    0  0.37453315376E+02 -0.18815944176E+02  0.21970234845E+03  0.22366473237E+03  0.00000000000E+00 0.  1.
        -13    1    3    3    0    0 -0.31806399217E+02  0.27403100558E+02  0.80170286433E+02  0.90497799853E+02  0.00000000000E+00 0. -1.
         22    1    1    2    0    0 -0.56469161591E+01 -0.85871563822E+01  0.33159805892E+02  0.34715985419E+02  0.00000000000E+00 0.  1.
<mgrwt>
<rscale>  0 0.53911350E+02</rscale>
<asrwt>0</asrwt>
<pdfrwt beam="1">  1        1 0.52454678E-01 0.93672298E+02</pdfrwt>
<pdfrwt beam="2">  1       -1 0.12189292E-02 0.93672298E+02</pdfrwt>
<totfact> 0.90969523E+04</totfact>
</mgrwt>
</event>
<event>
 6    1  0.1661841E-002  0.8803660E+02  0.7546771E-02  0.1407910E+00
         -2   -1    0    0    0  501 -0.00000000000E+00  0.00000000000E+00  0.86722438458E+01  0.86722438458E+01  0.00000000000E+00 0. -1.
          2   -1    0    0  501    0  0.00000000000E+00 -0.00000000000E+00 -0.31506678100E+03  0.31506678100E+03  0.00000000000E+00 0.  1.
         23    2    1    2    0    0  0.14735561503E+02  0.67378233970E+01 -0.24919387606E+03  0.26428777872E+03  0.86532693678E+02 0.  0.
         11    1    3    3    0    0  0.27595432453E+02  0.17014821910E+02 -0.24521913512E+03  0.24735285785E+03  0.00000000000E+00 0.  1.
        -11    1    3    3    0    0 -0.12859870950E+02 -0.10276998513E+02 -0.39747409441E+01  0.16934920870E+02  0.00000000000E+00 0. -1.
         22    1    1    2    0    0 -0.14735561503E+02 -0.67378233970E+01 -0.57200661091E+02  0.59451246128E+02  0.00000000000E+00 0.  1.
<mgrwt>
<rscale>  0 0.57662815E+02</rscale>
<asrwt>0</asrwt>
<pdfrwt beam="1">  1        2 0.48471805E-01 0.88036595E+02</pdfrwt>
<pdfrwt beam="2">  1       -2 0.13341916E-02 0.88036595E+02</pdfrwt>
<totfact> 0.12339567E+05</totfact>
</mgrwt>
</event>
<event>
 6    1  0.1661841E-002  0.9283249E+02  0.7546771E-02  0.1407028E+00
          2   -1    0    0  501    0  0.00000000000E+00  0.00000000000E+00  0.35940921762E+02  0.35940921762E+02  0.00000000000E+00 0.  1.
         -2   -1    0    0    0  501 -0.00000000000E+00 -0.00000000000E+00 -0.83428709339E+02  0.83428709339E+02  0.00000000000E+00 0. -1.
         23    2    1    2    0    0  0.13987509107E+02 -0.81799062588E+00 -0.49515223210E+02  0.10521230032E+03  0.91769010503E+02 0.  0.
         13    1    3    3    0    0 -0.24984412868E+02  0.31394994769E+02 -0.10859430496E+02  0.41566739270E+02  0.00000000000E+00 0. -1.
        -13    1    3    3    0    0  0.38971921975E+02 -0.32212985395E+02 -0.38655792714E+02  0.63645561046E+02  0.00000000000E+00 0.  1.
         22    1    1    2    0    0 -0.13987509107E+02  0.81799062588E+00  0.20274356327E+01  0.14157330784E+02  0.00000000000E+00 0.  1.
<mgrwt>
<rscale>  0 0.57862265E+02</rscale>
<asrwt>0</asrwt>
<pdfrwt beam="1">  1        2 0.55293727E-02 0.92832488E+02</pdfrwt>
<pdfrwt beam="2">  1       -2 0.12835186E-01 0.92832488E+02</pdfrwt>
<totfact> 0.52414555E+04</totfact>
</mgrwt>
</event>
<event>
 6    1  0.1661841E-002  0.9504814E+02  0.7546771E-02  0.1380550E+00
         -2   -1    0    0    0  501 -0.00000000000E+00  0.00000000000E+00  0.92832891702E+01  0.92832891702E+01  0.00000000000E+00 0.  1.
          2   -1    0    0  501    0  0.00000000000E+00 -0.00000000000E+00 -0.37457531415E+03  0.37457531415E+03  0.00000000000E+00 0. -1.
         23    2    1    2    0    0 -0.19925702315E+02  0.47762349430E+00 -0.26313148275E+03  0.27977191769E+03  0.92934853399E+02 0.  0.
         11    1    3    3    0    0 -0.46282826749E+02  0.28839010310E+02 -0.12634052124E+03  0.13760710692E+03  0.00000000000E+00 0.  1.
        -11    1    3    3    0    0  0.26357124433E+02 -0.28361386815E+02 -0.13679096150E+03  0.14216481076E+03  0.00000000000E+00 0. -1.
         22    1    1    2    0    0  0.19925702315E+02 -0.47762349430E+00 -0.10216054224E+03  0.10408668564E+03  0.00000000000E+00 0.  1.
<mgrwt>
<rscale>  0 0.64319448E+02</rscale>
<asrwt>0</asrwt>
<pdfrwt beam="1">  1        2 0.57626963E-01 0.95048139E+02</pdfrwt>
<pdfrwt beam="2">  1       -2 0.14281985E-02 0.95048139E+02</pdfrwt>
<totfact> 0.94518006E+04</totfact>
</mgrwt>
</event>
<event>
 6    1  0.1661841E-002  0.9390173E+02  0.7546771E-02  0.1389941E+00
          2   -1    0    0  501    0  0.00000000000E+00  0.00000000000E+00  0.95662207419E+02  0.95662207419E+02  0.00000000000E+00 0. -1.
         -2   -1    0    0    0  501 -0.00000000000E+00 -0.00000000000E+00 -0.32798014744E+02  0.32798014744E+02  0.00000000000E+00 0.  1.
         23    2    1    2    0    0  0.15328702244E+02 -0.89611646436E+01  0.56550557034E+02  0.10961523399E+03  0.92207713547E+02 0.  0.
         11    1    3    3    0    0  0.26561725575E+02  0.37504561389E+02  0.24732000612E+02  0.52189934324E+02  0.00000000000E+00 0. -1.
        -11    1    3    3    0    0 -0.11233023330E+02 -0.46465726033E+02  0.31818556422E+02  0.57425299665E+02  0.00000000000E+00 0.  1.
         22    1    1    2    0    0 -0.15328702244E+02  0.89611646436E+01  0.63136356413E+01  0.18844988174E+02  0.00000000000E+00 0. -1.
<mgrwt>
<rscale>  0 0.61921402E+02</rscale>
<asrwt>0</asrwt>
<pdfrwt beam="1">  1        2 0.14717263E-01 0.93901725E+02</pdfrwt>
<pdfrwt beam="2">  1       -2 0.50458485E-02 0.93901725E+02</pdfrwt>
<totfact> 0.66277219E+04</totfact>
</mgrwt>
</event>
<event>
 6    1  0.1661841E-002  0.9458532E+02  0.7546771E-02  0.1365846E+00
          1   -1    0    0  501    0  0.00000000000E+00  0.00000000000E+00  0.23834470458E+02  0.23834470458E+02  0.00000000000E+00 0. -1.
         -1   -1    0    0    0  501 -0.00000000000E+00 -0.00000000000E+00 -0.15382970286E+03  0.15382970286E+03  0.00000000000E+00 0.  1.
         23    2    1    2    0    0  0.24373238215E+02 -0.83692663199E+01 -0.10981029025E+03  0.14492992139E+03  0.91007048673E+02 0.  0.
         11    1    3    3    0    0  0.46626801769E+02 -0.56093941308E+01 -0.17794502679E+02  0.50221193448E+02  0.00000000000E+00 0. -1.
        -11    1    3    3    0    0 -0.22253563553E+02 -0.27598721891E+01 -0.92015787572E+02  0.94708727939E+02  0.00000000000E+00 0.  1.
         22    1    1    2    0    0 -0.24373238215E+02  0.83692663199E+01 -0.20184942152E+02  0.32734251931E+02  0.00000000000E+00 0.  1.
<mgrwt>
<rscale>  0 0.68335587E+02</rscale>
<asrwt>0</asrwt>
<pdfrwt beam="1">  1        1 0.36668415E-02 0.94585317E+02</pdfrwt>
<pdfrwt beam="2">  1       -1 0.23666109E-01 0.94585317E+02</pdfrwt>
<totfact> 0.34303155E+04</totfact>
</mgrwt>
</event>
<event>
 6    1  0.1661841E-002  0.1084922E+03  0.7546771E-02  0.1294149E+00
         -1   -1    0    0    0  501 -0.00000000000E+00  0.00000000000E+00  0.13396084622E+04  0.13396084622E+04  0.00000000000E+00 0.  1.
          1   -1    0    0  501    0  0.00000000000E+00 -0.00000000000E+00 -0.70965294613E+01  0.70965294613E+01  0.00000000000E+00 0. -1.
         23    2    1    2    0    0  0.18608906077E+01  0.60312788735E+02  0.11351983519E+04  0.11403709310E+04  0.90163555573E+02 0.  0.
         13    1    3    3    0    0 -0.17093390452E+02  0.28255119623E+02  0.98742171404E+03  0.98797377351E+03  0.00000000000E+00 0.  1.
        -13    1    3    3    0    0  0.18954281060E+02  0.32057669111E+02  0.14777663783E+03  0.15239715747E+03  0.00000000000E+00 0. -1.
         22    1    1    2    0    0 -0.18608906077E+01 -0.60312788735E+02  0.19731358086E+03  0.20633406066E+03  0.00000000000E+00 0.  1.
<mgrwt>
<rscale>  0 0.93692097E+02</rscale>
<asrwt>0</asrwt>
<pdfrwt beam="1">  1        1 0.10917748E-02 0.10849222E+03</pdfrwt>
<pdfrwt beam="2">  1       -1 0.20609341E+00 0.10849222E+03</pdfrwt>
<totfact> 0.20802396E+03</totfact>
</mgrwt>
</event>
<event>
 6    1  0.1661841E-002  0.9227743E+02  0.7546771E-02  0.1402424E+00
         -2   -1    0    0    0  501 -0.00000000000E+00  0.00000000000E+00  0.15099917388E+03  0.15099917388E+03  0.00000000000E+00 0.  1.
          2   -1    0    0  501    0  0.00000000000E+00 -0.00000000000E+00 -0.19563207398E+02  0.19563207398E+02  0.00000000000E+00 0. -1.
         23    2    1    2    0    0 -0.14360116538E+02 -0.53862433882E+01  0.12026860663E+03  0.15159044171E+03  0.90993954269E+02 0.  0.
         13    1    3    3    0    0 -0.14112439727E+02 -0.32160353636E+02  0.11976731623E+03  0.12481049370E+03  0.00000000000E+00 0.  1.
        -13    1    3    3    0    0 -0.24767681082E+00  0.26774110247E+02  0.50129039655E+00  0.26779948010E+02  0.00000000000E+00 0. -1.
         22    1    1    2    0    0  0.14360116538E+02  0.53862433882E+01  0.11167359856E+02  0.18971939568E+02  0.00000000000E+00 0. -1.
<mgrwt>
<rscale>  0 0.58919216E+02</rscale>
<asrwt>0</asrwt>
<pdfrwt beam="1">  1        2 0.30097243E-02 0.92277431E+02</pdfrwt>
<pdfrwt beam="2">  1       -2 0.23230641E-01 0.92277431E+02</pdfrwt>
<totfact> 0.43618083E+04</totfact>
</mgrwt>
</event>
<event>
 6    1  0.1661841E-002  0.9540496E+02  0.7546771E-02  0.1389469E+00
         -1   -1    0    0    0  501 -0.00000000000E+00  0.00000000000E+00  0.17884076338E+02  0.17884076338E+02  0.00000000000E+00 0.  1.
          1   -1    0    0  501    0  0.00000000000E+00 -0.00000000000E+00 -0.19382618464E+03  0.19382618464E+03  0.00000000000E+00 0. -1.
         23    2    1    2    0    0  0.16077820947E+02 -0.57009420713E+01 -0.12045640807E+03  0.15366148841E+03  0.93867511458E+02 0.  0.
         11    1    3    3    0    0 -0.35075984794E+02  0.16086550146E+02 -0.61655859775E+02  0.72736145413E+02  0.00000000000E+00 0. -1.
        -11    1    3    3    0    0  0.51153805741E+02 -0.21787492217E+02 -0.58800548296E+02  0.80925342994E+02  0.00000000000E+00 0.  1.
         22    1    1    2    0    0 -0.16077820947E+02  0.57009420713E+01 -0.55485700235E+02  0.58048772575E+02  0.00000000000E+00 0. -1.
<mgrwt>
<rscale>  0 0.62038930E+02</rscale>
<asrwt>0</asrwt>
<pdfrwt beam="1">  1        1 0.29819414E-01 0.95404962E+02</pdfrwt>
<pdfrwt beam="2">  1       -1 0.27513963E-02 0.95404962E+02</pdfrwt>
<totfact> 0.57008221E+04</totfact>
</mgrwt>
</event>
<event>
 6    1  0.1661841E-002  0.9470973E+02  0.7546771E-02  0.1393221E+00
          4   -1    0    0  501    0  0.00000000000E+00  0.00000000000E+00  0.11565150108E+03  0.11565150108E+03  0.00000000000E+00 0. -1.
         -4   -1    0    0    0  501 -0.00000000000E+00 -0.00000000000E+00 -0.31555472206E+02  0.31555472206E+02  0.00000000000E+00 0.  1.
         23    2    1    2    0    0 -0.13083922247E+02 -0.99189653238E+01  0.45108617080E+02  0.10490338983E+03  0.93275714788E+02 0.  0.
         11    1    3    3    0    0 -0.23484278164E+02 -0.21162962137E+02 -0.20402862033E+02  0.37625245068E+02  0.00000000000E+00 0.  1.
        -11    1    3    3    0    0  0.10400355916E+02  0.11243996813E+02  0.65511479113E+02  0.67278144766E+02  0.00000000000E+00 0. -1.
         22    1    1    2    0    0  0.13083922247E+02  0.99189653238E+01  0.38987411792E+02  0.42303583450E+02  0.00000000000E+00 0. -1.
<mgrwt>
<rscale>  0 0.61112619E+02</rscale>
<asrwt>0</asrwt>
<pdfrwt beam="1">  1        4 0.17792538E-01 0.94709735E+02</pdfrwt>
<pdfrwt beam="2">  1       -4 0.48546881E-02 0.94709735E+02</pdfrwt>
<totfact> 0.10255669E+04</totfact>
</mgrwt>
</event>
<event>
 6    1  0.1661841E-002  0.9098259E+02  0.7546771E-02  0.1402638E+00
          3   -1    0    0  501    0  0.00000000000E+00  0.00000000000E+00  0.59301507475E+02  0.59301507475E+02  0.00000000000E+00 0. -1.
         -3   -1    0    0    0  501 -0.00000000000E+00 -0.00000000000E+00 -0.48993996658E+02  0.48993996658E+02  0.00000000000E+00 0.  1.
         23    2    1    2    0    0 -0.14714213042E+02  0.61490320310E+01  0.37715551747E+01  0.91060731825E+02  0.89574067630E+02 0.  0.
         11    1    3    3    0    0  0.32568641365E+00 -0.38994169662E+02  0.15648557874E+02  0.42018194902E+02  0.00000000000E+00 0. -1.
        -11    1    3    3    0    0 -0.15039899455E+02  0.45143201693E+02 -0.11877002699E+02  0.49042536923E+02  0.00000000000E+00 0.  1.
         22    1    1    2    0    0  0.14714213042E+02 -0.61490320310E+01  0.65359556421E+01  0.17234772308E+02  0.00000000000E+00 0.  1.
<mgrwt>
<rscale>  0 0.58869590E+02</rscale>
<asrwt>0</asrwt>
<pdfrwt beam="1">  1        3 0.91233088E-02 0.90982593E+02</pdfrwt>
<pdfrwt beam="2">  1       -3 0.75375379E-02 0.90982593E+02</pdfrwt>
<totfact> 0.20599292E+04</totfact>
</mgrwt>
</event>
<event>
 6    1  0.1661841E-002  0.9411701E+02  0.7546771E-02  0.1371429E+00
         -2   -1    0    0    0  501 -0.00000000000E+00  0.00000000000E+00  0.85579765858E+01  0.85579765858E+01  0.00000000000E+00 0.  1.
          2   -1    0    0  501    0  0.00000000000E+00 -0.00000000000E+00 -0.42138860915E+03  0.42138860915E+03  0.00000000000E+00 0. -1.
         23    2    1    2    0    0  0.16900439801E+02 -0.16818262252E+02 -0.29224189429E+03  0.30702334705E+03  0.91046867296E+02 0.  0.
         13    1    3    3    0    0  0.32823673822E+02 -0.46338340764E+02 -0.22254709385E+03  0.22967769672E+03  0.00000000000E+00 0. -1.
        -13    1    3    3    0    0 -0.15923234021E+02  0.29520078512E+02 -0.69694800443E+02  0.77345650336E+02  0.00000000000E+00 0.  1.
         22    1    1    2    0    0 -0.16900439801E+02  0.16818262252E+02 -0.12058873827E+03  0.12292323868E+03  0.00000000000E+00 0. -1.
<mgrwt>
<rscale>  0 0.66771382E+02</rscale>
<asrwt>0</asrwt>
<pdfrwt beam="1">  1        2 0.64829023E-01 0.94117006E+02</pdfrwt>
<pdfrwt beam="2">  1       -2 0.13166117E-02 0.94117006E+02</pdfrwt>
<totfact> 0.93616501E+04</totfact>
</mgrwt>
</event>
<event>
 6    1  0.1661841E-002  0.9461471E+02  0.7546771E-02  0.1406756E+00
         -1   -1    0    0    0  501 -0.00000000000E+00  0.00000000000E+00  0.23934764193E+03  0.23934764193E+03  0.00000000000E+00 0. -1.
          1   -1    0    0  501    0  0.00000000000E+00 -0.00000000000E+00 -0.16876628449E+02  0.16876628449E+02  0.00000000000E+00 0.  1.
         23    2    1    2    0    0  0.11057698532E+02  0.73741464007E+01  0.22369063758E+03  0.24287742750E+03  0.93676532373E+02 0.  0.
         11    1    3    3    0    0  0.30379804403E+02  0.39353395628E+00  0.16313319990E+02  0.34484950249E+02  0.00000000000E+00 0.  1.
        -11    1    3    3    0    0 -0.19322105871E+02  0.69806124444E+01  0.20737731759E+03  0.20839247725E+03  0.00000000000E+00 0. -1.
         22    1    1    2    0    0 -0.11057698532E+02 -0.73741464007E+01 -0.12196240932E+01  0.13346842881E+02  0.00000000000E+00 0.  1.
<mgrwt>
<rscale>  0 0.57923985E+02</rscale>
<asrwt>0</asrwt>
<pdfrwt beam="1">  1        1 0.25964046E-02 0.94614711E+02</pdfrwt>
<pdfrwt beam="2">  1       -1 0.36822712E-01 0.94614711E+02</pdfrwt>
<totfact> 0.26403753E+04</totfact>
</mgrwt>
</event>
<event>
 6    1  0.1661841E-002  0.1197407E+03  0.7546771E-02  0.1269799E+00
         -2   -1    0    0    0  501 -0.00000000000E+00  0.00000000000E+00  0.94531521598E+02  0.94531521598E+02  0.00000000000E+00 0.  1.
          2   -1    0    0  501    0  0.00000000000E+00 -0.00000000000E+00 -0.11119673685E+03  0.11119673685E+03  0.00000000000E+00 0. -1.
         23    2    1    2    0    0  0.46631046978E+02 -0.53858615343E+02  0.26217122094E+02  0.12257719204E+03  0.96242534924E+02 0.  0.
         11    1    3    3    0    0  0.27741564389E+01  0.14800062124E+02 -0.22928831050E+02  0.27431169792E+02  0.00000000000E+00 0. -1.
        -11    1    3    3    0    0  0.43856890539E+02 -0.68658677466E+02  0.49145953144E+02  0.95146022248E+02  0.00000000000E+00 0.  1.
         22    1    1    2    0    0 -0.46631046978E+02  0.53858615343E+02 -0.42882337351E+02  0.83151066413E+02  0.00000000000E+00 0. -1.
<mgrwt>
<rscale>  0 0.10516301E+03</rscale>
<asrwt>0</asrwt>
<pdfrwt beam="1">  1        2 0.17107190E-01 0.11974068E+03</pdfrwt>
<pdfrwt beam="2">  1       -2 0.14543311E-01 0.11974068E+03</pdfrwt>
<totfact> 0.11143570E+04</totfact>
</mgrwt>
</event>
<event>
 6    1  0.1661841E-002  0.9229692E+02  0.7546771E-02  0.1419468E+00
         -2   -1    0    0    0  501 -0.00000000000E+00  0.00000000000E+00  0.11070278384E+02  0.11070278384E+02  0.00000000000E+00 0.  1.
          2   -1    0    0  501    0  0.00000000000E+00 -0.00000000000E+00 -0.24480139708E+03  0.24480139708E+03  0.00000000000E+00 0. -1.
         23    2    1    2    0    0 -0.10932760329E+02  0.43104653404E+01 -0.20430920414E+03  0.22418959195E+03  0.91545709245E+02 0.  0.
         13    1    3    3    0    0 -0.86502437938E+00 -0.12691641373E+02 -0.20403213886E+03  0.20442832415E+03  0.00000000000E+00 0. -1.
        -13    1    3    3    0    0 -0.10067735949E+02  0.17002106713E+02 -0.27706528400E+00  0.19761267798E+02  0.00000000000E+00 0.  1.
         22    1    1    2    0    0  0.10932760329E+02 -0.43104653404E+01 -0.29421914555E+02  0.31682083517E+02  0.00000000000E+00 0. -1.
<mgrwt>
<rscale>  0 0.55133649E+02</rscale>
<asrwt>0</asrwt>
<pdfrwt beam="1">  1        2 0.37661752E-01 0.92296924E+02</pdfrwt>
<pdfrwt beam="2">  1       -2 0.17031198E-02 0.92296924E+02</pdfrwt>
<totfact> 0.11427654E+05</totfact>
</mgrwt>
</event>
<event>
 6    1  0.1661841E-002  0.1042025E+03  0.7546771E-02  0.1352431E+00
          1   -1    0    0  501    0  0.00000000000E+00  0.00000000000E+00  0.47607499325E+03  0.47607499325E+03  0.00000000000E+00 0. -1.
         -1   -1    0    0    0  501 -0.00000000000E+00 -0.00000000000E+00 -0.89755750152E+01  0.89755750152E+01  0.00000000000E+00 0.  1.
         23    2    1    2    0    0 -0.41674672138E+00 -0.24151067426E+02  0.33752388440E+03  0.35324287993E+03  0.10136425379E+03 0.  0.
         13    1    3    3    0    0 -0.49868981842E+01 -0.29387865051E+01 -0.64033376241E+01  0.86318220759E+01  0.00000000000E+00 0.  1.
        -13    1    3    3    0    0  0.45701514628E+01 -0.21212280921E+02  0.34392722203E+03  0.34461105786E+03  0.00000000000E+00 0. -1.
         22    1    1    2    0    0  0.41674672138E+00  0.24151067426E+02  0.12957553384E+03  0.13180768834E+03  0.00000000000E+00 0.  1.
<mgrwt>
<rscale>  0 0.72303418E+02</rscale>
<asrwt>0</asrwt>
<pdfrwt beam="1">  1        1 0.73242287E-01 0.10420249E+03</pdfrwt>
<pdfrwt beam="2">  1       -1 0.13808581E-02 0.10420249E+03</pdfrwt>
<totfact> 0.50937064E+04</totfact>
</mgrwt>
</event>
<event>
 6    1  0.1661841E-002  0.9556055E+02  0.7546771E-02  0.1401013E+00
          2   -1    0    0  501    0  0.00000000000E+00  0.00000000000E+00  0.11037663030E+03  0.11037663030E+03  0.00000000000E+00 0. -1.
         -2   -1    0    0    0  501 -0.00000000000E+00 -0.00000000000E+00 -0.29319664797E+02  0.29319664797E+02  0.00000000000E+00 0.  1.
         23    2    1    2    0    0 -0.13459896711E+02  0.42709912953E+01  0.55528722625E+02  0.11052265339E+03  0.94511415659E+02 0.  0.
         11    1    3    3    0    0  0.17735520769E+02  0.16373125113E+02  0.70016365246E+02  0.74060241191E+02  0.00000000000E+00 0. -1.
        -11    1    3    3    0    0 -0.31195417479E+02 -0.12102133818E+02 -0.14487642621E+02  0.36462412199E+02  0.00000000000E+00 0.  1.
         22    1    1    2    0    0  0.13459896711E+02 -0.42709912953E+01  0.25528242881E+02  0.29173641712E+02  0.00000000000E+00 0. -1.
<mgrwt>
<rscale>  0 0.59248503E+02</rscale>
<asrwt>0</asrwt>
<pdfrwt beam="1">  1        2 0.16981020E-01 0.95560546E+02</pdfrwt>
<pdfrwt beam="2">  1       -2 0.45107177E-02 0.95560546E+02</pdfrwt>
<totfact> 0.66556913E+04</totfact>
</mgrwt>
</event>
<event>
 6    1  0.1661841E-002  0.9221491E+02  0.7546771E-02  0.1386895E+00
         -2   -1    0    0    0  501 -0.00000000000E+00  0.00000000000E+00  0.12439695348E+03  0.12439695348E+03  0.00000000000E+00 0.  1.
          2   -1    0    0  501    0  0.00000000000E+00 -0.00000000000E+00 -0.74066448466E+02  0.74066448466E+02  0.00000000000E+00 0. -1.
         23    2    1    2    0    0 -0.16135259199E+02 -0.11286588604E+02  0.10536094264E+03  0.14001613737E+03  0.90088050363E+02 0.  0.
         13    1    3    3    0    0 -0.12145308395E+02  0.96488363327E+01  0.11541410048E+03  0.11645180612E+03  0.00000000000E+00 0.  1.
        -13    1    3    3    0    0 -0.39899508040E+01 -0.20935424937E+02 -0.10053157841E+02  0.23564331250E+02  0.00000000000E+00 0. -1.
         22    1    1    2    0    0  0.16135259199E+02  0.11286588604E+02 -0.55030437623E+02  0.58447264579E+02  0.00000000000E+00 0. -1.
<mgrwt>
<rscale>  0 0.62685568E+02</rscale>
<asrwt>0</asrwt>
<pdfrwt beam="1">  1        2 0.11394838E-01 0.92214915E+02</pdfrwt>
<pdfrwt beam="2">  1       -2 0.19137993E-01 0.92214915E+02</pdfrwt>
<totfact> 0.11148926E+04</totfact>
</mgrwt>
</event>
<event>
 6    1  0.1661841E-002  0.9480215E+02  0.7546771E-02  0.1363670E+00
         -2   -1    0    0    0  501 -0.00000000000E+00  0.00000000000E+00  0.43615353670E+01  0.43615353670E+01  0.00000000000E+00 0.  1.
          2   -1    0    0  501    0  0.00000000000E+00 -0.00000000000E+00 -0.85494785420E+03  0.85494785420E+03  0.00000000000E+00 0. -1.
         23    2    1    2    0    0  0.13347581026E+02 -0.22939299725E+02 -0.70185536887E+03  0.70822906369E+03  0.91011419328E+02 0.  0.
         13    1    3    3    0    0 -0.11654107509E+02 -0.52171406570E+02 -0.49025804873E+03  0.49316389591E+03  0.00000000000E+00 0. -1.
        -13    1    3    3    0    0  0.25001688535E+02  0.29232106845E+02 -0.21159732014E+03  0.21506516777E+03  0.00000000000E+00 0.  1.
         22    1    1    2    0    0 -0.13347581026E+02  0.22939299725E+02 -0.14873094997E+03  0.15108032588E+03  0.00000000000E+00 0.  1.
<mgrwt>
<rscale>  0 0.68958642E+02</rscale>
<asrwt>0</asrwt>
<pdfrwt beam="1">  1        2 0.13153052E+00 0.94802151E+02</pdfrwt>
<pdfrwt beam="2">  1       -2 0.67100501E-03 0.94802151E+02</pdfrwt>
<totfact> 0.10914529E+05</totfact>
</mgrwt>
</event>
<event>
 6    1  0.1661841E-002  0.9980049E+02  0.7546771E-02  0.1324643E+00
         -4   -1    0    0    0  501 -0.00000000000E+00  0.00000000000E+00  0.11571280110E+04  0.11571280110E+04  0.00000000000E+00 0. -1.
          4   -1    0    0  501    0  0.00000000000E+00 -0.00000000000E+00 -0.48561448354E+01  0.48561448354E+01  0.00000000000E+00 0.  1.
         23    2    1    2    0    0 -0.37924931305E+02  0.23368175679E+02  0.92649761479E+03  0.93185726772E+03  0.89307139395E+02 0.  0.
         13    1    3    3    0    0 -0.49713031667E+02 -0.15968241919E+01  0.25575146193E+03  0.26054317425E+03  0.00000000000E+00 0.  1.
        -13    1    3    3    0    0  0.11788100362E+02  0.24964999871E+02  0.67074615285E+03  0.67131409347E+03  0.00000000000E+00 0. -1.
         22    1    1    2    0    0  0.37924931305E+02 -0.23368175679E+02  0.22577425142E+03  0.23012688816E+03  0.00000000000E+00 0. -1.
<mgrwt>
<rscale>  0 0.81574117E+02</rscale>
<asrwt>0</asrwt>
<pdfrwt beam="1">  1        4 0.74710012E-03 0.99800487E+02</pdfrwt>
<pdfrwt beam="2">  1       -4 0.17801948E+00 0.99800487E+02</pdfrwt>
<totfact> 0.14298220E+03</totfact>
</mgrwt>
</event>
<event>
 6    1  0.1661841E-002  0.9630237E+02  0.7546771E-02  0.1367434E+00
         -3   -1    0    0    0  501 -0.00000000000E+00  0.00000000000E+00  0.66167334194E+01  0.66167334194E+01  0.00000000000E+00 0.  1.
          3   -1    0    0  501    0  0.00000000000E+00 -0.00000000000E+00 -0.55334274249E+03  0.55334274249E+03  0.00000000000E+00 0. -1.
         23    2    1    2    0    0 -0.23717920332E+02 -0.17078491810E+01 -0.40809311563E+03  0.41930196407E+03  0.93320359799E+02 0.  0.
         11    1    3    3    0    0 -0.28620016062E+02 -0.17262326469E+02 -0.39944755762E+03  0.40084341647E+03  0.00000000000E+00 0. -1.
        -11    1    3    3    0    0  0.49020957301E+01  0.15554477288E+02 -0.86455580068E+01  0.18458547600E+02  0.00000000000E+00 0.  1.
         22    1    1    2    0    0  0.23717920332E+02  0.17078491810E+01 -0.13863289343E+03  0.14065751184E+03  0.00000000000E+00 0. -1.
<mgrwt>
<rscale>  0 0.67885594E+02</rscale>
<asrwt>0</asrwt>
<pdfrwt beam="1">  1        3 0.85129665E-01 0.96302368E+02</pdfrwt>
<pdfrwt beam="2">  1       -3 0.10179588E-02 0.96302368E+02</pdfrwt>
<totfact> 0.73098754E+03</totfact>
</mgrwt>
</event>
<event>
 6    1  0.1661841E-002  0.9191157E+02  0.7546771E-02  0.1383813E+00
          2   -1    0    0  501    0  0.00000000000E+00  0.00000000000E+00  0.25025999709E+02  0.25025999709E+02  0.00000000000E+00 0. -1.
         -2   -1    0    0    0  501 -0.00000000000E+00 -0.00000000000E+00 -0.13890152499E+03  0.13890152499E+03  0.00000000000E+00 0.  1.
         23    2    1    2    0    0  0.20937361971E+01  0.20798543474E+02 -0.10878191602E+03  0.14241222788E+03  0.89502928754E+02 0.  0.
         13    1    3    3    0    0 -0.95145942479E+01  0.54638768475E+02 -0.57542526165E+02  0.79919114370E+02  0.00000000000E+00 0. -1.
        -13    1    3    3    0    0  0.11608330445E+02 -0.33840225001E+02 -0.51239389852E+02  0.62493113510E+02  0.00000000000E+00 0.  1.
         22    1    1    2    0    0 -0.20937361971E+01 -0.20798543474E+02 -0.50936092645E+01  0.21515296820E+02  0.00000000000E+00 0. -1.
<mgrwt>
<rscale>  0 0.63472156E+02</rscale>
<asrwt>0</asrwt>
<pdfrwt beam="1">  1        2 0.38501537E-02 0.91911574E+02</pdfrwt>
<pdfrwt beam="2">  1       -2 0.21369466E-01 0.91911574E+02</pdfrwt>
<totfact> 0.36303357E+04</totfact>
</mgrwt>
</event>
<event>
 6    1  0.1661841E-002  0.9338043E+02  0.7546771E-02  0.1392940E+00
          2   -1    0    0  501    0  0.00000000000E+00  0.00000000000E+00  0.63383035125E+02  0.63383035125E+02  0.00000000000E+00 0. -1.
         -2   -1    0    0    0  501 -0.00000000000E+00 -0.00000000000E+00 -0.53387962950E+02  0.53387962950E+02  0.00000000000E+00 0.  1.
         23    2    1    2    0    0  0.14126048838E+02  0.98254171206E+01 -0.56002481437E+01  0.93548205539E+02  0.91781370129E+02 0.  0.
         13    1    3    3    0    0  0.11681773205E+02 -0.40618097627E+02  0.27757883311E+01  0.42355621598E+02  0.00000000000E+00 0.  1.
        -13    1    3    3    0    0  0.24442756330E+01  0.50443514748E+02 -0.83760364748E+01  0.51192583941E+02  0.00000000000E+00 0. -1.
         22    1    1    2    0    0 -0.14126048838E+02 -0.98254171206E+01  0.15595320318E+02  0.23222792536E+02  0.00000000000E+00 0. -1.
<mgrwt>
<rscale>  0 0.61181310E+02</rscale>
<asrwt>0</asrwt>
<pdfrwt beam="1">  1        2 0.97512362E-02 0.93380426E+02</pdfrwt>
<pdfrwt beam="2">  1       -2 0.82135327E-02 0.93380426E+02</pdfrwt>
<totfact> 0.51797484E+04</totfact>
</mgrwt>
</event>
<event>
 6    1  0.1661841E-002  0.8692182E+02  0.7546771E-02  0.1407574E+00
         -2   -1    0    0    0  501 -0.00000000000E+00  0.00000000000E+00  0.48060461123E+02  0.48060461123E+02  0.00000000000E+00 0.  1.
          2   -1    0    0  501    0  0.00000000000E+00 -0.00000000000E+00 -0.92736807256E+02  0.92736807256E+02  0.00000000000E+00 0. -1.
         23    2    1    2    0    0 -0.11148560043E+02  0.12731912953E+02  0.62367579477E+01  0.87145277124E+02  0.85258490351E+02 0.  0.
         13    1    3    3    0    0 -0.23280347172E+02  0.40831273577E+02 -0.15627254275E+02  0.49531591359E+02  0.00000000000E+00 0. -1.
        -13    1    3    3    0    0  0.12131787129E+02 -0.28099360624E+02  0.21864012223E+02  0.37613685766E+02  0.00000000000E+00 0.  1.
         22    1    1    2    0    0  0.11148560043E+02 -0.12731912953E+02 -0.50913104081E+02  0.53651991255E+02  0.00000000000E+00 0. -1.
<mgrwt>
<rscale>  0 0.57738661E+02</rscale>
<asrwt>0</asrwt>
<pdfrwt beam="1">  1        2 0.14267201E-01 0.86921816E+02</pdfrwt>
<pdfrwt beam="2">  1       -2 0.73939172E-02 0.86921816E+02</pdfrwt>
<totfact> 0.38293830E+04</totfact>
</mgrwt>
</event>
<event>
 6    1  0.1661841E-002  0.8959874E+02  0.7546771E-02  0.1420030E+00
          3   -1    0    0  501    0  0.00000000000E+00  0.00000000000E+00  0.37954033610E+02  0.37954033610E+02  0.00000000000E+00 0. -1.
         -3   -1    0    0    0  501 -0.00000000000E+00 -0.00000000000E+00 -0.35368901714E+03  0.35368901714E+03  0.00000000000E+00 0.  1.
         23    2    1    2    0    0 -0.88887339546E+01  0.91200638541E+01 -0.34673746569E+03  0.35812680013E+03  0.88689061895E+02 0.  0.
         11    1    3    3    0    0  0.34611576484E+01  0.38136388310E+02 -0.71678941532E+02  0.81266440704E+02  0.00000000000E+00 0. -1.
        -11    1    3    3    0    0 -0.12349891603E+02 -0.29016324456E+02 -0.27505852416E+03  0.27686035942E+03  0.00000000000E+00 0.  1.
         22    1    1    2    0    0  0.88887339546E+01 -0.91200638541E+01  0.31002482158E+02  0.33516250625E+02  0.00000000000E+00 0. -1.
<mgrwt>
<rscale>  0 0.55014583E+02</rscale>
<asrwt>0</asrwt>
<pdfrwt beam="1">  1        3 0.58390823E-02 0.89598744E+02</pdfrwt>
<pdfrwt beam="2">  1       -3 0.54413693E-01 0.89598744E+02</pdfrwt>
<totfact> 0.12785811E+03</totfact>
</mgrwt>
</event>
<event>
 6    1  0.1661841E-002  0.9309491E+02  0.7546771E-02  0.1403765E+00
         -2   -1    0    0    0  501 -0.00000000000E+00  0.00000000000E+00  0.15939806895E+02  0.15939806895E+02  0.00000000000E+00 0. -1.
          2   -1    0    0  501    0  0.00000000000E+00 -0.00000000000E+00 -0.19836553113E+03  0.19836553113E+03  0.00000000000E+00 0.  1.
         23    2    1    2    0    0  0.12569350296E+02 -0.74750914082E+01 -0.13011776850E+03  0.15999154795E+03  0.91939089506E+02 0.  0.
         13    1    3    3    0    0  0.45857206947E+02  0.84947433199E+01 -0.10623157074E+03  0.11601806202E+03  0.00000000000E+00 0. -1.
        -13    1    3    3    0    0 -0.33287856651E+02 -0.15969834728E+02 -0.23886197754E+02  0.43973485930E+02  0.00000000000E+00 0.  1.
         22    1    1    2    0    0 -0.12569350296E+02  0.74750914082E+01 -0.52307955738E+02  0.54313790072E+02  0.00000000000E+00 0.  1.
<mgrwt>
<rscale>  0 0.58608695E+02</rscale>
<asrwt>0</asrwt>
<pdfrwt beam="1">  1        2 0.30517776E-01 0.93094907E+02</pdfrwt>
<pdfrwt beam="2">  1       -2 0.24522778E-02 0.93094907E+02</pdfrwt>
<totfact> 0.84662075E+04</totfact>
</mgrwt>
</event>
<event>
 6    1  0.1989084E-002  0.1052756E+03  0.7546771E-02  0.1305023E+00
         -2   -1    0    0    0  501 -0.00000000000E+00  0.00000000000E+00  0.64751686601E+01  0.64751686601E+01  0.00000000000E+00 0.  1.
          2   -1    0    0  501    0  0.00000000000E+00 -0.00000000000E+00 -0.17814326114E+04  0.17814326114E+04  0.00000000000E+00 0. -1.
         23    2    1    2    0    0  0.32047621038E+02  0.43511123535E+02 -0.16267979365E+04  0.16302007505E+04  0.90347622075E+02 0.  0.
         11    1    3    3    0    0  0.56349983601E+02  0.14678437408E+02 -0.62874228741E+03  0.63143300607E+03  0.00000000000E+00 0.  1.
        -11    1    3    3    0    0 -0.24302362563E+02  0.28832686127E+02 -0.99805564914E+03  0.99876774447E+03  0.00000000000E+00 0. -1.
         22    1    1    2    0    0 -0.32047621038E+02 -0.43511123535E+02 -0.14815950619E+03  0.15770702952E+03  0.00000000000E+00 0.  1.
<mgrwt>
<rscale>  0 0.89109449E+02</rscale>
<asrwt>0</asrwt>
<pdfrwt beam="1">  1        2 0.27406666E+00 0.10527564E+03</pdfrwt>
<pdfrwt beam="2">  1       -2 0.99617941E-03 0.10527564E+03</pdfrwt>
<totfact> 0.19809716E+04</totfact>
</mgrwt>
</event>
<event>
 6    1  0.1661841E-002  0.9104856E+02  0.7546771E-02  0.1431453E+00
         -3   -1    0    0    0  501 -0.00000000000E+00  0.00000000000E+00  0.10070130404E+03  0.10070130404E+03  0.00000000000E+00 0.  1.
          3   -1    0    0  501    0  0.00000000000E+00 -0.00000000000E+00 -0.26224494612E+02  0.26224494612E+02  0.00000000000E+00 0. -1.
         23    2    1    2    0    0 -0.23520390119E-01 -0.10195609325E+02  0.72839660892E+02  0.11659955741E+03  0.90475906115E+02 0.  0.
         11    1    3    3    0    0 -0.25459711313E+02 -0.26171404363E+02  0.77999647120E+02  0.86122495651E+02  0.00000000000E+00 0.  1.
        -11    1    3    3    0    0  0.25436190923E+02  0.15975795037E+02 -0.51599862276E+01  0.30477061761E+02  0.00000000000E+00 0. -1.
         22    1    1    2    0    0  0.23520390119E-01  0.10195609325E+02  0.16371485312E+01  0.10326241235E+02  0.00000000000E+00 0. -1.
<mgrwt>
<rscale>  0 0.52669404E+02</rscale>
<asrwt>0</asrwt>
<pdfrwt beam="1">  1        3 0.40345377E-02 0.91048562E+02</pdfrwt>
<pdfrwt beam="2">  1       -3 0.15492508E-01 0.91048562E+02</pdfrwt>
<totfact> 0.22903373E+04</totfact>
</mgrwt>
</event>
<event>
 6    1  0.1661841E-002  0.9237013E+02  0.7546771E-02  0.1416376E+00
          2   -1    0    0  501    0  0.00000000000E+00  0.00000000000E+00  0.11843258575E+02  0.11843258575E+02  0.00000000000E+00 0. -1.
         -2   -1    0    0    0  501 -0.00000000000E+00 -0.00000000000E+00 -0.24704437331E+03  0.24704437331E+03  0.00000000000E+00 0.  1.
         23    2    1    2    0    0 -0.21585337980E+01  0.12105682441E+02 -0.22382406550E+03  0.24213519729E+03  0.91547990988E+02 0.  0.
         13    1    3    3    0    0 -0.38982294581E+01  0.27202320450E+02 -0.12370414110E+02  0.30136183833E+02  0.00000000000E+00 0. -1.
        -13    1    3    3    0    0  0.17396956600E+01 -0.15096638009E+02 -0.21145365139E+03  0.21199901346E+03  0.00000000000E+00 0.  1.
         22    1    1    2    0    0  0.21585337980E+01 -0.12105682441E+02 -0.11377049230E+02  0.16752434590E+02  0.00000000000E+00 0.  1.
<mgrwt>
<rscale>  0 0.55794976E+02</rscale>
<asrwt>0</asrwt>
<pdfrwt beam="1">  1        2 0.18220398E-02 0.92370133E+02</pdfrwt>
<pdfrwt beam="2">  1       -2 0.38006827E-01 0.92370133E+02</pdfrwt>
<totfact> 0.35580580E+04</totfact>
</mgrwt>
</event>
<event>
 6    1  0.1661841E-002  0.9355160E+02  0.7546771E-02  0.1384021E+00
          1   -1    0    0  501    0  0.00000000000E+00  0.00000000000E+00  0.35583450180E+03  0.35583450180E+03  0.00000000000E+00 0. -1.
         -1   -1    0    0    0  501 -0.00000000000E+00 -0.00000000000E+00 -0.90272598303E+01  0.90272598303E+01  0.00000000000E+00 0.  1.
         23    2    1    2    0    0  0.19756037246E+02 -0.15631651858E+00  0.28236967830E+03  0.29746350457E+03  0.91441652915E+02 0.  0.
         11    1    3    3    0    0  0.49996155035E+02  0.23097873485E+02  0.17892217976E+03  0.18720650013E+03  0.00000000000E+00 0. -1.
        -11    1    3    3    0    0 -0.30240117789E+02 -0.23254190003E+02  0.10344749853E+03  0.11025700444E+03  0.00000000000E+00 0.  1.
         22    1    1    2    0    0 -0.19756037246E+02  0.15631651858E+00  0.64437563675E+02  0.67398257061E+02  0.00000000000E+00 0. -1.
<mgrwt>
<rscale>  0 0.63418616E+02</rscale>
<asrwt>0</asrwt>
<pdfrwt beam="1">  1        1 0.54743759E-01 0.93551597E+02</pdfrwt>
<pdfrwt beam="2">  1       -1 0.13888095E-02 0.93551597E+02</pdfrwt>
<totfact> 0.71726713E+04</totfact>
</mgrwt>
</event>
<event>
 6    1  0.1661841E-002  0.9239178E+02  0.7546771E-02  0.1377851E+00
         -2   -1    0    0    0  501 -0.00000000000E+00  0.00000000000E+00  0.28476519018E+02  0.28476519018E+02  0.00000000000E+00 0.  1.
          2   -1    0    0  501    0  0.00000000000E+00 -0.00000000000E+00 -0.12122478750E+03  0.12122478750E+03  0.00000000000E+00 0. -1.
         23    2    1    2    0    0  0.22645078827E+02  0.12260455322E+01 -0.85526788803E+02  0.12590104283E+03  0.89565273409E+02 0.  0.
         11    1    3    3    0    0  0.25506136306E+02 -0.35356227282E+02 -0.14479999625E+02  0.45937960186E+02  0.00000000000E+00 0.  1.
        -11    1    3    3    0    0 -0.28610574789E+01  0.36582272814E+02 -0.71046789177E+02  0.79963082648E+02  0.00000000000E+00 0. -1.
         22    1    1    2    0    0 -0.22645078827E+02 -0.12260455322E+01 -0.72214796792E+01  0.23800263686E+02  0.00000000000E+00 0. -1.
<mgrwt>
<rscale>  0 0.65032037E+02</rscale>
<asrwt>0</asrwt>
<pdfrwt beam="1">  1        2 0.18649967E-01 0.92391780E+02</pdfrwt>
<pdfrwt beam="2">  1       -2 0.43810030E-02 0.92391780E+02</pdfrwt>
<totfact> 0.62186744E+04</totfact>
</mgrwt>
</event>
<event>
 6    1  0.1661841E-002  0.9727278E+02  0.7546771E-02  0.1350697E+00
         -2   -1    0    0    0  501 -0.00000000000E+00  0.00000000000E+00  0.15706517852E+03  0.15706517852E+03  0.00000000000E+00 0.  1.
          2   -1    0    0  501    0  0.00000000000E+00 -0.00000000000E+00 -0.51380634056E+02  0.51380634056E+02  0.00000000000E+00 0. -1.
         23    2    1    2    0    0 -0.17996296362E+02 -0.24727442373E+02  0.13479206073E+03  0.16622543133E+03  0.92340030830E+02 0.  0.
         11    1    3    3    0    0  0.15510004503E+02  0.21062632565E+02  0.80588220364E+01  0.27370409987E+02  0.00000000000E+00 0. -1.
        -11    1    3    3    0    0 -0.33506300866E+02 -0.45790074937E+02  0.12673323870E+03  0.13885502134E+03  0.00000000000E+00 0.  1.
         22    1    1    2    0    0  0.17996296362E+02  0.24727442373E+02 -0.29107516273E+02  0.42220381247E+02  0.00000000000E+00 0. -1.
<mgrwt>
<rscale>  0 0.72838859E+02</rscale>
<asrwt>0</asrwt>
<pdfrwt beam="1">  1        2 0.79047130E-02 0.97272783E+02</pdfrwt>
<pdfrwt beam="2">  1       -2 0.24163873E-01 0.97272783E+02</pdfrwt>
<totfact> 0.11793875E+04</totfact>
</mgrwt>
</event>
<event>
 6    1  0.1661841E-002  0.9093334E+02  0.7546771E-02  0.1391768E+00
         -2   -1    0    0    0  501 -0.00000000000E+00  0.00000000000E+00  0.11088457193E+02  0.11088457193E+02  0.00000000000E+00 0.  1.
          2   -1    0    0  501    0  0.00000000000E+00 -0.00000000000E+00 -0.27245246955E+03  0.27245246955E+03  0.00000000000E+00 0. -1.
         23    2    1    2    0    0  0.15808976354E+02  0.10515871568E+02 -0.21752057883E+03  0.23576275232E+03  0.88928993452E+02 0.  0.
         13    1    3    3    0    0  0.51571933469E+02  0.70063222486E+01 -0.15672933412E+03  0.16514489713E+03  0.00000000000E+00 0.  1.
        -13    1    3    3    0    0 -0.35762957115E+02  0.35095493191E+01 -0.60791244712E+02  0.70617855191E+02  0.00000000000E+00 0. -1.
         22    1    1    2    0    0 -0.15808976354E+02 -0.10515871568E+02 -0.43843433521E+02  0.47778174422E+02  0.00000000000E+00 0. -1.
<mgrwt>
<rscale>  0 0.61469068E+02</rscale>
<asrwt>0</asrwt>
<pdfrwt beam="1">  1        2 0.41915761E-01 0.90933345E+02</pdfrwt>
<pdfrwt beam="2">  1       -2 0.17059166E-02 0.90933345E+02</pdfrwt>
<totfact> 0.10166764E+05</totfact>
</mgrwt>
</event>
<event>
 6    1  0.1661841E-002  0.1002343E+03  0.7546771E-02  0.1397010E+00
          2   -1    0    0  501    0  0.00000000000E+00  0.00000000000E+00  0.18028058129E+02  0.18028058129E+02  0.00000000000E+00 0. -1.
         -2   -1    0    0    0  501 -0.00000000000E+00 -0.00000000000E+00 -0.20088071702E+03  0.20088071702E+03  0.00000000000E+00 0.  1.
         23    2    1    2    0    0 -0.11240097504E+02  0.66080095526E+01 -0.17926649306E+03  0.20538597339E+03  0.99382679308E+02 0.  0.
         13    1    3    3    0    0  0.12443131272E+02  0.42736220662E+02 -0.14036296182E+03  0.14725140788E+03  0.00000000000E+00 0.  1.
        -13    1    3    3    0    0 -0.23683228776E+02 -0.36128211109E+02 -0.38903531244E+02  0.58134565505E+02  0.00000000000E+00 0. -1.
         22    1    1    2    0    0  0.11240097504E+02 -0.66080095526E+01 -0.35861658275E+01  0.13522801762E+02  0.00000000000E+00 0. -1.
<mgrwt>
<rscale>  0 0.60196369E+02</rscale>
<asrwt>0</asrwt>
<pdfrwt beam="1">  1        2 0.27735475E-02 0.10023434E+03</pdfrwt>
<pdfrwt beam="2">  1       -2 0.30904725E-01 0.10023434E+03</pdfrwt>
<totfact> 0.29833231E+04</totfact>
</mgrwt>
</event>
<event>
 6    1  0.1661841E-002  0.9926044E+02  0.7546771E-02  0.1364522E+00
          4   -1    0    0  501    0  0.00000000000E+00  0.00000000000E+00  0.23666461572E+03  0.23666461572E+03  0.00000000000E+00 0. -1.
         -4   -1    0    0    0  501 -0.00000000000E+00 -0.00000000000E+00 -0.18925653941E+02  0.18925653941E+02  0.00000000000E+00 0.  1.
         23    2    1    2    0    0 -0.12852497612E+02 -0.18826767427E+02  0.12252946320E+03  0.15768989946E+03  0.96607459194E+02 0.  0.
         13    1    3    3    0    0 -0.50507867748E+02 -0.21585914074E+02  0.98957653850E+02  0.11317956373E+03  0.00000000000E+00 0. -1.
        -13    1    3    3    0    0  0.37655370137E+02  0.27591466477E+01  0.23571809352E+02  0.44510335726E+02  0.00000000000E+00 0.  1.
         22    1    1    2    0    0  0.12852497612E+02  0.18826767427E+02  0.95209498574E+02  0.97900370200E+02  0.00000000000E+00 0. -1.
<mgrwt>
<rscale>  0 0.68713857E+02</rscale>
<asrwt>0</asrwt>
<pdfrwt beam="1">  1        4 0.36409939E-01 0.99260440E+02</pdfrwt>
<pdfrwt beam="2">  1       -4 0.29116392E-02 0.99260440E+02</pdfrwt>
<totfact> 0.62201199E+03</totfact>
</mgrwt>
</event>
<event>
 6    1  0.1661841E-002  0.9348235E+02  0.7546771E-02  0.1385351E+00
          2   -1    0    0  501    0  0.00000000000E+00  0.00000000000E+00  0.73501734574E+02  0.73501734574E+02  0.00000000000E+00 0. -1.
         -2   -1    0    0    0  501 -0.00000000000E+00 -0.00000000000E+00 -0.58489267930E+02  0.58489267930E+02  0.00000000000E+00 0.  1.
         23    2    1    2    0    0 -0.15846428028E+02 -0.11154326902E+02 -0.16567775038E+02  0.94939147563E+02  0.91451748373E+02 0.  0.
         13    1    3    3    0    0  0.33749424379E+02  0.87521746891E+01  0.85351627593E+01  0.35895309039E+02  0.00000000000E+00 0. -1.
        -13    1    3    3    0    0 -0.49595852407E+02 -0.19906501591E+02 -0.25102937797E+02  0.59043838524E+02  0.00000000000E+00 0.  1.
         22    1    1    2    0    0  0.15846428028E+02  0.11154326902E+02  0.31580241682E+02  0.37051854941E+02  0.00000000000E+00 0. -1.
<mgrwt>
<rscale>  0 0.63077949E+02</rscale>
<asrwt>0</asrwt>
<pdfrwt beam="1">  1        2 0.11307959E-01 0.93482354E+02</pdfrwt>
<pdfrwt beam="2">  1       -2 0.89983489E-02 0.93482354E+02</pdfrwt>
<totfact> 0.37655601E+04</totfact>
</mgrwt>
</event>
<event>
 6    1  0.1661841E-002  0.9206674E+02  0.7546771E-02  0.1411596E+00
          2   -1    0    0  501    0  0.00000000000E+00  0.00000000000E+00  0.10567241115E+02  0.10567241115E+02  0.00000000000E+00 0. -1.
         -2   -1    0    0    0  501 -0.00000000000E+00 -0.00000000000E+00 -0.27106373848E+03  0.27106373848E+03  0.00000000000E+00 0.  1.
         23    2    1    2    0    0 -0.10247155093E+02  0.85952039790E+01 -0.24100836221E+03  0.25799479694E+03  0.91090081079E+02 0.  0.
         11    1    3    3    0    0 -0.40874765517E+02  0.28100656959E+02 -0.18261922035E+03  0.18923576042E+03  0.00000000000E+00 0.  1.
        -11    1    3    3    0    0  0.30627610424E+02 -0.19505452980E+02 -0.58389141860E+02  0.68759036522E+02  0.00000000000E+00 0. -1.
         22    1    1    2    0    0  0.10247155093E+02 -0.85952039790E+01 -0.19488135151E+02  0.23636182657E+02  0.00000000000E+00 0. -1.
<mgrwt>
<rscale>  0 0.56839182E+02</rscale>
<asrwt>0</asrwt>
<pdfrwt beam="1">  1        2 0.16257296E-02 0.92066740E+02</pdfrwt>
<pdfrwt beam="2">  1       -2 0.41702108E-01 0.92066740E+02</pdfrwt>
<totfact> 0.34874532E+04</totfact>
</mgrwt>
</event>
<event>
 6    1  0.1661841E-002  0.9212196E+02  0.7546771E-02  0.1407381E+00
         -2   -1    0    0    0  501 -0.00000000000E+00  0.00000000000E+00  0.21394348223E+02  0.21394348223E+02  0.00000000000E+00 0.  1.
          2   -1    0    0  501    0  0.00000000000E+00 -0.00000000000E+00 -0.18019327007E+03  0.18019327007E+03  0.00000000000E+00 0. -1.
         23    2    1    2    0    0  0.14107382349E+02  0.20747057354E+01 -0.81544513289E+02  0.12302830133E+03  0.91011717042E+02 0.  0.
         13    1    3    3    0    0 -0.54834360048E+01  0.34269493464E+02 -0.77758197383E+02  0.85151650090E+02  0.00000000000E+00 0. -1.
        -13    1    3    3    0    0  0.19590818354E+02 -0.32194787729E+02 -0.37863159057E+01  0.37876651236E+02  0.00000000000E+00 0.  1.
         22    1    1    2    0    0 -0.14107382349E+02 -0.20747057354E+01 -0.77254408561E+02  0.78559316970E+02  0.00000000000E+00 0.  1.
<mgrwt>
<rscale>  0 0.57782402E+02</rscale>
<asrwt>0</asrwt>
<pdfrwt beam="1">  1        2 0.27722041E-01 0.92121959E+02</pdfrwt>
<pdfrwt beam="2">  1       -2 0.32914382E-02 0.92121959E+02</pdfrwt>
<totfact> 0.61121248E+04</totfact>
</mgrwt>
</event>
<event>
 6    1  0.1661841E-002  0.9975128E+02  0.7546771E-02  0.1375350E+00
          2   -1    0    0  501    0  0.00000000000E+00  0.00000000000E+00  0.13865124080E+03  0.13865124080E+03  0.00000000000E+00 0. -1.
         -2   -1    0    0    0  501 -0.00000000000E+00 -0.00000000000E+00 -0.30333483530E+02  0.30333483530E+02  0.00000000000E+00 0.  1.
         23    2    1    2    0    0 -0.32531522956E+01 -0.18490032075E+02  0.58251691309E+02  0.11551440315E+03  0.97968635336E+02 0.  0.
         11    1    3    3    0    0 -0.43388473621E+02 -0.32103014236E+02  0.47237500667E+02  0.71725481076E+02  0.00000000000E+00 0.  1.
        -11    1    3    3    0    0  0.40135321326E+02  0.13612982162E+02  0.11014190642E+02  0.43788922078E+02  0.00000000000E+00 0. -1.
         22    1    1    2    0    0  0.32531522956E+01  0.18490032075E+02  0.50066065965E+02  0.53470321181E+02  0.00000000000E+00 0. -1.
<mgrwt>
<rscale>  0 0.65701948E+02</rscale>
<asrwt>0</asrwt>
<pdfrwt beam="1">  1        2 0.21330960E-01 0.99751280E+02</pdfrwt>
<pdfrwt beam="2">  1       -2 0.46666898E-02 0.99751280E+02</pdfrwt>
<totfact> 0.49238693E+04</totfact>
</mgrwt>
</event>
<event>
 6    1  0.1661841E-002  0.8828106E+02  0.7546771E-02  0.1416010E+00
         -4   -1    0    0    0  501 -0.00000000000E+00  0.00000000000E+00  0.38514783060E+03  0.38514783060E+03  0.00000000000E+00 0.  1.
          4   -1    0    0  501    0  0.00000000000E+00 -0.00000000000E+00 -0.83212763250E+01  0.83212763250E+01  0.00000000000E+00 0. -1.
         23    2    1    2    0    0 -0.61115931249E+01  0.12779510592E+02  0.36333651170E+03  0.37390769823E+03  0.87137125263E+02 0.  0.
         13    1    3    3    0    0 -0.14779609314E+02  0.27826167891E+02  0.35146104895E+03  0.35287051648E+03  0.00000000000E+00 0.  1.
        -13    1    3    3    0    0  0.86680161894E+01 -0.15046657299E+02  0.11875462754E+02  0.21037181754E+02  0.00000000000E+00 0. -1.
         22    1    1    2    0    0  0.61115931249E+01 -0.12779510592E+02  0.13490042575E+02  0.19561408696E+02  0.00000000000E+00 0. -1.
<mgrwt>
<rscale>  0 0.55874067E+02</rscale>
<asrwt>0</asrwt>
<pdfrwt beam="1">  1        4 0.12801967E-02 0.88281063E+02</pdfrwt>
<pdfrwt beam="2">  1       -4 0.59253498E-01 0.88281063E+02</pdfrwt>
<totfact> 0.79696245E+03</totfact>
</mgrwt>
</event>
<event>
 6    1  0.1661841E-002  0.8657452E+02  0.7546771E-02  0.1437792E+00
         -2   -1    0    0    0  501 -0.00000000000E+00  0.00000000000E+00  0.70101955627E+02  0.70101955627E+02  0.00000000000E+00 0.  1.
          2   -1    0    0  501    0  0.00000000000E+00 -0.00000000000E+00 -0.48492475423E+02  0.48492475423E+02  0.00000000000E+00 0. -1.
         23    2    1    2    0    0 -0.97693365096E+01 -0.45563393264E+01  0.41472104201E+02  0.95995227615E+02  0.85900804037E+02 0.  0.
         13    1    3    3    0    0 -0.34176488940E+02  0.29175951341E+02  0.21199446224E+02  0.49685863715E+02  0.00000000000E+00 0. -1.
        -13    1    3    3    0    0  0.24407152430E+02 -0.33732290667E+02  0.20272657977E+02  0.46309363900E+02  0.00000000000E+00 0.  1.
         22    1    1    2    0    0  0.97693365096E+01  0.45563393264E+01 -0.19862623996E+02  0.22599203435E+02  0.00000000000E+00 0. -1.
<mgrwt>
<rscale>  0 0.51427265E+02</rscale>
<asrwt>0</asrwt>
<pdfrwt beam="1">  1        2 0.74603808E-02 0.86574525E+02</pdfrwt>
<pdfrwt beam="2">  1       -2 0.10784916E-01 0.86574525E+02</pdfrwt>
<totfact> 0.46760228E+04</totfact>
</mgrwt>
</event>
<event>
 6    1  0.1661841E-002  0.9241193E+02  0.7546771E-02  0.1400621E+00
          2   -1    0    0  501    0  0.00000000000E+00  0.00000000000E+00  0.32259538247E+01  0.32259538247E+01  0.00000000000E+00 0. -1.
         -2   -1    0    0    0  501 -0.00000000000E+00 -0.00000000000E+00 -0.13575488296E+04  0.13575488296E+04  0.00000000000E+00 0.  1.
         23    2    1    2    0    0 -0.23809682005E+01  0.15530104164E+02 -0.13175396267E+04  0.13207765265E+04  0.91066524482E+02 0.  0.
         11    1    3    3    0    0  0.13280075449E+02  0.26518626491E+02 -0.12555854634E+04  0.12559356886E+04  0.00000000000E+00 0.  1.
        -11    1    3    3    0    0 -0.15661043650E+02 -0.10988522326E+02 -0.61954163238E+02  0.64840837854E+02  0.00000000000E+00 0. -1.
         22    1    1    2    0    0  0.23809682005E+01 -0.15530104164E+02 -0.36783249133E+02  0.39998256983E+02  0.00000000000E+00 0. -1.
<mgrwt>
<rscale>  0 0.59340454E+02</rscale>
<asrwt>0</asrwt>
<pdfrwt beam="1">  1        2 0.49629949E-03 0.92411931E+02</pdfrwt>
<pdfrwt beam="2">  1       -2 0.20885413E+00 0.92411931E+02</pdfrwt>
<totfact> 0.44660810E+03</totfact>
</mgrwt>
</event>
<event>
 6    1  0.1661841E-002  0.1023867E+03  0.7546771E-02  0.1323030E+00
          1   -1    0    0  501    0  0.00000000000E+00  0.00000000000E+00  0.81124833103E+02  0.81124833103E+02  0.00000000000E+00 0. -1.
         -1   -1    0    0    0  501 -0.00000000000E+00 -0.00000000000E+00 -0.11458694297E+03  0.11458694297E+03  0.00000000000E+00 0.  1.
         23    2    1    2    0    0 -0.10163308009E+02  0.41219485795E+02 -0.82037439713E+02  0.13119897494E+03  0.93170224174E+02 0.  0.
         11    1    3    3    0    0 -0.23068111847E+02  0.51001633475E+01  0.14224607941E+02  0.27576963600E+02  0.00000000000E+00 0. -1.
        -11    1    3    3    0    0  0.12904803837E+02  0.36119322448E+02 -0.96262047654E+02  0.10362201134E+03  0.00000000000E+00 0.  1.
         22    1    1    2    0    0  0.10163308009E+02 -0.41219485795E+02  0.48575329850E+02  0.64512801125E+02  0.00000000000E+00 0. -1.
<mgrwt>
<rscale>  0 0.82160317E+02</rscale>
<asrwt>0</asrwt>
<pdfrwt beam="1">  1        1 0.12480744E-01 0.10238667E+03</pdfrwt>
<pdfrwt beam="2">  1       -1 0.17628761E-01 0.10238667E+03</pdfrwt>
<totfact> 0.10780761E+04</totfact>
</mgrwt>
</event>
<event>
 6    1  0.1661841E-002  0.9603335E+02  0.7546771E-02  0.1351756E+00
          1   -1    0    0  501    0  0.00000000000E+00  0.00000000000E+00  0.55162164508E+02  0.55162164508E+02  0.00000000000E+00 0. -1.
         -1   -1    0    0    0  501 -0.00000000000E+00 -0.00000000000E+00 -0.88863395804E+02  0.88863395804E+02  0.00000000000E+00 0.  1.
         23    2    1    2    0    0  0.29010373940E+02  0.11520693242E+02 -0.50580989431E+02  0.10853958557E+03  0.90818924098E+02 0.  0.
         13    1    3    3    0    0  0.33917042173E+02 -0.34129124916E+02 -0.14831375780E+02  0.50350100544E+02  0.00000000000E+00 0. -1.
        -13    1    3    3    0    0 -0.49066682328E+01  0.45649818158E+02 -0.35749613651E+02  0.58189485023E+02  0.00000000000E+00 0.  1.
         22    1    1    2    0    0 -0.29010373940E+02 -0.11520693242E+02  0.16879758135E+02  0.35485974745E+02  0.00000000000E+00 0.  1.
<mgrwt>
<rscale>  0 0.72511140E+02</rscale>
<asrwt>0</asrwt>
<pdfrwt beam="1">  1        1 0.84864870E-02 0.96033354E+02</pdfrwt>
<pdfrwt beam="2">  1       -1 0.13671291E-01 0.96033354E+02</pdfrwt>
<totfact> 0.26384732E+04</totfact>
</mgrwt>
</event>
<event>
 6    1  0.1661841E-002  0.9431722E+02  0.7546771E-02  0.1382864E+00
         -2   -1    0    0    0  501 -0.00000000000E+00  0.00000000000E+00  0.10851016545E+02  0.10851016545E+02  0.00000000000E+00 0.  1.
          2   -1    0    0  501    0  0.00000000000E+00 -0.00000000000E+00 -0.33142989425E+03  0.33142989425E+03  0.00000000000E+00 0. -1.
         23    2    1    2    0    0 -0.18126354443E+02  0.75730895640E+01 -0.21335891854E+03  0.23327615836E+03  0.92248693899E+02 0.  0.
         13    1    3    3    0    0  0.90921256621E+01 -0.38924601928E+02 -0.10248766906E+03  0.11000688021E+03  0.00000000000E+00 0. -1.
        -13    1    3    3    0    0 -0.27218480105E+02  0.46497691492E+02 -0.11087124948E+03  0.12326927814E+03  0.00000000000E+00 0.  1.
         22    1    1    2    0    0  0.18126354443E+02 -0.75730895640E+01 -0.10721995916E+03  0.10900475244E+03  0.00000000000E+00 0. -1.
<mgrwt>
<rscale>  0 0.63716938E+02</rscale>
<asrwt>0</asrwt>
<pdfrwt beam="1">  1        2 0.50989214E-01 0.94317220E+02</pdfrwt>
<pdfrwt beam="2">  1       -2 0.16693872E-02 0.94317220E+02</pdfrwt>
<totfact> 0.85891230E+04</totfact>
</mgrwt>
</event>
<event>
 6    1  0.1661841E-002  0.8682633E+02  0.7546771E-02  0.1392776E+00
          1   -1    0    0  501    0  0.00000000000E+00  0.00000000000E+00  0.10469901782E+03  0.10469901782E+03  0.00000000000E+00 0. -1.
         -1   -1    0    0    0  501 -0.00000000000E+00 -0.00000000000E+00 -0.12055477924E+03  0.12055477924E+03  0.00000000000E+00 0.  1.
         23    2    1    2    0    0 -0.18775427600E+02 -0.10396452392E+02 -0.10345604708E+03  0.13506281662E+03  0.84132085750E+02 0.  0.
         13    1    3    3    0    0  0.28981268763E+00 -0.20799078267E+02  0.74160278469E+01  0.22083548564E+02  0.00000000000E+00 0. -1.
        -13    1    3    3    0    0 -0.19065240287E+02  0.10402625876E+02 -0.11087207493E+03  0.11297926806E+03  0.00000000000E+00 0.  1.
         22    1    1    2    0    0  0.18775427600E+02  0.10396452392E+02  0.87600285667E+02  0.90190980440E+02  0.00000000000E+00 0. -1.
<mgrwt>
<rscale>  0 0.61221561E+02</rscale>
<asrwt>0</asrwt>
<pdfrwt beam="1">  1        1 0.16107541E-01 0.86826325E+02</pdfrwt>
<pdfrwt beam="2">  1       -1 0.18546889E-01 0.86826325E+02</pdfrwt>
<totfact> 0.70666736E+03</totfact>
</mgrwt>
</event>
<event>
 6    1  0.1661841E-002  0.1004411E+03  0.7546771E-02  0.1387004E+00
         -2   -1    0    0    0  501 -0.00000000000E+00  0.00000000000E+00  0.10647617363E+02  0.10647617363E+02  0.00000000000E+00 0.  1.
          2   -1    0    0  501    0  0.00000000000E+00 -0.00000000000E+00 -0.34401883605E+03  0.34401883605E+03  0.00000000000E+00 0. -1.
         23    2    1    2    0    0  0.13115825076E+02 -0.77049330805E+01 -0.24165642969E+03  0.26169875267E+03  0.99282507402E+02 0.  0.
         13    1    3    3    0    0  0.51964708961E+02  0.52359882114E+01 -0.18196913382E+03  0.18931590587E+03  0.00000000000E+00 0.  1.
        -13    1    3    3    0    0 -0.38848883885E+02 -0.12940921292E+02 -0.59687295863E+02  0.72382846797E+02  0.00000000000E+00 0. -1.
         22    1    1    2    0    0 -0.13115825076E+02  0.77049330805E+01 -0.91714788999E+02  0.92967700747E+02  0.00000000000E+00 0. -1.
<mgrwt>
<rscale>  0 0.62658032E+02</rscale>
<asrwt>0</asrwt>
<pdfrwt beam="1">  1        2 0.52925972E-01 0.10044106E+03</pdfrwt>
<pdfrwt beam="2">  1       -2 0.16380951E-02 0.10044106E+03</pdfrwt>
<totfact> 0.85623721E+04</totfact>
</mgrwt>
</event>
<event>
 6    1  0.1661841E-002  0.9437111E+02  0.7546771E-02  0.1407713E+00
         -4   -1    0    0    0  501 -0.00000000000E+00  0.00000000000E+00  0.35805945717E+02  0.35805945717E+02  0.00000000000E+00 0.  1.
          4   -1    0    0  501    0  0.00000000000E+00 -0.00000000000E+00 -0.11519987399E+03  0.11519987399E+03  0.00000000000E+00 0. -1.
         23    2    1    2    0    0  0.12098051262E+02 -0.52672501191E+01 -0.28723526777E+02  0.98645564209E+02  0.93444098687E+02 0.  0.
         13    1    3    3    0    0  0.96407832545E+01  0.37195458124E+02  0.11495865763E+02  0.40107377581E+02  0.00000000000E+00 0.  1.
        -13    1    3    3    0    0  0.24572680071E+01 -0.42462708243E+02 -0.40219392540E+02  0.58538186628E+02  0.00000000000E+00 0. -1.
         22    1    1    2    0    0 -0.12098051262E+02  0.52672501191E+01 -0.50670401497E+02  0.52360255500E+02  0.00000000000E+00 0. -1.
<mgrwt>
<rscale>  0 0.57707366E+02</rscale>
<asrwt>0</asrwt>
<pdfrwt beam="1">  1        4 0.17723058E-01 0.94371110E+02</pdfrwt>
<pdfrwt beam="2">  1       -4 0.55086070E-02 0.94371110E+02</pdfrwt>
<totfact> 0.84294880E+03</totfact>
</mgrwt>
</event>
<event>
 6    1  0.1661841E-002  0.1077385E+03  0.7546771E-02  0.1300561E+00
         -2   -1    0    0    0  501 -0.00000000000E+00  0.00000000000E+00  0.19921445851E+02  0.19921445851E+02  0.00000000000E+00 0. -1.
          2   -1    0    0  501    0  0.00000000000E+00 -0.00000000000E+00 -0.45311048177E+03  0.45311048177E+03  0.00000000000E+00 0.  1.
         23    2    1    2    0    0 -0.54541589210E+02  0.44178815050E+01 -0.15046005048E+03  0.18505626573E+03  0.92807823306E+02 0.  0.
         13    1    3    3    0    0  0.10500361811E+01  0.30045621255E+02 -0.10385707136E+03  0.10812091936E+03  0.00000000000E+00 0.  1.
        -13    1    3    3    0    0 -0.55591625391E+02 -0.25627739750E+02 -0.46602979118E+02  0.76935346369E+02  0.00000000000E+00 0. -1.
         22    1    1    2    0    0  0.54541589210E+02 -0.44178815050E+01 -0.28272898544E+03  0.28797566189E+03  0.00000000000E+00 0.  1.
<mgrwt>
<rscale>  0 0.90952638E+02</rscale>
<asrwt>0</asrwt>
<pdfrwt beam="1">  1        2 0.69709304E-01 0.10773855E+03</pdfrwt>
<pdfrwt beam="2">  1       -2 0.30648379E-02 0.10773855E+03</pdfrwt>
<totfact> 0.26063720E+04</totfact>
</mgrwt>
</event>
<event>
 6    1  0.1661841E-002  0.9895855E+02  0.7546771E-02  0.1392454E+00
         -1   -1    0    0    0  501 -0.00000000000E+00  0.00000000000E+00  0.99202601971E+01  0.99202601971E+01  0.00000000000E+00 0.  1.
          1   -1    0    0  501    0  0.00000000000E+00 -0.00000000000E+00 -0.32602425399E+03  0.32602425399E+03  0.00000000000E+00 0. -1.
         23    2    1    2    0    0 -0.78725308831E+01  0.12261509306E+02 -0.28195488317E+03  0.29881658522E+03  0.97879896336E+02 0.  0.
         11    1    3    3    0    0 -0.23877432969E+01  0.50745755163E+02 -0.93656651866E+02  0.10654764861E+03  0.00000000000E+00 0.  1.
        -11    1    3    3    0    0 -0.54847875862E+01 -0.38484245857E+02 -0.18829823130E+03  0.19226893661E+03  0.00000000000E+00 0. -1.
         22    1    1    2    0    0  0.78725308831E+01 -0.12261509306E+02 -0.34149110621E+02  0.37127928964E+02  0.00000000000E+00 0.  1.
<mgrwt>
<rscale>  0 0.61300528E+02</rscale>
<asrwt>0</asrwt>
<pdfrwt beam="1">  1        1 0.50157576E-01 0.98958554E+02</pdfrwt>
<pdfrwt beam="2">  1       -1 0.15261939E-02 0.98958554E+02</pdfrwt>
<totfact> 0.70406340E+04</totfact>
</mgrwt>
</event>
<event>
 6    1  0.1661841E-002  0.5949165E+02  0.7546771E-02  0.1476669E+00
          2   -1    0    0  501    0  0.00000000000E+00  0.00000000000E+00  0.70820534137E+02  0.70820534137E+02  0.00000000000E+00 0. -1.
         -2   -1    0    0    0  501 -0.00000000000E+00 -0.00000000000E+00 -0.28109789450E+02  0.28109789450E+02  0.00000000000E+00 0.  1.
         23    2    1    2    0    0 -0.16187339849E+02  0.96418092625E+01  0.88029100097E+01  0.60139400555E+02  0.56429263837E+02 0.  0.
         13    1    3    3    0    0 -0.31913578046E+02  0.55871143118E+01 -0.11284623748E+02  0.34307944316E+02  0.00000000000E+00 0.  1.
        -13    1    3    3    0    0  0.15726238196E+02  0.40546949507E+01  0.20087533758E+02  0.25831456239E+02  0.00000000000E+00 0. -1.
         22    1    1    2    0    0  0.16187339849E+02 -0.96418092625E+01  0.33907834677E+02  0.38790923033E+02  0.00000000000E+00 0. -1.
<mgrwt>
<rscale>  0 0.44629262E+02</rscale>
<asrwt>0</asrwt>
<pdfrwt beam="1">  1        2 0.10895467E-01 0.59491649E+02</pdfrwt>
<pdfrwt beam="2">  1       -2 0.43245830E-02 0.59491649E+02</pdfrwt>
<totfact> 0.10984825E+05</totfact>
</mgrwt>
</event>
<event>
 6    1  0.1661841E-002  0.9146848E+02  0.7546771E-02  0.1414052E+00
         -2   -1    0    0    0  501 -0.00000000000E+00  0.00000000000E+00  0.12481426293E+02  0.12481426293E+02  0.00000000000E+00 0.  1.
          2   -1    0    0  501    0  0.00000000000E+00 -0.00000000000E+00 -0.22372903155E+03  0.22372903155E+03  0.00000000000E+00 0. -1.
         23    2    1    2    0    0 -0.80248614793E+01  0.10389685982E+02 -0.17174774838E+03  0.19458615401E+03  0.90521479665E+02 0.  0.
         13    1    3    3    0    0  0.94712135188E+01  0.22966417904E+02 -0.17124021411E+03  0.17303286152E+03  0.00000000000E+00 0. -1.
        -13    1    3    3    0    0 -0.17496074998E+02 -0.12576731922E+02 -0.50753427421E+00  0.21553292492E+02  0.00000000000E+00 0.  1.
         22    1    1    2    0    0  0.80248614793E+01 -0.10389685982E+02 -0.39499856876E+02  0.41624303836E+02  0.00000000000E+00 0.  1.
<mgrwt>
<rscale>  0 0.56299313E+02</rscale>
<asrwt>0</asrwt>
<pdfrwt beam="1">  1        2 0.34419852E-01 0.91468477E+02</pdfrwt>
<pdfrwt beam="2">  1       -2 0.19202194E-02 0.91468477E+02</pdfrwt>
<totfact> 0.10567280E+05</totfact>
</mgrwt>
</event>
<event>
 6    1  0.1661841E-002  0.9202916E+02  0.7546771E-02  0.1417128E+00
         -2   -1    0    0    0  501 -0.00000000000E+00  0.00000000000E+00  0.72260721475E+02  0.72260721475E+02  0.00000000000E+00 0.  1.
          2   -1    0    0  501    0  0.00000000000E+00 -0.00000000000E+00 -0.80904022910E+02  0.80904022910E+02  0.00000000000E+00 0. -1.
         23    2    1    2    0    0 -0.12265505255E+02  0.77832444927E+00  0.41921665442E+02  0.10112760108E+03  0.91204809406E+02 0.  0.
         13    1    3    3    0    0 -0.17517198793E+02  0.24110435954E+02 -0.19228592900E+02  0.35466944615E+02  0.00000000000E+00 0. -1.
        -13    1    3    3    0    0  0.52516935386E+01 -0.23332111505E+02  0.61150258341E+02  0.65660656465E+02  0.00000000000E+00 0.  1.
         22    1    1    2    0    0  0.12265505255E+02 -0.77832444927E+00 -0.50564966877E+02  0.52037143305E+02  0.00000000000E+00 0. -1.
<mgrwt>
<rscale>  0 0.55633144E+02</rscale>
<asrwt>0</asrwt>
<pdfrwt beam="1">  1        2 0.12446773E-01 0.92029157E+02</pdfrwt>
<pdfrwt beam="2">  1       -2 0.11117034E-01 0.92029157E+02</pdfrwt>
<totfact> 0.24127394E+04</totfact>
</mgrwt>
</event>
<event>
 6    1  0.1661841E-002  0.9208504E+02  0.7546771E-02  0.1403524E+00
         -1   -1    0    0    0  501 -0.00000000000E+00  0.00000000000E+00  0.25905451032E+02  0.25905451032E+02  0.00000000000E+00 0.  1.
          1   -1    0    0  501    0  0.00000000000E+00 -0.00000000000E+00 -0.11157266195E+03  0.11157266195E+03  0.00000000000E+00 0. -1.
         23    2    1    2    0    0 -0.14703800236E+02  0.37240266485E+01 -0.76803431727E+02  0.11991005397E+03  0.90827219503E+02 0.  0.
         11    1    3    3    0    0 -0.48447278864E+02 -0.45437150981E+01 -0.68782668215E+02  0.84254611880E+02  0.00000000000E+00 0. -1.
        -11    1    3    3    0    0  0.33743478628E+02  0.82677417465E+01 -0.80207635123E+01  0.35655442093E+02  0.00000000000E+00 0.  1.
         22    1    1    2    0    0  0.14703800236E+02 -0.37240266485E+01 -0.88637791937E+01  0.17568059012E+02  0.00000000000E+00 0.  1.
<mgrwt>
<rscale>  0 0.58664358E+02</rscale>
<asrwt>0</asrwt>
<pdfrwt beam="1">  1        1 0.17165024E-01 0.92085036E+02</pdfrwt>
<pdfrwt beam="2">  1       -1 0.39854541E-02 0.92085036E+02</pdfrwt>
<totfact> 0.66149127E+04</totfact>
</mgrwt>
</event>
<event>
 6    1  0.1661841E-002  0.9636778E+02  0.7546771E-02  0.1374485E+00
         -2   -1    0    0    0  501 -0.00000000000E+00  0.00000000000E+00  0.10649653556E+03  0.10649653556E+03  0.00000000000E+00 0.  1.
          2   -1    0    0  501    0  0.00000000000E+00 -0.00000000000E+00 -0.34788967335E+02  0.34788967335E+02  0.00000000000E+00 0. -1.
         23    2    1    2    0    0 -0.11475161532E+02 -0.17730432289E+02  0.42700577210E+02  0.10540440635E+03  0.94025007435E+02 0.  0.
         13    1    3    3    0    0  0.12968393404E+02 -0.24129877941E+02 -0.22518734896E+02  0.35461580030E+02  0.00000000000E+00 0. -1.
        -13    1    3    3    0    0 -0.24443554936E+02  0.63994456515E+01  0.65219312105E+02  0.69942826323E+02  0.00000000000E+00 0.  1.
         22    1    1    2    0    0  0.11475161532E+02  0.17730432289E+02  0.29006991015E+02  0.35881096542E+02  0.00000000000E+00 0.  1.
<mgrwt>
<rscale>  0 0.65935841E+02</rscale>
<asrwt>0</asrwt>
<pdfrwt beam="1">  1        2 0.53521489E-02 0.96367783E+02</pdfrwt>
<pdfrwt beam="2">  1       -2 0.16384082E-01 0.96367783E+02</pdfrwt>
<totfact> 0.37045902E+04</totfact>
</mgrwt>
</event>
<event>
 6    1  0.1661841E-002  0.9313741E+02  0.7546771E-02  0.1400843E+00
         -4   -1    0    0    0  501 -0.00000000000E+00  0.00000000000E+00  0.43313421917E+02  0.43313421917E+02  0.00000000000E+00 0.  1.
          4   -1    0    0  501    0  0.00000000000E+00 -0.00000000000E+00 -0.74993189616E+02  0.74993189616E+02  0.00000000000E+00 0. -1.
         23    2    1    2    0    0  0.13348283981E+02 -0.74639253441E+01 -0.12804686234E+02  0.94013493842E+02  0.91873228789E+02 0.  0.
         13    1    3    3    0    0  0.50439954124E+02  0.23245446610E+00 -0.22003505471E+02  0.55030875517E+02  0.00000000000E+00 0. -1.
        -13    1    3    3    0    0 -0.37091670143E+02 -0.76963798102E+01  0.91988192370E+01  0.38982618326E+02  0.00000000000E+00 0.  1.
         22    1    1    2    0    0 -0.13348283981E+02  0.74639253441E+01 -0.18875081466E+02  0.24293117691E+02  0.00000000000E+00 0.  1.
<mgrwt>
<rscale>  0 0.59288279E+02</rscale>
<asrwt>0</asrwt>
<pdfrwt beam="1">  1        4 0.11537414E-01 0.93137409E+02</pdfrwt>
<pdfrwt beam="2">  1       -4 0.66636034E-02 0.93137409E+02</pdfrwt>
<totfact> 0.12950512E+04</totfact>
</mgrwt>
</event>
<event>
 6    1  0.1661841E-002  0.9165205E+02  0.7546771E-02  0.1416371E+00
         -2   -1    0    0    0  501 -0.00000000000E+00  0.00000000000E+00  0.86360103756E+01  0.86360103756E+01  0.00000000000E+00 0.  1.
          2   -1    0    0  501    0  0.00000000000E+00 -0.00000000000E+00 -0.31872680603E+03  0.31872680603E+03  0.00000000000E+00 0. -1.
         23    2    1    2    0    0 -0.51287874016E+01 -0.11496760946E+02 -0.25880019674E+03  0.27454988703E+03  0.90783361152E+02 0.  0.
         11    1    3    3    0    0 -0.47622405271E+02 -0.13971813937E+00 -0.13879899414E+03  0.14674152030E+03  0.00000000000E+00 0.  1.
        -11    1    3    3    0    0  0.42493617869E+02 -0.11357042807E+02 -0.12000120260E+03  0.12780836673E+03  0.00000000000E+00 0. -1.
         22    1    1    2    0    0  0.51287874016E+01  0.11496760946E+02 -0.51290598917E+02  0.52812929380E+02  0.00000000000E+00 0.  1.
<mgrwt>
<rscale>  0 0.55796048E+02</rscale>
<asrwt>0</asrwt>
<pdfrwt beam="1">  1        2 0.49034892E-01 0.91652052E+02</pdfrwt>
<pdfrwt beam="2">  1       -2 0.13286170E-02 0.91652052E+02</pdfrwt>
<totfact> 0.12342145E+05</totfact>
</mgrwt>
</event>
<event>
 6    1  0.1661841E-002  0.9493942E+02  0.7546771E-02  0.1368115E+00
          3   -1    0    0  501    0  0.00000000000E+00  0.00000000000E+00  0.20785991315E+02  0.20785991315E+02  0.00000000000E+00 0. -1.
         -3   -1    0    0    0  501 -0.00000000000E+00 -0.00000000000E+00 -0.32592756070E+03  0.32592756070E+03  0.00000000000E+00 0.  1.
         23    2    1    2    0    0  0.18076920446E+02  0.16595022594E+02 -0.30772618975E+03  0.32203866418E+03  0.91713268049E+02 0.  0.
         11    1    3    3    0    0  0.29741602855E+02 -0.89376344551E+01 -0.28279396441E+03  0.28449406067E+03  0.00000000000E+00 0.  1.
        -11    1    3    3    0    0 -0.11664682409E+02  0.25532657049E+02 -0.24932225339E+02  0.37544603501E+02  0.00000000000E+00 0. -1.
         22    1    1    2    0    0 -0.18076920446E+02 -0.16595022594E+02  0.25846203629E+01  0.24674887844E+02  0.00000000000E+00 0. -1.
<mgrwt>
<rscale>  0 0.67693942E+02</rscale>
<asrwt>0</asrwt>
<pdfrwt beam="1">  1        3 0.31978449E-02 0.94939419E+02</pdfrwt>
<pdfrwt beam="2">  1       -3 0.50142700E-01 0.94939419E+02</pdfrwt>
<totfact> 0.38882827E+03</totfact>
</mgrwt>
</event>
<event>
 6    1  0.1661841E-002  0.9566080E+02  0.7546771E-02  0.1344875E+00
          2   -1    0    0  501    0  0.00000000000E+00  0.00000000000E+00  0.19571415998E+03  0.19571415998E+03  0.00000000000E+00 0. -1.
         -2   -1    0    0    0  501 -0.00000000000E+00 -0.00000000000E+00 -0.35530750262E+02  0.35530750262E+02  0.00000000000E+00 0.  1.
         23    2    1    2    0    0 -0.33382269840E+01 -0.35368148844E+02  0.36214537479E+02  0.10228626960E+03  0.88819696643E+02 0.  0.
         11    1    3    3    0    0 -0.29864888034E+02 -0.49546727838E+02  0.36651340858E+01  0.57967430378E+02  0.00000000000E+00 0.  1.
        -11    1    3    3    0    0  0.26526661050E+02  0.14178578994E+02  0.32549403394E+02  0.44318839222E+02  0.00000000000E+00 0. -1.
         22    1    1    2    0    0  0.33382269840E+01  0.35368148844E+02  0.12396887224E+03  0.12895864064E+03  0.00000000000E+00 0. -1.
<mgrwt>
<rscale>  0 0.74676689E+02</rscale>
<asrwt>0</asrwt>
<pdfrwt beam="1">  1        2 0.30109870E-01 0.95660798E+02</pdfrwt>
<pdfrwt beam="2">  1       -2 0.54662694E-02 0.95660798E+02</pdfrwt>
<totfact> 0.26579853E+04</totfact>
</mgrwt>
</event>
<event>
 6    1  0.1661841E-002  0.9076155E+02  0.7546771E-02  0.1425397E+00
         -4   -1    0    0    0  501 -0.00000000000E+00  0.00000000000E+00  0.26610283786E+03  0.26610283786E+03  0.00000000000E+00 0.  1.
          4   -1    0    0  501    0  0.00000000000E+00 -0.00000000000E+00 -0.26561722220E+02  0.26561722220E+02  0.00000000000E+00 0. -1.
         23    2    1    2    0    0  0.10377619207E+02 -0.44330633808E+01  0.25661814251E+03  0.27219575752E+03  0.90057272439E+02 0.  0.
         11    1    3    3    0    0  0.43992790105E+02  0.19845854938E+02  0.11738609994E+03  0.12692013236E+03  0.00000000000E+00 0.  1.
        -11    1    3    3    0    0 -0.33615170898E+02 -0.24278918318E+02  0.13923204257E+03  0.14527562516E+03  0.00000000000E+00 0. -1.
         22    1    1    2    0    0 -0.10377619207E+02  0.44330633808E+01 -0.17077026869E+02  0.20468802555E+02  0.00000000000E+00 0. -1.
<mgrwt>
<rscale>  0 0.53895194E+02</rscale>
<asrwt>0</asrwt>
<pdfrwt beam="1">  1        4 0.40864190E-02 0.90761552E+02</pdfrwt>
<pdfrwt beam="2">  1       -4 0.40938896E-01 0.90761552E+02</pdfrwt>
<totfact> 0.28444054E+03</totfact>
</mgrwt>
</event>
<event>
 6    1  0.1661841E-002  0.9596018E+02  0.7546771E-02  0.1342969E+00
          2   -1    0    0  501    0  0.00000000000E+00  0.00000000000E+00  0.26176707837E+03  0.26176707837E+03  0.00000000000E+00 0. -1.
         -2   -1    0    0    0  501 -0.00000000000E+00 -0.00000000000E+00 -0.22384950100E+02  0.22384950100E+02  0.00000000000E+00 0.  1.
         23    2    1    2    0    0 -0.36339376650E+02  0.14572910053E+01  0.94145595756E+02  0.13443120704E+03  0.88801363921E+02 0.  0.
         11    1    3    3    0    0  0.22781769351E+02  0.16022533348E+02  0.56100077664E+02  0.62633451953E+02  0.00000000000E+00 0. -1.
        -11    1    3    3    0    0 -0.59121146001E+02 -0.14565242342E+02  0.38045518092E+02  0.71797755090E+02  0.00000000000E+00 0.  1.
         22    1    1    2    0    0  0.36339376650E+02 -0.14572910053E+01  0.14523653251E+03  0.14972082143E+03  0.00000000000E+00 0. -1.
<mgrwt>
<rscale>  0 0.75292184E+02</rscale>
<asrwt>0</asrwt>
<pdfrwt beam="1">  1        2 0.40271856E-01 0.95960180E+02</pdfrwt>
<pdfrwt beam="2">  1       -2 0.34438387E-02 0.95960180E+02</pdfrwt>
<totfact> 0.38677284E+04</totfact>
</mgrwt>
</event>
<event>
 6    1  0.1661841E-002  0.9211144E+02  0.7546771E-02  0.1411722E+00
          2   -1    0    0  501    0  0.00000000000E+00  0.00000000000E+00  0.52440022707E+03  0.52440022707E+03  0.00000000000E+00 0. -1.
         -2   -1    0    0    0  501 -0.00000000000E+00 -0.00000000000E+00 -0.53247161332E+01  0.53247161332E+01  0.00000000000E+00 0.  1.
         23    2    1    2    0    0  0.13254012795E+02 -0.14132873198E+01  0.44058658610E+03  0.45011227111E+03  0.91141925116E+02 0.  0.
         11    1    3    3    0    0  0.70099513667E+01 -0.65567517544E+01  0.14820529131E+00  0.95996029366E+01  0.00000000000E+00 0.  1.
        -11    1    3    3    0    0  0.62440614286E+01  0.51434644346E+01  0.44043838081E+03  0.44051266817E+03  0.00000000000E+00 0. -1.
         22    1    1    2    0    0 -0.13254012795E+02  0.14132873198E+01  0.78488924839E+02  0.79612672098E+02  0.00000000000E+00 0. -1.
<mgrwt>
<rscale>  0 0.56811438E+02</rscale>
<asrwt>0</asrwt>
<pdfrwt beam="1">  1        2 0.80676917E-01 0.92111437E+02</pdfrwt>
<pdfrwt beam="2">  1       -2 0.81918751E-03 0.92111437E+02</pdfrwt>
<totfact> 0.14460080E+05</totfact>
</mgrwt>
</event>
<event>
 6    1  0.1661841E-002  0.9345647E+02  0.7546771E-02  0.1384286E+00
          2   -1    0    0  501    0  0.00000000000E+00  0.00000000000E+00  0.92829029175E+01  0.92829029175E+01  0.00000000000E+00 0. -1.
         -2   -1    0    0    0  501 -0.00000000000E+00 -0.00000000000E+00 -0.41710844372E+03  0.41710844372E+03  0.00000000000E+00 0.  1.
         23    2    1    2    0    0 -0.74929356148E+01 -0.18253920040E+02 -0.38517825769E+03  0.39635388481E+03  0.91349669526E+02 0.  0.
         11    1    3    3    0    0 -0.22921730261E+02 -0.51302172430E+02 -0.20767797131E+03  0.21514520301E+03  0.00000000000E+00 0.  1.
        -11    1    3    3    0    0  0.15428794646E+02  0.33048252390E+02 -0.17750028638E+03  0.18120868179E+03  0.00000000000E+00 0. -1.
         22    1    1    2    0    0  0.74929356148E+01  0.18253920040E+02 -0.22647283114E+02  0.30037461833E+02  0.00000000000E+00 0. -1.
<mgrwt>
<rscale>  0 0.63350421E+02</rscale>
<asrwt>0</asrwt>
<pdfrwt beam="1">  1        2 0.14281390E-02 0.93456470E+02</pdfrwt>
<pdfrwt beam="2">  1       -2 0.64170524E-01 0.93456470E+02</pdfrwt>
<totfact> 0.17770487E+04</totfact>
</mgrwt>
</event>
<event>
 6    1  0.1661841E-002  0.9515110E+02  0.7546771E-02  0.1366051E+00
         -2   -1    0    0    0  501 -0.00000000000E+00  0.00000000000E+00  0.10810566155E+03  0.10810566155E+03  0.00000000000E+00 0.  1.
          2   -1    0    0  501    0  0.00000000000E+00 -0.00000000000E+00 -0.60755909970E+02  0.60755909970E+02  0.00000000000E+00 0. -1.
         23    2    1    2    0    0 -0.25149090792E+02  0.19822035624E+01  0.82267518218E+02  0.12578424192E+03  0.91745981180E+02 0.  0.
         13    1    3    3    0    0 -0.26707415647E+02  0.14346460557E+02 -0.10575651625E+02  0.32108431733E+02  0.00000000000E+00 0. -1.
        -13    1    3    3    0    0  0.15583248553E+01 -0.12364256994E+02  0.92843169843E+02  0.93675810185E+02  0.00000000000E+00 0.  1.
         22    1    1    2    0    0  0.25149090792E+02 -0.19822035624E+01 -0.34917766638E+02  0.43077329602E+02  0.00000000000E+00 0. -1.
<mgrwt>
<rscale>  0 0.68277423E+02</rscale>
<asrwt>0</asrwt>
<pdfrwt beam="1">  1        2 0.93470631E-02 0.95151095E+02</pdfrwt>
<pdfrwt beam="2">  1       -2 0.16631640E-01 0.95151095E+02</pdfrwt>
<totfact> 0.17921441E+04</totfact>
</mgrwt>
</event>
<event>
 6    1  0.1661841E-002  0.9332993E+02  0.7546771E-02  0.1390753E+00
          1   -1    0    0  501    0  0.00000000000E+00  0.00000000000E+00  0.70997274885E+01  0.70997274885E+01  0.00000000000E+00 0. -1.
         -1   -1    0    0    0  501 -0.00000000000E+00 -0.00000000000E+00 -0.47271473150E+03  0.47271473150E+03  0.00000000000E+00 0.  1.
         23    2    1    2    0    0 -0.32993326053E+01 -0.17542424422E+02 -0.42957091328E+03  0.43959259022E+03  0.91607060831E+02 0.  0.
         13    1    3    3    0    0 -0.16645059109E+02  0.68454548209E+01 -0.13261313621E+02  0.22355775169E+02  0.00000000000E+00 0. -1.
        -13    1    3    3    0    0  0.13345726504E+02 -0.24387879243E+02 -0.41630959966E+03  0.41723681506E+03  0.00000000000E+00 0.  1.
         22    1    1    2    0    0  0.32993326053E+01  0.17542424422E+02 -0.36044090737E+02  0.40221868769E+02  0.00000000000E+00 0.  1.
<mgrwt>
<rscale>  0 0.61719901E+02</rscale>
<asrwt>0</asrwt>
<pdfrwt beam="1">  1        1 0.10922661E-02 0.93329930E+02</pdfrwt>
<pdfrwt beam="2">  1       -1 0.72725323E-01 0.93329930E+02</pdfrwt>
<totfact> 0.25117820E+04</totfact>
</mgrwt>
</event>
<event>
 6    1  0.1661841E-002  0.9439409E+02  0.7546771E-02  0.1391293E+00
         -2   -1    0    0    0  501 -0.00000000000E+00  0.00000000000E+00  0.54914715425E+01  0.54914715425E+01  0.00000000000E+00 0.  1.
          2   -1    0    0  501    0  0.00000000000E+00 -0.00000000000E+00 -0.56618996294E+03  0.56618996294E+03  0.00000000000E+00 0. -1.
         23    2    1    2    0    0 -0.82078531647E+01  0.15006108414E+02 -0.47047392329E+03  0.47984993208E+03  0.92831528470E+02 0.  0.
         13    1    3    3    0    0  0.31185580492E+01 -0.77985677772E+01 -0.44024946008E+03  0.44032956994E+03  0.00000000000E+00 0. -1.
        -13    1    3    3    0    0 -0.11326411214E+02  0.22804676191E+02 -0.30224463205E+02  0.39520362134E+02  0.00000000000E+00 0.  1.
         22    1    1    2    0    0  0.82078531647E+01 -0.15006108414E+02 -0.90224568106E+02  0.91831502401E+02  0.00000000000E+00 0. -1.
<mgrwt>
<rscale>  0 0.61586287E+02</rscale>
<asrwt>0</asrwt>
<pdfrwt beam="1">  1        2 0.87106202E-01 0.94394093E+02</pdfrwt>
<pdfrwt beam="2">  1       -2 0.84484125E-03 0.94394093E+02</pdfrwt>
<totfact> 0.12772954E+05</totfact>
</mgrwt>
</event>
<event>
 6    1  0.1661841E-002  0.9005762E+02  0.7546771E-02  0.1430517E+00
         -2   -1    0    0    0  501 -0.00000000000E+00  0.00000000000E+00  0.10846741818E+02  0.10846741818E+02  0.00000000000E+00 0. -1.
          2   -1    0    0  501    0  0.00000000000E+00 -0.00000000000E+00 -0.23525209718E+03  0.23525209718E+03  0.00000000000E+00 0.  1.
         23    2    1    2    0    0 -0.89863394281E+01 -0.57830525631E+01 -0.19438800539E+03  0.21423601908E+03  0.89421346680E+02 0.  0.
         11    1    3    3    0    0 -0.11795360423E+02 -0.27611403269E+02 -0.15111464894E+02  0.33613635466E+02  0.00000000000E+00 0. -1.
        -11    1    3    3    0    0  0.28090209945E+01  0.21828350706E+02 -0.17927654049E+03  0.18062238362E+03  0.00000000000E+00 0.  1.
         22    1    1    2    0    0  0.89863394281E+01  0.57830525631E+01 -0.30017349973E+02  0.31862819911E+02  0.00000000000E+00 0.  1.
<mgrwt>
<rscale>  0 0.52856410E+02</rscale>
<asrwt>0</asrwt>
<pdfrwt beam="1">  1        2 0.36192627E-01 0.90057622E+02</pdfrwt>
<pdfrwt beam="2">  1       -2 0.16687297E-02 0.90057622E+02</pdfrwt>
<totfact> 0.12223010E+05</totfact>
</mgrwt>
</event>
<event>
 6    1  0.1661841E-002  0.9236062E+02  0.7546771E-02  0.1407319E+00
          4   -1    0    0  501    0  0.00000000000E+00  0.00000000000E+00  0.34122699999E+02  0.34122699999E+02  0.00000000000E+00 0. -1.
         -4   -1    0    0    0  501 -0.00000000000E+00 -0.00000000000E+00 -0.85549531358E+02  0.85549531358E+02  0.00000000000E+00 0.  1.
         23    2    1    2    0    0 -0.33137997485E+01  0.13769531567E+02 -0.50994002890E+02  0.10550294737E+03  0.91268298460E+02 0.  0.
         13    1    3    3    0    0 -0.52863283119E+01 -0.39092511591E+02 -0.20893201267E+02  0.44639619047E+02  0.00000000000E+00 0.  1.
        -13    1    3    3    0    0  0.19725285633E+01  0.52862043157E+02 -0.30100801623E+02  0.60863328319E+02  0.00000000000E+00 0. -1.
         22    1    1    2    0    0  0.33137997485E+01 -0.13769531567E+02 -0.43282846877E+00  0.14169283991E+02  0.00000000000E+00 0.  1.
<mgrwt>
<rscale>  0 0.57796484E+02</rscale>
<asrwt>0</asrwt>
<pdfrwt beam="1">  1        4 0.52496461E-02 0.92360617E+02</pdfrwt>
<pdfrwt beam="2">  1       -4 0.13161466E-01 0.92360617E+02</pdfrwt>
<totfact> 0.15161835E+04</totfact>
</mgrwt>
</event>
<event>
 6    1  0.1661841E-002  0.9707937E+02  0.7546771E-02  0.1396435E+00
          2   -1    0    0  501    0  0.00000000000E+00  0.00000000000E+00  0.15225684834E+03  0.15225684834E+03  0.00000000000E+00 0. -1.
         -2   -1    0    0    0  501 -0.00000000000E+00 -0.00000000000E+00 -0.20504707418E+02  0.20504707418E+02  0.00000000000E+00 0.  1.
         23    2    1    2    0    0 -0.12582316262E+01  0.14428681312E+02  0.11112393903E+03  0.14755654228E+03  0.95992881779E+02 0.  0.
         13    1    3    3    0    0  0.29453520716E+01  0.54253980607E+02  0.80599497681E+02  0.97203130284E+02  0.00000000000E+00 0.  1.
        -13    1    3    3    0    0 -0.42035836977E+01 -0.39825299295E+02  0.30524441353E+02  0.50353411997E+02  0.00000000000E+00 0. -1.
         22    1    1    2    0    0  0.12582316262E+01 -0.14428681312E+02  0.20628201887E+02  0.25205013476E+02  0.00000000000E+00 0. -1.
<mgrwt>
<rscale>  0 0.60334139E+02</rscale>
<asrwt>0</asrwt>
<pdfrwt beam="1">  1        2 0.23424130E-01 0.97079366E+02</pdfrwt>
<pdfrwt beam="2">  1       -2 0.31545705E-02 0.97079366E+02</pdfrwt>
<totfact> 0.78696302E+04</totfact>
</mgrwt>
</event>
<event>
 6    1  0.1661841E-002  0.9602312E+02  0.7546771E-02  0.1353799E+00
          1   -1    0    0  501    0  0.00000000000E+00  0.00000000000E+00  0.10877738402E+03  0.10877738402E+03  0.00000000000E+00 0. -1.
         -1   -1    0    0    0  501 -0.00000000000E+00 -0.00000000000E+00 -0.36605937290E+02  0.36605937290E+02  0.00000000000E+00 0.  1.
         23    2    1    2    0    0 -0.13071724291E+02  0.27178775325E+02  0.53741581423E+02  0.11003907511E+03  0.91164053625E+02 0.  0.
         11    1    3    3    0    0 -0.23652249107E+02  0.53434441922E+02  0.56893247538E+02  0.81556790562E+02  0.00000000000E+00 0. -1.
        -11    1    3    3    0    0  0.10580524816E+02 -0.26255666597E+02 -0.31516661147E+01  0.28482284549E+02  0.00000000000E+00 0.  1.
         22    1    1    2    0    0  0.13071724291E+02 -0.27178775325E+02  0.18429865307E+02  0.35344246198E+02  0.00000000000E+00 0.  1.
<mgrwt>
<rscale>  0 0.71884548E+02</rscale>
<asrwt>0</asrwt>
<pdfrwt beam="1">  1        1 0.16734982E-01 0.96023125E+02</pdfrwt>
<pdfrwt beam="2">  1       -1 0.56316827E-02 0.96023125E+02</pdfrwt>
<totfact> 0.41444263E+04</totfact>
</mgrwt>
</event>
<event>
 6    1  0.1661841E-002  0.8981072E+02  0.7546771E-02  0.1393409E+00
          2   -1    0    0  501    0  0.00000000000E+00  0.00000000000E+00  0.27227851764E+03  0.27227851764E+03  0.00000000000E+00 0. -1.
         -2   -1    0    0    0  501 -0.00000000000E+00 -0.00000000000E+00 -0.10919560444E+02  0.10919560444E+02  0.00000000000E+00 0.  1.
         23    2    1    2    0    0  0.14019072246E+02  0.13114740744E+02  0.21214270772E+03  0.23037033893E+03  0.87735020426E+02 0.  0.
         11    1    3    3    0    0 -0.27471107954E+02 -0.21029135945E+02  0.10420010453E+03  0.10979320614E+03  0.00000000000E+00 0. -1.
        -11    1    3    3    0    0  0.41490180200E+02  0.34143876689E+02  0.10794260319E+03  0.12057713279E+03  0.00000000000E+00 0.  1.
         22    1    1    2    0    0 -0.14019072246E+02 -0.13114740744E+02  0.49216249479E+02  0.52827739155E+02  0.00000000000E+00 0.  1.
<mgrwt>
<rscale>  0 0.61066825E+02</rscale>
<asrwt>0</asrwt>
<pdfrwt beam="1">  1        2 0.41888998E-01 0.89810716E+02</pdfrwt>
<pdfrwt beam="2">  1       -2 0.16799326E-02 0.89810716E+02</pdfrwt>
<totfact> 0.10379513E+05</totfact>
</mgrwt>
</event>
<event>
 6    1  0.1661841E-002  0.9351964E+02  0.7546771E-02  0.1366620E+00
          2   -1    0    0  501    0  0.00000000000E+00  0.00000000000E+00  0.53552888879E+02  0.53552888879E+02  0.00000000000E+00 0. -1.
         -2   -1    0    0    0  501 -0.00000000000E+00 -0.00000000000E+00 -0.10616764408E+03  0.10616764408E+03  0.00000000000E+00 0.  1.
         23    2    1    2    0    0  0.26140997789E+02  0.30635907971E+01 -0.79023083744E+02  0.12243598964E+03  0.89739547811E+02 0.  0.
         11    1    3    3    0    0  0.51438024975E+02  0.39008499358E+01 -0.82076685627E+02  0.96941577082E+02  0.00000000000E+00 0.  1.
        -11    1    3    3    0    0 -0.25297027186E+02 -0.83725913871E+00  0.30536018835E+01  0.25494412560E+02  0.00000000000E+00 0. -1.
         22    1    1    2    0    0 -0.26140997789E+02 -0.30635907971E+01  0.26408328543E+02  0.37284543317E+02  0.00000000000E+00 0. -1.
<mgrwt>
<rscale>  0 0.68115855E+02</rscale>
<asrwt>0</asrwt>
<pdfrwt beam="1">  1        2 0.82389061E-02 0.93519644E+02</pdfrwt>
<pdfrwt beam="2">  1       -2 0.16333484E-01 0.93519644E+02</pdfrwt>
<totfact> 0.21517738E+04</totfact>
</mgrwt>
</event>
<event>
 6    1  0.1661841E-002  0.8925140E+02  0.7546771E-02  0.1435322E+00
          3   -1    0    0  501    0  0.00000000000E+00  0.00000000000E+00  0.14020938078E+03  0.14020938078E+03  0.00000000000E+00 0. -1.
         -3   -1    0    0    0  501 -0.00000000000E+00 -0.00000000000E+00 -0.23667990039E+02  0.23667990039E+02  0.00000000000E+00 0.  1.
         23    2    1    2    0    0  0.15237372959E+01  0.10095989478E+02  0.62693721548E+02  0.10907023391E+03  0.88665452259E+02 0.  0.
         11    1    3    3    0    0 -0.37886772518E+02  0.26936877237E+00  0.45719124381E+01  0.38162579508E+02  0.00000000000E+00 0.  1.
        -11    1    3    3    0    0  0.39410509814E+02  0.98266207058E+01  0.58121809110E+02  0.70907654400E+02  0.00000000000E+00 0. -1.
         22    1    1    2    0    0 -0.15237372959E+01 -0.10095989478E+02  0.53847669195E+02  0.54807136913E+02  0.00000000000E+00 0. -1.
<mgrwt>
<rscale>  0 0.51906436E+02</rscale>
<asrwt>0</asrwt>
<pdfrwt beam="1">  1        3 0.21570674E-01 0.89251404E+02</pdfrwt>
<pdfrwt beam="2">  1       -3 0.36412293E-02 0.89251404E+02</pdfrwt>
<totfact> 0.15072513E+04</totfact>
</mgrwt>
</event>
<event>
 6    1  0.1661841E-002  0.9099294E+02  0.7546771E-02  0.1402096E+00
         -2   -1    0    0    0  501 -0.00000000000E+00  0.00000000000E+00  0.79300170086E+02  0.79300170086E+02  0.00000000000E+00 0.  1.
          2   -1    0    0  501    0  0.00000000000E+00 -0.00000000000E+00 -0.49077195004E+02  0.49077195004E+02  0.00000000000E+00 0. -1.
         23    2    1    2    0    0  0.34354477906E+00  0.16075186918E+02  0.49250051153E+02  0.10346633779E+03  0.89561073347E+02 0.  0.
         13    1    3    3    0    0  0.19911083422E+02  0.27880681882E+02 -0.13392738944E+02  0.36785175297E+02  0.00000000000E+00 0. -1.
        -13    1    3    3    0    0 -0.19567538643E+02 -0.11805494963E+02  0.62642790097E+02  0.66681162490E+02  0.00000000000E+00 0.  1.
         22    1    1    2    0    0 -0.34354477906E+00 -0.16075186918E+02 -0.19027076071E+02  0.24911027303E+02  0.00000000000E+00 0.  1.
<mgrwt>
<rscale>  0 0.58995594E+02</rscale>
<asrwt>0</asrwt>
<pdfrwt beam="1">  1        2 0.75503377E-02 0.90992942E+02</pdfrwt>
<pdfrwt beam="2">  1       -2 0.12200026E-01 0.90992942E+02</pdfrwt>
<totfact> 0.38211260E+04</totfact>
</mgrwt>
</event>
<event>
 6    1  0.1661841E-002  0.9000056E+02  0.7546771E-02  0.1423076E+00
          1   -1    0    0  501    0  0.00000000000E+00  0.00000000000E+00  0.19556572032E+03  0.19556572032E+03  0.00000000000E+00 0. -1.
         -1   -1    0    0    0  501 -0.00000000000E+00 -0.00000000000E+00 -0.13821617191E+02  0.13821617191E+02  0.00000000000E+00 0.  1.
         23    2    1    2    0    0  0.11389103656E+02  0.37531249653E+01  0.14426633282E+03  0.17003786615E+03  0.89198113826E+02 0.  0.
         13    1    3    3    0    0  0.46585976046E+02  0.58398320940E+01  0.11500175296E+03  0.12421658499E+03  0.00000000000E+00 0. -1.
        -13    1    3    3    0    0 -0.35196872390E+02 -0.20867071287E+01  0.29264579866E+02  0.45821281163E+02  0.00000000000E+00 0.  1.
         22    1    1    2    0    0 -0.11389103656E+02 -0.37531249653E+01  0.37477770306E+02  0.39349471358E+02  0.00000000000E+00 0. -1.
<mgrwt>
<rscale>  0 0.54375452E+02</rscale>
<asrwt>0</asrwt>
<pdfrwt beam="1">  1        1 0.30087032E-01 0.90000562E+02</pdfrwt>
<pdfrwt beam="2">  1       -1 0.21264028E-02 0.90000562E+02</pdfrwt>
<totfact> 0.80905852E+04</totfact>
</mgrwt>
</event>
<event>
 6    1  0.1661841E-002  0.9248843E+02  0.7546771E-02  0.1374340E+00
          1   -1    0    0  501    0  0.00000000000E+00  0.00000000000E+00  0.85774098844E+02  0.85774098844E+02  0.00000000000E+00 0. -1.
         -1   -1    0    0    0  501 -0.00000000000E+00 -0.00000000000E+00 -0.43498487702E+02  0.43498487702E+02  0.00000000000E+00 0.  1.
         23    2    1    2    0    0  0.18355919025E+02  0.15380068250E+02  0.16249024048E+02  0.93904953059E+02  0.89334333623E+02 0.  0.
         13    1    3    3    0    0 -0.89526229294E+00 -0.27628812255E+02  0.33761805323E+02  0.43634988941E+02  0.00000000000E+00 0. -1.
        -13    1    3    3    0    0  0.19251181318E+02  0.43008880505E+02 -0.17512781275E+02  0.50269964118E+02  0.00000000000E+00 0.  1.
         22    1    1    2    0    0 -0.18355919025E+02 -0.15380068250E+02  0.26026587094E+02  0.35367633486E+02  0.00000000000E+00 0. -1.
<mgrwt>
<rscale>  0 0.65975232E+02</rscale>
<asrwt>0</asrwt>
<pdfrwt beam="1">  1        1 0.13196015E-01 0.92488429E+02</pdfrwt>
<pdfrwt beam="2">  1       -1 0.66920750E-02 0.92488429E+02</pdfrwt>
<totfact> 0.43337485E+04</totfact>
</mgrwt>
</event>
<event>
 6    1  0.1661841E-002  0.1041262E+03  0.7546771E-02  0.1316015E+00
          1   -1    0    0  501    0  0.00000000000E+00  0.00000000000E+00  0.15928574621E+03  0.15928574621E+03  0.00000000000E+00 0. -1.
         -1   -1    0    0    0  501 -0.00000000000E+00 -0.00000000000E+00 -0.81855935398E+02  0.81855935398E+02  0.00000000000E+00 0.  1.
         23    2    1    2    0    0  0.44268140638E+02 -0.11573399807E+02 -0.42739280506E+02  0.11255621444E+03  0.93534183335E+02 0.  0.
         13    1    3    3    0    0  0.69703225756E+02 -0.23968381741E+02 -0.20326599452E+02  0.76460405762E+02  0.00000000000E+00 0.  1.
        -13    1    3    3    0    0 -0.25435085117E+02  0.12394981934E+02 -0.22412681054E+02  0.36095808678E+02  0.00000000000E+00 0. -1.
         22    1    1    2    0    0 -0.44268140638E+02  0.11573399807E+02  0.12016909132E+03  0.12858546717E+03  0.00000000000E+00 0. -1.
<mgrwt>
<rscale>  0 0.84777749E+02</rscale>
<asrwt>0</asrwt>
<pdfrwt beam="1">  1        1 0.24505499E-01 0.10412615E+03</pdfrwt>
<pdfrwt beam="2">  1       -1 0.12593221E-01 0.10412615E+03</pdfrwt>
<totfact> 0.77252236E+03</totfact>
</mgrwt>
</event>
<event>
 6    1  0.1661841E-002  0.9732698E+02  0.7546771E-02  0.1343363E+00
         -2   -1    0    0    0  501 -0.00000000000E+00  0.00000000000E+00  0.14787813834E+03  0.14787813834E+03  0.00000000000E+00 0.  1.
          2   -1    0    0  501    0  0.00000000000E+00 -0.00000000000E+00 -0.72318643700E+02  0.72318643700E+02  0.00000000000E+00 0. -1.
         23    2    1    2    0    0  0.27678819712E+02  0.20797553429E+02  0.12587946353E+03  0.15911687897E+03  0.90960906674E+02 0.  0.
         11    1    3    3    0    0 -0.92955479197E+01 -0.24546300024E+02  0.78735593353E+01  0.27402937664E+02  0.00000000000E+00 0. -1.
        -11    1    3    3    0    0  0.36974367632E+02  0.45343853452E+02  0.11800590420E+03  0.13171394130E+03  0.00000000000E+00 0.  1.
         22    1    1    2    0    0 -0.27678819712E+02 -0.20797553429E+02 -0.50319968898E+02  0.61079903071E+02  0.00000000000E+00 0. -1.
<mgrwt>
<rscale>  0 0.75164321E+02</rscale>
<asrwt>0</asrwt>
<pdfrwt beam="1">  1        2 0.11125945E-01 0.97326984E+02</pdfrwt>
<pdfrwt beam="2">  1       -2 0.22750483E-01 0.97326984E+02</pdfrwt>
<totfact> 0.86121798E+03</totfact>
</mgrwt>
</event>
<event>
 6    1  0.1661841E-002  0.9381123E+02  0.7546771E-02  0.1410687E+00
         -1   -1    0    0    0  501 -0.00000000000E+00  0.00000000000E+00  0.25660269612E+03  0.25660269612E+03  0.00000000000E+00 0.  1.
          1   -1    0    0  501    0  0.00000000000E+00 -0.00000000000E+00 -0.61152104362E+02  0.61152104362E+02  0.00000000000E+00 0. -1.
         23    2    1    2    0    0 -0.57158602058E+00 -0.12809922777E+02  0.24722019666E+03  0.26442082609E+03  0.92930763479E+02 0.  0.
         11    1    3    3    0    0 -0.26004155054E+02 -0.27589913616E+02  0.22333245879E+03  0.22652771699E+03  0.00000000000E+00 0.  1.
        -11    1    3    3    0    0  0.25432569034E+02  0.14779990839E+02  0.23887737865E+02  0.37893109099E+02  0.00000000000E+00 0. -1.
         22    1    1    2    0    0  0.57158602058E+00  0.12809922777E+02 -0.51769604906E+02  0.53333974390E+02  0.00000000000E+00 0. -1.
<mgrwt>
<rscale>  0 0.57040818E+02</rscale>
<asrwt>0</asrwt>
<pdfrwt beam="1">  1        1 0.94080162E-02 0.93811234E+02</pdfrwt>
<pdfrwt beam="2">  1       -1 0.39477337E-01 0.93811234E+02</pdfrwt>
<totfact> 0.41156014E+03</totfact>
</mgrwt>
</event>
<event>
 6    1  0.1661841E-002  0.9319076E+02  0.7546771E-02  0.1419666E+00
         -4   -1    0    0    0  501 -0.00000000000E+00  0.00000000000E+00  0.18982377951E+02  0.18982377951E+02  0.00000000000E+00 0.  1.
          4   -1    0    0  501    0  0.00000000000E+00 -0.00000000000E+00 -0.14487140683E+03  0.14487140683E+03  0.00000000000E+00 0. -1.
         23    2    1    2    0    0 -0.98944021698E+01 -0.56260809493E+01 -0.11582465325E+03  0.14866024543E+03  0.92493060769E+02 0.  0.
         11    1    3    3    0    0 -0.31866212550E+02 -0.23153128482E+02 -0.11386534329E+03  0.12048584673E+03  0.00000000000E+00 0. -1.
        -11    1    3    3    0    0  0.21971810380E+02  0.17527047533E+02 -0.19593099625E+01  0.28174398700E+02  0.00000000000E+00 0.  1.
         22    1    1    2    0    0  0.98944021698E+01  0.56260809493E+01 -0.10064375629E+02  0.15193539349E+02  0.00000000000E+00 0. -1.
<mgrwt>
<rscale>  0 0.55091571E+02</rscale>
<asrwt>0</asrwt>
<pdfrwt beam="1">  1        4 0.22287909E-01 0.93190763E+02</pdfrwt>
<pdfrwt beam="2">  1       -4 0.29203658E-02 0.93190763E+02</pdfrwt>
<totfact> 0.15177024E+04</totfact>
</mgrwt>
</event>
<event>
 6    1  0.1661841E-002  0.1238081E+03  0.7546771E-02  0.1255002E+00
          1   -1    0    0  501    0  0.00000000000E+00  0.00000000000E+00  0.26109801950E+03  0.26109801950E+03  0.00000000000E+00 0. -1.
         -1   -1    0    0    0  501 -0.00000000000E+00 -0.00000000000E+00 -0.50891729350E+02  0.50891729350E+02  0.00000000000E+00 0.  1.
         23    2    1    2    0    0  0.86101942892E+02  0.52984551055E+00  0.18438977668E+03  0.22209916161E+03  0.88964164346E+02 0.  0.
         13    1    3    3    0    0  0.40596349581E+02  0.44629881824E+02  0.94572711153E+02  0.11217792851E+03  0.00000000000E+00 0. -1.
        -13    1    3    3    0    0  0.45505593312E+02 -0.44100036313E+02  0.89817065526E+02  0.10992123310E+03  0.00000000000E+00 0.  1.
         22    1    1    2    0    0 -0.86101942892E+02 -0.52984551055E+00  0.25816513467E+02  0.89890587236E+02  0.00000000000E+00 0.  1.
<mgrwt>
<rscale>  0 0.11306212E+03</rscale>
<asrwt>0</asrwt>
<pdfrwt beam="1">  1        1 0.40168925E-01 0.12380811E+03</pdfrwt>
<pdfrwt beam="2">  1       -1 0.78294970E-02 0.12380811E+03</pdfrwt>
<totfact> 0.87475271E+03</totfact>
</mgrwt>
</event>
<event>
 6    1  0.1661841E-002  0.9335453E+02  0.7546771E-02  0.1399833E+00
         -2   -1    0    0    0  501 -0.00000000000E+00  0.00000000000E+00  0.60428587180E+02  0.60428587180E+02  0.00000000000E+00 0.  1.
          2   -1    0    0  501    0  0.00000000000E+00 -0.00000000000E+00 -0.61867768456E+02  0.61867768456E+02  0.00000000000E+00 0. -1.
         23    2    1    2    0    0  0.14225854624E+02 -0.59799404047E+01  0.20397896225E+02  0.95557010454E+02  0.92070263654E+02 0.  0.
         11    1    3    3    0    0  0.68626740219E+01  0.42581120645E+02  0.22291503944E+01  0.43188160896E+02  0.00000000000E+00 0. -1.
        -11    1    3    3    0    0  0.73631806017E+01 -0.48561061050E+02  0.18168745831E+02  0.52368849557E+02  0.00000000000E+00 0.  1.
         22    1    1    2    0    0 -0.14225854624E+02  0.59799404047E+01 -0.21837077501E+02  0.26739345182E+02  0.00000000000E+00 0. -1.
<mgrwt>
<rscale>  0 0.59525680E+02</rscale>
<asrwt>0</asrwt>
<pdfrwt beam="1">  1        2 0.95181182E-02 0.93354529E+02</pdfrwt>
<pdfrwt beam="2">  1       -2 0.92967057E-02 0.93354529E+02</pdfrwt>
<totfact> 0.44082437E+04</totfact>
</mgrwt>
</event>
<event>
 6    1  0.1661841E-002  0.8654531E+02  0.7546771E-02  0.1439898E+00
          1   -1    0    0  501    0  0.00000000000E+00  0.00000000000E+00  0.31041839324E+03  0.31041839324E+03  0.00000000000E+00 0. -1.
         -1   -1    0    0    0  501 -0.00000000000E+00 -0.00000000000E+00 -0.76552875768E+01  0.76552875768E+01  0.00000000000E+00 0.  1.
         23    2    1    2    0    0  0.74590589665E+01  0.73269165736E+01  0.25892505355E+03  0.27300599750E+03  0.85911408113E+02 0.  0.
         13    1    3    3    0    0  0.77914877256E+00 -0.23213626406E+02  0.22748752869E+03  0.22867018877E+03  0.00000000000E+00 0. -1.
        -13    1    3    3    0    0  0.66799101940E+01  0.30540542980E+02  0.31437524867E+02  0.44335808727E+02  0.00000000000E+00 0.  1.
         22    1    1    2    0    0 -0.74590589665E+01 -0.73269165736E+01  0.43838052106E+02  0.45067683317E+02  0.00000000000E+00 0. -1.
<mgrwt>
<rscale>  0 0.51023559E+02</rscale>
<asrwt>0</asrwt>
<pdfrwt beam="1">  1        1 0.47756666E-01 0.86545314E+02</pdfrwt>
<pdfrwt beam="2">  1       -1 0.11777368E-02 0.86545314E+02</pdfrwt>
<totfact> 0.10584918E+05</totfact>
</mgrwt>
</event>
<event>
 6    1  0.1661841E-002  0.1007352E+03  0.7546771E-02  0.1412627E+00
         -2   -1    0    0    0  501 -0.00000000000E+00  0.00000000000E+00  0.48741469737E+02  0.48741469737E+02  0.00000000000E+00 0.  1.
          2   -1    0    0  501    0  0.00000000000E+00 -0.00000000000E+00 -0.63735503560E+02  0.63735503560E+02  0.00000000000E+00 0. -1.
         23    2    1    2    0    0 -0.91482360203E+01  0.41560581680E+01 -0.99256452199E+01  0.10122301378E+03  0.10023281421E+03 0.  0.
         11    1    3    3    0    0  0.34438323340E+02  0.19040890813E+02  0.22092697189E+02  0.45129158052E+02  0.00000000000E+00 0.  1.
        -11    1    3    3    0    0 -0.43586559360E+02 -0.14884832645E+02 -0.32018342409E+02  0.56093855727E+02  0.00000000000E+00 0. -1.
         22    1    1    2    0    0  0.91482360203E+01 -0.41560581680E+01 -0.50683886039E+01  0.11253959517E+02  0.00000000000E+00 0.  1.
<mgrwt>
<rscale>  0 0.56611705E+02</rscale>
<asrwt>0</asrwt>
<pdfrwt beam="1">  1        2 0.98054621E-02 0.10073520E+03</pdfrwt>
<pdfrwt beam="2">  1       -2 0.74986877E-02 0.10073520E+03</pdfrwt>
<totfact> 0.59760262E+04</totfact>
</mgrwt>
</event>
<event>
 6    1  0.1661841E-002  0.1209092E+03  0.7546771E-02  0.1264220E+00
          2   -1    0    0  501    0  0.00000000000E+00  0.00000000000E+00  0.17035174187E+03  0.17035174187E+03  0.00000000000E+00 0.  1.
         -2   -1    0    0    0  501 -0.00000000000E+00 -0.00000000000E+00 -0.65764564593E+02  0.65764564593E+02  0.00000000000E+00 0. -1.
         23    2    1    2    0    0 -0.10948739636E+02 -0.76336226213E+02  0.21589668013E+02  0.12282164253E+03  0.93123293415E+02 0.  0.
         11    1    3    3    0    0 -0.52214455910E+02 -0.46798169485E+02  0.10886618135E+02  0.70957286642E+02  0.00000000000E+00 0. -1.
        -11    1    3    3    0    0  0.41265716274E+02 -0.29538056727E+02  0.10703049878E+02  0.51864355887E+02  0.00000000000E+00 0.  1.
         22    1    1    2    0    0  0.10948739636E+02  0.76336226213E+02  0.82997509263E+02  0.11329466393E+03  0.00000000000E+00 0.  1.
<mgrwt>
<rscale>  0 0.10805197E+03</rscale>
<asrwt>0</asrwt>
<pdfrwt beam="1">  1        2 0.26207960E-01 0.12090923E+03</pdfrwt>
<pdfrwt beam="2">  1       -2 0.10117625E-01 0.12090923E+03</pdfrwt>
<totfact> 0.12336845E+04</totfact>
</mgrwt>
</event>
<event>
 6    1  0.1661841E-002  0.1128193E+03  0.7546771E-02  0.1300658E+00
         -2   -1    0    0    0  501 -0.00000000000E+00  0.00000000000E+00  0.12438133379E+02  0.12438133379E+02  0.00000000000E+00 0.  1.
          2   -1    0    0  501    0  0.00000000000E+00 -0.00000000000E+00 -0.51805169805E+03  0.51805169805E+03  0.00000000000E+00 0. -1.
         23    2    1    2    0    0 -0.43684862814E+02 -0.18830145244E+02 -0.34483228826E+03  0.36281884272E+03  0.10229987292E+03 0.  0.
         11    1    3    3    0    0  0.12901285542E+02 -0.19935680640E+02 -0.25850154985E+03  0.25958991854E+03  0.00000000000E+00 0. -1.
        -11    1    3    3    0    0 -0.56586148356E+02  0.11055353963E+01 -0.86330738401E+02  0.10322892418E+03  0.00000000000E+00 0.  1.
         22    1    1    2    0    0  0.43684862814E+02  0.18830145244E+02 -0.16078127641E+03  0.16767098871E+03  0.00000000000E+00 0.  1.
<mgrwt>
<rscale>  0 0.90912136E+02</rscale>
<asrwt>0</asrwt>
<pdfrwt beam="1">  1        2 0.79700270E-01 0.11281935E+03</pdfrwt>
<pdfrwt beam="2">  1       -2 0.19135588E-02 0.11281935E+03</pdfrwt>
<totfact> 0.44888516E+04</totfact>
</mgrwt>
</event>
<event>
 6    1  0.1661841E-002  0.9378381E+02  0.7546771E-02  0.1360890E+00
         -2   -1    0    0    0  501 -0.00000000000E+00  0.00000000000E+00  0.50445279271E+03  0.50445279271E+03  0.00000000000E+00 0.  1.
          2   -1    0    0  501    0  0.00000000000E+00 -0.00000000000E+00 -0.95280462536E+01  0.95280462536E+01  0.00000000000E+00 0. -1.
         23    2    1    2    0    0 -0.10221166239E+02  0.26840231945E+02  0.45635779581E+03  0.46589466660E+03  0.89277837578E+02 0.  0.
         13    1    3    3    0    0 -0.34526811596E+02 -0.63528089632E+01  0.35159634914E+03  0.35334466408E+03  0.00000000000E+00 0.  1.
        -13    1    3    3    0    0  0.24305645357E+02  0.33193040908E+02  0.10476144666E+03  0.11255000252E+03  0.00000000000E+00 0. -1.
         22    1    1    2    0    0  0.10221166239E+02 -0.26840231945E+02  0.38566950648E+02  0.48086172362E+02  0.00000000000E+00 0.  1.
<mgrwt>
<rscale>  0 0.69766045E+02</rscale>
<asrwt>0</asrwt>
<pdfrwt beam="1">  1        2 0.14658537E-02 0.93783808E+02</pdfrwt>
<pdfrwt beam="2">  1       -2 0.77608101E-01 0.93783808E+02</pdfrwt>
<totfact> 0.11480836E+04</totfact>
</mgrwt>
</event>
<event>
 6    1  0.1661841E-002  0.9239725E+02  0.7546771E-02  0.1404041E+00
          4   -1    0    0  501    0  0.00000000000E+00  0.00000000000E+00  0.31905636115E+02  0.31905636115E+02  0.00000000000E+00 0. -1.
         -4   -1    0    0    0  501 -0.00000000000E+00 -0.00000000000E+00 -0.93545966059E+02  0.93545966059E+02  0.00000000000E+00 0.  1.
         23    2    1    2    0    0 -0.52547329311E+01  0.13935143744E+02 -0.60652501740E+02  0.11052591110E+03  0.91189092598E+02 0.  0.
         11    1    3    3    0    0 -0.20093304665E+02 -0.32609882275E+02 -0.45287395153E+02  0.59313518477E+02  0.00000000000E+00 0. -1.
        -11    1    3    3    0    0  0.14838571734E+02  0.46545026019E+02 -0.15365106587E+02  0.51212392628E+02  0.00000000000E+00 0.  1.
         22    1    1    2    0    0  0.52547329311E+01 -0.13935143744E+02 -0.98782820414E+00  0.14925691070E+02  0.00000000000E+00 0. -1.
<mgrwt>
<rscale>  0 0.58544968E+02</rscale>
<asrwt>0</asrwt>
<pdfrwt beam="1">  1        4 0.49085594E-02 0.92397246E+02</pdfrwt>
<pdfrwt beam="2">  1       -4 0.14391687E-01 0.92397246E+02</pdfrwt>
<totfact> 0.14478058E+04</totfact>
</mgrwt>
</event>
<event>
 6    1  0.2071229E-002  0.1206771E+03  0.7546771E-02  0.1319197E+00
         -4   -1    0    0    0  501 -0.00000000000E+00  0.00000000000E+00  0.53479704931E+02  0.53479704931E+02  0.00000000000E+00 0.  1.
          4   -1    0    0  501    0  0.00000000000E+00 -0.00000000000E+00 -0.10333288990E+03  0.10333288990E+03  0.00000000000E+00 0. -1.
         23    2    1    2    0    0  0.20684327580E+02  0.18518985044E+02 -0.37026741576E+02  0.12622972602E+03  0.11744006951E+03 0.  0.
         11    1    3    3    0    0  0.28661114019E+02  0.32565539975E+02 -0.74057972930E+02  0.85828650258E+02  0.00000000000E+00 0. -1.
        -11    1    3    3    0    0 -0.79767864387E+01 -0.14046554931E+02  0.37031231354E+02  0.40401075764E+02  0.00000000000E+00 0.  1.
         22    1    1    2    0    0 -0.20684327580E+02 -0.18518985044E+02 -0.12826443392E+02  0.30582868809E+02  0.00000000000E+00 0.  1.
<mgrwt>
<rscale>  0 0.83576845E+02</rscale>
<asrwt>0</asrwt>
<pdfrwt beam="1">  1        4 0.15897368E-01 0.12067711E+03</pdfrwt>
<pdfrwt beam="2">  1       -4 0.82276469E-02 0.12067711E+03</pdfrwt>
<totfact> 0.56766920E+03</totfact>
</mgrwt>
</event>
<event>
 6    1  0.1661841E-002  0.9636284E+02  0.7546771E-02  0.1417683E+00
          2   -1    0    0  501    0  0.00000000000E+00  0.00000000000E+00  0.25257171154E+02  0.25257171154E+02  0.00000000000E+00 0. -1.
         -2   -1    0    0    0  501 -0.00000000000E+00 -0.00000000000E+00 -0.13984065244E+03  0.13984065244E+03  0.00000000000E+00 0.  1.
         23    2    1    2    0    0  0.87408515344E+01 -0.60214849382E+01 -0.11940621260E+03  0.15343937156E+03  0.95776491754E+02 0.  0.
         11    1    3    3    0    0  0.88404870147E+01  0.94194175043E+01 -0.13253997677E+03  0.13316803325E+03  0.00000000000E+00 0.  1.
        -11    1    3    3    0    0 -0.99635480281E-01 -0.15440902442E+02  0.13133764178E+02  0.20271338312E+02  0.00000000000E+00 0. -1.
         22    1    1    2    0    0 -0.87408515344E+01  0.60214849382E+01  0.48227313111E+01  0.11658452029E+02  0.00000000000E+00 0.  1.
<mgrwt>
<rscale>  0 0.55514162E+02</rscale>
<asrwt>0</asrwt>
<pdfrwt beam="1">  1        2 0.38857186E-02 0.96362841E+02</pdfrwt>
<pdfrwt beam="2">  1       -2 0.21513947E-01 0.96362841E+02</pdfrwt>
<totfact> 0.35688338E+04</totfact>
</mgrwt>
</event>
<event>
 6    1  0.1661841E-002  0.9315879E+02  0.7546771E-02  0.1401483E+00
          2   -1    0    0  501    0  0.00000000000E+00  0.00000000000E+00  0.14438599285E+03  0.14438599285E+03  0.00000000000E+00 0. -1.
         -2   -1    0    0    0  501 -0.00000000000E+00 -0.00000000000E+00 -0.20683195702E+02  0.20683195702E+02  0.00000000000E+00 0.  1.
         23    2    1    2    0    0  0.12434530614E+02 -0.86180813331E+01  0.97773784597E+02  0.13504915242E+03  0.91922096026E+02 0.  0.
         13    1    3    3    0    0 -0.43680256650E+01 -0.33563758038E+02  0.99323791275E+02  0.10493245930E+03  0.00000000000E+00 0. -1.
        -13    1    3    3    0    0  0.16802556278E+02  0.24945676705E+02 -0.15500066781E+01  0.30116693119E+02  0.00000000000E+00 0.  1.
         22    1    1    2    0    0 -0.12434530614E+02  0.86180813331E+01  0.25929012554E+02  0.30020036134E+02  0.00000000000E+00 0. -1.
<mgrwt>
<rscale>  0 0.59138591E+02</rscale>
<asrwt>0</asrwt>
<pdfrwt beam="1">  1        2 0.22213229E-01 0.93158792E+02</pdfrwt>
<pdfrwt beam="2">  1       -2 0.31820302E-02 0.93158792E+02</pdfrwt>
<totfact> 0.81895878E+04</totfact>
</mgrwt>
</event>
<event>
 6    1  0.1661841E-002  0.8963610E+02  0.7546771E-02  0.1432812E+00
          2   -1    0    0  501    0  0.00000000000E+00  0.00000000000E+00  0.56856301044E+02  0.56856301044E+02  0.00000000000E+00 0. -1.
         -2   -1    0    0    0  501 -0.00000000000E+00 -0.00000000000E+00 -0.49463022364E+02  0.49463022364E+02  0.00000000000E+00 0.  1.
         23    2    1    2    0    0  0.62944892929E+01  0.83641700583E+01 -0.53886118711E+01  0.89797923278E+02  0.89022749626E+02 0.  0.
         11    1    3    3    0    0  0.12639137066E+02  0.17006778066E+02 -0.44476670086E+02  0.49266139162E+02  0.00000000000E+00 0.  1.
        -11    1    3    3    0    0 -0.63446477734E+01 -0.86426080081E+01  0.39088058215E+02  0.40531784116E+02  0.00000000000E+00 0. -1.
         22    1    1    2    0    0 -0.62944892929E+01 -0.83641700583E+01  0.12781890551E+02  0.16521400131E+02  0.00000000000E+00 0. -1.
<mgrwt>
<rscale>  0 0.52399674E+02</rscale>
<asrwt>0</asrwt>
<pdfrwt beam="1">  1        2 0.87471232E-02 0.89636097E+02</pdfrwt>
<pdfrwt beam="2">  1       -2 0.76096958E-02 0.89636097E+02</pdfrwt>
<totfact> 0.66083644E+04</totfact>
</mgrwt>
</event>
<event>
 6    1  0.1661841E-002  0.9536323E+02  0.7546771E-02  0.1359508E+00
         -2   -1    0    0    0  501 -0.00000000000E+00  0.00000000000E+00  0.81674794687E+01  0.81674794687E+01  0.00000000000E+00 0.  1.
          2   -1    0    0  501    0  0.00000000000E+00 -0.00000000000E+00 -0.50833852616E+03  0.50833852616E+03  0.00000000000E+00 0. -1.
         23    2    1    2    0    0  0.25058522262E+02 -0.12400855603E+02 -0.43914475593E+03  0.44937986377E+03  0.91172553641E+02 0.  0.
         11    1    3    3    0    0  0.13907096709E+02  0.34495145975E+02 -0.97532971434E+02  0.10438392094E+03  0.00000000000E+00 0.  1.
        -11    1    3    3    0    0  0.11151425552E+02 -0.46896001578E+02 -0.34161178450E+03  0.34499594282E+03  0.00000000000E+00 0. -1.
         22    1    1    2    0    0 -0.25058522262E+02  0.12400855603E+02 -0.61026290759E+02  0.67126141863E+02  0.00000000000E+00 0.  1.
<mgrwt>
<rscale>  0 0.70172422E+02</rscale>
<asrwt>0</asrwt>
<pdfrwt beam="1">  1        2 0.78205963E-01 0.95363228E+02</pdfrwt>
<pdfrwt beam="2">  1       -2 0.12565347E-02 0.95363228E+02</pdfrwt>
<totfact> 0.81986932E+04</totfact>
</mgrwt>
</event>
<event>
 6    1  0.1661841E-002  0.9408549E+02  0.7546771E-02  0.1378591E+00
          2   -1    0    0  501    0  0.00000000000E+00  0.00000000000E+00  0.47442663698E+03  0.47442663698E+03  0.00000000000E+00 0. -1.
         -2   -1    0    0    0  501 -0.00000000000E+00 -0.00000000000E+00 -0.72225036918E+01  0.72225036918E+01  0.00000000000E+00 0.  1.
         23    2    1    2    0    0 -0.20516267280E+02  0.54084642528E+01  0.34414092618E+03  0.35677031279E+03  0.91661934899E+02 0.  0.
         11    1    3    3    0    0 -0.49461433892E+02 -0.10456936416E+01  0.10821071468E+03  0.11898355218E+03  0.00000000000E+00 0.  1.
        -11    1    3    3    0    0  0.28945166612E+02  0.64541578943E+01  0.23593021150E+03  0.23778676061E+03  0.00000000000E+00 0. -1.
         22    1    1    2    0    0  0.20516267280E+02 -0.54084642528E+01  0.12306320710E+03  0.12487882788E+03  0.00000000000E+00 0.  1.
<mgrwt>
<rscale>  0 0.64835654E+02</rscale>
<asrwt>0</asrwt>
<pdfrwt beam="1">  1        2 0.72988689E-01 0.94085488E+02</pdfrwt>
<pdfrwt beam="2">  1       -2 0.11111548E-02 0.94085488E+02</pdfrwt>
<totfact> 0.10500222E+05</totfact>
</mgrwt>
</event>
<event>
 6    1  0.1661841E-002  0.9759697E+02  0.7546771E-02  0.1338535E+00
         -4   -1    0    0    0  501 -0.00000000000E+00  0.00000000000E+00  0.13711942571E+04  0.13711942571E+04  0.00000000000E+00 0.  1.
          4   -1    0    0  501    0  0.00000000000E+00 -0.00000000000E+00 -0.49018574881E+01  0.49018574881E+01  0.00000000000E+00 0. -1.
         23    2    1    2    0    0 -0.37324941627E+02 -0.24029854837E+00  0.12533833899E+04  0.12571774303E+04  0.90177380958E+02 0.  0.
         11    1    3    3    0    0 -0.45623660782E+02  0.16228369498E+02  0.11943360484E+04  0.11953173114E+04  0.00000000000E+00 0.  1.
        -11    1    3    3    0    0  0.82987191553E+01 -0.16468668047E+02  0.59047341484E+02  0.61860118842E+02  0.00000000000E+00 0. -1.
         22    1    1    2    0    0  0.37324941627E+02  0.24029854837E+00  0.11290900969E+03  0.11891868432E+03  0.00000000000E+00 0. -1.
<mgrwt>
<rscale>  0 0.76750161E+02</rscale>
<asrwt>0</asrwt>
<pdfrwt beam="1">  1        4 0.75413301E-03 0.97596973E+02</pdfrwt>
<pdfrwt beam="2">  1       -4 0.21095266E+00 0.97596973E+02</pdfrwt>
<totfact> 0.87478804E+02</totfact>
</mgrwt>
</event>
<event>
 6    1  0.1661841E-002  0.9666538E+02  0.7546771E-02  0.1370792E+00
         -3   -1    0    0    0  501 -0.00000000000E+00  0.00000000000E+00  0.17703628974E+02  0.17703628974E+02  0.00000000000E+00 0.  1.
          3   -1    0    0  501    0  0.00000000000E+00 -0.00000000000E+00 -0.22543055938E+03  0.22543055938E+03  0.00000000000E+00 0. -1.
         23    2    1    2    0    0 -0.18973790248E+01  0.22158547524E+02 -0.12822198489E+03  0.16057731319E+03  0.94072285112E+02 0.  0.
         13    1    3    3    0    0  0.27024558408E+02  0.22703070916E+02 -0.12679416749E+03  0.13161503370E+03  0.00000000000E+00 0. -1.
        -13    1    3    3    0    0 -0.28921937433E+02 -0.54452339189E+00 -0.14278173981E+01  0.28962279487E+02  0.00000000000E+00 0.  1.
         22    1    1    2    0    0  0.18973790248E+01 -0.22158547524E+02 -0.79504945515E+02  0.82556875164E+02  0.00000000000E+00 0. -1.
<mgrwt>
<rscale>  0 0.66947619E+02</rscale>
<asrwt>0</asrwt>
<pdfrwt beam="1">  1        3 0.34681622E-01 0.96665382E+02</pdfrwt>
<pdfrwt beam="2">  1       -3 0.27236354E-02 0.96665382E+02</pdfrwt>
<totfact> 0.10151047E+04</totfact>
</mgrwt>
</event>
<event>
 6    1  0.1661841E-002  0.9647066E+02  0.7546771E-02  0.1341114E+00
          3   -1    0    0  501    0  0.00000000000E+00  0.00000000000E+00  0.26286971111E+02  0.26286971111E+02  0.00000000000E+00 0. -1.
         -3   -1    0    0    0  501 -0.00000000000E+00 -0.00000000000E+00 -0.19348146088E+03  0.19348146088E+03  0.00000000000E+00 0.  1.
         23    2    1    2    0    0 -0.17827701280E+02  0.32375339179E+02 -0.15151642614E+03  0.17962131255E+03  0.89110038796E+02 0.  0.
         11    1    3    3    0    0  0.22970429644E+01 -0.28088211764E+02 -0.23790167837E+02  0.36880836924E+02  0.00000000000E+00 0. -1.
        -11    1    3    3    0    0 -0.20124744245E+02  0.60463550943E+02 -0.12772625830E+03  0.14274047563E+03  0.00000000000E+00 0.  1.
         22    1    1    2    0    0  0.17827701280E+02 -0.32375339179E+02 -0.15678063631E+02  0.40147119437E+02  0.00000000000E+00 0. -1.
<mgrwt>
<rscale>  0 0.75897481E+02</rscale>
<asrwt>0</asrwt>
<pdfrwt beam="1">  1        3 0.40441494E-02 0.96470662E+02</pdfrwt>
<pdfrwt beam="2">  1       -3 0.29766379E-01 0.96470662E+02</pdfrwt>
<totfact> 0.73240464E+03</totfact>
</mgrwt>
</event>
<event>
 6    1  0.1661841E-002  0.9678168E+02  0.7546771E-02  0.1343835E+00
         -2   -1    0    0    0  501 -0.00000000000E+00  0.00000000000E+00  0.76796898364E+02  0.76796898364E+02  0.00000000000E+00 0.  1.
          2   -1    0    0  501    0  0.00000000000E+00 -0.00000000000E+00 -0.59271749285E+02  0.59271749285E+02  0.00000000000E+00 0. -1.
         23    2    1    2    0    0 -0.32156483757E+02 -0.13627145208E+02  0.25831593887E+02  0.10016968444E+03  0.90260489163E+02 0.  0.
         13    1    3    3    0    0 -0.31874441333E+02 -0.27461367393E+02 -0.24010973159E+02  0.48442063761E+02  0.00000000000E+00 0. -1.
        -13    1    3    3    0    0 -0.28204242401E+00  0.13834222184E+02  0.49842567046E+02  0.51727620679E+02  0.00000000000E+00 0.  1.
         22    1    1    2    0    0  0.32156483757E+02  0.13627145208E+02 -0.83064448082E+01  0.35898963210E+02  0.00000000000E+00 0. -1.
<mgrwt>
<rscale>  0 0.75011565E+02</rscale>
<asrwt>0</asrwt>
<pdfrwt beam="1">  1        2 0.91187306E-02 0.96781684E+02</pdfrwt>
<pdfrwt beam="2">  1       -2 0.11814907E-01 0.96781684E+02</pdfrwt>
<totfact> 0.32084160E+04</totfact>
</mgrwt>
</event>
<event>
 6    1  0.1661841E-002  0.9428246E+02  0.7546771E-02  0.1362249E+00
          2   -1    0    0  501    0  0.00000000000E+00  0.00000000000E+00  0.71157550577E+02  0.71157550577E+02  0.00000000000E+00 0. -1.
         -2   -1    0    0    0  501 -0.00000000000E+00 -0.00000000000E+00 -0.55415686995E+02  0.55415686995E+02  0.00000000000E+00 0.  1.
         23    2    1    2    0    0  0.27606378661E+02  0.11628809865E+01  0.24810432547E+02  0.97492257911E+02  0.90142766512E+02 0.  0.
         13    1    3    3    0    0 -0.12661707271E+02  0.13961612843E+02  0.46371745263E+02  0.50055811081E+02  0.00000000000E+00 0. -1.
        -13    1    3    3    0    0  0.40268085932E+02 -0.12798731857E+02 -0.21561312717E+02  0.47436446830E+02  0.00000000000E+00 0.  1.
         22    1    1    2    0    0 -0.27606378661E+02 -0.11628809865E+01 -0.90685689646E+01  0.29080979660E+02  0.00000000000E+00 0. -1.
<mgrwt>
<rscale>  0 0.69370015E+02</rscale>
<asrwt>0</asrwt>
<pdfrwt beam="1">  1        2 0.10947316E-01 0.94282463E+02</pdfrwt>
<pdfrwt beam="2">  1       -2 0.85254902E-02 0.94282463E+02</pdfrwt>
<totfact> 0.42588064E+04</totfact>
</mgrwt>
</event>
<event>
 6    1  0.1661841E-002  0.1227430E+03  0.7546771E-02  0.1258619E+00
          2   -1    0    0  501    0  0.00000000000E+00  0.00000000000E+00  0.35444334129E+03  0.35444334129E+03  0.00000000000E+00 0.  1.
         -2   -1    0    0    0  501 -0.00000000000E+00 -0.00000000000E+00 -0.45715774706E+02  0.45715774706E+02  0.00000000000E+00 0. -1.
         23    2    1    2    0    0 -0.37928573557E+02  0.73006306922E+02  0.57007231046E+02  0.13533535410E+03  0.91089714760E+02 0.  0.
         11    1    3    3    0    0 -0.47239133604E+02  0.55235526318E+02  0.77782375954E+02  0.10645467167E+03  0.00000000000E+00 0.  1.
        -11    1    3    3    0    0  0.93105600472E+01  0.17770780605E+02 -0.20775144907E+02  0.28880682430E+02  0.00000000000E+00 0. -1.
         22    1    1    2    0    0  0.37928573557E+02 -0.73006306922E+02  0.25172033554E+03  0.26482376190E+03  0.00000000000E+00 0.  1.
<mgrwt>
<rscale>  0 0.11106033E+03</rscale>
<asrwt>0</asrwt>
<pdfrwt beam="1">  1        2 0.54529743E-01 0.12274296E+03</pdfrwt>
<pdfrwt beam="2">  1       -2 0.70331963E-02 0.12274296E+03</pdfrwt>
<totfact> 0.99205465E+03</totfact>
</mgrwt>
</event>
<event>
 6    1  0.1661841E-002  0.9304174E+02  0.7546771E-02  0.1384531E+00
          2   -1    0    0  501    0  0.00000000000E+00  0.00000000000E+00  0.11027746123E+03  0.11027746123E+03  0.00000000000E+00 0. -1.
         -2   -1    0    0    0  501 -0.00000000000E+00 -0.00000000000E+00 -0.49661971972E+02  0.49661971972E+02  0.00000000000E+00 0.  1.
         23    2    1    2    0    0  0.19568374050E+02 -0.37148331264E+01 -0.31909650169E+01  0.93096446620E+02  0.90884788978E+02 0.  0.
         11    1    3    3    0    0 -0.89265449958E+01  0.18320692860E+02 -0.37926779031E+02  0.43055447508E+02  0.00000000000E+00 0.  1.
        -11    1    3    3    0    0  0.28494919045E+02 -0.22035525986E+02  0.34735814014E+02  0.50040999112E+02  0.00000000000E+00 0. -1.
         22    1    1    2    0    0 -0.19568374050E+02  0.37148331264E+01  0.63806454274E+02  0.66842986581E+02  0.00000000000E+00 0. -1.
<mgrwt>
<rscale>  0 0.63287664E+02</rscale>
<asrwt>0</asrwt>
<pdfrwt beam="1">  1        2 0.16965763E-01 0.93041744E+02</pdfrwt>
<pdfrwt beam="2">  1       -2 0.76403034E-02 0.93041744E+02</pdfrwt>
<totfact> 0.30106086E+04</totfact>
</mgrwt>
</event>
<event>
 6    1  0.1661841E-002  0.9323214E+02  0.7546771E-02  0.1377401E+00
          2   -1    0    0  501    0  0.00000000000E+00  0.00000000000E+00  0.15485942514E+03  0.15485942514E+03  0.00000000000E+00 0. -1.
         -2   -1    0    0    0  501 -0.00000000000E+00 -0.00000000000E+00 -0.25494069885E+02  0.25494069885E+02  0.00000000000E+00 0.  1.
         23    2    1    2    0    0  0.12454262900E+02 -0.18418173119E+02  0.68896192734E+02  0.11592634717E+03  0.90542226769E+02 0.  0.
         13    1    3    3    0    0 -0.10757077088E+02  0.32608970269E+02  0.40464785028E+02  0.53070316344E+02  0.00000000000E+00 0.  1.
        -13    1    3    3    0    0  0.23211339988E+02 -0.51027143389E+02  0.28431407706E+02  0.62856030821E+02  0.00000000000E+00 0. -1.
         22    1    1    2    0    0 -0.12454262900E+02  0.18418173119E+02  0.60469162521E+02  0.64427147860E+02  0.00000000000E+00 0.  1.
<mgrwt>
<rscale>  0 0.65151921E+02</rscale>
<asrwt>0</asrwt>
<pdfrwt beam="1">  1        2 0.23824526E-01 0.93232144E+02</pdfrwt>
<pdfrwt beam="2">  1       -2 0.39221647E-02 0.93232144E+02</pdfrwt>
<totfact> 0.55834448E+04</totfact>
</mgrwt>
</event>
<event>
 6    1  0.1661841E-002  0.9470495E+02  0.7546771E-02  0.1375666E+00
          2   -1    0    0  501    0  0.00000000000E+00  0.00000000000E+00  0.48636948280E+03  0.48636948280E+03  0.00000000000E+00 0. -1.
         -2   -1    0    0    0  501 -0.00000000000E+00 -0.00000000000E+00 -0.70748863034E+01  0.70748863034E+01  0.00000000000E+00 0.  1.
         23    2    1    2    0    0  0.11834203024E+02  0.18337445878E+02  0.40992489584E+03  0.42072253159E+03  0.92155944318E+02 0.  0.
         11    1    3    3    0    0 -0.14258720742E+02  0.46717421067E+02  0.30606981237E+03  0.30994283117E+03  0.00000000000E+00 0. -1.
        -11    1    3    3    0    0  0.26092923766E+02 -0.28379975189E+02  0.10385508347E+03  0.11077970042E+03  0.00000000000E+00 0.  1.
         22    1    1    2    0    0 -0.11834203024E+02 -0.18337445878E+02  0.69369700659E+02  0.72721837518E+02  0.00000000000E+00 0.  1.
<mgrwt>
<rscale>  0 0.65616909E+02</rscale>
<asrwt>0</asrwt>
<pdfrwt beam="1">  1        2 0.74826048E-01 0.94704954E+02</pdfrwt>
<pdfrwt beam="2">  1       -2 0.10884444E-02 0.94704954E+02</pdfrwt>
<totfact> 0.10537047E+05</totfact>
</mgrwt>
</event>
<event>
 6    1  0.1661841E-002  0.9042832E+02  0.7546771E-02  0.1410332E+00
         -2   -1    0    0    0  501 -0.00000000000E+00  0.00000000000E+00  0.22506043088E+02  0.22506043088E+02  0.00000000000E+00 0.  1.
          2   -1    0    0  501    0  0.00000000000E+00 -0.00000000000E+00 -0.12972868967E+03  0.12972868967E+03  0.00000000000E+00 0. -1.
         23    2    1    2    0    0 -0.14312396359E+02 -0.15468765561E+01 -0.77043993547E+02  0.11879839600E+03  0.89275105346E+02 0.  0.
         11    1    3    3    0    0  0.35406661650E+02  0.14138729646E+02 -0.36144840706E+02  0.52535558195E+02  0.00000000000E+00 0. -1.
        -11    1    3    3    0    0 -0.49719058009E+02 -0.15685606202E+02 -0.40899152840E+02  0.66262837807E+02  0.00000000000E+00 0.  1.
         22    1    1    2    0    0  0.14312396359E+02  0.15468765561E+01 -0.30178653035E+02  0.33436336755E+02  0.00000000000E+00 0. -1.
<mgrwt>
<rscale>  0 0.57119831E+02</rscale>
<asrwt>0</asrwt>
<pdfrwt beam="1">  1        2 0.19958260E-01 0.90428325E+02</pdfrwt>
<pdfrwt beam="2">  1       -2 0.34624682E-02 0.90428325E+02</pdfrwt>
<totfact> 0.81175955E+04</totfact>
</mgrwt>
</event>
<event>
 6    1  0.1661841E-002  0.1035155E+03  0.7546771E-02  0.1391232E+00
          1   -1    0    0  501    0  0.00000000000E+00  0.00000000000E+00  0.16064048712E+02  0.16064048712E+02  0.00000000000E+00 0. -1.
         -1   -1    0    0    0  501 -0.00000000000E+00 -0.00000000000E+00 -0.24309709051E+03  0.24309709051E+03  0.00000000000E+00 0.  1.
         23    2    1    2    0    0  0.43042274404E+01 -0.12247721903E+02 -0.22251612063E+03  0.24541575299E+03  0.10269827074E+03 0.  0.
         13    1    3    3    0    0 -0.87680440995E+01 -0.43493039229E+02 -0.39852042314E+02  0.59638144968E+02  0.00000000000E+00 0. -1.
        -13    1    3    3    0    0  0.13072271540E+02  0.31245317325E+02 -0.18266407831E+03  0.18577760802E+03  0.00000000000E+00 0.  1.
         22    1    1    2    0    0 -0.43042274404E+01  0.12247721903E+02 -0.45169211721E+01  0.13745386228E+02  0.00000000000E+00 0.  1.
<mgrwt>
<rscale>  0 0.61601291E+02</rscale>
<asrwt>0</asrwt>
<pdfrwt beam="1">  1        1 0.24713925E-02 0.10351554E+03</pdfrwt>
<pdfrwt beam="2">  1       -1 0.37399547E-01 0.10351554E+03</pdfrwt>
<totfact> 0.27830687E+04</totfact>
</mgrwt>
</event>
<event>
 6    1  0.1661841E-002  0.9071076E+02  0.7546771E-02  0.1431722E+00
          2   -1    0    0  501    0  0.00000000000E+00  0.00000000000E+00  0.11158112100E+03  0.11158112100E+03  0.00000000000E+00 0. -1.
         -2   -1    0    0    0  501 -0.00000000000E+00 -0.00000000000E+00 -0.27135952528E+02  0.27135952528E+02  0.00000000000E+00 0.  1.
         23    2    1    2    0    0  0.79133536039E+01 -0.65432714530E+01  0.51721216536E+02  0.10441995125E+03  0.90127722770E+02 0.  0.
         13    1    3    3    0    0 -0.16041400086E+02 -0.12084890207E+02  0.70612489561E+02  0.73413178450E+02  0.00000000000E+00 0. -1.
        -13    1    3    3    0    0  0.23954753690E+02  0.55416187537E+01 -0.18891273025E+02  0.31006772797E+02  0.00000000000E+00 0.  1.
         22    1    1    2    0    0 -0.79133536039E+01  0.65432714530E+01  0.32723951932E+02  0.34297122279E+02  0.00000000000E+00 0. -1.
<mgrwt>
<rscale>  0 0.52615960E+02</rscale>
<asrwt>0</asrwt>
<pdfrwt beam="1">  1        2 0.17166326E-01 0.90710760E+02</pdfrwt>
<pdfrwt beam="2">  1       -2 0.41747620E-02 0.90710760E+02</pdfrwt>
<totfact> 0.73150340E+04</totfact>
</mgrwt>
</event>
<event>
 6    1  0.1661841E-002  0.9570483E+02  0.7546771E-02  0.1368690E+00
          2   -1    0    0  501    0  0.00000000000E+00  0.00000000000E+00  0.18819511941E+02  0.18819511941E+02  0.00000000000E+00 0. -1.
         -2   -1    0    0    0  501 -0.00000000000E+00 -0.00000000000E+00 -0.30097416929E+03  0.30097416929E+03  0.00000000000E+00 0.  1.
         23    2    1    2    0    0  0.22272763454E+02 -0.81813470403E+01 -0.28007442444E+03  0.29597482735E+03  0.92716798744E+02 0.  0.
         13    1    3    3    0    0 -0.32553101314E+02 -0.48359563982E+01 -0.53288529425E+02  0.62631926745E+02  0.00000000000E+00 0. -1.
        -13    1    3    3    0    0  0.54825864768E+02 -0.33453906421E+01 -0.22678589501E+03  0.23334290061E+03  0.00000000000E+00 0.  1.
         22    1    1    2    0    0 -0.22272763454E+02  0.81813470403E+01 -0.20802329127E+01  0.23818853882E+02  0.00000000000E+00 0. -1.
<mgrwt>
<rscale>  0 0.67532832E+02</rscale>
<asrwt>0</asrwt>
<pdfrwt beam="1">  1        2 0.28953098E-02 0.95704834E+02</pdfrwt>
<pdfrwt beam="2">  1       -2 0.46303714E-01 0.95704834E+02</pdfrwt>
<totfact> 0.13197095E+04</totfact>
</mgrwt>
</event>
<event>
 6    1  0.1661841E-002  0.9091251E+02  0.7546771E-02  0.1423697E+00
         -2   -1    0    0    0  501 -0.00000000000E+00  0.00000000000E+00  0.14186376664E+03  0.14186376664E+03  0.00000000000E+00 0. -1.
          2   -1    0    0  501    0  0.00000000000E+00 -0.00000000000E+00 -0.40057923869E+02  0.40057923869E+02  0.00000000000E+00 0.  1.
         23    2    1    2    0    0  0.87186144790E+01 -0.75361236569E+01  0.12585352919E+03  0.15525525805E+03  0.90179138080E+02 0.  0.
         11    1    3    3    0    0  0.21617940836E+02  0.36589408126E+02  0.78444039582E+02  0.89216520325E+02  0.00000000000E+00 0. -1.
        -11    1    3    3    0    0 -0.12899326357E+02 -0.44125531783E+02  0.47409489605E+02  0.66038737724E+02  0.00000000000E+00 0.  1.
         22    1    1    2    0    0 -0.87186144790E+01  0.75361236569E+01 -0.24047686416E+02  0.26666432460E+02  0.00000000000E+00 0.  1.
<mgrwt>
<rscale>  0 0.54246349E+02</rscale>
<asrwt>0</asrwt>
<pdfrwt beam="1">  1        2 0.61627576E-02 0.90912509E+02</pdfrwt>
<pdfrwt beam="2">  1       -2 0.21825195E-01 0.90912509E+02</pdfrwt>
<totfact> 0.19053018E+04</totfact>
</mgrwt>
</event>
<event>
 6    1  0.1661841E-002  0.8450270E+02  0.7546771E-02  0.1413017E+00
          2   -1    0    0  501    0  0.00000000000E+00  0.00000000000E+00  0.25524071434E+02  0.25524071434E+02  0.00000000000E+00 0. -1.
         -2   -1    0    0    0  501 -0.00000000000E+00 -0.00000000000E+00 -0.10586029241E+03  0.10586029241E+03  0.00000000000E+00 0.  1.
         23    2    1    2    0    0 -0.60691828071E+01  0.15793357902E+02 -0.76607868976E+02  0.11405907186E+03  0.82791552407E+02 0.  0.
         13    1    3    3    0    0  0.34466223838E+01  0.24212717715E+02  0.10074448432E+02  0.26450508809E+02  0.00000000000E+00 0. -1.
        -13    1    3    3    0    0 -0.95158051909E+01 -0.84193598137E+01 -0.86682317408E+02  0.87608563048E+02  0.00000000000E+00 0.  1.
         22    1    1    2    0    0  0.60691828071E+01 -0.15793357902E+02 -0.37283519979E+01  0.17325291985E+02  0.00000000000E+00 0. -1.
<mgrwt>
<rscale>  0 0.56526096E+02</rscale>
<asrwt>0</asrwt>
<pdfrwt beam="1">  1        2 0.39267803E-02 0.84502700E+02</pdfrwt>
<pdfrwt beam="2">  1       -2 0.16286199E-01 0.84502700E+02</pdfrwt>
<totfact> 0.54855219E+04</totfact>
</mgrwt>
</event>
<event>
 6    1  0.1661841E-002  0.9281846E+02  0.7546771E-02  0.1406134E+00
          4   -1    0    0  501    0  0.00000000000E+00  0.00000000000E+00  0.38993342214E+02  0.38993342214E+02  0.00000000000E+00 0. -1.
         -4   -1    0    0    0  501 -0.00000000000E+00 -0.00000000000E+00 -0.75264582453E+02  0.75264582453E+02  0.00000000000E+00 0.  1.
         23    2    1    2    0    0 -0.11433644669E+02 -0.84473402214E+01 -0.37237376423E+02  0.10000944382E+03  0.91723393220E+02 0.  0.
         11    1    3    3    0    0  0.38498189356E+02  0.96462823757E+01 -0.16983311424E+02  0.43169366619E+02  0.00000000000E+00 0. -1.
        -11    1    3    3    0    0 -0.49931834024E+02 -0.18093622597E+02 -0.20254064999E+02  0.56840077205E+02  0.00000000000E+00 0.  1.
         22    1    1    2    0    0  0.11433644669E+02  0.84473402214E+01  0.96613618438E+00  0.14248480844E+02  0.00000000000E+00 0. -1.
<mgrwt>
<rscale>  0 0.58065443E+02</rscale>
<asrwt>0</asrwt>
<pdfrwt beam="1">  1        4 0.59989758E-02 0.92818461E+02</pdfrwt>
<pdfrwt beam="2">  1       -4 0.11579166E-01 0.92818461E+02</pdfrwt>
<totfact> 0.15239916E+04</totfact>
</mgrwt>
</event>
<event>
 6    1  0.1661841E-002  0.9350746E+02  0.7546771E-02  0.1392888E+00
          4   -1    0    0  501    0  0.00000000000E+00  0.00000000000E+00  0.65827389186E+02  0.65827389186E+02  0.00000000000E+00 0. -1.
         -4   -1    0    0    0  501 -0.00000000000E+00 -0.00000000000E+00 -0.60302527833E+02  0.60302527833E+02  0.00000000000E+00 0.  1.
         23    2    1    2    0    0  0.17246087721E+01 -0.17064448581E+02 -0.19764143959E+02  0.95573355196E+02  0.91921026736E+02 0.  0.
         13    1    3    3    0    0 -0.24532002341E+02 -0.46502108842E+02 -0.28485292751E+01  0.52653389109E+02  0.00000000000E+00 0.  1.
        -13    1    3    3    0    0  0.26256611113E+02  0.29437660261E+02 -0.16915614684E+02  0.42919966087E+02  0.00000000000E+00 0. -1.
         22    1    1    2    0    0 -0.17246087721E+01  0.17064448581E+02  0.25289005312E+02  0.30556561824E+02  0.00000000000E+00 0. -1.
<mgrwt>
<rscale>  0 0.61194083E+02</rscale>
<asrwt>0</asrwt>
<pdfrwt beam="1">  1        4 0.10127291E-01 0.93507459E+02</pdfrwt>
<pdfrwt beam="2">  1       -4 0.92773120E-02 0.93507459E+02</pdfrwt>
<totfact> 0.93780901E+03</totfact>
</mgrwt>
</event>
<event>
 6    1  0.1661841E-002  0.9162446E+02  0.7546771E-02  0.1404734E+00
          4   -1    0    0  501    0  0.00000000000E+00  0.00000000000E+00  0.10356914827E+03  0.10356914827E+03  0.00000000000E+00 0. -1.
         -4   -1    0    0    0  501 -0.00000000000E+00 -0.00000000000E+00 -0.38218937398E+02  0.38218937398E+02  0.00000000000E+00 0.  1.
         23    2    1    2    0    0  0.14095585363E+02  0.54360917524E+01  0.19720823986E+02  0.93722738818E+02  0.90370372649E+02 0.  0.
         11    1    3    3    0    0  0.24231266142E+02 -0.28700772743E+02 -0.18169303119E+02  0.41725438173E+02  0.00000000000E+00 0.  1.
        -11    1    3    3    0    0 -0.10135680779E+02  0.34136864495E+02  0.37890127105E+02  0.51997300646E+02  0.00000000000E+00 0. -1.
         22    1    1    2    0    0 -0.14095585363E+02 -0.54360917524E+01  0.45629386883E+02  0.48065346848E+02  0.00000000000E+00 0.  1.
<mgrwt>
<rscale>  0 0.58385731E+02</rscale>
<asrwt>0</asrwt>
<pdfrwt beam="1">  1        4 0.15933715E-01 0.91624456E+02</pdfrwt>
<pdfrwt beam="2">  1       -4 0.58798366E-02 0.91624456E+02</pdfrwt>
<totfact> 0.90682600E+03</totfact>
</mgrwt>
</event>
<event>
 6    1  0.1661841E-002  0.9182609E+02  0.7546771E-02  0.1380307E+00
          2   -1    0    0  501    0  0.00000000000E+00  0.00000000000E+00  0.10726934723E+03  0.10726934723E+03  0.00000000000E+00 0. -1.
         -2   -1    0    0    0  501 -0.00000000000E+00 -0.00000000000E+00 -0.33500429160E+02  0.33500429160E+02  0.00000000000E+00 0.  1.
         23    2    1    2    0    0 -0.73292808901E+01  0.20946524648E+02  0.39541673748E+02  0.99977871470E+02  0.89104183783E+02 0.  0.
         11    1    3    3    0    0  0.33961893466E+02 -0.58649536939E+01 -0.34232165333E+01  0.34634178221E+02  0.00000000000E+00 0.  1.
        -11    1    3    3    0    0 -0.41291174356E+02  0.26811478342E+02  0.42964890281E+02  0.65343693249E+02  0.00000000000E+00 0. -1.
         22    1    1    2    0    0  0.73292808901E+01 -0.20946524648E+02  0.34227244322E+02  0.40791904921E+02  0.00000000000E+00 0.  1.
<mgrwt>
<rscale>  0 0.64383209E+02</rscale>
<asrwt>0</asrwt>
<pdfrwt beam="1">  1        2 0.16502976E-01 0.91826090E+02</pdfrwt>
<pdfrwt beam="2">  1       -2 0.51539122E-02 0.91826090E+02</pdfrwt>
<totfact> 0.56108015E+04</totfact>
</mgrwt>
</event>
<event>
 6    1  0.1661841E-002  0.9768003E+02  0.7546771E-02  0.1366567E+00
          2   -1    0    0  501    0  0.00000000000E+00  0.00000000000E+00  0.51493379805E+02  0.51493379805E+02  0.00000000000E+00 0. -1.
         -2   -1    0    0    0  501 -0.00000000000E+00 -0.00000000000E+00 -0.74193946467E+02  0.74193946467E+02  0.00000000000E+00 0.  1.
         23    2    1    2    0    0 -0.32673484690E+01 -0.22886222935E+02 -0.28689197699E+02  0.10180598485E+03  0.94904866689E+02 0.  0.
         11    1    3    3    0    0  0.35691794093E+02 -0.18663748812E+02 -0.44075154147E+02  0.59706439337E+02  0.00000000000E+00 0.  1.
        -11    1    3    3    0    0 -0.38959142562E+02 -0.42224741231E+01  0.15385956448E+02  0.42099545517E+02  0.00000000000E+00 0. -1.
         22    1    1    2    0    0  0.32673484690E+01  0.22886222935E+02  0.59886310361E+01  0.23881341418E+02  0.00000000000E+00 0.  1.
<mgrwt>
<rscale>  0 0.68130757E+02</rscale>
<asrwt>0</asrwt>
<pdfrwt beam="1">  1        2 0.79220584E-02 0.97680031E+02</pdfrwt>
<pdfrwt beam="2">  1       -2 0.11414453E-01 0.97680031E+02</pdfrwt>
<totfact> 0.40356203E+04</totfact>
</mgrwt>
</event>
<event>
 6    1  0.1661841E-002  0.8996172E+02  0.7546771E-02  0.1432318E+00
         -4   -1    0    0    0  501 -0.00000000000E+00  0.00000000000E+00  0.12979074726E+02  0.12979074726E+02  0.00000000000E+00 0.  1.
          4   -1    0    0  501    0  0.00000000000E+00 -0.00000000000E+00 -0.22214850120E+03  0.22214850120E+03  0.00000000000E+00 0. -1.
         23    2    1    2    0    0  0.56914275093E+01  0.87431447965E+01 -0.14893499594E+03  0.17399639281E+03  0.89354780318E+02 0.  0.
         11    1    3    3    0    0  0.42217119059E+02  0.94875637075E+01 -0.39367526988E+02  0.58498728088E+02  0.00000000000E+00 0. -1.
        -11    1    3    3    0    0 -0.36525691550E+02 -0.74441891093E+00 -0.10956746895E+03  0.11549766472E+03  0.00000000000E+00 0.  1.
         22    1    1    2    0    0 -0.56914275093E+01 -0.87431447965E+01 -0.60234430535E+02  0.61131183122E+02  0.00000000000E+00 0. -1.
<mgrwt>
<rscale>  0 0.52497589E+02</rscale>
<asrwt>0</asrwt>
<pdfrwt beam="1">  1        4 0.34176693E-01 0.89961723E+02</pdfrwt>
<pdfrwt beam="2">  1       -4 0.19967807E-02 0.89961723E+02</pdfrwt>
<totfact> 0.12199886E+04</totfact>
</mgrwt>
</event>
<event>
 6    1  0.1661841E-002  0.9102488E+02  0.7546771E-02  0.1406840E+00
          3   -1    0    0  501    0  0.00000000000E+00  0.00000000000E+00  0.76640849995E+02  0.76640849995E+02  0.00000000000E+00 0. -1.
         -3   -1    0    0    0  501 -0.00000000000E+00 -0.00000000000E+00 -0.36605269755E+02  0.36605269755E+02  0.00000000000E+00 0.  1.
         23    2    1    2    0    0 -0.14900205964E+02  0.44299469658E+00  0.34610737886E+02  0.97382914001E+02  0.89795970847E+02 0.  0.
         11    1    3    3    0    0 -0.22555313910E+02  0.22788464463E+02  0.56639024243E+02  0.65084832068E+02  0.00000000000E+00 0. -1.
        -11    1    3    3    0    0  0.76551079462E+01 -0.22345469766E+02 -0.22028286357E+02  0.32298081933E+02  0.00000000000E+00 0.  1.
         22    1    1    2    0    0  0.14900205964E+02 -0.44299469658E+00  0.54248423537E+01  0.15863205749E+02  0.00000000000E+00 0.  1.
<mgrwt>
<rscale>  0 0.57905007E+02</rscale>
<asrwt>0</asrwt>
<pdfrwt beam="1">  1        3 0.11790900E-01 0.91024880E+02</pdfrwt>
<pdfrwt beam="2">  1       -3 0.56315800E-02 0.91024880E+02</pdfrwt>
<totfact> 0.21497466E+04</totfact>
</mgrwt>
</event>
<event>
 6    1  0.1661841E-002  0.9389880E+02  0.7546771E-02  0.1372413E+00
          2   -1    0    0  501    0  0.00000000000E+00  0.00000000000E+00  0.27971605623E+02  0.27971605623E+02  0.00000000000E+00 0. -1.
         -2   -1    0    0    0  501 -0.00000000000E+00 -0.00000000000E+00 -0.12345312377E+03  0.12345312377E+03  0.00000000000E+00 0.  1.
         23    2    1    2    0    0 -0.11776259126E+02 -0.20478038124E+02 -0.76904390453E+02  0.12137244167E+03  0.90878787406E+02 0.  0.
         11    1    3    3    0    0 -0.46089519470E+02  0.12923328862E+01 -0.17327170925E+02  0.49255911133E+02  0.00000000000E+00 0.  1.
        -11    1    3    3    0    0  0.34313260344E+02 -0.21770371010E+02 -0.59577219528E+02  0.72116530532E+02  0.00000000000E+00 0. -1.
         22    1    1    2    0    0  0.11776259126E+02  0.20478038124E+02 -0.18577127698E+02  0.30052287732E+02  0.00000000000E+00 0.  1.
<mgrwt>
<rscale>  0 0.66500858E+02</rscale>
<asrwt>0</asrwt>
<pdfrwt beam="1">  1        2 0.43033239E-02 0.93898798E+02</pdfrwt>
<pdfrwt beam="2">  1       -2 0.18992788E-01 0.93898798E+02</pdfrwt>
<totfact> 0.38368596E+04</totfact>
</mgrwt>
</event>
<event>
 6    1  0.1661841E-002  0.9196820E+02  0.7546771E-02  0.1351546E+00
          2   -1    0    0  501    0  0.00000000000E+00  0.00000000000E+00  0.26178016927E+03  0.26178016927E+03  0.00000000000E+00 0. -1.
         -2   -1    0    0    0  501 -0.00000000000E+00 -0.00000000000E+00 -0.15558147983E+02  0.15558147983E+02  0.00000000000E+00 0.  1.
         23    2    1    2    0    0  0.16993032752E+02 -0.31358173028E+02  0.17663120556E+03  0.19913998088E+03  0.84770578800E+02 0.  0.
         13    1    3    3    0    0  0.23595814173E+02  0.21961286928E+02  0.34609890237E+02  0.47295930821E+02  0.00000000000E+00 0.  1.
        -13    1    3    3    0    0 -0.66027814215E+01 -0.53319459956E+02  0.14202131532E+03  0.15184405006E+03  0.00000000000E+00 0. -1.
         22    1    1    2    0    0 -0.16993032752E+02  0.31358173028E+02  0.69590815723E+02  0.78198336368E+02  0.00000000000E+00 0.  1.
<mgrwt>
<rscale>  0 0.72576051E+02</rscale>
<asrwt>0</asrwt>
<pdfrwt beam="1">  1        2 0.40273869E-01 0.91968197E+02</pdfrwt>
<pdfrwt beam="2">  1       -2 0.23935614E-02 0.91968197E+02</pdfrwt>
<totfact> 0.65265482E+04</totfact>
</mgrwt>
</event>
<event>
 6    1  0.1661841E-002  0.7191479E+02  0.7546771E-02  0.1441513E+00
         -2   -1    0    0    0  501 -0.00000000000E+00  0.00000000000E+00  0.10425087018E+02  0.10425087018E+02  0.00000000000E+00 0.  1.
          2   -1    0    0  501    0  0.00000000000E+00 -0.00000000000E+00 -0.19298967234E+03  0.19298967234E+03  0.00000000000E+00 0. -1.
         23    2    1    2    0    0  0.17776687788E+02 -0.66271590116E+00 -0.14723995055E+03  0.16386378412E+03  0.69679888666E+02 0.  0.
         11    1    3    3    0    0  0.28929816157E+02 -0.14365522611E+02 -0.26336746538E+02  0.41676452836E+02  0.00000000000E+00 0.  1.
        -11    1    3    3    0    0 -0.11153128368E+02  0.13702806710E+02 -0.12090320401E+03  0.12218733128E+03  0.00000000000E+00 0. -1.
         22    1    1    2    0    0 -0.17776687788E+02  0.66271590116E+00 -0.35324634774E+02  0.39550975247E+02  0.00000000000E+00 0. -1.
<mgrwt>
<rscale>  0 0.50716790E+02</rscale>
<asrwt>0</asrwt>
<pdfrwt beam="1">  1        2 0.29690718E-01 0.71914788E+02</pdfrwt>
<pdfrwt beam="2">  1       -2 0.16038596E-02 0.71914788E+02</pdfrwt>
<totfact> 0.15355800E+05</totfact>
</mgrwt>
</event>
<event>
 6    1  0.1661841E-002  0.1030717E+03  0.7546771E-02  0.1312269E+00
         -2   -1    0    0    0  501 -0.00000000000E+00  0.00000000000E+00  0.30382786905E+02  0.30382786905E+02  0.00000000000E+00 0. -1.
          2   -1    0    0  501    0  0.00000000000E+00 -0.00000000000E+00 -0.29264653807E+03  0.29264653807E+03  0.00000000000E+00 0.  1.
         23    2    1    2    0    0 -0.16439575757E+02  0.47719007063E+02 -0.70851730005E+02  0.12507497385E+03  0.89868894241E+02 0.  0.
         13    1    3    3    0    0 -0.44512149176E+02  0.36814187257E+02 -0.75009286638E+02  0.94673168794E+02  0.00000000000E+00 0.  1.
        -13    1    3    3    0    0  0.28072573419E+02  0.10904819807E+02  0.41575566325E+01  0.30401805054E+02  0.00000000000E+00 0. -1.
         22    1    1    2    0    0  0.16439575757E+02 -0.47719007063E+02 -0.19141202116E+03  0.19795435113E+03  0.00000000000E+00 0. -1.
<mgrwt>
<rscale>  0 0.86221591E+02</rscale>
<asrwt>0</asrwt>
<pdfrwt beam="1">  1        2 0.45022544E-01 0.10307173E+03</pdfrwt>
<pdfrwt beam="2">  1       -2 0.46742749E-02 0.10307173E+03</pdfrwt>
<totfact> 0.22107889E+04</totfact>
</mgrwt>
</event>
<event>
 6    1  0.1661841E-002  0.1181959E+03  0.7546771E-02  0.1270925E+00
         -2   -1    0    0    0  501 -0.00000000000E+00  0.00000000000E+00  0.26488449781E+02  0.26488449781E+02  0.00000000000E+00 0.  1.
          2   -1    0    0  501    0  0.00000000000E+00 -0.00000000000E+00 -0.35301227066E+03  0.35301227066E+03  0.00000000000E+00 0. -1.
         23    2    1    2    0    0  0.41787101266E+02  0.59216386561E+02 -0.23216464982E+03  0.26052006894E+03  0.93367764365E+02 0.  0.
         13    1    3    3    0    0  0.62503307153E+02  0.11630441540E+02 -0.15493436431E+03  0.16747115519E+03  0.00000000000E+00 0. -1.
        -13    1    3    3    0    0 -0.20716205887E+02  0.47585945021E+02 -0.77230285514E+02  0.93048913752E+02  0.00000000000E+00 0.  1.
         22    1    1    2    0    0 -0.41787101266E+02 -0.59216386561E+02 -0.94359171056E+02  0.11898065150E+03  0.00000000000E+00 0.  1.
<mgrwt>
<rscale>  0 0.10459242E+03</rscale>
<asrwt>0</asrwt>
<pdfrwt beam="1">  1        2 0.54309581E-01 0.11819595E+03</pdfrwt>
<pdfrwt beam="2">  1       -2 0.40751461E-02 0.11819595E+03</pdfrwt>
<totfact> 0.22552077E+04</totfact>
</mgrwt>
</event>
<event>
 6    1  0.1661841E-002  0.6087376E+02  0.7546771E-02  0.1498331E+00
          2   -1    0    0  501    0  0.00000000000E+00  0.00000000000E+00  0.25926133431E+03  0.25926133431E+03  0.00000000000E+00 0. -1.
         -2   -1    0    0    0  501 -0.00000000000E+00 -0.00000000000E+00 -0.52765468257E+01  0.52765468257E+01  0.00000000000E+00 0.  1.
         23    2    1    2    0    0 -0.61373399513E+01  0.11450238003E+02  0.21451974267E+03  0.22298953996E+03  0.59471338017E+02 0.  0.
         11    1    3    3    0    0 -0.11929018523E+02 -0.22987148347E+02  0.86703594655E+02  0.90488804822E+02  0.00000000000E+00 0.  1.
        -11    1    3    3    0    0  0.57916785720E+01  0.34437386351E+02  0.12781614801E+03  0.13250073514E+03  0.00000000000E+00 0. -1.
         22    1    1    2    0    0  0.61373399513E+01 -0.11450238003E+02  0.39465044812E+02  0.41548341170E+02  0.00000000000E+00 0.  1.
<mgrwt>
<rscale>  0 0.41374817E+02</rscale>
<asrwt>0</asrwt>
<pdfrwt beam="1">  1        2 0.39886349E-01 0.60873762E+02</pdfrwt>
<pdfrwt beam="2">  1       -2 0.81177664E-03 0.60873762E+02</pdfrwt>
<totfact> 0.28453083E+05</totfact>
</mgrwt>
</event>
<event>
 6    1  0.1661841E-002  0.9821279E+02  0.7546771E-02  0.1338083E+00
          2   -1    0    0  501    0  0.00000000000E+00  0.00000000000E+00  0.13904727131E+03  0.13904727131E+03  0.00000000000E+00 0. -1.
         -2   -1    0    0    0  501 -0.00000000000E+00 -0.00000000000E+00 -0.79167563408E+02  0.79167563408E+02  0.00000000000E+00 0.  1.
         23    2    1    2    0    0 -0.13625416326E+02 -0.34310605740E+02 -0.44260103594E+02  0.10772515206E+03  0.91010339957E+02 0.  0.
         11    1    3    3    0    0 -0.30396091480E+02  0.75243061550E+01  0.13803891278E+02  0.34221118842E+02  0.00000000000E+00 0. -1.
        -11    1    3    3    0    0  0.16770675154E+02 -0.41834911895E+02 -0.58063994872E+02  0.73504033215E+02  0.00000000000E+00 0.  1.
         22    1    1    2    0    0  0.13625416326E+02  0.34310605740E+02  0.10413981150E+03  0.11048968267E+03  0.00000000000E+00 0. -1.
<mgrwt>
<rscale>  0 0.76901147E+02</rscale>
<asrwt>0</asrwt>
<pdfrwt beam="1">  1        2 0.21391888E-01 0.98212787E+02</pdfrwt>
<pdfrwt beam="2">  1       -2 0.12179625E-01 0.98212787E+02</pdfrwt>
<totfact> 0.11304565E+04</totfact>
</mgrwt>
</event>
<event>
 6    1  0.1661841E-002  0.9727164E+02  0.7546771E-02  0.1375005E+00
         -2   -1    0    0    0  501 -0.00000000000E+00  0.00000000000E+00  0.39181673289E+02  0.39181673289E+02  0.00000000000E+00 0.  1.
          2   -1    0    0  501    0  0.00000000000E+00 -0.00000000000E+00 -0.10304768934E+03  0.10304768934E+03  0.00000000000E+00 0. -1.
         23    2    1    2    0    0 -0.82691061023E+01 -0.18607326488E+02 -0.28398295312E+02  0.10133229759E+03  0.95116563450E+02 0.  0.
         13    1    3    3    0    0  0.93228338799E+01  0.35589774946E+02  0.18181958656E+01  0.36835487623E+02  0.00000000000E+00 0.  1.
        -13    1    3    3    0    0 -0.17591939982E+02 -0.54197101434E+02 -0.30216491178E+02  0.64496809962E+02  0.00000000000E+00 0. -1.
         22    1    1    2    0    0  0.82691061023E+01  0.18607326488E+02 -0.35467720735E+02  0.40897065040E+02  0.00000000000E+00 0.  1.
<mgrwt>
<rscale>  0 0.65795279E+02</rscale>
<asrwt>0</asrwt>
<pdfrwt beam="1">  1        2 0.15853491E-01 0.97271637E+02</pdfrwt>
<pdfrwt beam="2">  1       -2 0.60279498E-02 0.97271637E+02</pdfrwt>
<totfact> 0.46842701E+04</totfact>
</mgrwt>
</event>
<event>
 6    1  0.1661841E-002  0.9361419E+02  0.7546771E-02  0.1423405E+00
         -4   -1    0    0    0  501 -0.00000000000E+00  0.00000000000E+00  0.99034700041E+01  0.99034700041E+01  0.00000000000E+00 0.  1.
          4   -1    0    0  501    0  0.00000000000E+00 -0.00000000000E+00 -0.27841478370E+03  0.27841478370E+03  0.00000000000E+00 0. -1.
         23    2    1    2    0    0 -0.71382876469E+01 -0.78391388773E+01 -0.22866646806E+03  0.24708696737E+03  0.93011873334E+02 0.  0.
         11    1    3    3    0    0  0.24984317307E+02  0.26708955122E+02 -0.15760187201E+03  0.16178978477E+03  0.00000000000E+00 0. -1.
        -11    1    3    3    0    0 -0.32122604954E+02 -0.34548093999E+02 -0.71064596050E+02  0.85297182601E+02  0.00000000000E+00 0.  1.
         22    1    1    2    0    0  0.71382876469E+01  0.78391388773E+01 -0.39844845644E+02  0.41231286340E+02  0.00000000000E+00 0. -1.
<mgrwt>
<rscale>  0 0.54306966E+02</rscale>
<asrwt>0</asrwt>
<pdfrwt beam="1">  1        4 0.42833044E-01 0.93614186E+02</pdfrwt>
<pdfrwt beam="2">  1       -4 0.15236107E-02 0.93614186E+02</pdfrwt>
<totfact> 0.12023473E+04</totfact>
</mgrwt>
</event>
<event>
 6    1  0.1661841E-002  0.7503055E+02  0.7546771E-02  0.1463166E+00
          2   -1    0    0  501    0  0.00000000000E+00  0.00000000000E+00  0.79290061543E+02  0.79290061543E+02  0.00000000000E+00 0. -1.
         -2   -1    0    0    0  501 -0.00000000000E+00 -0.00000000000E+00 -0.28279056307E+02  0.28279056307E+02  0.00000000000E+00 0.  1.
         23    2    1    2    0    0 -0.62820580447E+01  0.95092517487E+01  0.24858729528E+02  0.79041383155E+02  0.74159919736E+02 0.  0.
         11    1    3    3    0    0 -0.23784264580E+02  0.34450587254E+02  0.38686761186E+01  0.42041656231E+02  0.00000000000E+00 0. -1.
        -11    1    3    3    0    0  0.17502206535E+02 -0.24941335505E+02  0.20990053409E+02  0.36999726925E+02  0.00000000000E+00 0.  1.
         22    1    1    2    0    0  0.62820580447E+01 -0.95092517487E+01  0.26152275708E+02  0.28527734694E+02  0.00000000000E+00 0. -1.
<mgrwt>
<rscale>  0 0.46840942E+02</rscale>
<asrwt>0</asrwt>
<pdfrwt beam="1">  1        2 0.12198471E-01 0.75030553E+02</pdfrwt>
<pdfrwt beam="2">  1       -2 0.43506241E-02 0.75030553E+02</pdfrwt>
<totfact> 0.99245587E+04</totfact>
</mgrwt>
</event>
<event>
 6    1  0.1661841E-002  0.9858417E+02  0.7546771E-02  0.1337375E+00
         -2   -1    0    0    0  501 -0.00000000000E+00  0.00000000000E+00  0.85740012771E+02  0.85740012771E+02  0.00000000000E+00 0.  1.
          2   -1    0    0  501    0  0.00000000000E+00 -0.00000000000E+00 -0.96812371421E+02  0.96812371421E+02  0.00000000000E+00 0. -1.
         23    2    1    2    0    0 -0.35796420371E+02 -0.91745517675E+01  0.50481892457E+02  0.11075766335E+03  0.91396293214E+02 0.  0.
         11    1    3    3    0    0  0.27319400115E+02 -0.11494311428E+02  0.34742909694E+02  0.45667697466E+02  0.00000000000E+00 0. -1.
        -11    1    3    3    0    0 -0.63115820485E+02  0.23197596607E+01  0.15738982763E+02  0.65089965884E+02  0.00000000000E+00 0.  1.
         22    1    1    2    0    0  0.35796420371E+02  0.91745517675E+01 -0.61554251107E+02  0.71794720842E+02  0.00000000000E+00 0. -1.
<mgrwt>
<rscale>  0 0.77138126E+02</rscale>
<asrwt>0</asrwt>
<pdfrwt beam="1">  1        2 0.14894211E-01 0.98584170E+02</pdfrwt>
<pdfrwt beam="2">  1       -2 0.13190771E-01 0.98584170E+02</pdfrwt>
<totfact> 0.15023135E+04</totfact>
</mgrwt>
</event>
<event>
 6    1  0.1661841E-002  0.9699435E+02  0.7546771E-02  0.1379428E+00
          2   -1    0    0  501    0  0.00000000000E+00  0.00000000000E+00  0.15305928699E+03  0.15305928699E+03  0.00000000000E+00 0.  1.
         -2   -1    0    0    0  501 -0.00000000000E+00 -0.00000000000E+00 -0.38271287809E+02  0.38271287809E+02  0.00000000000E+00 0. -1.
         23    2    1    2    0    0  0.18882100035E+02  0.28898768182E+01  0.25871603090E+02  0.10038547827E+03  0.95094791184E+02 0.  0.
         13    1    3    3    0    0  0.13927598470E+02 -0.28656020757E+00 -0.35809781168E+02  0.38423957933E+02  0.00000000000E+00 0. -1.
        -13    1    3    3    0    0  0.49545015646E+01  0.31764370258E+01  0.61681384258E+02  0.61961520333E+02  0.00000000000E+00 0.  1.
         22    1    1    2    0    0 -0.18882100035E+02 -0.28898768182E+01  0.88916396087E+02  0.90945096530E+02  0.00000000000E+00 0.  1.
<mgrwt>
<rscale>  0 0.64614405E+02</rscale>
<asrwt>0</asrwt>
<pdfrwt beam="1">  1        2 0.23547582E-01 0.96994352E+02</pdfrwt>
<pdfrwt beam="2">  1       -2 0.58878905E-02 0.96994352E+02</pdfrwt>
<totfact> 0.31093180E+04</totfact>
</mgrwt>
</event>
<event>
 6    1  0.1661841E-002  0.9417054E+02  0.7546771E-02  0.1366088E+00
         -1   -1    0    0    0  501 -0.00000000000E+00  0.00000000000E+00  0.19837061682E+03  0.19837061682E+03  0.00000000000E+00 0.  1.
          1   -1    0    0  501    0  0.00000000000E+00 -0.00000000000E+00 -0.22208500557E+02  0.22208500557E+02  0.00000000000E+00 0. -1.
         23    2    1    2    0    0 -0.22143893116E+02 -0.13639016292E+02  0.16922506816E+03  0.19366262793E+03  0.90508093533E+02 0.  0.
         11    1    3    3    0    0 -0.26239801691E+02  0.27354388091E+02  0.13463593512E+03  0.13987002812E+03  0.00000000000E+00 0.  1.
        -11    1    3    3    0    0  0.40959085746E+01 -0.40993404383E+02  0.34589133044E+02  0.53792599814E+02  0.00000000000E+00 0. -1.
         22    1    1    2    0    0  0.22143893116E+02  0.13639016292E+02  0.69370481025E+01  0.26916489447E+02  0.00000000000E+00 0. -1.
<mgrwt>
<rscale>  0 0.68266825E+02</rscale>
<asrwt>0</asrwt>
<pdfrwt beam="1">  1        1 0.34166925E-02 0.94170536E+02</pdfrwt>
<pdfrwt beam="2">  1       -1 0.30518555E-01 0.94170536E+02</pdfrwt>
<totfact> 0.24873403E+04</totfact>
</mgrwt>
</event>
<event>
 6    1  0.1661841E-002  0.1055704E+03  0.7546771E-02  0.1306587E+00
          2   -1    0    0  501    0  0.00000000000E+00  0.00000000000E+00  0.68265723081E+03  0.68265723081E+03  0.00000000000E+00 0. -1.
         -2   -1    0    0    0  501 -0.00000000000E+00 -0.00000000000E+00 -0.95451370330E+01  0.95451370330E+01  0.00000000000E+00 0.  1.
         23    2    1    2    0    0  0.15118107265E+02 -0.49835504320E+02  0.37505436707E+03  0.38962916495E+03  0.91831221622E+02 0.  0.
         13    1    3    3    0    0  0.58540342332E+01 -0.31133098676E+02  0.36515996366E+03  0.36653149743E+03  0.00000000000E+00 0. -1.
        -13    1    3    3    0    0  0.92640730320E+01 -0.18702405644E+02  0.98944034115E+01  0.23097667521E+02  0.00000000000E+00 0.  1.
         22    1    1    2    0    0 -0.15118107265E+02  0.49835504320E+02  0.29805772671E+03  0.30257320289E+03  0.00000000000E+00 0.  1.
<mgrwt>
<rscale>  0 0.88474988E+02</rscale>
<asrwt>0</asrwt>
<pdfrwt beam="1">  1        2 0.10502415E+00 0.10557039E+03</pdfrwt>
<pdfrwt beam="2">  1       -2 0.14684832E-02 0.10557039E+03</pdfrwt>
<totfact> 0.47758080E+04</totfact>
</mgrwt>
</event>
<event>
 6    1  0.1661841E-002  0.9215791E+02  0.7546771E-02  0.1413159E+00
         -2   -1    0    0    0  501 -0.00000000000E+00  0.00000000000E+00  0.22409606080E+02  0.22409606080E+02  0.00000000000E+00 0.  1.
          2   -1    0    0  501    0  0.00000000000E+00 -0.00000000000E+00 -0.12408404462E+03  0.12408404462E+03  0.00000000000E+00 0. -1.
         23    2    1    2    0    0 -0.48985743948E+01  0.12057832800E+02 -0.85284916198E+02  0.12556511025E+03  0.91234273259E+02 0.  0.
         13    1    3    3    0    0 -0.17411537359E+02  0.13675713541E+02  0.13530613964E+02  0.25947336824E+02  0.00000000000E+00 0.  1.
        -13    1    3    3    0    0  0.12512962964E+02 -0.16178807410E+01 -0.98815530161E+02  0.99617773421E+02  0.00000000000E+00 0. -1.
         22    1    1    2    0    0  0.48985743948E+01 -0.12057832800E+02 -0.16389522339E+02  0.20928540452E+02  0.00000000000E+00 0. -1.
<mgrwt>
<rscale>  0 0.56494944E+02</rscale>
<asrwt>0</asrwt>
<pdfrwt beam="1">  1        2 0.19089852E-01 0.92157908E+02</pdfrwt>
<pdfrwt beam="2">  1       -2 0.34476318E-02 0.92157908E+02</pdfrwt>
<totfact> 0.86103504E+04</totfact>
</mgrwt>
</event>
<event>
 6    1  0.1661841E-002  0.9274627E+02  0.7546771E-02  0.1398017E+00
          2   -1    0    0  501    0  0.00000000000E+00  0.00000000000E+00  0.26331730770E+03  0.26331730770E+03  0.00000000000E+00 0.  1.
         -2   -1    0    0    0  501 -0.00000000000E+00 -0.00000000000E+00 -0.12089863482E+02  0.12089863482E+02  0.00000000000E+00 0. -1.
         23    2    1    2    0    0  0.13641613445E+02  0.87325020554E+01  0.18150671465E+03  0.20382972822E+03  0.91320974775E+02 0.  0.
         13    1    3    3    0    0  0.25866718793E+02  0.31012265937E+02  0.30260502009E+02  0.50463311044E+02  0.00000000000E+00 0. -1.
        -13    1    3    3    0    0 -0.12225105349E+02 -0.22279763881E+02  0.15124621264E+03  0.15336641718E+03  0.00000000000E+00 0.  1.
         22    1    1    2    0    0 -0.13641613445E+02 -0.87325020554E+01  0.69720729568E+02  0.71577442962E+02  0.00000000000E+00 0.  1.
<mgrwt>
<rscale>  0 0.59955982E+02</rscale>
<asrwt>0</asrwt>
<pdfrwt beam="1">  1        2 0.40510351E-01 0.92746270E+02</pdfrwt>
<pdfrwt beam="2">  1       -2 0.18599792E-02 0.92746270E+02</pdfrwt>
<totfact> 0.93362237E+04</totfact>
</mgrwt>
</event>
<event>
 6    1  0.1661841E-002  0.9197692E+02  0.7546771E-02  0.1419574E+00
         -2   -1    0    0    0  501 -0.00000000000E+00  0.00000000000E+00  0.85220957684E+02  0.85220957684E+02  0.00000000000E+00 0.  1.
          2   -1    0    0  501    0  0.00000000000E+00 -0.00000000000E+00 -0.39951125676E+02  0.39951125676E+02  0.00000000000E+00 0. -1.
         23    2    1    2    0    0  0.79991214311E+01 -0.87503916037E+01  0.57232663666E+02  0.10832973678E+03  0.91209641950E+02 0.  0.
         13    1    3    3    0    0 -0.12250503543E+02 -0.19439366868E+02 -0.18317895420E+02  0.29385525585E+02  0.00000000000E+00 0. -1.
        -13    1    3    3    0    0  0.20249624974E+02  0.10688975264E+02  0.75550559086E+02  0.78944211200E+02  0.00000000000E+00 0.  1.
         22    1    1    2    0    0 -0.79991214311E+01  0.87503916037E+01 -0.11962831658E+02  0.16842346576E+02  0.00000000000E+00 0. -1.
<mgrwt>
<rscale>  0 0.55111224E+02</rscale>
<asrwt>0</asrwt>
<pdfrwt beam="1">  1        2 0.61463270E-02 0.91976921E+02</pdfrwt>
<pdfrwt beam="2">  1       -2 0.13110917E-01 0.91976921E+02</pdfrwt>
<totfact> 0.44216472E+04</totfact>
</mgrwt>
</event>
<event>
 6    1  0.1661841E-002  0.9107727E+02  0.7546771E-02  0.1399785E+00
         -4   -1    0    0    0  501 -0.00000000000E+00  0.00000000000E+00  0.71895941592E+01  0.71895941592E+01  0.00000000000E+00 0.  1.
          4   -1    0    0  501    0  0.00000000000E+00 -0.00000000000E+00 -0.40380874319E+03  0.40380874319E+03  0.00000000000E+00 0. -1.
         23    2    1    2    0    0 -0.14869835043E+02  0.74481325832E+01 -0.33049553142E+03  0.34281535209E+03  0.89545980733E+02 0.  0.
         13    1    3    3    0    0 -0.44205291329E+02  0.11213436882E+01 -0.28436389997E+03  0.28778150184E+03  0.00000000000E+00 0.  1.
        -13    1    3    3    0    0  0.29335456286E+02  0.63267888950E+01 -0.46131631451E+02  0.55033850252E+02  0.00000000000E+00 0. -1.
         22    1    1    2    0    0  0.14869835043E+02 -0.74481325832E+01 -0.66123617604E+02  0.68182985255E+02  0.00000000000E+00 0. -1.
<mgrwt>
<rscale>  0 0.59536927E+02</rscale>
<asrwt>0</asrwt>
<pdfrwt beam="1">  1        4 0.62124427E-01 0.91077271E+02</pdfrwt>
<pdfrwt beam="2">  1       -4 0.11060913E-02 0.91077271E+02</pdfrwt>
<totfact> 0.90767064E+03</totfact>
</mgrwt>
</event>
<event>
 6    1  0.1661841E-002  0.8995636E+02  0.7546771E-02  0.1432867E+00
          2   -1    0    0  501    0  0.00000000000E+00  0.00000000000E+00  0.77280522109E+02  0.77280522109E+02  0.00000000000E+00 0.  1.
         -2   -1    0    0    0  501 -0.00000000000E+00 -0.00000000000E+00 -0.43415268262E+02  0.43415268262E+02  0.00000000000E+00 0. -1.
         23    2    1    2    0    0 -0.84136246372E+00 -0.10313731786E+02  0.50716913865E+01  0.90099218776E+02  0.89359197716E+02 0.  0.
         13    1    3    3    0    0 -0.30204217699E+02 -0.38500947873E+02 -0.10075072889E+01  0.48945202266E+02  0.00000000000E+00 0. -1.
        -13    1    3    3    0    0  0.29362855235E+02  0.28187216088E+02  0.60791986754E+01  0.41154016510E+02  0.00000000000E+00 0.  1.
         22    1    1    2    0    0  0.84136246372E+00  0.10313731786E+02  0.28793562461E+02  0.30596571594E+02  0.00000000000E+00 0.  1.
<mgrwt>
<rscale>  0 0.52388739E+02</rscale>
<asrwt>0</asrwt>
<pdfrwt beam="1">  1        2 0.11889311E-01 0.89956363E+02</pdfrwt>
<pdfrwt beam="2">  1       -2 0.66792720E-02 0.89956363E+02</pdfrwt>
<totfact> 0.55599792E+04</totfact>
</mgrwt>
</event>
<event>
 6    1  0.1661841E-002  0.9281125E+02  0.7546771E-02  0.1424098E+00
          2   -1    0    0  501    0  0.00000000000E+00  0.00000000000E+00  0.14105143700E+02  0.14105143700E+02  0.00000000000E+00 0. -1.
         -2   -1    0    0    0  501 -0.00000000000E+00 -0.00000000000E+00 -0.29305099162E+03  0.29305099162E+03  0.00000000000E+00 0.  1.
         23    2    1    2    0    0 -0.10572761846E+02 -0.20252887148E+01 -0.28123212696E+03  0.29615103835E+03  0.92184831679E+02 0.  0.
         11    1    3    3    0    0  0.28858064091E+02  0.30255961364E+02 -0.12242840712E+03  0.12937127166E+03  0.00000000000E+00 0. -1.
        -11    1    3    3    0    0 -0.39430825937E+02 -0.32281250078E+02 -0.15880371984E+03  0.16677976669E+03  0.00000000000E+00 0.  1.
         22    1    1    2    0    0  0.10572761846E+02  0.20252887148E+01  0.22862790452E+01  0.11005096969E+02  0.00000000000E+00 0. -1.
<mgrwt>
<rscale>  0 0.54163150E+02</rscale>
<asrwt>0</asrwt>
<pdfrwt beam="1">  1        2 0.21700223E-02 0.92811251E+02</pdfrwt>
<pdfrwt beam="2">  1       -2 0.45084764E-01 0.92811251E+02</pdfrwt>
<totfact> 0.20365439E+04</totfact>
</mgrwt>
</event>
<event>
 6    1  0.1661841E-002  0.9692192E+02  0.7546771E-02  0.1351975E+00
          1   -1    0    0  501    0  0.00000000000E+00  0.00000000000E+00  0.88621065451E+02  0.88621065451E+02  0.00000000000E+00 0. -1.
         -1   -1    0    0    0  501 -0.00000000000E+00 -0.00000000000E+00 -0.48637410813E+02  0.48637410813E+02  0.00000000000E+00 0.  1.
         23    2    1    2    0    0  0.19910244349E+02 -0.22774642104E+02  0.15105751374E+02  0.98092008160E+02  0.92080161746E+02 0.  0.
         11    1    3    3    0    0  0.24563982771E+02  0.28410841333E+02  0.25837901011E+02  0.45586865252E+02  0.00000000000E+00 0. -1.
        -11    1    3    3    0    0 -0.46537384215E+01 -0.51185483437E+02 -0.10732149637E+02  0.52505142908E+02  0.00000000000E+00 0.  1.
         22    1    1    2    0    0 -0.19910244349E+02  0.22774642104E+02  0.24877903263E+02  0.39166468104E+02  0.00000000000E+00 0.  1.
<mgrwt>
<rscale>  0 0.72443629E+02</rscale>
<asrwt>0</asrwt>
<pdfrwt beam="1">  1        1 0.13634010E-01 0.96921919E+02</pdfrwt>
<pdfrwt beam="2">  1       -1 0.74826786E-02 0.96921919E+02</pdfrwt>
<totfact> 0.35413852E+04</totfact>
</mgrwt>
</event>
<event>
 6    1  0.1661841E-002  0.9399159E+02  0.7546771E-02  0.1380286E+00
         -2   -1    0    0    0  501 -0.00000000000E+00  0.00000000000E+00  0.82712191777E+01  0.82712191777E+01  0.00000000000E+00 0. -1.
          2   -1    0    0  501    0  0.00000000000E+00 -0.00000000000E+00 -0.41715173137E+03  0.41715173137E+03  0.00000000000E+00 0.  1.
         23    2    1    2    0    0 -0.18024125612E+01 -0.20621483745E+02 -0.36495729630E+03  0.37686635288E+03  0.91683834595E+02 0.  0.
         11    1    3    3    0    0  0.89808568295E+01 -0.22428873686E+02 -0.36513281593E+03  0.36593125506E+03  0.00000000000E+00 0.  1.
        -11    1    3    3    0    0 -0.10783269391E+02  0.18073899407E+01  0.17551962520E+00  0.10935097818E+02  0.00000000000E+00 0. -1.
         22    1    1    2    0    0  0.18024125612E+01  0.20621483745E+02 -0.43923215888E+02  0.48556597665E+02  0.00000000000E+00 0. -1.
<mgrwt>
<rscale>  0 0.64388735E+02</rscale>
<asrwt>0</asrwt>
<pdfrwt beam="1">  1        2 0.64177202E-01 0.93991594E+02</pdfrwt>
<pdfrwt beam="2">  1       -2 0.12724950E-02 0.93991594E+02</pdfrwt>
<totfact> 0.99308171E+04</totfact>
</mgrwt>
</event>
<event>
 6    1  0.1661841E-002  0.9925150E+02  0.7546771E-02  0.1338114E+00
          2   -1    0    0  501    0  0.00000000000E+00  0.00000000000E+00  0.19502228069E+02  0.19502228069E+02  0.00000000000E+00 0. -1.
         -2   -1    0    0    0  501 -0.00000000000E+00 -0.00000000000E+00 -0.23497152985E+03  0.23497152985E+03  0.00000000000E+00 0.  1.
         23    2    1    2    0    0 -0.33940329391E+02 -0.11232147606E+02 -0.16659808261E+03  0.19392210095E+03  0.92589162472E+02 0.  0.
         11    1    3    3    0    0 -0.15402631861E+02 -0.21524460814E+02 -0.17034615300E+03  0.17239012537E+03  0.00000000000E+00 0.  1.
        -11    1    3    3    0    0 -0.18537697529E+02  0.10292313207E+02  0.37480703882E+01  0.21531975582E+02  0.00000000000E+00 0. -1.
         22    1    1    2    0    0  0.33940329391E+02  0.11232147606E+02 -0.48871219169E+02  0.60551656972E+02  0.00000000000E+00 0. -1.
<mgrwt>
<rscale>  0 0.76890682E+02</rscale>
<asrwt>0</asrwt>
<pdfrwt beam="1">  1        2 0.30003426E-02 0.99251499E+02</pdfrwt>
<pdfrwt beam="2">  1       -2 0.36149468E-01 0.99251499E+02</pdfrwt>
<totfact> 0.20171834E+04</totfact>
</mgrwt>
</event>
<event>
 6    1  0.1661841E-002  0.9348796E+02  0.7546771E-02  0.1359000E+00
         -1   -1    0    0    0  501 -0.00000000000E+00  0.00000000000E+00  0.40418793788E+02  0.40418793788E+02  0.00000000000E+00 0. -1.
          1   -1    0    0  501    0  0.00000000000E+00 -0.00000000000E+00 -0.14421805647E+03  0.14421805647E+03  0.00000000000E+00 0.  1.
         23    2    1    2    0    0 -0.24930590393E+01  0.29826029880E+02 -0.19932232045E+02  0.95589187574E+02  0.88567440434E+02 0.  0.
         11    1    3    3    0    0 -0.39739055503E+02  0.12118087121E+02 -0.32198831098E+02  0.52562394274E+02  0.00000000000E+00 0.  1.
        -11    1    3    3    0    0  0.37245996464E+02  0.17707942759E+02  0.12266599053E+02  0.43026793300E+02  0.00000000000E+00 0. -1.
         22    1    1    2    0    0  0.24930590393E+01 -0.29826029880E+02 -0.83867030641E+02  0.89047662689E+02  0.00000000000E+00 0.  1.
<mgrwt>
<rscale>  0 0.70322386E+02</rscale>
<asrwt>0</asrwt>
<pdfrwt beam="1">  1        1 0.22187394E-01 0.93487961E+02</pdfrwt>
<pdfrwt beam="2">  1       -1 0.62182759E-02 0.93487961E+02</pdfrwt>
<totfact> 0.25017352E+04</totfact>
</mgrwt>
</event>
<event>
 6    1  0.1661841E-002  0.9246353E+02  0.7546771E-02  0.1386713E+00
          4   -1    0    0  501    0  0.00000000000E+00  0.00000000000E+00  0.39142632622E+02  0.39142632622E+02  0.00000000000E+00 0. -1.
         -4   -1    0    0    0  501 -0.00000000000E+00 -0.00000000000E+00 -0.94402372077E+02  0.94402372077E+02  0.00000000000E+00 0.  1.
         23    2    1    2    0    0 -0.17960859225E+02 -0.78219583489E+01 -0.63629475729E+02  0.11224176594E+03  0.90364419670E+02 0.  0.
         13    1    3    3    0    0  0.40062247385E+01  0.73158422105E+01  0.21483450394E+02  0.23045824454E+02  0.00000000000E+00 0. -1.
        -13    1    3    3    0    0 -0.21967083963E+02 -0.15137800559E+02 -0.85112926124E+02  0.89195941483E+02  0.00000000000E+00 0.  1.
         22    1    1    2    0    0  0.17960859225E+02  0.78219583489E+01  0.83697362746E+01  0.21303238764E+02  0.00000000000E+00 0. -1.
<mgrwt>
<rscale>  0 0.62731764E+02</rscale>
<asrwt>0</asrwt>
<pdfrwt beam="1">  1        4 0.60219435E-02 0.92463527E+02</pdfrwt>
<pdfrwt beam="2">  1       -4 0.14523442E-01 0.92463527E+02</pdfrwt>
<totfact> 0.10274207E+04</totfact>
</mgrwt>
</event>
<event>
 6    1  0.1661841E-002  0.7030431E+02  0.7546771E-02  0.1473111E+00
          2   -1    0    0  501    0  0.00000000000E+00  0.00000000000E+00  0.95509587197E+02  0.95509587197E+02  0.00000000000E+00 0. -1.
         -2   -1    0    0    0  501 -0.00000000000E+00 -0.00000000000E+00 -0.18064916198E+02  0.18064916198E+02  0.00000000000E+00 0.  1.
         23    2    1    2    0    0 -0.11041782061E+02  0.47226185809E+01  0.60179489106E+02  0.92543322185E+02  0.69271000387E+02 0.  0.
         11    1    3    3    0    0  0.23761582167E+02 -0.16626122826E+02  0.30349814299E+02  0.41977993941E+02  0.00000000000E+00 0. -1.
        -11    1    3    3    0    0 -0.34803364228E+02  0.21348741407E+02  0.29829674807E+02  0.50565328244E+02  0.00000000000E+00 0.  1.
         22    1    1    2    0    0  0.11041782061E+02 -0.47226185809E+01  0.17265181893E+02  0.21031181211E+02  0.00000000000E+00 0.  1.
<mgrwt>
<rscale>  0 0.45197683E+02</rscale>
<asrwt>0</asrwt>
<pdfrwt beam="1">  1        2 0.14693782E-01 0.70304307E+02</pdfrwt>
<pdfrwt beam="2">  1       -2 0.27792179E-02 0.70304307E+02</pdfrwt>
<totfact> 0.15151856E+05</totfact>
</mgrwt>
</event>
<event>
 6    1  0.1661841E-002  0.9561027E+02  0.7546771E-02  0.1400239E+00
         -2   -1    0    0    0  501 -0.00000000000E+00  0.00000000000E+00  0.14142937363E+03  0.14142937363E+03  0.00000000000E+00 0.  1.
          2   -1    0    0  501    0  0.00000000000E+00 -0.00000000000E+00 -0.41483607238E+02  0.41483607238E+02  0.00000000000E+00 0. -1.
         23    2    1    2    0    0  0.77498108466E+00 -0.14251790919E+02  0.12300538651E+03  0.15579361104E+03  0.94538933722E+02 0.  0.
         11    1    3    3    0    0 -0.33070362122E+02  0.13428184395E+02  0.13988966656E+02  0.38336094938E+02  0.00000000000E+00 0. -1.
        -11    1    3    3    0    0  0.33845343207E+02 -0.27679975314E+02  0.10901641985E+03  0.11745751610E+03  0.00000000000E+00 0.  1.
         22    1    1    2    0    0 -0.77498108466E+00  0.14251790919E+02 -0.23059620117E+02  0.27119369831E+02  0.00000000000E+00 0. -1.
<mgrwt>
<rscale>  0 0.59430045E+02</rscale>
<asrwt>0</asrwt>
<pdfrwt beam="1">  1        2 0.63820935E-02 0.95610272E+02</pdfrwt>
<pdfrwt beam="2">  1       -2 0.21758365E-01 0.95610272E+02</pdfrwt>
<totfact> 0.18427822E+04</totfact>
</mgrwt>
</event>
<event>
 6    1  0.1661841E-002  0.9590362E+02  0.7546771E-02  0.1345033E+00
         -2   -1    0    0    0  501 -0.00000000000E+00  0.00000000000E+00  0.12798971467E+04  0.12798971467E+04  0.00000000000E+00 0.  1.
          2   -1    0    0  501    0  0.00000000000E+00 -0.00000000000E+00 -0.37031161077E+01  0.37031161077E+01  0.00000000000E+00 0. -1.
         23    2    1    2    0    0 -0.22585725454E+02  0.26947408111E+02  0.10825669505E+04  0.10868066553E+04  0.89225702365E+02 0.  0.
         11    1    3    3    0    0 -0.53164963345E+02  0.35118496785E+02  0.66724059867E+03  0.67027594218E+03  0.00000000000E+00 0. -1.
        -11    1    3    3    0    0  0.30579237890E+02 -0.81710886740E+01  0.41532635178E+03  0.41653071311E+03  0.00000000000E+00 0.  1.
         22    1    1    2    0    0  0.22585725454E+02 -0.26947408111E+02  0.19362708014E+03  0.19679360752E+03  0.00000000000E+00 0. -1.
<mgrwt>
<rscale>  0 0.74626101E+02</rscale>
<asrwt>0</asrwt>
<pdfrwt beam="1">  1        2 0.56971119E-03 0.95903617E+02</pdfrwt>
<pdfrwt beam="2">  1       -2 0.19690690E+00 0.95903617E+02</pdfrwt>
<totfact> 0.43874364E+03</totfact>
</mgrwt>
</event>
<event>
 6    1  0.1661841E-002  0.9577122E+02  0.7546771E-02  0.1346364E+00
          2   -1    0    0  501    0  0.00000000000E+00  0.00000000000E+00  0.22907431893E+03  0.22907431893E+03  0.00000000000E+00 0. -1.
         -2   -1    0    0    0  501 -0.00000000000E+00 -0.00000000000E+00 -0.20462088669E+02  0.20462088669E+02  0.00000000000E+00 0.  1.
         23    2    1    2    0    0  0.26898242394E+02 -0.21617751354E+02  0.11436000331E+03  0.14916547106E+03  0.89338036584E+02 0.  0.
         11    1    3    3    0    0 -0.55328143662E+01 -0.17567830903E+01  0.11081975355E+03  0.11097169052E+03  0.00000000000E+00 0. -1.
        -11    1    3    3    0    0  0.32431056761E+02 -0.19860968264E+02  0.35402497643E+01  0.38193780533E+02  0.00000000000E+00 0.  1.
         22    1    1    2    0    0 -0.26898242394E+02  0.21617751354E+02  0.94252226949E+02  0.10037093654E+03  0.00000000000E+00 0. -1.
<mgrwt>
<rscale>  0 0.74200712E+02</rscale>
<asrwt>0</asrwt>
<pdfrwt beam="1">  1        2 0.35242201E-01 0.95771224E+02</pdfrwt>
<pdfrwt beam="2">  1       -2 0.31480138E-02 0.95771224E+02</pdfrwt>
<totfact> 0.50750289E+04</totfact>
</mgrwt>
</event>
<event>
 6    1  0.1661841E-002  0.9266379E+02  0.7546771E-02  0.1416698E+00
         -2   -1    0    0    0  501 -0.00000000000E+00  0.00000000000E+00  0.93324970115E+02  0.93324970115E+02  0.00000000000E+00 0. -1.
          2   -1    0    0  501    0  0.00000000000E+00 -0.00000000000E+00 -0.39257774356E+02  0.39257774356E+02  0.00000000000E+00 0.  1.
         23    2    1    2    0    0 -0.42992977000E+01  0.11331534291E+02  0.67385949600E+02  0.11457505628E+03  0.91867783733E+02 0.  0.
         13    1    3    3    0    0  0.34472946559E+02 -0.22515901070E+02  0.28729200385E+02  0.50206740586E+02  0.00000000000E+00 0. -1.
        -13    1    3    3    0    0 -0.38772244259E+02  0.33847435361E+02  0.38656749215E+02  0.64368315694E+02  0.00000000000E+00 0.  1.
         22    1    1    2    0    0  0.42992977000E+01 -0.11331534291E+02 -0.13318753841E+02  0.18007688191E+02  0.00000000000E+00 0. -1.
<mgrwt>
<rscale>  0 0.55725720E+02</rscale>
<asrwt>0</asrwt>
<pdfrwt beam="1">  1        2 0.60396576E-02 0.92663786E+02</pdfrwt>
<pdfrwt beam="2">  1       -2 0.14357688E-01 0.92663786E+02</pdfrwt>
<totfact> 0.39123721E+04</totfact>
</mgrwt>
</event>
<event>
 6    1  0.1661841E-002  0.9860140E+02  0.7546771E-02  0.1340764E+00
          2   -1    0    0  501    0  0.00000000000E+00  0.00000000000E+00  0.24742682467E+02  0.24742682467E+02  0.00000000000E+00 0. -1.
         -2   -1    0    0    0  501 -0.00000000000E+00 -0.00000000000E+00 -0.19097294371E+03  0.19097294371E+03  0.00000000000E+00 0.  1.
         23    2    1    2    0    0 -0.63445757703E+01  0.34242397257E+02 -0.14356574232E+03  0.17416474376E+03  0.92246626988E+02 0.  0.
         13    1    3    3    0    0 -0.10776496275E+02  0.59636080933E+02 -0.13327993059E+03  0.14641084290E+03  0.00000000000E+00 0.  1.
        -13    1    3    3    0    0  0.44319205051E+01 -0.25393683675E+02 -0.10285811724E+02  0.27753900857E+02  0.00000000000E+00 0. -1.
         22    1    1    2    0    0  0.63445757703E+01 -0.34242397257E+02 -0.22664518932E+02  0.41550882422E+02  0.00000000000E+00 0. -1.
<mgrwt>
<rscale>  0 0.76012628E+02</rscale>
<asrwt>0</asrwt>
<pdfrwt beam="1">  1        2 0.38065667E-02 0.98601398E+02</pdfrwt>
<pdfrwt beam="2">  1       -2 0.29380452E-01 0.98601398E+02</pdfrwt>
<totfact> 0.21412673E+04</totfact>
</mgrwt>
</event>
<event>
 6    1  0.1661841E-002  0.8997669E+02  0.7546771E-02  0.1427701E+00
         -2   -1    0    0    0  501 -0.00000000000E+00  0.00000000000E+00  0.22612409143E+02  0.22612409143E+02  0.00000000000E+00 0.  1.
          2   -1    0    0  501    0  0.00000000000E+00 -0.00000000000E+00 -0.11742490194E+03  0.11742490194E+03  0.00000000000E+00 0. -1.
         23    2    1    2    0    0  0.73404588927E+01  0.84369383596E+01 -0.91605921838E+02  0.12840346550E+03  0.89279005211E+02 0.  0.
         13    1    3    3    0    0  0.13784809274E+02  0.19040696369E+02 -0.10647389378E+03  0.10903787939E+03  0.00000000000E+00 0. -1.
        -13    1    3    3    0    0 -0.64443503818E+01 -0.10603758009E+02  0.14867971943E+02  0.19365586112E+02  0.00000000000E+00 0.  1.
         22    1    1    2    0    0 -0.73404588927E+01 -0.84369383596E+01 -0.32065709564E+01  0.11633845578E+02  0.00000000000E+00 0.  1.
<mgrwt>
<rscale>  0 0.53424341E+02</rscale>
<asrwt>0</asrwt>
<pdfrwt beam="1">  1        2 0.18065369E-01 0.89976692E+02</pdfrwt>
<pdfrwt beam="2">  1       -2 0.34788322E-02 0.89976692E+02</pdfrwt>
<totfact> 0.90099014E+04</totfact>
</mgrwt>
</event>
<event>
 6    1  0.1661841E-002  0.8627958E+02  0.7546771E-02  0.1433632E+00
          1   -1    0    0  501    0  0.00000000000E+00  0.00000000000E+00  0.55646756078E+02  0.55646756078E+02  0.00000000000E+00 0. -1.
         -1   -1    0    0    0  501 -0.00000000000E+00 -0.00000000000E+00 -0.69381482128E+02  0.69381482128E+02  0.00000000000E+00 0.  1.
         23    2    1    2    0    0 -0.49371524886E-01 -0.11593510368E+02 -0.40907100983E+02  0.95485897749E+02  0.85497098418E+02 0.  0.
         13    1    3    3    0    0 -0.10364618282E+02 -0.46140908649E+02 -0.10786360539E+02  0.48505199069E+02  0.00000000000E+00 0. -1.
        -13    1    3    3    0    0  0.10315246757E+02  0.34547398280E+02 -0.30120740443E+02  0.46980698680E+02  0.00000000000E+00 0.  1.
         22    1    1    2    0    0  0.49371524886E-01  0.11593510368E+02  0.27172374932E+02  0.29542340457E+02  0.00000000000E+00 0. -1.
<mgrwt>
<rscale>  0 0.52237903E+02</rscale>
<asrwt>0</asrwt>
<pdfrwt beam="1">  1        1 0.85610394E-02 0.86279579E+02</pdfrwt>
<pdfrwt beam="2">  1       -1 0.10674074E-01 0.86279579E+02</pdfrwt>
<totfact> 0.37539744E+04</totfact>
</mgrwt>
</event>
<event>
 6    1  0.1661841E-002  0.9367863E+02  0.7546771E-02  0.1372959E+00
         -2   -1    0    0    0  501 -0.00000000000E+00  0.00000000000E+00  0.78727690829E+02  0.78727690829E+02  0.00000000000E+00 0.  1.
          2   -1    0    0  501    0  0.00000000000E+00 -0.00000000000E+00 -0.45649543847E+02  0.45649543847E+02  0.00000000000E+00 0. -1.
         23    2    1    2    0    0 -0.21533964306E+02 -0.95984991843E+01  0.36530848539E+02  0.10054943676E+03  0.90663352758E+02 0.  0.
         11    1    3    3    0    0  0.12008246362E+02 -0.41784661191E+01 -0.26248211266E+02  0.29165495958E+02  0.00000000000E+00 0. -1.
        -11    1    3    3    0    0 -0.33542210668E+02 -0.54200330651E+01  0.62779059805E+02  0.71383940806E+02  0.00000000000E+00 0.  1.
         22    1    1    2    0    0  0.21533964306E+02  0.95984991843E+01 -0.34527015563E+01  0.23827797912E+02  0.00000000000E+00 0. -1.
<mgrwt>
<rscale>  0 0.66351296E+02</rscale>
<asrwt>0</asrwt>
<pdfrwt beam="1">  1        2 0.70230067E-02 0.93678633E+02</pdfrwt>
<pdfrwt beam="2">  1       -2 0.12111952E-01 0.93678633E+02</pdfrwt>
<totfact> 0.42482234E+04</totfact>
</mgrwt>
</event>
<event>
 6    1  0.1661841E-002  0.1001331E+03  0.7546771E-02  0.1323076E+00
         -1   -1    0    0    0  501 -0.00000000000E+00  0.00000000000E+00  0.20161944509E+02  0.20161944509E+02  0.00000000000E+00 0.  1.
          1   -1    0    0  501    0  0.00000000000E+00 -0.00000000000E+00 -0.36807854031E+03  0.36807854031E+03  0.00000000000E+00 0. -1.
         23    2    1    2    0    0  0.30408058536E+02  0.33642450604E+02 -0.12206546421E+03  0.15788163835E+03  0.89275806735E+02 0.  0.
         13    1    3    3    0    0  0.17772554393E+02 -0.17943063530E+02 -0.94946829784E+02  0.98248245300E+02  0.00000000000E+00 0. -1.
        -13    1    3    3    0    0  0.12635504144E+02  0.51585514135E+02 -0.27118634430E+02  0.59633393051E+02  0.00000000000E+00 0.  1.
         22    1    1    2    0    0 -0.30408058536E+02 -0.33642450604E+02 -0.22585113159E+03  0.23035884647E+03  0.00000000000E+00 0. -1.
<mgrwt>
<rscale>  0 0.82143526E+02</rscale>
<asrwt>0</asrwt>
<pdfrwt beam="1">  1        1 0.56627459E-01 0.10013308E+03</pdfrwt>
<pdfrwt beam="2">  1       -1 0.31018381E-02 0.10013308E+03</pdfrwt>
<totfact> 0.21964577E+04</totfact>
</mgrwt>
</event>
<event>
 6    1  0.1661841E-002  0.9128227E+02  0.7546771E-02  0.1417007E+00
          1   -1    0    0  501    0  0.00000000000E+00  0.00000000000E+00  0.13601674568E+02  0.13601674568E+02  0.00000000000E+00 0. -1.
         -1   -1    0    0    0  501 -0.00000000000E+00 -0.00000000000E+00 -0.20025522264E+03  0.20025522264E+03  0.00000000000E+00 0.  1.
         23    2    1    2    0    0  0.11418154477E+02  0.53700935488E+01 -0.17007002709E+03  0.19301882329E+03  0.90405972556E+02 0.  0.
         11    1    3    3    0    0 -0.24559836082E+02 -0.26355677796E+02 -0.11226313580E+03  0.11790173434E+03  0.00000000000E+00 0. -1.
        -11    1    3    3    0    0  0.35977990559E+02  0.31725771344E+02 -0.57806891291E+02  0.75117088953E+02  0.00000000000E+00 0.  1.
         22    1    1    2    0    0 -0.11418154477E+02 -0.53700935488E+01 -0.16583520977E+02  0.20838073913E+02  0.00000000000E+00 0. -1.
<mgrwt>
<rscale>  0 0.55659184E+02</rscale>
<asrwt>0</asrwt>
<pdfrwt beam="1">  1        1 0.20925655E-02 0.91282266E+02</pdfrwt>
<pdfrwt beam="2">  1       -1 0.30808493E-01 0.91282266E+02</pdfrwt>
<totfact> 0.47792473E+04</totfact>
</mgrwt>
</event>
<event>
 6    1  0.1661841E-002  0.9294156E+02  0.7546771E-02  0.1394772E+00
         -2   -1    0    0    0  501 -0.00000000000E+00  0.00000000000E+00  0.56666408356E+02  0.56666408356E+02  0.00000000000E+00 0.  1.
          2   -1    0    0  501    0  0.00000000000E+00 -0.00000000000E+00 -0.95048093975E+02  0.95048093975E+02  0.00000000000E+00 0. -1.
         23    2    1    2    0    0  0.29519053075E+01 -0.16689506834E+02  0.16394264352E+02  0.94376399132E+02  0.91383146292E+02 0.  0.
         11    1    3    3    0    0 -0.16653524840E+01 -0.39885571785E+02 -0.24713128042E+02  0.46950728782E+02  0.00000000000E+00 0. -1.
        -11    1    3    3    0    0  0.46172577915E+01  0.23196064951E+02  0.41107392394E+02  0.47425670350E+02  0.00000000000E+00 0.  1.
         22    1    1    2    0    0 -0.29519053075E+01  0.16689506834E+02 -0.54775949970E+02  0.57338103199E+02  0.00000000000E+00 0. -1.
<mgrwt>
<rscale>  0 0.60735218E+02</rscale>
<asrwt>0</asrwt>
<pdfrwt beam="1">  1        2 0.14622783E-01 0.92941556E+02</pdfrwt>
<pdfrwt beam="2">  1       -2 0.87179091E-02 0.92941556E+02</pdfrwt>
<totfact> 0.29181017E+04</totfact>
</mgrwt>
</event>
<event>
 6    1  0.1661841E-002  0.9099473E+02  0.7546771E-02  0.1426028E+00
          2   -1    0    0  501    0  0.00000000000E+00  0.00000000000E+00  0.14844314315E+03  0.14844314315E+03  0.00000000000E+00 0. -1.
         -2   -1    0    0    0  501 -0.00000000000E+00 -0.00000000000E+00 -0.17851843835E+02  0.17851843835E+02  0.00000000000E+00 0.  1.
         23    2    1    2    0    0  0.10150773448E+02 -0.44689865028E+01  0.10873988628E+03  0.14179000191E+03  0.90316287188E+02 0.  0.
         11    1    3    3    0    0 -0.23881242853E+01  0.39988579980E+02  0.28358521258E+02  0.49081517849E+02  0.00000000000E+00 0.  1.
        -11    1    3    3    0    0  0.12538897733E+02 -0.44457566483E+02  0.80381365024E+02  0.92708484062E+02  0.00000000000E+00 0. -1.
         22    1    1    2    0    0 -0.10150773448E+02  0.44689865028E+01  0.21851413035E+02  0.24504985076E+02  0.00000000000E+00 0. -1.
<mgrwt>
<rscale>  0 0.53765634E+02</rscale>
<asrwt>0</asrwt>
<pdfrwt beam="1">  1        2 0.22837406E-01 0.90994735E+02</pdfrwt>
<pdfrwt beam="2">  1       -2 0.27464376E-02 0.90994735E+02</pdfrwt>
<totfact> 0.98046107E+04</totfact>
</mgrwt>
</event>
<event>
 6    1  0.1661841E-002  0.1351470E+03  0.7546771E-02  0.1235050E+00
          4   -1    0    0  501    0  0.00000000000E+00  0.00000000000E+00  0.50442520932E+03  0.50442520932E+03  0.00000000000E+00 0. -1.
         -4   -1    0    0    0  501 -0.00000000000E+00 -0.00000000000E+00 -0.28171797465E+02  0.28171797465E+02  0.00000000000E+00 0.  1.
         23    2    1    2    0    0 -0.68591333155E+02  0.71310354561E+02  0.22372193651E+03  0.26137369715E+03  0.92058497885E+02 0.  0.
         13    1    3    3    0    0  0.18286239278E+02 -0.31559558636E+00  0.59585280887E+02  0.62328900567E+02  0.00000000000E+00 0.  1.
        -13    1    3    3    0    0 -0.86877572433E+02  0.71625950148E+02  0.16413665562E+03  0.19904479658E+03  0.00000000000E+00 0. -1.
         22    1    1    2    0    0  0.68591333155E+02 -0.71310354561E+02  0.25253147535E+03  0.27122330964E+03  0.00000000000E+00 0.  1.
<mgrwt>
<rscale>  0 0.12501215E+03</rscale>
<asrwt>0</asrwt>
<pdfrwt beam="1">  1        4 0.77603871E-01 0.13514697E+03</pdfrwt>
<pdfrwt beam="2">  1       -4 0.43341231E-02 0.13514697E+03</pdfrwt>
<totfact> 0.75676772E+02</totfact>
</mgrwt>
</event>
<event>
 6    1  0.1661841E-002  0.1072197E+03  0.7546771E-02  0.1350981E+00
          3   -1    0    0  501    0  0.00000000000E+00  0.00000000000E+00  0.29451244911E+03  0.29451244911E+03  0.00000000000E+00 0. -1.
         -3   -1    0    0    0  501 -0.00000000000E+00 -0.00000000000E+00 -0.15943441959E+02  0.15943441959E+02  0.00000000000E+00 0.  1.
         23    2    1    2    0    0  0.96408672766E+01  0.20580114278E+02  0.18187404093E+03  0.21112611750E+03  0.10478350681E+03 0.  0.
         11    1    3    3    0    0  0.34481944838E+02  0.38732403799E+02  0.17068378170E+03  0.17838765922E+03  0.00000000000E+00 0. -1.
        -11    1    3    3    0    0 -0.24841077561E+02 -0.18152289521E+02  0.11190259231E+02  0.32738458285E+02  0.00000000000E+00 0.  1.
         22    1    1    2    0    0 -0.96408672766E+01 -0.20580114278E+02  0.96694966221E+02  0.99329773573E+02  0.00000000000E+00 0. -1.
<mgrwt>
<rscale>  0 0.72750922E+02</rscale>
<asrwt>0</asrwt>
<pdfrwt beam="1">  1        3 0.45309604E-01 0.10721973E+03</pdfrwt>
<pdfrwt beam="2">  1       -3 0.24528374E-02 0.10721973E+03</pdfrwt>
<totfact> 0.73180503E+03</totfact>
</mgrwt>
</event>
<event>
 6    1  0.1661841E-002  0.9168012E+02  0.7546771E-02  0.1387958E+00
         -2   -1    0    0    0  501 -0.00000000000E+00  0.00000000000E+00  0.24343582345E+02  0.24343582345E+02  0.00000000000E+00 0.  1.
          2   -1    0    0  501    0  0.00000000000E+00 -0.00000000000E+00 -0.16028248592E+03  0.16028248592E+03  0.00000000000E+00 0. -1.
         23    2    1    2    0    0 -0.29341559750E+01  0.19477100953E+02 -0.68707114338E+02  0.11456837620E+03  0.89539256936E+02 0.  0.
         13    1    3    3    0    0 -0.38731819759E+02  0.23884994612E+02 -0.11491221286E+02  0.46932877561E+02  0.00000000000E+00 0.  1.
        -13    1    3    3    0    0  0.35797663784E+02 -0.44078936595E+01 -0.57215893053E+02  0.67635498643E+02  0.00000000000E+00 0. -1.
         22    1    1    2    0    0  0.29341559750E+01 -0.19477100953E+02 -0.67231789235E+02  0.70057692058E+02  0.00000000000E+00 0. -1.
<mgrwt>
<rscale>  0 0.62417405E+02</rscale>
<asrwt>0</asrwt>
<pdfrwt beam="1">  1        2 0.24658844E-01 0.91680125E+02</pdfrwt>
<pdfrwt beam="2">  1       -2 0.37451665E-02 0.91680125E+02</pdfrwt>
<totfact> 0.57413324E+04</totfact>
</mgrwt>
</event>
<event>
 6    1  0.1661841E-002  0.9317014E+02  0.7546771E-02  0.1385176E+00
         -2   -1    0    0    0  501 -0.00000000000E+00  0.00000000000E+00  0.12216143781E+02  0.12216143781E+02  0.00000000000E+00 0. -1.
          2   -1    0    0  501    0  0.00000000000E+00 -0.00000000000E+00 -0.27397391732E+03  0.27397391732E+03  0.00000000000E+00 0.  1.
         23    2    1    2    0    0 -0.18770970803E+02  0.57412355302E+01 -0.18737416757E+03  0.20926001517E+03  0.91078889679E+02 0.  0.
         11    1    3    3    0    0 -0.48035107016E+02  0.22208387436E+02 -0.73713059219E+02  0.90742487722E+02  0.00000000000E+00 0. -1.
        -11    1    3    3    0    0  0.29264136214E+02 -0.16467151906E+02 -0.11366110835E+03  0.11851752744E+03  0.00000000000E+00 0.  1.
         22    1    1    2    0    0  0.18770970803E+02 -0.57412355302E+01 -0.74383605969E+02  0.76930045933E+02  0.00000000000E+00 0.  1.
<mgrwt>
<rscale>  0 0.63122474E+02</rscale>
<asrwt>0</asrwt>
<pdfrwt beam="1">  1        2 0.42149829E-01 0.93170142E+02</pdfrwt>
<pdfrwt beam="2">  1       -2 0.18794069E-02 0.93170142E+02</pdfrwt>
<totfact> 0.88294908E+04</totfact>
</mgrwt>
</event>
<event>
 6    1  0.1661841E-002  0.1361024E+03  0.7546771E-02  0.1232821E+00
          2   -1    0    0  501    0  0.00000000000E+00  0.00000000000E+00  0.12316463136E+03  0.12316463136E+03  0.00000000000E+00 0. -1.
         -2   -1    0    0    0  501 -0.00000000000E+00 -0.00000000000E+00 -0.11518337814E+03  0.11518337814E+03  0.00000000000E+00 0.  1.
         23    2    1    2    0    0  0.78848703412E+02  0.63769470687E+02 -0.44848159385E+01  0.13617626046E+03  0.90775530387E+02 0.  0.
         13    1    3    3    0    0 -0.16325013102E+02  0.13847017938E+02 -0.17854950188E+02  0.27875530574E+02  0.00000000000E+00 0. -1.
        -13    1    3    3    0    0  0.95173716515E+02  0.49922452749E+02  0.13370134250E+02  0.10830072988E+03  0.00000000000E+00 0.  1.
         22    1    1    2    0    0 -0.78848703412E+02 -0.63769470687E+02  0.12466069154E+02  0.10217174904E+03  0.00000000000E+00 0. -1.
<mgrwt>
<rscale>  0 0.12644970E+03</rscale>
<asrwt>0</asrwt>
<pdfrwt beam="1">  1        2 0.18948405E-01 0.13610239E+03</pdfrwt>
<pdfrwt beam="2">  1       -2 0.17720520E-01 0.13610239E+03</pdfrwt>
<totfact> 0.72389142E+03</totfact>
</mgrwt>
</event>
<event>
 6    1  0.1661841E-002  0.9267872E+02  0.7546771E-02  0.1396196E+00
          2   -1    0    0  501    0  0.00000000000E+00  0.00000000000E+00  0.10415789696E+03  0.10415789696E+03  0.00000000000E+00 0. -1.
         -2   -1    0    0    0  501 -0.00000000000E+00 -0.00000000000E+00 -0.36263174727E+02  0.36263174727E+02  0.00000000000E+00 0.  1.
         23    2    1    2    0    0  0.16518053882E+02 -0.25227804791E+01  0.27446701639E+02  0.96657469283E+02  0.91159938635E+02 0.  0.
         11    1    3    3    0    0 -0.17858575537E+02  0.25777244565E+02 -0.15335705724E+02  0.34908149874E+02  0.00000000000E+00 0.  1.
        -11    1    3    3    0    0  0.34376629419E+02 -0.28300025045E+02  0.42782407363E+02  0.61749319409E+02  0.00000000000E+00 0. -1.
         22    1    1    2    0    0 -0.16518053882E+02  0.25227804791E+01  0.40448020592E+02  0.43763602403E+02  0.00000000000E+00 0.  1.
<mgrwt>
<rscale>  0 0.60391594E+02</rscale>
<asrwt>0</asrwt>
<pdfrwt beam="1">  1        2 0.16024292E-01 0.92678719E+02</pdfrwt>
<pdfrwt beam="2">  1       -2 0.55789500E-02 0.92678719E+02</pdfrwt>
<totfact> 0.51628019E+04</totfact>
</mgrwt>
</event>
<event>
 6    1  0.1661841E-002  0.9414688E+02  0.7546771E-02  0.1401849E+00
          2   -1    0    0  501    0  0.00000000000E+00  0.00000000000E+00  0.18690156771E+03  0.18690156771E+03  0.00000000000E+00 0.  1.
         -2   -1    0    0    0  501 -0.00000000000E+00 -0.00000000000E+00 -0.16133234021E+02  0.16133234021E+02  0.00000000000E+00 0. -1.
         23    2    1    2    0    0 -0.14352585812E+02  0.25261203228E+01  0.13673258499E+03  0.16601034775E+03  0.93012137688E+02 0.  0.
         13    1    3    3    0    0 -0.18164591909E+02 -0.41542092719E+02  0.94688072688E+02  0.10498347001E+03  0.00000000000E+00 0. -1.
        -13    1    3    3    0    0  0.38120060972E+01  0.44068213041E+02  0.42044512306E+02  0.61026877736E+02  0.00000000000E+00 0.  1.
         22    1    1    2    0    0  0.14352585812E+02 -0.25261203228E+01  0.34035748697E+02  0.37024453983E+02  0.00000000000E+00 0. -1.
<mgrwt>
<rscale>  0 0.59053162E+02</rscale>
<asrwt>0</asrwt>
<pdfrwt beam="1">  1        2 0.28754086E-01 0.94146884E+02</pdfrwt>
<pdfrwt beam="2">  1       -2 0.24820361E-02 0.94146884E+02</pdfrwt>
<totfact> 0.88823371E+04</totfact>
</mgrwt>
</event>
<event>
 6    1  0.1661841E-002  0.9311919E+02  0.7546771E-02  0.1425846E+00
          2   -1    0    0  501    0  0.00000000000E+00  0.00000000000E+00  0.66269173273E+01  0.66269173273E+01  0.00000000000E+00 0.  1.
         -2   -1    0    0    0  501 -0.00000000000E+00 -0.00000000000E+00 -0.16169655277E+04  0.16169655277E+04  0.00000000000E+00 0. -1.
         23    2    1    2    0    0  0.51891761974E+01 -0.89873358770E+01 -0.16105231615E+04  0.16132129549E+04  0.92539097875E+02 0.  0.
         13    1    3    3    0    0 -0.10123623281E+02 -0.53819219059E+01 -0.15651137552E+04  0.15651557493E+04  0.00000000000E+00 0. -1.
        -13    1    3    3    0    0  0.15312799478E+02 -0.36054139711E+01 -0.45409406265E+02  0.48057205652E+02  0.00000000000E+00 0.  1.
         22    1    1    2    0    0 -0.51891761974E+01  0.89873358770E+01  0.18455106677E+00  0.10379490106E+02  0.00000000000E+00 0.  1.
<mgrwt>
<rscale>  0 0.53802970E+02</rscale>
<asrwt>0</asrwt>
<pdfrwt beam="1">  1        2 0.10195238E-02 0.93119195E+02</pdfrwt>
<pdfrwt beam="2">  1       -2 0.24876441E+00 0.93119195E+02</pdfrwt>
<totfact> 0.97194924E+02</totfact>
</mgrwt>
</event>
<event>
 6    1  0.1661841E-002  0.9795182E+02  0.7546771E-02  0.1359442E+00
          1   -1    0    0  501    0  0.00000000000E+00  0.00000000000E+00  0.55290904988E+02  0.55290904988E+02  0.00000000000E+00 0. -1.
         -1   -1    0    0    0  501 -0.00000000000E+00 -0.00000000000E+00 -0.87448115307E+02  0.87448115307E+02  0.00000000000E+00 0.  1.
         23    2    1    2    0    0 -0.20014505282E+02 -0.16326958592E+02 -0.51316096672E+02  0.11057983926E+03  0.94484967453E+02 0.  0.
         13    1    3    3    0    0  0.32339412998E+02 -0.23771120281E+02 -0.53063971666E+01  0.40485326272E+02  0.00000000000E+00 0.  1.
        -13    1    3    3    0    0 -0.52353918280E+02  0.74441616892E+01 -0.46009699506E+02  0.70094512989E+02  0.00000000000E+00 0. -1.
         22    1    1    2    0    0  0.20014505282E+02  0.16326958592E+02  0.19158886353E+02  0.32159181035E+02  0.00000000000E+00 0.  1.
<mgrwt>
<rscale>  0 0.70191952E+02</rscale>
<asrwt>0</asrwt>
<pdfrwt beam="1">  1        1 0.85062931E-02 0.97951820E+02</pdfrwt>
<pdfrwt beam="2">  1       -1 0.13453556E-01 0.97951820E+02</pdfrwt>
<totfact> 0.27027191E+04</totfact>
</mgrwt>
</event>
<event>
 6    1  0.1661841E-002  0.1038354E+03  0.7546771E-02  0.1308610E+00
         -2   -1    0    0    0  501 -0.00000000000E+00  0.00000000000E+00  0.15089518465E+02  0.15089518465E+02  0.00000000000E+00 0.  1.
          2   -1    0    0  501    0  0.00000000000E+00 -0.00000000000E+00 -0.52470949039E+03  0.52470949039E+03  0.00000000000E+00 0. -1.
         23    2    1    2    0    0  0.42249862556E+02 -0.31587736453E+02 -0.19631648659E+03  0.22208544303E+03  0.89436821959E+02 0.  0.
         11    1    3    3    0    0  0.74813644839E+01  0.20494401423E+02 -0.73639113113E+01  0.23026473765E+02  0.00000000000E+00 0. -1.
        -11    1    3    3    0    0  0.34768498072E+02 -0.52082137876E+02 -0.18895257527E+03  0.19905896927E+03  0.00000000000E+00 0.  1.
         22    1    1    2    0    0 -0.42249862556E+02  0.31587736453E+02 -0.31330348534E+03  0.31771356582E+03  0.00000000000E+00 0. -1.
<mgrwt>
<rscale>  0 0.87663719E+02</rscale>
<asrwt>0</asrwt>
<pdfrwt beam="1">  1        2 0.80724534E-01 0.10383536E+03</pdfrwt>
<pdfrwt beam="2">  1       -2 0.23214645E-02 0.10383536E+03</pdfrwt>
<totfact> 0.33172179E+04</totfact>
</mgrwt>
</event>
<event>
 6    1  0.1661841E-002  0.9294978E+02  0.7546771E-02  0.1415118E+00
          2   -1    0    0  501    0  0.00000000000E+00  0.00000000000E+00  0.12771276215E+03  0.12771276215E+03  0.00000000000E+00 0. -1.
         -2   -1    0    0    0  501 -0.00000000000E+00 -0.00000000000E+00 -0.23455450625E+02  0.23455450625E+02  0.00000000000E+00 0.  1.
         23    2    1    2    0    0  0.71893290589E+01 -0.99867971371E+01  0.75021482817E+02  0.11944824667E+03  0.92131635064E+02 0.  0.
         11    1    3    3    0    0 -0.28053507953E+01 -0.49235682362E+02  0.25642163959E+02  0.55583657519E+02  0.00000000000E+00 0.  1.
        -11    1    3    3    0    0  0.99946798542E+01  0.39248885225E+02  0.49379318858E+02  0.63864589152E+02  0.00000000000E+00 0. -1.
         22    1    1    2    0    0 -0.71893290589E+01  0.99867971371E+01  0.29235828706E+02  0.31719966101E+02  0.00000000000E+00 0.  1.
<mgrwt>
<rscale>  0 0.56067357E+02</rscale>
<asrwt>0</asrwt>
<pdfrwt beam="1">  1        2 0.19648117E-01 0.92949775E+02</pdfrwt>
<pdfrwt beam="2">  1       -2 0.36085309E-02 0.92949775E+02</pdfrwt>
<totfact> 0.78079507E+04</totfact>
</mgrwt>
</event>
<event>
 6    1  0.1661841E-002  0.9551799E+02  0.7546771E-02  0.1360839E+00
          2   -1    0    0  501    0  0.00000000000E+00  0.00000000000E+00  0.66882152643E+01  0.66882152643E+01  0.00000000000E+00 0.  1.
         -2   -1    0    0    0  501 -0.00000000000E+00 -0.00000000000E+00 -0.57632462764E+03  0.57632462764E+03  0.00000000000E+00 0. -1.
         23    2    1    2    0    0 -0.27110137992E+02  0.23060153330E+01 -0.47670619194E+03  0.48618153000E+03  0.91560959967E+02 0.  0.
         11    1    3    3    0    0 -0.21391078484E+02  0.21935812004E+02 -0.47726527452E+02  0.56714896717E+02  0.00000000000E+00 0.  1.
        -11    1    3    3    0    0 -0.57190595079E+01 -0.19629796671E+02 -0.42897966449E+03  0.42946663328E+03  0.00000000000E+00 0. -1.
         22    1    1    2    0    0  0.27110137992E+02 -0.23060153330E+01 -0.92930220437E+02  0.96831312906E+02  0.00000000000E+00 0. -1.
<mgrwt>
<rscale>  0 0.69781161E+02</rscale>
<asrwt>0</asrwt>
<pdfrwt beam="1">  1        2 0.10289562E-02 0.95517991E+02</pdfrwt>
<pdfrwt beam="2">  1       -2 0.88665327E-01 0.95517991E+02</pdfrwt>
<totfact> 0.13939317E+04</totfact>
</mgrwt>
</event>
<event>
 6    1  0.1661841E-002  0.1016312E+03  0.7546771E-02  0.1317224E+00
         -2   -1    0    0    0  501 -0.00000000000E+00  0.00000000000E+00  0.15157226220E+03  0.15157226220E+03  0.00000000000E+00 0.  1.
          2   -1    0    0  501    0  0.00000000000E+00 -0.00000000000E+00 -0.37023987922E+02  0.37023987922E+02  0.00000000000E+00 0. -1.
         23    2    1    2    0    0  0.25422515705E+02 -0.40893898805E+02  0.79767368775E+02  0.12919653083E+03  0.89500252478E+02 0.  0.
         11    1    3    3    0    0  0.12409606875E+02  0.21993419931E+02 -0.18761517215E+01  0.25322496093E+02  0.00000000000E+00 0. -1.
        -11    1    3    3    0    0  0.13012908829E+02 -0.62887318736E+02  0.81643520496E+02  0.10387403474E+03  0.00000000000E+00 0.  1.
         22    1    1    2    0    0 -0.25422515705E+02  0.40893898805E+02  0.34780905505E+02  0.59399719292E+02  0.00000000000E+00 0.  1.
<mgrwt>
<rscale>  0 0.84318725E+02</rscale>
<asrwt>0</asrwt>
<pdfrwt beam="1">  1        2 0.56959982E-02 0.10163125E+03</pdfrwt>
<pdfrwt beam="2">  1       -2 0.23318809E-01 0.10163125E+03</pdfrwt>
<totfact> 0.19059867E+04</totfact>
</mgrwt>
</event>
<event>
 6    1  0.1661841E-002  0.9821233E+02  0.7546771E-02  0.1346693E+00
         -2   -1    0    0    0  501 -0.00000000000E+00  0.00000000000E+00  0.19465549411E+02  0.19465549411E+02  0.00000000000E+00 0.  1.
          2   -1    0    0  501    0  0.00000000000E+00 -0.00000000000E+00 -0.24768735259E+03  0.24768735259E+03  0.00000000000E+00 0. -1.
         23    2    1    2    0    0 -0.40504583004E+01  0.31560202931E+02 -0.12400160393E+03  0.15818362856E+03  0.92915068463E+02 0.  0.
         11    1    3    3    0    0 -0.37778197760E+02 -0.13714247332E+02 -0.38025197568E+02  0.55328007880E+02  0.00000000000E+00 0. -1.
        -11    1    3    3    0    0  0.33727739460E+02  0.45274450264E+02 -0.85976406359E+02  0.10285562068E+03  0.00000000000E+00 0.  1.
         22    1    1    2    0    0  0.40504583004E+01 -0.31560202931E+02 -0.10422019925E+03  0.10896927343E+03  0.00000000000E+00 0. -1.
<mgrwt>
<rscale>  0 0.74096273E+02</rscale>
<asrwt>0</asrwt>
<pdfrwt beam="1">  1        2 0.38105744E-01 0.98212334E+02</pdfrwt>
<pdfrwt beam="2">  1       -2 0.29947001E-02 0.98212334E+02</pdfrwt>
<totfact> 0.50421344E+04</totfact>
</mgrwt>
</event>
<event>
 6    1  0.1661841E-002  0.9500810E+02  0.7546771E-02  0.1402718E+00
          2   -1    0    0  501    0  0.00000000000E+00  0.00000000000E+00  0.11701027363E+03  0.11701027363E+03  0.00000000000E+00 0. -1.
         -2   -1    0    0    0  501 -0.00000000000E+00 -0.00000000000E+00 -0.32122260839E+02  0.32122260839E+02  0.00000000000E+00 0.  1.
         23    2    1    2    0    0 -0.83743994469E+01  0.11203239802E+02  0.41737516907E+02  0.10377166539E+03  0.93972842209E+02 0.  0.
         11    1    3    3    0    0  0.20835349478E+00 -0.22507281369E+02 -0.21800176982E+02  0.31334786456E+02  0.00000000000E+00 0.  1.
        -11    1    3    3    0    0 -0.85827529417E+01  0.33710521170E+02  0.63537693889E+02  0.72436878938E+02  0.00000000000E+00 0. -1.
         22    1    1    2    0    0  0.83743994469E+01 -0.11203239802E+02  0.43150495881E+02  0.45360869072E+02  0.00000000000E+00 0. -1.
<mgrwt>
<rscale>  0 0.58850958E+02</rscale>
<asrwt>0</asrwt>
<pdfrwt beam="1">  1        2 0.18001580E-01 0.95008096E+02</pdfrwt>
<pdfrwt beam="2">  1       -2 0.49418864E-02 0.95008096E+02</pdfrwt>
<totfact> 0.54351329E+04</totfact>
</mgrwt>
</event>
<event>
 6    1  0.1661841E-002  0.9652434E+02  0.7546771E-02  0.1366681E+00
         -4   -1    0    0    0  501 -0.00000000000E+00  0.00000000000E+00  0.13647522526E+03  0.13647522526E+03  0.00000000000E+00 0.  1.
          4   -1    0    0  501    0  0.00000000000E+00 -0.00000000000E+00 -0.27079507846E+02  0.27079507846E+02  0.00000000000E+00 0. -1.
         23    2    1    2    0    0  0.18509365595E+02 -0.15141106637E+02  0.96042371383E+02  0.13616565544E+03  0.93515233502E+02 0.  0.
         13    1    3    3    0    0  0.92427587249E+01 -0.28176810613E+02 -0.81494405837E+01  0.30753449026E+02  0.00000000000E+00 0. -1.
        -13    1    3    3    0    0  0.92666068704E+01  0.13035703977E+02  0.10419181197E+03  0.10541220642E+03  0.00000000000E+00 0.  1.
         22    1    1    2    0    0 -0.18509365595E+02  0.15141106637E+02  0.13353346032E+02  0.27389077662E+02  0.00000000000E+00 0.  1.
<mgrwt>
<rscale>  0 0.68098552E+02</rscale>
<asrwt>0</asrwt>
<pdfrwt beam="1">  1        4 0.41660782E-02 0.96524342E+02</pdfrwt>
<pdfrwt beam="2">  1       -4 0.20996188E-01 0.96524342E+02</pdfrwt>
<totfact> 0.97917140E+03</totfact>
</mgrwt>
</event>
<event>
 6    1  0.1661841E-002  0.9162760E+02  0.7546771E-02  0.1404884E+00
          4   -1    0    0  501    0  0.00000000000E+00  0.00000000000E+00  0.22483712154E+03  0.22483712154E+03  0.00000000000E+00 0. -1.
         -4   -1    0    0    0  501 -0.00000000000E+00 -0.00000000000E+00 -0.13335524035E+02  0.13335524035E+02  0.00000000000E+00 0.  1.
         23    2    1    2    0    0 -0.10178610342E+02 -0.11113520949E+02  0.15859056697E+03  0.18315726947E+03  0.90379770798E+02 0.  0.
         11    1    3    3    0    0  0.21940532993E+02  0.12497052935E+02  0.13391486649E+03  0.13627455664E+03  0.00000000000E+00 0. -1.
        -11    1    3    3    0    0 -0.32119143334E+02 -0.23610573884E+02  0.24675700479E+02  0.46882712825E+02  0.00000000000E+00 0.  1.
         22    1    1    2    0    0  0.10178610342E+02  0.11113520949E+02  0.52911030528E+02  0.55015376104E+02  0.00000000000E+00 0. -1.
<mgrwt>
<rscale>  0 0.58351273E+02</rscale>
<asrwt>0</asrwt>
<pdfrwt beam="1">  1        4 0.34590323E-01 0.91627602E+02</pdfrwt>
<pdfrwt beam="2">  1       -4 0.20516193E-02 0.91627602E+02</pdfrwt>
<totfact> 0.11503715E+04</totfact>
</mgrwt>
</event>
<event>
 6    1  0.1661841E-002  0.1030345E+03  0.7546771E-02  0.1290288E+00
          2   -1    0    0  501    0  0.00000000000E+00  0.00000000000E+00  0.85263735805E+03  0.85263735805E+03  0.00000000000E+00 0. -1.
         -2   -1    0    0    0  501 -0.00000000000E+00 -0.00000000000E+00 -0.93686089070E+01  0.93686089070E+01  0.00000000000E+00 0.  1.
         23    2    1    2    0    0  0.69669423566E+02  0.29639274600E+02  0.48290982062E+03  0.49377930776E+03  0.69884152277E+02 0.  0.
         11    1    3    3    0    0  0.53088189010E+02  0.42312864977E+02  0.22479995386E+03  0.23482707172E+03  0.00000000000E+00 0. -1.
        -11    1    3    3    0    0  0.16581234557E+02 -0.12673590377E+02  0.25810986676E+03  0.25895223604E+03  0.00000000000E+00 0.  1.
         22    1    1    2    0    0 -0.69669423566E+02 -0.29639274600E+02  0.36035892852E+03  0.36822665920E+03  0.00000000000E+00 0.  1.
<mgrwt>
<rscale>  0 0.95395587E+02</rscale>
<asrwt>0</asrwt>
<pdfrwt beam="1">  1        2 0.13117492E+00 0.10303451E+03</pdfrwt>
<pdfrwt beam="2">  1       -2 0.14413251E-02 0.10303451E+03</pdfrwt>
<totfact> 0.37385924E+04</totfact>
</mgrwt>
</event>
<event>
 6    1  0.1661841E-002  0.1086921E+03  0.7546771E-02  0.1295237E+00
         -4   -1    0    0    0  501 -0.00000000000E+00  0.00000000000E+00  0.66248436258E+02  0.66248436258E+02  0.00000000000E+00 0.  1.
          4   -1    0    0  501    0  0.00000000000E+00 -0.00000000000E+00 -0.11474004919E+03  0.11474004919E+03  0.00000000000E+00 0. -1.
         23    2    1    2    0    0 -0.57567824762E+02 -0.12012368083E+02 -0.55011382314E+02  0.12182042965E+03  0.91409044744E+02 0.  0.
         11    1    3    3    0    0 -0.73926772994E+02 -0.28323645773E+02 -0.23181904105E+02  0.82491195610E+02  0.00000000000E+00 0.  1.
        -11    1    3    3    0    0  0.16358948232E+02  0.16311277690E+02 -0.31829478208E+02  0.39329234040E+02  0.00000000000E+00 0. -1.
         22    1    1    2    0    0  0.57567824762E+02  0.12012368083E+02  0.65197693774E+01  0.59168055803E+02  0.00000000000E+00 0. -1.
<mgrwt>
<rscale>  0 0.93219554E+02</rscale>
<asrwt>0</asrwt>
<pdfrwt beam="1">  1        4 0.17652315E-01 0.10869206E+03</pdfrwt>
<pdfrwt beam="2">  1       -4 0.10192067E-01 0.10869206E+03</pdfrwt>
<totfact> 0.32175866E+03</totfact>
</mgrwt>
</event>
<event>
 6    1  0.1661841E-002  0.9776215E+02  0.7546771E-02  0.1350355E+00
          1   -1    0    0  501    0  0.00000000000E+00  0.00000000000E+00  0.18784193846E+03  0.18784193846E+03  0.00000000000E+00 0. -1.
         -1   -1    0    0    0  501 -0.00000000000E+00 -0.00000000000E+00 -0.25430242096E+02  0.25430242096E+02  0.00000000000E+00 0.  1.
         23    2    1    2    0    0 -0.19106801752E+02  0.23519198107E+02  0.82889324539E+02  0.12817206203E+03  0.92947376557E+02 0.  0.
         13    1    3    3    0    0  0.18969644892E+02  0.27756342475E+02  0.83331888223E+02  0.89858030079E+02  0.00000000000E+00 0. -1.
        -13    1    3    3    0    0 -0.38076446645E+02 -0.42371443676E+01 -0.44256368373E+00  0.38314031948E+02  0.00000000000E+00 0.  1.
         22    1    1    2    0    0  0.19106801752E+02 -0.23519198107E+02  0.79522371826E+02  0.85100118529E+02  0.00000000000E+00 0. -1.
<mgrwt>
<rscale>  0 0.72945170E+02</rscale>
<asrwt>0</asrwt>
<pdfrwt beam="1">  1        1 0.28898759E-01 0.97762147E+02</pdfrwt>
<pdfrwt beam="2">  1       -1 0.39123450E-02 0.97762147E+02</pdfrwt>
<totfact> 0.35722919E+04</totfact>
</mgrwt>
</event>
<event>
 6    1  0.1661841E-002  0.9252404E+02  0.7546771E-02  0.1402388E+00
          2   -1    0    0  501    0  0.00000000000E+00  0.00000000000E+00  0.95725080835E+01  0.95725080835E+01  0.00000000000E+00 0. -1.
         -2   -1    0    0    0  501 -0.00000000000E+00 -0.00000000000E+00 -0.31605117120E+03  0.31605117120E+03  0.00000000000E+00 0.  1.
         23    2    1    2    0    0  0.13082592140E+02  0.77845419674E+01 -0.28206581297E+03  0.29685319853E+03  0.91263055599E+02 0.  0.
         13    1    3    3    0    0  0.40665688017E+02  0.32173411936E+02 -0.20480950257E+03  0.21127176565E+03  0.00000000000E+00 0. -1.
        -13    1    3    3    0    0 -0.27583095877E+02 -0.24388869969E+02 -0.77256310406E+02  0.85581432882E+02  0.00000000000E+00 0.  1.
         22    1    1    2    0    0 -0.13082592140E+02 -0.77845419674E+01 -0.24412850138E+02  0.28770480751E+02  0.00000000000E+00 0. -1.
<mgrwt>
<rscale>  0 0.58927660E+02</rscale>
<asrwt>0</asrwt>
<pdfrwt beam="1">  1        2 0.14726937E-02 0.92524044E+02</pdfrwt>
<pdfrwt beam="2">  1       -2 0.48623253E-01 0.92524044E+02</pdfrwt>
<totfact> 0.29717963E+04</totfact>
</mgrwt>
</event>
<event>
 6    1  0.1661841E-002  0.9502099E+02  0.7546771E-02  0.1369637E+00
         -2   -1    0    0    0  501 -0.00000000000E+00  0.00000000000E+00  0.12737327628E+03  0.12737327628E+03  0.00000000000E+00 0.  1.
          2   -1    0    0  501    0  0.00000000000E+00 -0.00000000000E+00 -0.27978511782E+02  0.27978511782E+02  0.00000000000E+00 0. -1.
         23    2    1    2    0    0 -0.22062107957E+02 -0.91024589758E+01  0.73449820520E+02  0.12009939119E+03  0.91974976290E+02 0.  0.
         13    1    3    3    0    0 -0.95250770895E+01  0.25220727316E+02 -0.10193763134E+02  0.28822300164E+02  0.00000000000E+00 0. -1.
        -13    1    3    3    0    0 -0.12537030868E+02 -0.34323186292E+02  0.83643583654E+02  0.91277091029E+02  0.00000000000E+00 0.  1.
         22    1    1    2    0    0  0.22062107957E+02  0.91024589758E+01  0.25944943975E+02  0.35252396866E+02  0.00000000000E+00 0.  1.
<mgrwt>
<rscale>  0 0.67268241E+02</rscale>
<asrwt>0</asrwt>
<pdfrwt beam="1">  1        2 0.43043865E-02 0.95020985E+02</pdfrwt>
<pdfrwt beam="2">  1       -2 0.19595888E-01 0.95020985E+02</pdfrwt>
<totfact> 0.36463862E+04</totfact>
</mgrwt>
</event>
<event>
 6    1  0.1661841E-002  0.9168638E+02  0.7546771E-02  0.1430243E+00
         -2   -1    0    0    0  501 -0.00000000000E+00  0.00000000000E+00  0.17359365386E+02  0.17359365386E+02  0.00000000000E+00 0.  1.
          2   -1    0    0  501    0  0.00000000000E+00 -0.00000000000E+00 -0.15969102003E+03  0.15969102003E+03  0.00000000000E+00 0. -1.
         23    2    1    2    0    0  0.34620654385E+01 -0.95615463254E+01 -0.11023383032E+03  0.14338022961E+03  0.91120710229E+02 0.  0.
         13    1    3    3    0    0  0.17397543136E+02 -0.38927717628E+02 -0.10093480960E+03  0.10957133519E+03  0.00000000000E+00 0. -1.
        -13    1    3    3    0    0 -0.13935477697E+02  0.29366171303E+02 -0.92990207158E+01  0.33808894420E+02  0.00000000000E+00 0.  1.
         22    1    1    2    0    0 -0.34620654385E+01  0.95615463254E+01 -0.32097824330E+02  0.33670155805E+02  0.00000000000E+00 0. -1.
<mgrwt>
<rscale>  0 0.52911303E+02</rscale>
<asrwt>0</asrwt>
<pdfrwt beam="1">  1        2 0.24567849E-01 0.91686383E+02</pdfrwt>
<pdfrwt beam="2">  1       -2 0.26706717E-02 0.91686383E+02</pdfrwt>
<totfact> 0.94357023E+04</totfact>
</mgrwt>
</event>
<event>
 6    1  0.1661841E-002  0.9857704E+02  0.7546771E-02  0.1337628E+00
         -4   -1    0    0    0  501 -0.00000000000E+00  0.00000000000E+00  0.42767041518E+02  0.42767041518E+02  0.00000000000E+00 0.  1.
          4   -1    0    0  501    0  0.00000000000E+00 -0.00000000000E+00 -0.11321284402E+03  0.11321284402E+03  0.00000000000E+00 0. -1.
         23    2    1    2    0    0  0.23510383048E+02 -0.28309844166E+02 -0.34235838975E+02  0.10435288827E+03  0.91450791320E+02 0.  0.
         13    1    3    3    0    0  0.34637420559E+02  0.22716802628E+02 -0.31529913366E+02  0.52057078880E+02  0.00000000000E+00 0. -1.
        -13    1    3    3    0    0 -0.11127037511E+02 -0.51026646794E+02 -0.27059256094E+01  0.52295809395E+02  0.00000000000E+00 0.  1.
         22    1    1    2    0    0 -0.23510383048E+02  0.28309844166E+02 -0.36209963526E+02  0.51626997263E+02  0.00000000000E+00 0. -1.
<mgrwt>
<rscale>  0 0.77053362E+02</rscale>
<asrwt>0</asrwt>
<pdfrwt beam="1">  1        4 0.17417361E-01 0.98577039E+02</pdfrwt>
<pdfrwt beam="2">  1       -4 0.65795448E-02 0.98577039E+02</pdfrwt>
<totfact> 0.66068698E+03</totfact>
</mgrwt>
</event>
<event>
 6    1  0.1661841E-002  0.1028545E+03  0.7546771E-02  0.1317318E+00
         -2   -1    0    0    0  501 -0.00000000000E+00  0.00000000000E+00  0.17544381439E+03  0.17544381439E+03  0.00000000000E+00 0.  1.
          2   -1    0    0  501    0  0.00000000000E+00 -0.00000000000E+00 -0.41967761429E+02  0.41967761429E+02  0.00000000000E+00 0. -1.
         23    2    1    2    0    0 -0.24077300630E+02  0.39636326499E+02  0.13652748984E+03  0.17093506508E+03  0.91805698114E+02 0.  0.
         13    1    3    3    0    0 -0.80326773591E+01  0.70331058079E+01  0.13409185289E+03  0.13451622019E+03  0.00000000000E+00 0.  1.
        -13    1    3    3    0    0 -0.16044623271E+02  0.32603220692E+02  0.24356369505E+01  0.36418844884E+02  0.00000000000E+00 0. -1.
         22    1    1    2    0    0  0.24077300630E+02 -0.39636326499E+02 -0.30514368784E+01  0.46476510745E+02  0.00000000000E+00 0. -1.
<mgrwt>
<rscale>  0 0.84283240E+02</rscale>
<asrwt>0</asrwt>
<pdfrwt beam="1">  1        2 0.64565788E-02 0.10285447E+03</pdfrwt>
<pdfrwt beam="2">  1       -2 0.26991356E-01 0.10285447E+03</pdfrwt>
<totfact> 0.12617948E+04</totfact>
</mgrwt>
</event>
<event>
 6    1  0.1661841E-002  0.9322814E+02  0.7546771E-02  0.1416453E+00
          2   -1    0    0  501    0  0.00000000000E+00  0.00000000000E+00  0.26616464367E+03  0.26616464367E+03  0.00000000000E+00 0. -1.
         -2   -1    0    0    0  501 -0.00000000000E+00 -0.00000000000E+00 -0.11305353495E+02  0.11305353495E+02  0.00000000000E+00 0.  1.
         23    2    1    2    0    0 -0.89113774658E+01  0.79559631979E+01  0.19141984404E+03  0.21291557575E+03  0.92459589576E+02 0.  0.
         13    1    3    3    0    0  0.51030580911E+00 -0.11662357646E+02  0.19078613066E+03  0.19114292728E+03  0.00000000000E+00 0. -1.
        -13    1    3    3    0    0 -0.94216832749E+01  0.19618320844E+02  0.63371337956E+00  0.21772648464E+02  0.00000000000E+00 0.  1.
         22    1    1    2    0    0  0.89113774658E+01 -0.79559631979E+01  0.63439446131E+02  0.64554421415E+02  0.00000000000E+00 0. -1.
<mgrwt>
<rscale>  0 0.55778529E+02</rscale>
<asrwt>0</asrwt>
<pdfrwt beam="1">  1        2 0.40948402E-01 0.93228138E+02</pdfrwt>
<pdfrwt beam="2">  1       -2 0.17392854E-02 0.93228138E+02</pdfrwt>
<totfact> 0.10171198E+05</totfact>
</mgrwt>
</event>
<event>
 6    1  0.1661841E-002  0.9338974E+02  0.7546771E-02  0.1394189E+00
         -2   -1    0    0    0  501 -0.00000000000E+00  0.00000000000E+00  0.10667488574E+02  0.10667488574E+02  0.00000000000E+00 0.  1.
          2   -1    0    0  501    0  0.00000000000E+00 -0.00000000000E+00 -0.29059051271E+03  0.29059051271E+03  0.00000000000E+00 0. -1.
         23    2    1    2    0    0  0.53993485141E+01  0.15974062413E+02 -0.25055048295E+03  0.26738958222E+03  0.91854888480E+02 0.  0.
         13    1    3    3    0    0  0.35340574776E+02 -0.63611237432E+00 -0.21554040034E+03  0.21841937882E+03  0.00000000000E+00 0. -1.
        -13    1    3    3    0    0 -0.29941226262E+02  0.16610174788E+02 -0.35010082606E+02  0.48970203396E+02  0.00000000000E+00 0.  1.
         22    1    1    2    0    0 -0.53993485141E+01 -0.15974062413E+02 -0.29372541189E+02  0.33868419069E+02  0.00000000000E+00 0.  1.
<mgrwt>
<rscale>  0 0.60876687E+02</rscale>
<asrwt>0</asrwt>
<pdfrwt beam="1">  1        2 0.44706233E-01 0.93389743E+02</pdfrwt>
<pdfrwt beam="2">  1       -2 0.16411521E-02 0.93389743E+02</pdfrwt>
<totfact> 0.10084882E+05</totfact>
</mgrwt>
</event>
<event>
 6    1  0.1661841E-002  0.9922513E+02  0.7546771E-02  0.1333632E+00
         -1   -1    0    0    0  501 -0.00000000000E+00  0.00000000000E+00  0.40577048161E+02  0.40577048161E+02  0.00000000000E+00 0.  1.
          1   -1    0    0  501    0  0.00000000000E+00 -0.00000000000E+00 -0.17809724232E+03  0.17809724232E+03  0.00000000000E+00 0. -1.
         23    2    1    2    0    0 -0.18231451923E+02  0.34122431741E+02 -0.28866949826E+02  0.10333889396E+03  0.91372315420E+02 0.  0.
         11    1    3    3    0    0 -0.25779223379E+02 -0.21555238864E+02  0.99520323871E+01  0.35046249859E+02  0.00000000000E+00 0. -1.
        -11    1    3    3    0    0  0.75477714565E+01  0.55677670606E+02 -0.38818982213E+02  0.68292644100E+02  0.00000000000E+00 0.  1.
         22    1    1    2    0    0  0.18231451923E+02 -0.34122431741E+02 -0.10865324433E+03  0.11533539652E+03  0.00000000000E+00 0. -1.
<mgrwt>
<rscale>  0 0.78407760E+02</rscale>
<asrwt>0</asrwt>
<pdfrwt beam="1">  1        1 0.27399575E-01 0.99225129E+02</pdfrwt>
<pdfrwt beam="2">  1       -1 0.62426231E-02 0.99225129E+02</pdfrwt>
<totfact> 0.19261701E+04</totfact>
</mgrwt>
</event>
<event>
 6    1  0.1661841E-002  0.1011772E+03  0.7546771E-02  0.1330833E+00
         -2   -1    0    0    0  501 -0.00000000000E+00  0.00000000000E+00  0.63258872728E+02  0.63258872728E+02  0.00000000000E+00 0.  1.
          2   -1    0    0  501    0  0.00000000000E+00 -0.00000000000E+00 -0.81767568041E+02  0.81767568041E+02  0.00000000000E+00 0. -1.
         23    2    1    2    0    0 -0.36895039424E+02  0.10376236298E+02  0.27196048141E+01  0.10121376064E+03  0.93637166118E+02 0.  0.
         11    1    3    3    0    0 -0.23608857600E+02 -0.32223830475E+02  0.29057272629E+02  0.49397150731E+02  0.00000000000E+00 0.  1.
        -11    1    3    3    0    0 -0.13286181824E+02  0.42600066773E+02 -0.26337667815E+02  0.51816609909E+02  0.00000000000E+00 0. -1.
         22    1    1    2    0    0  0.36895039424E+02 -0.10376236298E+02 -0.21228300127E+02  0.43812680129E+02  0.00000000000E+00 0. -1.
<mgrwt>
<rscale>  0 0.79375496E+02</rscale>
<asrwt>0</asrwt>
<pdfrwt beam="1">  1        2 0.12579626E-01 0.10117722E+03</pdfrwt>
<pdfrwt beam="2">  1       -2 0.97321343E-02 0.10117722E+03</pdfrwt>
<totfact> 0.29663435E+04</totfact>
</mgrwt>
</event>
<event>
 6    1  0.1661841E-002  0.9301604E+02  0.7546771E-02  0.1382452E+00
          4   -1    0    0  501    0  0.00000000000E+00  0.00000000000E+00  0.10330407316E+03  0.10330407316E+03  0.00000000000E+00 0. -1.
         -4   -1    0    0    0  501 -0.00000000000E+00 -0.00000000000E+00 -0.33285832902E+02  0.33285832902E+02  0.00000000000E+00 0.  1.
         23    2    1    2    0    0  0.15230018195E+02  0.13898203399E+02  0.42659604358E+02  0.10233193662E+03  0.90702094224E+02 0.  0.
         11    1    3    3    0    0  0.29015923527E+02 -0.72795546210E+01 -0.19175136645E+02  0.35533105676E+02  0.00000000000E+00 0.  1.
        -11    1    3    3    0    0 -0.13785905332E+02  0.21177758020E+02  0.61834741004E+02  0.66798830945E+02  0.00000000000E+00 0. -1.
         22    1    1    2    0    0 -0.15230018195E+02 -0.13898203399E+02  0.27358635897E+02  0.34257969439E+02  0.00000000000E+00 0.  1.
<mgrwt>
<rscale>  0 0.63823629E+02</rscale>
<asrwt>0</asrwt>
<pdfrwt beam="1">  1        4 0.15892934E-01 0.93016038E+02</pdfrwt>
<pdfrwt beam="2">  1       -4 0.51208974E-02 0.93016038E+02</pdfrwt>
<totfact> 0.11417677E+04</totfact>
</mgrwt>
</event>
<event>
 6    1  0.1661841E-002  0.9318124E+02  0.7546771E-02  0.1417622E+00
          2   -1    0    0  501    0  0.00000000000E+00  0.00000000000E+00  0.19102816723E+03  0.19102816723E+03  0.00000000000E+00 0. -1.
         -2   -1    0    0    0  501 -0.00000000000E+00 -0.00000000000E+00 -0.14522639303E+02  0.14522639303E+02  0.00000000000E+00 0.  1.
         23    2    1    2    0    0  0.71637809582E+01 -0.93135716582E+01  0.15045575001E+03  0.17697366000E+03  0.92437445049E+02 0.  0.
         13    1    3    3    0    0  0.32496753841E+02  0.15654154113E+02  0.13212279444E+03  0.13695811170E+03  0.00000000000E+00 0. -1.
        -13    1    3    3    0    0 -0.25332972883E+02 -0.24967725771E+02  0.18332955572E+02  0.40015548294E+02  0.00000000000E+00 0.  1.
         22    1    1    2    0    0 -0.71637809582E+01  0.93135716582E+01  0.26049777916E+02  0.28577146536E+02  0.00000000000E+00 0.  1.
<mgrwt>
<rscale>  0 0.55527201E+02</rscale>
<asrwt>0</asrwt>
<pdfrwt beam="1">  1        2 0.29388947E-01 0.93181241E+02</pdfrwt>
<pdfrwt beam="2">  1       -2 0.22342523E-02 0.93181241E+02</pdfrwt>
<totfact> 0.10084217E+05</totfact>
</mgrwt>
</event>
<event>
 6    1  0.1661841E-002  0.9413808E+02  0.7546771E-02  0.1391719E+00
          2   -1    0    0  501    0  0.00000000000E+00  0.00000000000E+00  0.65346083954E+02  0.65346083954E+02  0.00000000000E+00 0. -1.
         -2   -1    0    0    0  501 -0.00000000000E+00 -0.00000000000E+00 -0.57425716317E+02  0.57425716317E+02  0.00000000000E+00 0.  1.
         23    2    1    2    0    0 -0.14814715425E+02  0.85933956033E+01 -0.13764757260E+02  0.95139086273E+02  0.92567029516E+02 0.  0.
         13    1    3    3    0    0 -0.47107565419E+02  0.91930942793E+01  0.16622384499E+02  0.50793103553E+02  0.00000000000E+00 0. -1.
        -13    1    3    3    0    0  0.32292849993E+02 -0.59969867601E+00 -0.30387141759E+02  0.44345982721E+02  0.00000000000E+00 0.  1.
         22    1    1    2    0    0  0.14814715425E+02 -0.85933956033E+01  0.21685124896E+02  0.27632713998E+02  0.00000000000E+00 0.  1.
<mgrwt>
<rscale>  0 0.61481168E+02</rscale>
<asrwt>0</asrwt>
<pdfrwt beam="1">  1        2 0.10053244E-01 0.94138075E+02</pdfrwt>
<pdfrwt beam="2">  1       -2 0.88347256E-02 0.94138075E+02</pdfrwt>
<totfact> 0.44673166E+04</totfact>
</mgrwt>
</event>
<event>
 6    1  0.1661841E-002  0.8695425E+02  0.7546771E-02  0.1425296E+00
         -4   -1    0    0    0  501 -0.00000000000E+00  0.00000000000E+00  0.11334746213E+03  0.11334746213E+03  0.00000000000E+00 0.  1.
          4   -1    0    0  501    0  0.00000000000E+00 -0.00000000000E+00 -0.30834517685E+02  0.30834517685E+02  0.00000000000E+00 0. -1.
         23    2    1    2    0    0  0.11698543820E+02  0.53233949123E+01  0.93201215603E+02  0.12746571225E+03  0.85999108998E+02 0.  0.
         13    1    3    3    0    0  0.54772351768E+01  0.44103951514E+02  0.66458506574E+02  0.79949307316E+02  0.00000000000E+00 0. -1.
        -13    1    3    3    0    0  0.62213086433E+01 -0.38780556601E+02  0.26742709029E+02  0.47516404933E+02  0.00000000000E+00 0.  1.
         22    1    1    2    0    0 -0.11698543820E+02 -0.53233949123E+01 -0.10688271160E+02  0.16716267565E+02  0.00000000000E+00 0. -1.
<mgrwt>
<rscale>  0 0.53915984E+02</rscale>
<asrwt>0</asrwt>
<pdfrwt beam="1">  1        4 0.47437720E-02 0.86954248E+02</pdfrwt>
<pdfrwt beam="2">  1       -4 0.17438071E-01 0.86954248E+02</pdfrwt>
<totfact> 0.10742514E+04</totfact>
</mgrwt>
</event>
<event>
 6    1  0.1661841E-002  0.9659215E+02  0.7546771E-02  0.1353948E+00
         -1   -1    0    0    0  501 -0.00000000000E+00  0.00000000000E+00  0.14109682674E+02  0.14109682674E+02  0.00000000000E+00 0.  1.
          1   -1    0    0  501    0  0.00000000000E+00 -0.00000000000E+00 -0.33853090631E+03  0.33853090631E+03  0.00000000000E+00 0. -1.
         23    2    1    2    0    0  0.15556780276E+02 -0.25128660528E+02 -0.17096803678E+03  0.19636729137E+03  0.91959667926E+02 0.  0.
         11    1    3    3    0    0  0.28360942693E+02  0.28431050244E+02 -0.88726072519E+02  0.97390880646E+02  0.00000000000E+00 0. -1.
        -11    1    3    3    0    0 -0.12804162417E+02 -0.53559710772E+02 -0.82241964265E+02  0.98976410722E+02  0.00000000000E+00 0.  1.
         22    1    1    2    0    0 -0.15556780276E+02  0.25128660528E+02 -0.15345318686E+03  0.15627329762E+03  0.00000000000E+00 0.  1.
<mgrwt>
<rscale>  0 0.71839275E+02</rscale>
<asrwt>0</asrwt>
<pdfrwt beam="1">  1        1 0.52081677E-01 0.96592150E+02</pdfrwt>
<pdfrwt beam="2">  1       -1 0.21707205E-02 0.96592150E+02</pdfrwt>
<totfact> 0.40530928E+04</totfact>
</mgrwt>
</event>
<event>
 6    1  0.1661841E-002  0.1594313E+03  0.7546771E-02  0.1198673E+00
          2   -1    0    0  501    0  0.00000000000E+00  0.00000000000E+00  0.19113595216E+03  0.19113595216E+03  0.00000000000E+00 0. -1.
         -2   -1    0    0    0  501 -0.00000000000E+00 -0.00000000000E+00 -0.15407788020E+03  0.15407788020E+03  0.00000000000E+00 0.  1.
         23    2    1    2    0    0 -0.10239102768E+03  0.79949057051E+02 -0.72627234607E+02  0.17519430187E+03  0.92425937526E+02 0.  0.
         11    1    3    3    0    0 -0.67171455819E+02  0.17552660596E+02  0.49354754845E+01  0.69602150032E+02  0.00000000000E+00 0. -1.
        -11    1    3    3    0    0 -0.35219571863E+02  0.62396396455E+02 -0.77562710091E+02  0.10559215184E+03  0.00000000000E+00 0.  1.
         22    1    1    2    0    0  0.10239102768E+03 -0.79949057051E+02  0.10968530657E+03  0.17001953050E+03  0.00000000000E+00 0. -1.
<mgrwt>
<rscale>  0 0.15147400E+03</rscale>
<asrwt>0</asrwt>
<pdfrwt beam="1">  1        2 0.29405531E-01 0.15943126E+03</pdfrwt>
<pdfrwt beam="2">  1       -2 0.23704289E-01 0.15943126E+03</pdfrwt>
<totfact> 0.27310742E+03</totfact>
</mgrwt>
</event>
<event>
 6    1  0.1661841E-002  0.9493727E+02  0.7546771E-02  0.1345621E+00
         -2   -1    0    0    0  501 -0.00000000000E+00  0.00000000000E+00  0.16542630800E+03  0.16542630800E+03  0.00000000000E+00 0.  1.
          2   -1    0    0  501    0  0.00000000000E+00 -0.00000000000E+00 -0.29755961764E+02  0.29755961764E+02  0.00000000000E+00 0. -1.
         23    2    1    2    0    0  0.13955294788E+02  0.33055982038E+02  0.12647380281E+03  0.15814141918E+03  0.87895605475E+02 0.  0.
         11    1    3    3    0    0  0.10020476529E+02 -0.18704688913E+02  0.95205180677E+02  0.97541282363E+02  0.00000000000E+00 0.  1.
        -11    1    3    3    0    0  0.39348182590E+01  0.51760670951E+02  0.31268622130E+02  0.60600136814E+02  0.00000000000E+00 0. -1.
         22    1    1    2    0    0 -0.13955294788E+02 -0.33055982038E+02  0.91965434274E+01  0.37040850586E+02  0.00000000000E+00 0.  1.
<mgrwt>
<rscale>  0 0.74437843E+02</rscale>
<asrwt>0</asrwt>
<pdfrwt beam="1">  1        2 0.45778404E-02 0.94937272E+02</pdfrwt>
<pdfrwt beam="2">  1       -2 0.25450201E-01 0.94937272E+02</pdfrwt>
<totfact> 0.21554356E+04</totfact>
</mgrwt>
</event>
<event>
 6    1  0.1661841E-002  0.8911671E+02  0.7546771E-02  0.1401962E+00
          2   -1    0    0  501    0  0.00000000000E+00  0.00000000000E+00  0.58762504317E+02  0.58762504317E+02  0.00000000000E+00 0. -1.
         -2   -1    0    0    0  501 -0.00000000000E+00 -0.00000000000E+00 -0.50759094304E+02  0.50759094304E+02  0.00000000000E+00 0.  1.
         23    2    1    2    0    0 -0.16389837760E+02 -0.50562831690E+01  0.16092096864E+02  0.90557958774E+02  0.87450531928E+02 0.  0.
         11    1    3    3    0    0 -0.14822909908E+02 -0.35248091563E+02  0.37465554322E+02  0.53533301576E+02  0.00000000000E+00 0. -1.
        -11    1    3    3    0    0 -0.15669278526E+01  0.30191808394E+02 -0.21373457457E+02  0.37024657198E+02  0.00000000000E+00 0.  1.
         22    1    1    2    0    0  0.16389837760E+02  0.50562831690E+01 -0.80886868516E+01  0.18963639848E+02  0.00000000000E+00 0.  1.
<mgrwt>
<rscale>  0 0.59026681E+02</rscale>
<asrwt>0</asrwt>
<pdfrwt beam="1">  1        2 0.90403853E-02 0.89116712E+02</pdfrwt>
<pdfrwt beam="2">  1       -2 0.78090914E-02 0.89116712E+02</pdfrwt>
<totfact> 0.60959001E+04</totfact>
</mgrwt>
</event>
<event>
 6    1  0.1661841E-002  0.9330738E+02  0.7546771E-02  0.1390853E+00
          2   -1    0    0  501    0  0.00000000000E+00  0.00000000000E+00  0.25597168077E+03  0.25597168077E+03  0.00000000000E+00 0. -1.
         -2   -1    0    0    0  501 -0.00000000000E+00 -0.00000000000E+00 -0.12127180055E+02  0.12127180055E+02  0.00000000000E+00 0.  1.
         23    2    1    2    0    0 -0.34563040379E+01  0.17496092496E+02  0.19718427251E+03  0.21814652168E+03  0.91587162334E+02 0.  0.
         13    1    3    3    0    0  0.39043634710E+02  0.10054928155E+01  0.46545903849E+02  0.60761316578E+02  0.00000000000E+00 0.  1.
        -13    1    3    3    0    0 -0.42499938748E+02  0.16490599680E+02  0.15063836866E+03  0.15738520510E+03  0.00000000000E+00 0. -1.
         22    1    1    2    0    0  0.34563040379E+01 -0.17496092496E+02  0.46660228201E+02  0.49952339144E+02  0.00000000000E+00 0.  1.
<mgrwt>
<rscale>  0 0.61695078E+02</rscale>
<asrwt>0</asrwt>
<pdfrwt beam="1">  1        2 0.39380255E-01 0.93307382E+02</pdfrwt>
<pdfrwt beam="2">  1       -2 0.18657202E-02 0.93307382E+02</pdfrwt>
<totfact> 0.95835274E+04</totfact>
</mgrwt>
</event>
<event>
 6    1  0.1661841E-002  0.1039243E+03  0.7546771E-02  0.1381129E+00
          2   -1    0    0  501    0  0.00000000000E+00  0.00000000000E+00  0.10811696534E+03  0.10811696534E+03  0.00000000000E+00 0. -1.
         -2   -1    0    0    0  501 -0.00000000000E+00 -0.00000000000E+00 -0.37376996559E+02  0.37376996559E+02  0.00000000000E+00 0.  1.
         23    2    1    2    0    0 -0.94888996195E+00 -0.15075186011E+02  0.40210732877E+02  0.11143231381E+03  0.10282069781E+03 0.  0.
         11    1    3    3    0    0  0.27901953587E+02  0.25144761701E+02  0.48397185597E+02  0.61262269209E+02  0.00000000000E+00 0.  1.
        -11    1    3    3    0    0 -0.28850843549E+02 -0.40219947712E+02 -0.81864527195E+01  0.50170044604E+02  0.00000000000E+00 0. -1.
         22    1    1    2    0    0  0.94888996195E+00  0.15075186011E+02  0.30529235904E+02  0.34061648085E+02  0.00000000000E+00 0. -1.
<mgrwt>
<rscale>  0 0.64167943E+02</rscale>
<asrwt>0</asrwt>
<pdfrwt beam="1">  1        2 0.16633379E-01 0.10392429E+03</pdfrwt>
<pdfrwt beam="2">  1       -2 0.57503072E-02 0.10392429E+03</pdfrwt>
<totfact> 0.47998477E+04</totfact>
</mgrwt>
</event>
<event>
 6    1  0.1661841E-002  0.9492857E+02  0.7546771E-02  0.1342647E+00
         -2   -1    0    0    0  501 -0.00000000000E+00  0.00000000000E+00  0.10858368306E+02  0.10858368306E+02  0.00000000000E+00 0.  1.
          2   -1    0    0  501    0  0.00000000000E+00 -0.00000000000E+00 -0.41727284385E+03  0.41727284385E+03  0.00000000000E+00 0. -1.
         23    2    1    2    0    0  0.33398876791E+02 -0.17650833768E+02 -0.32085629488E+03  0.33460453584E+03  0.87088440900E+02 0.  0.
         11    1    3    3    0    0  0.51624144184E+01 -0.45276493922E+02 -0.95536716242E+02  0.10584836123E+03  0.00000000000E+00 0.  1.
        -11    1    3    3    0    0  0.28236462373E+02  0.27625660154E+02 -0.22531957864E+03  0.22875617461E+03  0.00000000000E+00 0. -1.
         22    1    1    2    0    0 -0.33398876791E+02  0.17650833768E+02 -0.85558180665E+02  0.93526676314E+02  0.00000000000E+00 0. -1.
<mgrwt>
<rscale>  0 0.75396660E+02</rscale>
<asrwt>0</asrwt>
<pdfrwt beam="1">  1        2 0.64195820E-01 0.94928570E+02</pdfrwt>
<pdfrwt beam="2">  1       -2 0.16705182E-02 0.94928570E+02</pdfrwt>
<totfact> 0.67414538E+04</totfact>
</mgrwt>
</event>
<event>
 6    1  0.1661841E-002  0.9287229E+02  0.7546771E-02  0.1419767E+00
          2   -1    0    0  501    0  0.00000000000E+00  0.00000000000E+00  0.23758861513E+02  0.23758861513E+02  0.00000000000E+00 0. -1.
         -2   -1    0    0    0  501 -0.00000000000E+00 -0.00000000000E+00 -0.29162587421E+03  0.29162587421E+03  0.00000000000E+00 0.  1.
         23    2    1    2    0    0 -0.97518850675E+01  0.60606491196E+01 -0.28215986393E+03  0.29705126015E+03  0.92159815599E+02 0.  0.
         11    1    3    3    0    0  0.29777737649E+01 -0.37211860992E+02 -0.62433418610E+02  0.72742844971E+02  0.00000000000E+00 0. -1.
        -11    1    3    3    0    0 -0.12729658832E+02  0.43272510112E+02 -0.21972644532E+03  0.22430841518E+03  0.00000000000E+00 0.  1.
         22    1    1    2    0    0  0.97518850675E+01 -0.60606491196E+01  0.14292851237E+02  0.18333475574E+02  0.00000000000E+00 0. -1.
<mgrwt>
<rscale>  0 0.55070206E+02</rscale>
<asrwt>0</asrwt>
<pdfrwt beam="1">  1        2 0.36552094E-02 0.92872290E+02</pdfrwt>
<pdfrwt beam="2">  1       -2 0.44865520E-01 0.92872290E+02</pdfrwt>
<totfact> 0.10265646E+04</totfact>
</mgrwt>
</event>
<event>
 6    1  0.1661841E-002  0.1023067E+03  0.7546771E-02  0.1320142E+00
          4   -1    0    0  501    0  0.00000000000E+00  0.00000000000E+00  0.22252001713E+02  0.22252001713E+02  0.00000000000E+00 0. -1.
         -4   -1    0    0    0  501 -0.00000000000E+00 -0.00000000000E+00 -0.28141225970E+03  0.28141225970E+03  0.00000000000E+00 0.  1.
         23    2    1    2    0    0  0.44365034507E+02  0.62397551915E+01 -0.22551356853E+03  0.24763488927E+03  0.91975420410E+02 0.  0.
         11    1    3    3    0    0  0.63686070063E+02  0.30628746435E+02 -0.14459034523E+03  0.16093602320E+03  0.00000000000E+00 0.  1.
        -11    1    3    3    0    0 -0.19321035556E+02 -0.24388991244E+02 -0.80923223301E+02  0.86698866072E+02  0.00000000000E+00 0. -1.
         22    1    1    2    0    0 -0.44365034507E+02 -0.62397551915E+01 -0.33646689456E+02  0.56029372146E+02  0.00000000000E+00 0. -1.
<mgrwt>
<rscale>  0 0.83224609E+02</rscale>
<asrwt>0</asrwt>
<pdfrwt beam="1">  1        4 0.34233849E-02 0.10230674E+03</pdfrwt>
<pdfrwt beam="2">  1       -4 0.43294194E-01 0.10230674E+03</pdfrwt>
<totfact> 0.34734380E+03</totfact>
</mgrwt>
</event>
<event>
 6    1  0.1661841E-002  0.1137987E+03  0.7546771E-02  0.1277995E+00
         -2   -1    0    0    0  501 -0.00000000000E+00  0.00000000000E+00  0.22699943548E+03  0.22699943548E+03  0.00000000000E+00 0.  1.
          2   -1    0    0  501    0  0.00000000000E+00 -0.00000000000E+00 -0.96465257584E+02  0.96465257584E+02  0.00000000000E+00 0. -1.
         23    2    1    2    0    0 -0.26605637600E+02  0.65715750087E+02  0.19620983526E+03  0.22682250905E+03  0.89015343604E+02 0.  0.
         13    1    3    3    0    0 -0.30210195508E+02  0.23915127039E+02  0.17615569589E+03  0.18032032167E+03  0.00000000000E+00 0.  1.
        -13    1    3    3    0    0  0.36045579080E+01  0.41800623049E+02  0.20054139372E+02  0.46502187378E+02  0.00000000000E+00 0. -1.
         22    1    1    2    0    0  0.26605637600E+02 -0.65715750087E+02 -0.65675657363E+02  0.96642184017E+02  0.00000000000E+00 0. -1.
<mgrwt>
<rscale>  0 0.10110215E+03</rscale>
<asrwt>0</asrwt>
<pdfrwt beam="1">  1        2 0.14840809E-01 0.11379873E+03</pdfrwt>
<pdfrwt beam="2">  1       -2 0.34922990E-01 0.11379873E+03</pdfrwt>
<totfact> 0.29008977E+03</totfact>
</mgrwt>
</event>
<event>
 6    1  0.1661841E-002  0.9331468E+02  0.7546771E-02  0.1418752E+00
          1   -1    0    0  501    0  0.00000000000E+00  0.00000000000E+00  0.13355898925E+02  0.13355898925E+02  0.00000000000E+00 0. -1.
         -1   -1    0    0    0  501 -0.00000000000E+00 -0.00000000000E+00 -0.20573478773E+03  0.20573478773E+03  0.00000000000E+00 0.  1.
         23    2    1    2    0    0 -0.37252166894E+01  0.10877298276E+02 -0.16970658069E+03  0.19366970295E+03  0.92603657889E+02 0.  0.
         13    1    3    3    0    0 -0.16207723599E+02  0.33153921261E+02 -0.20343266413E+02  0.42139308105E+02  0.00000000000E+00 0. -1.
        -13    1    3    3    0    0  0.12482506910E+02 -0.22276622985E+02 -0.14936331427E+03  0.15153039484E+03  0.00000000000E+00 0.  1.
         22    1    1    2    0    0  0.37252166894E+01 -0.10877298276E+02 -0.22672308115E+02  0.25420983703E+02  0.00000000000E+00 0. -1.
<mgrwt>
<rscale>  0 0.55285786E+02</rscale>
<asrwt>0</asrwt>
<pdfrwt beam="1">  1        1 0.20547536E-02 0.93314684E+02</pdfrwt>
<pdfrwt beam="2">  1       -1 0.31651508E-01 0.93314684E+02</pdfrwt>
<totfact> 0.46995083E+04</totfact>
</mgrwt>
</event>
<event>
 6    1  0.1661841E-002  0.9082640E+02  0.7546771E-02  0.1384905E+00
         -2   -1    0    0    0  501 -0.00000000000E+00  0.00000000000E+00  0.20474252674E+02  0.20474252674E+02  0.00000000000E+00 0.  1.
          2   -1    0    0  501    0  0.00000000000E+00 -0.00000000000E+00 -0.17901127731E+03  0.17901127731E+03  0.00000000000E+00 0. -1.
         23    2    1    2    0    0  0.18475248518E+02  0.10562912308E+02 -0.90578826775E+02  0.12827298488E+03  0.88297932393E+02 0.  0.
         13    1    3    3    0    0 -0.29664765535E+02 -0.12913613206E+02 -0.55521227785E+02  0.64260146709E+02  0.00000000000E+00 0. -1.
        -13    1    3    3    0    0  0.48140014053E+02  0.23476525514E+02 -0.35057598990E+02  0.64012838167E+02  0.00000000000E+00 0.  1.
         22    1    1    2    0    0 -0.18475248518E+02 -0.10562912308E+02 -0.67958197864E+02  0.71212545111E+02  0.00000000000E+00 0. -1.
<mgrwt>
<rscale>  0 0.63191775E+02</rscale>
<asrwt>0</asrwt>
<pdfrwt beam="1">  1        2 0.27540198E-01 0.90826399E+02</pdfrwt>
<pdfrwt beam="2">  1       -2 0.31498849E-02 0.90826399E+02</pdfrwt>
<totfact> 0.65501578E+04</totfact>
</mgrwt>
</event>
<event>
 6    1  0.1661841E-002  0.9196528E+02  0.7546771E-02  0.1430557E+00
         -2   -1    0    0    0  501 -0.00000000000E+00  0.00000000000E+00  0.34124004209E+02  0.34124004209E+02  0.00000000000E+00 0.  1.
          2   -1    0    0  501    0  0.00000000000E+00 -0.00000000000E+00 -0.80633320983E+02  0.80633320983E+02  0.00000000000E+00 0. -1.
         23    2    1    2    0    0  0.91977392516E+01 -0.39975237949E+01 -0.32522401426E+02  0.97546502877E+02  0.91416820253E+02 0.  0.
         11    1    3    3    0    0  0.25174582834E+02 -0.37458683402E+02  0.42410402937E+01  0.45330993877E+02  0.00000000000E+00 0.  1.
        -11    1    3    3    0    0 -0.15976843582E+02  0.33461159607E+02 -0.36763441720E+02  0.52215509000E+02  0.00000000000E+00 0. -1.
         22    1    1    2    0    0 -0.91977392516E+01  0.39975237949E+01 -0.13986915348E+02  0.17210822315E+02  0.00000000000E+00 0.  1.
<mgrwt>
<rscale>  0 0.52848314E+02</rscale>
<asrwt>0</asrwt>
<pdfrwt beam="1">  1        2 0.12405126E-01 0.91965285E+02</pdfrwt>
<pdfrwt beam="2">  1       -2 0.52498469E-02 0.91965285E+02</pdfrwt>
<totfact> 0.76103640E+04</totfact>
</mgrwt>
</event>
<event>
 6    1  0.1661841E-002  0.9417464E+02  0.7546771E-02  0.1421494E+00
         -4   -1    0    0    0  501 -0.00000000000E+00  0.00000000000E+00  0.48469586528E+03  0.48469586528E+03  0.00000000000E+00 0.  1.
          4   -1    0    0  501    0  0.00000000000E+00 -0.00000000000E+00 -0.73191824318E+01  0.73191824318E+01  0.00000000000E+00 0. -1.
         23    2    1    2    0    0 -0.10194731856E+02 -0.33263124958E+01  0.46912466901E+03  0.47848387464E+03  0.93562098638E+02 0.  0.
         13    1    3    3    0    0  0.10644844640E+02  0.34377337883E+02  0.90136817260E+02  0.97055447570E+02  0.00000000000E+00 0. -1.
        -13    1    3    3    0    0 -0.20839576496E+02 -0.37703650379E+02  0.37898785175E+03  0.38142842707E+03  0.00000000000E+00 0.  1.
         22    1    1    2    0    0  0.10194731856E+02  0.33263124958E+01  0.82520138430E+01  0.13531173080E+02  0.00000000000E+00 0.  1.
<mgrwt>
<rscale>  0 0.54706163E+02</rscale>
<asrwt>0</asrwt>
<pdfrwt beam="1">  1        4 0.11260284E-02 0.94174642E+02</pdfrwt>
<pdfrwt beam="2">  1       -4 0.74568570E-01 0.94174642E+02</pdfrwt>
<totfact> 0.60489030E+03</totfact>
</mgrwt>
</event>
<event>
 6    1  0.1661841E-002  0.9032038E+02  0.7546771E-02  0.1423348E+00
         -2   -1    0    0    0  501 -0.00000000000E+00  0.00000000000E+00  0.98845048413E+01  0.98845048413E+01  0.00000000000E+00 0.  1.
          2   -1    0    0  501    0  0.00000000000E+00 -0.00000000000E+00 -0.26395370517E+03  0.26395370517E+03  0.00000000000E+00 0. -1.
         23    2    1    2    0    0 -0.57167043964E+01 -0.10340178906E+02 -0.22645924575E+03  0.24380640020E+03  0.89544239245E+02 0.  0.
         11    1    3    3    0    0  0.10920459556E+02 -0.37413678960E+02 -0.44765339650E+02  0.59354658150E+02  0.00000000000E+00 0.  1.
        -11    1    3    3    0    0 -0.16637163953E+02  0.27073500054E+02 -0.18169390610E+03  0.18445174205E+03  0.00000000000E+00 0. -1.
         22    1    1    2    0    0  0.57167043964E+01  0.10340178906E+02 -0.27609954579E+02  0.30031809816E+02  0.00000000000E+00 0. -1.
<mgrwt>
<rscale>  0 0.54318778E+02</rscale>
<asrwt>0</asrwt>
<pdfrwt beam="1">  1        2 0.40608264E-01 0.90320379E+02</pdfrwt>
<pdfrwt beam="2">  1       -2 0.15206930E-02 0.90320379E+02</pdfrwt>
<totfact> 0.12372103E+05</totfact>
</mgrwt>
</event>
<event>
 6    1  0.1661841E-002  0.9126755E+02  0.7546771E-02  0.1385497E+00
         -2   -1    0    0    0  501 -0.00000000000E+00  0.00000000000E+00  0.62166066006E+02  0.62166066006E+02  0.00000000000E+00 0.  1.
          2   -1    0    0  501    0  0.00000000000E+00 -0.00000000000E+00 -0.61862833762E+02  0.61862833762E+02  0.00000000000E+00 0. -1.
         23    2    1    2    0    0  0.20765193023E+02  0.62363302354E+00  0.22113145318E+02  0.93908234640E+02  0.88871723163E+02 0.  0.
         13    1    3    3    0    0 -0.45687316803E+01  0.42118355686E+02  0.66021858721E+01  0.42876777551E+02  0.00000000000E+00 0. -1.
        -13    1    3    3    0    0  0.25333924704E+02 -0.41494722662E+02  0.15510959446E+02  0.51031457089E+02  0.00000000000E+00 0.  1.
         22    1    1    2    0    0 -0.20765193023E+02 -0.62363302354E+00 -0.21809913074E+02  0.30120665128E+02  0.00000000000E+00 0. -1.
<mgrwt>
<rscale>  0 0.63040583E+02</rscale>
<asrwt>0</asrwt>
<pdfrwt beam="1">  1        2 0.95173590E-02 0.91267548E+02</pdfrwt>
<pdfrwt beam="2">  1       -2 0.95640102E-02 0.91267548E+02</pdfrwt>
<totfact> 0.42066873E+04</totfact>
</mgrwt>
</event>
<event>
 6    1  0.1661841E-002  0.9176328E+02  0.7546771E-02  0.1388671E+00
         -2   -1    0    0    0  501 -0.00000000000E+00  0.00000000000E+00  0.16965137143E+02  0.16965137143E+02  0.00000000000E+00 0.  1.
          2   -1    0    0  501    0  0.00000000000E+00 -0.00000000000E+00 -0.24574007639E+03  0.24574007639E+03  0.00000000000E+00 0. -1.
         23    2    1    2    0    0  0.15280384465E+02  0.11983648502E+02 -0.11421617646E+03  0.14651223564E+03  0.89685016841E+02 0.  0.
         13    1    3    3    0    0  0.96685722311E+01  0.12946052660E+02 -0.12934350764E+03  0.13034885706E+03  0.00000000000E+00 0. -1.
        -13    1    3    3    0    0  0.56118122341E+01 -0.96240415839E+00  0.15127331181E+02  0.16163378576E+02  0.00000000000E+00 0.  1.
         22    1    1    2    0    0 -0.15280384465E+02 -0.11983648502E+02 -0.11455876278E+03  0.11619297789E+03  0.00000000000E+00 0. -1.
<mgrwt>
<rscale>  0 0.62238409E+02</rscale>
<asrwt>0</asrwt>
<pdfrwt beam="1">  1        2 0.37806164E-01 0.91763284E+02</pdfrwt>
<pdfrwt beam="2">  1       -2 0.26100212E-02 0.91763284E+02</pdfrwt>
<totfact> 0.61524039E+04</totfact>
</mgrwt>
</event>
<event>
 6    1  0.1661841E-002  0.9326597E+02  0.7546771E-02  0.1371345E+00
         -2   -1    0    0    0  501 -0.00000000000E+00  0.00000000000E+00  0.21014527069E+02  0.21014527069E+02  0.00000000000E+00 0.  1.
          2   -1    0    0  501    0  0.00000000000E+00 -0.00000000000E+00 -0.16673456049E+03  0.16673456049E+03  0.00000000000E+00 0. -1.
         23    2    1    2    0    0  0.97570035700E+01 -0.22512125818E+02 -0.12254007524E+03  0.15399548940E+03  0.89980807887E+02 0.  0.
         13    1    3    3    0    0 -0.11106702482E+02 -0.47372459203E+01  0.11802825177E+02  0.16885112410E+02  0.00000000000E+00 0.  1.
        -13    1    3    3    0    0  0.20863706052E+02 -0.17774879898E+02 -0.13434290042E+03  0.13711037699E+03  0.00000000000E+00 0. -1.
         22    1    1    2    0    0 -0.97570035700E+01  0.22512125818E+02 -0.23179958181E+02  0.33753598160E+02  0.00000000000E+00 0.  1.
<mgrwt>
<rscale>  0 0.66794623E+02</rscale>
<asrwt>0</asrwt>
<pdfrwt beam="1">  1        2 0.25651470E-01 0.93265968E+02</pdfrwt>
<pdfrwt beam="2">  1       -2 0.32330043E-02 0.93265968E+02</pdfrwt>
<totfact> 0.68357656E+04</totfact>
</mgrwt>
</event>
<event>
 6    1  0.1661841E-002  0.8276488E+02  0.7546771E-02  0.1446086E+00
         -2   -1    0    0    0  501 -0.00000000000E+00  0.00000000000E+00  0.27673936492E+02  0.27673936492E+02  0.00000000000E+00 0.  1.
          2   -1    0    0  501    0  0.00000000000E+00 -0.00000000000E+00 -0.85529050742E+02  0.85529050742E+02  0.00000000000E+00 0. -1.
         23    2    1    2    0    0  0.86750733718E+00 -0.10868554231E+02 -0.39161949287E+02  0.91562459136E+02  0.82043571418E+02 0.  0.
         11    1    3    3    0    0  0.86887228473E+01  0.34814277591E+02 -0.22277399203E+02  0.42235178988E+02  0.00000000000E+00 0. -1.
        -11    1    3    3    0    0 -0.78212155101E+01 -0.45682831821E+02 -0.16884550083E+02  0.49327280148E+02  0.00000000000E+00 0.  1.
         22    1    1    2    0    0 -0.86750733718E+00  0.10868554231E+02 -0.18693164963E+02  0.21640528098E+02  0.00000000000E+00 0.  1.
<mgrwt>
<rscale>  0 0.49862297E+02</rscale>
<asrwt>0</asrwt>
<pdfrwt beam="1">  1        2 0.13158315E-01 0.82764882E+02</pdfrwt>
<pdfrwt beam="2">  1       -2 0.42575288E-02 0.82764882E+02</pdfrwt>
<totfact> 0.95234459E+04</totfact>
</mgrwt>
</event>
<event>
 6    1  0.1661841E-002  0.8822193E+02  0.7546771E-02  0.1436283E+00
          2   -1    0    0  501    0  0.00000000000E+00  0.00000000000E+00  0.17866739565E+02  0.17866739565E+02  0.00000000000E+00 0.  1.
         -2   -1    0    0    0  501 -0.00000000000E+00 -0.00000000000E+00 -0.18515759806E+03  0.18515759806E+03  0.00000000000E+00 0. -1.
         23    2    1    2    0    0  0.34405452467E+01  0.98359753601E+01 -0.17062522119E+03  0.19208350870E+03  0.87604363173E+02 0.  0.
         11    1    3    3    0    0  0.15801200769E+02  0.27866090867E+02 -0.15793093822E+02  0.35715805723E+02  0.00000000000E+00 0.  1.
        -11    1    3    3    0    0 -0.12360655523E+02 -0.18030115507E+02 -0.15483212737E+03  0.15636770298E+03  0.00000000000E+00 0. -1.
         22    1    1    2    0    0 -0.34405452467E+01 -0.98359753601E+01  0.33343626957E+01  0.10940828920E+02  0.00000000000E+00 0.  1.
<mgrwt>
<rscale>  0 0.51719344E+02</rscale>
<asrwt>0</asrwt>
<pdfrwt beam="1">  1        2 0.27487291E-02 0.88221926E+02</pdfrwt>
<pdfrwt beam="2">  1       -2 0.28485785E-01 0.88221926E+02</pdfrwt>
<totfact> 0.34302228E+04</totfact>
</mgrwt>
</event>
<event>
 6    1  0.1661841E-002  0.9679360E+02  0.7546771E-02  0.1365489E+00
          3   -1    0    0  501    0  0.00000000000E+00  0.00000000000E+00  0.48837064251E+02  0.48837064251E+02  0.00000000000E+00 0. -1.
         -3   -1    0    0    0  501 -0.00000000000E+00 -0.00000000000E+00 -0.75004242466E+02  0.75004242466E+02  0.00000000000E+00 0.  1.
         23    2    1    2    0    0  0.21506655360E+02  0.11073183387E+02 -0.22509239227E+02  0.99376390352E+02  0.93722193176E+02 0.  0.
         11    1    3    3    0    0  0.38773909291E+02  0.17274562981E+02  0.24432004857E+02  0.48977029608E+02  0.00000000000E+00 0. -1.
        -11    1    3    3    0    0 -0.17267253931E+02 -0.62013795935E+01 -0.46941244084E+02  0.50399360743E+02  0.00000000000E+00 0.  1.
         22    1    1    2    0    0 -0.21506655360E+02 -0.11073183387E+02 -0.36579389879E+01  0.24464916365E+02  0.00000000000E+00 0.  1.
<mgrwt>
<rscale>  0 0.68437405E+02</rscale>
<asrwt>0</asrwt>
<pdfrwt beam="1">  1        3 0.75133945E-02 0.96793601E+02</pdfrwt>
<pdfrwt beam="2">  1       -3 0.11539114E-01 0.96793601E+02</pdfrwt>
<totfact> 0.14298370E+04</totfact>
</mgrwt>
</event>
<event>
 6    1  0.1661841E-002  0.1028500E+03  0.7546771E-02  0.1318992E+00
         -2   -1    0    0    0  501 -0.00000000000E+00  0.00000000000E+00  0.72818276598E+02  0.72818276598E+02  0.00000000000E+00 0.  1.
          2   -1    0    0  501    0  0.00000000000E+00 -0.00000000000E+00 -0.13345193933E+03  0.13345193933E+03  0.00000000000E+00 0. -1.
         23    2    1    2    0    0 -0.90739427058E+01 -0.44087051646E+02 -0.10220667590E+03  0.14499771000E+03  0.92477709468E+02 0.  0.
         13    1    3    3    0    0 -0.41459326298E+02  0.26929511492E+01 -0.23043405400E+02  0.47509222846E+02  0.00000000000E+00 0.  1.
        -13    1    3    3    0    0  0.32385383592E+02 -0.46780002795E+02 -0.79163270501E+02  0.97488487158E+02  0.00000000000E+00 0. -1.
         22    1    1    2    0    0  0.90739427058E+01  0.44087051646E+02  0.41573013166E+02  0.61272505928E+02  0.00000000000E+00 0.  1.
<mgrwt>
<rscale>  0 0.83653364E+02</rscale>
<asrwt>0</asrwt>
<pdfrwt beam="1">  1        2 0.20531067E-01 0.10285004E+03</pdfrwt>
<pdfrwt beam="2">  1       -2 0.11202812E-01 0.10285004E+03</pdfrwt>
<totfact> 0.13564841E+04</totfact>
</mgrwt>
</event>
<event>
 6    1  0.1661841E-002  0.9692507E+02  0.7546771E-02  0.1342000E+00
         -2   -1    0    0    0  501 -0.00000000000E+00  0.00000000000E+00  0.33999157917E+03  0.33999157917E+03  0.00000000000E+00 0.  1.
          2   -1    0    0  501    0  0.00000000000E+00 -0.00000000000E+00 -0.14467809750E+02  0.14467809750E+02  0.00000000000E+00 0. -1.
         23    2    1    2    0    0  0.22157300786E+02 -0.28231740657E+02  0.17848567970E+03  0.20310491430E+03  0.90036054982E+02 0.  0.
         13    1    3    3    0    0  0.45352133388E+02 -0.36987984390E+02  0.16458760741E+03  0.17468259073E+03  0.00000000000E+00 0.  1.
        -13    1    3    3    0    0 -0.23194832602E+02  0.87562437331E+01  0.13898072293E+02  0.28422323572E+02  0.00000000000E+00 0. -1.
         22    1    1    2    0    0 -0.22157300786E+02  0.28231740657E+02  0.14703808973E+03  0.15135447462E+03  0.00000000000E+00 0.  1.
<mgrwt>
<rscale>  0 0.75607625E+02</rscale>
<asrwt>0</asrwt>
<pdfrwt beam="1">  1        2 0.22258171E-02 0.96925066E+02</pdfrwt>
<pdfrwt beam="2">  1       -2 0.52306391E-01 0.96925066E+02</pdfrwt>
<totfact> 0.14806906E+04</totfact>
</mgrwt>
</event>
<event>
 6    1  0.1661841E-002  0.9852382E+02  0.7546771E-02  0.1323861E+00
         -4   -1    0    0    0  501 -0.00000000000E+00  0.00000000000E+00  0.28732478233E+03  0.28732478233E+03  0.00000000000E+00 0. -1.
          4   -1    0    0  501    0  0.00000000000E+00 -0.00000000000E+00 -0.18695924809E+02  0.18695924809E+02  0.00000000000E+00 0.  1.
         23    2    1    2    0    0  0.71387848206E+01 -0.46401500546E+02  0.19883765751E+03  0.22190844228E+03  0.86619173435E+02 0.  0.
         11    1    3    3    0    0 -0.34226504669E+02 -0.41110221583E+02  0.13930549719E+03  0.14922307291E+03  0.00000000000E+00 0. -1.
        -11    1    3    3    0    0  0.41365289490E+02 -0.52912789629E+01  0.59532160327E+02  0.72685369372E+02  0.00000000000E+00 0.  1.
         22    1    1    2    0    0 -0.71387848206E+01  0.46401500546E+02  0.69791200002E+02  0.84112264857E+02  0.00000000000E+00 0. -1.
<mgrwt>
<rscale>  0 0.81857578E+02</rscale>
<asrwt>0</asrwt>
<pdfrwt beam="1">  1        4 0.28762963E-02 0.98523818E+02</pdfrwt>
<pdfrwt beam="2">  1       -4 0.44203809E-01 0.98523818E+02</pdfrwt>
<totfact> 0.43294572E+03</totfact>
</mgrwt>
</event>
<event>
 6    1  0.1661841E-002  0.9229265E+02  0.7546771E-02  0.1418539E+00
         -1   -1    0    0    0  501 -0.00000000000E+00  0.00000000000E+00  0.60469537403E+02  0.60469537403E+02  0.00000000000E+00 0.  1.
          1   -1    0    0  501    0  0.00000000000E+00 -0.00000000000E+00 -0.49375541543E+02  0.49375541543E+02  0.00000000000E+00 0. -1.
         23    2    1    2    0    0 -0.11922142831E+02 -0.12973254656E+00  0.20638977848E+02  0.94572194433E+02  0.91519277931E+02 0.  0.
         13    1    3    3    0    0  0.35290375545E+02 -0.11835417795E+01 -0.11856638729E+02  0.37247701395E+02  0.00000000000E+00 0. -1.
        -13    1    3    3    0    0 -0.47212518376E+02  0.10538092330E+01  0.32495616577E+02  0.57324493038E+02  0.00000000000E+00 0.  1.
         22    1    1    2    0    0  0.11922142831E+02  0.12973254656E+00 -0.95449819874E+01  0.15272884513E+02  0.00000000000E+00 0.  1.
<mgrwt>
<rscale>  0 0.55331231E+02</rscale>
<asrwt>0</asrwt>
<pdfrwt beam="1">  1        1 0.75962372E-02 0.92292646E+02</pdfrwt>
<pdfrwt beam="2">  1       -1 0.93030057E-02 0.92292646E+02</pdfrwt>
<totfact> 0.54631167E+04</totfact>
</mgrwt>
</event>
<event>
 6    1  0.1661841E-002  0.9519751E+02  0.7546771E-02  0.1355118E+00
          2   -1    0    0  501    0  0.00000000000E+00  0.00000000000E+00  0.67455662563E+02  0.67455662563E+02  0.00000000000E+00 0. -1.
         -2   -1    0    0    0  501 -0.00000000000E+00 -0.00000000000E+00 -0.10501948798E+03  0.10501948798E+03  0.00000000000E+00 0.  1.
         23    2    1    2    0    0 -0.26462840881E+02  0.14688532805E+02 -0.77227219736E+02  0.12258306909E+03  0.90258132126E+02 0.  0.
         11    1    3    3    0    0 -0.29855503414E+02 -0.43244629546E+01 -0.92922321126E+02  0.97696519014E+02  0.00000000000E+00 0.  1.
        -11    1    3    3    0    0  0.33926625328E+01  0.19012995760E+02  0.15695101390E+02  0.24886550072E+02  0.00000000000E+00 0. -1.
         22    1    1    2    0    0  0.26462840881E+02 -0.14688532805E+02  0.39663394318E+02  0.49892081459E+02  0.00000000000E+00 0. -1.
<mgrwt>
<rscale>  0 0.71483892E+02</rscale>
<asrwt>0</asrwt>
<pdfrwt beam="1">  1        2 0.10377794E-01 0.95197507E+02</pdfrwt>
<pdfrwt beam="2">  1       -2 0.16156844E-01 0.95197507E+02</pdfrwt>
<totfact> 0.16548204E+04</totfact>
</mgrwt>
</event>
<event>
 6    1  0.1661841E-002  0.9667960E+02  0.7546771E-02  0.1350181E+00
         -2   -1    0    0    0  501 -0.00000000000E+00  0.00000000000E+00  0.81566928618E+02  0.81566928618E+02  0.00000000000E+00 0.  1.
          2   -1    0    0  501    0  0.00000000000E+00 -0.00000000000E+00 -0.61034860756E+02  0.61034860756E+02  0.00000000000E+00 0. -1.
         23    2    1    2    0    0 -0.22550568144E+02 -0.21885901464E+02  0.41090686073E+02  0.10504945803E+03  0.91429882119E+02 0.  0.
         13    1    3    3    0    0  0.11385586615E+02  0.10068216191E+02 -0.21918754611E+02  0.26672689469E+02  0.00000000000E+00 0. -1.
        -13    1    3    3    0    0 -0.33936154759E+02 -0.31954117655E+02  0.63009440684E+02  0.78376768562E+02  0.00000000000E+00 0.  1.
         22    1    1    2    0    0  0.22550568144E+02  0.21885901464E+02 -0.20558618211E+02  0.37552331343E+02  0.00000000000E+00 0. -1.
<mgrwt>
<rscale>  0 0.72999418E+02</rscale>
<asrwt>0</asrwt>
<pdfrwt beam="1">  1        2 0.93899786E-02 0.96679595E+02</pdfrwt>
<pdfrwt beam="2">  1       -2 0.12548758E-01 0.96679595E+02</pdfrwt>
<totfact> 0.28129378E+04</totfact>
</mgrwt>
</event>
<event>
 6    1  0.1661841E-002  0.9750872E+02  0.7546771E-02  0.1403780E+00
         -2   -1    0    0    0  501 -0.00000000000E+00  0.00000000000E+00  0.82678246395E+01  0.82678246395E+01  0.00000000000E+00 0.  1.
          2   -1    0    0  501    0  0.00000000000E+00 -0.00000000000E+00 -0.36865463525E+03  0.36865463525E+03  0.00000000000E+00 0. -1.
         23    2    1    2    0    0  0.10770028089E+02 -0.67748222481E+01 -0.32530231753E+03  0.33960204488E+03  0.96675019404E+02 0.  0.
         13    1    3    3    0    0  0.31403708313E+02 -0.43773858069E+02 -0.15445694338E+03  0.16358267299E+03  0.00000000000E+00 0. -1.
        -13    1    3    3    0    0 -0.20633680223E+02  0.36999035821E+02 -0.17084537415E+03  0.17601937189E+03  0.00000000000E+00 0.  1.
         22    1    1    2    0    0 -0.10770028089E+02  0.67748222481E+01 -0.35084493079E+02  0.37320415005E+02  0.00000000000E+00 0.  1.
<mgrwt>
<rscale>  0 0.58605137E+02</rscale>
<asrwt>0</asrwt>
<pdfrwt beam="1">  1        2 0.56716096E-01 0.97508723E+02</pdfrwt>
<pdfrwt beam="2">  1       -2 0.12719731E-02 0.97508723E+02</pdfrwt>
<totfact> 0.11379624E+05</totfact>
</mgrwt>
</event>
<event>
 6    1  0.1661841E-002  0.9326426E+02  0.7546771E-02  0.1390766E+00
         -2   -1    0    0    0  501 -0.00000000000E+00  0.00000000000E+00  0.18650099541E+02  0.18650099541E+02  0.00000000000E+00 0. -1.
          2   -1    0    0  501    0  0.00000000000E+00 -0.00000000000E+00 -0.16747226429E+03  0.16747226429E+03  0.00000000000E+00 0.  1.
         23    2    1    2    0    0 -0.16396747630E+02 -0.71398962302E+01 -0.11704923080E+03  0.14966210077E+03  0.91533548625E+02 0.  0.
         13    1    3    3    0    0 -0.53790449116E+02  0.53378533582E+00 -0.55923644300E+02  0.77596078089E+02  0.00000000000E+00 0. -1.
        -13    1    3    3    0    0  0.37393701487E+02 -0.76736815660E+01 -0.61125586501E+02  0.72066022678E+02  0.00000000000E+00 0.  1.
         22    1    1    2    0    0  0.16396747630E+02  0.71398962302E+01 -0.31772933945E+02  0.36460263061E+02  0.00000000000E+00 0. -1.
<mgrwt>
<rscale>  0 0.61716541E+02</rscale>
<asrwt>0</asrwt>
<pdfrwt beam="1">  1        2 0.25764964E-01 0.93264259E+02</pdfrwt>
<pdfrwt beam="2">  1       -2 0.28692460E-02 0.93264259E+02</pdfrwt>
<totfact> 0.80942089E+04</totfact>
</mgrwt>
</event>
<event>
 6    1  0.1661841E-002  0.9436714E+02  0.7546771E-02  0.1366824E+00
         -4   -1    0    0    0  501 -0.00000000000E+00  0.00000000000E+00  0.46327580716E+03  0.46327580716E+03  0.00000000000E+00 0. -1.
          4   -1    0    0  501    0  0.00000000000E+00 -0.00000000000E+00 -0.79652981082E+01  0.79652981082E+01  0.00000000000E+00 0.  1.
         23    2    1    2    0    0  0.24740852588E+02  0.62994104690E+01  0.38631066303E+03  0.39766956791E+03  0.90848029740E+02 0.  0.
         11    1    3    3    0    0  0.75316932011E+01  0.39118731299E+02  0.31300122336E+03  0.31552617541E+03  0.00000000000E+00 0.  1.
        -11    1    3    3    0    0  0.17209159387E+02 -0.32819320830E+02  0.73309439670E+02  0.82143392499E+02  0.00000000000E+00 0. -1.
         22    1    1    2    0    0 -0.24740852588E+02 -0.62994104690E+01  0.68999846021E+02  0.73571537363E+02  0.00000000000E+00 0. -1.
<mgrwt>
<rscale>  0 0.68058010E+02</rscale>
<asrwt>0</asrwt>
<pdfrwt beam="1">  1        4 0.12254308E-02 0.94367139E+02</pdfrwt>
<pdfrwt beam="2">  1       -4 0.71273180E-01 0.94367139E+02</pdfrwt>
<totfact> 0.58759278E+03</totfact>
</mgrwt>
</event>
<event>
 6    1  0.1661841E-002  0.9321457E+02  0.7546771E-02  0.1404599E+00
          2   -1    0    0  501    0  0.00000000000E+00  0.00000000000E+00  0.19648371956E+02  0.19648371956E+02  0.00000000000E+00 0. -1.
         -2   -1    0    0    0  501 -0.00000000000E+00 -0.00000000000E+00 -0.19957483931E+03  0.19957483931E+03  0.00000000000E+00 0.  1.
         23    2    1    2    0    0 -0.13609645767E+02 -0.46371612769E+01 -0.18220612543E+03  0.20466565091E+03  0.92099027115E+02 0.  0.
         11    1    3    3    0    0 -0.12014791112E+02  0.43449248785E+02 -0.90355227831E+02  0.10097653005E+03  0.00000000000E+00 0. -1.
        -11    1    3    3    0    0 -0.15948546551E+01 -0.48086410062E+02 -0.91850897597E+02  0.10368912085E+03  0.00000000000E+00 0.  1.
         22    1    1    2    0    0  0.13609645767E+02  0.46371612769E+01  0.22796580742E+01  0.14557560357E+02  0.00000000000E+00 0. -1.
<mgrwt>
<rscale>  0 0.58416721E+02</rscale>
<asrwt>0</asrwt>
<pdfrwt beam="1">  1        2 0.30228265E-02 0.93214572E+02</pdfrwt>
<pdfrwt beam="2">  1       -2 0.30703821E-01 0.93214572E+02</pdfrwt>
<totfact> 0.26656807E+04</totfact>
</mgrwt>
</event>
<event>
 6    1  0.1661841E-002  0.9602976E+02  0.7546771E-02  0.1348417E+00
          2   -1    0    0  501    0  0.00000000000E+00  0.00000000000E+00  0.92697439022E+02  0.92697439022E+02  0.00000000000E+00 0. -1.
         -2   -1    0    0    0  501 -0.00000000000E+00 -0.00000000000E+00 -0.59894338860E+02  0.59894338860E+02  0.00000000000E+00 0.  1.
         23    2    1    2    0    0 -0.20412077235E+02 -0.25990404848E+02 -0.12152958880E+02  0.96795709151E+02  0.90164077433E+02 0.  0.
         11    1    3    3    0    0 -0.44217580295E+02 -0.16984256753E+02  0.23590183031E+02  0.52916501397E+02  0.00000000000E+00 0. -1.
        -11    1    3    3    0    0  0.23805503061E+02 -0.90061480953E+01 -0.35743141911E+02  0.43879207755E+02  0.00000000000E+00 0.  1.
         22    1    1    2    0    0  0.20412077235E+02  0.25990404848E+02  0.44956059042E+02  0.55796068731E+02  0.00000000000E+00 0. -1.
<mgrwt>
<rscale>  0 0.73551218E+02</rscale>
<asrwt>0</asrwt>
<pdfrwt beam="1">  1        2 0.14261144E-01 0.96029760E+02</pdfrwt>
<pdfrwt beam="2">  1       -2 0.92145137E-02 0.96029760E+02</pdfrwt>
<totfact> 0.27689530E+04</totfact>
</mgrwt>
</event>
<event>
 6    1  0.1661841E-002  0.9419501E+02  0.7546771E-02  0.1367523E+00
         -2   -1    0    0    0  501 -0.00000000000E+00  0.00000000000E+00  0.15845185132E+02  0.15845185132E+02  0.00000000000E+00 0.  1.
          2   -1    0    0  501    0  0.00000000000E+00 -0.00000000000E+00 -0.23720267166E+03  0.23720267166E+03  0.00000000000E+00 0. -1.
         23    2    1    2    0    0 -0.25373259943E+02 -0.16446457825E+00 -0.14806785826E+03  0.17549014293E+03  0.90713120579E+02 0.  0.
         11    1    3    3    0    0  0.41008972455E+01  0.11739479406E+01  0.11994902405E+02  0.12730797135E+02  0.00000000000E+00 0.  1.
        -11    1    3    3    0    0 -0.29474157189E+02 -0.13384125189E+01 -0.16006276067E+03  0.16275934579E+03  0.00000000000E+00 0. -1.
         22    1    1    2    0    0  0.25373259943E+02  0.16446457825E+00 -0.73289628262E+02  0.77557713862E+02  0.00000000000E+00 0.  1.
<mgrwt>
<rscale>  0 0.67860533E+02</rscale>
<asrwt>0</asrwt>
<pdfrwt beam="1">  1        2 0.36492720E-01 0.94195008E+02</pdfrwt>
<pdfrwt beam="2">  1       -2 0.24377207E-02 0.94195008E+02</pdfrwt>
<totfact> 0.70746704E+04</totfact>
</mgrwt>
</event>
<event>
 6    1  0.1661841E-002  0.9135875E+02  0.7546771E-02  0.1417913E+00
          2   -1    0    0  501    0  0.00000000000E+00  0.00000000000E+00  0.73882880663E+03  0.73882880663E+03  0.00000000000E+00 0. -1.
         -2   -1    0    0    0  501 -0.00000000000E+00 -0.00000000000E+00 -0.36559288115E+01  0.36559288115E+01  0.00000000000E+00 0.  1.
         23    2    1    2    0    0 -0.11547654482E+02  0.45492990236E+01  0.66027762815E+03  0.66656805171E+03  0.90511749963E+02 0.  0.
         13    1    3    3    0    0 -0.15146891187E+02  0.45365764427E+02  0.43227766278E+03  0.43491546148E+03  0.00000000000E+00 0.  1.
        -13    1    3    3    0    0  0.35992367046E+01 -0.40816465403E+02  0.22799996537E+03  0.23165259023E+03  0.00000000000E+00 0. -1.
         22    1    1    2    0    0  0.11547654482E+02 -0.45492990236E+01  0.74895249673E+02  0.75916683734E+02  0.00000000000E+00 0. -1.
<mgrwt>
<rscale>  0 0.55464917E+02</rscale>
<asrwt>0</asrwt>
<pdfrwt beam="1">  1        2 0.11366585E+00 0.91358751E+02</pdfrwt>
<pdfrwt beam="2">  1       -2 0.56245117E-03 0.91358751E+02</pdfrwt>
<totfact> 0.16628758E+05</totfact>
</mgrwt>
</event>
<event>
 6    1  0.1661841E-002  0.8835823E+02  0.7546771E-02  0.1427500E+00
          2   -1    0    0  501    0  0.00000000000E+00  0.00000000000E+00  0.29683251960E+03  0.29683251960E+03  0.00000000000E+00 0. -1.
         -2   -1    0    0    0  501 -0.00000000000E+00 -0.00000000000E+00 -0.84572997130E+01  0.84572997130E+01  0.00000000000E+00 0.  1.
         23    2    1    2    0    0 -0.80328690294E+01  0.87052937856E+01  0.25335558332E+03  0.26832112891E+03  0.87560650385E+02 0.  0.
         11    1    3    3    0    0 -0.15424673603E+02 -0.25614073537E+02  0.21189434762E+03  0.21399349493E+03  0.00000000000E+00 0. -1.
        -11    1    3    3    0    0  0.73918045734E+01  0.34319367322E+02  0.41461235701E+02  0.54327633982E+02  0.00000000000E+00 0.  1.
         22    1    1    2    0    0  0.80328690294E+01 -0.87052937856E+01  0.35019636561E+02  0.36968690396E+02  0.00000000000E+00 0.  1.
<mgrwt>
<rscale>  0 0.53465175E+02</rscale>
<asrwt>0</asrwt>
<pdfrwt beam="1">  1        2 0.45666533E-01 0.88358229E+02</pdfrwt>
<pdfrwt beam="2">  1       -2 0.13011233E-02 0.88358229E+02</pdfrwt>
<totfact> 0.13616464E+05</totfact>
</mgrwt>
</event>
<event>
 6    1  0.1661841E-002  0.1026929E+03  0.7546771E-02  0.1318707E+00
          2   -1    0    0  501    0  0.00000000000E+00  0.00000000000E+00  0.28369976245E+03  0.28369976245E+03  0.00000000000E+00 0.  1.
         -2   -1    0    0    0  501 -0.00000000000E+00 -0.00000000000E+00 -0.71422631897E+02  0.71422631897E+02  0.00000000000E+00 0. -1.
         23    2    1    2    0    0 -0.39607061577E+02 -0.22291626179E+02 -0.31287699835E+02  0.10735342428E+03  0.92088010184E+02 0.  0.
         11    1    3    3    0    0 -0.28011991736E+02  0.22356371088E+02 -0.46565019291E+02  0.58760361050E+02  0.00000000000E+00 0. -1.
        -11    1    3    3    0    0 -0.11595069841E+02 -0.44647997267E+02  0.15277319455E+02  0.48593063232E+02  0.00000000000E+00 0.  1.
         22    1    1    2    0    0  0.39607061577E+02  0.22291626179E+02  0.24356483039E+03  0.24776897007E+03  0.00000000000E+00 0.  1.
<mgrwt>
<rscale>  0 0.83760088E+02</rscale>
<asrwt>0</asrwt>
<pdfrwt beam="1">  1        2 0.43646117E-01 0.10269293E+03</pdfrwt>
<pdfrwt beam="2">  1       -2 0.10988097E-01 0.10269293E+03</pdfrwt>
<totfact> 0.62042823E+03</totfact>
</mgrwt>
</event>
<event>
 6    1  0.1661841E-002  0.1294423E+03  0.7546771E-02  0.1245982E+00
          2   -1    0    0  501    0  0.00000000000E+00  0.00000000000E+00  0.15378035180E+03  0.15378035180E+03  0.00000000000E+00 0. -1.
         -2   -1    0    0    0  501 -0.00000000000E+00 -0.00000000000E+00 -0.27020232810E+03  0.27020232810E+03  0.00000000000E+00 0.  1.
         23    2    1    2    0    0 -0.65382018737E+02  0.62148330621E+02 -0.23899292844E+03  0.27179574984E+03  0.92833649128E+02 0.  0.
         13    1    3    3    0    0 -0.77640616015E+02  0.20355623435E+02 -0.18991067787E+03  0.20617585268E+03  0.00000000000E+00 0.  1.
        -13    1    3    3    0    0  0.12258597278E+02  0.41792707186E+02 -0.49082250576E+02  0.65619897156E+02  0.00000000000E+00 0. -1.
         22    1    1    2    0    0  0.65382018737E+02 -0.62148330621E+02  0.12257095214E+03  0.15218693006E+03  0.00000000000E+00 0. -1.
<mgrwt>
<rscale>  0 0.11826785E+03</rscale>
<asrwt>0</asrwt>
<pdfrwt beam="1">  1        2 0.23658516E-01 0.12944230E+03</pdfrwt>
<pdfrwt beam="2">  1       -2 0.41569588E-01 0.12944230E+03</pdfrwt>
<totfact> 0.12400654E+03</totfact>
</mgrwt>
</event>
<event>
 6    1  0.1661841E-002  0.1016887E+03  0.7546771E-02  0.1323809E+00
          2   -1    0    0  501    0  0.00000000000E+00  0.00000000000E+00  0.20677144450E+03  0.20677144450E+03  0.00000000000E+00 0. -1.
         -2   -1    0    0    0  501 -0.00000000000E+00 -0.00000000000E+00 -0.28382896537E+02  0.28382896537E+02  0.00000000000E+00 0.  1.
         23    2    1    2    0    0  0.14852107941E+02 -0.40074606076E+02  0.85315583568E+02  0.13273785865E+03  0.92271507836E+02 0.  0.
         11    1    3    3    0    0  0.21122515264E+02 -0.57267958154E+02  0.94315082382E+02  0.11234373346E+03  0.00000000000E+00 0. -1.
        -11    1    3    3    0    0 -0.62704073232E+01  0.17193352078E+02 -0.89994988147E+01  0.20394125198E+02  0.00000000000E+00 0.  1.
         22    1    1    2    0    0 -0.14852107941E+02  0.40074606076E+02  0.93072964398E+02  0.10241648239E+03  0.00000000000E+00 0. -1.
<mgrwt>
<rscale>  0 0.81876396E+02</rscale>
<asrwt>0</asrwt>
<pdfrwt beam="1">  1        2 0.31810991E-01 0.10168869E+03</pdfrwt>
<pdfrwt beam="2">  1       -2 0.43665996E-02 0.10168869E+03</pdfrwt>
<totfact> 0.35253958E+04</totfact>
</mgrwt>
</event>
<event>
 6    1  0.1661841E-002  0.9155536E+02  0.7546771E-02  0.1412072E+00
         -2   -1    0    0    0  501 -0.00000000000E+00  0.00000000000E+00  0.44843921897E+01  0.44843921897E+01  0.00000000000E+00 0. -1.
          2   -1    0    0  501    0  0.00000000000E+00 -0.00000000000E+00 -0.61528786204E+03  0.61528786204E+03  0.00000000000E+00 0.  1.
         23    2    1    2    0    0  0.13495884478E+02  0.31808477293E+00 -0.53322787493E+03  0.54103082293E+03  0.90554650256E+02 0.  0.
         13    1    3    3    0    0 -0.12165822623E+02  0.36657493592E+02 -0.13786961332E+03  0.14317754487E+03  0.00000000000E+00 0. -1.
        -13    1    3    3    0    0  0.25661707101E+02 -0.36339408819E+02 -0.39535826160E+03  0.39785327806E+03  0.00000000000E+00 0.  1.
         22    1    1    2    0    0 -0.13495884478E+02 -0.31808477293E+00 -0.77575594925E+02  0.78741431303E+02  0.00000000000E+00 0.  1.
<mgrwt>
<rscale>  0 0.56733991E+02</rscale>
<asrwt>0</asrwt>
<pdfrwt beam="1">  1        2 0.94659649E-01 0.91555364E+02</pdfrwt>
<pdfrwt beam="2">  1       -2 0.68990665E-03 0.91555364E+02</pdfrwt>
<totfact> 0.15420526E+05</totfact>
</mgrwt>
</event>
<event>
 6    1  0.1661841E-002  0.9664959E+02  0.7546771E-02  0.1348801E+00
          2   -1    0    0  501    0  0.00000000000E+00  0.00000000000E+00  0.10603036737E+02  0.10603036737E+02  0.00000000000E+00 0. -1.
         -2   -1    0    0    0  501 -0.00000000000E+00 -0.00000000000E+00 -0.60247179425E+03  0.60247179425E+03  0.00000000000E+00 0.  1.
         23    2    1    2    0    0  0.88614205755E+01 -0.30960829315E+02 -0.55811928098E+03  0.56642587717E+03  0.91126531781E+02 0.  0.
         11    1    3    3    0    0  0.67126130147E+00 -0.27198690235E+02 -0.55662550667E+03  0.55729002685E+03  0.00000000000E+00 0.  1.
        -11    1    3    3    0    0  0.81901592740E+01 -0.37621390794E+01 -0.14937743067E+01  0.91358503198E+01  0.00000000000E+00 0. -1.
         22    1    1    2    0    0 -0.88614205755E+01  0.30960829315E+02 -0.33749476537E+02  0.46648953825E+02  0.00000000000E+00 0.  1.
<mgrwt>
<rscale>  0 0.73430665E+02</rscale>
<asrwt>0</asrwt>
<pdfrwt beam="1">  1        2 0.16312364E-02 0.96649586E+02</pdfrwt>
<pdfrwt beam="2">  1       -2 0.92687968E-01 0.96649586E+02</pdfrwt>
<totfact> 0.67395427E+03</totfact>
</mgrwt>
</event>
<event>
 6    1  0.1661841E-002  0.9525911E+02  0.7546771E-02  0.1404018E+00
          2   -1    0    0  501    0  0.00000000000E+00  0.00000000000E+00  0.67490292491E+02  0.67490292491E+02  0.00000000000E+00 0. -1.
         -2   -1    0    0    0  501 -0.00000000000E+00 -0.00000000000E+00 -0.45037628551E+02  0.45037628551E+02  0.00000000000E+00 0.  1.
         23    2    1    2    0    0  0.18062304627E+01  0.13474971921E+02  0.13406521048E+02  0.96197886199E+02  0.94283939066E+02 0.  0.
         11    1    3    3    0    0  0.88958593558E+01  0.30425892411E-01  0.53023885446E+02  0.53764948314E+02  0.00000000000E+00 0. -1.
        -11    1    3    3    0    0 -0.70896288931E+01  0.13444546029E+02 -0.39617364398E+02  0.42432937885E+02  0.00000000000E+00 0.  1.
         22    1    1    2    0    0 -0.18062304627E+01 -0.13474971921E+02  0.90461428916E+01  0.16330034843E+02  0.00000000000E+00 0.  1.
<mgrwt>
<rscale>  0 0.58550231E+02</rscale>
<asrwt>0</asrwt>
<pdfrwt beam="1">  1        2 0.10383122E-01 0.95259112E+02</pdfrwt>
<pdfrwt beam="2">  1       -2 0.69288659E-02 0.95259112E+02</pdfrwt>
<totfact> 0.62374637E+04</totfact>
</mgrwt>
</event>
<event>
 6    1  0.1661841E-002  0.9110488E+02  0.7546771E-02  0.1427937E+00
          2   -1    0    0  501    0  0.00000000000E+00  0.00000000000E+00  0.33619767066E+01  0.33619767066E+01  0.00000000000E+00 0.  1.
         -2   -1    0    0    0  501 -0.00000000000E+00 -0.00000000000E+00 -0.83436362299E+03  0.83436362299E+03  0.00000000000E+00 0. -1.
         23    2    1    2    0    0 -0.11329514310E+01  0.10674287235E+02 -0.79365536854E+03  0.79886728722E+03  0.90470296772E+02 0.  0.
         11    1    3    3    0    0  0.10129970673E+02  0.37108059266E+02 -0.15992811030E+03  0.16448898089E+03  0.00000000000E+00 0.  1.
        -11    1    3    3    0    0 -0.11262922104E+02 -0.26433772032E+02 -0.63372725823E+03  0.63437830633E+03  0.00000000000E+00 0. -1.
         22    1    1    2    0    0  0.11329514310E+01 -0.10674287235E+02 -0.37346277748E+02  0.38858312477E+02  0.00000000000E+00 0. -1.
<mgrwt>
<rscale>  0 0.53376376E+02</rscale>
<asrwt>0</asrwt>
<pdfrwt beam="1">  1        2 0.51722620E-03 0.91104877E+02</pdfrwt>
<pdfrwt beam="2">  1       -2 0.12836388E+00 0.91104877E+02</pdfrwt>
<totfact> 0.15100328E+04</totfact>
</mgrwt>
</event>
<event>
 6    1  0.1661841E-002  0.9489349E+02  0.7546771E-02  0.1370892E+00
         -1   -1    0    0    0  501 -0.00000000000E+00  0.00000000000E+00  0.99007673954E+02  0.99007673954E+02  0.00000000000E+00 0.  1.
          1   -1    0    0  501    0  0.00000000000E+00 -0.00000000000E+00 -0.45844549033E+02  0.45844549033E+02  0.00000000000E+00 0. -1.
         23    2    1    2    0    0  0.23454837199E+02  0.83365580773E+00  0.68306487947E+02  0.11692113254E+03  0.91945367299E+02 0.  0.
         13    1    3    3    0    0  0.56450819620E+02  0.43540963596E+01  0.60442509677E+02  0.82818779071E+02  0.00000000000E+00 0. -1.
        -13    1    3    3    0    0 -0.32995982421E+02 -0.35204405518E+01  0.78639782702E+01  0.34102353465E+02  0.00000000000E+00 0.  1.
         22    1    1    2    0    0 -0.23454837199E+02 -0.83365580773E+00 -0.15143363026E+02  0.27931090451E+02  0.00000000000E+00 0. -1.
<mgrwt>
<rscale>  0 0.66919697E+02</rscale>
<asrwt>0</asrwt>
<pdfrwt beam="1">  1        1 0.70530076E-02 0.94893493E+02</pdfrwt>
<pdfrwt beam="2">  1       -1 0.15231950E-01 0.94893493E+02</pdfrwt>
<totfact> 0.28499250E+04</totfact>
</mgrwt>
</event>
<event>
 6    1  0.1661841E-002  0.9731719E+02  0.7546771E-02  0.1357412E+00
          3   -1    0    0  501    0  0.00000000000E+00  0.00000000000E+00  0.68720254338E+02  0.68720254338E+02  0.00000000000E+00 0. -1.
         -3   -1    0    0    0  501 -0.00000000000E+00 -0.00000000000E+00 -0.57142420282E+02  0.57142420282E+02  0.00000000000E+00 0.  1.
         23    2    1    2    0    0  0.24646706675E+02  0.11632766724E+02  0.32761024078E+01  0.97372322571E+02  0.93422989378E+02 0.  0.
         13    1    3    3    0    0 -0.10678422847E+02  0.27799667050E+02  0.35898697657E+02  0.46642970489E+02  0.00000000000E+00 0. -1.
        -13    1    3    3    0    0  0.35325129522E+02 -0.16166900326E+02 -0.32622595249E+02  0.50729352082E+02  0.00000000000E+00 0.  1.
         22    1    1    2    0    0 -0.24646706675E+02 -0.11632766724E+02  0.83017316483E+01  0.28490352050E+02  0.00000000000E+00 0. -1.
<mgrwt>
<rscale>  0 0.70794548E+02</rscale>
<asrwt>0</asrwt>
<pdfrwt beam="1">  1        3 0.10572347E-01 0.97317195E+02</pdfrwt>
<pdfrwt beam="2">  1       -3 0.87911416E-02 0.97317195E+02</pdfrwt>
<totfact> 0.12836591E+04</totfact>
</mgrwt>
</event>
<event>
 6    1  0.1661841E-002  0.9240321E+02  0.7546771E-02  0.1413751E+00
          2   -1    0    0  501    0  0.00000000000E+00  0.00000000000E+00  0.24863265135E+03  0.24863265135E+03  0.00000000000E+00 0. -1.
         -2   -1    0    0    0  501 -0.00000000000E+00 -0.00000000000E+00 -0.11168366755E+02  0.11168366755E+02  0.00000000000E+00 0.  1.
         23    2    1    2    0    0 -0.81283584088E+01 -0.98791031431E+01  0.20308292855E+03  0.22311662724E+03  0.91513313758E+02 0.  0.
         11    1    3    3    0    0  0.19745923564E+02 -0.36563099753E+02  0.15987087760E+03  0.16518310830E+03  0.00000000000E+00 0. -1.
        -11    1    3    3    0    0 -0.27874281972E+02  0.26683996610E+02  0.43212050944E+02  0.57933518945E+02  0.00000000000E+00 0.  1.
         22    1    1    2    0    0  0.81283584088E+01  0.98791031431E+01  0.34381356050E+02  0.36684390865E+02  0.00000000000E+00 0.  1.
<mgrwt>
<rscale>  0 0.56365116E+02</rscale>
<asrwt>0</asrwt>
<pdfrwt beam="1">  1        2 0.38251173E-01 0.92403211E+02</pdfrwt>
<pdfrwt beam="2">  1       -2 0.17182105E-02 0.92403211E+02</pdfrwt>
<totfact> 0.11103194E+05</totfact>
</mgrwt>
</event>
<event>
 6    1  0.1661841E-002  0.9243115E+02  0.7546771E-02  0.1405590E+00
         -1   -1    0    0    0  501 -0.00000000000E+00  0.00000000000E+00  0.53619435725E+02  0.53619435725E+02  0.00000000000E+00 0.  1.
          1   -1    0    0  501    0  0.00000000000E+00 -0.00000000000E+00 -0.53734912980E+02  0.53734912980E+02  0.00000000000E+00 0. -1.
         23    2    1    2    0    0 -0.13071924917E+02  0.63179943826E+01 -0.33019220121E+01  0.92490106234E+02  0.91283759717E+02 0.  0.
         11    1    3    3    0    0  0.69297810711E+01 -0.12637630165E+02 -0.42328503791E+02  0.44715028738E+02  0.00000000000E+00 0. -1.
        -11    1    3    3    0    0 -0.20001705988E+02  0.18955624547E+02  0.39026581779E+02  0.47775077496E+02  0.00000000000E+00 0.  1.
         22    1    1    2    0    0  0.13071924917E+02 -0.63179943826E+01  0.31864447568E+01  0.14864242471E+02  0.00000000000E+00 0. -1.
<mgrwt>
<rscale>  0 0.58189630E+02</rscale>
<asrwt>0</asrwt>
<pdfrwt beam="1">  1        1 0.82669097E-02 0.92431148E+02</pdfrwt>
<pdfrwt beam="2">  1       -1 0.82491439E-02 0.92431148E+02</pdfrwt>
<totfact> 0.58494494E+04</totfact>
</mgrwt>
</event>
<event>
 6    1  0.1661841E-002  0.9350980E+02  0.7546771E-02  0.1387183E+00
          2   -1    0    0  501    0  0.00000000000E+00  0.00000000000E+00  0.12111576582E+03  0.12111576582E+03  0.00000000000E+00 0. -1.
         -2   -1    0    0    0  501 -0.00000000000E+00 -0.00000000000E+00 -0.26062189987E+02  0.26062189987E+02  0.00000000000E+00 0.  1.
         23    2    1    2    0    0  0.15073943497E+02 -0.11229082422E+02  0.77319034226E+02  0.12133554821E+03  0.91601125213E+02 0.  0.
         13    1    3    3    0    0 -0.37279566567E+02 -0.11044268708E+02  0.46386576573E+02  0.60526493711E+02  0.00000000000E+00 0. -1.
        -13    1    3    3    0    0  0.52353510065E+02 -0.18481371448E+00  0.30932457653E+02  0.60809054496E+02  0.00000000000E+00 0.  1.
         22    1    1    2    0    0 -0.15073943497E+02  0.11229082422E+02  0.17734541610E+02  0.25842407603E+02  0.00000000000E+00 0. -1.
<mgrwt>
<rscale>  0 0.62612819E+02</rscale>
<asrwt>0</asrwt>
<pdfrwt beam="1">  1        2 0.18633195E-01 0.93509797E+02</pdfrwt>
<pdfrwt beam="2">  1       -2 0.40095677E-02 0.93509797E+02</pdfrwt>
<totfact> 0.71055249E+04</totfact>
</mgrwt>
</event>
<event>
 6    1  0.1661841E-002  0.8836900E+02  0.7546771E-02  0.1416671E+00
         -2   -1    0    0    0  501 -0.00000000000E+00  0.00000000000E+00  0.18813568503E+02  0.18813568503E+02  0.00000000000E+00 0.  1.
          2   -1    0    0  501    0  0.00000000000E+00 -0.00000000000E+00 -0.14159400068E+03  0.14159400068E+03  0.00000000000E+00 0. -1.
         23    2    1    2    0    0  0.13978600692E+02 -0.18191632279E+00 -0.98022228326E+02  0.13197514001E+03  0.87256208737E+02 0.  0.
         13    1    3    3    0    0  0.15255346539E+02  0.20539612410E+02 -0.10651474540E+03  0.10954447619E+03  0.00000000000E+00 0. -1.
        -13    1    3    3    0    0 -0.12767458464E+01 -0.20721528732E+02  0.84925170757E+01  0.22430663816E+02  0.00000000000E+00 0.  1.
         22    1    1    2    0    0 -0.13978600692E+02  0.18191632279E+00 -0.24758203849E+02  0.28432429173E+02  0.00000000000E+00 0. -1.
<mgrwt>
<rscale>  0 0.55731416E+02</rscale>
<asrwt>0</asrwt>
<pdfrwt beam="1">  1        2 0.21783692E-01 0.88369001E+02</pdfrwt>
<pdfrwt beam="2">  1       -2 0.28943952E-02 0.88369001E+02</pdfrwt>
<totfact> 0.95280701E+04</totfact>
</mgrwt>
</event>
<event>
 6    1  0.1661841E-002  0.9302690E+02  0.7546771E-02  0.1423836E+00
          4   -1    0    0  501    0  0.00000000000E+00  0.00000000000E+00  0.12152017358E+02  0.12152017358E+02  0.00000000000E+00 0.  1.
         -4   -1    0    0    0  501 -0.00000000000E+00 -0.00000000000E+00 -0.32291102453E+03  0.32291102453E+03  0.00000000000E+00 0. -1.
         23    2    1    2    0    0  0.47719580492E+01  0.96142131491E+01 -0.31070186732E+03  0.32432954558E+03  0.92405622661E+02 0.  0.
         13    1    3    3    0    0  0.20217421289E+02  0.95051380550E+01 -0.30780466672E+03  0.30861432991E+03  0.00000000000E+00 0. -1.
        -13    1    3    3    0    0 -0.15445463240E+02  0.10907509408E+00 -0.28972006021E+01  0.15715215665E+02  0.00000000000E+00 0.  1.
         22    1    1    2    0    0 -0.47719580492E+01 -0.96142131491E+01 -0.57139851758E-01  0.10733496311E+02  0.00000000000E+00 0.  1.
<mgrwt>
<rscale>  0 0.54217585E+02</rscale>
<asrwt>0</asrwt>
<pdfrwt beam="1">  1        4 0.18695411E-02 0.93026898E+02</pdfrwt>
<pdfrwt beam="2">  1       -4 0.49678619E-01 0.93026898E+02</pdfrwt>
<totfact> 0.65438165E+03</totfact>
</mgrwt>
</event>
<event>
 6    1  0.1661841E-002  0.9142701E+02  0.7546771E-02  0.1429835E+00
          2   -1    0    0  501    0  0.00000000000E+00  0.00000000000E+00  0.54225382093E+03  0.54225382093E+03  0.00000000000E+00 0. -1.
         -2   -1    0    0    0  501 -0.00000000000E+00 -0.00000000000E+00 -0.48315169353E+01  0.48315169353E+01  0.00000000000E+00 0.  1.
         23    2    1    2    0    0  0.10255415254E+02  0.11476975675E+01  0.49870765862E+03  0.50701896146E+03  0.90842763950E+02 0.  0.
         11    1    3    3    0    0 -0.13633546906E+02  0.26258441774E+02  0.41972452004E+03  0.42076603011E+03  0.00000000000E+00 0. -1.
        -11    1    3    3    0    0  0.23888962161E+02 -0.25110744206E+02  0.78983138574E+02  0.86252931351E+02  0.00000000000E+00 0.  1.
         22    1    1    2    0    0 -0.10255415254E+02 -0.11476975675E+01  0.38714645373E+02  0.40066376404E+02  0.00000000000E+00 0.  1.
<mgrwt>
<rscale>  0 0.52993168E+02</rscale>
<asrwt>0</asrwt>
<pdfrwt beam="1">  1        2 0.83423617E-01 0.91427012E+02</pdfrwt>
<pdfrwt beam="2">  1       -2 0.74331072E-03 0.91427012E+02</pdfrwt>
<totfact> 0.15970333E+05</totfact>
</mgrwt>
</event>
<event>
 6    1  0.1661841E-002  0.9513681E+02  0.7546771E-02  0.1409013E+00
          1   -1    0    0  501    0  0.00000000000E+00  0.00000000000E+00  0.22413877589E+03  0.22413877589E+03  0.00000000000E+00 0. -1.
         -1   -1    0    0    0  501 -0.00000000000E+00 -0.00000000000E+00 -0.13019050401E+02  0.13019050401E+02  0.00000000000E+00 0.  1.
         23    2    1    2    0    0 -0.46229090467E+01  0.11742418909E+02  0.19149954421E+03  0.21382957725E+03  0.94296113305E+02 0.  0.
         13    1    3    3    0    0  0.42011814136E+02  0.83366839478E+01  0.12796959588E+03  0.13494706479E+03  0.00000000000E+00 0. -1.
        -13    1    3    3    0    0 -0.46634723182E+02  0.34057349614E+01  0.63529948325E+02  0.78882512454E+02  0.00000000000E+00 0.  1.
         22    1    1    2    0    0  0.46229090467E+01 -0.11742418909E+02  0.19620181286E+02  0.23328249047E+02  0.00000000000E+00 0.  1.
<mgrwt>
<rscale>  0 0.57414728E+02</rscale>
<asrwt>0</asrwt>
<pdfrwt beam="1">  1        1 0.34482886E-01 0.95136810E+02</pdfrwt>
<pdfrwt beam="2">  1       -1 0.20029310E-02 0.95136810E+02</pdfrwt>
<totfact> 0.75165690E+04</totfact>
</mgrwt>
</event>
<event>
 6    1  0.1661841E-002  0.9324569E+02  0.7546771E-02  0.1407515E+00
          4   -1    0    0  501    0  0.00000000000E+00  0.00000000000E+00  0.60140997193E+02  0.60140997193E+02  0.00000000000E+00 0. -1.
         -4   -1    0    0    0  501 -0.00000000000E+00 -0.00000000000E+00 -0.59116671993E+02  0.59116671993E+02  0.00000000000E+00 0.  1.
         23    2    1    2    0    0  0.38978103275E+01 -0.13155647200E+02 -0.18825630225E+02  0.95127092961E+02  0.92230664550E+02 0.  0.
         11    1    3    3    0    0  0.14422979743E+02 -0.28270407970E+02 -0.49821826085E+02  0.59071589329E+02  0.00000000000E+00 0.  1.
        -11    1    3    3    0    0 -0.10525169415E+02  0.15114760770E+02  0.30996195860E+02  0.36055503632E+02  0.00000000000E+00 0. -1.
         22    1    1    2    0    0 -0.38978103275E+01  0.13155647200E+02  0.19849955425E+02  0.24130576225E+02  0.00000000000E+00 0. -1.
<mgrwt>
<rscale>  0 0.57752062E+02</rscale>
<asrwt>0</asrwt>
<pdfrwt beam="1">  1        4 0.92524611E-02 0.93245694E+02</pdfrwt>
<pdfrwt beam="2">  1       -4 0.90948726E-02 0.93245694E+02</pdfrwt>
<totfact> 0.11258451E+04</totfact>
</mgrwt>
</event>
<event>
 6    1  0.1661841E-002  0.9502576E+02  0.7546771E-02  0.1374778E+00
          3   -1    0    0  501    0  0.00000000000E+00  0.00000000000E+00  0.32056950660E+02  0.32056950660E+02  0.00000000000E+00 0. -1.
         -3   -1    0    0    0  501 -0.00000000000E+00 -0.00000000000E+00 -0.15860342637E+03  0.15860342637E+03  0.00000000000E+00 0.  1.
         23    2    1    2    0    0 -0.18738367384E+02  0.11377105447E+02 -0.13671429976E+03  0.16649532818E+03  0.92462584902E+02 0.  0.
         11    1    3    3    0    0  0.29884132151E+02 -0.17082417664E+02 -0.29303936708E+02  0.45206095322E+02  0.00000000000E+00 0. -1.
        -11    1    3    3    0    0 -0.48622499535E+02  0.28459523110E+02 -0.10741036305E+03  0.12128923286E+03  0.00000000000E+00 0.  1.
         22    1    1    2    0    0  0.18738367384E+02 -0.11377105447E+02  0.10167824041E+02  0.24165048858E+02  0.00000000000E+00 0. -1.
<mgrwt>
<rscale>  0 0.65856708E+02</rscale>
<asrwt>0</asrwt>
<pdfrwt beam="1">  1        3 0.49318385E-02 0.95025757E+02</pdfrwt>
<pdfrwt beam="2">  1       -3 0.24400527E-01 0.95025757E+02</pdfrwt>
<totfact> 0.76728094E+03</totfact>
</mgrwt>
</event>
<event>
 6    1  0.1661841E-002  0.1038190E+03  0.7546771E-02  0.1309609E+00
          2   -1    0    0  501    0  0.00000000000E+00  0.00000000000E+00  0.33782920924E+03  0.33782920924E+03  0.00000000000E+00 0.  1.
         -2   -1    0    0    0  501 -0.00000000000E+00 -0.00000000000E+00 -0.31336803872E+02  0.31336803872E+02  0.00000000000E+00 0. -1.
         23    2    1    2    0    0 -0.25872642724E+02  0.44908432412E+02  0.65705012290E+02  0.12286390267E+03  0.89956817396E+02 0.  0.
         13    1    3    3    0    0 -0.24903643985E+02 -0.24136785460E+02  0.24343414705E+02  0.42371897947E+02  0.00000000000E+00 0. -1.
        -13    1    3    3    0    0 -0.96899873842E+00  0.69045217872E+02  0.41361597585E+02  0.80492004723E+02  0.00000000000E+00 0.  1.
         22    1    1    2    0    0  0.25872642724E+02 -0.44908432412E+02  0.24078739308E+03  0.24630211044E+03  0.00000000000E+00 0. -1.
<mgrwt>
<rscale>  0 0.87266833E+02</rscale>
<asrwt>0</asrwt>
<pdfrwt beam="1">  1        2 0.51973722E-01 0.10381902E+03</pdfrwt>
<pdfrwt beam="2">  1       -2 0.48210470E-02 0.10381902E+03</pdfrwt>
<totfact> 0.18173203E+04</totfact>
</mgrwt>
</event>
<event>
 6    1  0.1661841E-002  0.9491196E+02  0.7546771E-02  0.1389317E+00
         -2   -1    0    0    0  501 -0.00000000000E+00  0.00000000000E+00  0.93496317882E+02  0.93496317882E+02  0.00000000000E+00 0.  1.
          2   -1    0    0  501    0  0.00000000000E+00 -0.00000000000E+00 -0.45346876248E+02  0.45346876248E+02  0.00000000000E+00 0. -1.
         23    2    1    2    0    0 -0.89460204641E+01  0.14887074058E+02  0.64688229212E+02  0.11486012196E+03  0.93309294080E+02 0.  0.
         13    1    3    3    0    0  0.29940894115E+02 -0.25132747246E+02  0.27801087621E+02  0.47968871130E+02  0.00000000000E+00 0. -1.
        -13    1    3    3    0    0 -0.38886914579E+02  0.40019821304E+02  0.36887141592E+02  0.66891250830E+02  0.00000000000E+00 0.  1.
         22    1    1    2    0    0  0.89460204641E+01 -0.14887074058E+02 -0.16538787579E+02  0.23983072170E+02  0.00000000000E+00 0.  1.
<mgrwt>
<rscale>  0 0.62076862E+02</rscale>
<asrwt>0</asrwt>
<pdfrwt beam="1">  1        2 0.69764425E-02 0.94911962E+02</pdfrwt>
<pdfrwt beam="2">  1       -2 0.14384049E-01 0.94911962E+02</pdfrwt>
<totfact> 0.32606479E+04</totfact>
</mgrwt>
</event>
<event>
 6    1  0.1661841E-002  0.1088936E+03  0.7546771E-02  0.1291571E+00
          4   -1    0    0  501    0  0.00000000000E+00  0.00000000000E+00  0.49680656700E+02  0.49680656700E+02  0.00000000000E+00 0. -1.
         -4   -1    0    0    0  501 -0.00000000000E+00 -0.00000000000E+00 -0.15612777441E+03  0.15612777441E+03  0.00000000000E+00 0.  1.
         23    2    1    2    0    0  0.41405186550E+02 -0.46971841879E+02 -0.89461464628E+02  0.14092965327E+03  0.89090235804E+02 0.  0.
         11    1    3    3    0    0  0.94124169211E+01  0.10324123619E+02  0.13112450307E+02  0.19160309858E+02  0.00000000000E+00 0. -1.
        -11    1    3    3    0    0  0.31992769629E+02 -0.57295965498E+02 -0.10257391493E+03  0.12176934342E+03  0.00000000000E+00 0.  1.
         22    1    1    2    0    0 -0.41405186550E+02  0.46971841879E+02 -0.16985653080E+02  0.64878777835E+02  0.00000000000E+00 0. -1.
<mgrwt>
<rscale>  0 0.94824985E+02</rscale>
<asrwt>0</asrwt>
<pdfrwt beam="1">  1        4 0.76431780E-02 0.10889359E+03</pdfrwt>
<pdfrwt beam="2">  1       -4 0.24019657E-01 0.10889359E+03</pdfrwt>
<totfact> 0.29854862E+03</totfact>
</mgrwt>
</event>
<event>
 6    1  0.1661841E-002  0.9331987E+02  0.7546771E-02  0.1397045E+00
          2   -1    0    0  501    0  0.00000000000E+00  0.00000000000E+00  0.39999610244E+02  0.39999610244E+02  0.00000000000E+00 0. -1.
         -2   -1    0    0    0  501 -0.00000000000E+00 -0.00000000000E+00 -0.75212913227E+02  0.75212913227E+02  0.00000000000E+00 0.  1.
         23    2    1    2    0    0  0.41081907166E+01 -0.15616588005E+02 -0.32625369336E+02  0.98858549872E+02  0.91912148853E+02 0.  0.
         13    1    3    3    0    0  0.41989142667E+02 -0.28736979575E+02 -0.29100245808E+02  0.58615069761E+02  0.00000000000E+00 0. -1.
        -13    1    3    3    0    0 -0.37880951950E+02  0.13120391570E+02 -0.35251235279E+01  0.40243480112E+02  0.00000000000E+00 0.  1.
         22    1    1    2    0    0 -0.41081907166E+01  0.15616588005E+02 -0.25879336484E+01  0.16353973599E+02  0.00000000000E+00 0.  1.
<mgrwt>
<rscale>  0 0.60187969E+02</rscale>
<asrwt>0</asrwt>
<pdfrwt beam="1">  1        2 0.61537862E-02 0.93319870E+02</pdfrwt>
<pdfrwt beam="2">  1       -2 0.11571217E-01 0.93319870E+02</pdfrwt>
<totfact> 0.53927234E+04</totfact>
</mgrwt>
</event>
<event>
 6    1  0.1661841E-002  0.9341417E+02  0.7546771E-02  0.1386784E+00
         -4   -1    0    0    0  501 -0.00000000000E+00  0.00000000000E+00  0.23079426004E+02  0.23079426004E+02  0.00000000000E+00 0. -1.
          4   -1    0    0  501    0  0.00000000000E+00 -0.00000000000E+00 -0.14334932004E+03  0.14334932004E+03  0.00000000000E+00 0.  1.
         23    2    1    2    0    0  0.17061868318E+02  0.83060247084E+01 -0.84618603196E+02  0.12604171922E+03  0.91466439642E+02 0.  0.
         13    1    3    3    0    0 -0.33505381175E+02  0.22999397124E+02 -0.33761877102E+02  0.52834147871E+02  0.00000000000E+00 0.  1.
        -13    1    3    3    0    0  0.50567249493E+02 -0.14693372415E+02 -0.50856726094E+02  0.73207571352E+02  0.00000000000E+00 0. -1.
         22    1    1    2    0    0 -0.17061868318E+02 -0.83060247084E+01 -0.35651290839E+02  0.40387026821E+02  0.00000000000E+00 0. -1.
<mgrwt>
<rscale>  0 0.62713648E+02</rscale>
<asrwt>0</asrwt>
<pdfrwt beam="1">  1        4 0.22053742E-01 0.93414169E+02</pdfrwt>
<pdfrwt beam="2">  1       -4 0.35506809E-02 0.93414169E+02</pdfrwt>
<totfact> 0.11414659E+04</totfact>
</mgrwt>
</event>
<event>
 6    1  0.1661841E-002  0.9168259E+02  0.7546771E-02  0.1377716E+00
         -2   -1    0    0    0  501 -0.00000000000E+00  0.00000000000E+00  0.57211750130E+01  0.57211750130E+01  0.00000000000E+00 0.  1.
          2   -1    0    0  501    0  0.00000000000E+00 -0.00000000000E+00 -0.64715549091E+03  0.64715549091E+03  0.00000000000E+00 0. -1.
         23    2    1    2    0    0 -0.18254113926E+02 -0.14415486154E+02 -0.57971186918E+03  0.58691698623E+03  0.88683022853E+02 0.  0.
         13    1    3    3    0    0  0.11207906388E+02 -0.13485043830E+02 -0.20699836618E+02  0.27128339586E+02  0.00000000000E+00 0.  1.
        -13    1    3    3    0    0 -0.29462020313E+02 -0.93044232443E+00 -0.55901203257E+03  0.55978864665E+03  0.00000000000E+00 0. -1.
         22    1    1    2    0    0  0.18254113926E+02  0.14415486154E+02 -0.61722446715E+02  0.65959679690E+02  0.00000000000E+00 0.  1.
<mgrwt>
<rscale>  0 0.65067889E+02</rscale>
<asrwt>0</asrwt>
<pdfrwt beam="1">  1        2 0.99562368E-01 0.91682591E+02</pdfrwt>
<pdfrwt beam="2">  1       -2 0.88018090E-03 0.91682591E+02</pdfrwt>
<totfact> 0.10331411E+05</totfact>
</mgrwt>
</event>
<event>
 6    1  0.1661841E-002  0.1410827E+03  0.7546771E-02  0.1226203E+00
         -2   -1    0    0    0  501 -0.00000000000E+00  0.00000000000E+00  0.35646008849E+02  0.35646008849E+02  0.00000000000E+00 0. -1.
          2   -1    0    0  501    0  0.00000000000E+00 -0.00000000000E+00 -0.45832996942E+03  0.45832996942E+03  0.00000000000E+00 0.  1.
         23    2    1    2    0    0  0.60364642795E+02  0.85163408701E+02 -0.30872258372E+03  0.33943183670E+03  0.94908596982E+02 0.  0.
         11    1    3    3    0    0  0.23053218030E+02  0.98303105478E+02 -0.23483147434E+03  0.25561841239E+03  0.00000000000E+00 0.  1.
        -11    1    3    3    0    0  0.37311424764E+02 -0.13139696777E+02 -0.73891109380E+02  0.83813424311E+02  0.00000000000E+00 0. -1.
         22    1    1    2    0    0 -0.60364642795E+02 -0.85163408701E+02 -0.11396137685E+03  0.15454414157E+03  0.00000000000E+00 0. -1.
<mgrwt>
<rscale>  0 0.13084805E+03</rscale>
<asrwt>0</asrwt>
<pdfrwt beam="1">  1        2 0.70512292E-01 0.14108273E+03</pdfrwt>
<pdfrwt beam="2">  1       -2 0.54840022E-02 0.14108273E+03</pdfrwt>
<totfact> 0.11107912E+04</totfact>
</mgrwt>
</event>
<event>
 6    1  0.1661841E-002  0.8775900E+02  0.7546771E-02  0.1420453E+00
         -4   -1    0    0    0  501 -0.00000000000E+00  0.00000000000E+00  0.37717663969E+02  0.37717663969E+02  0.00000000000E+00 0.  1.
          4   -1    0    0  501    0  0.00000000000E+00 -0.00000000000E+00 -0.11252152640E+03  0.11252152640E+03  0.00000000000E+00 0. -1.
         23    2    1    2    0    0  0.72681667645E+01 -0.11335052243E+02 -0.15115941484E+02  0.89051302969E+02  0.86719854798E+02 0.  0.
         11    1    3    3    0    0  0.40833842819E+01  0.28640441567E+01  0.35774858468E+02  0.36120870346E+02  0.00000000000E+00 0.  1.
        -11    1    3    3    0    0  0.31847824826E+01 -0.14199096399E+02 -0.50890799951E+02  0.52930432624E+02  0.00000000000E+00 0. -1.
         22    1    1    2    0    0 -0.72681667645E+01  0.11335052243E+02 -0.59687920944E+02  0.61187887397E+02  0.00000000000E+00 0. -1.
<mgrwt>
<rscale>  0 0.54925167E+02</rscale>
<asrwt>0</asrwt>
<pdfrwt beam="1">  1        4 0.17311004E-01 0.87759005E+02</pdfrwt>
<pdfrwt beam="2">  1       -4 0.58027177E-02 0.87759005E+02</pdfrwt>
<totfact> 0.79102543E+03</totfact>
</mgrwt>
</event>
<event>
 6    1  0.1661841E-002  0.1270325E+03  0.7546771E-02  0.1353234E+00
         -4   -1    0    0    0  501 -0.00000000000E+00  0.00000000000E+00  0.58715171389E+03  0.58715171389E+03  0.00000000000E+00 0. -1.
          4   -1    0    0  501    0  0.00000000000E+00 -0.00000000000E+00 -0.83677490442E+01  0.83677490442E+01  0.00000000000E+00 0.  1.
         23    2    1    2    0    0 -0.72379360035E+00 -0.13131300543E+02  0.52318502237E+03  0.53838630850E+03  0.12634988966E+03 0.  0.
         11    1    3    3    0    0 -0.57313023864E+02  0.18244726941E+02  0.20274058963E+03  0.21147434702E+03  0.00000000000E+00 0.  1.
        -11    1    3    3    0    0  0.56589230263E+02 -0.31376027484E+02  0.32044443275E+03  0.32691196148E+03  0.00000000000E+00 0. -1.
         22    1    1    2    0    0  0.72379360035E+00  0.13131300543E+02  0.55598942469E+02  0.57133154427E+02  0.00000000000E+00 0. -1.
<mgrwt>
<rscale>  0 0.72057251E+02</rscale>
<asrwt>0</asrwt>
<pdfrwt beam="1">  1        4 0.12873465E-02 0.12703247E+03</pdfrwt>
<pdfrwt beam="2">  1       -4 0.90331001E-01 0.12703247E+03</pdfrwt>
<totfact> 0.34984506E+03</totfact>
</mgrwt>
</event>
<event>
 6    1  0.1661841E-002  0.8906065E+02  0.7546771E-02  0.1396489E+00
         -2   -1    0    0    0  501 -0.00000000000E+00  0.00000000000E+00  0.17362704247E+02  0.17362704247E+02  0.00000000000E+00 0.  1.
          2   -1    0    0  501    0  0.00000000000E+00 -0.00000000000E+00 -0.16842167477E+03  0.16842167477E+03  0.00000000000E+00 0. -1.
         23    2    1    2    0    0  0.16807544048E+02 -0.82928949980E+01 -0.13015192568E+03  0.15770644874E+03  0.87066265412E+02 0.  0.
         11    1    3    3    0    0  0.25660657728E+02 -0.43949601989E+02 -0.61361909432E+02  0.79720265925E+02  0.00000000000E+00 0.  1.
        -11    1    3    3    0    0 -0.88531136801E+01  0.35656706991E+02 -0.68790016246E+02  0.77986182817E+02  0.00000000000E+00 0. -1.
         22    1    1    2    0    0 -0.16807544048E+02  0.82928949980E+01 -0.20907044847E+02  0.28077930276E+02  0.00000000000E+00 0. -1.
<mgrwt>
<rscale>  0 0.60321047E+02</rscale>
<asrwt>0</asrwt>
<pdfrwt beam="1">  1        2 0.25911027E-01 0.89060655E+02</pdfrwt>
<pdfrwt beam="2">  1       -2 0.26711852E-02 0.89060655E+02</pdfrwt>
<totfact> 0.88627618E+04</totfact>
</mgrwt>
</event>
<event>
 6    1  0.1661841E-002  0.9830425E+02  0.7546771E-02  0.1364039E+00
         -3   -1    0    0    0  501 -0.00000000000E+00  0.00000000000E+00  0.39370470655E+02  0.39370470655E+02  0.00000000000E+00 0.  1.
          3   -1    0    0  501    0  0.00000000000E+00 -0.00000000000E+00 -0.98048543695E+02  0.98048543695E+02  0.00000000000E+00 0. -1.
         23    2    1    2    0    0 -0.12561907741E+02  0.20046615495E+02 -0.36118483733E+02  0.10472951468E+03  0.95415187781E+02 0.  0.
         11    1    3    3    0    0  0.39871322457E+01  0.28561105049E+02 -0.64578261143E+02  0.70724718150E+02  0.00000000000E+00 0. -1.
        -11    1    3    3    0    0 -0.16549039987E+02 -0.85144895543E+01  0.28459777410E+02  0.34004796531E+02  0.00000000000E+00 0.  1.
         22    1    1    2    0    0  0.12561907741E+02 -0.20046615495E+02 -0.22559589308E+02  0.32689499669E+02  0.00000000000E+00 0.  1.
<mgrwt>
<rscale>  0 0.68852636E+02</rscale>
<asrwt>0</asrwt>
<pdfrwt beam="1">  1        3 0.15084391E-01 0.98304254E+02</pdfrwt>
<pdfrwt beam="2">  1       -3 0.60569955E-02 0.98304254E+02</pdfrwt>
<totfact> 0.12915944E+04</totfact>
</mgrwt>
</event>
<event>
 6    1  0.1661841E-002  0.9472598E+02  0.7546771E-02  0.1383752E+00
         -4   -1    0    0    0  501 -0.00000000000E+00  0.00000000000E+00  0.14677566376E+02  0.14677566376E+02  0.00000000000E+00 0.  1.
          4   -1    0    0  501    0  0.00000000000E+00 -0.00000000000E+00 -0.22084091436E+03  0.22084091436E+03  0.00000000000E+00 0. -1.
         23    2    1    2    0    0 -0.98390703433E+01  0.16387082656E+02 -0.16960703935E+03  0.19426672339E+03  0.92777520101E+02 0.  0.
         13    1    3    3    0    0  0.64797144090E+00  0.52553242070E+02 -0.12676312741E+03  0.13722665044E+03  0.00000000000E+00 0. -1.
        -13    1    3    3    0    0 -0.10487041784E+02 -0.36166159414E+02 -0.42843911936E+02  0.57040072950E+02  0.00000000000E+00 0.  1.
         22    1    1    2    0    0  0.98390703433E+01 -0.16387082656E+02 -0.36556308637E+02  0.41251757349E+02  0.00000000000E+00 0.  1.
<mgrwt>
<rscale>  0 0.63487695E+02</rscale>
<asrwt>0</asrwt>
<pdfrwt beam="1">  1        4 0.33975528E-01 0.94725984E+02</pdfrwt>
<pdfrwt beam="2">  1       -4 0.22580870E-02 0.94725984E+02</pdfrwt>
<totfact> 0.10378667E+04</totfact>
</mgrwt>
</event>
<event>
 6    1  0.1661841E-002  0.9087704E+02  0.7546771E-02  0.1425859E+00
         -2   -1    0    0    0  501 -0.00000000000E+00  0.00000000000E+00  0.38395935604E+02  0.38395935604E+02  0.00000000000E+00 0.  1.
          2   -1    0    0  501    0  0.00000000000E+00 -0.00000000000E+00 -0.67868251732E+02  0.67868251732E+02  0.00000000000E+00 0. -1.
         23    2    1    2    0    0 -0.21273848112E+01  0.10958349624E+02 -0.25142427412E+02  0.94290920075E+02  0.90188828354E+02 0.  0.
         13    1    3    3    0    0  0.79908614642E+01 -0.35362929242E+02 -0.29413285503E+02  0.46685458074E+02  0.00000000000E+00 0. -1.
        -13    1    3    3    0    0 -0.10118246275E+02  0.46321278866E+02  0.42708580906E+01  0.47605462001E+02  0.00000000000E+00 0.  1.
         22    1    1    2    0    0  0.21273848112E+01 -0.10958349624E+02 -0.43298887151E+01  0.11973267261E+02  0.00000000000E+00 0. -1.
<mgrwt>
<rscale>  0 0.53800369E+02</rscale>
<asrwt>0</asrwt>
<pdfrwt beam="1">  1        2 0.10441269E-01 0.90877038E+02</pdfrwt>
<pdfrwt beam="2">  1       -2 0.59070671E-02 0.90877038E+02</pdfrwt>
<totfact> 0.78258392E+04</totfact>
</mgrwt>
</event>
<event>
 6    1  0.1661841E-002  0.1147482E+03  0.7546771E-02  0.1364781E+00
         -1   -1    0    0    0  501 -0.00000000000E+00  0.00000000000E+00  0.11696254996E+03  0.11696254996E+03  0.00000000000E+00 0.  1.
          1   -1    0    0  501    0  0.00000000000E+00 -0.00000000000E+00 -0.54097098822E+02  0.54097098822E+02  0.00000000000E+00 0. -1.
         23    2    1    2    0    0  0.19801897362E+01  0.14557311364E+02  0.86177078627E+02  0.14350482267E+03  0.11380381708E+03 0.  0.
         11    1    3    3    0    0  0.15043466362E+02  0.57696642576E+02  0.18947517976E+02  0.62563702593E+02  0.00000000000E+00 0. -1.
        -11    1    3    3    0    0 -0.13063276626E+02 -0.43139331212E+02  0.67229560651E+02  0.80941120075E+02  0.00000000000E+00 0.  1.
         22    1    1    2    0    0 -0.19801897362E+01 -0.14557311364E+02 -0.23311627493E+02  0.27554826109E+02  0.00000000000E+00 0. -1.
<mgrwt>
<rscale>  0 0.68639635E+02</rscale>
<asrwt>0</asrwt>
<pdfrwt beam="1">  1        1 0.83226306E-02 0.11474818E+03</pdfrwt>
<pdfrwt beam="2">  1       -1 0.17994238E-01 0.11474818E+03</pdfrwt>
<totfact> 0.17987313E+04</totfact>
</mgrwt>
</event>
<event>
 6    1  0.2300255E-002  0.1169417E+03  0.7546771E-02  0.1347074E+00
          1   -1    0    0  501    0  0.00000000000E+00  0.00000000000E+00  0.90171435290E+02  0.90171435290E+02  0.00000000000E+00 0. -1.
         -1   -1    0    0    0  501 -0.00000000000E+00 -0.00000000000E+00 -0.54454954269E+02  0.54454954269E+02  0.00000000000E+00 0.  1.
         23    2    1    2    0    0  0.66170102021E+01 -0.17517605724E+02  0.17035845451E+02  0.11817610639E+03  0.11543275427E+03 0.  0.
         11    1    3    3    0    0  0.20756048385E+02 -0.50347876063E+01  0.64051400499E+02  0.67518475521E+02  0.00000000000E+00 0. -1.
        -11    1    3    3    0    0 -0.14139038183E+02 -0.12482818118E+02 -0.47015555048E+02  0.50657630870E+02  0.00000000000E+00 0.  1.
         22    1    1    2    0    0 -0.66170102021E+01  0.17517605724E+02  0.18680635570E+02  0.26450283167E+02  0.00000000000E+00 0. -1.
<mgrwt>
<rscale>  0 0.73975280E+02</rscale>
<asrwt>0</asrwt>
<pdfrwt beam="1">  1        1 0.13872529E-01 0.11694175E+03</pdfrwt>
<pdfrwt beam="2">  1       -1 0.83776852E-02 0.11694175E+03</pdfrwt>
<totfact> 0.29910890E+04</totfact>
</mgrwt>
</event>
<event>
 6    1  0.1661841E-002  0.9260041E+02  0.7546771E-02  0.1428507E+00
          4   -1    0    0  501    0  0.00000000000E+00  0.00000000000E+00  0.77622579484E+02  0.77622579484E+02  0.00000000000E+00 0. -1.
         -4   -1    0    0    0  501 -0.00000000000E+00 -0.00000000000E+00 -0.56033359982E+02  0.56033359982E+02  0.00000000000E+00 0.  1.
         23    2    1    2    0    0 -0.44745766642E+01  0.90930560633E+01 -0.16659785699E+02  0.94087114569E+02  0.92044180498E+02 0.  0.
         13    1    3    3    0    0 -0.45174231847E+02 -0.37128465104E+01  0.60905632862E+01  0.45733919724E+02  0.00000000000E+00 0. -1.
        -13    1    3    3    0    0  0.40699655183E+02  0.12805902574E+02 -0.22750348985E+02  0.48353194845E+02  0.00000000000E+00 0.  1.
         22    1    1    2    0    0  0.44745766642E+01 -0.90930560633E+01  0.38249005200E+02  0.39568824897E+02  0.00000000000E+00 0. -1.
<mgrwt>
<rscale>  0 0.53260950E+02</rscale>
<asrwt>0</asrwt>
<pdfrwt beam="1">  1        4 0.11941935E-01 0.92600414E+02</pdfrwt>
<pdfrwt beam="2">  1       -4 0.86205169E-02 0.92600414E+02</pdfrwt>
<totfact> 0.80016177E+03</totfact>
</mgrwt>
</event>
<event>
 6    1  0.1661841E-002  0.9278467E+02  0.7546771E-02  0.1405995E+00
          4   -1    0    0  501    0  0.00000000000E+00  0.00000000000E+00  0.28229365003E+02  0.28229365003E+02  0.00000000000E+00 0. -1.
         -4   -1    0    0    0  501 -0.00000000000E+00 -0.00000000000E+00 -0.11213271322E+03  0.11213271322E+03  0.00000000000E+00 0.  1.
         23    2    1    2    0    0  0.11736788564E+02  0.81034491768E+01 -0.85293983358E+02  0.12603197144E+03  0.91681929154E+02 0.  0.
         11    1    3    3    0    0 -0.24872830381E+02 -0.69841608197E+00  0.74187611748E+01  0.25965043685E+02  0.00000000000E+00 0. -1.
        -11    1    3    3    0    0  0.36609618945E+02  0.88018652587E+01 -0.92712744533E+02  0.10006692775E+03  0.00000000000E+00 0.  1.
         22    1    1    2    0    0 -0.11736788564E+02 -0.81034491768E+01  0.13906351404E+01  0.14330106784E+02  0.00000000000E+00 0. -1.
<mgrwt>
<rscale>  0 0.58097287E+02</rscale>
<asrwt>0</asrwt>
<pdfrwt beam="1">  1        4 0.43429791E-02 0.92784666E+02</pdfrwt>
<pdfrwt beam="2">  1       -4 0.17251187E-01 0.92784666E+02</pdfrwt>
<totfact> 0.12844343E+04</totfact>
</mgrwt>
</event>
<event>
 6    1  0.1661841E-002  0.9184578E+02  0.7546771E-02  0.1415091E+00
         -2   -1    0    0    0  501 -0.00000000000E+00  0.00000000000E+00  0.40523661437E+01  0.40523661437E+01  0.00000000000E+00 0.  1.
          2   -1    0    0  501    0  0.00000000000E+00 -0.00000000000E+00 -0.67875180227E+03  0.67875180227E+03  0.00000000000E+00 0. -1.
         23    2    1    2    0    0 -0.12756631870E+02 -0.27906389981E+00 -0.60755939693E+03  0.61446242131E+03  0.90955136613E+02 0.  0.
         11    1    3    3    0    0 -0.36694908943E+02 -0.29331070113E+02 -0.21339664237E+03  0.21850618982E+03  0.00000000000E+00 0.  1.
        -11    1    3    3    0    0  0.23938277073E+02  0.29052006213E+02 -0.39416275456E+03  0.39595623149E+03  0.00000000000E+00 0. -1.
         22    1    1    2    0    0  0.12756631870E+02  0.27906389981E+00 -0.67140039202E+02  0.68341747105E+02  0.00000000000E+00 0. -1.
<mgrwt>
<rscale>  0 0.56073074E+02</rscale>
<asrwt>0</asrwt>
<pdfrwt beam="1">  1        2 0.10442331E+00 0.91845775E+02</pdfrwt>
<pdfrwt beam="2">  1       -2 0.62344121E-03 0.91845775E+02</pdfrwt>
<totfact> 0.15905776E+05</totfact>
</mgrwt>
</event>
<event>
 6    1  0.1661841E-002  0.9250032E+02  0.7546771E-02  0.1411123E+00
          2   -1    0    0  501    0  0.00000000000E+00  0.00000000000E+00  0.15017751827E+02  0.15017751827E+02  0.00000000000E+00 0. -1.
         -2   -1    0    0    0  501 -0.00000000000E+00 -0.00000000000E+00 -0.18636206653E+03  0.18636206653E+03  0.00000000000E+00 0.  1.
         23    2    1    2    0    0 -0.53327661438E+01  0.12167783179E+02 -0.15112501134E+03  0.17718656371E+03  0.91541334721E+02 0.  0.
         13    1    3    3    0    0  0.19424096282E+02 -0.19076797567E+02 -0.76546280177E+01  0.28280966247E+02  0.00000000000E+00 0. -1.
        -13    1    3    3    0    0 -0.24756862426E+02  0.31244580746E+02 -0.14347038333E+03  0.14890559746E+03  0.00000000000E+00 0.  1.
         22    1    1    2    0    0  0.53327661438E+01 -0.12167783179E+02 -0.20219303357E+02  0.24193254649E+02  0.00000000000E+00 0. -1.
<mgrwt>
<rscale>  0 0.56944065E+02</rscale>
<asrwt>0</asrwt>
<pdfrwt beam="1">  1        2 0.23104235E-02 0.92500321E+02</pdfrwt>
<pdfrwt beam="2">  1       -2 0.28671086E-01 0.92500321E+02</pdfrwt>
<totfact> 0.43074141E+04</totfact>
</mgrwt>
</event>
<event>
 6    1  0.1661841E-002  0.9800860E+02  0.7546771E-02  0.1399677E+00
         -2   -1    0    0    0  501 -0.00000000000E+00  0.00000000000E+00  0.11261769069E+03  0.11261769069E+03  0.00000000000E+00 0.  1.
          2   -1    0    0  501    0  0.00000000000E+00 -0.00000000000E+00 -0.31022354705E+02  0.31022354705E+02  0.00000000000E+00 0. -1.
         23    2    1    2    0    0 -0.11529333241E+02 -0.67677870476E+01  0.85122741590E+02  0.12981358320E+03  0.97092516606E+02 0.  0.
         11    1    3    3    0    0 -0.86813587925E+01  0.33322195195E+01  0.10602130050E+03  0.10642831314E+03  0.00000000000E+00 0.  1.
        -11    1    3    3    0    0 -0.28479744487E+01 -0.10100006567E+02 -0.20898558913E+02  0.23385270060E+02  0.00000000000E+00 0. -1.
         22    1    1    2    0    0  0.11529333241E+02  0.67677870476E+01 -0.35274056067E+01  0.13826462195E+02  0.00000000000E+00 0. -1.
<mgrwt>
<rscale>  0 0.59562422E+02</rscale>
<asrwt>0</asrwt>
<pdfrwt beam="1">  1        2 0.47726700E-02 0.98008598E+02</pdfrwt>
<pdfrwt beam="2">  1       -2 0.17325798E-01 0.98008598E+02</pdfrwt>
<totfact> 0.39275791E+04</totfact>
</mgrwt>
</event>
<event>
 6    1  0.1661841E-002  0.8815957E+02  0.7546771E-02  0.1434319E+00
          4   -1    0    0  501    0  0.00000000000E+00  0.00000000000E+00  0.46567831514E+02  0.46567831514E+02  0.00000000000E+00 0.  1.
         -4   -1    0    0    0  501 -0.00000000000E+00 -0.00000000000E+00 -0.53473526288E+02  0.53473526288E+02  0.00000000000E+00 0. -1.
         23    2    1    2    0    0 -0.33817415998E+01  0.10210154813E+02 -0.10308682586E+02  0.88760233585E+02  0.87501009662E+02 0.  0.
         13    1    3    3    0    0  0.50285897270E+01  0.60193390429E+01  0.38379920155E+02  0.39173172302E+02  0.00000000000E+00 0.  1.
        -13    1    3    3    0    0 -0.84103313268E+01  0.41908157705E+01 -0.48688602740E+02  0.49587061283E+02  0.00000000000E+00 0. -1.
         22    1    1    2    0    0  0.33817415998E+01 -0.10210154813E+02  0.34029878114E+01  0.11281124217E+02  0.00000000000E+00 0.  1.
<mgrwt>
<rscale>  0 0.52102793E+02</rscale>
<asrwt>0</asrwt>
<pdfrwt beam="1">  1        4 0.71642818E-02 0.88159572E+02</pdfrwt>
<pdfrwt beam="2">  1       -4 0.82266963E-02 0.88159572E+02</pdfrwt>
<totfact> 0.19884601E+04</totfact>
</mgrwt>
</event>
<event>
 6    1  0.1661841E-002  0.9167368E+02  0.7546771E-02  0.1417936E+00
          2   -1    0    0  501    0  0.00000000000E+00  0.00000000000E+00  0.19375805070E+03  0.19375805070E+03  0.00000000000E+00 0. -1.
         -2   -1    0    0    0  501 -0.00000000000E+00 -0.00000000000E+00 -0.14437442114E+02  0.14437442114E+02  0.00000000000E+00 0.  1.
         23    2    1    2    0    0  0.12265369312E+02  0.59166820563E+00  0.16852275617E+03  0.19184364361E+03  0.90847536516E+02 0.  0.
         13    1    3    3    0    0  0.31737593277E+02 -0.24546996114E+02  0.14949865211E+03  0.15478913666E+03  0.00000000000E+00 0. -1.
        -13    1    3    3    0    0 -0.19472223965E+02  0.25138664320E+02  0.19024104056E+02  0.37054506947E+02  0.00000000000E+00 0.  1.
         22    1    1    2    0    0 -0.12265369312E+02 -0.59166820563E+00  0.10797852418E+02  0.16351849207E+02  0.00000000000E+00 0.  1.
<mgrwt>
<rscale>  0 0.55459998E+02</rscale>
<asrwt>0</asrwt>
<pdfrwt beam="1">  1        2 0.29808929E-01 0.91673684E+02</pdfrwt>
<pdfrwt beam="2">  1       -2 0.22211451E-02 0.91673684E+02</pdfrwt>
<totfact> 0.99921375E+04</totfact>
</mgrwt>
</event>
<event>
 6    1  0.1661841E-002  0.9331547E+02  0.7546771E-02  0.1381263E+00
          4   -1    0    0  501    0  0.00000000000E+00  0.00000000000E+00  0.43081884240E+02  0.43081884240E+02  0.00000000000E+00 0.  1.
         -4   -1    0    0    0  501 -0.00000000000E+00 -0.00000000000E+00 -0.12488590346E+03  0.12488590346E+03  0.00000000000E+00 0. -1.
         23    2    1    2    0    0  0.20745875129E+02 -0.17460559035E+01 -0.10249813539E+03  0.13861329077E+03  0.90963380398E+02 0.  0.
         11    1    3    3    0    0 -0.33051483627E+02  0.42471094854E+01 -0.64108380722E+02  0.72251802660E+02  0.00000000000E+00 0. -1.
        -11    1    3    3    0    0  0.53797358756E+02 -0.59931653889E+01 -0.38389754665E+02  0.66361488107E+02  0.00000000000E+00 0.  1.
         22    1    1    2    0    0 -0.20745875129E+02  0.17460559035E+01  0.20694116168E+02  0.29354496931E+02  0.00000000000E+00 0. -1.
<mgrwt>
<rscale>  0 0.64132971E+02</rscale>
<asrwt>0</asrwt>
<pdfrwt beam="1">  1        4 0.66279823E-02 0.93315468E+02</pdfrwt>
<pdfrwt beam="2">  1       -4 0.19213216E-01 0.93315468E+02</pdfrwt>
<totfact> 0.54054009E+03</totfact>
</mgrwt>
</event>
<event>
 6    1  0.1661841E-002  0.9442956E+02  0.7546771E-02  0.1408026E+00
         -1   -1    0    0    0  501 -0.00000000000E+00  0.00000000000E+00  0.45706766823E+02  0.45706766823E+02  0.00000000000E+00 0.  1.
          1   -1    0    0  501    0  0.00000000000E+00 -0.00000000000E+00 -0.94703394979E+02  0.94703394979E+02  0.00000000000E+00 0. -1.
         23    2    1    2    0    0 -0.69339847275E+01  0.11121457338E+02 -0.50650407175E+01  0.94565300232E+02  0.93515637265E+02 0.  0.
         13    1    3    3    0    0  0.62661468897E+01 -0.39118112730E+02 -0.13677519562E+02  0.41911405152E+02  0.00000000000E+00 0. -1.
        -13    1    3    3    0    0 -0.13200131617E+02  0.50239570068E+02  0.86124788448E+01  0.52653895081E+02  0.00000000000E+00 0.  1.
         22    1    1    2    0    0  0.69339847275E+01 -0.11121457338E+02 -0.43931587438E+02  0.45844861570E+02  0.00000000000E+00 0. -1.
<mgrwt>
<rscale>  0 0.57636609E+02</rscale>
<asrwt>0</asrwt>
<pdfrwt beam="1">  1        1 0.14569753E-01 0.94429558E+02</pdfrwt>
<pdfrwt beam="2">  1       -1 0.70318104E-02 0.94429558E+02</pdfrwt>
<totfact> 0.35549338E+04</totfact>
</mgrwt>
</event>
<event>
 6    1  0.1661841E-002  0.9272224E+02  0.7546771E-02  0.1425367E+00
          2   -1    0    0  501    0  0.00000000000E+00  0.00000000000E+00  0.10928985553E+02  0.10928985553E+02  0.00000000000E+00 0. -1.
         -2   -1    0    0    0  501 -0.00000000000E+00 -0.00000000000E+00 -0.24796196645E+03  0.24796196645E+03  0.00000000000E+00 0.  1.
         23    2    1    2    0    0  0.71848678675E+01  0.77782766481E+01 -0.22115465974E+03  0.23980574840E+03  0.92115631282E+02 0.  0.
         11    1    3    3    0    0 -0.50866719418E+01 -0.37615408231E+02 -0.52936339914E+02  0.65138692429E+02  0.00000000000E+00 0. -1.
        -11    1    3    3    0    0  0.12271539809E+02  0.45393684879E+02 -0.16821831983E+03  0.17466705597E+03  0.00000000000E+00 0.  1.
         22    1    1    2    0    0 -0.71848678675E+01 -0.77782766481E+01 -0.15878321156E+02  0.19085203605E+02  0.00000000000E+00 0. -1.
<mgrwt>
<rscale>  0 0.53901421E+02</rscale>
<asrwt>0</asrwt>
<pdfrwt beam="1">  1        2 0.16813823E-02 0.92722238E+02</pdfrwt>
<pdfrwt beam="2">  1       -2 0.38147996E-01 0.92722238E+02</pdfrwt>
<totfact> 0.39419754E+04</totfact>
</mgrwt>
</event>
<event>
 6    1  0.1661841E-002  0.9492468E+02  0.7546771E-02  0.1356400E+00
          2   -1    0    0  501    0  0.00000000000E+00  0.00000000000E+00  0.10901779481E+03  0.10901779481E+03  0.00000000000E+00 0. -1.
         -2   -1    0    0    0  501 -0.00000000000E+00 -0.00000000000E+00 -0.49836294192E+02  0.49836294192E+02  0.00000000000E+00 0.  1.
         23    2    1    2    0    0 -0.10206737466E+02 -0.28075553060E+02  0.27046797359E+01  0.94963201810E+02  0.90101499633E+02 0.  0.
         11    1    3    3    0    0  0.38304610855E+02 -0.13089628420E+02  0.14212775682E+02  0.42902034655E+02  0.00000000000E+00 0. -1.
        -11    1    3    3    0    0 -0.48511348321E+02 -0.14985924639E+02 -0.11508095946E+02  0.52061167155E+02  0.00000000000E+00 0.  1.
         22    1    1    2    0    0  0.10206737466E+02  0.28075553060E+02  0.56476820886E+02  0.63890887196E+02  0.00000000000E+00 0. -1.
<mgrwt>
<rscale>  0 0.71097635E+02</rscale>
<asrwt>0</asrwt>
<pdfrwt beam="1">  1        2 0.16771968E-01 0.94924678E+02</pdfrwt>
<pdfrwt beam="2">  1       -2 0.76671222E-02 0.94924678E+02</pdfrwt>
<totfact> 0.30413988E+04</totfact>
</mgrwt>
</event>
<event>
 6    1  0.1661841E-002  0.9562582E+02  0.7546771E-02  0.1365023E+00
         -1   -1    0    0    0  501 -0.00000000000E+00  0.00000000000E+00  0.19369199123E+03  0.19369199123E+03  0.00000000000E+00 0.  1.
          1   -1    0    0  501    0  0.00000000000E+00 -0.00000000000E+00 -0.74130713743E+02  0.74130713743E+02  0.00000000000E+00 0. -1.
         23    2    1    2    0    0  0.14703627421E+02  0.20567190124E+02  0.17916020682E+03  0.20308293090E+03  0.92223051060E+02 0.  0.
         13    1    3    3    0    0 -0.21786619730E+02 -0.88051523463E+01  0.67884096852E+01  0.24459558727E+02  0.00000000000E+00 0. -1.
        -13    1    3    3    0    0  0.36490247151E+02  0.29372342470E+02  0.17237179714E+03  0.17862337218E+03  0.00000000000E+00 0.  1.
         22    1    1    2    0    0 -0.14703627421E+02 -0.20567190124E+02 -0.59598929334E+02  0.64739774070E+02  0.00000000000E+00 0. -1.
<mgrwt>
<rscale>  0 0.68570367E+02</rscale>
<asrwt>0</asrwt>
<pdfrwt beam="1">  1        1 0.11404725E-01 0.95625818E+02</pdfrwt>
<pdfrwt beam="2">  1       -1 0.29798768E-01 0.95625818E+02</pdfrwt>
<totfact> 0.51610337E+03</totfact>
</mgrwt>
</event>
<event>
 6    1  0.1661841E-002  0.9268771E+02  0.7546771E-02  0.1417473E+00
          2   -1    0    0  501    0  0.00000000000E+00  0.00000000000E+00  0.73456600384E+02  0.73456600384E+02  0.00000000000E+00 0. -1.
         -2   -1    0    0    0  501 -0.00000000000E+00 -0.00000000000E+00 -0.40284684592E+02  0.40284684592E+02  0.00000000000E+00 0.  1.
         23    2    1    2    0    0  0.48053148545E+01 -0.10958919692E+02  0.18001672531E+02  0.94419658433E+02  0.91912037911E+02 0.  0.
         13    1    3    3    0    0  0.30012416168E+02 -0.16319560868E+02 -0.26336773639E+02  0.43135818491E+02  0.00000000000E+00 0.  1.
        -13    1    3    3    0    0 -0.25207101314E+02  0.53606411758E+01  0.44338446170E+02  0.51283839942E+02  0.00000000000E+00 0. -1.
         22    1    1    2    0    0 -0.48053148545E+01  0.10958919692E+02  0.15170243261E+02  0.19321626543E+02  0.00000000000E+00 0. -1.
<mgrwt>
<rscale>  0 0.55559114E+02</rscale>
<asrwt>0</asrwt>
<pdfrwt beam="1">  1        2 0.11301015E-01 0.92687711E+02</pdfrwt>
<pdfrwt beam="2">  1       -2 0.61976438E-02 0.92687711E+02</pdfrwt>
<totfact> 0.66404001E+04</totfact>
</mgrwt>
</event>
<event>
 6    1  0.1661841E-002  0.9172673E+02  0.7546771E-02  0.1430195E+00
         -2   -1    0    0    0  501 -0.00000000000E+00  0.00000000000E+00  0.69294794863E+01  0.69294794863E+01  0.00000000000E+00 0. -1.
          2   -1    0    0  501    0  0.00000000000E+00 -0.00000000000E+00 -0.37759302357E+03  0.37759302357E+03  0.00000000000E+00 0.  1.
         23    2    1    2    0    0 -0.10049673001E+02 -0.15129098918E+01 -0.34292634014E+03  0.35498206795E+03  0.91161993063E+02 0.  0.
         11    1    3    3    0    0 -0.20786784600E+02 -0.18450993364E+02 -0.32989886077E+03  0.33106764853E+03  0.00000000000E+00 0.  1.
        -11    1    3    3    0    0  0.10737111600E+02  0.16938083472E+02 -0.13027479376E+02  0.23914419418E+02  0.00000000000E+00 0. -1.
         22    1    1    2    0    0  0.10049673001E+02  0.15129098918E+01 -0.27737203942E+02  0.29540435106E+02  0.00000000000E+00 0.  1.
<mgrwt>
<rscale>  0 0.52920814E+02</rscale>
<asrwt>0</asrwt>
<pdfrwt beam="1">  1        2 0.58091244E-01 0.91726734E+02</pdfrwt>
<pdfrwt beam="2">  1       -2 0.10660736E-02 0.91726734E+02</pdfrwt>
<totfact> 0.14129944E+05</totfact>
</mgrwt>
</event>
<event>
 6    1  0.1661841E-002  0.9111761E+02  0.7546771E-02  0.1405547E+00
         -2   -1    0    0    0  501 -0.00000000000E+00  0.00000000000E+00  0.23407440287E+03  0.23407440287E+03  0.00000000000E+00 0.  1.
          2   -1    0    0  501    0  0.00000000000E+00 -0.00000000000E+00 -0.12522625227E+02  0.12522625227E+02  0.00000000000E+00 0. -1.
         23    2    1    2    0    0  0.13082055806E+02 -0.76721680797E+01  0.17023877215E+03  0.19308976803E+03  0.89846628359E+02 0.  0.
         13    1    3    3    0    0  0.41691129452E+02  0.13337924609E+02  0.44433290402E+02  0.62372813018E+02  0.00000000000E+00 0. -1.
        -13    1    3    3    0    0 -0.28609073646E+02 -0.21010092689E+02  0.12580548175E+03  0.13071695501E+03  0.00000000000E+00 0.  1.
         22    1    1    2    0    0 -0.13082055806E+02  0.76721680797E+01  0.51313005493E+02  0.53507260067E+02  0.00000000000E+00 0. -1.
<mgrwt>
<rscale>  0 0.58199369E+02</rscale>
<asrwt>0</asrwt>
<pdfrwt beam="1">  1        2 0.19265579E-02 0.91117611E+02</pdfrwt>
<pdfrwt beam="2">  1       -2 0.36011443E-01 0.91117611E+02</pdfrwt>
<totfact> 0.36386525E+04</totfact>
</mgrwt>
</event>
<event>
 6    1  0.1661841E-002  0.9192993E+02  0.7546771E-02  0.1417835E+00
          2   -1    0    0  501    0  0.00000000000E+00  0.00000000000E+00  0.16413703132E+02  0.16413703132E+02  0.00000000000E+00 0. -1.
         -2   -1    0    0    0  501 -0.00000000000E+00 -0.00000000000E+00 -0.19705593111E+03  0.19705593111E+03  0.00000000000E+00 0.  1.
         23    2    1    2    0    0 -0.79606921166E+01  0.92397689125E+01 -0.17891617479E+03  0.20115195556E+03  0.91117318204E+02 0.  0.
         11    1    3    3    0    0  0.57112508907E+01  0.29677867569E+02 -0.12134678911E+02  0.32567539706E+02  0.00000000000E+00 0. -1.
        -11    1    3    3    0    0 -0.13671943007E+02 -0.20438098657E+02 -0.16678149587E+03  0.16858441585E+03  0.00000000000E+00 0.  1.
         22    1    1    2    0    0  0.79606921166E+01 -0.92397689125E+01 -0.17260531925E+01  0.12317678684E+02  0.00000000000E+00 0. -1.
<mgrwt>
<rscale>  0 0.55481518E+02</rscale>
<asrwt>0</asrwt>
<pdfrwt beam="1">  1        2 0.25251850E-02 0.91929928E+02</pdfrwt>
<pdfrwt beam="2">  1       -2 0.30316298E-01 0.91929928E+02</pdfrwt>
<totfact> 0.34595356E+04</totfact>
</mgrwt>
</event>
<event>
 6    1  0.1661841E-002  0.9306150E+02  0.7546771E-02  0.1414616E+00
          2   -1    0    0  501    0  0.00000000000E+00  0.00000000000E+00  0.10388049789E+03  0.10388049789E+03  0.00000000000E+00 0. -1.
         -2   -1    0    0    0  501 -0.00000000000E+00 -0.00000000000E+00 -0.27383541240E+02  0.27383541240E+02  0.00000000000E+00 0.  1.
         23    2    1    2    0    0  0.60492496543E+01  0.10774875968E+02  0.60292224724E+02  0.11088550360E+03  0.92237471633E+02 0.  0.
         13    1    3    3    0    0 -0.18316921457E+02  0.31671256038E+02  0.68583979306E+02  0.77732491843E+02  0.00000000000E+00 0. -1.
        -13    1    3    3    0    0  0.24366171111E+02 -0.20896380070E+02 -0.82917545813E+01  0.33153011759E+02  0.00000000000E+00 0.  1.
         22    1    1    2    0    0 -0.60492496543E+01 -0.10774875968E+02  0.16204731927E+02  0.20378535529E+02  0.00000000000E+00 0. -1.
<mgrwt>
<rscale>  0 0.56176457E+02</rscale>
<asrwt>0</asrwt>
<pdfrwt beam="1">  1        2 0.15981615E-01 0.93061499E+02</pdfrwt>
<pdfrwt beam="2">  1       -2 0.42128525E-02 0.93061499E+02</pdfrwt>
<totfact> 0.78619746E+04</totfact>
</mgrwt>
</event>
<event>
 6    1  0.2060683E-002  0.1355802E+03  0.7546771E-02  0.1233931E+00
          1   -1    0    0  501    0  0.00000000000E+00  0.00000000000E+00  0.14009722386E+04  0.14009722386E+04  0.00000000000E+00 0. -1.
         -1   -1    0    0    0  501 -0.00000000000E+00 -0.00000000000E+00 -0.17869500228E+02  0.17869500228E+02  0.00000000000E+00 0.  1.
         23    2    1    2    0    0 -0.94751565693E+02  0.32815978347E+02  0.12190831610E+04  0.12265992633E+04  0.91253776022E+02 0.  0.
         13    1    3    3    0    0 -0.10313266861E+03  0.49414849595E+02  0.11167701958E+04  0.11226102818E+04  0.00000000000E+00 0. -1.
        -13    1    3    3    0    0  0.83811029156E+01 -0.16598871249E+02  0.10231296526E+03  0.10398898150E+03  0.00000000000E+00 0.  1.
         22    1    1    2    0    0  0.94751565693E+02 -0.32815978347E+02  0.16401957731E+03  0.19224247548E+03  0.00000000000E+00 0.  1.
<mgrwt>
<rscale>  0 0.12573138E+03</rscale>
<asrwt>0</asrwt>
<pdfrwt beam="1">  1        1 0.21553410E+00 0.13558023E+03</pdfrwt>
<pdfrwt beam="2">  1       -1 0.27491550E-02 0.13558023E+03</pdfrwt>
<totfact> 0.35344525E+03</totfact>
</mgrwt>
</event>
<event>
 6    1  0.1661841E-002  0.9568311E+02  0.7546771E-02  0.1367382E+00
          2   -1    0    0  501    0  0.00000000000E+00  0.00000000000E+00  0.19484457984E+03  0.19484457984E+03  0.00000000000E+00 0. -1.
         -2   -1    0    0    0  501 -0.00000000000E+00 -0.00000000000E+00 -0.18741284506E+02  0.18741284506E+02  0.00000000000E+00 0.  1.
         23    2    1    2    0    0 -0.69988038134E+01 -0.23234010519E+02  0.15023992458E+03  0.17812156615E+03  0.92555145133E+02 0.  0.
         11    1    3    3    0    0  0.41521489975E+01 -0.58229722703E+02  0.10151969090E+03  0.11710759406E+03  0.00000000000E+00 0. -1.
        -11    1    3    3    0    0 -0.11150952811E+02  0.34995712184E+02  0.48720233681E+02  0.61013972086E+02  0.00000000000E+00 0.  1.
         22    1    1    2    0    0  0.69988038134E+01  0.23234010519E+02  0.25863370755E+02  0.35464298195E+02  0.00000000000E+00 0.  1.
<mgrwt>
<rscale>  0 0.67900452E+02</rscale>
<asrwt>0</asrwt>
<pdfrwt beam="1">  1        2 0.29976088E-01 0.95683109E+02</pdfrwt>
<pdfrwt beam="2">  1       -2 0.28832747E-02 0.95683109E+02</pdfrwt>
<totfact> 0.68512036E+04</totfact>
</mgrwt>
</event>
<event>
 6    1  0.1661841E-002  0.9059500E+02  0.7546771E-02  0.1412912E+00
         -1   -1    0    0    0  501 -0.00000000000E+00  0.00000000000E+00  0.39247888763E+02  0.39247888763E+02  0.00000000000E+00 0.  1.
          1   -1    0    0  501    0  0.00000000000E+00 -0.00000000000E+00 -0.90300044098E+02  0.90300044098E+02  0.00000000000E+00 0. -1.
         23    2    1    2    0    0  0.27601158775E+01  0.13472973898E+02 -0.16135831218E+02  0.92020756640E+02  0.89545046419E+02 0.  0.
         11    1    3    3    0    0 -0.31926909307E+02 -0.84066076059E+01 -0.33906641921E+02  0.47325035190E+02  0.00000000000E+00 0. -1.
        -11    1    3    3    0    0  0.34687025184E+02  0.21879581504E+02  0.17770810703E+02  0.44695721450E+02  0.00000000000E+00 0.  1.
         22    1    1    2    0    0 -0.27601158775E+01 -0.13472973898E+02 -0.34916324116E+02  0.37527176221E+02  0.00000000000E+00 0.  1.
<mgrwt>
<rscale>  0 0.56549126E+02</rscale>
<asrwt>0</asrwt>
<pdfrwt beam="1">  1        1 0.13892314E-01 0.90595003E+02</pdfrwt>
<pdfrwt beam="2">  1       -1 0.60381368E-02 0.90595003E+02</pdfrwt>
<totfact> 0.47085069E+04</totfact>
</mgrwt>
</event>
<event>
 6    1  0.1661841E-002  0.9089971E+02  0.7546771E-02  0.1422838E+00
          2   -1    0    0  501    0  0.00000000000E+00  0.00000000000E+00  0.37915650492E+02  0.37915650492E+02  0.00000000000E+00 0.  1.
         -2   -1    0    0    0  501 -0.00000000000E+00 -0.00000000000E+00 -0.76055722909E+02  0.76055722909E+02  0.00000000000E+00 0. -1.
         23    2    1    2    0    0  0.11150158420E+02  0.34835868639E+01 -0.43901689601E+02  0.10094610401E+03  0.90145971368E+02 0.  0.
         11    1    3    3    0    0 -0.26782840254E+02 -0.35827290320E+01 -0.54586513590E+02  0.60908488286E+02  0.00000000000E+00 0. -1.
        -11    1    3    3    0    0  0.37932998675E+02  0.70663158959E+01  0.10684823989E+02  0.40037615719E+02  0.00000000000E+00 0.  1.
         22    1    1    2    0    0 -0.11150158420E+02 -0.34835868639E+01  0.57616171838E+01  0.13025269395E+02  0.00000000000E+00 0.  1.
<mgrwt>
<rscale>  0 0.54424959E+02</rscale>
<asrwt>0</asrwt>
<pdfrwt beam="1">  1        2 0.58331771E-02 0.90899712E+02</pdfrwt>
<pdfrwt beam="2">  1       -2 0.11700880E-01 0.90899712E+02</pdfrwt>
<totfact> 0.56509315E+04</totfact>
</mgrwt>
</event>
<event>
 6    1  0.1661841E-002  0.9538757E+02  0.7546771E-02  0.1385895E+00
         -1   -1    0    0    0  501 -0.00000000000E+00  0.00000000000E+00  0.15195034003E+03  0.15195034003E+03  0.00000000000E+00 0.  1.
          1   -1    0    0  501    0  0.00000000000E+00 -0.00000000000E+00 -0.99617594525E+02  0.99617594525E+02  0.00000000000E+00 0. -1.
         23    2    1    2    0    0  0.89036061113E+01  0.15736236983E+02  0.13591792259E+03  0.16604960211E+03  0.93658343581E+02 0.  0.
         13    1    3    3    0    0 -0.46329598180E+01 -0.30470407589E+02  0.11944033441E+02  0.33054046502E+02  0.00000000000E+00 0. -1.
        -13    1    3    3    0    0  0.13536565929E+02  0.46206644572E+02  0.12397388915E+03  0.13299555561E+03  0.00000000000E+00 0.  1.
         22    1    1    2    0    0 -0.89036061113E+01 -0.15736236983E+02 -0.83585177086E+02  0.85518332448E+02  0.00000000000E+00 0. -1.
<mgrwt>
<rscale>  0 0.62939207E+02</rscale>
<asrwt>0</asrwt>
<pdfrwt beam="1">  1        1 0.15325784E-01 0.95387571E+02</pdfrwt>
<pdfrwt beam="2">  1       -1 0.23376975E-01 0.95387571E+02</pdfrwt>
<totfact> 0.52445541E+03</totfact>
</mgrwt>
</event>
<event>
 6    1  0.1661841E-002  0.9364799E+02  0.7546771E-02  0.1376784E+00
          1   -1    0    0  501    0  0.00000000000E+00  0.00000000000E+00  0.93015634320E+02  0.93015634320E+02  0.00000000000E+00 0. -1.
         -1   -1    0    0    0  501 -0.00000000000E+00 -0.00000000000E+00 -0.38349284305E+02  0.38349284305E+02  0.00000000000E+00 0.  1.
         23    2    1    2    0    0  0.69530362104E+01 -0.21042708769E+02  0.30300252385E+02  0.98427902691E+02  0.90987946612E+02 0.  0.
         11    1    3    3    0    0 -0.13333294546E+02 -0.44259607825E+02  0.44787110078E+02  0.64362837549E+02  0.00000000000E+00 0. -1.
        -11    1    3    3    0    0  0.20286330757E+02  0.23216899055E+02 -0.14486857692E+02  0.34065065142E+02  0.00000000000E+00 0.  1.
         22    1    1    2    0    0 -0.69530362104E+01  0.21042708769E+02  0.24366097630E+02  0.32937015934E+02  0.00000000000E+00 0. -1.
<mgrwt>
<rscale>  0 0.65316748E+02</rscale>
<asrwt>0</asrwt>
<pdfrwt beam="1">  1        1 0.14310098E-01 0.93647994E+02</pdfrwt>
<pdfrwt beam="2">  1       -1 0.58998899E-02 0.93647994E+02</pdfrwt>
<totfact> 0.47112575E+04</totfact>
</mgrwt>
</event>
<event>
 6    1  0.1661841E-002  0.9201076E+02  0.7546771E-02  0.1426056E+00
         -1   -1    0    0    0  501 -0.00000000000E+00  0.00000000000E+00  0.37356738203E+01  0.37356738203E+01  0.00000000000E+00 0.  1.
          1   -1    0    0  501    0  0.00000000000E+00 -0.00000000000E+00 -0.70811530753E+03  0.70811530753E+03  0.00000000000E+00 0. -1.
         23    2    1    2    0    0  0.97509388453E+01  0.44612432844E+01 -0.64115073663E+03  0.64771926590E+03  0.91383788735E+02 0.  0.
         11    1    3    3    0    0 -0.58897654680E+01 -0.20705669487E+02 -0.57301604457E+03  0.57342026596E+03  0.00000000000E+00 0. -1.
        -11    1    3    3    0    0  0.15640704313E+02  0.25166912771E+02 -0.68134692063E+02  0.74298999942E+02  0.00000000000E+00 0.  1.
         22    1    1    2    0    0 -0.97509388453E+01 -0.44612432844E+01 -0.63228897079E+02  0.64131715444E+02  0.00000000000E+00 0. -1.
<mgrwt>
<rscale>  0 0.53759895E+02</rscale>
<asrwt>0</asrwt>
<pdfrwt beam="1">  1        1 0.10894080E+00 0.92010762E+02</pdfrwt>
<pdfrwt beam="2">  1       -1 0.57471916E-03 0.92010762E+02</pdfrwt>
<totfact> 0.10156074E+05</totfact>
</mgrwt>
</event>
<event>
 6    1  0.1661841E-002  0.9998299E+02  0.7546771E-02  0.1329626E+00
         -3   -1    0    0    0  501 -0.00000000000E+00  0.00000000000E+00  0.13031908223E+03  0.13031908223E+03  0.00000000000E+00 0.  1.
          3   -1    0    0  501    0  0.00000000000E+00 -0.00000000000E+00 -0.39036123001E+02  0.39036123001E+02  0.00000000000E+00 0. -1.
         23    2    1    2    0    0  0.26481995592E+02  0.30732353623E+02  0.77524944263E+02  0.12651764431E+03  0.91382841328E+02 0.  0.
         11    1    3    3    0    0  0.62561395060E+01  0.14066741454E+02  0.94203479694E+02  0.95453172200E+02  0.00000000000E+00 0.  1.
        -11    1    3    3    0    0  0.20225856086E+02  0.16665612169E+02 -0.16678535431E+02  0.31064472110E+02  0.00000000000E+00 0. -1.
         22    1    1    2    0    0 -0.26481995592E+02 -0.30732353623E+02  0.13758014963E+02  0.42837560919E+02  0.00000000000E+00 0. -1.
<mgrwt>
<rscale>  0 0.79797785E+02</rscale>
<asrwt>0</asrwt>
<pdfrwt beam="1">  1        3 0.60055574E-02 0.99982985E+02</pdfrwt>
<pdfrwt beam="2">  1       -3 0.20049089E-01 0.99982985E+02</pdfrwt>
<totfact> 0.80511340E+03</totfact>
</mgrwt>
</event>
<event>
 6    1  0.1661841E-002  0.6469642E+02  0.7546771E-02  0.1450562E+00
         -1   -1    0    0    0  501 -0.00000000000E+00  0.00000000000E+00  0.35812168410E+03  0.35812168410E+03  0.00000000000E+00 0.  1.
          1   -1    0    0  501    0  0.00000000000E+00 -0.00000000000E+00 -0.53397876294E+01  0.53397876294E+01  0.00000000000E+00 0. -1.
         23    2    1    2    0    0  0.12400575724E+02 -0.17399980105E+02  0.29048158384E+03  0.29759902006E+03  0.61066296800E+02 0.  0.
         13    1    3    3    0    0 -0.17054140717E+02 -0.38731373788E+00  0.27044143040E+02  0.31974668103E+02  0.00000000000E+00 0. -1.
        -13    1    3    3    0    0  0.29454716441E+02 -0.17012666368E+02  0.26343744080E+03  0.26562435195E+03  0.00000000000E+00 0.  1.
         22    1    1    2    0    0 -0.12400575724E+02  0.17399980105E+02  0.62300312630E+02  0.65862451668E+02  0.00000000000E+00 0. -1.
<mgrwt>
<rscale>  0 0.49044946E+02</rscale>
<asrwt>0</asrwt>
<pdfrwt beam="1">  1        1 0.82150607E-03 0.64696416E+02</pdfrwt>
<pdfrwt beam="2">  1       -1 0.55095625E-01 0.64696416E+02</pdfrwt>
<totfact> 0.59595279E+04</totfact>
</mgrwt>
</event>
<event>
 6    1  0.1661841E-002  0.9925861E+02  0.7546771E-02  0.1316987E+00
          2   -1    0    0  501    0  0.00000000000E+00  0.00000000000E+00  0.60330779520E+03  0.60330779520E+03  0.00000000000E+00 0. -1.
         -2   -1    0    0    0  501 -0.00000000000E+00 -0.00000000000E+00 -0.94773613186E+01  0.94773613186E+01  0.00000000000E+00 0.  1.
         23    2    1    2    0    0  0.24241060186E+02 -0.45900234312E+02  0.39837082440E+03  0.41055034387E+03  0.84603845119E+02 0.  0.
         13    1    3    3    0    0  0.18363615233E+02  0.15411216824E+02  0.37831805807E+02  0.44788095506E+02  0.00000000000E+00 0.  1.
        -13    1    3    3    0    0  0.58774449533E+01 -0.61311451137E+02  0.36053901859E+03  0.36576224836E+03  0.00000000000E+00 0. -1.
         22    1    1    2    0    0 -0.24241060186E+02  0.45900234312E+02  0.19545960949E+03  0.20223481265E+03  0.00000000000E+00 0. -1.
<mgrwt>
<rscale>  0 0.84408292E+02</rscale>
<asrwt>0</asrwt>
<pdfrwt beam="1">  1        2 0.92816554E-01 0.99258607E+02</pdfrwt>
<pdfrwt beam="2">  1       -2 0.14580561E-02 0.99258607E+02</pdfrwt>
<totfact> 0.55175657E+04</totfact>
</mgrwt>
</event>
<event>
 6    1  0.1661841E-002  0.9108790E+02  0.7546771E-02  0.1416871E+00
          1   -1    0    0  501    0  0.00000000000E+00  0.00000000000E+00  0.42214633157E+02  0.42214633157E+02  0.00000000000E+00 0. -1.
         -1   -1    0    0    0  501 -0.00000000000E+00 -0.00000000000E+00 -0.63830000511E+02  0.63830000511E+02  0.00000000000E+00 0.  1.
         23    2    1    2    0    0  0.54741940194E+01 -0.11488031451E+02 -0.18631473902E+02  0.92973853779E+02  0.90194589638E+02 0.  0.
         11    1    3    3    0    0  0.19451811646E+02 -0.32886078366E+02  0.22652545095E+02  0.44418520078E+02  0.00000000000E+00 0. -1.
        -11    1    3    3    0    0 -0.13977617627E+02  0.21398046915E+02 -0.41284018997E+02  0.48555333702E+02  0.00000000000E+00 0.  1.
         22    1    1    2    0    0 -0.54741940194E+01  0.11488031451E+02 -0.29838934511E+01  0.13070779889E+02  0.00000000000E+00 0. -1.
<mgrwt>
<rscale>  0 0.55688478E+02</rscale>
<asrwt>0</asrwt>
<pdfrwt beam="1">  1        1 0.64945590E-02 0.91087901E+02</pdfrwt>
<pdfrwt beam="2">  1       -1 0.98200000E-02 0.91087901E+02</pdfrwt>
<totfact> 0.61937725E+04</totfact>
</mgrwt>
</event>
<event>
 6    1  0.1661841E-002  0.9597487E+02  0.7546771E-02  0.1372681E+00
          1   -1    0    0  501    0  0.00000000000E+00  0.00000000000E+00  0.28603673493E+02  0.28603673493E+02  0.00000000000E+00 0. -1.
         -1   -1    0    0    0  501 -0.00000000000E+00 -0.00000000000E+00 -0.17625243482E+03  0.17625243482E+03  0.00000000000E+00 0.  1.
         23    2    1    2    0    0 -0.20874710131E+02  0.70250606609E+01 -0.15441877861E+03  0.18181401349E+03  0.93413442894E+02 0.  0.
         11    1    3    3    0    0 -0.14000913353E+02  0.50225489833E+02 -0.80024693666E+02  0.95512182469E+02  0.00000000000E+00 0.  1.
        -11    1    3    3    0    0 -0.68737967785E+01 -0.43200429172E+02 -0.74394084939E+02  0.86301831016E+02  0.00000000000E+00 0. -1.
         22    1    1    2    0    0  0.20874710131E+02 -0.70250606609E+01  0.67700172731E+01  0.23042094832E+02  0.00000000000E+00 0.  1.
<mgrwt>
<rscale>  0 0.66427457E+02</rscale>
<asrwt>0</asrwt>
<pdfrwt beam="1">  1        1 0.44005652E-02 0.95974873E+02</pdfrwt>
<pdfrwt beam="2">  1       -1 0.27115759E-01 0.95974873E+02</pdfrwt>
<totfact> 0.21476110E+04</totfact>
</mgrwt>
</event>
<event>
 6    1  0.1661841E-002  0.9365223E+02  0.7546771E-02  0.1413099E+00
         -1   -1    0    0    0  501 -0.00000000000E+00  0.00000000000E+00  0.48601388215E+03  0.48601388215E+03  0.00000000000E+00 0.  1.
          1   -1    0    0  501    0  0.00000000000E+00 -0.00000000000E+00 -0.58939332468E+01  0.58939332468E+01  0.00000000000E+00 0. -1.
         23    2    1    2    0    0  0.33198410854E+01  0.11961151088E+02  0.44217822938E+03  0.45198708694E+03  0.92825910942E+02 0.  0.
         11    1    3    3    0    0  0.27126927808E+02  0.20395791042E+01  0.36666209899E+02  0.45655679204E+02  0.00000000000E+00 0. -1.
        -11    1    3    3    0    0 -0.23807086722E+02  0.99215719838E+01  0.40551201948E+03  0.40633140774E+03  0.00000000000E+00 0.  1.
         22    1    1    2    0    0 -0.33198410854E+01 -0.11961151088E+02  0.37941719525E+02  0.39920728459E+02  0.00000000000E+00 0.  1.
<mgrwt>
<rscale>  0 0.56508082E+02</rscale>
<asrwt>0</asrwt>
<pdfrwt beam="1">  1        1 0.90675934E-03 0.93652230E+02</pdfrwt>
<pdfrwt beam="2">  1       -1 0.74771335E-01 0.93652230E+02</pdfrwt>
<totfact> 0.30788923E+04</totfact>
</mgrwt>
</event>
<event>
 6    1  0.1661841E-002  0.8607919E+02  0.7546771E-02  0.1438405E+00
          2   -1    0    0  501    0  0.00000000000E+00  0.00000000000E+00  0.37857629485E+02  0.37857629485E+02  0.00000000000E+00 0. -1.
         -2   -1    0    0    0  501 -0.00000000000E+00 -0.00000000000E+00 -0.66290301061E+02  0.66290301061E+02  0.00000000000E+00 0.  1.
         23    2    1    2    0    0 -0.95861997751E+01  0.51169882847E+01 -0.33228807432E+02  0.92270148161E+02  0.85390560386E+02 0.  0.
         13    1    3    3    0    0 -0.20801981057E+02  0.90150033750E+01  0.24472327472E+02  0.33359968730E+02  0.00000000000E+00 0. -1.
        -13    1    3    3    0    0  0.11215781282E+02 -0.38980150902E+01 -0.57701134904E+02  0.58910179431E+02  0.00000000000E+00 0.  1.
         22    1    1    2    0    0  0.95861997751E+01 -0.51169882847E+01  0.47961358569E+01  0.11877782385E+02  0.00000000000E+00 0.  1.
<mgrwt>
<rscale>  0 0.51309184E+02</rscale>
<asrwt>0</asrwt>
<pdfrwt beam="1">  1        2 0.58242508E-02 0.86079188E+02</pdfrwt>
<pdfrwt beam="2">  1       -2 0.10198508E-01 0.86079188E+02</pdfrwt>
<totfact> 0.69633724E+04</totfact>
</mgrwt>
</event>
<event>
 6    1  0.1661841E-002  0.9493961E+02  0.7546771E-02  0.1352019E+00
         -2   -1    0    0    0  501 -0.00000000000E+00  0.00000000000E+00  0.23168026826E+04  0.23168026826E+04  0.00000000000E+00 0.  1.
          2   -1    0    0  501    0  0.00000000000E+00 -0.00000000000E+00 -0.34002923025E+01  0.34002923025E+01  0.00000000000E+00 0. -1.
         23    2    1    2    0    0 -0.30271821376E+02  0.10860697051E+02  0.22071243825E+04  0.22091653558E+04  0.89326321009E+02 0.  0.
         13    1    3    3    0    0 -0.48856507470E+02 -0.15571432342E+01  0.63378602080E+03  0.63566823358E+03  0.00000000000E+00 0. -1.
        -13    1    3    3    0    0  0.18584686094E+02  0.12417840285E+02  0.15733383617E+04  0.15734971223E+04  0.00000000000E+00 0.  1.
         22    1    1    2    0    0  0.30271821376E+02 -0.10860697051E+02  0.10627800780E+03  0.11103761908E+03  0.00000000000E+00 0. -1.
<mgrwt>
<rscale>  0 0.72429984E+02</rscale>
<asrwt>0</asrwt>
<pdfrwt beam="1">  1        2 0.52312374E-03 0.94939610E+02</pdfrwt>
<pdfrwt beam="2">  1       -2 0.35642992E+00 0.94939610E+02</pdfrwt>
<totfact> 0.59072524E+02</totfact>
</mgrwt>
</event>
<event>
 6    1  0.1661841E-002  0.9272919E+02  0.7546771E-02  0.1401182E+00
          1   -1    0    0  501    0  0.00000000000E+00  0.00000000000E+00  0.37619279882E+02  0.37619279882E+02  0.00000000000E+00 0. -1.
         -1   -1    0    0    0  501 -0.00000000000E+00 -0.00000000000E+00 -0.93923849204E+02  0.93923849204E+02  0.00000000000E+00 0.  1.
         23    2    1    2    0    0 -0.15301728435E+02  0.18516831877E+01 -0.65560227478E+02  0.11356428509E+03  0.91439224604E+02 0.  0.
         11    1    3    3    0    0  0.30468586829E+02 -0.24588875882E+02 -0.34946527882E+02  0.52480543171E+02  0.00000000000E+00 0. -1.
        -11    1    3    3    0    0 -0.45770315264E+02  0.26440559070E+02 -0.30613699595E+02  0.61083741914E+02  0.00000000000E+00 0.  1.
         22    1    1    2    0    0  0.15301728435E+02 -0.18516831877E+01  0.92556581553E+01  0.17978844001E+02  0.00000000000E+00 0. -1.
<mgrwt>
<rscale>  0 0.59208858E+02</rscale>
<asrwt>0</asrwt>
<pdfrwt beam="1">  1        1 0.57875816E-02 0.92729194E+02</pdfrwt>
<pdfrwt beam="2">  1       -1 0.14449823E-01 0.92729194E+02</pdfrwt>
<totfact> 0.40184891E+04</totfact>
</mgrwt>
</event>
<event>
 6    1  0.1661841E-002  0.9417971E+02  0.7546771E-02  0.1399747E+00
         -2   -1    0    0    0  501 -0.00000000000E+00  0.00000000000E+00  0.24278497588E+02  0.24278497588E+02  0.00000000000E+00 0.  1.
          2   -1    0    0  501    0  0.00000000000E+00 -0.00000000000E+00 -0.14625794683E+03  0.14625794683E+03  0.00000000000E+00 0. -1.
         23    2    1    2    0    0  0.40000177056E+01  0.14508634747E+02 -0.72599168638E+02  0.11891365162E+03  0.92969439229E+02 0.  0.
         13    1    3    3    0    0 -0.21717536886E+02 -0.84655146539E+01 -0.80270119033E+02  0.83585933962E+02  0.00000000000E+00 0. -1.
        -13    1    3    3    0    0  0.25717554592E+02  0.22974149401E+02  0.76709503951E+01  0.35327717657E+02  0.00000000000E+00 0.  1.
         22    1    1    2    0    0 -0.40000177056E+01 -0.14508634747E+02 -0.49380280603E+02  0.51622792799E+02  0.00000000000E+00 0. -1.
<mgrwt>
<rscale>  0 0.59545874E+02</rscale>
<asrwt>0</asrwt>
<pdfrwt beam="1">  1        2 0.22501223E-01 0.94179707E+02</pdfrwt>
<pdfrwt beam="2">  1       -2 0.37351534E-02 0.94179707E+02</pdfrwt>
<totfact> 0.63966380E+04</totfact>
</mgrwt>
</event>
<event>
 6    1  0.1661841E-002  0.9630630E+02  0.7546771E-02  0.1348379E+00
          2   -1    0    0  501    0  0.00000000000E+00  0.00000000000E+00  0.17847464081E+02  0.17847464081E+02  0.00000000000E+00 0. -1.
         -2   -1    0    0    0  501 -0.00000000000E+00 -0.00000000000E+00 -0.34433589894E+03  0.34433589894E+03  0.00000000000E+00 0.  1.
         23    2    1    2    0    0 -0.72695226093E+01 -0.31969199800E+02 -0.31165994983E+03  0.32620059405E+03  0.90554003420E+02 0.  0.
         13    1    3    3    0    0 -0.16474155938E+02 -0.36053273422E+01 -0.28702763066E+03  0.28752261992E+03  0.00000000000E+00 0.  1.
        -13    1    3    3    0    0  0.92046333285E+01 -0.28363872457E+02 -0.24632319165E+02  0.38677974132E+02  0.00000000000E+00 0. -1.
         22    1    1    2    0    0  0.72695226093E+01  0.31969199800E+02 -0.14828485033E+02  0.35982768976E+02  0.00000000000E+00 0. -1.
<mgrwt>
<rscale>  0 0.73563232E+02</rscale>
<asrwt>0</asrwt>
<pdfrwt beam="1">  1        2 0.27457640E-02 0.96306299E+02</pdfrwt>
<pdfrwt beam="2">  1       -2 0.52974748E-01 0.96306299E+02</pdfrwt>
<totfact> 0.10887274E+04</totfact>
</mgrwt>
</event>
<event>
 6    1  0.1661841E-002  0.1003424E+03  0.7546771E-02  0.1361095E+00
          2   -1    0    0  501    0  0.00000000000E+00  0.00000000000E+00  0.41814519091E+02  0.41814519091E+02  0.00000000000E+00 0. -1.
         -2   -1    0    0    0  501 -0.00000000000E+00 -0.00000000000E+00 -0.95510775646E+02  0.95510775646E+02  0.00000000000E+00 0.  1.
         23    2    1    2    0    0 -0.22818876616E+02 -0.50396787890E+01 -0.54009474828E+02  0.11395442402E+03  0.97583235705E+02 0.  0.
         13    1    3    3    0    0  0.17843016854E+02 -0.34656530030E+02  0.15425513911E+01  0.39010611235E+02  0.00000000000E+00 0. -1.
        -13    1    3    3    0    0 -0.40661893470E+02  0.29616851241E+02 -0.55552026219E+02  0.74943812787E+02  0.00000000000E+00 0.  1.
         22    1    1    2    0    0  0.22818876616E+02  0.50396787890E+01  0.31321827329E+00  0.23370870715E+02  0.00000000000E+00 0. -1.
<mgrwt>
<rscale>  0 0.69706323E+02</rscale>
<asrwt>0</asrwt>
<pdfrwt beam="1">  1        2 0.64330030E-02 0.10034235E+03</pdfrwt>
<pdfrwt beam="2">  1       -2 0.14693965E-01 0.10034235E+03</pdfrwt>
<totfact> 0.35151211E+04</totfact>
</mgrwt>
</event>
<event>
 6    1  0.1661841E-002  0.9062852E+02  0.7546771E-02  0.1396499E+00
         -2   -1    0    0    0  501 -0.00000000000E+00  0.00000000000E+00  0.95553417312E+02  0.95553417312E+02  0.00000000000E+00 0. -1.
          2   -1    0    0  501    0  0.00000000000E+00 -0.00000000000E+00 -0.34424358091E+02  0.34424358091E+02  0.00000000000E+00 0.  1.
         23    2    1    2    0    0  0.14387727188E+02 -0.10452052774E+02  0.65310402349E+02  0.11170934002E+03  0.88866618552E+02 0.  0.
         11    1    3    3    0    0 -0.69520931231E+01  0.24936231007E+02 -0.83909454178E+01  0.27213143527E+02  0.00000000000E+00 0.  1.
        -11    1    3    3    0    0  0.21339820311E+02 -0.35388283781E+02  0.73701347767E+02  0.84496196497E+02  0.00000000000E+00 0. -1.
         22    1    1    2    0    0 -0.14387727188E+02  0.10452052774E+02 -0.41813431282E+01  0.18268435379E+02  0.00000000000E+00 0. -1.
<mgrwt>
<rscale>  0 0.60318819E+02</rscale>
<asrwt>0</asrwt>
<pdfrwt beam="1">  1        2 0.52960551E-02 0.90628516E+02</pdfrwt>
<pdfrwt beam="2">  1       -2 0.14700526E-01 0.90628516E+02</pdfrwt>
<totfact> 0.44414682E+04</totfact>
</mgrwt>
</event>
<event>
 6    1  0.1661841E-002  0.9816433E+02  0.7546771E-02  0.1364017E+00
         -4   -1    0    0    0  501 -0.00000000000E+00  0.00000000000E+00  0.84323909146E+02  0.84323909146E+02  0.00000000000E+00 0. -1.
          4   -1    0    0  501    0  0.00000000000E+00 -0.00000000000E+00 -0.46295159807E+02  0.46295159807E+02  0.00000000000E+00 0.  1.
         23    2    1    2    0    0 -0.19249054699E+02 -0.13941423923E+02  0.41543579652E+02  0.10659317792E+03  0.95243620054E+02 0.  0.
         13    1    3    3    0    0 -0.23044414004E+02  0.18374102316E+02 -0.20933872001E+02  0.36150790443E+02  0.00000000000E+00 0.  1.
        -13    1    3    3    0    0  0.37953593047E+01 -0.32315526239E+02  0.62477451654E+02  0.70442387477E+02  0.00000000000E+00 0. -1.
         22    1    1    2    0    0  0.19249054699E+02  0.13941423923E+02 -0.35148303126E+01  0.24025891033E+02  0.00000000000E+00 0.  1.
<mgrwt>
<rscale>  0 0.68859002E+02</rscale>
<asrwt>0</asrwt>
<pdfrwt beam="1">  1        4 0.71223323E-02 0.98164335E+02</pdfrwt>
<pdfrwt beam="2">  1       -4 0.12972909E-01 0.98164335E+02</pdfrwt>
<totfact> 0.96684439E+03</totfact>
</mgrwt>
</event>
<event>
 6    1  0.1661841E-002  0.9011008E+02  0.7546771E-02  0.1430470E+00
          2   -1    0    0  501    0  0.00000000000E+00  0.00000000000E+00  0.18416772036E+02  0.18416772036E+02  0.00000000000E+00 0. -1.
         -2   -1    0    0    0  501 -0.00000000000E+00 -0.00000000000E+00 -0.13907792132E+03  0.13907792132E+03  0.00000000000E+00 0.  1.
         23    2    1    2    0    0 -0.58139301283E+01  0.89531982379E+01 -0.10295569808E+03  0.13681996133E+03  0.89475496689E+02 0.  0.
         13    1    3    3    0    0 -0.35295422573E+02 -0.25698114611E+02 -0.60369383209E+02  0.74502499140E+02  0.00000000000E+00 0. -1.
        -13    1    3    3    0    0  0.29481492444E+02  0.34651312849E+02 -0.42586314876E+02  0.62317462189E+02  0.00000000000E+00 0.  1.
         22    1    1    2    0    0  0.58139301283E+01 -0.89531982379E+01 -0.17705451199E+02  0.20674732027E+02  0.00000000000E+00 0. -1.
<mgrwt>
<rscale>  0 0.52865800E+02</rscale>
<asrwt>0</asrwt>
<pdfrwt beam="1">  1        2 0.28333496E-02 0.90110077E+02</pdfrwt>
<pdfrwt beam="2">  1       -2 0.21396602E-01 0.90110077E+02</pdfrwt>
<totfact> 0.54173152E+04</totfact>
</mgrwt>
</event>
<event>
 6    1  0.1661841E-002  0.9606459E+02  0.7546771E-02  0.1402604E+00
          1   -1    0    0  501    0  0.00000000000E+00  0.00000000000E+00  0.18437727075E+03  0.18437727075E+03  0.00000000000E+00 0. -1.
         -1   -1    0    0    0  501 -0.00000000000E+00 -0.00000000000E+00 -0.16293323216E+02  0.16293323216E+02  0.00000000000E+00 0.  1.
         23    2    1    2    0    0 -0.13026106254E+02  0.37497571571E+01  0.14732519817E+03  0.17587813951E+03  0.95103447984E+02 0.  0.
         13    1    3    3    0    0 -0.50717218416E+02  0.10380781700E+02  0.11371547123E+03  0.12494480889E+03  0.00000000000E+00 0. -1.
        -13    1    3    3    0    0  0.37691112163E+02 -0.66310245425E+01  0.33609726941E+02  0.50933330616E+02  0.00000000000E+00 0.  1.
         22    1    1    2    0    0  0.13026106254E+02 -0.37497571571E+01  0.20758749366E+02  0.24792454459E+02  0.00000000000E+00 0.  1.
<mgrwt>
<rscale>  0 0.58877317E+02</rscale>
<asrwt>0</asrwt>
<pdfrwt beam="1">  1        1 0.28365733E-01 0.96064593E+02</pdfrwt>
<pdfrwt beam="2">  1       -1 0.25066652E-02 0.96064593E+02</pdfrwt>
<totfact> 0.69381870E+04</totfact>
</mgrwt>
</event>
<event>
 6    1  0.1661841E-002  0.9822366E+02  0.7546771E-02  0.1338994E+00
         -1   -1    0    0    0  501 -0.00000000000E+00  0.00000000000E+00  0.13571362449E+03  0.13571362449E+03  0.00000000000E+00 0.  1.
          1   -1    0    0  501    0  0.00000000000E+00 -0.00000000000E+00 -0.33804469458E+02  0.33804469458E+02  0.00000000000E+00 0. -1.
         23    2    1    2    0    0  0.36090394673E+02  0.41257728636E+01  0.82834472439E+02  0.12848905417E+03  0.91259786473E+02 0.  0.
         11    1    3    3    0    0  0.66357221117E+02  0.10328786213E+02  0.60206537345E+02  0.90193080433E+02  0.00000000000E+00 0.  1.
        -11    1    3    3    0    0 -0.30266826444E+02 -0.62030133497E+01  0.22627935094E+02  0.38295973734E+02  0.00000000000E+00 0. -1.
         22    1    1    2    0    0 -0.36090394673E+02 -0.41257728636E+01  0.19074682595E+02  0.41029039782E+02  0.00000000000E+00 0.  1.
<mgrwt>
<rscale>  0 0.76597544E+02</rscale>
<asrwt>0</asrwt>
<pdfrwt beam="1">  1        1 0.52006877E-02 0.98223659E+02</pdfrwt>
<pdfrwt beam="2">  1       -1 0.20879019E-01 0.98223659E+02</pdfrwt>
<totfact> 0.26224706E+04</totfact>
</mgrwt>
</event>
<event>
 6    1  0.1661841E-002  0.9934456E+02  0.7546771E-02  0.1333944E+00
          2   -1    0    0  501    0  0.00000000000E+00  0.00000000000E+00  0.20322999109E+02  0.20322999109E+02  0.00000000000E+00 0. -1.
         -2   -1    0    0    0  501 -0.00000000000E+00 -0.00000000000E+00 -0.23906301734E+03  0.23906301734E+03  0.00000000000E+00 0.  1.
         23    2    1    2    0    0 -0.14992649363E+02 -0.35284852839E+02 -0.17491886102E+03  0.20116150104E+03  0.91649010839E+02 0.  0.
         11    1    3    3    0    0 -0.30375405944E+02  0.22296369160E+02 -0.48669760106E+02  0.61551108136E+02  0.00000000000E+00 0.  1.
        -11    1    3    3    0    0  0.15382756581E+02 -0.57581221999E+02 -0.12624910091E+03  0.13961039291E+03  0.00000000000E+00 0. -1.
         22    1    1    2    0    0  0.14992649363E+02  0.35284852839E+02 -0.43821157218E+02  0.58224515409E+02  0.00000000000E+00 0. -1.
<mgrwt>
<rscale>  0 0.78300649E+02</rscale>
<asrwt>0</asrwt>
<pdfrwt beam="1">  1        2 0.31266152E-02 0.99344560E+02</pdfrwt>
<pdfrwt beam="2">  1       -2 0.36778926E-01 0.99344560E+02</pdfrwt>
<totfact> 0.18497995E+04</totfact>
</mgrwt>
</event>
<event>
 6    1  0.1661841E-002  0.9574703E+02  0.7546771E-02  0.1346936E+00
         -3   -1    0    0    0  501 -0.00000000000E+00  0.00000000000E+00  0.10392538489E+03  0.10392538489E+03  0.00000000000E+00 0.  1.
          3   -1    0    0  501    0  0.00000000000E+00 -0.00000000000E+00 -0.58984671675E+02  0.58984671675E+02  0.00000000000E+00 0. -1.
         23    2    1    2    0    0 -0.10921517788E+02 -0.32406846720E+02  0.71592609991E+02  0.11955331699E+03  0.89431596945E+02 0.  0.
         11    1    3    3    0    0  0.40515962085E+00  0.28156715353E+02  0.45954806506E+01  0.28532143561E+02  0.00000000000E+00 0. -1.
        -11    1    3    3    0    0 -0.11326677409E+02 -0.60563562073E+02  0.66997129340E+02  0.91021173426E+02  0.00000000000E+00 0.  1.
         22    1    1    2    0    0  0.10921517788E+02  0.32406846720E+02 -0.26651896775E+02  0.43356739578E+02  0.00000000000E+00 0. -1.
<mgrwt>
<rscale>  0 0.74019004E+02</rscale>
<asrwt>0</asrwt>
<pdfrwt beam="1">  1        3 0.90745649E-02 0.95747030E+02</pdfrwt>
<pdfrwt beam="2">  1       -3 0.15988521E-01 0.95747030E+02</pdfrwt>
<totfact> 0.60735195E+03</totfact>
</mgrwt>
</event>
<event>
 6    1  0.1661841E-002  0.1109540E+03  0.7546771E-02  0.1286337E+00
          2   -1    0    0  501    0  0.00000000000E+00  0.00000000000E+00  0.32189616432E+03  0.32189616432E+03  0.00000000000E+00 0. -1.
         -2   -1    0    0    0  501 -0.00000000000E+00 -0.00000000000E+00 -0.42627678214E+02  0.42627678214E+02  0.00000000000E+00 0.  1.
         23    2    1    2    0    0  0.35867744323E+02 -0.54566200587E+02  0.27787736412E+03  0.29920998068E+03  0.89704056340E+02 0.  0.
         11    1    3    3    0    0  0.42584730525E+02 -0.71512261583E+02  0.26244241493E+03  0.27532432509E+03  0.00000000000E+00 0. -1.
        -11    1    3    3    0    0 -0.67169862012E+01  0.16946060995E+02  0.15434949183E+02  0.23885655594E+02  0.00000000000E+00 0.  1.
         22    1    1    2    0    0 -0.35867744323E+02  0.54566200587E+02  0.13911219904E+01  0.65313861850E+02  0.00000000000E+00 0.  1.
<mgrwt>
<rscale>  0 0.97181554E+02</rscale>
<asrwt>0</asrwt>
<pdfrwt beam="1">  1        2 0.49522485E-01 0.11095397E+03</pdfrwt>
<pdfrwt beam="2">  1       -2 0.65581046E-02 0.11095397E+03</pdfrwt>
<totfact> 0.12118415E+04</totfact>
</mgrwt>
</event>
<event>
 6    1  0.1661841E-002  0.9056661E+02  0.7546771E-02  0.1428875E+00
          3   -1    0    0  501    0  0.00000000000E+00  0.00000000000E+00  0.10990142768E+03  0.10990142768E+03  0.00000000000E+00 0. -1.
         -3   -1    0    0    0  501 -0.00000000000E+00 -0.00000000000E+00 -0.33969382096E+02  0.33969382096E+02  0.00000000000E+00 0.  1.
         23    2    1    2    0    0 -0.40610061135E+01  0.99773814979E+01  0.28077869244E+02  0.94819182837E+02  0.89923694210E+02 0.  0.
         13    1    3    3    0    0  0.38658641049E+02 -0.12726517561E+01  0.32366834350E+02  0.50435326272E+02  0.00000000000E+00 0. -1.
        -13    1    3    3    0    0 -0.42719647163E+02  0.11250033254E+02 -0.42889651063E+01  0.44383856565E+02  0.00000000000E+00 0.  1.
         22    1    1    2    0    0  0.40610061135E+01 -0.99773814979E+01  0.47854176335E+02  0.49051626934E+02  0.00000000000E+00 0. -1.
<mgrwt>
<rscale>  0 0.53186573E+02</rscale>
<asrwt>0</asrwt>
<pdfrwt beam="1">  1        3 0.16907912E-01 0.90566609E+02</pdfrwt>
<pdfrwt beam="2">  1       -3 0.52260588E-02 0.90566609E+02</pdfrwt>
<totfact> 0.13155586E+04</totfact>
</mgrwt>
</event>
<event>
 6    1  0.1661841E-002  0.9155238E+02  0.7546771E-02  0.1390055E+00
          2   -1    0    0  501    0  0.00000000000E+00  0.00000000000E+00  0.17421219768E+02  0.17421219768E+02  0.00000000000E+00 0. -1.
         -2   -1    0    0    0  501 -0.00000000000E+00 -0.00000000000E+00 -0.18198291624E+03  0.18198291624E+03  0.00000000000E+00 0.  1.
         23    2    1    2    0    0  0.19101032755E+02 -0.91822965174E+00 -0.14838897277E+03  0.17435918462E+03  0.89532929272E+02 0.  0.
         13    1    3    3    0    0 -0.34193713341E+02 -0.13426503377E+02 -0.63053013484E+02  0.72973718107E+02  0.00000000000E+00 0.  1.
        -13    1    3    3    0    0  0.53294746096E+02  0.12508273725E+02 -0.85335959285E+02  0.10138546651E+03  0.00000000000E+00 0. -1.
         22    1    1    2    0    0 -0.19101032755E+02  0.91822965174E+00 -0.16172723703E+02  0.25044951387E+02  0.00000000000E+00 0. -1.
<mgrwt>
<rscale>  0 0.61893030E+02</rscale>
<asrwt>0</asrwt>
<pdfrwt beam="1">  1        2 0.26801876E-02 0.91552379E+02</pdfrwt>
<pdfrwt beam="2">  1       -2 0.27997372E-01 0.91552379E+02</pdfrwt>
<totfact> 0.36770740E+04</totfact>
</mgrwt>
</event>
<event>
 6    1  0.1661841E-002  0.9139576E+02  0.7546771E-02  0.1420542E+00
          2   -1    0    0  501    0  0.00000000000E+00  0.00000000000E+00  0.55139827379E+03  0.55139827379E+03  0.00000000000E+00 0. -1.
         -2   -1    0    0    0  501 -0.00000000000E+00 -0.00000000000E+00 -0.48384525266E+01  0.48384525266E+01  0.00000000000E+00 0.  1.
         23    2    1    2    0    0 -0.92121422369E+01 -0.75402182353E+01  0.48211847467E+03  0.49070501181E+03  0.90617142639E+02 0.  0.
         13    1    3    3    0    0  0.32360629386E+02 -0.90377561837E+01  0.84783920805E+02  0.91198709411E+02  0.00000000000E+00 0.  1.
        -13    1    3    3    0    0 -0.41572771623E+02  0.14975379484E+01  0.39733455386E+03  0.39950630240E+03  0.00000000000E+00 0. -1.
         22    1    1    2    0    0  0.92121422369E+01  0.75402182353E+01  0.64441346598E+02  0.65531714512E+02  0.00000000000E+00 0.  1.
<mgrwt>
<rscale>  0 0.54906383E+02</rscale>
<asrwt>0</asrwt>
<pdfrwt beam="1">  1        2 0.84830454E-01 0.91395760E+02</pdfrwt>
<pdfrwt beam="2">  1       -2 0.74437775E-03 0.91395760E+02</pdfrwt>
<totfact> 0.15647533E+05</totfact>
</mgrwt>
</event>
<event>
 6    1  0.1661841E-002  0.9147318E+02  0.7546771E-02  0.1362503E+00
          2   -1    0    0  501    0  0.00000000000E+00  0.00000000000E+00  0.18294511147E+02  0.18294511147E+02  0.00000000000E+00 0. -1.
         -2   -1    0    0    0  501 -0.00000000000E+00 -0.00000000000E+00 -0.22893865877E+03  0.22893865877E+03  0.00000000000E+00 0.  1.
         23    2    1    2    0    0 -0.13695595396E+02 -0.26834183571E+02 -0.18951307230E+03  0.21043418779E+03  0.86369555262E+02 0.  0.
         13    1    3    3    0    0 -0.23437370793E+02 -0.13380956749E+01 -0.18000850227E+03  0.18153281175E+03  0.00000000000E+00 0.  1.
        -13    1    3    3    0    0  0.97417753967E+01 -0.25496087896E+02 -0.95045700319E+01  0.28901376046E+02  0.00000000000E+00 0. -1.
         22    1    1    2    0    0  0.13695595396E+02  0.26834183571E+02 -0.21131075315E+02  0.36798982121E+02  0.00000000000E+00 0. -1.
<mgrwt>
<rscale>  0 0.69296245E+02</rscale>
<asrwt>0</asrwt>
<pdfrwt beam="1">  1        2 0.28145401E-02 0.91473181E+02</pdfrwt>
<pdfrwt beam="2">  1       -2 0.35221333E-01 0.91473181E+02</pdfrwt>
<totfact> 0.22804430E+04</totfact>
</mgrwt>
</event>
<event>
 6    1  0.1661841E-002  0.9637815E+02  0.7546771E-02  0.1364075E+00
          4   -1    0    0  501    0  0.00000000000E+00  0.00000000000E+00  0.38023880553E+02  0.38023880553E+02  0.00000000000E+00 0. -1.
         -4   -1    0    0    0  501 -0.00000000000E+00 -0.00000000000E+00 -0.10509250356E+03  0.10509250356E+03  0.00000000000E+00 0.  1.
         23    2    1    2    0    0  0.20551494645E+02 -0.14390875899E+02 -0.68093751250E+02  0.11800638354E+03  0.93055286548E+02 0.  0.
         11    1    3    3    0    0  0.55074907576E+02  0.67829603008E+01 -0.34098414488E+02  0.65130299136E+02  0.00000000000E+00 0.  1.
        -11    1    3    3    0    0 -0.34523412932E+02 -0.21173836200E+02 -0.33995336762E+02  0.52876084399E+02  0.00000000000E+00 0. -1.
         22    1    1    2    0    0 -0.20551494645E+02  0.14390875899E+02  0.10251282385E+01  0.25110000581E+02  0.00000000000E+00 0. -1.
<mgrwt>
<rscale>  0 0.68842251E+02</rscale>
<asrwt>0</asrwt>
<pdfrwt beam="1">  1        4 0.58498279E-02 0.96378149E+02</pdfrwt>
<pdfrwt beam="2">  1       -4 0.16168077E-01 0.96378149E+02</pdfrwt>
<totfact> 0.90450899E+03</totfact>
</mgrwt>
</event>
<event>
 6    1  0.1661841E-002  0.9427063E+02  0.7546771E-02  0.1407499E+00
          2   -1    0    0  501    0  0.00000000000E+00  0.00000000000E+00  0.47880740691E+02  0.47880740691E+02  0.00000000000E+00 0. -1.
         -2   -1    0    0    0  501 -0.00000000000E+00 -0.00000000000E+00 -0.11970456322E+03  0.11970456322E+03  0.00000000000E+00 0.  1.
         23    2    1    2    0    0  0.31973552510E+01 -0.12890883668E+02 -0.99389894587E+02  0.13698650834E+03  0.93330350680E+02 0.  0.
         13    1    3    3    0    0 -0.16658200469E+02 -0.20403082461E+02 -0.11010132188E+03  0.11320813795E+03  0.00000000000E+00 0.  1.
        -13    1    3    3    0    0  0.19855555720E+02  0.75121987929E+01  0.10711427297E+02  0.23778370390E+02  0.00000000000E+00 0. -1.
         22    1    1    2    0    0 -0.31973552510E+01  0.12890883668E+02  0.27566072053E+02  0.30598795578E+02  0.00000000000E+00 0. -1.
<mgrwt>
<rscale>  0 0.57755589E+02</rscale>
<asrwt>0</asrwt>
<pdfrwt beam="1">  1        2 0.73662678E-02 0.94270633E+02</pdfrwt>
<pdfrwt beam="2">  1       -2 0.18416087E-01 0.94270633E+02</pdfrwt>
<totfact> 0.20318151E+04</totfact>
</mgrwt>
</event>
<event>
 6    1  0.1661841E-002  0.1117358E+03  0.7546771E-02  0.1296283E+00
         -2   -1    0    0    0  501 -0.00000000000E+00  0.00000000000E+00  0.15871976540E+03  0.15871976540E+03  0.00000000000E+00 0.  1.
          2   -1    0    0  501    0  0.00000000000E+00 -0.00000000000E+00 -0.52024713593E+02  0.52024713593E+02  0.00000000000E+00 0. -1.
         23    2    1    2    0    0 -0.22503576643E+02 -0.48085392888E+02  0.26944539262E+02  0.11493863250E+03  0.98317165715E+02 0.  0.
         13    1    3    3    0    0 -0.44215671407E+02 -0.11560923236E+02 -0.21494356919E+02  0.50504335689E+02  0.00000000000E+00 0. -1.
        -13    1    3    3    0    0  0.21712094764E+02 -0.36524469652E+02  0.48438896181E+02  0.64434296812E+02  0.00000000000E+00 0.  1.
         22    1    1    2    0    0  0.22503576643E+02  0.48085392888E+02  0.79750512550E+02  0.95805846496E+02  0.00000000000E+00 0.  1.
<mgrwt>
<rscale>  0 0.92768096E+02</rscale>
<asrwt>0</asrwt>
<pdfrwt beam="1">  1        2 0.80038022E-02 0.11173576E+03</pdfrwt>
<pdfrwt beam="2">  1       -2 0.24418425E-01 0.11173576E+03</pdfrwt>
<totfact> 0.11562409E+04</totfact>
</mgrwt>
</event>
<event>
 6    1  0.1661841E-002  0.9461284E+02  0.7546771E-02  0.1352801E+00
          3   -1    0    0  501    0  0.00000000000E+00  0.00000000000E+00  0.59498876020E+02  0.59498876020E+02  0.00000000000E+00 0. -1.
         -3   -1    0    0    0  501 -0.00000000000E+00 -0.00000000000E+00 -0.73431493321E+02  0.73431493321E+02  0.00000000000E+00 0.  1.
         23    2    1    2    0    0  0.21723328342E+02 -0.23587618735E+02 -0.26866506023E+02  0.98353437300E+02  0.89012980688E+02 0.  0.
         13    1    3    3    0    0  0.27488328158E+02  0.15541741635E+01  0.27042174153E+02  0.38591486434E+02  0.00000000000E+00 0. -1.
        -13    1    3    3    0    0 -0.57649998160E+01 -0.25141792899E+02 -0.53908680176E+02  0.59761950866E+02  0.00000000000E+00 0.  1.
         22    1    1    2    0    0 -0.21723328342E+02  0.23587618735E+02  0.12933888722E+02  0.34576932040E+02  0.00000000000E+00 0. -1.
<mgrwt>
<rscale>  0 0.72189896E+02</rscale>
<asrwt>0</asrwt>
<pdfrwt beam="1">  1        3 0.91536733E-02 0.94612840E+02</pdfrwt>
<pdfrwt beam="2">  1       -3 0.11297153E-01 0.94612840E+02</pdfrwt>
<totfact> 0.10701873E+04</totfact>
</mgrwt>
</event>
<event>
 6    1  0.1661841E-002  0.9380889E+02  0.7546771E-02  0.1368161E+00
         -2   -1    0    0    0  501 -0.00000000000E+00  0.00000000000E+00  0.17040081366E+02  0.17040081366E+02  0.00000000000E+00 0.  1.
          2   -1    0    0  501    0  0.00000000000E+00 -0.00000000000E+00 -0.20885198209E+03  0.20885198209E+03  0.00000000000E+00 0. -1.
         23    2    1    2    0    0  0.13992011929E+02  0.21219973693E+02 -0.15434596465E+03  0.18061778768E+03  0.90299749395E+02 0.  0.
         11    1    3    3    0    0  0.16123991016E+02  0.33632785802E+02 -0.16175910721E+03  0.16600348229E+03  0.00000000000E+00 0. -1.
        -11    1    3    3    0    0 -0.21319790865E+01 -0.12412812109E+02  0.74131425627E+01  0.14614305387E+02  0.00000000000E+00 0.  1.
         22    1    1    2    0    0 -0.13992011929E+02 -0.21219973693E+02 -0.37465936080E+02  0.45274275783E+02  0.00000000000E+00 0. -1.
<mgrwt>
<rscale>  0 0.67681102E+02</rscale>
<asrwt>0</asrwt>
<pdfrwt beam="1">  1        2 0.32131074E-01 0.93808893E+02</pdfrwt>
<pdfrwt beam="2">  1       -2 0.26215510E-02 0.93808893E+02</pdfrwt>
<totfact> 0.72837362E+04</totfact>
</mgrwt>
</event>
<event>
 6    1  0.1661841E-002  0.9580042E+02  0.7546771E-02  0.1351451E+00
         -2   -1    0    0    0  501 -0.00000000000E+00  0.00000000000E+00  0.36281003432E+02  0.36281003432E+02  0.00000000000E+00 0.  1.
          2   -1    0    0  501    0  0.00000000000E+00 -0.00000000000E+00 -0.11670706972E+03  0.11670706972E+03  0.00000000000E+00 0. -1.
         23    2    1    2    0    0  0.21882526193E+02 -0.22805856456E+02 -0.46060244418E+02  0.10629801260E+03  0.90436548619E+02 0.  0.
         11    1    3    3    0    0  0.51749076679E+02 -0.10516053993E+02 -0.51249918993E+02  0.73587420974E+02  0.00000000000E+00 0. -1.
        -11    1    3    3    0    0 -0.29866550486E+02 -0.12289802463E+02  0.51896745748E+01  0.32710591629E+02  0.00000000000E+00 0.  1.
         22    1    1    2    0    0 -0.21882526193E+02  0.22805856456E+02 -0.34365821869E+02  0.46690060548E+02  0.00000000000E+00 0.  1.
<mgrwt>
<rscale>  0 0.72605355E+02</rscale>
<asrwt>0</asrwt>
<pdfrwt beam="1">  1        2 0.17954934E-01 0.95800425E+02</pdfrwt>
<pdfrwt beam="2">  1       -2 0.55816928E-02 0.95800425E+02</pdfrwt>
<totfact> 0.45510772E+04</totfact>
</mgrwt>
</event>
<event>
 6    1  0.1661841E-002  0.9328533E+02  0.7546771E-02  0.1370427E+00
          2   -1    0    0  501    0  0.00000000000E+00  0.00000000000E+00  0.68258959525E+03  0.68258959525E+03  0.00000000000E+00 0. -1.
         -2   -1    0    0    0  501 -0.00000000000E+00 -0.00000000000E+00 -0.51246004216E+01  0.51246004216E+01  0.00000000000E+00 0.  1.
         23    2    1    2    0    0 -0.79754191066E+01  0.23583311269E+02  0.54633258380E+03  0.55423951979E+03  0.89902020513E+02 0.  0.
         13    1    3    3    0    0  0.85639904866E+01  0.76928619522E+01  0.51640761131E+03  0.51653590686E+03  0.00000000000E+00 0. -1.
        -13    1    3    3    0    0 -0.16539409593E+02  0.15890449317E+02  0.29924972491E+02  0.37703612927E+02  0.00000000000E+00 0.  1.
         22    1    1    2    0    0  0.79754191066E+01 -0.23583311269E+02  0.13113241103E+03  0.13347467589E+03  0.00000000000E+00 0. -1.
<mgrwt>
<rscale>  0 0.67048599E+02</rscale>
<asrwt>0</asrwt>
<pdfrwt beam="1">  1        2 0.10501371E+00 0.93285332E+02</pdfrwt>
<pdfrwt beam="2">  1       -2 0.78840060E-03 0.93285332E+02</pdfrwt>
<totfact> 0.11379291E+05</totfact>
</mgrwt>
</event>
<event>
 6    1  0.1661841E-002  0.9415671E+02  0.7546771E-02  0.1371220E+00
         -1   -1    0    0    0  501 -0.00000000000E+00  0.00000000000E+00  0.52310249806E+03  0.52310249806E+03  0.00000000000E+00 0.  1.
          1   -1    0    0  501    0  0.00000000000E+00 -0.00000000000E+00 -0.10715678323E+02  0.10715678323E+02  0.00000000000E+00 0. -1.
         23    2    1    2    0    0  0.22773633385E+02 -0.72345864384E+01  0.49596654966E+03  0.50482502395E+03  0.91074193981E+02 0.  0.
         13    1    3    3    0    0  0.58694144812E+01  0.11923700887E+02  0.46264342616E+03  0.46283427319E+03  0.00000000000E+00 0.  1.
        -13    1    3    3    0    0  0.16904218904E+02 -0.19158287325E+02  0.33323123503E+02  0.41990750767E+02  0.00000000000E+00 0. -1.
         22    1    1    2    0    0 -0.22773633385E+02  0.72345864384E+01  0.16420270080E+02  0.28993152433E+02  0.00000000000E+00 0. -1.
<mgrwt>
<rscale>  0 0.66829136E+02</rscale>
<asrwt>0</asrwt>
<pdfrwt beam="1">  1        1 0.16485663E-02 0.94156712E+02</pdfrwt>
<pdfrwt beam="2">  1       -1 0.80477288E-01 0.94156712E+02</pdfrwt>
<totfact> 0.11610310E+04</totfact>
</mgrwt>
</event>
<event>
 6    1  0.1661841E-002  0.9651244E+02  0.7546771E-02  0.1352491E+00
         -2   -1    0    0    0  501 -0.00000000000E+00  0.00000000000E+00  0.55170176790E+03  0.55170176790E+03  0.00000000000E+00 0.  1.
          2   -1    0    0  501    0  0.00000000000E+00 -0.00000000000E+00 -0.88072615551E+01  0.88072615551E+01  0.00000000000E+00 0. -1.
         23    2    1    2    0    0 -0.28506849938E+02 -0.10472199071E+02  0.49087935353E+03  0.50027711459E+03  0.91609738596E+02 0.  0.
         13    1    3    3    0    0 -0.27513251228E+00  0.49807446979E+01 -0.26846596430E+01  0.56648842039E+01  0.00000000000E+00 0. -1.
        -13    1    3    3    0    0 -0.28231717426E+02 -0.15452943769E+02  0.49356401318E+03  0.49461223038E+03  0.00000000000E+00 0.  1.
         22    1    1    2    0    0  0.28506849938E+02  0.10472199071E+02  0.52015152806E+02  0.60231914865E+02  0.00000000000E+00 0. -1.
<mgrwt>
<rscale>  0 0.72284794E+02</rscale>
<asrwt>0</asrwt>
<pdfrwt beam="1">  1        2 0.13549637E-02 0.96512443E+02</pdfrwt>
<pdfrwt beam="2">  1       -2 0.84877168E-01 0.96512443E+02</pdfrwt>
<totfact> 0.10550824E+04</totfact>
</mgrwt>
</event>
<event>
 6    1  0.1661841E-002  0.9141896E+02  0.7546771E-02  0.1409392E+00
         -2   -1    0    0    0  501 -0.00000000000E+00  0.00000000000E+00  0.11282809176E+02  0.11282809176E+02  0.00000000000E+00 0.  1.
          2   -1    0    0  501    0  0.00000000000E+00 -0.00000000000E+00 -0.25903777718E+03  0.25903777718E+03  0.00000000000E+00 0. -1.
         23    2    1    2    0    0  0.13651686002E+02  0.36789473400E+01 -0.18984525034E+03  0.21070986094E+03  0.90319008177E+02 0.  0.
         11    1    3    3    0    0 -0.12666737444E+02  0.15316605778E+02 -0.17877635146E+03  0.17987781545E+03  0.00000000000E+00 0. -1.
        -11    1    3    3    0    0  0.26318423447E+02 -0.11637658438E+02 -0.11068898874E+02  0.30832045487E+02  0.00000000000E+00 0.  1.
         22    1    1    2    0    0 -0.13651686002E+02 -0.36789473400E+01 -0.57909717665E+02  0.59610725414E+02  0.00000000000E+00 0. -1.
<mgrwt>
<rscale>  0 0.57329701E+02</rscale>
<asrwt>0</asrwt>
<pdfrwt beam="1">  1        2 0.39851966E-01 0.91418961E+02</pdfrwt>
<pdfrwt beam="2">  1       -2 0.17358168E-02 0.91418961E+02</pdfrwt>
<totfact> 0.10463953E+05</totfact>
</mgrwt>
</event>
<event>
 6    1  0.1661841E-002  0.9590549E+02  0.7546771E-02  0.1394636E+00
         -1   -1    0    0    0  501 -0.00000000000E+00  0.00000000000E+00  0.39022237798E+03  0.39022237798E+03  0.00000000000E+00 0.  1.
          1   -1    0    0  501    0  0.00000000000E+00 -0.00000000000E+00 -0.81244508181E+01  0.81244508181E+01  0.00000000000E+00 0. -1.
         23    2    1    2    0    0 -0.13013806992E+02 -0.83433172575E+01  0.34670521432E+03  0.35972540680E+03  0.94651426515E+02 0.  0.
         13    1    3    3    0    0 -0.45062906530E+02 -0.32535722300E+02  0.21174064171E+03  0.21891399709E+03  0.00000000000E+00 0. -1.
        -13    1    3    3    0    0  0.32049099537E+02  0.24192405042E+02  0.13496457262E+03  0.14081140971E+03  0.00000000000E+00 0.  1.
         22    1    1    2    0    0  0.13013806992E+02  0.83433172575E+01  0.35392712839E+02  0.38621422001E+02  0.00000000000E+00 0.  1.
<mgrwt>
<rscale>  0 0.60768084E+02</rscale>
<asrwt>0</asrwt>
<pdfrwt beam="1">  1        1 0.12499158E-02 0.95905488E+02</pdfrwt>
<pdfrwt beam="2">  1       -1 0.60034198E-01 0.95905488E+02</pdfrwt>
<totfact> 0.30259815E+04</totfact>
</mgrwt>
</event>
<event>
 6    1  0.1661841E-002  0.9002693E+02  0.7546771E-02  0.1424349E+00
         -2   -1    0    0    0  501 -0.00000000000E+00  0.00000000000E+00  0.18118886907E+02  0.18118886907E+02  0.00000000000E+00 0.  1.
          2   -1    0    0  501    0  0.00000000000E+00 -0.00000000000E+00 -0.15883223116E+03  0.15883223116E+03  0.00000000000E+00 0. -1.
         23    2    1    2    0    0 -0.24244702205E+01 -0.11497101864E+02 -0.99899494952E+02  0.13447957816E+03  0.89256856566E+02 0.  0.
         11    1    3    3    0    0 -0.23336636353E+02  0.30092539685E+02 -0.68356434342E+02  0.78248077657E+02  0.00000000000E+00 0. -1.
        -11    1    3    3    0    0  0.20912166132E+02 -0.41589641549E+02 -0.31543060610E+02  0.56231500506E+02  0.00000000000E+00 0.  1.
         22    1    1    2    0    0  0.24244702205E+01  0.11497101864E+02 -0.40813849304E+02  0.42471539908E+02  0.00000000000E+00 0. -1.
<mgrwt>
<rscale>  0 0.54111349E+02</rscale>
<asrwt>0</asrwt>
<pdfrwt beam="1">  1        2 0.24435727E-01 0.90026928E+02</pdfrwt>
<pdfrwt beam="2">  1       -2 0.27875211E-02 0.90026928E+02</pdfrwt>
<totfact> 0.88954725E+04</totfact>
</mgrwt>
</event>
<event>
 6    1  0.1661841E-002  0.8950875E+02  0.7546771E-02  0.1424774E+00
          4   -1    0    0  501    0  0.00000000000E+00  0.00000000000E+00  0.38601282873E+02  0.38601282873E+02  0.00000000000E+00 0. -1.
         -4   -1    0    0    0  501 -0.00000000000E+00 -0.00000000000E+00 -0.66577543374E+02  0.66577543374E+02  0.00000000000E+00 0.  1.
         23    2    1    2    0    0  0.11563279459E+01  0.11821404213E+02 -0.24972588466E+02  0.92927102386E+02  0.88717154436E+02 0.  0.
         11    1    3    3    0    0  0.25414911175E+02  0.23605270087E+01  0.25533999916E+02  0.36103669475E+02  0.00000000000E+00 0. -1.
        -11    1    3    3    0    0 -0.24258583229E+02  0.94608772047E+01 -0.50506588382E+02  0.56823432911E+02  0.00000000000E+00 0.  1.
         22    1    1    2    0    0 -0.11563279459E+01 -0.11821404213E+02 -0.30036720351E+01  0.12251723862E+02  0.00000000000E+00 0.  1.
<mgrwt>
<rscale>  0 0.54023577E+02</rscale>
<asrwt>0</asrwt>
<pdfrwt beam="1">  1        4 0.59386590E-02 0.89508749E+02</pdfrwt>
<pdfrwt beam="2">  1       -4 0.10242699E-01 0.89508749E+02</pdfrwt>
<totfact> 0.18823970E+04</totfact>
</mgrwt>
</event>
<event>
 6    1  0.1661841E-002  0.9104863E+02  0.7546771E-02  0.1397692E+00
          2   -1    0    0  501    0  0.00000000000E+00  0.00000000000E+00  0.19098236763E+03  0.19098236763E+03  0.00000000000E+00 0. -1.
         -2   -1    0    0    0  501 -0.00000000000E+00 -0.00000000000E+00 -0.15410721072E+02  0.15410721072E+02  0.00000000000E+00 0.  1.
         23    2    1    2    0    0  0.10475187608E+02 -0.13653291829E+02  0.15246791750E+03  0.17758468316E+03  0.89407560615E+02 0.  0.
         11    1    3    3    0    0 -0.17919386015E+02 -0.25209993340E+02  0.14178647452E+03  0.14512082040E+03  0.00000000000E+00 0. -1.
        -11    1    3    3    0    0  0.28394573623E+02  0.11556701511E+02  0.10681442982E+02  0.32463862759E+02  0.00000000000E+00 0.  1.
         22    1    1    2    0    0 -0.10475187608E+02  0.13653291829E+02  0.23103729063E+02  0.28808405541E+02  0.00000000000E+00 0. -1.
<mgrwt>
<rscale>  0 0.60033348E+02</rscale>
<asrwt>0</asrwt>
<pdfrwt beam="1">  1        2 0.29381901E-01 0.91048634E+02</pdfrwt>
<pdfrwt beam="2">  1       -2 0.23708803E-02 0.91048634E+02</pdfrwt>
<totfact> 0.92271452E+04</totfact>
</mgrwt>
</event>
<event>
 6    1  0.1661841E-002  0.9670091E+02  0.7546771E-02  0.1367662E+00
          2   -1    0    0  501    0  0.00000000000E+00  0.00000000000E+00  0.16567511728E+02  0.16567511728E+02  0.00000000000E+00 0.  1.
         -2   -1    0    0    0  501 -0.00000000000E+00 -0.00000000000E+00 -0.21986377223E+03  0.21986377223E+03  0.00000000000E+00 0. -1.
         23    2    1    2    0    0 -0.13962380174E+02 -0.18775322592E+02 -0.15364216483E+03  0.18154057422E+03  0.93827525152E+02 0.  0.
         13    1    3    3    0    0  0.26740211760E+01 -0.45859105400E+02 -0.13928235825E+03  0.14666213983E+03  0.00000000000E+00 0.  1.
        -13    1    3    3    0    0 -0.16636401350E+02  0.27083782808E+02 -0.14359806578E+02  0.34878434397E+02  0.00000000000E+00 0. -1.
         22    1    1    2    0    0  0.13962380174E+02  0.18775322592E+02 -0.49654095671E+02  0.54890709737E+02  0.00000000000E+00 0. -1.
<mgrwt>
<rscale>  0 0.67821445E+02</rscale>
<asrwt>0</asrwt>
<pdfrwt beam="1">  1        2 0.25488480E-02 0.96700906E+02</pdfrwt>
<pdfrwt beam="2">  1       -2 0.33825195E-01 0.96700906E+02</pdfrwt>
<totfact> 0.28235886E+04</totfact>
</mgrwt>
</event>
<event>
 6    1  0.1661841E-002  0.9693685E+02  0.7546771E-02  0.1354944E+00
         -2   -1    0    0    0  501 -0.00000000000E+00  0.00000000000E+00  0.35984497287E+02  0.35984497287E+02  0.00000000000E+00 0.  1.
          2   -1    0    0  501    0  0.00000000000E+00 -0.00000000000E+00 -0.13872315583E+03  0.13872315583E+03  0.00000000000E+00 0. -1.
         23    2    1    2    0    0  0.45088224201E+01  0.28395218283E+02 -0.38452091723E+02  0.10428478343E+03  0.92575022532E+02 0.  0.
         13    1    3    3    0    0 -0.33800556842E+02  0.36776690200E+02 -0.41514805177E+02  0.64949839367E+02  0.00000000000E+00 0. -1.
        -13    1    3    3    0    0  0.38309379262E+02 -0.83814719161E+01  0.30627134543E+01  0.39334944066E+02  0.00000000000E+00 0.  1.
         22    1    1    2    0    0 -0.45088224201E+01 -0.28395218283E+02 -0.64286566821E+02  0.70422869684E+02  0.00000000000E+00 0. -1.
<mgrwt>
<rscale>  0 0.71536844E+02</rscale>
<asrwt>0</asrwt>
<pdfrwt beam="1">  1        2 0.21342024E-01 0.96936849E+02</pdfrwt>
<pdfrwt beam="2">  1       -2 0.55360765E-02 0.96936849E+02</pdfrwt>
<totfact> 0.38010952E+04</totfact>
</mgrwt>
</event>
<event>
 6    1  0.1661841E-002  0.9507029E+02  0.7546771E-02  0.1375570E+00
         -2   -1    0    0    0  501 -0.00000000000E+00  0.00000000000E+00  0.13403672466E+02  0.13403672466E+02  0.00000000000E+00 0.  1.
          2   -1    0    0  501    0  0.00000000000E+00 -0.00000000000E+00 -0.25816608975E+03  0.25816608975E+03  0.00000000000E+00 0. -1.
         23    2    1    2    0    0  0.52791020251E+01 -0.20952998669E+02 -0.18456301679E+03  0.20760989284E+03  0.92582197884E+02 0.  0.
         13    1    3    3    0    0  0.36948295888E+02 -0.50715100650E+01 -0.16051556536E+03  0.16479121186E+03  0.00000000000E+00 0. -1.
        -13    1    3    3    0    0 -0.31669193863E+02 -0.15881488604E+02 -0.24047451429E+02  0.42818680975E+02  0.00000000000E+00 0.  1.
         22    1    1    2    0    0 -0.52791020251E+01  0.20952998669E+02 -0.60199400489E+02  0.63959869376E+02  0.00000000000E+00 0.  1.
<mgrwt>
<rscale>  0 0.65642674E+02</rscale>
<asrwt>0</asrwt>
<pdfrwt beam="1">  1        2 0.39717860E-01 0.95070292E+02</pdfrwt>
<pdfrwt beam="2">  1       -2 0.20621035E-02 0.95070292E+02</pdfrwt>
<totfact> 0.82480931E+04</totfact>
</mgrwt>
</event>
<event>
 6    1  0.1661841E-002  0.9274561E+02  0.7546771E-02  0.1419236E+00
          2   -1    0    0  501    0  0.00000000000E+00  0.00000000000E+00  0.40727625247E+03  0.40727625247E+03  0.00000000000E+00 0.  1.
         -2   -1    0    0    0  501 -0.00000000000E+00 -0.00000000000E+00 -0.68629986634E+01  0.68629986634E+01  0.00000000000E+00 0. -1.
         23    2    1    2    0    0  0.46651450722E+01 -0.10646242643E+02  0.33051325431E+03  0.34327941773E+03  0.92014353763E+02 0.  0.
         11    1    3    3    0    0  0.81446671105E+01 -0.47848070882E+02  0.11944951754E+03  0.12893393940E+03  0.00000000000E+00 0. -1.
        -11    1    3    3    0    0 -0.34795220383E+01  0.37201828238E+02  0.21106373678E+03  0.21434547833E+03  0.00000000000E+00 0.  1.
         22    1    1    2    0    0 -0.46651450722E+01  0.10646242643E+02  0.69899999493E+02  0.70859833404E+02  0.00000000000E+00 0. -1.
<mgrwt>
<rscale>  0 0.55182880E+02</rscale>
<asrwt>0</asrwt>
<pdfrwt beam="1">  1        2 0.62657866E-01 0.92745606E+02</pdfrwt>
<pdfrwt beam="2">  1       -2 0.10558463E-02 0.92745606E+02</pdfrwt>
<totfact> 0.13250727E+05</totfact>
</mgrwt>
</event>
<event>
 6    1  0.1661841E-002  0.1370882E+03  0.7546771E-02  0.1230804E+00
          2   -1    0    0  501    0  0.00000000000E+00  0.00000000000E+00  0.42978147571E+03  0.42978147571E+03  0.00000000000E+00 0. -1.
         -2   -1    0    0    0  501 -0.00000000000E+00 -0.00000000000E+00 -0.34955591178E+02  0.34955591178E+02  0.00000000000E+00 0.  1.
         23    2    1    2    0    0 -0.96286052361E+02  0.37808952427E+02  0.26841352236E+03  0.30139507574E+03  0.89959168133E+02 0.  0.
         11    1    3    3    0    0 -0.68129856262E+02  0.62652024814E+02  0.22880366257E+03  0.24681586159E+03  0.00000000000E+00 0. -1.
        -11    1    3    3    0    0 -0.28156196099E+02 -0.24843072388E+02  0.39609859792E+02  0.54579214149E+02  0.00000000000E+00 0.  1.
         22    1    1    2    0    0  0.96286052361E+02 -0.37808952427E+02  0.12641236218E+03  0.16334199115E+03  0.00000000000E+00 0.  1.
<mgrwt>
<rscale>  0 0.12776905E+03</rscale>
<asrwt>0</asrwt>
<pdfrwt beam="1">  1        2 0.66120224E-01 0.13708819E+03</pdfrwt>
<pdfrwt beam="2">  1       -2 0.53777835E-02 0.13708819E+03</pdfrwt>
<totfact> 0.12238586E+04</totfact>
</mgrwt>
</event>
<event>
 6    1  0.1661841E-002  0.1046082E+03  0.7546771E-02  0.1312157E+00
          1   -1    0    0  501    0  0.00000000000E+00  0.00000000000E+00  0.18998497567E+03  0.18998497567E+03  0.00000000000E+00 0. -1.
         -1   -1    0    0    0  501 -0.00000000000E+00 -0.00000000000E+00 -0.90730176947E+02  0.90730176947E+02  0.00000000000E+00 0.  1.
         23    2    1    2    0    0  0.35591397915E+02  0.32766447329E+02 -0.55609361536E+02  0.11847059706E+03  0.92749628575E+02 0.  0.
         11    1    3    3    0    0  0.20972862025E+02  0.63345498351E+02 -0.20819008722E+02  0.69899529519E+02  0.00000000000E+00 0. -1.
        -11    1    3    3    0    0  0.14618535890E+02 -0.30579051022E+02 -0.34790352814E+02  0.48571067539E+02  0.00000000000E+00 0.  1.
         22    1    1    2    0    0 -0.35591397915E+02 -0.32766447329E+02  0.15486416026E+03  0.16224455556E+03  0.00000000000E+00 0. -1.
<mgrwt>
<rscale>  0 0.86265145E+02</rscale>
<asrwt>0</asrwt>
<pdfrwt beam="1">  1        1 0.29228458E-01 0.10460823E+03</pdfrwt>
<pdfrwt beam="2">  1       -1 0.13958489E-01 0.10460823E+03</pdfrwt>
<totfact> 0.52985967E+03</totfact>
</mgrwt>
</event>
<event>
 6    1  0.1661841E-002  0.9859658E+02  0.7546771E-02  0.1401290E+00
          4   -1    0    0  501    0  0.00000000000E+00  0.00000000000E+00  0.23511611975E+02  0.23511611975E+02  0.00000000000E+00 0. -1.
         -4   -1    0    0    0  501 -0.00000000000E+00 -0.00000000000E+00 -0.13931135865E+03  0.13931135865E+03  0.00000000000E+00 0.  1.
         23    2    1    2    0    0  0.51287544287E+01 -0.11727954532E+02 -0.11252566476E+03  0.14961052756E+03  0.97762138313E+02 0.  0.
         11    1    3    3    0    0  0.24136464084E+00  0.42287761186E+02 -0.34446303249E+02  0.54542284611E+02  0.00000000000E+00 0. -1.
        -11    1    3    3    0    0  0.48873897878E+01 -0.54015715719E+02 -0.78079361506E+02  0.95068242946E+02  0.00000000000E+00 0.  1.
         22    1    1    2    0    0 -0.51287544287E+01  0.11727954532E+02 -0.32740819224E+01  0.13212443072E+02  0.00000000000E+00 0. -1.
<mgrwt>
<rscale>  0 0.59183666E+02</rscale>
<asrwt>0</asrwt>
<pdfrwt beam="1">  1        4 0.36171711E-02 0.98596576E+02</pdfrwt>
<pdfrwt beam="2">  1       -4 0.21432517E-01 0.98596576E+02</pdfrwt>
<totfact> 0.11860470E+04</totfact>
</mgrwt>
</event>
<event>
 6    1  0.1661841E-002  0.8438619E+02  0.7546771E-02  0.1438355E+00
          2   -1    0    0  501    0  0.00000000000E+00  0.00000000000E+00  0.37360337198E+02  0.37360337198E+02  0.00000000000E+00 0. -1.
         -2   -1    0    0    0  501 -0.00000000000E+00 -0.00000000000E+00 -0.64065378256E+02  0.64065378256E+02  0.00000000000E+00 0.  1.
         23    2    1    2    0    0 -0.41786585072E+01  0.10759416857E+02 -0.29769874604E+02  0.89483377211E+02  0.83593080606E+02 0.  0.
         11    1    3    3    0    0 -0.30405664736E+02 -0.12553646391E+02  0.11922548883E+02  0.34989222020E+02  0.00000000000E+00 0. -1.
        -11    1    3    3    0    0  0.26227006228E+02  0.23313063248E+02 -0.41692423488E+02  0.54494155191E+02  0.00000000000E+00 0.  1.
         22    1    1    2    0    0  0.41786585072E+01 -0.10759416857E+02  0.30648335466E+01  0.11942338242E+02  0.00000000000E+00 0. -1.
<mgrwt>
<rscale>  0 0.51318891E+02</rscale>
<asrwt>0</asrwt>
<pdfrwt beam="1">  1        2 0.57477442E-02 0.84386192E+02</pdfrwt>
<pdfrwt beam="2">  1       -2 0.98562120E-02 0.84386192E+02</pdfrwt>
<totfact> 0.74438940E+04</totfact>
</mgrwt>
</event>
<event>
 6    1  0.1661841E-002  0.9259276E+02  0.7546771E-02  0.1414384E+00
         -2   -1    0    0    0  501 -0.00000000000E+00  0.00000000000E+00  0.61286193016E+03  0.61286193016E+03  0.00000000000E+00 0.  1.
          2   -1    0    0  501    0  0.00000000000E+00 -0.00000000000E+00 -0.45825426236E+01  0.45825426236E+01  0.00000000000E+00 0. -1.
         23    2    1    2    0    0  0.77053706342E+01 -0.99574534766E+01  0.55689486096E+03  0.56453990599E+03  0.91732740463E+02 0.  0.
         11    1    3    3    0    0  0.43109084687E+02  0.18728967531E+02  0.27631263941E+03  0.28028171917E+03  0.00000000000E+00 0.  1.
        -11    1    3    3    0    0 -0.35403714053E+02 -0.28686421007E+02  0.28058222155E+03  0.28425818682E+03  0.00000000000E+00 0. -1.
         22    1    1    2    0    0 -0.77053706342E+01  0.99574534766E+01  0.51384526575E+02  0.52904566795E+02  0.00000000000E+00 0. -1.
<mgrwt>
<rscale>  0 0.56226949E+02</rscale>
<asrwt>0</asrwt>
<pdfrwt beam="1">  1        2 0.70500704E-03 0.92592760E+02</pdfrwt>
<pdfrwt beam="2">  1       -2 0.94286386E-01 0.92592760E+02</pdfrwt>
<totfact> 0.20327481E+04</totfact>
</mgrwt>
</event>
<event>
 6    1  0.1661841E-002  0.7527692E+02  0.7546771E-02  0.1456334E+00
         -2   -1    0    0    0  501 -0.00000000000E+00  0.00000000000E+00  0.32049175922E+03  0.32049175922E+03  0.00000000000E+00 0.  1.
          2   -1    0    0  501    0  0.00000000000E+00 -0.00000000000E+00 -0.62268952693E+01  0.62268952693E+01  0.00000000000E+00 0. -1.
         23    2    1    2    0    0  0.11825786236E+02 -0.39353683538E+01  0.24369302074E+03  0.25505470680E+03  0.74237987308E+02 0.  0.
         13    1    3    3    0    0  0.29747704775E+02 -0.29189127857E+02  0.10547839724E+03  0.11341350629E+03  0.00000000000E+00 0. -1.
        -13    1    3    3    0    0 -0.17921918539E+02  0.25253759503E+02  0.13821462350E+03  0.14164120051E+03  0.00000000000E+00 0.  1.
         22    1    1    2    0    0 -0.11825786236E+02  0.39353683538E+01  0.70571843211E+02  0.71663947689E+02  0.00000000000E+00 0. -1.
<mgrwt>
<rscale>  0 0.48018162E+02</rscale>
<asrwt>0</asrwt>
<pdfrwt beam="1">  1        2 0.95798414E-03 0.75276923E+02</pdfrwt>
<pdfrwt beam="2">  1       -2 0.49306412E-01 0.75276923E+02</pdfrwt>
<totfact> 0.50273112E+04</totfact>
</mgrwt>
</event>
<event>
 6    1  0.1661841E-002  0.8650055E+02  0.7546771E-02  0.1442941E+00
         -1   -1    0    0    0  501 -0.00000000000E+00  0.00000000000E+00  0.44197010080E+01  0.44197010080E+01  0.00000000000E+00 0.  1.
          1   -1    0    0  501    0  0.00000000000E+00 -0.00000000000E+00 -0.52852493984E+03  0.52852493984E+03  0.00000000000E+00 0. -1.
         23    2    1    2    0    0 -0.34211473770E+01 -0.94042191608E+01 -0.47831659097E+03  0.48607520667E+03  0.85919740177E+02 0.  0.
         11    1    3    3    0    0 -0.30348575306E+02  0.27049371721E+02 -0.19959680943E+03  0.20369484743E+03  0.00000000000E+00 0.  1.
        -11    1    3    3    0    0  0.26927427929E+02 -0.36453590882E+02 -0.27871978154E+03  0.28238035924E+03  0.00000000000E+00 0. -1.
         22    1    1    2    0    0  0.34211473770E+01  0.94042191608E+01 -0.45788647859E+02  0.46869434178E+02  0.00000000000E+00 0.  1.
<mgrwt>
<rscale>  0 0.50447779E+02</rscale>
<asrwt>0</asrwt>
<pdfrwt beam="1">  1        1 0.81311486E-01 0.86500551E+02</pdfrwt>
<pdfrwt beam="2">  1       -1 0.67995436E-03 0.86500551E+02</pdfrwt>
<totfact> 0.11798487E+05</totfact>
</mgrwt>
</event>
<event>
 6    1  0.1661841E-002  0.9602671E+02  0.7546771E-02  0.1368420E+00
          2   -1    0    0  501    0  0.00000000000E+00  0.00000000000E+00  0.54520780148E+01  0.54520780148E+01  0.00000000000E+00 0. -1.
         -2   -1    0    0    0  501 -0.00000000000E+00 -0.00000000000E+00 -0.74094796423E+03  0.74094796423E+03  0.00000000000E+00 0.  1.
         23    2    1    2    0    0  0.32952033496E+00 -0.23593203473E+02 -0.66868874154E+03  0.67554849030E+03  0.93082661364E+02 0.  0.
         13    1    3    3    0    0  0.37678115729E+02 -0.23581602122E+02 -0.53185538881E+03  0.53370955301E+03  0.00000000000E+00 0.  1.
        -13    1    3    3    0    0 -0.37348595394E+02 -0.11601350466E-01 -0.13683335273E+03  0.14183893729E+03  0.00000000000E+00 0. -1.
         22    1    1    2    0    0 -0.32952033496E+00  0.23593203473E+02 -0.66807144676E+02  0.70851551949E+02  0.00000000000E+00 0. -1.
<mgrwt>
<rscale>  0 0.67608510E+02</rscale>
<asrwt>0</asrwt>
<pdfrwt beam="1">  1        2 0.83878153E-03 0.96026713E+02</pdfrwt>
<pdfrwt beam="2">  1       -2 0.11399195E+00 0.96026713E+02</pdfrwt>
<totfact> 0.10386361E+04</totfact>
</mgrwt>
</event>
<event>
 6    1  0.1661841E-002  0.1241455E+03  0.7546771E-02  0.1253092E+00
         -2   -1    0    0    0  501 -0.00000000000E+00  0.00000000000E+00  0.14770693880E+03  0.14770693880E+03  0.00000000000E+00 0.  1.
          2   -1    0    0  501    0  0.00000000000E+00 -0.00000000000E+00 -0.81152650213E+02  0.81152650213E+02  0.00000000000E+00 0. -1.
         23    2    1    2    0    0 -0.35966072048E+02 -0.81084495975E+02  0.65023251084E+02  0.14014319875E+03  0.86855277027E+02 0.  0.
         11    1    3    3    0    0 -0.57118631965E+02 -0.70709554468E+02  0.25971820735E+02  0.94535256296E+02  0.00000000000E+00 0.  1.
        -11    1    3    3    0    0  0.21152559918E+02 -0.10374941507E+02  0.39051430349E+02  0.45607942451E+02  0.00000000000E+00 0. -1.
         22    1    1    2    0    0  0.35966072048E+02  0.81084495975E+02  0.15310375037E+01  0.88716390266E+02  0.00000000000E+00 0. -1.
<mgrwt>
<rscale>  0 0.11413870E+03</rscale>
<asrwt>0</asrwt>
<pdfrwt beam="1">  1        2 0.12485023E-01 0.12414545E+03</pdfrwt>
<pdfrwt beam="2">  1       -2 0.22724144E-01 0.12414545E+03</pdfrwt>
<totfact> 0.76754117E+03</totfact>
</mgrwt>
</event>
<event>
 6    1  0.1661841E-002  0.9291312E+02  0.7546771E-02  0.1396711E+00
         -2   -1    0    0    0  501 -0.00000000000E+00  0.00000000000E+00  0.20715640491E+02  0.20715640491E+02  0.00000000000E+00 0.  1.
          2   -1    0    0  501    0  0.00000000000E+00 -0.00000000000E+00 -0.14726342706E+03  0.14726342706E+03  0.00000000000E+00 0. -1.
         23    2    1    2    0    0 -0.13853483840E+02 -0.88666297556E+01 -0.98084965239E+02  0.13510554727E+03  0.91445679826E+02 0.  0.
         11    1    3    3    0    0 -0.42907213073E+02 -0.11300808277E+02 -0.96140246039E+02  0.10588524028E+03  0.00000000000E+00 0. -1.
        -11    1    3    3    0    0  0.29053729234E+02  0.24341785211E+01 -0.19447191995E+01  0.29220306984E+02  0.00000000000E+00 0.  1.
         22    1    1    2    0    0  0.13853483840E+02  0.88666297556E+01 -0.28462821327E+02  0.32873520280E+02  0.00000000000E+00 0. -1.
<mgrwt>
<rscale>  0 0.60267886E+02</rscale>
<asrwt>0</asrwt>
<pdfrwt beam="1">  1        2 0.22655912E-01 0.92913123E+02</pdfrwt>
<pdfrwt beam="2">  1       -2 0.31870216E-02 0.92913123E+02</pdfrwt>
<totfact> 0.79919038E+04</totfact>
</mgrwt>
</event>
<event>
 6    1  0.1661841E-002  0.8905752E+02  0.7546771E-02  0.1380580E+00
          2   -1    0    0  501    0  0.00000000000E+00  0.00000000000E+00  0.73253604564E+02  0.73253604564E+02  0.00000000000E+00 0. -1.
         -2   -1    0    0    0  501 -0.00000000000E+00 -0.00000000000E+00 -0.44127621377E+02  0.44127621377E+02  0.00000000000E+00 0.  1.
         23    2    1    2    0    0  0.15921051048E+02 -0.18249566720E+02  0.18624670372E+02  0.90984178326E+02  0.85701317418E+02 0.  0.
         13    1    3    3    0    0  0.34191910464E+02 -0.48324978048E+01 -0.24448484703E+02  0.42310379110E+02  0.00000000000E+00 0.  1.
        -13    1    3    3    0    0 -0.18270859415E+02 -0.13417068915E+02  0.43073155074E+02  0.48673799216E+02  0.00000000000E+00 0. -1.
         22    1    1    2    0    0 -0.15921051048E+02  0.18249566720E+02  0.10501312815E+02  0.26397047615E+02  0.00000000000E+00 0. -1.
<mgrwt>
<rscale>  0 0.64311541E+02</rscale>
<asrwt>0</asrwt>
<pdfrwt beam="1">  1        2 0.11269785E-01 0.89057523E+02</pdfrwt>
<pdfrwt beam="2">  1       -2 0.67888648E-02 0.89057523E+02</pdfrwt>
<totfact> 0.57738456E+04</totfact>
</mgrwt>
</event>
<event>
 6    1  0.1661841E-002  0.9120664E+02  0.7546771E-02  0.1412526E+00
          2   -1    0    0  501    0  0.00000000000E+00  0.00000000000E+00  0.43511001678E+02  0.43511001678E+02  0.00000000000E+00 0. -1.
         -2   -1    0    0    0  501 -0.00000000000E+00 -0.00000000000E+00 -0.67192958066E+02  0.67192958066E+02  0.00000000000E+00 0.  1.
         23    2    1    2    0    0  0.11761545528E+02  0.67461971293E+01 -0.29628437197E+02  0.95898360704E+02  0.90193160306E+02 0.  0.
         13    1    3    3    0    0  0.16667002265E+01 -0.28418702181E+02  0.19601090162E+02  0.34563033125E+02  0.00000000000E+00 0. -1.
        -13    1    3    3    0    0  0.10094845301E+02  0.35164899311E+02 -0.49229527359E+02  0.61335327578E+02  0.00000000000E+00 0.  1.
         22    1    1    2    0    0 -0.11761545528E+02 -0.67461971293E+01  0.59464808094E+01  0.14805599040E+02  0.00000000000E+00 0. -1.
<mgrwt>
<rscale>  0 0.56633886E+02</rscale>
<asrwt>0</asrwt>
<pdfrwt beam="1">  1        2 0.66940003E-02 0.91206641E+02</pdfrwt>
<pdfrwt beam="2">  1       -2 0.10337378E-01 0.91206641E+02</pdfrwt>
<totfact> 0.57666470E+04</totfact>
</mgrwt>
</event>
<event>
 6    1  0.1661841E-002  0.9577835E+02  0.7546771E-02  0.1407477E+00
         -2   -1    0    0    0  501 -0.00000000000E+00  0.00000000000E+00  0.11067679996E+02  0.11067679996E+02  0.00000000000E+00 0.  1.
          2   -1    0    0  501    0  0.00000000000E+00 -0.00000000000E+00 -0.28462351131E+03  0.28462351131E+03  0.00000000000E+00 0. -1.
         23    2    1    2    0    0  0.10641881072E+01 -0.12623752105E+02 -0.20895834847E+03  0.22986318508E+03  0.94936825561E+02 0.  0.
         11    1    3    3    0    0  0.40499685739E+02 -0.20114131206E+02 -0.16147206934E+03  0.16768432245E+03  0.00000000000E+00 0. -1.
        -11    1    3    3    0    0 -0.39435497632E+02  0.74903791012E+01 -0.47486279132E+02  0.62178862633E+02  0.00000000000E+00 0.  1.
         22    1    1    2    0    0 -0.10641881072E+01  0.12623752105E+02 -0.64597482848E+02  0.65828006227E+02  0.00000000000E+00 0.  1.
<mgrwt>
<rscale>  0 0.57760648E+02</rscale>
<asrwt>0</asrwt>
<pdfrwt beam="1">  1        2 0.43788232E-01 0.95778351E+02</pdfrwt>
<pdfrwt beam="2">  1       -2 0.17027200E-02 0.95778351E+02</pdfrwt>
<totfact> 0.98133799E+04</totfact>
</mgrwt>
</event>
<event>
 6    1  0.1661841E-002  0.9188142E+02  0.7546771E-02  0.1421469E+00
         -1   -1    0    0    0  501 -0.00000000000E+00  0.00000000000E+00  0.23625543087E+03  0.23625543087E+03  0.00000000000E+00 0.  1.
          1   -1    0    0  501    0  0.00000000000E+00 -0.00000000000E+00 -0.11638322647E+02  0.11638322647E+02  0.00000000000E+00 0. -1.
         23    2    1    2    0    0  0.11194545612E+02  0.28478173383E+01  0.21031576620E+03  0.22951016576E+03  0.91152436943E+02 0.  0.
         11    1    3    3    0    0  0.11278156017E+02 -0.30023023962E+02  0.23335718183E+02  0.39662759789E+02  0.00000000000E+00 0. -1.
        -11    1    3    3    0    0 -0.83610404657E-01  0.32870841300E+02  0.18698004801E+03  0.18984740597E+03  0.00000000000E+00 0.  1.
         22    1    1    2    0    0 -0.11194545612E+02 -0.28478173383E+01  0.14301342023E+02  0.18383587754E+02  0.00000000000E+00 0. -1.
<mgrwt>
<rscale>  0 0.54711245E+02</rscale>
<asrwt>0</asrwt>
<pdfrwt beam="1">  1        1 0.17905113E-02 0.91881416E+02</pdfrwt>
<pdfrwt beam="2">  1       -1 0.36346986E-01 0.91881416E+02</pdfrwt>
<totfact> 0.44871496E+04</totfact>
</mgrwt>
</event>
<event>
 6    1  0.1661841E-002  0.9384880E+02  0.7546771E-02  0.1367435E+00
          2   -1    0    0  501    0  0.00000000000E+00  0.00000000000E+00  0.13862620102E+02  0.13862620102E+02  0.00000000000E+00 0. -1.
         -2   -1    0    0    0  501 -0.00000000000E+00 -0.00000000000E+00 -0.35811644017E+03  0.35811644017E+03  0.00000000000E+00 0.  1.
         23    2    1    2    0    0  0.20611388232E+02 -0.15340222108E+02 -0.32894478355E+03  0.34207056084E+03  0.90263205299E+02 0.  0.
         11    1    3    3    0    0 -0.13782631616E+02 -0.20880714246E+02 -0.22489150155E+02  0.33641150938E+02  0.00000000000E+00 0. -1.
        -11    1    3    3    0    0  0.34394019849E+02  0.55404921380E+01 -0.30645563339E+03  0.30842940990E+03  0.00000000000E+00 0.  1.
         22    1    1    2    0    0 -0.20611388232E+02  0.15340222108E+02 -0.15309036522E+02  0.29908499435E+02  0.00000000000E+00 0.  1.
<mgrwt>
<rscale>  0 0.67885501E+02</rscale>
<asrwt>0</asrwt>
<pdfrwt beam="1">  1        2 0.21327109E-02 0.93848804E+02</pdfrwt>
<pdfrwt beam="2">  1       -2 0.55094835E-01 0.93848804E+02</pdfrwt>
<totfact> 0.14086215E+04</totfact>
</mgrwt>
</event>
<event>
 6    1  0.1661841E-002  0.9932396E+02  0.7546771E-02  0.1410035E+00
         -2   -1    0    0    0  501 -0.00000000000E+00  0.00000000000E+00  0.59273024179E+02  0.59273024179E+02  0.00000000000E+00 0.  1.
          2   -1    0    0  501    0  0.00000000000E+00 -0.00000000000E+00 -0.56432263398E+02  0.56432263398E+02  0.00000000000E+00 0. -1.
         23    2    1    2    0    0 -0.82491021030E+01  0.71466571502E+01  0.13752973495E+02  0.10027159780E+03  0.98722472876E+02 0.  0.
         13    1    3    3    0    0  0.27719654811E+02  0.39458058072E+02 -0.48519352215E+01  0.48465027443E+02  0.00000000000E+00 0. -1.
        -13    1    3    3    0    0 -0.35968756914E+02 -0.32311400922E+02  0.18604908717E+02  0.51806570354E+02  0.00000000000E+00 0.  1.
         22    1    1    2    0    0  0.82491021030E+01 -0.71466571502E+01 -0.10912212714E+02  0.15433689781E+02  0.00000000000E+00 0. -1.
<mgrwt>
<rscale>  0 0.57185997E+02</rscale>
<asrwt>0</asrwt>
<pdfrwt beam="1">  1        2 0.86818866E-02 0.99323960E+02</pdfrwt>
<pdfrwt beam="2">  1       -2 0.91189268E-02 0.99323960E+02</pdfrwt>
<totfact> 0.51269501E+04</totfact>
</mgrwt>
</event>
<event>
 6    1  0.1661841E-002  0.1027016E+03  0.7546771E-02  0.1345995E+00
         -2   -1    0    0    0  501 -0.00000000000E+00  0.00000000000E+00  0.10762751106E+02  0.10762751106E+02  0.00000000000E+00 0.  1.
          2   -1    0    0  501    0  0.00000000000E+00 -0.00000000000E+00 -0.70934417265E+03  0.70934417265E+03  0.00000000000E+00 0. -1.
         23    2    1    2    0    0  0.89137720979E+01  0.26713442650E+02 -0.67668591846E+03  0.68443513649E+03  0.98765178447E+02 0.  0.
         13    1    3    3    0    0 -0.27862214392E+02  0.38700656094E+02 -0.54775867326E+03  0.54983052653E+03  0.00000000000E+00 0. -1.
        -13    1    3    3    0    0  0.36775986490E+02 -0.11987213444E+02 -0.12892724520E+03  0.13460460996E+03  0.00000000000E+00 0.  1.
         22    1    1    2    0    0 -0.89137720979E+01 -0.26713442650E+02 -0.21895503086E+02  0.35671787264E+02  0.00000000000E+00 0.  1.
<mgrwt>
<rscale>  0 0.74318421E+02</rscale>
<asrwt>0</asrwt>
<pdfrwt beam="1">  1        2 0.10912991E+00 0.10270163E+03</pdfrwt>
<pdfrwt beam="2">  1       -2 0.16558074E-02 0.10270163E+03</pdfrwt>
<totfact> 0.38325701E+04</totfact>
</mgrwt>
</event>
<event>
 6    1  0.1661841E-002  0.9183818E+02  0.7546771E-02  0.1405826E+00
          2   -1    0    0  501    0  0.00000000000E+00  0.00000000000E+00  0.53215686250E+02  0.53215686250E+02  0.00000000000E+00 0. -1.
         -2   -1    0    0    0  501 -0.00000000000E+00 -0.00000000000E+00 -0.57312143256E+02  0.57312143256E+02  0.00000000000E+00 0.  1.
         23    2    1    2    0    0  0.13895683802E+02 -0.49382624586E+01 -0.13807758987E+02  0.92870370725E+02  0.90646428974E+02 0.  0.
         13    1    3    3    0    0 -0.11419221700E+02 -0.16077626534E+02  0.33034252458E+02  0.38472724555E+02  0.00000000000E+00 0. -1.
        -13    1    3    3    0    0  0.25314905502E+02  0.11139364075E+02 -0.46842011445E+02  0.54397646170E+02  0.00000000000E+00 0.  1.
         22    1    1    2    0    0 -0.13895683802E+02  0.49382624586E+01  0.97113019815E+01  0.17657458781E+02  0.00000000000E+00 0.  1.
<mgrwt>
<rscale>  0 0.58135845E+02</rscale>
<asrwt>0</asrwt>
<pdfrwt beam="1">  1        2 0.81870287E-02 0.91838181E+02</pdfrwt>
<pdfrwt beam="2">  1       -2 0.88172528E-02 0.91838181E+02</pdfrwt>
<totfact> 0.57432770E+04</totfact>
</mgrwt>
</event>
<event>
 6    1  0.1661841E-002  0.1067732E+03  0.7546771E-02  0.1313072E+00
          2   -1    0    0  501    0  0.00000000000E+00  0.00000000000E+00  0.24877459607E+03  0.24877459607E+03  0.00000000000E+00 0. -1.
         -2   -1    0    0    0  501 -0.00000000000E+00 -0.00000000000E+00 -0.73581901767E+02  0.73581901767E+02  0.00000000000E+00 0.  1.
         23    2    1    2    0    0  0.38511509324E+02 -0.22787105314E+02 -0.31144595629E+02  0.11122273518E+03  0.96943914012E+02 0.  0.
         11    1    3    3    0    0  0.26989168121E+02 -0.54946041006E+02  0.50852312586E+01  0.61427536130E+02  0.00000000000E+00 0. -1.
        -11    1    3    3    0    0  0.11522341203E+02  0.32158935692E+02 -0.36229826887E+02  0.49795199045E+02  0.00000000000E+00 0.  1.
         22    1    1    2    0    0 -0.38511509324E+02  0.22787105314E+02  0.20633728993E+03  0.21113376266E+03  0.00000000000E+00 0. -1.
<mgrwt>
<rscale>  0 0.85909296E+02</rscale>
<asrwt>0</asrwt>
<pdfrwt beam="1">  1        2 0.38273014E-01 0.10677318E+03</pdfrwt>
<pdfrwt beam="2">  1       -2 0.11320293E-01 0.10677318E+03</pdfrwt>
<totfact> 0.68172715E+03</totfact>
</mgrwt>
</event>
<event>
 6    1  0.1661841E-002  0.9216675E+02  0.7546771E-02  0.1361012E+00
          1   -1    0    0  501    0  0.00000000000E+00  0.00000000000E+00  0.58605480697E+02  0.58605480697E+02  0.00000000000E+00 0. -1.
         -1   -1    0    0    0  501 -0.00000000000E+00 -0.00000000000E+00 -0.75470051301E+02  0.75470051301E+02  0.00000000000E+00 0.  1.
         23    2    1    2    0    0 -0.77367936714E+01  0.29189094727E+02 -0.35300334277E+02  0.98695613831E+02  0.87079557659E+02 0.  0.
         11    1    3    3    0    0 -0.44983131028E+02  0.32499940329E+01 -0.82231116821E+01  0.45843910218E+02  0.00000000000E+00 0. -1.
        -11    1    3    3    0    0  0.37246337357E+02  0.25939100694E+02 -0.27077222595E+02  0.52851703613E+02  0.00000000000E+00 0.  1.
         22    1    1    2    0    0  0.77367936714E+01 -0.29189094727E+02  0.18435763673E+02  0.35379918167E+02  0.00000000000E+00 0. -1.
<mgrwt>
<rscale>  0 0.69730345E+02</rscale>
<asrwt>0</asrwt>
<pdfrwt beam="1">  1        1 0.90162278E-02 0.92166754E+02</pdfrwt>
<pdfrwt beam="2">  1       -1 0.11610777E-01 0.92166754E+02</pdfrwt>
<totfact> 0.31130239E+04</totfact>
</mgrwt>
</event>
<event>
 6    1  0.1661841E-002  0.9716458E+02  0.7546771E-02  0.1321642E+00
          1   -1    0    0  501    0  0.00000000000E+00  0.00000000000E+00  0.10319898645E+03  0.10319898645E+03  0.00000000000E+00 0. -1.
         -1   -1    0    0    0  501 -0.00000000000E+00 -0.00000000000E+00 -0.53132124117E+02  0.53132124117E+02  0.00000000000E+00 0.  1.
         23    2    1    2    0    0 -0.46796985830E+02  0.20063964973E+02  0.31771117999E+02  0.10222699951E+03  0.82755271227E+02 0.  0.
         13    1    3    3    0    0 -0.56658331492E+02  0.40747518234E+02  0.97864645530E+01  0.70471992012E+02  0.00000000000E+00 0. -1.
        -13    1    3    3    0    0  0.98613456616E+01 -0.20683553262E+02  0.21984653446E+02  0.31755007494E+02  0.00000000000E+00 0.  1.
         22    1    1    2    0    0  0.46796985830E+02 -0.20063964973E+02  0.18295744335E+02  0.54104111063E+02  0.00000000000E+00 0.  1.
<mgrwt>
<rscale>  0 0.82669680E+02</rscale>
<asrwt>0</asrwt>
<pdfrwt beam="1">  1        1 0.15876767E-01 0.97164579E+02</pdfrwt>
<pdfrwt beam="2">  1       -1 0.81741730E-02 0.97164579E+02</pdfrwt>
<totfact> 0.25535064E+04</totfact>
</mgrwt>
</event>
<event>
 6    1  0.1661841E-002  0.9077680E+02  0.7546771E-02  0.1412148E+00
          2   -1    0    0  501    0  0.00000000000E+00  0.00000000000E+00  0.17260913553E+02  0.17260913553E+02  0.00000000000E+00 0. -1.
         -2   -1    0    0    0  501 -0.00000000000E+00 -0.00000000000E+00 -0.19924927920E+03  0.19924927920E+03  0.00000000000E+00 0.  1.
         23    2    1    2    0    0 -0.13827021608E+02  0.42939928237E+00 -0.18118466450E+03  0.20265317843E+03  0.89716537872E+02 0.  0.
         13    1    3    3    0    0 -0.22410893883E+02  0.61033089045E+01 -0.21536758168E+01  0.23326741388E+02  0.00000000000E+00 0.  1.
        -13    1    3    3    0    0  0.85838722751E+01 -0.56739096221E+01 -0.17903098868E+03  0.17932643704E+03  0.00000000000E+00 0. -1.
         22    1    1    2    0    0  0.13827021608E+02 -0.42939928237E+00 -0.80370114308E+00  0.13857014319E+02  0.00000000000E+00 0. -1.
<mgrwt>
<rscale>  0 0.56717314E+02</rscale>
<asrwt>0</asrwt>
<pdfrwt beam="1">  1        2 0.26555251E-02 0.90776804E+02</pdfrwt>
<pdfrwt beam="2">  1       -2 0.30653736E-01 0.90776804E+02</pdfrwt>
<totfact> 0.31655912E+04</totfact>
</mgrwt>
</event>
<event>
 6    1  0.1661841E-002  0.9127779E+02  0.7546771E-02  0.1415904E+00
          2   -1    0    0  501    0  0.00000000000E+00  0.00000000000E+00  0.39796559827E+03  0.39796559827E+03  0.00000000000E+00 0. -1.
         -2   -1    0    0    0  501 -0.00000000000E+00 -0.00000000000E+00 -0.68916902354E+01  0.68916902354E+01  0.00000000000E+00 0.  1.
         23    2    1    2    0    0  0.12541252337E+02 -0.27384964946E+01  0.35574686500E+03  0.36727029151E+03  0.90370640689E+02 0.  0.
         13    1    3    3    0    0  0.42405651786E+02  0.26037907353E+02  0.19968298999E+03  0.20578996189E+03  0.00000000000E+00 0. -1.
        -13    1    3    3    0    0 -0.29864399449E+02 -0.28776403848E+02  0.15606387501E+03  0.16148032963E+03  0.00000000000E+00 0.  1.
         22    1    1    2    0    0 -0.12541252337E+02  0.27384964946E+01  0.35327043035E+02  0.37586996991E+02  0.00000000000E+00 0.  1.
<mgrwt>
<rscale>  0 0.55896895E+02</rscale>
<asrwt>0</asrwt>
<pdfrwt beam="1">  1        2 0.61225458E-01 0.91277791E+02</pdfrwt>
<pdfrwt beam="2">  1       -2 0.10602604E-02 0.91277791E+02</pdfrwt>
<totfact> 0.13464685E+05</totfact>
</mgrwt>
</event>
<event>
 6    1  0.1661841E-002  0.9446215E+02  0.7546771E-02  0.1375007E+00
          2   -1    0    0  501    0  0.00000000000E+00  0.00000000000E+00  0.20904178526E+03  0.20904178526E+03  0.00000000000E+00 0. -1.
         -2   -1    0    0    0  501 -0.00000000000E+00 -0.00000000000E+00 -0.17199685763E+02  0.17199685763E+02  0.00000000000E+00 0.  1.
         23    2    1    2    0    0 -0.19863798325E+02  0.99858926544E+01  0.13132290502E+03  0.16176774431E+03  0.91808546337E+02 0.  0.
         11    1    3    3    0    0 -0.76487102448E+01  0.12126539787E+02  0.14360197641E+03  0.14431591514E+03  0.00000000000E+00 0. -1.
        -11    1    3    3    0    0 -0.12215088081E+02 -0.21406471327E+01 -0.12279071391E+02  0.17451829164E+02  0.00000000000E+00 0.  1.
         22    1    1    2    0    0  0.19863798325E+02 -0.99858926544E+01  0.60519194478E+02  0.64473726713E+02  0.00000000000E+00 0.  1.
<mgrwt>
<rscale>  0 0.65794704E+02</rscale>
<asrwt>0</asrwt>
<pdfrwt beam="1">  1        2 0.32160273E-01 0.94462150E+02</pdfrwt>
<pdfrwt beam="2">  1       -2 0.26461056E-02 0.94462150E+02</pdfrwt>
<totfact> 0.71860574E+04</totfact>
</mgrwt>
</event>
<event>
 6    1  0.1661841E-002  0.9441043E+02  0.7546771E-02  0.1403606E+00
          1   -1    0    0  501    0  0.00000000000E+00  0.00000000000E+00  0.14210760089E+03  0.14210760089E+03  0.00000000000E+00 0. -1.
         -1   -1    0    0    0  501 -0.00000000000E+00 -0.00000000000E+00 -0.22790409946E+02  0.22790409946E+02  0.00000000000E+00 0.  1.
         23    2    1    2    0    0  0.14001870497E+02  0.12381664170E+01  0.82100408370E+02  0.12511517109E+03  0.93358146660E+02 0.  0.
         13    1    3    3    0    0  0.31998288867E+02  0.12195160955E+02 -0.57944824540E+01  0.34730224129E+02  0.00000000000E+00 0.  1.
        -13    1    3    3    0    0 -0.17996418370E+02 -0.10956994538E+02  0.87894890824E+02  0.90384946957E+02  0.00000000000E+00 0. -1.
         22    1    1    2    0    0 -0.14001870497E+02 -0.12381664170E+01  0.37216782574E+02  0.39782839751E+02  0.00000000000E+00 0.  1.
<mgrwt>
<rscale>  0 0.58645452E+02</rscale>
<asrwt>0</asrwt>
<pdfrwt beam="1">  1        1 0.21862707E-01 0.94410428E+02</pdfrwt>
<pdfrwt beam="2">  1       -1 0.35062170E-02 0.94410428E+02</pdfrwt>
<totfact> 0.58947250E+04</totfact>
</mgrwt>
</event>
<event>
 6    1  0.1661841E-002  0.8894650E+02  0.7546771E-02  0.1435325E+00
         -2   -1    0    0    0  501 -0.00000000000E+00  0.00000000000E+00  0.11476164879E+03  0.11476164879E+03  0.00000000000E+00 0.  1.
          2   -1    0    0  501    0  0.00000000000E+00 -0.00000000000E+00 -0.23222303675E+02  0.23222303675E+02  0.00000000000E+00 0. -1.
         23    2    1    2    0    0  0.75039390671E+01 -0.70776938450E+01  0.91584988527E+02  0.12766867568E+03  0.88346351229E+02 0.  0.
         13    1    3    3    0    0  0.22322850072E+02 -0.29354877498E+02  0.52100264071E+01  0.37244635096E+02  0.00000000000E+00 0. -1.
        -13    1    3    3    0    0 -0.14818911005E+02  0.22277183653E+02  0.86374962120E+02  0.90424040587E+02  0.00000000000E+00 0.  1.
         22    1    1    2    0    0 -0.75039390671E+01  0.70776938450E+01 -0.45643415938E-01  0.10315276778E+02  0.00000000000E+00 0. -1.
<mgrwt>
<rscale>  0 0.51905792E+02</rscale>
<asrwt>0</asrwt>
<pdfrwt beam="1">  1        2 0.35726622E-02 0.88946504E+02</pdfrwt>
<pdfrwt beam="2">  1       -2 0.17655638E-01 0.88946504E+02</pdfrwt>
<totfact> 0.54823632E+04</totfact>
</mgrwt>
</event>
<event>
 6    1  0.1661841E-002  0.9662415E+02  0.7546771E-02  0.1350237E+00
         -2   -1    0    0    0  501 -0.00000000000E+00  0.00000000000E+00  0.79309571210E+02  0.79309571210E+02  0.00000000000E+00 0.  1.
          2   -1    0    0  501    0  0.00000000000E+00 -0.00000000000E+00 -0.17247434635E+03  0.17247434635E+03  0.00000000000E+00 0. -1.
         23    2    1    2    0    0 -0.21162772811E+02 -0.23262530944E+02  0.47484589907E+02  0.10766156611E+03  0.91363112032E+02 0.  0.
         13    1    3    3    0    0  0.15090511485E+02  0.10632692171E+02 -0.17806575291E+02  0.25648621859E+02  0.00000000000E+00 0. -1.
        -13    1    3    3    0    0 -0.36253284296E+02 -0.33895223114E+02  0.65291165198E+02  0.82012944253E+02  0.00000000000E+00 0.  1.
         22    1    1    2    0    0  0.21162772811E+02  0.23262530944E+02 -0.14064936505E+03  0.14412235145E+03  0.00000000000E+00 0. -1.
<mgrwt>
<rscale>  0 0.72981748E+02</rscale>
<asrwt>0</asrwt>
<pdfrwt beam="1">  1        2 0.26534515E-01 0.96624151E+02</pdfrwt>
<pdfrwt beam="2">  1       -2 0.12201472E-01 0.96624151E+02</pdfrwt>
<totfact> 0.88860000E+03</totfact>
</mgrwt>
</event>
<event>
 6    1  0.1661841E-002  0.9110720E+02  0.7546771E-02  0.1407750E+00
         -2   -1    0    0    0  501 -0.00000000000E+00  0.00000000000E+00  0.13161517934E+03  0.13161517934E+03  0.00000000000E+00 0.  1.
          2   -1    0    0  501    0  0.00000000000E+00 -0.00000000000E+00 -0.23144411120E+02  0.23144411120E+02  0.00000000000E+00 0. -1.
         23    2    1    2    0    0  0.11976777958E+02  0.84470708106E+01  0.10620651206E+03  0.13992978698E+03  0.89920664272E+02 0.  0.
         11    1    3    3    0    0  0.24545436933E+02  0.12190850835E+02 -0.50802215269E+01  0.27872997131E+02  0.00000000000E+00 0. -1.
        -11    1    3    3    0    0 -0.12568658975E+02 -0.37437800241E+01  0.11128673359E+03  0.11205678985E+03  0.00000000000E+00 0.  1.
         22    1    1    2    0    0 -0.11976777958E+02 -0.84470708106E+01  0.22642561611E+01  0.14829803488E+02  0.00000000000E+00 0. -1.
<mgrwt>
<rscale>  0 0.57698943E+02</rscale>
<asrwt>0</asrwt>
<pdfrwt beam="1">  1        2 0.35606787E-02 0.91107201E+02</pdfrwt>
<pdfrwt beam="2">  1       -2 0.20248489E-01 0.91107201E+02</pdfrwt>
<totfact> 0.44001580E+04</totfact>
</mgrwt>
</event>
<event>
 6    1  0.1661841E-002  0.9316102E+02  0.7546771E-02  0.1380114E+00
          2   -1    0    0  501    0  0.00000000000E+00  0.00000000000E+00  0.56882447959E+02  0.56882447959E+02  0.00000000000E+00 0. -1.
         -2   -1    0    0    0  501 -0.00000000000E+00 -0.00000000000E+00 -0.58417918730E+02  0.58417918730E+02  0.00000000000E+00 0.  1.
         23    2    1    2    0    0 -0.16193075389E+02  0.13865591985E+02 -0.65807811496E+01  0.93393164940E+02  0.90689063538E+02 0.  0.
         13    1    3    3    0    0 -0.51750143599E+02  0.12534644660E+02  0.99342397731E+01  0.54165337617E+02  0.00000000000E+00 0. -1.
        -13    1    3    3    0    0  0.35557068210E+02  0.13309473250E+01 -0.16515020923E+02  0.39227827323E+02  0.00000000000E+00 0.  1.
         22    1    1    2    0    0  0.16193075389E+02 -0.13865591985E+02  0.50453103780E+01  0.21907201749E+02  0.00000000000E+00 0. -1.
<mgrwt>
<rscale>  0 0.64433821E+02</rscale>
<asrwt>0</asrwt>
<pdfrwt beam="1">  1        2 0.87511458E-02 0.93161025E+02</pdfrwt>
<pdfrwt beam="2">  1       -2 0.89873721E-02 0.93161025E+02</pdfrwt>
<totfact> 0.51467272E+04</totfact>
</mgrwt>
</event>
<event>
 6    1  0.1661841E-002  0.9353262E+02  0.7546771E-02  0.1372731E+00
          2   -1    0    0  501    0  0.00000000000E+00  0.00000000000E+00  0.12935542177E+03  0.12935542177E+03  0.00000000000E+00 0. -1.
         -2   -1    0    0    0  501 -0.00000000000E+00 -0.00000000000E+00 -0.30792490630E+02  0.30792490630E+02  0.00000000000E+00 0.  1.
         23    2    1    2    0    0 -0.15408215586E+01  0.23726394174E+02  0.49956286442E+02  0.10603763777E+03  0.90460124681E+02 0.  0.
         11    1    3    3    0    0  0.18132843126E+02 -0.30315885417E+02  0.12826664656E+02  0.37581594360E+02  0.00000000000E+00 0. -1.
        -11    1    3    3    0    0 -0.19673664685E+02  0.54042279591E+02  0.37129621786E+02  0.68456043411E+02  0.00000000000E+00 0.  1.
         22    1    1    2    0    0  0.15408215586E+01 -0.23726394174E+02  0.48606644695E+02  0.54110274626E+02  0.00000000000E+00 0. -1.
<mgrwt>
<rscale>  0 0.66413858E+02</rscale>
<asrwt>0</asrwt>
<pdfrwt beam="1">  1        2 0.19900834E-01 0.93532615E+02</pdfrwt>
<pdfrwt beam="2">  1       -2 0.47373063E-02 0.93532615E+02</pdfrwt>
<totfact> 0.51585501E+04</totfact>
</mgrwt>
</event>
<event>
 6    1  0.1661841E-002  0.1231726E+03  0.7546771E-02  0.1258172E+00
         -2   -1    0    0    0  501 -0.00000000000E+00  0.00000000000E+00  0.21565681578E+03  0.21565681578E+03  0.00000000000E+00 0.  1.
          2   -1    0    0  501    0  0.00000000000E+00 -0.00000000000E+00 -0.49668452058E+02  0.49668452058E+02  0.00000000000E+00 0. -1.
         23    2    1    2    0    0  0.45963239085E+01  0.82004097611E+02  0.11587676828E+03  0.16911211793E+03  0.91791528932E+02 0.  0.
         13    1    3    3    0    0  0.29397213308E+02  0.18365967432E+02  0.89356308638E+02  0.95843908536E+02  0.00000000000E+00 0.  1.
        -13    1    3    3    0    0 -0.24800889400E+02  0.63638130179E+02  0.26520459646E+02  0.73268209392E+02  0.00000000000E+00 0. -1.
         22    1    1    2    0    0 -0.45963239085E+01 -0.82004097611E+02  0.50111595442E+02  0.96213149913E+02  0.00000000000E+00 0. -1.
<mgrwt>
<rscale>  0 0.11130500E+03</rscale>
<asrwt>0</asrwt>
<pdfrwt beam="1">  1        2 0.76413004E-02 0.12317257E+03</pdfrwt>
<pdfrwt beam="2">  1       -2 0.33177971E-01 0.12317257E+03</pdfrwt>
<totfact> 0.71679364E+03</totfact>
</mgrwt>
</event>
<event>
 6    1  0.1661841E-002  0.9285476E+02  0.7546771E-02  0.1408295E+00
          2   -1    0    0  501    0  0.00000000000E+00  0.00000000000E+00  0.19543344145E+03  0.19543344145E+03  0.00000000000E+00 0. -1.
         -2   -1    0    0    0  501 -0.00000000000E+00 -0.00000000000E+00 -0.19367114621E+02  0.19367114621E+02  0.00000000000E+00 0.  1.
         23    2    1    2    0    0 -0.13660963600E+02 -0.13389652864E+01  0.95973274262E+02  0.13353979171E+03  0.91834589582E+02 0.  0.
         11    1    3    3    0    0  0.32278122491E+02  0.67321796958E+01  0.79426868703E+01  0.33915862214E+02  0.00000000000E+00 0.  1.
        -11    1    3    3    0    0 -0.45939086092E+02 -0.80711449822E+01  0.88030587392E+02  0.99623929499E+02  0.00000000000E+00 0. -1.
         22    1    1    2    0    0  0.13660963600E+02  0.13389652864E+01  0.80093052567E+02  0.81260764358E+02  0.00000000000E+00 0. -1.
<mgrwt>
<rscale>  0 0.57576133E+02</rscale>
<asrwt>0</asrwt>
<pdfrwt beam="1">  1        2 0.30066682E-01 0.92854761E+02</pdfrwt>
<pdfrwt beam="2">  1       -2 0.29795562E-02 0.92854761E+02</pdfrwt>
<totfact> 0.64834979E+04</totfact>
</mgrwt>
</event>
<event>
 6    1  0.1661841E-002  0.9996818E+02  0.7546771E-02  0.1331012E+00
         -2   -1    0    0    0  501 -0.00000000000E+00  0.00000000000E+00  0.36691862058E+02  0.36691862058E+02  0.00000000000E+00 0.  1.
          2   -1    0    0  501    0  0.00000000000E+00 -0.00000000000E+00 -0.13291240215E+03  0.13291240215E+03  0.00000000000E+00 0. -1.
         23    2    1    2    0    0 -0.38514070383E+02 -0.92505775070E+01 -0.71642462296E+02  0.12298893723E+03  0.91786325094E+02 0.  0.
         13    1    3    3    0    0 -0.56438590724E+02 -0.35967449351E+02 -0.40573401229E+02  0.78263483330E+02  0.00000000000E+00 0.  1.
        -13    1    3    3    0    0  0.17924520340E+02  0.26716871844E+02 -0.31069061067E+02  0.44725453895E+02  0.00000000000E+00 0. -1.
         22    1    1    2    0    0  0.38514070383E+02  0.92505775070E+01 -0.24578077799E+02  0.46615326986E+02  0.00000000000E+00 0.  1.
<mgrwt>
<rscale>  0 0.79313291E+02</rscale>
<asrwt>0</asrwt>
<pdfrwt beam="1">  1        2 0.20448062E-01 0.99968176E+02</pdfrwt>
<pdfrwt beam="2">  1       -2 0.56449019E-02 0.99968176E+02</pdfrwt>
<totfact> 0.38870166E+04</totfact>
</mgrwt>
</event>
<event>
 6    1  0.1661841E-002  0.9303117E+02  0.7546771E-02  0.1396931E+00
         -2   -1    0    0    0  501 -0.00000000000E+00  0.00000000000E+00  0.18626950963E+02  0.18626950963E+02  0.00000000000E+00 0.  1.
          2   -1    0    0  501    0  0.00000000000E+00 -0.00000000000E+00 -0.17382192939E+03  0.17382192939E+03  0.00000000000E+00 0. -1.
         23    2    1    2    0    0  0.16077170401E+02  0.28518914442E+01 -0.10818649691E+03  0.14268537939E+03  0.91587066154E+02 0.  0.
         13    1    3    3    0    0 -0.23043924610E+02 -0.98463631612E+01 -0.96824148475E+02  0.10001444424E+03  0.00000000000E+00 0. -1.
        -13    1    3    3    0    0  0.39121095011E+02  0.12698254605E+02 -0.11362348432E+02  0.42670935152E+02  0.00000000000E+00 0.  1.
         22    1    1    2    0    0 -0.16077170401E+02 -0.28518914442E+01 -0.47008481523E+02  0.49763500962E+02  0.00000000000E+00 0. -1.
<mgrwt>
<rscale>  0 0.60215135E+02</rscale>
<asrwt>0</asrwt>
<pdfrwt beam="1">  1        2 0.26741835E-01 0.93031174E+02</pdfrwt>
<pdfrwt beam="2">  1       -2 0.28656847E-02 0.93031174E+02</pdfrwt>
<totfact> 0.77851696E+04</totfact>
</mgrwt>
</event>
<event>
 6    1  0.1661841E-002  0.9040916E+02  0.7546771E-02  0.1386876E+00
         -2   -1    0    0    0  501 -0.00000000000E+00  0.00000000000E+00  0.14958247493E+03  0.14958247493E+03  0.00000000000E+00 0.  1.
          2   -1    0    0  501    0  0.00000000000E+00 -0.00000000000E+00 -0.32805159452E+02  0.32805159452E+02  0.00000000000E+00 0. -1.
         23    2    1    2    0    0 -0.80644999796E+01 -0.19282499595E+02  0.12948657907E+03  0.15792590240E+03  0.87960022378E+02 0.  0.
         11    1    3    3    0    0  0.40047576464E+02 -0.59796813940E+01  0.58202090452E+02  0.70901680539E+02  0.00000000000E+00 0.  1.
        -11    1    3    3    0    0 -0.48112076443E+02 -0.13302818201E+02  0.71284488623E+02  0.87024221858E+02  0.00000000000E+00 0. -1.
         22    1    1    2    0    0  0.80644999796E+01  0.19282499595E+02 -0.12709263596E+02  0.24461731985E+02  0.00000000000E+00 0. -1.
<mgrwt>
<rscale>  0 0.62690393E+02</rscale>
<asrwt>0</asrwt>
<pdfrwt beam="1">  1        2 0.50469477E-02 0.90409162E+02</pdfrwt>
<pdfrwt beam="2">  1       -2 0.23012688E-01 0.90409162E+02</pdfrwt>
<totfact> 0.22461768E+04</totfact>
</mgrwt>
</event>
<event>
 6    1  0.1661841E-002  0.1089391E+03  0.7546771E-02  0.1380162E+00
          1   -1    0    0  501    0  0.00000000000E+00  0.00000000000E+00  0.16895998559E+02  0.16895998559E+02  0.00000000000E+00 0. -1.
         -1   -1    0    0    0  501 -0.00000000000E+00 -0.00000000000E+00 -0.23440482708E+03  0.23440482708E+03  0.00000000000E+00 0.  1.
         23    2    1    2    0    0 -0.12432382252E+02  0.47860621130E+01 -0.20842100979E+03  0.23517448172E+03  0.10812145490E+03 0.  0.
         13    1    3    3    0    0  0.54309132166E+01 -0.16906827509E+02 -0.20622440390E+03  0.20698753682E+03  0.00000000000E+00 0.  1.
        -13    1    3    3    0    0 -0.17863295468E+02  0.21692889622E+02 -0.21966058887E+01  0.28186944896E+02  0.00000000000E+00 0. -1.
         22    1    1    2    0    0  0.12432382252E+02 -0.47860621130E+01 -0.90878187301E+01  0.16126343922E+02  0.00000000000E+00 0. -1.
<mgrwt>
<rscale>  0 0.64421155E+02</rscale>
<asrwt>0</asrwt>
<pdfrwt beam="1">  1        1 0.25993846E-02 0.10893906E+03</pdfrwt>
<pdfrwt beam="2">  1       -1 0.36062279E-01 0.10893906E+03</pdfrwt>
<totfact> 0.27811044E+04</totfact>
</mgrwt>
</event>
<event>
 6    1  0.1661841E-002  0.9356179E+02  0.7546771E-02  0.1373667E+00
          2   -1    0    0  501    0  0.00000000000E+00  0.00000000000E+00  0.36442227061E+02  0.36442227061E+02  0.00000000000E+00 0. -1.
         -2   -1    0    0    0  501 -0.00000000000E+00 -0.00000000000E+00 -0.23116991050E+03  0.23116991050E+03  0.00000000000E+00 0.  1.
         23    2    1    2    0    0  0.23065400986E+02  0.38853692965E+01 -0.21637801643E+03  0.23573980260E+03  0.90590836833E+02 0.  0.
         11    1    3    3    0    0  0.31636828839E+01  0.25305041045E+02 -0.10147203931E+02  0.27446670823E+02  0.00000000000E+00 0. -1.
        -11    1    3    3    0    0  0.19901718102E+02 -0.21419671748E+02 -0.20623081250E+03  0.20829313178E+03  0.00000000000E+00 0.  1.
         22    1    1    2    0    0 -0.23065400986E+02 -0.38853692965E+01  0.21650332991E+02  0.31872334961E+02  0.00000000000E+00 0. -1.
<mgrwt>
<rscale>  0 0.66158112E+02</rscale>
<asrwt>0</asrwt>
<pdfrwt beam="1">  1        2 0.56064964E-02 0.93561790E+02</pdfrwt>
<pdfrwt beam="2">  1       -2 0.35564602E-01 0.93561790E+02</pdfrwt>
<totfact> 0.91171135E+03</totfact>
</mgrwt>
</event>
<event>
 6    1  0.1661841E-002  0.9412807E+02  0.7546771E-02  0.1417675E+00
         -2   -1    0    0    0  501 -0.00000000000E+00  0.00000000000E+00  0.33069511885E+02  0.33069511885E+02  0.00000000000E+00 0.  1.
          2   -1    0    0  501    0  0.00000000000E+00 -0.00000000000E+00 -0.10038350657E+03  0.10038350657E+03  0.00000000000E+00 0. -1.
         23    2    1    2    0    0  0.52998605125E+01 -0.10081458625E+02 -0.37121200269E+02  0.10118338623E+03  0.93436447971E+02 0.  0.
         11    1    3    3    0    0 -0.38654673943E+01 -0.29915846641E+02 -0.61467604553E+02  0.68470184226E+02  0.00000000000E+00 0. -1.
        -11    1    3    3    0    0  0.91653279067E+01  0.19834388015E+02  0.24346404284E+02  0.32713202001E+02  0.00000000000E+00 0.  1.
         22    1    1    2    0    0 -0.52998605125E+01  0.10081458625E+02 -0.30192794413E+02  0.32269632225E+02  0.00000000000E+00 0. -1.
<mgrwt>
<rscale>  0 0.55515858E+02</rscale>
<asrwt>0</asrwt>
<pdfrwt beam="1">  1        2 0.15443616E-01 0.94128073E+02</pdfrwt>
<pdfrwt beam="2">  1       -2 0.50876173E-02 0.94128073E+02</pdfrwt>
<totfact> 0.61941153E+04</totfact>
</mgrwt>
</event>
<event>
 6    1  0.1661841E-002  0.1074375E+03  0.7546771E-02  0.1300135E+00
         -2   -1    0    0    0  501 -0.00000000000E+00  0.00000000000E+00  0.18283934035E+02  0.18283934035E+02  0.00000000000E+00 0.  1.
          2   -1    0    0  501    0  0.00000000000E+00 -0.00000000000E+00 -0.38023156367E+03  0.38023156367E+03  0.00000000000E+00 0. -1.
         23    2    1    2    0    0 -0.53234469550E+02  0.16101549763E+02 -0.27566459895E+03  0.29586107726E+03  0.91921908541E+02 0.  0.
         11    1    3    3    0    0 -0.24976740573E+02  0.54365882008E+02 -0.14948534815E+03  0.16101352741E+03  0.00000000000E+00 0.  1.
        -11    1    3    3    0    0 -0.28257728977E+02 -0.38264332245E+02 -0.12617925079E+03  0.13484754985E+03  0.00000000000E+00 0. -1.
         22    1    1    2    0    0  0.53234469550E+02 -0.16101549763E+02 -0.86283030688E+02  0.10265442045E+03  0.00000000000E+00 0.  1.
<mgrwt>
<rscale>  0 0.91131228E+02</rscale>
<asrwt>0</asrwt>
<pdfrwt beam="1">  1        2 0.58497156E-01 0.10743745E+03</pdfrwt>
<pdfrwt beam="2">  1       -2 0.28129133E-02 0.10743745E+03</pdfrwt>
<totfact> 0.35585715E+04</totfact>
</mgrwt>
</event>
<event>
 6    1  0.1661841E-002  0.9714410E+02  0.7546771E-02  0.1350248E+00
          2   -1    0    0  501    0  0.00000000000E+00  0.00000000000E+00  0.10635812466E+04  0.10635812466E+04  0.00000000000E+00 0.  1.
         -2   -1    0    0    0  501 -0.00000000000E+00 -0.00000000000E+00 -0.51955304642E+01  0.51955304642E+01  0.00000000000E+00 0. -1.
         23    2    1    2    0    0 -0.28355365737E+02 -0.12381503098E+02  0.97514277154E+03  0.97996959149E+03  0.92084998629E+02 0.  0.
         11    1    3    3    0    0  0.13411335270E+02 -0.43120719605E+02  0.47896226518E+03  0.48108638709E+03  0.00000000000E+00 0. -1.
        -11    1    3    3    0    0 -0.41766701007E+02  0.30739216507E+02  0.49618050635E+03  0.49888320440E+03  0.00000000000E+00 0.  1.
         22    1    1    2    0    0  0.28355365737E+02  0.12381503098E+02  0.83242944627E+02  0.88807185606E+02  0.00000000000E+00 0. -1.
<mgrwt>
<rscale>  0 0.72978499E+02</rscale>
<asrwt>0</asrwt>
<pdfrwt beam="1">  1        2 0.16362771E+00 0.97144096E+02</pdfrwt>
<pdfrwt beam="2">  1       -2 0.79931322E-03 0.97144096E+02</pdfrwt>
<totfact> 0.64058438E+04</totfact>
</mgrwt>
</event>
<event>
 6    1  0.1661841E-002  0.9998074E+02  0.7546771E-02  0.1325796E+00
          2   -1    0    0  501    0  0.00000000000E+00  0.00000000000E+00  0.10063694550E+02  0.10063694550E+02  0.00000000000E+00 0. -1.
         -2   -1    0    0    0  501 -0.00000000000E+00 -0.00000000000E+00 -0.64173232040E+03  0.64173232040E+03  0.00000000000E+00 0.  1.
         23    2    1    2    0    0 -0.20475152660E+02 -0.38277396174E+02 -0.55281438529E+03  0.56178278154E+03  0.90065299190E+02 0.  0.
         11    1    3    3    0    0  0.13881656408E+02 -0.48580611675E+02 -0.45127062293E+03  0.45409024581E+03  0.00000000000E+00 0.  1.
        -11    1    3    3    0    0 -0.34356809069E+02  0.10303215501E+02 -0.10154376235E+03  0.10769253573E+03  0.00000000000E+00 0. -1.
         22    1    1    2    0    0  0.20475152660E+02  0.38277396174E+02 -0.78854240560E+02  0.90013233409E+02  0.00000000000E+00 0. -1.
<mgrwt>
<rscale>  0 0.81158432E+02</rscale>
<asrwt>0</asrwt>
<pdfrwt beam="1">  1        2 0.15482603E-02 0.99980743E+02</pdfrwt>
<pdfrwt beam="2">  1       -2 0.98728072E-01 0.99980743E+02</pdfrwt>
<totfact> 0.62959373E+03</totfact>
</mgrwt>
</event>
<event>
 6    1  0.1661841E-002  0.9255291E+02  0.7546771E-02  0.1414234E+00
          4   -1    0    0  501    0  0.00000000000E+00  0.00000000000E+00  0.61358618757E+02  0.61358618757E+02  0.00000000000E+00 0.  1.
         -4   -1    0    0    0  501 -0.00000000000E+00 -0.00000000000E+00 -0.71409369964E+02  0.71409369964E+02  0.00000000000E+00 0. -1.
         23    2    1    2    0    0  0.10343879426E+02  0.72580672303E+01 -0.39570662850E+02  0.10065723406E+03  0.91686236856E+02 0.  0.
         11    1    3    3    0    0  0.33089015664E+01  0.84982843251E-01  0.30092143378E+02  0.30273637785E+02  0.00000000000E+00 0.  1.
        -11    1    3    3    0    0  0.70349778594E+01  0.71730843871E+01 -0.69662806228E+02  0.70383596276E+02  0.00000000000E+00 0. -1.
         22    1    1    2    0    0 -0.10343879426E+02 -0.72580672303E+01  0.29519911643E+02  0.32110754661E+02  0.00000000000E+00 0. -1.
<mgrwt>
<rscale>  0 0.56259687E+02</rscale>
<asrwt>0</asrwt>
<pdfrwt beam="1">  1        4 0.94397875E-02 0.92552911E+02</pdfrwt>
<pdfrwt beam="2">  1       -4 0.10986057E-01 0.92552911E+02</pdfrwt>
<totfact> 0.79245217E+03</totfact>
</mgrwt>
</event>
<event>
 6    1  0.1661841E-002  0.9472944E+02  0.7546771E-02  0.1375948E+00
          3   -1    0    0  501    0  0.00000000000E+00  0.00000000000E+00  0.87865840060E+02  0.87865840060E+02  0.00000000000E+00 0.  1.
         -3   -1    0    0    0  501 -0.00000000000E+00 -0.00000000000E+00 -0.51628639164E+02  0.51628639164E+02  0.00000000000E+00 0. -1.
         23    2    1    2    0    0  0.14043740903E+01 -0.21661544696E+02 -0.28632148790E+01  0.94772702661E+02  0.92208851988E+02 0.  0.
         13    1    3    3    0    0 -0.32528384165E+02  0.19739098829E+00  0.28819807427E+02  0.43459360784E+02  0.00000000000E+00 0. -1.
        -13    1    3    3    0    0  0.33932758256E+02 -0.21858935685E+02 -0.31683022306E+02  0.51313341877E+02  0.00000000000E+00 0.  1.
         22    1    1    2    0    0 -0.14043740903E+01  0.21661544696E+02  0.39100415775E+02  0.44721776564E+02  0.00000000000E+00 0. -1.
<mgrwt>
<rscale>  0 0.65541110E+02</rscale>
<asrwt>0</asrwt>
<pdfrwt beam="1">  1        3 0.13517822E-01 0.94729442E+02</pdfrwt>
<pdfrwt beam="2">  1       -3 0.79428676E-02 0.94729442E+02</pdfrwt>
<totfact> 0.99883238E+03</totfact>
</mgrwt>
</event>
<event>
 6    1  0.1661841E-002  0.9877212E+02  0.7546771E-02  0.1353155E+00
          2   -1    0    0  501    0  0.00000000000E+00  0.00000000000E+00  0.53430202622E+02  0.53430202622E+02  0.00000000000E+00 0. -1.
         -2   -1    0    0    0  501 -0.00000000000E+00 -0.00000000000E+00 -0.76298063697E+02  0.76298063697E+02  0.00000000000E+00 0.  1.
         23    2    1    2    0    0 -0.15877960525E+02  0.23081081061E+02 -0.24157788105E+02  0.10168348347E+03  0.94715817850E+02 0.  0.
         13    1    3    3    0    0  0.38343471880E+02 -0.28146074611E+01 -0.59998066136E+01  0.38911971556E+02  0.00000000000E+00 0.  1.
        -13    1    3    3    0    0 -0.54221432405E+02  0.25895688522E+02 -0.18157981491E+02  0.62771511913E+02  0.00000000000E+00 0. -1.
         22    1    1    2    0    0  0.15877960525E+02 -0.23081081061E+02  0.12899270305E+01  0.28044782850E+02  0.00000000000E+00 0.  1.
<mgrwt>
<rscale>  0 0.72081504E+02</rscale>
<asrwt>0</asrwt>
<pdfrwt beam="1">  1        2 0.82200311E-02 0.98772122E+02</pdfrwt>
<pdfrwt beam="2">  1       -2 0.11738164E-01 0.98772122E+02</pdfrwt>
<totfact> 0.36936332E+04</totfact>
</mgrwt>
</event>
<event>
 6    1  0.1661841E-002  0.9207361E+02  0.7546771E-02  0.1397239E+00
          4   -1    0    0  501    0  0.00000000000E+00  0.00000000000E+00  0.97353828911E+02  0.97353828911E+02  0.00000000000E+00 0.  1.
         -4   -1    0    0    0  501 -0.00000000000E+00 -0.00000000000E+00 -0.42037142541E+02  0.42037142541E+02  0.00000000000E+00 0. -1.
         23    2    1    2    0    0 -0.11602455861E+02  0.12095593090E+02  0.11885089923E+02  0.92837519120E+02  0.90535237557E+02 0.  0.
         13    1    3    3    0    0 -0.11540952386E+02  0.25803058843E+02  0.47165885065E+02  0.54987381658E+02  0.00000000000E+00 0.  1.
        -13    1    3    3    0    0 -0.61503475195E-01 -0.13707465753E+02 -0.35280795142E+02  0.37850137462E+02  0.00000000000E+00 0. -1.
         22    1    1    2    0    0  0.11602455861E+02 -0.12095593090E+02  0.43431596447E+02  0.46553452333E+02  0.00000000000E+00 0.  1.
<mgrwt>
<rscale>  0 0.60141503E+02</rscale>
<asrwt>0</asrwt>
<pdfrwt beam="1">  1        4 0.14977512E-01 0.92073610E+02</pdfrwt>
<pdfrwt beam="2">  1       -4 0.64672527E-02 0.92073610E+02</pdfrwt>
<totfact> 0.86705946E+03</totfact>
</mgrwt>
</event>
<event>
 6    1  0.1661841E-002  0.9076544E+02  0.7546771E-02  0.1424537E+00
         -4   -1    0    0    0  501 -0.00000000000E+00  0.00000000000E+00  0.14553585361E+02  0.14553585361E+02  0.00000000000E+00 0.  1.
          4   -1    0    0  501    0  0.00000000000E+00 -0.00000000000E+00 -0.18786046165E+03  0.18786046165E+03  0.00000000000E+00 0. -1.
         23    2    1    2    0    0 -0.24710562781E+01  0.11162246378E+02 -0.16487779146E+03  0.18821012733E+03  0.90042567974E+02 0.  0.
         13    1    3    3    0    0  0.11386054399E+02 -0.73260728502E+01 -0.16454674673E+03  0.16510283292E+03  0.00000000000E+00 0. -1.
        -13    1    3    3    0    0 -0.13857110677E+02  0.18488319228E+02 -0.33104473136E+00  0.23107294407E+02  0.00000000000E+00 0.  1.
         22    1    1    2    0    0  0.24710562781E+01 -0.11162246378E+02 -0.84290848204E+01  0.14203919679E+02  0.00000000000E+00 0. -1.
<mgrwt>
<rscale>  0 0.54072398E+02</rscale>
<asrwt>0</asrwt>
<pdfrwt beam="1">  1        4 0.28901608E-01 0.90765444E+02</pdfrwt>
<pdfrwt beam="2">  1       -4 0.22390133E-02 0.90765444E+02</pdfrwt>
<totfact> 0.14083020E+04</totfact>
</mgrwt>
</event>
<event>
 6    1  0.1661841E-002  0.9281546E+02  0.7546771E-02  0.1396680E+00
         -3   -1    0    0    0  501 -0.00000000000E+00  0.00000000000E+00  0.31447150397E+03  0.31447150397E+03  0.00000000000E+00 0.  1.
          3   -1    0    0  501    0  0.00000000000E+00 -0.00000000000E+00 -0.97307722434E+01  0.97307722434E+01  0.00000000000E+00 0. -1.
         23    2    1    2    0    0  0.15927055583E+02  0.43413084122E+01  0.27423846472E+03  0.28951933587E+03  0.91335602329E+02 0.  0.
         11    1    3    3    0    0  0.20425600583E+02  0.11908503651E+02  0.27866465398E+03  0.27966588458E+03  0.00000000000E+00 0.  1.
        -11    1    3    3    0    0 -0.44985449991E+01 -0.75671952384E+01 -0.44261892656E+01  0.98534512887E+01  0.00000000000E+00 0. -1.
         22    1    1    2    0    0 -0.15927055583E+02 -0.43413084122E+01  0.30502267012E+02  0.34682940348E+02  0.00000000000E+00 0. -1.
<mgrwt>
<rscale>  0 0.60275339E+02</rscale>
<asrwt>0</asrwt>
<pdfrwt beam="1">  1        3 0.14970421E-02 0.92815464E+02</pdfrwt>
<pdfrwt beam="2">  1       -3 0.48380224E-01 0.92815464E+02</pdfrwt>
<totfact> 0.13116420E+04</totfact>
</mgrwt>
</event>
<event>
 6    1  0.1661841E-002  0.9239683E+02  0.7546771E-02  0.1423794E+00
          2   -1    0    0  501    0  0.00000000000E+00  0.00000000000E+00  0.24355783738E+02  0.24355783738E+02  0.00000000000E+00 0. -1.
         -2   -1    0    0    0  501 -0.00000000000E+00 -0.00000000000E+00 -0.15094286102E+03  0.15094286102E+03  0.00000000000E+00 0.  1.
         23    2    1    2    0    0 -0.63525339630E+01  0.89328543414E+01 -0.13348794250E+03  0.16234594174E+03  0.91744337334E+02 0.  0.
         11    1    3    3    0    0 -0.33359554541E+02 -0.29150150602E+02 -0.50932053554E+02  0.67503075771E+02  0.00000000000E+00 0. -1.
        -11    1    3    3    0    0  0.27007020578E+02  0.38083004943E+02 -0.82555888947E+02  0.94842865973E+02  0.00000000000E+00 0.  1.
         22    1    1    2    0    0  0.63525339630E+01 -0.89328543414E+01  0.69008652232E+01  0.12952703010E+02  0.00000000000E+00 0. -1.
<mgrwt>
<rscale>  0 0.54226120E+02</rscale>
<asrwt>0</asrwt>
<pdfrwt beam="1">  1        2 0.37470436E-02 0.92396829E+02</pdfrwt>
<pdfrwt beam="2">  1       -2 0.23221979E-01 0.92396829E+02</pdfrwt>
<totfact> 0.32680209E+04</totfact>
</mgrwt>
</event>
<event>
 6    1  0.1661841E-002  0.8883580E+02  0.7546771E-02  0.1428106E+00
         -2   -1    0    0    0  501 -0.00000000000E+00  0.00000000000E+00  0.76920384186E+01  0.76920384186E+01  0.00000000000E+00 0.  1.
          2   -1    0    0  501    0  0.00000000000E+00 -0.00000000000E+00 -0.33435470061E+03  0.33435470061E+03  0.00000000000E+00 0. -1.
         23    2    1    2    0    0 -0.11507467185E+02  0.96861107593E+00 -0.30235351986E+03  0.31513402068E+03  0.88082007272E+02 0.  0.
         11    1    3    3    0    0 -0.20034786162E+02  0.33677914920E+02 -0.24835856341E+03  0.25143104548E+03  0.00000000000E+00 0. -1.
        -11    1    3    3    0    0  0.85273189775E+01 -0.32709303844E+02 -0.53994956449E+02  0.63702975196E+02  0.00000000000E+00 0.  1.
         22    1    1    2    0    0  0.11507467185E+02 -0.96861107593E+00 -0.24309142328E+02  0.26912718353E+02  0.00000000000E+00 0. -1.
<mgrwt>
<rscale>  0 0.53341992E+02</rscale>
<asrwt>0</asrwt>
<pdfrwt beam="1">  1        2 0.51439192E-01 0.88835804E+02</pdfrwt>
<pdfrwt beam="2">  1       -2 0.11833903E-02 0.88835804E+02</pdfrwt>
<totfact> 0.13770838E+05</totfact>
</mgrwt>
</event>
<event>
 6    1  0.1661841E-002  0.9396733E+02  0.7546771E-02  0.1415623E+00
         -2   -1    0    0    0  501 -0.00000000000E+00  0.00000000000E+00  0.16747755775E+02  0.16747755775E+02  0.00000000000E+00 0.  1.
          2   -1    0    0  501    0  0.00000000000E+00 -0.00000000000E+00 -0.17357654542E+03  0.17357654542E+03  0.00000000000E+00 0. -1.
         23    2    1    2    0    0  0.11635461391E+02 -0.20641640270E+01 -0.12505708279E+03  0.15642612881E+03  0.93221323109E+02 0.  0.
         13    1    3    3    0    0  0.36993544726E+02  0.31064010236E+02 -0.89087862059E+02  0.10134171032E+03  0.00000000000E+00 0. -1.
        -13    1    3    3    0    0 -0.25358083336E+02 -0.33128174263E+02 -0.35969220732E+02  0.55084418491E+02  0.00000000000E+00 0.  1.
         22    1    1    2    0    0 -0.11635461391E+02  0.20641640270E+01 -0.31771706857E+02  0.33898172392E+02  0.00000000000E+00 0.  1.
<mgrwt>
<rscale>  0 0.55957815E+02</rscale>
<asrwt>0</asrwt>
<pdfrwt beam="1">  1        2 0.26704085E-01 0.93967334E+02</pdfrwt>
<pdfrwt beam="2">  1       -2 0.25765777E-02 0.93967334E+02</pdfrwt>
<totfact> 0.91106561E+04</totfact>
</mgrwt>
</event>
<event>
 6    1  0.1661841E-002  0.9171260E+02  0.7546771E-02  0.1397321E+00
         -2   -1    0    0    0  501 -0.00000000000E+00  0.00000000000E+00  0.36855126048E+02  0.36855126048E+02  0.00000000000E+00 0.  1.
          2   -1    0    0  501    0  0.00000000000E+00 -0.00000000000E+00 -0.83848220237E+02  0.83848220237E+02  0.00000000000E+00 0. -1.
         23    2    1    2    0    0  0.13099272757E+02 -0.10736698955E+02 -0.29466050717E+02  0.96329899585E+02  0.90135086165E+02 0.  0.
         13    1    3    3    0    0  0.44521558463E+02 -0.30616691673E+02 -0.22346214004E+02  0.58471396916E+02  0.00000000000E+00 0.  1.
        -13    1    3    3    0    0 -0.31422285707E+02  0.19879992718E+02 -0.71198367133E+01  0.37858502669E+02  0.00000000000E+00 0. -1.
         22    1    1    2    0    0 -0.13099272757E+02  0.10736698955E+02 -0.17527043471E+02  0.24373446700E+02  0.00000000000E+00 0. -1.
<mgrwt>
<rscale>  0 0.60121798E+02</rscale>
<asrwt>0</asrwt>
<pdfrwt beam="1">  1        2 0.12899726E-01 0.91712602E+02</pdfrwt>
<pdfrwt beam="2">  1       -2 0.56700194E-02 0.91712602E+02</pdfrwt>
<totfact> 0.64754514E+04</totfact>
</mgrwt>
</event>
<event>
 6    1  0.1661841E-002  0.9491056E+02  0.7546771E-02  0.1358577E+00
          2   -1    0    0  501    0  0.00000000000E+00  0.00000000000E+00  0.38228822825E+03  0.38228822825E+03  0.00000000000E+00 0. -1.
         -2   -1    0    0    0  501 -0.00000000000E+00 -0.00000000000E+00 -0.11130396904E+02  0.11130396904E+02  0.00000000000E+00 0.  1.
         23    2    1    2    0    0  0.80644713663E+00 -0.28797671218E+02  0.22093782916E+03  0.24046109745E+03  0.90432620265E+02 0.  0.
         11    1    3    3    0    0  0.31571021980E+01  0.14375524171E+02  0.18101206297E+03  0.18160944339E+03  0.00000000000E+00 0. -1.
        -11    1    3    3    0    0 -0.23506550613E+01 -0.43173195389E+02  0.39925766196E+02  0.58851654061E+02  0.00000000000E+00 0.  1.
         22    1    1    2    0    0 -0.80644713663E+00  0.28797671218E+02  0.15022000218E+03  0.15295752770E+03  0.00000000000E+00 0. -1.
<mgrwt>
<rscale>  0 0.70447861E+02</rscale>
<asrwt>0</asrwt>
<pdfrwt beam="1">  1        2 0.58813564E-01 0.94910563E+02</pdfrwt>
<pdfrwt beam="2">  1       -2 0.17123690E-02 0.94910563E+02</pdfrwt>
<totfact> 0.71360686E+04</totfact>
</mgrwt>
</event>
<event>
 6    1  0.1661841E-002  0.9145675E+02  0.7546771E-02  0.1387945E+00
         -4   -1    0    0    0  501 -0.00000000000E+00  0.00000000000E+00  0.28259867679E+02  0.28259867679E+02  0.00000000000E+00 0.  1.
          4   -1    0    0  501    0  0.00000000000E+00 -0.00000000000E+00 -0.11133256563E+03  0.11133256563E+03  0.00000000000E+00 0. -1.
         23    2    1    2    0    0  0.17565717858E+02  0.92355009374E+01 -0.61125038655E+02  0.11000276163E+03  0.89277591225E+02 0.  0.
         11    1    3    3    0    0  0.45790508082E+02 -0.17240023027E+02 -0.18187329830E+02  0.52199310251E+02  0.00000000000E+00 0.  1.
        -11    1    3    3    0    0 -0.28224790225E+02  0.26475523965E+02 -0.42937708826E+02  0.57803451382E+02  0.00000000000E+00 0. -1.
         22    1    1    2    0    0 -0.17565717858E+02 -0.92355009374E+01 -0.21947659301E+02  0.29589671681E+02  0.00000000000E+00 0. -1.
<mgrwt>
<rscale>  0 0.62420613E+02</rscale>
<asrwt>0</asrwt>
<pdfrwt beam="1">  1        4 0.17128087E-01 0.91456751E+02</pdfrwt>
<pdfrwt beam="2">  1       -4 0.43476719E-02 0.91456751E+02</pdfrwt>
<totfact> 0.12928707E+04</totfact>
</mgrwt>
</event>
<event>
 6    1  0.1661841E-002  0.1080412E+03  0.7546771E-02  0.1298442E+00
         -1   -1    0    0    0  501 -0.00000000000E+00  0.00000000000E+00  0.37375930644E+02  0.37375930644E+02  0.00000000000E+00 0. -1.
          1   -1    0    0  501    0  0.00000000000E+00 -0.00000000000E+00 -0.18318877979E+03  0.18318877979E+03  0.00000000000E+00 0.  1.
         23    2    1    2    0    0 -0.39024868533E+02  0.40753834000E+02 -0.83861256997E+02  0.13676843892E+03  0.92136204122E+02 0.  0.
         13    1    3    3    0    0  0.14892514265E+02  0.32809670345E+02  0.84851518244E+00  0.36041384925E+02  0.00000000000E+00 0. -1.
        -13    1    3    3    0    0 -0.53917382798E+02  0.79441636550E+01 -0.84709772179E+02  0.10072705400E+03  0.00000000000E+00 0.  1.
         22    1    1    2    0    0  0.39024868533E+02 -0.40753834000E+02 -0.61951592148E+02  0.83796271513E+02  0.00000000000E+00 0. -1.
<mgrwt>
<rscale>  0 0.91846045E+02</rscale>
<asrwt>0</asrwt>
<pdfrwt beam="1">  1        1 0.28182889E-01 0.10804117E+03</pdfrwt>
<pdfrwt beam="2">  1       -1 0.57501432E-02 0.10804117E+03</pdfrwt>
<totfact> 0.21196540E+04</totfact>
</mgrwt>
</event>
<event>
 6    1  0.1661841E-002  0.9766373E+02  0.7546771E-02  0.1414796E+00
         -2   -1    0    0    0  501 -0.00000000000E+00  0.00000000000E+00  0.10474680672E+03  0.10474680672E+03  0.00000000000E+00 0.  1.
          2   -1    0    0  501    0  0.00000000000E+00 -0.00000000000E+00 -0.40324528206E+02  0.40324528206E+02  0.00000000000E+00 0. -1.
         23    2    1    2    0    0  0.10505316204E+02 -0.18159488282E+01  0.79964462711E+02  0.12622408505E+03  0.97080095852E+02 0.  0.
         13    1    3    3    0    0 -0.16043528919E+02 -0.44470424109E+02  0.42217092188E+02  0.63382145068E+02  0.00000000000E+00 0. -1.
        -13    1    3    3    0    0  0.26548845124E+02  0.42654475281E+02  0.37747370524E+02  0.62841939979E+02  0.00000000000E+00 0.  1.
         22    1    1    2    0    0 -0.10505316204E+02  0.18159488282E+01 -0.15542184193E+02  0.18847249883E+02  0.00000000000E+00 0. -1.
<mgrwt>
<rscale>  0 0.56137184E+02</rscale>
<asrwt>0</asrwt>
<pdfrwt beam="1">  1        2 0.62037736E-02 0.97663731E+02</pdfrwt>
<pdfrwt beam="2">  1       -2 0.16114893E-01 0.97663731E+02</pdfrwt>
<totfact> 0.31569218E+04</totfact>
</mgrwt>
</event>
<event>
 6    1  0.1661841E-002  0.9572507E+02  0.7546771E-02  0.1381474E+00
         -2   -1    0    0    0  501 -0.00000000000E+00  0.00000000000E+00  0.29456584119E+02  0.29456584119E+02  0.00000000000E+00 0.  1.
          2   -1    0    0  501    0  0.00000000000E+00 -0.00000000000E+00 -0.11475473752E+03  0.11475473752E+03  0.00000000000E+00 0. -1.
         23    2    1    2    0    0 -0.10568739650E+02  0.16053351438E+02 -0.62181570969E+02  0.11414830893E+03  0.93775691478E+02 0.  0.
         11    1    3    3    0    0 -0.20682028909E+02 -0.11561688866E+02 -0.77463388630E+02  0.81006145120E+02  0.00000000000E+00 0. -1.
        -11    1    3    3    0    0  0.10113289259E+02  0.27615040304E+02  0.15281817661E+02  0.33142163805E+02  0.00000000000E+00 0.  1.
         22    1    1    2    0    0  0.10568739650E+02 -0.16053351438E+02 -0.23116582436E+02  0.30063012718E+02  0.00000000000E+00 0.  1.
<mgrwt>
<rscale>  0 0.64077801E+02</rscale>
<asrwt>0</asrwt>
<pdfrwt beam="1">  1        2 0.17654575E-01 0.95725068E+02</pdfrwt>
<pdfrwt beam="2">  1       -2 0.45317822E-02 0.95725068E+02</pdfrwt>
<totfact> 0.63251153E+04</totfact>
</mgrwt>
</event>
<event>
 6    1  0.1661841E-002  0.9728788E+02  0.7546771E-02  0.1342416E+00
          3   -1    0    0  501    0  0.00000000000E+00  0.00000000000E+00  0.48993074083E+02  0.48993074083E+02  0.00000000000E+00 0. -1.
         -3   -1    0    0    0  501 -0.00000000000E+00 -0.00000000000E+00 -0.90895239063E+02  0.90895239063E+02  0.00000000000E+00 0.  1.
         23    2    1    2    0    0 -0.85898588327E+01 -0.34170825665E+02 -0.23273857632E+02  0.10003301443E+03  0.90683518486E+02 0.  0.
         11    1    3    3    0    0 -0.28155654993E+02  0.23305709649E+02 -0.97878411787E+01  0.37837796517E+02  0.00000000000E+00 0. -1.
        -11    1    3    3    0    0  0.19565796160E+02 -0.57476535314E+02 -0.13486016454E+02  0.62195217910E+02  0.00000000000E+00 0.  1.
         22    1    1    2    0    0  0.85898588327E+01  0.34170825665E+02 -0.18628307347E+02  0.39855298719E+02  0.00000000000E+00 0.  1.
<mgrwt>
<rscale>  0 0.75471742E+02</rscale>
<asrwt>0</asrwt>
<pdfrwt beam="1">  1        3 0.75373961E-02 0.97287880E+02</pdfrwt>
<pdfrwt beam="2">  1       -3 0.13983883E-01 0.97287880E+02</pdfrwt>
<totfact> 0.10329357E+04</totfact>
</mgrwt>
</event>
<event>
 6    1  0.1661841E-002  0.9237550E+02  0.7546771E-02  0.1393298E+00
          4   -1    0    0  501    0  0.00000000000E+00  0.00000000000E+00  0.11335283583E+03  0.11335283583E+03  0.00000000000E+00 0. -1.
         -4   -1    0    0    0  501 -0.00000000000E+00 -0.00000000000E+00 -0.32228922341E+02  0.32228922341E+02  0.00000000000E+00 0.  1.
         23    2    1    2    0    0  0.14775890211E+02 -0.96963432430E+01  0.39699761382E+02  0.10054503558E+03  0.90669107872E+02 0.  0.
         11    1    3    3    0    0  0.30156581126E+02 -0.25494557623E+02  0.59165331593E+02  0.71133173106E+02  0.00000000000E+00 0. -1.
        -11    1    3    3    0    0 -0.15380690914E+02  0.15798214380E+02 -0.19465570211E+02  0.29411862475E+02  0.00000000000E+00 0.  1.
         22    1    1    2    0    0 -0.14775890211E+02  0.96963432430E+01  0.41424152111E+02  0.45036722594E+02  0.00000000000E+00 0. -1.
<mgrwt>
<rscale>  0 0.61093794E+02</rscale>
<asrwt>0</asrwt>
<pdfrwt beam="1">  1        4 0.17438898E-01 0.92375501E+02</pdfrwt>
<pdfrwt beam="2">  1       -4 0.49582958E-02 0.92375501E+02</pdfrwt>
<totfact> 0.10198196E+04</totfact>
</mgrwt>
</event>
<event>
 6    1  0.1661841E-002  0.8772129E+02  0.7546771E-02  0.1394478E+00
         -2   -1    0    0    0  501 -0.00000000000E+00  0.00000000000E+00  0.20079512249E+02  0.20079512249E+02  0.00000000000E+00 0.  1.
          2   -1    0    0  501    0  0.00000000000E+00 -0.00000000000E+00 -0.18596084316E+03  0.18596084316E+03  0.00000000000E+00 0. -1.
         23    2    1    2    0    0 -0.20104247933E+02 -0.24483542017E+01 -0.83154754006E+02  0.12087074962E+03  0.85351331432E+02 0.  0.
         11    1    3    3    0    0 -0.28184753589E+02 -0.35939814545E+02 -0.70832403344E+02  0.84280958513E+02  0.00000000000E+00 0. -1.
        -11    1    3    3    0    0  0.80805056559E+01  0.33491460343E+02 -0.12322350662E+02  0.36589791109E+02  0.00000000000E+00 0.  1.
         22    1    1    2    0    0  0.20104247933E+02  0.24483542017E+01 -0.82726576903E+02  0.85169605784E+02  0.00000000000E+00 0. -1.
<mgrwt>
<rscale>  0 0.60806491E+02</rscale>
<asrwt>0</asrwt>
<pdfrwt beam="1">  1        2 0.28609360E-01 0.87721292E+02</pdfrwt>
<pdfrwt beam="2">  1       -2 0.30891558E-02 0.87721292E+02</pdfrwt>
<totfact> 0.64357553E+04</totfact>
</mgrwt>
</event>
<event>
 6    1  0.1661841E-002  0.9218784E+02  0.7546771E-02  0.1416496E+00
         -1   -1    0    0    0  501 -0.00000000000E+00  0.00000000000E+00  0.29492285518E+02  0.29492285518E+02  0.00000000000E+00 0.  1.
          1   -1    0    0  501    0  0.00000000000E+00 -0.00000000000E+00 -0.10866317342E+03  0.10866317342E+03  0.00000000000E+00 0. -1.
         23    2    1    2    0    0 -0.10490595010E+02  0.65108268528E+01 -0.46545367206E+02  0.10327182308E+03  0.91357291904E+02 0.  0.
         11    1    3    3    0    0 -0.27521445348E+01 -0.42202305341E+02 -0.27234614655E+02  0.50302416552E+02  0.00000000000E+00 0. -1.
        -11    1    3    3    0    0 -0.77384504755E+01  0.48713132193E+02 -0.19310752551E+02  0.52969406528E+02  0.00000000000E+00 0.  1.
         22    1    1    2    0    0  0.10490595010E+02 -0.65108268528E+01 -0.32625520698E+02  0.34883635860E+02  0.00000000000E+00 0. -1.
<mgrwt>
<rscale>  0 0.55769125E+02</rscale>
<asrwt>0</asrwt>
<pdfrwt beam="1">  1        1 0.16717411E-01 0.92187842E+02</pdfrwt>
<pdfrwt beam="2">  1       -1 0.45372747E-02 0.92187842E+02</pdfrwt>
<totfact> 0.56646909E+04</totfact>
</mgrwt>
</event>
<event>
 6    1  0.1661841E-002  0.9340048E+02  0.7546771E-02  0.1376336E+00
          2   -1    0    0  501    0  0.00000000000E+00  0.00000000000E+00  0.10824317923E+02  0.10824317923E+02  0.00000000000E+00 0. -1.
         -2   -1    0    0    0  501 -0.00000000000E+00 -0.00000000000E+00 -0.34536136701E+03  0.34536136701E+03  0.00000000000E+00 0.  1.
         23    2    1    2    0    0 -0.61705160625E+01  0.21640359374E+02 -0.30544544672E+03  0.31940659100E+03  0.90649153497E+02 0.  0.
         11    1    3    3    0    0 -0.11804307068E+02  0.43804188998E+02 -0.73757952931E+02  0.86593211395E+02  0.00000000000E+00 0. -1.
        -11    1    3    3    0    0  0.56337910050E+01 -0.22163829625E+02 -0.23168749379E+03  0.23281337960E+03  0.00000000000E+00 0.  1.
         22    1    1    2    0    0  0.61705160625E+01 -0.21640359374E+02 -0.29091602363E+02  0.36779093930E+02  0.00000000000E+00 0. -1.
<mgrwt>
<rscale>  0 0.65436708E+02</rscale>
<asrwt>0</asrwt>
<pdfrwt beam="1">  1        2 0.16652798E-02 0.93400479E+02</pdfrwt>
<pdfrwt beam="2">  1       -2 0.53132514E-01 0.93400479E+02</pdfrwt>
<totfact> 0.21145667E+04</totfact>
</mgrwt>
</event>
<event>
 6    1  0.1661841E-002  0.8997351E+02  0.7546771E-02  0.1433201E+00
         -2   -1    0    0    0  501 -0.00000000000E+00  0.00000000000E+00  0.85723149462E+02  0.85723149462E+02  0.00000000000E+00 0.  1.
          2   -1    0    0  501    0  0.00000000000E+00 -0.00000000000E+00 -0.29534969474E+02  0.29534969474E+02  0.00000000000E+00 0. -1.
         23    2    1    2    0    0 -0.26133445319E+01 -0.99527891111E+01  0.53276484912E+02  0.10456393599E+03  0.89383137581E+02 0.  0.
         13    1    3    3    0    0 -0.22230275551E+02 -0.11516274176E+02  0.72714206837E+02  0.76903612385E+02  0.00000000000E+00 0.  1.
        -13    1    3    3    0    0  0.19616931019E+02  0.15634850648E+01 -0.19437721924E+02  0.27660323602E+02  0.00000000000E+00 0. -1.
         22    1    1    2    0    0  0.26133445319E+01  0.99527891111E+01  0.29116950759E+01  0.10694182949E+02  0.00000000000E+00 0. -1.
<mgrwt>
<rscale>  0 0.52322879E+02</rscale>
<asrwt>0</asrwt>
<pdfrwt beam="1">  1        2 0.45438415E-02 0.89973512E+02</pdfrwt>
<pdfrwt beam="2">  1       -2 0.13188177E-01 0.89973512E+02</pdfrwt>
<totfact> 0.64357643E+04</totfact>
</mgrwt>
</event>
<event>
 6    1  0.1661841E-002  0.9320637E+02  0.7546771E-02  0.1391937E+00
          3   -1    0    0  501    0  0.00000000000E+00  0.00000000000E+00  0.17842733900E+02  0.17842733900E+02  0.00000000000E+00 0. -1.
         -3   -1    0    0    0  501 -0.00000000000E+00 -0.00000000000E+00 -0.17255171644E+03  0.17255171644E+03  0.00000000000E+00 0.  1.
         23    2    1    2    0    0 -0.17531049549E+02 -0.13605422307E+01 -0.13398658746E+03  0.16321713569E+03  0.91532720881E+02 0.  0.
         11    1    3    3    0    0  0.20054517357E+02  0.21877416628E+02 -0.95652090203E+01  0.31181697330E+02  0.00000000000E+00 0. -1.
        -11    1    3    3    0    0 -0.37585566906E+02 -0.23237958859E+02 -0.12442137844E+03  0.13203543836E+03  0.00000000000E+00 0.  1.
         22    1    1    2    0    0  0.17531049549E+02  0.13605422307E+01 -0.20722395080E+02  0.27177314645E+02  0.00000000000E+00 0. -1.
<mgrwt>
<rscale>  0 0.61427405E+02</rscale>
<asrwt>0</asrwt>
<pdfrwt beam="1">  1        3 0.27450360E-02 0.93206372E+02</pdfrwt>
<pdfrwt beam="2">  1       -3 0.26546418E-01 0.93206372E+02</pdfrwt>
<totfact> 0.16246023E+04</totfact>
</mgrwt>
</event>
<event>
 6    1  0.1661841E-002  0.9262576E+02  0.7546771E-02  0.1377797E+00
         -2   -1    0    0    0  501 -0.00000000000E+00  0.00000000000E+00  0.27952201228E+03  0.27952201228E+03  0.00000000000E+00 0.  1.
          2   -1    0    0  501    0  0.00000000000E+00 -0.00000000000E+00 -0.13906579912E+02  0.13906579912E+02  0.00000000000E+00 0. -1.
         23    2    1    2    0    0  0.78875081055E-01 -0.22526665772E+02  0.24830579000E+03  0.26501942799E+03  0.89844727000E+02 0.  0.
         11    1    3    3    0    0 -0.28211217560E+02 -0.39475644610E+02  0.80404375014E+02  0.93909865483E+02  0.00000000000E+00 0. -1.
        -11    1    3    3    0    0  0.28290092641E+02  0.16948978838E+02  0.16790141499E+03  0.17110956250E+03  0.00000000000E+00 0.  1.
         22    1    1    2    0    0 -0.78875081055E-01  0.22526665772E+02  0.17309642367E+02  0.28409164207E+02  0.00000000000E+00 0. -1.
<mgrwt>
<rscale>  0 0.65046471E+02</rscale>
<asrwt>0</asrwt>
<pdfrwt beam="1">  1        2 0.21394740E-02 0.92625762E+02</pdfrwt>
<pdfrwt beam="2">  1       -2 0.43003382E-01 0.92625762E+02</pdfrwt>
<totfact> 0.22716080E+04</totfact>
</mgrwt>
</event>
<event>
 6    1  0.1661841E-002  0.9339957E+02  0.7546771E-02  0.1390394E+00
         -2   -1    0    0    0  501 -0.00000000000E+00  0.00000000000E+00  0.14309695491E+02  0.14309695491E+02  0.00000000000E+00 0.  1.
          2   -1    0    0  501    0  0.00000000000E+00 -0.00000000000E+00 -0.26129963200E+03  0.26129963200E+03  0.00000000000E+00 0. -1.
         23    2    1    2    0    0 -0.15967563362E+02  0.81187749348E+01 -0.14796674122E+03  0.17497896035E+03  0.91665710442E+02 0.  0.
         11    1    3    3    0    0  0.16626577329E+02  0.22894161099E+02 -0.13335583642E+03  0.13632448347E+03  0.00000000000E+00 0. -1.
        -11    1    3    3    0    0 -0.32594140691E+02 -0.14775386164E+02 -0.14610904802E+02  0.38654476879E+02  0.00000000000E+00 0.  1.
         22    1    1    2    0    0  0.15967563362E+02 -0.81187749348E+01 -0.99023195292E+02  0.10063036715E+03  0.00000000000E+00 0. -1.
<mgrwt>
<rscale>  0 0.61808910E+02</rscale>
<asrwt>0</asrwt>
<pdfrwt beam="1">  1        2 0.40199943E-01 0.93399572E+02</pdfrwt>
<pdfrwt beam="2">  1       -2 0.22014917E-02 0.93399572E+02</pdfrwt>
<totfact> 0.73935652E+04</totfact>
</mgrwt>
</event>
<event>
 6    1  0.1661841E-002  0.9306485E+02  0.7546771E-02  0.1416391E+00
         -2   -1    0    0    0  501 -0.00000000000E+00  0.00000000000E+00  0.47355159915E+02  0.47355159915E+02  0.00000000000E+00 0.  1.
          2   -1    0    0  501    0  0.00000000000E+00 -0.00000000000E+00 -0.59702094633E+02  0.59702094633E+02  0.00000000000E+00 0. -1.
         23    2    1    2    0    0  0.11423096794E+02  0.37424585284E+01 -0.55086245749E+01  0.93227734607E+02  0.92285277369E+02 0.  0.
         11    1    3    3    0    0 -0.10884352460E+02  0.44216643259E+02 -0.10538980888E+02  0.46740248049E+02  0.00000000000E+00 0. -1.
        -11    1    3    3    0    0  0.22307449253E+02 -0.40474184731E+02  0.50303563130E+01  0.46487486558E+02  0.00000000000E+00 0.  1.
         22    1    1    2    0    0 -0.11423096794E+02 -0.37424585284E+01 -0.68383101426E+01  0.13829519941E+02  0.00000000000E+00 0.  1.
<mgrwt>
<rscale>  0 0.55791771E+02</rscale>
<asrwt>0</asrwt>
<pdfrwt beam="1">  1        2 0.91849376E-02 0.93064846E+02</pdfrwt>
<pdfrwt beam="2">  1       -2 0.72854092E-02 0.93064846E+02</pdfrwt>
<totfact> 0.66873869E+04</totfact>
</mgrwt>
</event>
<event>
 6    1  0.1661841E-002  0.1057262E+03  0.7546771E-02  0.1403451E+00
          1   -1    0    0  501    0  0.00000000000E+00  0.00000000000E+00  0.37437772239E+02  0.37437772239E+02  0.00000000000E+00 0. -1.
         -1   -1    0    0    0  501 -0.00000000000E+00 -0.00000000000E+00 -0.94856814883E+02  0.94856814883E+02  0.00000000000E+00 0.  1.
         23    2    1    2    0    0 -0.10033464700E+02  0.11225810271E-01 -0.60482644471E+02  0.12180381994E+03  0.10524898921E+03 0.  0.
         11    1    3    3    0    0 -0.24527154296E+02 -0.28298654949E+02 -0.77251297635E+02  0.85849625253E+02  0.00000000000E+00 0.  1.
        -11    1    3    3    0    0  0.14493689595E+02  0.28309880759E+02  0.16768653164E+02  0.35954194687E+02  0.00000000000E+00 0. -1.
         22    1    1    2    0    0  0.10033464700E+02 -0.11225810271E-01  0.30636018258E+01  0.10490767182E+02  0.00000000000E+00 0.  1.
<mgrwt>
<rscale>  0 0.58681288E+02</rscale>
<asrwt>0</asrwt>
<pdfrwt beam="1">  1        1 0.57596573E-02 0.10572616E+03</pdfrwt>
<pdfrwt beam="2">  1       -1 0.14593356E-01 0.10572616E+03</pdfrwt>
<totfact> 0.40537391E+04</totfact>
</mgrwt>
</event>
<event>
 6    1  0.1661841E-002  0.9271383E+02  0.7546771E-02  0.1411839E+00
          2   -1    0    0  501    0  0.00000000000E+00  0.00000000000E+00  0.44458374732E+02  0.44458374732E+02  0.00000000000E+00 0. -1.
         -2   -1    0    0    0  501 -0.00000000000E+00 -0.00000000000E+00 -0.77699959240E+02  0.77699959240E+02  0.00000000000E+00 0.  1.
         23    2    1    2    0    0  0.92176343153E+01 -0.92339299074E+01 -0.46358064957E+02  0.10365773119E+03  0.91791202221E+02 0.  0.
         13    1    3    3    0    0  0.26920119884E+01  0.37367457606E+02  0.19544941255E+00  0.37464810382E+02  0.00000000000E+00 0. -1.
        -13    1    3    3    0    0  0.65256223269E+01 -0.46601387514E+02 -0.46553514370E+02  0.66192920808E+02  0.00000000000E+00 0.  1.
         22    1    1    2    0    0 -0.92176343153E+01  0.92339299074E+01  0.13116480449E+02  0.18500602781E+02  0.00000000000E+00 0. -1.
<mgrwt>
<rscale>  0 0.56785571E+02</rscale>
<asrwt>0</asrwt>
<pdfrwt beam="1">  1        2 0.68397500E-02 0.92713834E+02</pdfrwt>
<pdfrwt beam="2">  1       -2 0.11953840E-01 0.92713834E+02</pdfrwt>
<totfact> 0.44778305E+04</totfact>
</mgrwt>
</event>
<event>
 6    1  0.1661841E-002  0.9260394E+02  0.7546771E-02  0.1407023E+00
          1   -1    0    0  501    0  0.00000000000E+00  0.00000000000E+00  0.17731040853E+03  0.17731040853E+03  0.00000000000E+00 0. -1.
         -1   -1    0    0    0  501 -0.00000000000E+00 -0.00000000000E+00 -0.17925322466E+02  0.17925322466E+02  0.00000000000E+00 0.  1.
         23    2    1    2    0    0 -0.89285324605E+01 -0.10934318917E+02  0.10957991058E+03  0.14346862245E+03  0.91521641174E+02 0.  0.
         11    1    3    3    0    0  0.10394760915E+02 -0.38687738142E+02  0.10088997354E+03  0.10855219435E+03  0.00000000000E+00 0. -1.
        -11    1    3    3    0    0 -0.19323293375E+02  0.27753419225E+02  0.86899370381E+01  0.34916428100E+02  0.00000000000E+00 0.  1.
         22    1    1    2    0    0  0.89285324605E+01  0.10934318917E+02  0.49805175489E+02  0.51767108549E+02  0.00000000000E+00 0. -1.
<mgrwt>
<rscale>  0 0.57863474E+02</rscale>
<asrwt>0</asrwt>
<pdfrwt beam="1">  1        1 0.27278523E-01 0.92603935E+02</pdfrwt>
<pdfrwt beam="2">  1       -1 0.27577420E-02 0.92603935E+02</pdfrwt>
<totfact> 0.63147961E+04</totfact>
</mgrwt>
</event>
<event>
 6    1  0.1661841E-002  0.9417266E+02  0.7546771E-02  0.1379031E+00
          2   -1    0    0  501    0  0.00000000000E+00  0.00000000000E+00  0.65304010505E+02  0.65304010505E+02  0.00000000000E+00 0. -1.
         -2   -1    0    0    0  501 -0.00000000000E+00 -0.00000000000E+00 -0.50810738731E+02  0.50810738731E+02  0.00000000000E+00 0.  1.
         23    2    1    2    0    0  0.20940264067E+02 -0.16676703578E+01  0.12826863249E+02  0.95042191229E+02  0.91799857893E+02 0.  0.
         13    1    3    3    0    0 -0.19903917091E+02  0.24302408832E+02 -0.19374920970E+02  0.36907459317E+02  0.00000000000E+00 0.  1.
        -13    1    3    3    0    0  0.40844181158E+02 -0.25970079190E+02  0.32201784219E+02  0.58134731912E+02  0.00000000000E+00 0. -1.
         22    1    1    2    0    0 -0.20940264067E+02  0.16676703578E+01  0.16664085250E+01  0.21072558008E+02  0.00000000000E+00 0. -1.
<mgrwt>
<rscale>  0 0.64719088E+02</rscale>
<asrwt>0</asrwt>
<pdfrwt beam="1">  1        2 0.10046771E-01 0.94172659E+02</pdfrwt>
<pdfrwt beam="2">  1       -2 0.78170367E-02 0.94172659E+02</pdfrwt>
<totfact> 0.53943446E+04</totfact>
</mgrwt>
</event>
<event>
 6    1  0.1661841E-002  0.9315214E+02  0.7546771E-02  0.1380944E+00
          4   -1    0    0  501    0  0.00000000000E+00  0.00000000000E+00  0.32186425386E+02  0.32186425386E+02  0.00000000000E+00 0. -1.
         -4   -1    0    0    0  501 -0.00000000000E+00 -0.00000000000E+00 -0.31229243259E+03  0.31229243259E+03  0.00000000000E+00 0.  1.
         23    2    1    2    0    0  0.60442393256E+01  0.20151087245E+02 -0.30084543467E+03  0.31493697250E+03  0.90745368683E+02 0.  0.
         11    1    3    3    0    0 -0.27506397167E+01 -0.58835032450E+01 -0.28091572227E+03  0.28099079104E+03  0.00000000000E+00 0.  1.
        -11    1    3    3    0    0  0.87948790423E+01  0.26034590490E+02 -0.19929712400E+02  0.33946181459E+02  0.00000000000E+00 0. -1.
         22    1    1    2    0    0 -0.60442393256E+01 -0.20151087245E+02  0.20739427465E+02  0.29541885480E+02  0.00000000000E+00 0. -1.
<mgrwt>
<rscale>  0 0.64216399E+02</rscale>
<asrwt>0</asrwt>
<pdfrwt beam="1">  1        4 0.49517576E-02 0.93152139E+02</pdfrwt>
<pdfrwt beam="2">  1       -4 0.48044991E-01 0.93152139E+02</pdfrwt>
<totfact> 0.15379730E+03</totfact>
</mgrwt>
</event>
<event>
 6    1  0.1661841E-002  0.9703185E+02  0.7546771E-02  0.1340342E+00
         -2   -1    0    0    0  501 -0.00000000000E+00  0.00000000000E+00  0.44201613645E+02  0.44201613645E+02  0.00000000000E+00 0.  1.
          2   -1    0    0  501    0  0.00000000000E+00 -0.00000000000E+00 -0.11035742806E+03  0.11035742806E+03  0.00000000000E+00 0. -1.
         23    2    1    2    0    0  0.19470933817E+02  0.31238939288E+02 -0.26785793277E+02  0.10066110894E+03  0.89778569495E+02 0.  0.
         11    1    3    3    0    0  0.54265057339E+01  0.44602626060E+02 -0.52085583584E+02  0.68787711353E+02  0.00000000000E+00 0. -1.
        -11    1    3    3    0    0  0.14044428083E+02 -0.13363686772E+02  0.25299790307E+02  0.31873397590E+02  0.00000000000E+00 0.  1.
         22    1    1    2    0    0 -0.19470933817E+02 -0.31238939288E+02 -0.39370021134E+02  0.53897932758E+02  0.00000000000E+00 0. -1.
<mgrwt>
<rscale>  0 0.76151365E+02</rscale>
<asrwt>0</asrwt>
<pdfrwt beam="1">  1        2 0.16978065E-01 0.97031851E+02</pdfrwt>
<pdfrwt beam="2">  1       -2 0.68002484E-02 0.97031851E+02</pdfrwt>
<totfact> 0.36089472E+04</totfact>
</mgrwt>
</event>
<event>
 6    1  0.1661841E-002  0.9779899E+02  0.7546771E-02  0.1376997E+00
          1   -1    0    0  501    0  0.00000000000E+00  0.00000000000E+00  0.71159564217E+02  0.71159564217E+02  0.00000000000E+00 0. -1.
         -1   -1    0    0    0  501 -0.00000000000E+00 -0.00000000000E+00 -0.10763373155E+03  0.10763373155E+03  0.00000000000E+00 0.  1.
         23    2    1    2    0    0 -0.40314675819E+01  0.18966420404E+02 -0.83074421758E+02  0.12831992113E+03  0.95857523312E+02 0.  0.
         11    1    3    3    0    0  0.17628423948E+01  0.29315283180E+02 -0.10191216597E+03  0.10605933723E+03  0.00000000000E+00 0.  1.
        -11    1    3    3    0    0 -0.57943099768E+01 -0.10348862776E+02  0.18837744210E+02  0.22260583904E+02  0.00000000000E+00 0. -1.
         22    1    1    2    0    0  0.40314675819E+01 -0.18966420404E+02  0.46600254428E+02  0.50473374631E+02  0.00000000000E+00 0. -1.
<mgrwt>
<rscale>  0 0.65259848E+02</rscale>
<asrwt>0</asrwt>
<pdfrwt beam="1">  1        1 0.10947625E-01 0.97798991E+02</pdfrwt>
<pdfrwt beam="2">  1       -1 0.16559036E-01 0.97798991E+02</pdfrwt>
<totfact> 0.14044896E+04</totfact>
</mgrwt>
</event>
<event>
 6    1  0.1661841E-002  0.9197147E+02  0.7546771E-02  0.1416546E+00
         -2   -1    0    0    0  501 -0.00000000000E+00  0.00000000000E+00  0.29607899624E+03  0.29607899624E+03  0.00000000000E+00 0.  1.
          2   -1    0    0  501    0  0.00000000000E+00 -0.00000000000E+00 -0.17851166618E+02  0.17851166618E+02  0.00000000000E+00 0. -1.
         23    2    1    2    0    0 -0.80781508773E+01  0.94401193873E+01  0.28521396958E+03  0.29967609231E+03  0.91128368142E+02 0.  0.
         13    1    3    3    0    0  0.30961346763E+02 -0.18498279527E+02  0.18591926320E+03  0.18938522585E+03  0.00000000000E+00 0.  1.
        -13    1    3    3    0    0 -0.39039497640E+02  0.27938398915E+02  0.99294706382E+02  0.11029086646E+03  0.00000000000E+00 0. -1.
         22    1    1    2    0    0  0.80781508773E+01 -0.94401193873E+01 -0.69861399615E+01  0.14254070549E+02  0.00000000000E+00 0.  1.
<mgrwt>
<rscale>  0 0.55758497E+02</rscale>
<asrwt>0</asrwt>
<pdfrwt beam="1">  1        2 0.27463335E-02 0.91971473E+02</pdfrwt>
<pdfrwt beam="2">  1       -2 0.45550611E-01 0.91971473E+02</pdfrwt>
<totfact> 0.14546719E+04</totfact>
</mgrwt>
</event>
<event>
 6    1  0.1661841E-002  0.9463610E+02  0.7546771E-02  0.1373709E+00
         -2   -1    0    0    0  501 -0.00000000000E+00  0.00000000000E+00  0.42208753641E+01  0.42208753641E+01  0.00000000000E+00 0.  1.
          2   -1    0    0  501    0  0.00000000000E+00 -0.00000000000E+00 -0.82748661333E+03  0.82748661333E+03  0.00000000000E+00 0. -1.
         23    2    1    2    0    0  0.22569529113E+02 -0.89585977973E+00 -0.70273372605E+03  0.70907734515E+03  0.91901063475E+02 0.  0.
         13    1    3    3    0    0  0.11146957913E+02 -0.21273639450E+02 -0.65948913890E+03  0.65992631917E+03  0.00000000000E+00 0. -1.
        -13    1    3    3    0    0  0.11422571200E+02  0.20377779670E+02 -0.43244587148E+02  0.49151025978E+02  0.00000000000E+00 0.  1.
         22    1    1    2    0    0 -0.22569529113E+02  0.89585977973E+00 -0.12053201191E+03  0.12263014354E+03  0.00000000000E+00 0. -1.
<mgrwt>
<rscale>  0 0.66146782E+02</rscale>
<asrwt>0</asrwt>
<pdfrwt beam="1">  1        2 0.12730555E+00 0.94636101E+02</pdfrwt>
<pdfrwt beam="2">  1       -2 0.64936585E-03 0.94636101E+02</pdfrwt>
<totfact> 0.11902809E+05</totfact>
</mgrwt>
</event>
<event>
 6    1  0.1661841E-002  0.9545110E+02  0.7546771E-02  0.1345648E+00
          1   -1    0    0  501    0  0.00000000000E+00  0.00000000000E+00  0.17724164517E+02  0.17724164517E+02  0.00000000000E+00 0. -1.
         -1   -1    0    0    0  501 -0.00000000000E+00 -0.00000000000E+00 -0.73203255011E+03  0.73203255011E+03  0.00000000000E+00 0.  1.
         23    2    1    2    0    0  0.26409851330E+02 -0.23404547837E+02 -0.70738501144E+03  0.71379581619E+03  0.88688554469E+02 0.  0.
         11    1    3    3    0    0 -0.14531517052E+02 -0.13953880962E+02 -0.37285392278E+02  0.42380139913E+02  0.00000000000E+00 0. -1.
        -11    1    3    3    0    0  0.40941368381E+02 -0.94506668748E+01 -0.67009961916E+03  0.67141567628E+03  0.00000000000E+00 0.  1.
         22    1    1    2    0    0 -0.26409851330E+02  0.23404547837E+02 -0.69233741533E+01  0.35960898437E+02  0.00000000000E+00 0. -1.
<mgrwt>
<rscale>  0 0.74429125E+02</rscale>
<asrwt>0</asrwt>
<pdfrwt beam="1">  1        1 0.27267949E-02 0.95451102E+02</pdfrwt>
<pdfrwt beam="2">  1       -1 0.11262038E+00 0.95451102E+02</pdfrwt>
<totfact> 0.28241101E+03</totfact>
</mgrwt>
</event>
<event>
 6    1  0.1661841E-002  0.1041131E+03  0.7546771E-02  0.1376285E+00
          1   -1    0    0  501    0  0.00000000000E+00  0.00000000000E+00  0.95478219643E+02  0.95478219643E+02  0.00000000000E+00 0. -1.
         -1   -1    0    0    0  501 -0.00000000000E+00 -0.00000000000E+00 -0.38703454225E+02  0.38703454225E+02  0.00000000000E+00 0.  1.
         23    2    1    2    0    0  0.18525879823E+01 -0.16154746507E+02  0.55209764048E+02  0.11784591107E+03  0.10283546466E+03 0.  0.
         13    1    3    3    0    0 -0.45770062225E+02 -0.10262175448E+02  0.51586364766E+02  0.69723481488E+02  0.00000000000E+00 0. -1.
        -13    1    3    3    0    0  0.47622650207E+02 -0.58925710587E+01  0.36233992820E+01  0.48122429581E+02  0.00000000000E+00 0.  1.
         22    1    1    2    0    0 -0.18525879823E+01  0.16154746507E+02  0.15650013708E+01  0.16335762799E+02  0.00000000000E+00 0. -1.
<mgrwt>
<rscale>  0 0.65450563E+02</rscale>
<asrwt>0</asrwt>
<pdfrwt beam="1">  1        1 0.14688957E-01 0.10411311E+03</pdfrwt>
<pdfrwt beam="2">  1       -1 0.59543776E-02 0.10411311E+03</pdfrwt>
<totfact> 0.45582868E+04</totfact>
</mgrwt>
</event>
<event>
 6    1  0.1661841E-002  0.9190460E+02  0.7546771E-02  0.1410897E+00
         -3   -1    0    0    0  501 -0.00000000000E+00  0.00000000000E+00  0.80300931614E+02  0.80300931614E+02  0.00000000000E+00 0.  1.
          3   -1    0    0  501    0  0.00000000000E+00 -0.00000000000E+00 -0.35179516833E+02  0.35179516833E+02  0.00000000000E+00 0. -1.
         23    2    1    2    0    0  0.13443821698E+02 -0.20077078934E+01  0.34265619930E+02  0.98084600820E+02  0.90893833542E+02 0.  0.
         13    1    3    3    0    0 -0.20446381766E+02 -0.18209439432E+02  0.50278576772E+02  0.57250096017E+02  0.00000000000E+00 0.  1.
        -13    1    3    3    0    0  0.33890203463E+02  0.16201731539E+02 -0.16012956842E+02  0.40834504802E+02  0.00000000000E+00 0. -1.
         22    1    1    2    0    0 -0.13443821698E+02  0.20077078934E+01  0.10855794851E+02  0.17395847627E+02  0.00000000000E+00 0. -1.
<mgrwt>
<rscale>  0 0.56994254E+02</rscale>
<asrwt>0</asrwt>
<pdfrwt beam="1">  1        3 0.54122334E-02 0.91904604E+02</pdfrwt>
<pdfrwt beam="2">  1       -3 0.12353989E-01 0.91904604E+02</pdfrwt>
<totfact> 0.21231577E+04</totfact>
</mgrwt>
</event>
<event>
 6    1  0.1661841E-002  0.9290649E+02  0.7546771E-02  0.1427906E+00
          2   -1    0    0  501    0  0.00000000000E+00  0.00000000000E+00  0.12823275216E+03  0.12823275216E+03  0.00000000000E+00 0. -1.
         -2   -1    0    0    0  501 -0.00000000000E+00 -0.00000000000E+00 -0.21491332547E+02  0.21491332547E+02  0.00000000000E+00 0.  1.
         23    2    1    2    0    0 -0.74974947802E+01  0.68070102361E+01  0.85807762214E+02  0.12646971246E+03  0.92352955004E+02 0.  0.
         11    1    3    3    0    0  0.81811351336E+01  0.35926095515E+02  0.85822862200E+02  0.93397960295E+02  0.00000000000E+00 0. -1.
        -11    1    3    3    0    0 -0.15678629914E+02 -0.29119085279E+02 -0.15099985971E-01  0.33071752168E+02  0.00000000000E+00 0.  1.
         22    1    1    2    0    0  0.74974947802E+01 -0.68070102361E+01  0.20933657402E+02  0.23254372246E+02  0.00000000000E+00 0.  1.
<mgrwt>
<rscale>  0 0.53382677E+02</rscale>
<asrwt>0</asrwt>
<pdfrwt beam="1">  1        2 0.19728115E-01 0.92906491E+02</pdfrwt>
<pdfrwt beam="2">  1       -2 0.33063589E-02 0.92906491E+02</pdfrwt>
<totfact> 0.88323675E+04</totfact>
</mgrwt>
</event>
<event>
 6    1  0.1661841E-002  0.9094679E+02  0.7546771E-02  0.1405505E+00
         -1   -1    0    0    0  501 -0.00000000000E+00  0.00000000000E+00  0.88764881054E+02  0.88764881054E+02  0.00000000000E+00 0.  1.
          1   -1    0    0  501    0  0.00000000000E+00 -0.00000000000E+00 -0.32135560838E+02  0.32135560838E+02  0.00000000000E+00 0. -1.
         23    2    1    2    0    0  0.10323530767E+02 -0.11240140226E+02  0.43712309500E+02  0.10090631261E+03  0.89657135151E+02 0.  0.
         11    1    3    3    0    0  0.11334432837E+02 -0.20448792840E+02 -0.23446636183E+02  0.33111436765E+02  0.00000000000E+00 0. -1.
        -11    1    3    3    0    0 -0.10109020707E+01  0.92086526140E+01  0.67158945683E+02  0.67794875848E+02  0.00000000000E+00 0.  1.
         22    1    1    2    0    0 -0.10323530767E+02  0.11240140226E+02  0.12917010716E+02  0.19994129279E+02  0.00000000000E+00 0.  1.
<mgrwt>
<rscale>  0 0.58209041E+02</rscale>
<asrwt>0</asrwt>
<pdfrwt beam="1">  1        1 0.49439325E-02 0.90946786E+02</pdfrwt>
<pdfrwt beam="2">  1       -1 0.13656135E-01 0.90946786E+02</pdfrwt>
<totfact> 0.54071939E+04</totfact>
</mgrwt>
</event>
<event>
 6    1  0.1661841E-002  0.9188365E+02  0.7546771E-02  0.1428354E+00
         -1   -1    0    0    0  501 -0.00000000000E+00  0.00000000000E+00  0.42995270642E+02  0.42995270642E+02  0.00000000000E+00 0.  1.
          1   -1    0    0  501    0  0.00000000000E+00 -0.00000000000E+00 -0.60872734606E+02  0.60872734606E+02  0.00000000000E+00 0. -1.
         23    2    1    2    0    0 -0.10397333187E+02  0.44132122704E-01 -0.15212109664E+02  0.93134385234E+02  0.91293477026E+02 0.  0.
         11    1    3    3    0    0  0.11827440753E+02 -0.22478062947E+02 -0.43708179152E+02  0.50552513226E+02  0.00000000000E+00 0. -1.
        -11    1    3    3    0    0 -0.22224773940E+02  0.22522195070E+02  0.28496069489E+02  0.42581872009E+02  0.00000000000E+00 0.  1.
         22    1    1    2    0    0  0.10397333187E+02 -0.44132122704E-01 -0.26653543001E+01  0.10733620013E+02  0.00000000000E+00 0. -1.
<mgrwt>
<rscale>  0 0.53291771E+02</rscale>
<asrwt>0</asrwt>
<pdfrwt beam="1">  1        1 0.93650361E-02 0.91883652E+02</pdfrwt>
<pdfrwt beam="2">  1       -1 0.66146570E-02 0.91883652E+02</pdfrwt>
<totfact> 0.68854004E+04</totfact>
</mgrwt>
</event>
<event>
 6    1  0.1661841E-002  0.9082771E+02  0.7546771E-02  0.1421033E+00
         -4   -1    0    0    0  501 -0.00000000000E+00  0.00000000000E+00  0.60316377431E+02  0.60316377431E+02  0.00000000000E+00 0.  1.
          4   -1    0    0  501    0  0.00000000000E+00 -0.00000000000E+00 -0.45724482853E+02  0.45724482853E+02  0.00000000000E+00 0. -1.
         23    2    1    2    0    0  0.84574649717E+01  0.85666847233E+01  0.19740116316E+02  0.92948076472E+02  0.90026417938E+02 0.  0.
         13    1    3    3    0    0 -0.36437536561E+02 -0.67907053748E+01 -0.80929665312E+01  0.37938158329E+02  0.00000000000E+00 0. -1.
        -13    1    3    3    0    0  0.44895001533E+02  0.15357390098E+02  0.27833082847E+02  0.55009918143E+02  0.00000000000E+00 0.  1.
         22    1    1    2    0    0 -0.84574649717E+01 -0.85666847233E+01 -0.51482217380E+01  0.13092783812E+02  0.00000000000E+00 0.  1.
<mgrwt>
<rscale>  0 0.54802909E+02</rscale>
<asrwt>0</asrwt>
<pdfrwt beam="1">  1        4 0.70345358E-02 0.90827709E+02</pdfrwt>
<pdfrwt beam="2">  1       -4 0.92794427E-02 0.90827709E+02</pdfrwt>
<totfact> 0.16950949E+04</totfact>
</mgrwt>
</event>
<event>
 6    1  0.1661841E-002  0.8947747E+02  0.7546771E-02  0.1427992E+00
          1   -1    0    0  501    0  0.00000000000E+00  0.00000000000E+00  0.15113482794E+03  0.15113482794E+03  0.00000000000E+00 0. -1.
         -1   -1    0    0    0  501 -0.00000000000E+00 -0.00000000000E+00 -0.17805618814E+02  0.17805618814E+02  0.00000000000E+00 0.  1.
         23    2    1    2    0    0  0.10462216672E+02 -0.43257183129E+01  0.10229727246E+03  0.13590787329E+03  0.88758370041E+02 0.  0.
         11    1    3    3    0    0 -0.28295039537E+02  0.23489562053E+02  0.67473478068E+02  0.76844251773E+02  0.00000000000E+00 0. -1.
        -11    1    3    3    0    0  0.38757256209E+02 -0.27815280366E+02  0.34823794394E+02  0.59063621517E+02  0.00000000000E+00 0.  1.
         22    1    1    2    0    0 -0.10462216672E+02  0.43257183129E+01  0.31031936663E+02  0.33032573465E+02  0.00000000000E+00 0.  1.
<mgrwt>
<rscale>  0 0.53365244E+02</rscale>
<asrwt>0</asrwt>
<pdfrwt beam="1">  1        1 0.23251511E-01 0.89477472E+02</pdfrwt>
<pdfrwt beam="2">  1       -1 0.27393261E-02 0.89477472E+02</pdfrwt>
<totfact> 0.77325535E+04</totfact>
</mgrwt>
</event>
<event>
 6    1  0.1661841E-002  0.9180954E+02  0.7546771E-02  0.1404965E+00
         -2   -1    0    0    0  501 -0.00000000000E+00  0.00000000000E+00  0.62261661361E+03  0.62261661361E+03  0.00000000000E+00 0.  1.
          2   -1    0    0  501    0  0.00000000000E+00 -0.00000000000E+00 -0.59441345708E+01  0.59441345708E+01  0.00000000000E+00 0. -1.
         23    2    1    2    0    0  0.14474533038E+02 -0.37876237218E+01  0.59606768599E+03  0.60309674031E+03  0.90582193031E+02 0.  0.
         11    1    3    3    0    0  0.18377892801E+01  0.41297429460E+02  0.36495458772E+03  0.36728831488E+03  0.00000000000E+00 0. -1.
        -11    1    3    3    0    0  0.12636743757E+02 -0.45085053182E+02  0.23111309827E+03  0.23580842543E+03  0.00000000000E+00 0.  1.
         22    1    1    2    0    0 -0.14474533038E+02  0.37876237218E+01  0.20604793050E+02  0.25464007869E+02  0.00000000000E+00 0. -1.
<mgrwt>
<rscale>  0 0.58332755E+02</rscale>
<asrwt>0</asrwt>
<pdfrwt beam="1">  1        2 0.91448274E-03 0.91809541E+02</pdfrwt>
<pdfrwt beam="2">  1       -2 0.95787120E-01 0.91809541E+02</pdfrwt>
<totfact> 0.13706924E+04</totfact>
</mgrwt>
</event>
<event>
 6    1  0.1661841E-002  0.9338570E+02  0.7546771E-02  0.1373418E+00
          3   -1    0    0  501    0  0.00000000000E+00  0.00000000000E+00  0.58623399278E+03  0.58623399278E+03  0.00000000000E+00 0. -1.
         -3   -1    0    0    0  501 -0.00000000000E+00 -0.00000000000E+00 -0.60243723730E+01  0.60243723730E+01  0.00000000000E+00 0.  1.
         23    2    1    2    0    0  0.23350765925E+02 -0.35551745060E+01  0.49987984259E+03  0.50852801976E+03  0.90349279581E+02 0.  0.
         13    1    3    3    0    0 -0.29623755111E+01  0.31531167188E+02  0.75297769669E+02  0.81686867305E+02  0.00000000000E+00 0.  1.
        -13    1    3    3    0    0  0.26313141436E+02 -0.35086341694E+02  0.42458207292E+03  0.42684115246E+03  0.00000000000E+00 0. -1.
         22    1    1    2    0    0 -0.23350765925E+02  0.35551745060E+01  0.80329777815E+02  0.83730345388E+02  0.00000000000E+00 0.  1.
<mgrwt>
<rscale>  0 0.66226165E+02</rscale>
<asrwt>0</asrwt>
<pdfrwt beam="1">  1        3 0.90189799E-01 0.93385705E+02</pdfrwt>
<pdfrwt beam="2">  1       -3 0.92682699E-03 0.93385705E+02</pdfrwt>
<totfact> 0.73511231E+03</totfact>
</mgrwt>
</event>
<event>
 6    1  0.1661841E-002  0.1106977E+03  0.7546771E-02  0.1286389E+00
         -4   -1    0    0    0  501 -0.00000000000E+00  0.00000000000E+00  0.23868410938E+02  0.23868410938E+02  0.00000000000E+00 0.  1.
          4   -1    0    0  501    0  0.00000000000E+00 -0.00000000000E+00 -0.32587353349E+03  0.32587353349E+03  0.00000000000E+00 0. -1.
         23    2    1    2    0    0  0.33646971981E+02  0.56417132126E+02 -0.18991007528E+03  0.21981769286E+03  0.89100897210E+02 0.  0.
         11    1    3    3    0    0 -0.21397423953E+02  0.30821109338E+02 -0.27749436387E+02  0.46667137822E+02  0.00000000000E+00 0.  1.
        -11    1    3    3    0    0  0.55044395934E+02  0.25596022787E+02 -0.16216063889E+03  0.17315055504E+03  0.00000000000E+00 0. -1.
         22    1    1    2    0    0 -0.33646971981E+02 -0.56417132126E+02 -0.11209504728E+03  0.12992425156E+03  0.00000000000E+00 0. -1.
<mgrwt>
<rscale>  0 0.97157583E+02</rscale>
<asrwt>0</asrwt>
<pdfrwt beam="1">  1        4 0.50134387E-01 0.11069770E+03</pdfrwt>
<pdfrwt beam="2">  1       -4 0.36720634E-02 0.11069770E+03</pdfrwt>
<totfact> 0.23663495E+03</totfact>
</mgrwt>
</event>
<event>
 6    1  0.1661841E-002  0.1092899E+03  0.7546771E-02  0.1293318E+00
          2   -1    0    0  501    0  0.00000000000E+00  0.00000000000E+00  0.46812772612E+02  0.46812772612E+02  0.00000000000E+00 0. -1.
         -2   -1    0    0    0  501 -0.00000000000E+00 -0.00000000000E+00 -0.16497415661E+03  0.16497415661E+03  0.00000000000E+00 0.  1.
         23    2    1    2    0    0  0.73599736547E+01  0.59497175483E+02 -0.10247526568E+03  0.14981808697E+03  0.91379406887E+02 0.  0.
         13    1    3    3    0    0  0.16495172095E+02  0.54359200754E+02 -0.11807208287E+03  0.13102682993E+03  0.00000000000E+00 0.  1.
        -13    1    3    3    0    0 -0.91351984406E+01  0.51379747294E+01  0.15596817182E+02  0.18791257038E+02  0.00000000000E+00 0. -1.
         22    1    1    2    0    0 -0.73599736547E+01 -0.59497175483E+02 -0.15686118316E+02  0.61968842256E+02  0.00000000000E+00 0. -1.
<mgrwt>
<rscale>  0 0.94055348E+02</rscale>
<asrwt>0</asrwt>
<pdfrwt beam="1">  1        2 0.72019652E-02 0.10928989E+03</pdfrwt>
<pdfrwt beam="2">  1       -2 0.25380639E-01 0.10928989E+03</pdfrwt>
<totfact> 0.12315134E+04</totfact>
</mgrwt>
</event>
<event>
 6    1  0.1661841E-002  0.8990708E+02  0.7546771E-02  0.1434759E+00
          2   -1    0    0  501    0  0.00000000000E+00  0.00000000000E+00  0.17156489013E+02  0.17156489013E+02  0.00000000000E+00 0. -1.
         -2   -1    0    0    0  501 -0.00000000000E+00 -0.00000000000E+00 -0.16250854684E+03  0.16250854684E+03  0.00000000000E+00 0.  1.
         23    2    1    2    0    0 -0.21935763366E+01  0.98318791873E+01 -0.14362499436E+03  0.16944445007E+03  0.89340948227E+02 0.  0.
         13    1    3    3    0    0 -0.30357120986E+02 -0.11714516886E+02 -0.12544305496E+03  0.12959453977E+03  0.00000000000E+00 0.  1.
        -13    1    3    3    0    0  0.28163544650E+02  0.21546396073E+02 -0.18181939404E+02  0.39849910307E+02  0.00000000000E+00 0. -1.
         22    1    1    2    0    0  0.21935763366E+01 -0.98318791873E+01 -0.17270634684E+01  0.10220585782E+02  0.00000000000E+00 0.  1.
<mgrwt>
<rscale>  0 0.52016569E+02</rscale>
<asrwt>0</asrwt>
<pdfrwt beam="1">  1        2 0.26394599E-02 0.89907078E+02</pdfrwt>
<pdfrwt beam="2">  1       -2 0.25001315E-01 0.89907078E+02</pdfrwt>
<totfact> 0.45606713E+04</totfact>
</mgrwt>
</event>
<event>
 6    1  0.1661841E-002  0.9228609E+02  0.7546771E-02  0.1421608E+00
          2   -1    0    0  501    0  0.00000000000E+00  0.00000000000E+00  0.74497552739E+02  0.74497552739E+02  0.00000000000E+00 0.  1.
         -2   -1    0    0    0  501 -0.00000000000E+00 -0.00000000000E+00 -0.36066736742E+02  0.36066736742E+02  0.00000000000E+00 0. -1.
         23    2    1    2    0    0  0.11173134173E+02 -0.21362343658E+01  0.33763132749E+02  0.98268367742E+02  0.91582315658E+02 0.  0.
         11    1    3    3    0    0  0.33694092129E+02 -0.18752980130E+02  0.52093090474E+02  0.64812469350E+02  0.00000000000E+00 0.  1.
        -11    1    3    3    0    0 -0.22520957957E+02  0.16616745764E+02 -0.18329957724E+02  0.33455898392E+02  0.00000000000E+00 0. -1.
         22    1    1    2    0    0 -0.11173134173E+02  0.21362343658E+01  0.46676832478E+01  0.12295921739E+02  0.00000000000E+00 0.  1.
<mgrwt>
<rscale>  0 0.54682076E+02</rscale>
<asrwt>0</asrwt>
<pdfrwt beam="1">  1        2 0.11461162E-01 0.92286093E+02</pdfrwt>
<pdfrwt beam="2">  1       -2 0.55487287E-02 0.92286093E+02</pdfrwt>
<totfact> 0.77022222E+04</totfact>
</mgrwt>
</event>
<event>
 6    1  0.1661841E-002  0.8619363E+02  0.7546771E-02  0.1367615E+00
         -2   -1    0    0    0  501 -0.00000000000E+00  0.00000000000E+00  0.32643212655E+02  0.32643212655E+02  0.00000000000E+00 0.  1.
          2   -1    0    0  501    0  0.00000000000E+00 -0.00000000000E+00 -0.12071299339E+03  0.12071299339E+03  0.00000000000E+00 0. -1.
         23    2    1    2    0    0 -0.14028032149E+02 -0.29942833709E+02 -0.83445003858E+02  0.11996837087E+03  0.79598884181E+02 0.  0.
         11    1    3    3    0    0 -0.34736386102E+02  0.53042101101E+00 -0.74279048181E+02  0.82001675986E+02  0.00000000000E+00 0. -1.
        -11    1    3    3    0    0  0.20708353952E+02 -0.30473254720E+02 -0.91659556773E+01  0.37966694880E+02  0.00000000000E+00 0.  1.
         22    1    1    2    0    0  0.14028032149E+02  0.29942833709E+02 -0.46247768727E+01  0.33387835174E+02  0.00000000000E+00 0.  1.
<mgrwt>
<rscale>  0 0.67834670E+02</rscale>
<asrwt>0</asrwt>
<pdfrwt beam="1">  1        2 0.18571230E-01 0.86193627E+02</pdfrwt>
<pdfrwt beam="2">  1       -2 0.50220327E-02 0.86193627E+02</pdfrwt>
<totfact> 0.50549600E+04</totfact>
</mgrwt>
</event>
<event>
 6    1  0.1661841E-002  0.9292766E+02  0.7546771E-02  0.1424875E+00
         -2   -1    0    0    0  501 -0.00000000000E+00  0.00000000000E+00  0.14357040885E+02  0.14357040885E+02  0.00000000000E+00 0.  1.
          2   -1    0    0  501    0  0.00000000000E+00 -0.00000000000E+00 -0.19662771739E+03  0.19662771739E+03  0.00000000000E+00 0. -1.
         23    2    1    2    0    0  0.67569572557E-01  0.10597876602E+02 -0.14488200538E+03  0.17212305112E+03  0.92321339308E+02 0.  0.
         13    1    3    3    0    0 -0.25388592734E+02 -0.16033490478E+02 -0.12822077529E+03  0.13168986550E+03  0.00000000000E+00 0. -1.
        -13    1    3    3    0    0  0.25456162307E+02  0.26631367081E+02 -0.16661230085E+02  0.40433185627E+02  0.00000000000E+00 0.  1.
         22    1    1    2    0    0 -0.67569572557E-01 -0.10597876602E+02 -0.37388671128E+02  0.38861707153E+02  0.00000000000E+00 0. -1.
<mgrwt>
<rscale>  0 0.54002723E+02</rscale>
<asrwt>0</asrwt>
<pdfrwt beam="1">  1        2 0.30250414E-01 0.92927656E+02</pdfrwt>
<pdfrwt beam="2">  1       -2 0.22087758E-02 0.92927656E+02</pdfrwt>
<totfact> 0.99359741E+04</totfact>
</mgrwt>
</event>
<event>
 6    1  0.1661841E-002  0.1071061E+03  0.7546771E-02  0.1301351E+00
          1   -1    0    0  501    0  0.00000000000E+00  0.00000000000E+00  0.81279347325E+02  0.81279347325E+02  0.00000000000E+00 0. -1.
         -1   -1    0    0    0  501 -0.00000000000E+00 -0.00000000000E+00 -0.10813738318E+03  0.10813738318E+03  0.00000000000E+00 0.  1.
         23    2    1    2    0    0 -0.52806757098E+02  0.14982194346E+02 -0.62463139412E+02  0.12398934218E+03  0.91971155514E+02 0.  0.
         13    1    3    3    0    0 -0.23407572937E+02 -0.36158339347E+01  0.22196859780E+02  0.32460580863E+02  0.00000000000E+00 0. -1.
        -13    1    3    3    0    0 -0.29399184161E+02  0.18598028280E+02 -0.84659999192E+02  0.91528761318E+02  0.00000000000E+00 0.  1.
         22    1    1    2    0    0  0.52806757098E+02 -0.14982194346E+02  0.35605103562E+02  0.65427388320E+02  0.00000000000E+00 0.  1.
<mgrwt>
<rscale>  0 0.90622461E+02</rscale>
<asrwt>0</asrwt>
<pdfrwt beam="1">  1        1 0.12504515E-01 0.10710608E+03</pdfrwt>
<pdfrwt beam="2">  1       -1 0.16636521E-01 0.10710608E+03</pdfrwt>
<totfact> 0.11830369E+04</totfact>
</mgrwt>
</event>
<event>
 6    1  0.1661841E-002  0.9156751E+02  0.7546771E-02  0.1431400E+00
         -2   -1    0    0    0  501 -0.00000000000E+00  0.00000000000E+00  0.41794385800E+02  0.41794385800E+02  0.00000000000E+00 0.  1.
          2   -1    0    0  501    0  0.00000000000E+00 -0.00000000000E+00 -0.70252690372E+02  0.70252690372E+02  0.00000000000E+00 0. -1.
         23    2    1    2    0    0  0.22892293472E+01  0.97666795308E+01 -0.11422485170E+02  0.92277206603E+02  0.91016378147E+02 0.  0.
         11    1    3    3    0    0 -0.38379610015E+02  0.35423165419E+01 -0.28290656263E+02  0.47811125308E+02  0.00000000000E+00 0. -1.
        -11    1    3    3    0    0  0.40668839362E+02  0.62243629889E+01  0.16868171093E+02  0.44466081295E+02  0.00000000000E+00 0.  1.
         22    1    1    2    0    0 -0.22892293472E+01 -0.97666795308E+01 -0.17035819403E+02  0.19769869569E+02  0.00000000000E+00 0. -1.
<mgrwt>
<rscale>  0 0.52680058E+02</rscale>
<asrwt>0</asrwt>
<pdfrwt beam="1">  1        2 0.10808106E-01 0.91567514E+02</pdfrwt>
<pdfrwt beam="2">  1       -2 0.64299056E-02 0.91567514E+02</pdfrwt>
<totfact> 0.66161543E+04</totfact>
</mgrwt>
</event>
<event>
 6    1  0.1661841E-002  0.9180252E+02  0.7546771E-02  0.1427569E+00
          2   -1    0    0  501    0  0.00000000000E+00  0.00000000000E+00  0.80590465131E+02  0.80590465131E+02  0.00000000000E+00 0. -1.
         -2   -1    0    0    0  501 -0.00000000000E+00 -0.00000000000E+00 -0.37593003334E+02  0.37593003334E+02  0.00000000000E+00 0.  1.
         23    2    1    2    0    0  0.88212138979E+01  0.57873953455E+01  0.21574533067E+02  0.94303568237E+02  0.91194269259E+02 0.  0.
         13    1    3    3    0    0 -0.12341786588E+02 -0.37261653630E+02  0.24455537589E+02  0.46247419887E+02  0.00000000000E+00 0.  1.
        -13    1    3    3    0    0  0.21163000486E+02  0.43049048975E+02 -0.28810045222E+01  0.48056148351E+02  0.00000000000E+00 0. -1.
         22    1    1    2    0    0 -0.88212138979E+01 -0.57873953455E+01  0.21422928730E+02  0.23879900228E+02  0.00000000000E+00 0.  1.
<mgrwt>
<rscale>  0 0.53451098E+02</rscale>
<asrwt>0</asrwt>
<pdfrwt beam="1">  1        2 0.12398533E-01 0.91802519E+02</pdfrwt>
<pdfrwt beam="2">  1       -2 0.57835390E-02 0.91802519E+02</pdfrwt>
<totfact> 0.65881975E+04</totfact>
</mgrwt>
</event>
<event>
 6    1  0.1661841E-002  0.1538098E+03  0.7546771E-02  0.1206078E+00
         -1   -1    0    0    0  501 -0.00000000000E+00  0.00000000000E+00  0.13303844704E+02  0.13303844704E+02  0.00000000000E+00 0.  1.
          1   -1    0    0  501    0  0.00000000000E+00 -0.00000000000E+00 -0.15497084757E+04  0.15497084757E+04  0.00000000000E+00 0. -1.
         23    2    1    2    0    0  0.87867981006E+02 -0.86448357018E+02 -0.10513014952E+04  0.10624934368E+04  0.91996569774E+02 0.  0.
         13    1    3    3    0    0  0.44845044967E+02 -0.64127950652E+02 -0.31412035677E+03  0.32372066763E+03  0.00000000000E+00 0. -1.
        -13    1    3    3    0    0  0.43022936039E+02 -0.22320406366E+02 -0.73718113841E+03  0.73877276912E+03  0.00000000000E+00 0.  1.
         22    1    1    2    0    0 -0.87867981006E+02  0.86448357018E+02 -0.48510313580E+03  0.50051888364E+03  0.00000000000E+00 0.  1.
<mgrwt>
<rscale>  0 0.14552831E+03</rscale>
<asrwt>0</asrwt>
<pdfrwt beam="1">  1        1 0.23841674E+00 0.15380985E+03</pdfrwt>
<pdfrwt beam="2">  1       -1 0.20467449E-02 0.15380985E+03</pdfrwt>
<totfact> 0.43497268E+03</totfact>
</mgrwt>
</event>
<event>
 6    1  0.1661841E-002  0.9107981E+02  0.7546771E-02  0.1422704E+00
          3   -1    0    0  501    0  0.00000000000E+00  0.00000000000E+00  0.46757952612E+02  0.46757952612E+02  0.00000000000E+00 0. -1.
         -3   -1    0    0    0  501 -0.00000000000E+00 -0.00000000000E+00 -0.61692720837E+02  0.61692720837E+02  0.00000000000E+00 0.  1.
         23    2    1    2    0    0  0.36422207354E+01 -0.11051706858E+02 -0.23427646328E+02  0.94044599216E+02  0.90333415926E+02 0.  0.
         13    1    3    3    0    0 -0.14892739685E+02  0.28376644279E+01 -0.53773384713E+02  0.55869696064E+02  0.00000000000E+00 0.  1.
        -13    1    3    3    0    0  0.18534960421E+02 -0.13889371286E+02  0.30345738386E+02  0.38174903152E+02  0.00000000000E+00 0. -1.
         22    1    1    2    0    0 -0.36422207354E+01  0.11051706858E+02  0.84928781022E+01  0.14406074233E+02  0.00000000000E+00 0.  1.
<mgrwt>
<rscale>  0 0.54452939E+02</rscale>
<asrwt>0</asrwt>
<pdfrwt beam="1">  1        3 0.71935312E-02 0.91079811E+02</pdfrwt>
<pdfrwt beam="2">  1       -3 0.94911878E-02 0.91079811E+02</pdfrwt>
<totfact> 0.20822348E+04</totfact>
</mgrwt>
</event>
<event>
 6    1  0.1661841E-002  0.9387861E+02  0.7546771E-02  0.1403541E+00
         -2   -1    0    0    0  501 -0.00000000000E+00  0.00000000000E+00  0.67441958522E+02  0.67441958522E+02  0.00000000000E+00 0.  1.
          2   -1    0    0  501    0  0.00000000000E+00 -0.00000000000E+00 -0.52103777232E+02  0.52103777232E+02  0.00000000000E+00 0. -1.
         23    2    1    2    0    0  0.10388858920E+01 -0.14273559238E+02  0.30487960408E+02  0.98705160317E+02  0.92781351392E+02 0.  0.
         13    1    3    3    0    0  0.23296265650E+02  0.33530873763E+02  0.17339598997E+02  0.44358732871E+02  0.00000000000E+00 0. -1.
        -13    1    3    3    0    0 -0.22257379758E+02 -0.47804433002E+02  0.13148361411E+02  0.54346427446E+02  0.00000000000E+00 0.  1.
         22    1    1    2    0    0 -0.10388858920E+01  0.14273559238E+02 -0.15149779118E+02  0.20840575437E+02  0.00000000000E+00 0. -1.
<mgrwt>
<rscale>  0 0.58660380E+02</rscale>
<asrwt>0</asrwt>
<pdfrwt beam="1">  1        2 0.80159657E-02 0.93878607E+02</pdfrwt>
<pdfrwt beam="2">  1       -2 0.10375686E-01 0.93878607E+02</pdfrwt>
<totfact> 0.45946514E+04</totfact>
</mgrwt>
</event>
<event>
 6    1  0.1661841E-002  0.9256537E+02  0.7546771E-02  0.1384551E+00
         -2   -1    0    0    0  501 -0.00000000000E+00  0.00000000000E+00  0.18123221103E+03  0.18123221103E+03  0.00000000000E+00 0.  1.
          2   -1    0    0  501    0  0.00000000000E+00 -0.00000000000E+00 -0.17582783928E+02  0.17582783928E+02  0.00000000000E+00 0. -1.
         23    2    1    2    0    0  0.48709283220E+01  0.19624752649E+02  0.13763008396E+03  0.16586255838E+03  0.90329903138E+02 0.  0.
         11    1    3    3    0    0 -0.32197434206E+02  0.20594189107E+02  0.21277118173E+02  0.43743698428E+02  0.00000000000E+00 0. -1.
        -11    1    3    3    0    0  0.37068362528E+02 -0.96943645737E+00  0.11635296579E+03  0.12211885995E+03  0.00000000000E+00 0.  1.
         22    1    1    2    0    0 -0.48709283220E+01 -0.19624752649E+02  0.26019343146E+02  0.32952436587E+02  0.00000000000E+00 0.  1.
<mgrwt>
<rscale>  0 0.63282383E+02</rscale>
<asrwt>0</asrwt>
<pdfrwt beam="1">  1        2 0.27050438E-02 0.92565373E+02</pdfrwt>
<pdfrwt beam="2">  1       -2 0.27881877E-01 0.92565373E+02</pdfrwt>
<totfact> 0.36642305E+04</totfact>
</mgrwt>
</event>
<event>
 6    1  0.1661841E-002  0.9220912E+02  0.7546771E-02  0.1411115E+00
          2   -1    0    0  501    0  0.00000000000E+00  0.00000000000E+00  0.29632291387E+03  0.29632291387E+03  0.00000000000E+00 0. -1.
         -2   -1    0    0    0  501 -0.00000000000E+00 -0.00000000000E+00 -0.98463098021E+01  0.98463098021E+01  0.00000000000E+00 0.  1.
         23    2    1    2    0    0 -0.94150057022E+01 -0.95532183413E+01  0.22339041948E+03  0.24167292146E+03  0.91228368061E+02 0.  0.
         11    1    3    3    0    0  0.43266239833E+01  0.35038579188E+02  0.15439807544E+03  0.15838304015E+03  0.00000000000E+00 0. -1.
        -11    1    3    3    0    0 -0.13741629686E+02 -0.44591797529E+02  0.68992344042E+02  0.83289881317E+02  0.00000000000E+00 0.  1.
         22    1    1    2    0    0  0.94150057022E+01  0.95532183413E+01  0.63086184587E+02  0.64496302210E+02  0.00000000000E+00 0.  1.
<mgrwt>
<rscale>  0 0.56945735E+02</rscale>
<asrwt>0</asrwt>
<pdfrwt beam="1">  1        2 0.45588134E-01 0.92209118E+02</pdfrwt>
<pdfrwt beam="2">  1       -2 0.15148171E-02 0.92209118E+02</pdfrwt>
<totfact> 0.11058262E+05</totfact>
</mgrwt>
</event>
<event>
 6    1  0.1661841E-002  0.9245507E+02  0.7546771E-02  0.1421677E+00
          2   -1    0    0  501    0  0.00000000000E+00  0.00000000000E+00  0.33298063487E+02  0.33298063487E+02  0.00000000000E+00 0. -1.
         -2   -1    0    0    0  501 -0.00000000000E+00 -0.00000000000E+00 -0.84226092082E+02  0.84226092082E+02  0.00000000000E+00 0.  1.
         23    2    1    2    0    0  0.89681733031E+01  0.68770183223E+01 -0.52163532222E+02  0.10615542729E+03  0.91761752035E+02 0.  0.
         11    1    3    3    0    0 -0.25619138724E+02 -0.65762134800E+01 -0.62301882977E+02  0.67683908540E+02  0.00000000000E+00 0.  1.
        -11    1    3    3    0    0  0.34587312027E+02  0.13453231802E+02  0.10138350755E+02  0.38471518754E+02  0.00000000000E+00 0. -1.
         22    1    1    2    0    0 -0.89681733031E+01 -0.68770183223E+01  0.12355036273E+01  0.11368728276E+02  0.00000000000E+00 0.  1.
<mgrwt>
<rscale>  0 0.54667734E+02</rscale>
<asrwt>0</asrwt>
<pdfrwt beam="1">  1        2 0.51227791E-02 0.92455074E+02</pdfrwt>
<pdfrwt beam="2">  1       -2 0.12957860E-01 0.92455074E+02</pdfrwt>
<totfact> 0.56915103E+04</totfact>
</mgrwt>
</event>
<event>
 6    1  0.1661841E-002  0.1055916E+03  0.7546771E-02  0.1307782E+00
         -1   -1    0    0    0  501 -0.00000000000E+00  0.00000000000E+00  0.39214239208E+03  0.39214239208E+03  0.00000000000E+00 0.  1.
          1   -1    0    0  501    0  0.00000000000E+00 -0.00000000000E+00 -0.17618349602E+02  0.17618349602E+02  0.00000000000E+00 0. -1.
         23    2    1    2    0    0  0.44374545863E+02  0.24985642335E+02  0.31043976719E+03  0.32790613287E+03  0.92499731260E+02 0.  0.
         11    1    3    3    0    0 -0.24176594447E+02  0.17585166053E+02  0.47902967413E+02  0.56466273749E+02  0.00000000000E+00 0. -1.
        -11    1    3    3    0    0  0.68551140310E+02  0.74004762823E+01  0.26253679977E+03  0.27143985913E+03  0.00000000000E+00 0.  1.
         22    1    1    2    0    0 -0.44374545863E+02 -0.24985642335E+02  0.64084275294E+02  0.81854608810E+02  0.00000000000E+00 0. -1.
<mgrwt>
<rscale>  0 0.87994455E+02</rscale>
<asrwt>0</asrwt>
<pdfrwt beam="1">  1        1 0.27105156E-02 0.10559159E+03</pdfrwt>
<pdfrwt beam="2">  1       -1 0.60329592E-01 0.10559159E+03</pdfrwt>
<totfact> 0.10392221E+04</totfact>
</mgrwt>
</event>
<event>
 6    1  0.1661841E-002  0.9168803E+02  0.7546771E-02  0.1426181E+00
         -1   -1    0    0    0  501 -0.00000000000E+00  0.00000000000E+00  0.63215155232E+01  0.63215155232E+01  0.00000000000E+00 0.  1.
          1   -1    0    0  501    0  0.00000000000E+00 -0.00000000000E+00 -0.41907735266E+03  0.41907735266E+03  0.00000000000E+00 0. -1.
         23    2    1    2    0    0  0.47307277337E+01  0.97265899209E+01 -0.37993398074E+03  0.39084079251E+03  0.91047839284E+02 0.  0.
         11    1    3    3    0    0  0.14521744396E+01  0.28610778128E+02 -0.34360607054E+02  0.44736302404E+02  0.00000000000E+00 0.  1.
        -11    1    3    3    0    0  0.32785532941E+01 -0.18884188207E+02 -0.34557337368E+03  0.34610449011E+03  0.00000000000E+00 0. -1.
         22    1    1    2    0    0 -0.47307277337E+01 -0.97265899209E+01 -0.32821856397E+02  0.34558075666E+02  0.00000000000E+00 0.  1.
<mgrwt>
<rscale>  0 0.53734274E+02</rscale>
<asrwt>0</asrwt>
<pdfrwt beam="1">  1        1 0.64473453E-01 0.91688033E+02</pdfrwt>
<pdfrwt beam="2">  1       -1 0.97254064E-03 0.91688033E+02</pdfrwt>
<totfact> 0.96645397E+04</totfact>
</mgrwt>
</event>
<event>
 6    1  0.1661841E-002  0.8767125E+02  0.7546771E-02  0.1381459E+00
          2   -1    0    0  501    0  0.00000000000E+00  0.00000000000E+00  0.19572377107E+02  0.19572377107E+02  0.00000000000E+00 0. -1.
         -2   -1    0    0    0  501 -0.00000000000E+00 -0.00000000000E+00 -0.18512551792E+03  0.18512551792E+03  0.00000000000E+00 0.  1.
         23    2    1    2    0    0 -0.17192271184E+02 -0.18184207701E+02 -0.15383946478E+03  0.17706729959E+03  0.84023854115E+02 0.  0.
         11    1    3    3    0    0 -0.50543420343E+02 -0.15281384174E+02 -0.78284604443E+02  0.94427947849E+02  0.00000000000E+00 0. -1.
        -11    1    3    3    0    0  0.33351149159E+02 -0.29028235268E+01 -0.75554860342E+02  0.82639351739E+02  0.00000000000E+00 0.  1.
         22    1    1    2    0    0  0.17192271184E+02  0.18184207701E+02 -0.11713676030E+02  0.27630595439E+02  0.00000000000E+00 0.  1.
<mgrwt>
<rscale>  0 0.64081911E+02</rscale>
<asrwt>0</asrwt>
<pdfrwt beam="1">  1        2 0.30111349E-02 0.87671248E+02</pdfrwt>
<pdfrwt beam="2">  1       -2 0.28480849E-01 0.87671248E+02</pdfrwt>
<totfact> 0.30370136E+04</totfact>
</mgrwt>
</event>
<event>
 6    1  0.1661841E-002  0.9294577E+02  0.7546771E-02  0.1396238E+00
         -2   -1    0    0    0  501 -0.00000000000E+00  0.00000000000E+00  0.27697279732E+02  0.27697279732E+02  0.00000000000E+00 0. -1.
          2   -1    0    0  501    0  0.00000000000E+00 -0.00000000000E+00 -0.11870539425E+03  0.11870539425E+03  0.00000000000E+00 0.  1.
         23    2    1    2    0    0  0.14905960645E+02 -0.72021918030E+01 -0.58225918124E+02  0.10967759223E+03  0.91459594718E+02 0.  0.
         11    1    3    3    0    0  0.20676390361E+02 -0.39964735112E+02 -0.61551586823E+02  0.76244940890E+02  0.00000000000E+00 0.  1.
        -11    1    3    3    0    0 -0.57704297164E+01  0.32762543309E+02  0.33256686991E+01  0.33432651338E+02  0.00000000000E+00 0. -1.
         22    1    1    2    0    0 -0.14905960645E+02  0.72021918030E+01 -0.32782196398E+02  0.36725081759E+02  0.00000000000E+00 0.  1.
<mgrwt>
<rscale>  0 0.60381346E+02</rscale>
<asrwt>0</asrwt>
<pdfrwt beam="1">  1        2 0.18262368E-01 0.92945773E+02</pdfrwt>
<pdfrwt beam="2">  1       -2 0.42611200E-02 0.92945773E+02</pdfrwt>
<totfact> 0.66396508E+04</totfact>
</mgrwt>
</event>
<event>
 6    1  0.1661841E-002  0.9446073E+02  0.7546771E-02  0.1356528E+00
          2   -1    0    0  501    0  0.00000000000E+00  0.00000000000E+00  0.22516679953E+02  0.22516679953E+02  0.00000000000E+00 0. -1.
         -2   -1    0    0    0  501 -0.00000000000E+00 -0.00000000000E+00 -0.17327549997E+03  0.17327549997E+03  0.00000000000E+00 0.  1.
         23    2    1    2    0    0  0.23638153002E+02  0.18875883661E+02 -0.10913628271E+03  0.14433834748E+03  0.89486139083E+02 0.  0.
         13    1    3    3    0    0  0.48961018871E+02  0.15766688703E+02 -0.26517718957E+02  0.57870193194E+02  0.00000000000E+00 0.  1.
        -13    1    3    3    0    0 -0.25322865869E+02  0.31091949583E+01 -0.82618563750E+02  0.86468154284E+02  0.00000000000E+00 0. -1.
         22    1    1    2    0    0 -0.23638153002E+02 -0.18875883661E+02 -0.41622537312E+02  0.51453832449E+02  0.00000000000E+00 0. -1.
<mgrwt>
<rscale>  0 0.71059109E+02</rscale>
<asrwt>0</asrwt>
<pdfrwt beam="1">  1        2 0.34641046E-02 0.94460734E+02</pdfrwt>
<pdfrwt beam="2">  1       -2 0.26657769E-01 0.94460734E+02</pdfrwt>
<totfact> 0.28627241E+04</totfact>
</mgrwt>
</event>
<event>
 6    1  0.1661841E-002  0.9273345E+02  0.7546771E-02  0.1418740E+00
         -2   -1    0    0    0  501 -0.00000000000E+00  0.00000000000E+00  0.10696526627E+02  0.10696526627E+02  0.00000000000E+00 0. -1.
          2   -1    0    0  501    0  0.00000000000E+00 -0.00000000000E+00 -0.25661540188E+03  0.25661540188E+03  0.00000000000E+00 0.  1.
         23    2    1    2    0    0  0.13436601721E+01 -0.11640059392E+02 -0.21097808803E+03  0.23045877373E+03  0.91990197060E+02 0.  0.
         11    1    3    3    0    0  0.13570504830E+02  0.98869943625E+01  0.12077002770E+01  0.16833591383E+02  0.00000000000E+00 0. -1.
        -11    1    3    3    0    0 -0.12226844658E+02 -0.21527053754E+02 -0.21218578831E+03  0.21362518235E+03  0.00000000000E+00 0.  1.
         22    1    1    2    0    0 -0.13436601721E+01  0.11640059392E+02 -0.34940787224E+02  0.36853154779E+02  0.00000000000E+00 0.  1.
<mgrwt>
<rscale>  0 0.55288487E+02</rscale>
<asrwt>0</asrwt>
<pdfrwt beam="1">  1        2 0.39479289E-01 0.92733450E+02</pdfrwt>
<pdfrwt beam="2">  1       -2 0.16456196E-02 0.92733450E+02</pdfrwt>
<totfact> 0.11430701E+05</totfact>
</mgrwt>
</event>
<event>
 6    1  0.1661841E-002  0.9311197E+02  0.7546771E-02  0.1384276E+00
         -1   -1    0    0    0  501 -0.00000000000E+00  0.00000000000E+00  0.59660425363E+02  0.59660425363E+02  0.00000000000E+00 0.  1.
          1   -1    0    0  501    0  0.00000000000E+00 -0.00000000000E+00 -0.91233266590E+02  0.91233266590E+02  0.00000000000E+00 0. -1.
         23    2    1    2    0    0  0.15473402505E+02 -0.12600804032E+02  0.20313763787E+02  0.95302089824E+02  0.90948517736E+02 0.  0.
         11    1    3    3    0    0  0.41648253669E+02 -0.37871383577E+02  0.16821359168E+02  0.58751824244E+02  0.00000000000E+00 0.  1.
        -11    1    3    3    0    0 -0.26174851164E+02  0.25270579545E+02  0.34924046193E+01  0.36550265581E+02  0.00000000000E+00 0. -1.
         22    1    1    2    0    0 -0.15473402505E+02  0.12600804032E+02 -0.51886605014E+02  0.55591602128E+02  0.00000000000E+00 0.  1.
<mgrwt>
<rscale>  0 0.63353072E+02</rscale>
<asrwt>0</asrwt>
<pdfrwt beam="1">  1        1 0.14035887E-01 0.93111972E+02</pdfrwt>
<pdfrwt beam="2">  1       -1 0.91785270E-02 0.93111972E+02</pdfrwt>
<totfact> 0.25005029E+04</totfact>
</mgrwt>
</event>
<event>
 6    1  0.1661841E-002  0.9169403E+02  0.7546771E-02  0.1427041E+00
         -2   -1    0    0    0  501 -0.00000000000E+00  0.00000000000E+00  0.46512326637E+03  0.46512326637E+03  0.00000000000E+00 0.  1.
          2   -1    0    0  501    0  0.00000000000E+00 -0.00000000000E+00 -0.61833863224E+01  0.61833863224E+01  0.00000000000E+00 0. -1.
         23    2    1    2    0    0  0.10522746017E+02 -0.17851648082E+01  0.44100114068E+03  0.45043290441E+03  0.91070743379E+02 0.  0.
         13    1    3    3    0    0 -0.13833209581E+01  0.34478665742E+02  0.76300507438E+02  0.83740428728E+02  0.00000000000E+00 0. -1.
        -13    1    3    3    0    0  0.11906066976E+02 -0.36263830550E+02  0.36470063324E+03  0.36669247568E+03  0.00000000000E+00 0.  1.
         22    1    1    2    0    0 -0.10522746017E+02  0.17851648082E+01  0.17938739367E+02  0.20873748279E+02  0.00000000000E+00 0. -1.
<mgrwt>
<rscale>  0 0.53558501E+02</rscale>
<asrwt>0</asrwt>
<pdfrwt beam="1">  1        2 0.95129057E-03 0.91694031E+02</pdfrwt>
<pdfrwt beam="2">  1       -2 0.71557398E-01 0.91694031E+02</pdfrwt>
<totfact> 0.24578711E+04</totfact>
</mgrwt>
</event>
<event>
 6    1  0.1661841E-002  0.9153822E+02  0.7546771E-02  0.1417773E+00
         -2   -1    0    0    0  501 -0.00000000000E+00  0.00000000000E+00  0.36616768557E+02  0.36616768557E+02  0.00000000000E+00 0.  1.
          2   -1    0    0  501    0  0.00000000000E+00 -0.00000000000E+00 -0.86037863078E+02  0.86037863078E+02  0.00000000000E+00 0. -1.
         23    2    1    2    0    0  0.11314746624E+02  0.49874657144E+01 -0.24383576721E+02  0.94730169187E+02  0.90699216287E+02 0.  0.
         13    1    3    3    0    0 -0.32998003586E+02  0.37518538604E+01 -0.35923463150E+02  0.48922794817E+02  0.00000000000E+00 0. -1.
        -13    1    3    3    0    0  0.44312750210E+02  0.12356118541E+01  0.11539886429E+02  0.45807374370E+02  0.00000000000E+00 0.  1.
         22    1    1    2    0    0 -0.11314746624E+02 -0.49874657144E+01 -0.25037517800E+02  0.27924462448E+02  0.00000000000E+00 0. -1.
<mgrwt>
<rscale>  0 0.55494787E+02</rscale>
<asrwt>0</asrwt>
<pdfrwt beam="1">  1        2 0.13236594E-01 0.91538222E+02</pdfrwt>
<pdfrwt beam="2">  1       -2 0.56333491E-02 0.91538222E+02</pdfrwt>
<totfact> 0.63416620E+04</totfact>
</mgrwt>
</event>
<event>
 6    1  0.1661841E-002  0.9025647E+02  0.7546771E-02  0.1423594E+00
         -2   -1    0    0    0  501 -0.00000000000E+00  0.00000000000E+00  0.20565355888E+02  0.20565355888E+02  0.00000000000E+00 0.  1.
          2   -1    0    0  501    0  0.00000000000E+00 -0.00000000000E+00 -0.13499477444E+03  0.13499477444E+03  0.00000000000E+00 0. -1.
         23    2    1    2    0    0  0.44697943413E+01  0.10916138412E+02 -0.85524364084E+02  0.12434085242E+03  0.89482342331E+02 0.  0.
         13    1    3    3    0    0  0.12815856479E+02  0.69996107109E+01  0.16423701647E+02  0.21976776451E+02  0.00000000000E+00 0.  1.
        -13    1    3    3    0    0 -0.83460621376E+01  0.39165277016E+01 -0.10194806573E+03  0.10236407597E+03  0.00000000000E+00 0. -1.
         22    1    1    2    0    0 -0.44697943413E+01 -0.10916138412E+02 -0.28905054471E+02  0.31219277910E+02  0.00000000000E+00 0. -1.
<mgrwt>
<rscale>  0 0.54267612E+02</rscale>
<asrwt>0</asrwt>
<pdfrwt beam="1">  1        2 0.20768427E-01 0.90256472E+02</pdfrwt>
<pdfrwt beam="2">  1       -2 0.31639008E-02 0.90256472E+02</pdfrwt>
<totfact> 0.88549656E+04</totfact>
</mgrwt>
</event>
<event>
 6    1  0.1661841E-002  0.1162830E+03  0.7546771E-02  0.1285321E+00
         -2   -1    0    0    0  501 -0.00000000000E+00  0.00000000000E+00  0.21487561685E+02  0.21487561685E+02  0.00000000000E+00 0.  1.
          2   -1    0    0  501    0  0.00000000000E+00 -0.00000000000E+00 -0.38221481629E+03  0.38221481629E+03  0.00000000000E+00 0. -1.
         23    2    1    2    0    0  0.57587164248E+02 -0.52186084720E+01 -0.18313334532E+03  0.21693216628E+03  0.10088720057E+03 0.  0.
         13    1    3    3    0    0  0.63931198013E+02  0.35667507894E+02 -0.98493508608E+02  0.12272057870E+03  0.00000000000E+00 0.  1.
        -13    1    3    3    0    0 -0.63440337650E+01 -0.40886116366E+02 -0.84639836709E+02  0.94211587578E+02  0.00000000000E+00 0. -1.
         22    1    1    2    0    0 -0.57587164248E+02  0.52186084720E+01 -0.17759390929E+03  0.18677021169E+03  0.00000000000E+00 0. -1.
<mgrwt>
<rscale>  0 0.97647845E+02</rscale>
<asrwt>0</asrwt>
<pdfrwt beam="1">  1        2 0.58802278E-01 0.11628303E+03</pdfrwt>
<pdfrwt beam="2">  1       -2 0.33057788E-02 0.11628303E+03</pdfrwt>
<totfact> 0.28182973E+04</totfact>
</mgrwt>
</event>
<event>
 6    1  0.1661841E-002  0.9197585E+02  0.7546771E-02  0.1412835E+00
          2   -1    0    0  501    0  0.00000000000E+00  0.00000000000E+00  0.12301903468E+03  0.12301903468E+03  0.00000000000E+00 0. -1.
         -2   -1    0    0    0  501 -0.00000000000E+00 -0.00000000000E+00 -0.24995271116E+02  0.24995271116E+02  0.00000000000E+00 0.  1.
         23    2    1    2    0    0 -0.12064973180E+02  0.52513997966E+01  0.65458036843E+02  0.11289070498E+03  0.91029752855E+02 0.  0.
         13    1    3    3    0    0 -0.10023496779E+02 -0.39017352214E+02  0.53535624792E+02  0.66999159572E+02  0.00000000000E+00 0. -1.
        -13    1    3    3    0    0 -0.20414764009E+01  0.44268752010E+02  0.11922412051E+02  0.45891545404E+02  0.00000000000E+00 0.  1.
         22    1    1    2    0    0  0.12064973180E+02 -0.52513997966E+01  0.32565726726E+02  0.35123600824E+02  0.00000000000E+00 0.  1.
<mgrwt>
<rscale>  0 0.56565974E+02</rscale>
<asrwt>0</asrwt>
<pdfrwt beam="1">  1        2 0.18926005E-01 0.91975848E+02</pdfrwt>
<pdfrwt beam="2">  1       -2 0.38454264E-02 0.91975848E+02</pdfrwt>
<totfact> 0.74066602E+04</totfact>
</mgrwt>
</event>
<event>
 6    1  0.1661841E-002  0.9352539E+02  0.7546771E-02  0.1369159E+00
         -4   -1    0    0    0  501 -0.00000000000E+00  0.00000000000E+00  0.16650884790E+03  0.16650884790E+03  0.00000000000E+00 0.  1.
          4   -1    0    0  501    0  0.00000000000E+00 -0.00000000000E+00 -0.21920483058E+02  0.21920483058E+02  0.00000000000E+00 0. -1.
         23    2    1    2    0    0 -0.22613213074E+02 -0.11185269105E+02  0.12680038932E+03  0.15756058101E+03  0.90058482691E+02 0.  0.
         13    1    3    3    0    0 -0.12902120216E+02 -0.42110734933E+02  0.24825073978E+02  0.50557521702E+02  0.00000000000E+00 0. -1.
        -13    1    3    3    0    0 -0.97110928577E+01  0.30925465827E+02  0.10197531534E+03  0.10700305931E+03  0.00000000000E+00 0.  1.
         22    1    1    2    0    0  0.22613213074E+02  0.11185269105E+02  0.17787975522E+02  0.30868749953E+02  0.00000000000E+00 0. -1.
<mgrwt>
<rscale>  0 0.67401440E+02</rscale>
<asrwt>0</asrwt>
<pdfrwt beam="1">  1        4 0.33723821E-02 0.93525387E+02</pdfrwt>
<pdfrwt beam="2">  1       -4 0.25616745E-01 0.93525387E+02</pdfrwt>
<totfact> 0.94238969E+03</totfact>
</mgrwt>
</event>
<event>
 6    1  0.1661841E-002  0.1109560E+03  0.7546771E-02  0.1285702E+00
          4   -1    0    0  501    0  0.00000000000E+00  0.00000000000E+00  0.21476914370E+02  0.21476914370E+02  0.00000000000E+00 0. -1.
         -4   -1    0    0    0  501 -0.00000000000E+00 -0.00000000000E+00 -0.99604512645E+03  0.99604512645E+03  0.00000000000E+00 0.  1.
         23    2    1    2    0    0  0.66076667972E+02 -0.76178166597E+00 -0.93273761130E+03  0.93931394965E+03  0.89132138591E+02 0.  0.
         13    1    3    3    0    0  0.74097336634E+02 -0.28901234861E+02 -0.75580326586E+03  0.75997649527E+03  0.00000000000E+00 0.  1.
        -13    1    3    3    0    0 -0.80206686619E+01  0.28139453195E+02 -0.17693434543E+03  0.17933745439E+03  0.00000000000E+00 0. -1.
         22    1    1    2    0    0 -0.66076667972E+02  0.76178166597E+00 -0.41830600784E+02  0.78208091164E+02  0.00000000000E+00 0. -1.
<mgrwt>
<rscale>  0 0.97472585E+02</rscale>
<asrwt>0</asrwt>
<pdfrwt beam="1">  1        4 0.33041413E-02 0.11095605E+03</pdfrwt>
<pdfrwt beam="2">  1       -4 0.15323768E+00 0.11095605E+03</pdfrwt>
<totfact> 0.22529242E+02</totfact>
</mgrwt>
</event>
<event>
 6    1  0.1661841E-002  0.9300527E+02  0.7546771E-02  0.1389140E+00
         -2   -1    0    0    0  501 -0.00000000000E+00  0.00000000000E+00  0.33688367028E+02  0.33688367028E+02  0.00000000000E+00 0.  1.
          2   -1    0    0  501    0  0.00000000000E+00 -0.00000000000E+00 -0.10506650786E+03  0.10506650786E+03  0.00000000000E+00 0. -1.
         23    2    1    2    0    0 -0.91413189653E+01 -0.16096474676E+02 -0.37761976946E+02  0.10037901420E+03  0.91144497247E+02 0.  0.
         11    1    3    3    0    0 -0.17133099812E+02  0.34722492730E+02 -0.28574101947E+02  0.48121449610E+02  0.00000000000E+00 0. -1.
        -11    1    3    3    0    0  0.79917808464E+01 -0.50818967406E+02 -0.91878749992E+01  0.52257564585E+02  0.00000000000E+00 0.  1.
         22    1    1    2    0    0  0.91413189653E+01  0.16096474676E+02 -0.33616163884E+02  0.38375860690E+02  0.00000000000E+00 0. -1.
<mgrwt>
<rscale>  0 0.62121025E+02</rscale>
<asrwt>0</asrwt>
<pdfrwt beam="1">  1        2 0.16164078E-01 0.93005266E+02</pdfrwt>
<pdfrwt beam="2">  1       -2 0.51828258E-02 0.93005266E+02</pdfrwt>
<totfact> 0.57080789E+04</totfact>
</mgrwt>
</event>
<event>
 6    1  0.1661841E-002  0.9283003E+02  0.7546771E-02  0.1389399E+00
          1   -1    0    0  501    0  0.00000000000E+00  0.00000000000E+00  0.77910268595E+02  0.77910268595E+02  0.00000000000E+00 0. -1.
         -1   -1    0    0    0  501 -0.00000000000E+00 -0.00000000000E+00 -0.45909938286E+02  0.45909938286E+02  0.00000000000E+00 0.  1.
         23    2    1    2    0    0  0.11981229349E+02  0.14146849987E+02  0.75503468539E+01  0.93136580755E+02  0.90960055606E+02 0.  0.
         13    1    3    3    0    0 -0.22672163250E+01 -0.20168183241E+02  0.39321079247E+02  0.44249781449E+02  0.00000000000E+00 0. -1.
        -13    1    3    3    0    0  0.14248445674E+02  0.34315033228E+02 -0.31770732394E+02  0.48886799306E+02  0.00000000000E+00 0.  1.
         22    1    1    2    0    0 -0.11981229349E+02 -0.14146849987E+02  0.24449983455E+02  0.30683626126E+02  0.00000000000E+00 0. -1.
<mgrwt>
<rscale>  0 0.62056341E+02</rscale>
<asrwt>0</asrwt>
<pdfrwt beam="1">  1        1 0.11986195E-01 0.92830033E+02</pdfrwt>
<pdfrwt beam="2">  1       -1 0.70630674E-02 0.92830033E+02</pdfrwt>
<totfact> 0.45325918E+04</totfact>
</mgrwt>
</event>
<event>
 6    1  0.1661841E-002  0.9477458E+02  0.7546771E-02  0.1385455E+00
          2   -1    0    0  501    0  0.00000000000E+00  0.00000000000E+00  0.32736457242E+03  0.32736457242E+03  0.00000000000E+00 0.  1.
         -2   -1    0    0    0  501 -0.00000000000E+00 -0.00000000000E+00 -0.99456311250E+01  0.99456311250E+01  0.00000000000E+00 0. -1.
         23    2    1    2    0    0 -0.88025190214E+01  0.16345881703E+02  0.24931717163E+03  0.26672321310E+03  0.92938410480E+02 0.  0.
         13    1    3    3    0    0 -0.74368720076E+01  0.24199506514E+01 -0.67155936429E+01  0.10308366718E+02  0.00000000000E+00 0. -1.
        -13    1    3    3    0    0 -0.13656470138E+01  0.13925931052E+02  0.25603276528E+03  0.25641484638E+03  0.00000000000E+00 0.  1.
         22    1    1    2    0    0  0.88025190214E+01 -0.16345881703E+02  0.68101769657E+02  0.70586990446E+02  0.00000000000E+00 0.  1.
<mgrwt>
<rscale>  0 0.63051391E+02</rscale>
<asrwt>0</asrwt>
<pdfrwt beam="1">  1        2 0.50363772E-01 0.94774576E+02</pdfrwt>
<pdfrwt beam="2">  1       -2 0.15300973E-02 0.94774576E+02</pdfrwt>
<totfact> 0.98622500E+04</totfact>
</mgrwt>
</event>
<event>
 6    1  0.1661841E-002  0.9286054E+02  0.7546771E-02  0.1425820E+00
         -1   -1    0    0    0  501 -0.00000000000E+00  0.00000000000E+00  0.19484252030E+03  0.19484252030E+03  0.00000000000E+00 0.  1.
          1   -1    0    0  501    0  0.00000000000E+00 -0.00000000000E+00 -0.28794476783E+02  0.28794476783E+02  0.00000000000E+00 0. -1.
         23    2    1    2    0    0  0.87923463559E+01 -0.56827811268E+01  0.18213629443E+03  0.20444243604E+03  0.92268524163E+02 0.  0.
         11    1    3    3    0    0  0.92978731661E+01 -0.30598507219E+02  0.17585902308E+03  0.17874315396E+03  0.00000000000E+00 0.  1.
        -11    1    3    3    0    0 -0.50552681019E+00  0.24915726092E+02  0.62772713520E+01  0.25699282085E+02  0.00000000000E+00 0. -1.
         22    1    1    2    0    0 -0.87923463559E+01  0.56827811268E+01 -0.16088250917E+02  0.19194561035E+02  0.00000000000E+00 0.  1.
<mgrwt>
<rscale>  0 0.53808316E+02</rscale>
<asrwt>0</asrwt>
<pdfrwt beam="1">  1        1 0.44299196E-02 0.92860540E+02</pdfrwt>
<pdfrwt beam="2">  1       -1 0.29975772E-01 0.92860540E+02</pdfrwt>
<totfact> 0.17963332E+04</totfact>
</mgrwt>
</event>
