<event>
 6    1  0.1614874E-005  0.3676154E+04  0.7818608E-02  0.8073267E-01
          1   -1    0    0  501    0  0.00000000000E+00  0.00000000000E+00  0.25392259866E+04  0.25392259866E+04  0.00000000000E+00 0. -1.
         -1   -1    0    0    0  501 -0.00000000000E+00 -0.00000000000E+00 -0.13305344375E+04  0.13305344375E+04  0.00000000000E+00 0.  1.
         23    2    1    2    0    0  0.64608109808E+03 -0.55603832808E+03  0.23176124126E+04  0.24710807292E+04  0.91177122050E+02 0.  0.
         11    1    3    3    0    0  0.33842971052E+03 -0.23199742046E+03  0.10877681278E+04  0.11625820280E+04  0.00000000000E+00 0. -1.
        -11    1    3    3    0    0  0.30765138757E+03 -0.32404090762E+03  0.12298442848E+04  0.13084987012E+04  0.00000000000E+00 0.  1.
         22    1    1    2    0    0 -0.64608109808E+03  0.55603832808E+03 -0.11089208634E+04  0.13986796949E+04  0.00000000000E+00 0.  1.
<mgrwt>
<rscale>  0 0.36761543E+04</rscale>
<asrwt>0</asrwt>
<pdfrwt beam="1">  1        1 0.39065015E+00 0.36761543E+04</pdfrwt>
<pdfrwt beam="2">  1       -1 0.20469761E+00 0.36761543E+04</pdfrwt>
<totfact> 0.14288779E-01</totfact>
</mgrwt>
</event>
<event>
 6    1  0.1614874E-005  0.1389056E+04  0.7818608E-02  0.8961778E-01
          1   -1    0    0  501    0  0.00000000000E+00  0.00000000000E+00  0.98332544341E+03  0.98332544341E+03  0.00000000000E+00 0. -1.
         -1   -1    0    0    0  501 -0.00000000000E+00 -0.00000000000E+00 -0.49054911852E+03  0.49054911852E+03  0.00000000000E+00 0.  1.
         23    2    1    2    0    0  0.50799039672E+03  0.21906531919E+03  0.68678756531E+03  0.88762869316E+03  0.10081507738E+03 0.  0.
         11    1    3    3    0    0  0.28071309990E+03  0.14729921642E+03  0.32185531265E+03  0.45176071752E+03  0.00000000000E+00 0. -1.
        -11    1    3    3    0    0  0.22727729682E+03  0.71766102763E+02  0.36493225266E+03  0.43586797564E+03  0.00000000000E+00 0.  1.
         22    1    1    2    0    0 -0.50799039672E+03 -0.21906531919E+03 -0.19401124043E+03  0.58624586877E+03  0.00000000000E+00 0.  1.
<mgrwt>
<rscale>  0 0.13890564E+04</rscale>
<asrwt>0</asrwt>
<pdfrwt beam="1">  1        1 0.15128084E+00 0.13890564E+04</pdfrwt>
<pdfrwt beam="2">  1       -1 0.75469095E-01 0.13890564E+04</pdfrwt>
<totfact> 0.26861716E+01</totfact>
</mgrwt>
</event>
<event>
 6    1  0.1614874E-005  0.4183229E+03  0.7818608E-02  0.1037614E+00
         -1   -1    0    0    0  501 -0.00000000000E+00  0.00000000000E+00  0.16413318185E+04  0.16413318185E+04  0.00000000000E+00 0.  1.
          1   -1    0    0  501    0  0.00000000000E+00 -0.00000000000E+00 -0.26654272331E+02  0.26654272331E+02  0.00000000000E+00 0. -1.
         23    2    1    2    0    0  0.14130885585E+03  0.74793376012E+02  0.12901928956E+04  0.13062506485E+04  0.12700711319E+03 0.  0.
         13    1    3    3    0    0  0.40407942747E+02 -0.36104668574E+02  0.35776122718E+03  0.36184173972E+03  0.00000000000E+00 0. -1.
        -13    1    3    3    0    0  0.10090091310E+03  0.11089804459E+03  0.93243166846E+03  0.94440890873E+03  0.00000000000E+00 0.  1.
         22    1    1    2    0    0 -0.14130885585E+03 -0.74793376012E+02  0.32448465049E+03  0.36173544233E+03  0.00000000000E+00 0.  1.
<mgrwt>
<rscale>  0 0.41832287E+03</rscale>
<asrwt>0</asrwt>
<pdfrwt beam="1">  1        1 0.41006586E-02 0.41832287E+03</pdfrwt>
<pdfrwt beam="2">  1       -1 0.25251251E+00 0.41832287E+03</pdfrwt>
<totfact> 0.16619315E+02</totfact>
</mgrwt>
</event>
<event>
 6    1  0.1614874E-005  0.1737595E+04  0.7818608E-02  0.8740208E-01
          1   -1    0    0  501    0  0.00000000000E+00  0.00000000000E+00  0.18084031259E+04  0.18084031259E+04  0.00000000000E+00 0. -1.
         -1   -1    0    0    0  501 -0.00000000000E+00 -0.00000000000E+00 -0.41738973602E+03  0.41738973602E+03  0.00000000000E+00 0.  1.
         23    2    1    2    0    0  0.56274107013E+03 -0.50101106604E+03  0.14951345223E+03  0.77354918557E+03  0.91293317306E+02 0.  0.
         13    1    3    3    0    0  0.26530432302E+03 -0.29088774550E+03  0.98353911434E+02  0.40580236100E+03  0.00000000000E+00 0. -1.
        -13    1    3    3    0    0  0.29743674711E+03 -0.21012332054E+03  0.51159540794E+02  0.36774682457E+03  0.00000000000E+00 0.  1.
         22    1    1    2    0    0 -0.56274107013E+03  0.50101106604E+03  0.12414999377E+04  0.14522436764E+04  0.00000000000E+00 0. -1.
<mgrwt>
<rscale>  0 0.17375948E+04</rscale>
<asrwt>0</asrwt>
<pdfrwt beam="1">  1        1 0.27821586E+00 0.17375948E+04</pdfrwt>
<pdfrwt beam="2">  1       -1 0.64213807E-01 0.17375948E+04</pdfrwt>
<totfact> 0.93803267E+00</totfact>
</mgrwt>
</event>
<event>
 6    1  0.1614874E-005  0.2556671E+04  0.7818608E-02  0.8383070E-01
          1   -1    0    0  501    0  0.00000000000E+00  0.00000000000E+00  0.18715736351E+04  0.18715736351E+04  0.00000000000E+00 0. -1.
         -1   -1    0    0    0  501 -0.00000000000E+00 -0.00000000000E+00 -0.87313751380E+03  0.87313751380E+03  0.00000000000E+00 0.  1.
         23    2    1    2    0    0  0.12221810538E+04  0.15217693909E+03  0.13869273311E+03  0.12426981521E+04  0.90436020925E+02 0.  0.
         13    1    3    3    0    0  0.86675503410E+03  0.71302474103E+02  0.11732774704E+03  0.87756146917E+03  0.00000000000E+00 0. -1.
        -13    1    3    3    0    0  0.35542601972E+03  0.80874464990E+02  0.21364986063E+02  0.36513668292E+03  0.00000000000E+00 0.  1.
         22    1    1    2    0    0 -0.12221810538E+04 -0.15217693909E+03  0.85974338824E+03  0.15020129969E+04  0.00000000000E+00 0. -1.
<mgrwt>
<rscale>  0 0.25566706E+04</rscale>
<asrwt>0</asrwt>
<pdfrwt beam="1">  1        1 0.28793440E+00 0.25566706E+04</pdfrwt>
<pdfrwt beam="2">  1       -1 0.13432885E+00 0.25566706E+04</pdfrwt>
<totfact> 0.15022524E+00</totfact>
</mgrwt>
</event>
<event>
 6    1  0.1614874E-005  0.1282016E+04  0.7818608E-02  0.9043950E-01
          2   -1    0    0  501    0  0.00000000000E+00  0.00000000000E+00  0.36430965239E+03  0.36430965239E+03  0.00000000000E+00 0. -1.
         -2   -1    0    0    0  501 -0.00000000000E+00 -0.00000000000E+00 -0.11278623846E+04  0.11278623846E+04  0.00000000000E+00 0.  1.
         23    2    1    2    0    0  0.28984984768E+03  0.56776112512E+03 -0.36092791745E+03  0.73820096933E+03  0.91137698753E+02 0.  0.
         11    1    3    3    0    0  0.18601754770E+03  0.33994174668E+03 -0.26795929858E+03  0.47113172774E+03  0.00000000000E+00 0. -1.
        -11    1    3    3    0    0  0.10383229998E+03  0.22781937844E+03 -0.92968618877E+02  0.26706924159E+03  0.00000000000E+00 0.  1.
         22    1    1    2    0    0 -0.28984984768E+03 -0.56776112512E+03 -0.40262481471E+03  0.75397106762E+03  0.00000000000E+00 0.  1.
<mgrwt>
<rscale>  0 0.12820158E+04</rscale>
<asrwt>0</asrwt>
<pdfrwt beam="1">  1        2 0.56047639E-01 0.12820158E+04</pdfrwt>
<pdfrwt beam="2">  1       -2 0.17351729E+00 0.12820158E+04</pdfrwt>
<totfact> 0.17428297E+01</totfact>
</mgrwt>
</event>
<event>
 6    1  0.1614874E-005  0.1284424E+04  0.7818608E-02  0.9042009E-01
         -1   -1    0    0    0  501 -0.00000000000E+00  0.00000000000E+00  0.17285647744E+03  0.17285647744E+03  0.00000000000E+00 0.  1.
          1   -1    0    0  501    0  0.00000000000E+00 -0.00000000000E+00 -0.23860031657E+04  0.23860031657E+04  0.00000000000E+00 0. -1.
         23    2    1    2    0    0 -0.21506814084E+03  0.33304277018E+03 -0.21103197385E+04  0.21492925869E+04  0.94007623278E+02 0.  0.
         11    1    3    3    0    0 -0.15060325541E+03  0.15728117417E+03 -0.10158952951E+04  0.10389715871E+04  0.00000000000E+00 0.  1.
        -11    1    3    3    0    0 -0.64464885436E+02  0.17576159601E+03 -0.10944244435E+04  0.11103209998E+04  0.00000000000E+00 0. -1.
         22    1    1    2    0    0  0.21506814084E+03 -0.33304277018E+03 -0.10282694973E+03  0.40956705625E+03  0.00000000000E+00 0.  1.
<mgrwt>
<rscale>  0 0.12844238E+04</rscale>
<asrwt>0</asrwt>
<pdfrwt beam="1">  1        1 0.36707740E+00 0.12844238E+04</pdfrwt>
<pdfrwt beam="2">  1       -1 0.26593305E-01 0.12844238E+04</pdfrwt>
<totfact> 0.20197832E+01</totfact>
</mgrwt>
</event>
<event>
 6    1  0.1614874E-005  0.7933711E+03  0.7818608E-02  0.9569662E-01
         -1   -1    0    0    0  501 -0.00000000000E+00  0.00000000000E+00  0.11435782368E+04  0.11435782368E+04  0.00000000000E+00 0.  1.
          1   -1    0    0  501    0  0.00000000000E+00 -0.00000000000E+00 -0.13760267895E+03  0.13760267895E+03  0.00000000000E+00 0. -1.
         23    2    1    2    0    0  0.36284072327E+03 -0.82373217535E+02  0.31301759119E+03  0.49465089027E+03  0.90888686946E+02 0.  0.
         11    1    3    3    0    0  0.20741872508E+03 -0.29184934308E+02  0.22826475292E+03  0.30980491495E+03  0.00000000000E+00 0. -1.
        -11    1    3    3    0    0  0.15542199819E+03 -0.53188283227E+02  0.84752838277E+02  0.18484597531E+03  0.00000000000E+00 0.  1.
         22    1    1    2    0    0 -0.36284072327E+03  0.82373217535E+02  0.69295796664E+03  0.78653002547E+03  0.00000000000E+00 0.  1.
<mgrwt>
<rscale>  0 0.79337111E+03</rscale>
<asrwt>0</asrwt>
<pdfrwt beam="1">  1        1 0.21169644E-01 0.79337111E+03</pdfrwt>
<pdfrwt beam="2">  1       -1 0.17593511E+00 0.79337111E+03</pdfrwt>
<totfact> 0.55088524E+01</totfact>
</mgrwt>
</event>
<event>
 6    1  0.1614874E-005  0.2952328E+04  0.7818608E-02  0.8257476E-01
         -2   -1    0    0    0  501 -0.00000000000E+00  0.00000000000E+00  0.20598154705E+04  0.20598154705E+04  0.00000000000E+00 0. -1.
          2   -1    0    0  501    0  0.00000000000E+00 -0.00000000000E+00 -0.10578912370E+04  0.10578912370E+04  0.00000000000E+00 0.  1.
         23    2    1    2    0    0 -0.35894127557E+03  0.13821188647E+04  0.88931071206E+03  0.16853055064E+04  0.10143821687E+03 0.  0.
         13    1    3    3    0    0 -0.52409831577E+02  0.21469036954E+03  0.96038909449E+02  0.24096102869E+03  0.00000000000E+00 0.  1.
        -13    1    3    3    0    0 -0.30653144399E+03  0.11674284952E+04  0.79327180261E+03  0.14443444777E+04  0.00000000000E+00 0. -1.
         22    1    1    2    0    0  0.35894127557E+03 -0.13821188647E+04  0.11261352151E+03  0.14324012011E+04  0.00000000000E+00 0.  1.
<mgrwt>
<rscale>  0 0.29523284E+04</rscale>
<asrwt>0</asrwt>
<pdfrwt beam="1">  1        2 0.16275250E+00 0.29523284E+04</pdfrwt>
<pdfrwt beam="2">  1       -2 0.31689469E+00 0.29523284E+04</pdfrwt>
<totfact> 0.49764389E-01</totfact>
</mgrwt>
</event>
<event>
 6    1  0.1614874E-005  0.2157892E+04  0.7818608E-02  0.8536161E-01
          2   -1    0    0  501    0  0.00000000000E+00  0.00000000000E+00  0.36996947957E+04  0.36996947957E+04  0.00000000000E+00 0. -1.
         -2   -1    0    0    0  501 -0.00000000000E+00 -0.00000000000E+00 -0.31465429276E+03  0.31465429276E+03  0.00000000000E+00 0.  1.
         23    2    1    2    0    0  0.97158785533E+03  0.45530432373E+03  0.18694196060E+04  0.21573645191E+04  0.90592587437E+02 0.  0.
         13    1    3    3    0    0  0.31022049018E+03  0.18906087980E+03  0.59847324192E+03  0.70010784176E+03  0.00000000000E+00 0. -1.
        -13    1    3    3    0    0  0.66136736514E+03  0.26624344393E+03  0.12709463641E+04  0.14572566773E+04  0.00000000000E+00 0.  1.
         22    1    1    2    0    0 -0.97158785533E+03 -0.45530432373E+03  0.15156208969E+04  0.18569845694E+04  0.00000000000E+00 0. -1.
<mgrwt>
<rscale>  0 0.21578924E+04</rscale>
<asrwt>0</asrwt>
<pdfrwt beam="1">  1        2 0.56918378E+00 0.21578924E+04</pdfrwt>
<pdfrwt beam="2">  1       -2 0.48408355E-01 0.21578924E+04</pdfrwt>
<totfact> 0.21766460E+00</totfact>
</mgrwt>
</event>
<event>
 6    1  0.1614874E-005  0.2308572E+04  0.7818608E-02  0.8474549E-01
         -2   -1    0    0    0  501 -0.00000000000E+00  0.00000000000E+00  0.84662551972E+03  0.84662551972E+03  0.00000000000E+00 0. -1.
          2   -1    0    0  501    0  0.00000000000E+00 -0.00000000000E+00 -0.15737485846E+04  0.15737485846E+04  0.00000000000E+00 0.  1.
         23    2    1    2    0    0 -0.67481878163E+03  0.93411701302E+03 -0.36293579337E+03  0.12118264839E+04  0.94053468461E+02 0.  0.
         13    1    3    3    0    0 -0.11076548543E+03  0.14700477033E+03 -0.22770013964E+02  0.18546662449E+03  0.00000000000E+00 0.  1.
        -13    1    3    3    0    0 -0.56405329620E+03  0.78711224269E+03 -0.34016577941E+03  0.10263598594E+04  0.00000000000E+00 0. -1.
         22    1    1    2    0    0  0.67481878163E+03 -0.93411701302E+03 -0.36418727149E+03  0.12085476204E+04  0.00000000000E+00 0. -1.
<mgrwt>
<rscale>  0 0.23085716E+04</rscale>
<asrwt>0</asrwt>
<pdfrwt beam="1">  1        2 0.24211516E+00 0.23085716E+04</pdfrwt>
<pdfrwt beam="2">  1       -2 0.13025008E+00 0.23085716E+04</pdfrwt>
<totfact> 0.45178284E+00</totfact>
</mgrwt>
</event>
<event>
 6    1  0.1614874E-005  0.2174776E+04  0.7818608E-02  0.8529001E-01
         -1   -1    0    0    0  501 -0.00000000000E+00  0.00000000000E+00  0.61949141962E+03  0.61949141962E+03  0.00000000000E+00 0.  1.
          1   -1    0    0  501    0  0.00000000000E+00 -0.00000000000E+00 -0.19086831471E+04  0.19086831471E+04  0.00000000000E+00 0. -1.
         23    2    1    2    0    0 -0.27025305696E+03  0.10296318071E+04 -0.89263665118E+03  0.13922017230E+04  0.90813399968E+02 0.  0.
         13    1    3    3    0    0 -0.17775294483E+03  0.79390507525E+03 -0.64774707786E+03  0.10399315626E+04  0.00000000000E+00 0.  1.
        -13    1    3    3    0    0 -0.92500112129E+02  0.23572673185E+03 -0.24488957332E+03  0.35227016049E+03  0.00000000000E+00 0. -1.
         22    1    1    2    0    0  0.27025305696E+03 -0.10296318071E+04 -0.39655507629E+03  0.11359728437E+04  0.00000000000E+00 0.  1.
<mgrwt>
<rscale>  0 0.21747762E+04</rscale>
<asrwt>0</asrwt>
<pdfrwt beam="1">  1        1 0.29364357E+00 0.21747762E+04</pdfrwt>
<pdfrwt beam="2">  1       -1 0.95306371E-01 0.21747762E+04</pdfrwt>
<totfact> 0.33380370E+00</totfact>
</mgrwt>
</event>
<event>
 6    1  0.1614874E-005  0.1960835E+04  0.7818608E-02  0.8625154E-01
          2   -1    0    0  501    0  0.00000000000E+00  0.00000000000E+00  0.25508207348E+04  0.25508207348E+04  0.00000000000E+00 0. -1.
         -2   -1    0    0    0  501 -0.00000000000E+00 -0.00000000000E+00 -0.37682701809E+03  0.37682701809E+03  0.00000000000E+00 0.  1.
         23    2    1    2    0    0  0.39193686076E+03  0.19514178394E+03 -0.21810307690E+03  0.49581266624E+03  0.81033506598E+02 0.  0.
         13    1    3    3    0    0  0.17914415208E+03  0.11744192227E+03 -0.70834622933E+02  0.22561643587E+03  0.00000000000E+00 0. -1.
        -13    1    3    3    0    0  0.21279270868E+03  0.77699861672E+02 -0.14726845397E+03  0.27019623037E+03  0.00000000000E+00 0.  1.
         22    1    1    2    0    0 -0.39193686076E+03 -0.19514178394E+03  0.23920967937E+04  0.24318350867E+04  0.00000000000E+00 0. -1.
<mgrwt>
<rscale>  0 0.19608347E+04</rscale>
<asrwt>0</asrwt>
<pdfrwt beam="1">  1        2 0.39243395E+00 0.19608347E+04</pdfrwt>
<pdfrwt beam="2">  1       -2 0.57973389E-01 0.19608347E+04</pdfrwt>
<totfact> 0.84465684E+00</totfact>
</mgrwt>
</event>
<event>
 6    1  0.1614874E-005  0.1605004E+04  0.7818608E-02  0.8817480E-01
         -2   -1    0    0    0  501 -0.00000000000E+00  0.00000000000E+00  0.99776698365E+03  0.99776698365E+03  0.00000000000E+00 0.  1.
          2   -1    0    0  501    0  0.00000000000E+00 -0.00000000000E+00 -0.64545036991E+03  0.64545036991E+03  0.00000000000E+00 0. -1.
         23    2    1    2    0    0  0.68159758173E+03  0.41295488031E+03  0.24418901184E+03  0.83897946905E+03  0.95662319600E+02 0.  0.
         11    1    3    3    0    0  0.14849119306E+03  0.10188647666E+03  0.15497807492E+02  0.18075029898E+03  0.00000000000E+00 0.  1.
        -11    1    3    3    0    0  0.53310638867E+03  0.31106840365E+03  0.22869120435E+03  0.65822917007E+03  0.00000000000E+00 0. -1.
         22    1    1    2    0    0 -0.68159758173E+03 -0.41295488031E+03  0.10812760190E+03  0.80423788451E+03  0.00000000000E+00 0. -1.
<mgrwt>
<rscale>  0 0.16050035E+04</rscale>
<asrwt>0</asrwt>
<pdfrwt beam="1">  1        2 0.99300057E-01 0.16050035E+04</pdfrwt>
<pdfrwt beam="2">  1       -2 0.15350261E+00 0.16050035E+04</pdfrwt>
<totfact> 0.12241030E+01</totfact>
</mgrwt>
</event>
<event>
 6    1  0.1614874E-005  0.1636161E+04  0.7818608E-02  0.8798636E-01
          2   -1    0    0  501    0  0.00000000000E+00  0.00000000000E+00  0.34573653530E+04  0.34573653530E+04  0.00000000000E+00 0. -1.
         -2   -1    0    0    0  501 -0.00000000000E+00 -0.00000000000E+00 -0.19357379879E+03  0.19357379879E+03  0.00000000000E+00 0.  1.
         23    2    1    2    0    0  0.19046767631E+03 -0.76137268957E+03  0.11419667092E+04  0.13886157927E+04  0.90551348518E+02 0.  0.
         11    1    3    3    0    0  0.88402825557E+02 -0.23524467063E+03  0.31153746019E+03  0.40026329301E+03  0.00000000000E+00 0. -1.
        -11    1    3    3    0    0  0.10206485075E+03 -0.52612801894E+03  0.83042924900E+03  0.98835249971E+03  0.00000000000E+00 0.  1.
         22    1    1    2    0    0 -0.19046767631E+03  0.76137268957E+03  0.21218248450E+04  0.22623233591E+04  0.00000000000E+00 0. -1.
<mgrwt>
<rscale>  0 0.16361606E+04</rscale>
<asrwt>0</asrwt>
<pdfrwt beam="1">  1        2 0.53190232E+00 0.16361606E+04</pdfrwt>
<pdfrwt beam="2">  1       -2 0.29780587E-01 0.16361606E+04</pdfrwt>
<totfact> 0.87466131E+00</totfact>
</mgrwt>
</event>
<event>
 6    1  0.1744593E-005  0.4359078E+04  0.7818608E-02  0.7935783E-01
          2   -1    0    0  501    0  0.00000000000E+00  0.00000000000E+00  0.23058552760E+04  0.23058552760E+04  0.00000000000E+00 0. -1.
         -2   -1    0    0    0  501 -0.00000000000E+00 -0.00000000000E+00 -0.20601426947E+04  0.20601426947E+04  0.00000000000E+00 0.  1.
         23    2    1    2    0    0 -0.71024421438E+03  0.23072600044E+03 -0.19268074560E+04  0.20687116054E+04  0.96433409274E+02 0.  0.
         13    1    3    3    0    0 -0.24320887825E+03  0.91583806442E+02 -0.55271394186E+03  0.61076251816E+03  0.00000000000E+00 0.  1.
        -13    1    3    3    0    0 -0.46703533613E+03  0.13914219400E+03 -0.13740935141E+04  0.14579490872E+04  0.00000000000E+00 0. -1.
         22    1    1    2    0    0  0.71024421438E+03 -0.23072600044E+03  0.21725200373E+04  0.22972863652E+04  0.00000000000E+00 0. -1.
<mgrwt>
<rscale>  0 0.43590783E+04</rscale>
<asrwt>0</asrwt>
<pdfrwt beam="1">  1        2 0.35474697E+00 0.43590783E+04</pdfrwt>
<pdfrwt beam="2">  1       -2 0.31694503E+00 0.43590783E+04</pdfrwt>
<totfact> 0.86222997E-02</totfact>
</mgrwt>
</event>
<event>
 6    1  0.1614874E-005  0.1350662E+04  0.7818608E-02  0.8990327E-01
         -2   -1    0    0    0  501 -0.00000000000E+00  0.00000000000E+00  0.52943079960E+03  0.52943079960E+03  0.00000000000E+00 0.  1.
          2   -1    0    0  501    0  0.00000000000E+00 -0.00000000000E+00 -0.86143872405E+03  0.86143872405E+03  0.00000000000E+00 0. -1.
         23    2    1    2    0    0 -0.46110056572E+03 -0.40989199109E+03  0.10865649426E+03  0.63270707010E+03  0.88807807952E+02 0.  0.
         13    1    3    3    0    0 -0.28324384825E+03 -0.20168913503E+03  0.84373517855E+02  0.35780508000E+03  0.00000000000E+00 0. -1.
        -13    1    3    3    0    0 -0.17785671746E+03 -0.20820285606E+03  0.24282976410E+02  0.27490199010E+03  0.00000000000E+00 0.  1.
         22    1    1    2    0    0  0.46110056572E+03  0.40989199109E+03 -0.44066441871E+03  0.75816245355E+03  0.00000000000E+00 0. -1.
<mgrwt>
<rscale>  0 0.13506623E+04</rscale>
<asrwt>0</asrwt>
<pdfrwt beam="1">  1        2 0.13252903E+00 0.13506623E+04</pdfrwt>
<pdfrwt beam="2">  1       -2 0.81450892E-01 0.13506623E+04</pdfrwt>
<totfact> 0.40415665E+01</totfact>
</mgrwt>
</event>
<event>
 6    1  0.1614874E-005  0.1583549E+04  0.7818608E-02  0.8830719E-01
         -2   -1    0    0    0  501 -0.00000000000E+00  0.00000000000E+00  0.34308522437E+03  0.34308522437E+03  0.00000000000E+00 0.  1.
          2   -1    0    0  501    0  0.00000000000E+00 -0.00000000000E+00 -0.18272626116E+04  0.18272626116E+04  0.00000000000E+00 0. -1.
         23    2    1    2    0    0  0.95421796187E+02  0.73716466732E+03 -0.38146324069E+03  0.84049989169E+03  0.91699498352E+02 0.  0.
         13    1    3    3    0    0  0.77047046027E+02  0.25433103402E+03 -0.13840487752E+03  0.29962715546E+03  0.00000000000E+00 0. -1.
        -13    1    3    3    0    0  0.18374750160E+02  0.48283363331E+03 -0.24305836317E+03  0.54087273623E+03  0.00000000000E+00 0.  1.
         22    1    1    2    0    0 -0.95421796187E+02 -0.73716466732E+03 -0.11027141466E+04  0.13298479443E+04  0.00000000000E+00 0. -1.
<mgrwt>
<rscale>  0 0.15835489E+04</rscale>
<asrwt>0</asrwt>
<pdfrwt beam="1">  1        2 0.28111733E+00 0.15835489E+04</pdfrwt>
<pdfrwt beam="2">  1       -2 0.52782341E-01 0.15835489E+04</pdfrwt>
<totfact> 0.27089990E+01</totfact>
</mgrwt>
</event>
<event>
 6    1  0.1614874E-005  0.1885829E+04  0.7818608E-02  0.8661942E-01
         -2   -1    0    0    0  501 -0.00000000000E+00  0.00000000000E+00  0.40661165228E+03  0.40661165228E+03  0.00000000000E+00 0.  1.
          2   -1    0    0  501    0  0.00000000000E+00 -0.00000000000E+00 -0.21865773623E+04  0.21865773623E+04  0.00000000000E+00 0. -1.
         23    2    1    2    0    0 -0.28616206534E+03  0.88900057374E+03 -0.10467080622E+04  0.14058063779E+04  0.92103512278E+02 0.  0.
         13    1    3    3    0    0 -0.26519581107E+03  0.70447910889E+03 -0.84091201234E+03  0.11286065061E+04  0.00000000000E+00 0.  1.
        -13    1    3    3    0    0 -0.20966254265E+02  0.18452146485E+03 -0.20579604987E+03  0.27719987184E+03  0.00000000000E+00 0. -1.
         22    1    1    2    0    0  0.28616206534E+03 -0.88900057374E+03 -0.73325764782E+03  0.11873826367E+04  0.00000000000E+00 0. -1.
<mgrwt>
<rscale>  0 0.18858291E+04</rscale>
<asrwt>0</asrwt>
<pdfrwt beam="1">  1        2 0.33639652E+00 0.18858291E+04</pdfrwt>
<pdfrwt beam="2">  1       -2 0.62555638E-01 0.18858291E+04</pdfrwt>
<totfact> 0.11678402E+01</totfact>
</mgrwt>
</event>
<event>
 6    1  0.1614874E-005  0.5059137E+04  0.7818608E-02  0.7819449E-01
          2   -1    0    0  501    0  0.00000000000E+00  0.00000000000E+00  0.26498934379E+04  0.26498934379E+04  0.00000000000E+00 0.  1.
         -2   -1    0    0    0  501 -0.00000000000E+00 -0.00000000000E+00 -0.24147070990E+04  0.24147070990E+04  0.00000000000E+00 0. -1.
         23    2    1    2    0    0 -0.11631267010E+04 -0.11928556460E+04 -0.17867766368E+04  0.24446572952E+04  0.89499868557E+02 0.  0.
         11    1    3    3    0    0 -0.87491583096E+03 -0.86715234051E+03 -0.12710081198E+04  0.17699978908E+04  0.00000000000E+00 0.  1.
        -11    1    3    3    0    0 -0.28821087007E+03 -0.32570330552E+03 -0.51576851694E+03  0.67465940438E+03  0.00000000000E+00 0. -1.
         22    1    1    2    0    0  0.11631267010E+04  0.11928556460E+04  0.20219629756E+04  0.26199432417E+04  0.00000000000E+00 0.  1.
<mgrwt>
<rscale>  0 0.50591369E+04</rscale>
<asrwt>0</asrwt>
<pdfrwt beam="1">  1        2 0.40767591E+00 0.50591369E+04</pdfrwt>
<pdfrwt beam="2">  1       -2 0.37149340E+00 0.50591369E+04</pdfrwt>
<totfact> 0.23408513E-02</totfact>
</mgrwt>
</event>
<event>
 6    1  0.1614874E-005  0.3584872E+04  0.7818608E-02  0.8093966E-01
          2   -1    0    0  501    0  0.00000000000E+00  0.00000000000E+00  0.13022308179E+04  0.13022308179E+04  0.00000000000E+00 0. -1.
         -2   -1    0    0    0  501 -0.00000000000E+00 -0.00000000000E+00 -0.24671718208E+04  0.24671718208E+04  0.00000000000E+00 0.  1.
         23    2    1    2    0    0  0.22968080161E+03  0.17132161831E+04 -0.89128637333E+02  0.17334175684E+04  0.94496517128E+02 0.  0.
         11    1    3    3    0    0  0.13172293961E+02  0.38226198773E+03 -0.91383686429E+01  0.38259802191E+03  0.00000000000E+00 0.  1.
        -11    1    3    3    0    0  0.21650850765E+03  0.13309541954E+04 -0.79990268690E+02  0.13508195465E+04  0.00000000000E+00 0. -1.
         22    1    1    2    0    0 -0.22968080161E+03 -0.17132161831E+04 -0.10758123655E+04  0.20359850703E+04  0.00000000000E+00 0.  1.
<mgrwt>
<rscale>  0 0.35848722E+04</rscale>
<asrwt>0</asrwt>
<pdfrwt beam="1">  1        2 0.20034320E+00 0.35848722E+04</pdfrwt>
<pdfrwt beam="2">  1       -2 0.37956490E+00 0.35848722E+04</pdfrwt>
<totfact> 0.13544703E-01</totfact>
</mgrwt>
</event>
<event>
 6    1  0.1614874E-005  0.1269503E+04  0.7818608E-02  0.9054106E-01
         -2   -1    0    0    0  501 -0.00000000000E+00  0.00000000000E+00  0.56172024760E+03  0.56172024760E+03  0.00000000000E+00 0. -1.
          2   -1    0    0  501    0  0.00000000000E+00 -0.00000000000E+00 -0.71727747838E+03  0.71727747838E+03  0.00000000000E+00 0.  1.
         23    2    1    2    0    0  0.60543530625E+02 -0.44708716605E+03  0.36536267252E+03  0.58986058519E+03  0.10437037100E+03 0.  0.
         11    1    3    3    0    0  0.31295240910E+02 -0.23516277968E+03  0.25802160515E+03  0.35050830771E+03  0.00000000000E+00 0.  1.
        -11    1    3    3    0    0  0.29248289715E+02 -0.21192438637E+03  0.10734106737E+03  0.23935227748E+03  0.00000000000E+00 0. -1.
         22    1    1    2    0    0 -0.60543530625E+02  0.44708716605E+03 -0.52091990330E+03  0.68913714078E+03  0.00000000000E+00 0.  1.
<mgrwt>
<rscale>  0 0.12695027E+04</rscale>
<asrwt>0</asrwt>
<pdfrwt beam="1">  1        2 0.11035038E+00 0.12695027E+04</pdfrwt>
<pdfrwt beam="2">  1       -2 0.86418500E-01 0.12695027E+04</pdfrwt>
<totfact> 0.45283442E+01</totfact>
</mgrwt>
</event>
<event>
 6    1  0.2392038E-005  0.2749595E+04  0.7818608E-02  0.8319090E-01
         -2   -1    0    0    0  501 -0.00000000000E+00  0.00000000000E+00  0.16250374622E+04  0.16250374622E+04  0.00000000000E+00 0.  1.
          2   -1    0    0  501    0  0.00000000000E+00 -0.00000000000E+00 -0.11630924421E+04  0.11630924421E+04  0.00000000000E+00 0. -1.
         23    2    1    2    0    0  0.61109842968E+03  0.10024681460E+04 -0.49117758875E+03  0.12759042657E+04  0.91063697141E+02 0.  0.
         13    1    3    3    0    0  0.44664999379E+03  0.65130076600E+03 -0.32300875567E+03  0.85324296715E+03  0.00000000000E+00 0.  1.
        -13    1    3    3    0    0  0.16444843589E+03  0.35116737999E+03 -0.16816883308E+03  0.42266129851E+03  0.00000000000E+00 0. -1.
         22    1    1    2    0    0 -0.61109842968E+03 -0.10024681460E+04  0.95312260885E+03  0.15122256386E+04  0.00000000000E+00 0.  1.
<mgrwt>
<rscale>  0 0.27495955E+04</rscale>
<asrwt>0</asrwt>
<pdfrwt beam="1">  1        2 0.17893730E+00 0.27495955E+04</pdfrwt>
<pdfrwt beam="2">  1       -2 0.25000576E+00 0.27495955E+04</pdfrwt>
<totfact> 0.11191779E+00</totfact>
</mgrwt>
</event>
<event>
 6    1  0.1614874E-005  0.1263285E+04  0.7818608E-02  0.9059198E-01
          1   -1    0    0  501    0  0.00000000000E+00  0.00000000000E+00  0.11409439873E+04  0.11409439873E+04  0.00000000000E+00 0. -1.
         -1   -1    0    0    0  501 -0.00000000000E+00 -0.00000000000E+00 -0.34968620868E+03  0.34968620868E+03  0.00000000000E+00 0.  1.
         23    2    1    2    0    0 -0.25005941831E+03 -0.17907935743E+03  0.10442400197E+04  0.10923851166E+04  0.90933467058E+02 0.  0.
         11    1    3    3    0    0 -0.82857068698E+02 -0.28211324506E+02  0.41304756356E+03  0.42221968503E+03  0.00000000000E+00 0. -1.
        -11    1    3    3    0    0 -0.16720234961E+03 -0.15086803292E+03  0.63119245610E+03  0.67016543160E+03  0.00000000000E+00 0.  1.
         22    1    1    2    0    0  0.25005941831E+03  0.17907935743E+03 -0.25298224104E+03  0.39824507935E+03  0.00000000000E+00 0.  1.
<mgrwt>
<rscale>  0 0.12632852E+04</rscale>
<asrwt>0</asrwt>
<pdfrwt beam="1">  1        1 0.17552984E+00 0.12632852E+04</pdfrwt>
<pdfrwt beam="2">  1       -1 0.53797879E-01 0.12632852E+04</pdfrwt>
<totfact> 0.40583249E+01</totfact>
</mgrwt>
</event>
<event>
 6    1  0.1614874E-005  0.6620487E+03  0.7818608E-02  0.9784430E-01
          2   -1    0    0  501    0  0.00000000000E+00  0.00000000000E+00  0.69429974248E+03  0.69429974248E+03  0.00000000000E+00 0. -1.
         -2   -1    0    0    0  501 -0.00000000000E+00 -0.00000000000E+00 -0.15782392852E+03  0.15782392852E+03  0.00000000000E+00 0.  1.
         23    2    1    2    0    0  0.26197873131E+03 -0.50004042778E+02  0.35705984224E+02  0.28475810777E+03  0.93161165100E+02 0.  0.
         11    1    3    3    0    0  0.45024908648E+02 -0.17208125695E+02 -0.28679349668E+02  0.56088029793E+02  0.00000000000E+00 0. -1.
        -11    1    3    3    0    0  0.21695382266E+03 -0.32795917083E+02  0.64385333892E+02  0.22867007798E+03  0.00000000000E+00 0.  1.
         22    1    1    2    0    0 -0.26197873131E+03  0.50004042778E+02  0.50076982974E+03  0.56736556322E+03  0.00000000000E+00 0. -1.
<mgrwt>
<rscale>  0 0.66204868E+03</rscale>
<asrwt>0</asrwt>
<pdfrwt beam="1">  1        2 0.10681534E+00 0.66204868E+03</pdfrwt>
<pdfrwt beam="2">  1       -2 0.24280605E-01 0.66204868E+03</pdfrwt>
<totfact> 0.62919151E+02</totfact>
</mgrwt>
</event>
<event>
 6    1  0.1614874E-005  0.1876526E+04  0.7818608E-02  0.8666630E-01
          1   -1    0    0  501    0  0.00000000000E+00  0.00000000000E+00  0.16113659686E+04  0.16113659686E+04  0.00000000000E+00 0. -1.
         -1   -1    0    0    0  501 -0.00000000000E+00 -0.00000000000E+00 -0.54632988160E+03  0.54632988160E+03  0.00000000000E+00 0.  1.
         23    2    1    2    0    0  0.35060281449E+03  0.84463493978E+03  0.76332729972E+03  0.11947011943E+04  0.91169414443E+02 0.  0.
         11    1    3    3    0    0  0.15349381796E+03  0.29734433149E+03  0.32355681385E+03  0.46547074603E+03  0.00000000000E+00 0.  1.
        -11    1    3    3    0    0  0.19710899652E+03  0.54729060830E+03  0.43977048587E+03  0.72923044827E+03  0.00000000000E+00 0. -1.
         22    1    1    2    0    0 -0.35060281449E+03 -0.84463493978E+03  0.30170878733E+03  0.96299465595E+03  0.00000000000E+00 0.  1.
<mgrwt>
<rscale>  0 0.18765259E+04</rscale>
<asrwt>0</asrwt>
<pdfrwt beam="1">  1        1 0.24790246E+00 0.18765259E+04</pdfrwt>
<pdfrwt beam="2">  1       -1 0.84050752E-01 0.18765259E+04</pdfrwt>
<totfact> 0.72072886E+00</totfact>
</mgrwt>
</event>
<event>
 6    1  0.1614874E-005  0.1222847E+04  0.7818608E-02  0.9093090E-01
          2   -1    0    0  501    0  0.00000000000E+00  0.00000000000E+00  0.65502939870E+03  0.65502939870E+03  0.00000000000E+00 0.  1.
         -2   -1    0    0    0  501 -0.00000000000E+00 -0.00000000000E+00 -0.57072086546E+03  0.57072086546E+03  0.00000000000E+00 0. -1.
         23    2    1    2    0    0 -0.32761255336E+03 -0.18595817814E+03  0.52071988676E+03  0.64923894716E+03  0.91932480168E+02 0.  0.
         11    1    3    3    0    0 -0.20281074122E+03 -0.10312004697E+03  0.23780114933E+03  0.32911294028E+03  0.00000000000E+00 0.  1.
        -11    1    3    3    0    0 -0.12480181214E+03 -0.82838131164E+02  0.28291873744E+03  0.32012600688E+03  0.00000000000E+00 0. -1.
         22    1    1    2    0    0  0.32761255336E+03  0.18595817814E+03 -0.43641135353E+03  0.57651131700E+03  0.00000000000E+00 0. -1.
<mgrwt>
<rscale>  0 0.12228474E+04</rscale>
<asrwt>0</asrwt>
<pdfrwt beam="1">  1        2 0.10077375E+00 0.12228474E+04</pdfrwt>
<pdfrwt beam="2">  1       -2 0.87803210E-01 0.12228474E+04</pdfrwt>
<totfact> 0.49109060E+01</totfact>
</mgrwt>
</event>
<event>
 6    1  0.1614874E-005  0.1422943E+04  0.7818608E-02  0.8937377E-01
          1   -1    0    0  501    0  0.00000000000E+00  0.00000000000E+00  0.15077204458E+04  0.15077204458E+04  0.00000000000E+00 0. -1.
         -1   -1    0    0    0  501 -0.00000000000E+00 -0.00000000000E+00 -0.33573291862E+03  0.33573291862E+03  0.00000000000E+00 0.  1.
         23    2    1    2    0    0  0.64450346653E+03 -0.20112893145E+03  0.86659395685E+03  0.11024386559E+04  0.92457225606E+02 0.  0.
         11    1    3    3    0    0  0.27254231188E+03 -0.69228510425E+02  0.43132404437E+03  0.51489059971E+03  0.00000000000E+00 0.  1.
        -11    1    3    3    0    0  0.37196115465E+03 -0.13190042102E+03  0.43526991248E+03  0.58754805620E+03  0.00000000000E+00 0. -1.
         22    1    1    2    0    0 -0.64450346653E+03  0.20112893145E+03  0.30539357035E+03  0.74101470852E+03  0.00000000000E+00 0.  1.
<mgrwt>
<rscale>  0 0.14229426E+04</rscale>
<asrwt>0</asrwt>
<pdfrwt beam="1">  1        1 0.23195699E+00 0.14229426E+04</pdfrwt>
<pdfrwt beam="2">  1       -1 0.51651219E-01 0.14229426E+04</pdfrwt>
<totfact> 0.23720692E+01</totfact>
</mgrwt>
</event>
<event>
 6    1  0.1614874E-005  0.2422735E+04  0.7818608E-02  0.8431041E-01
         -2   -1    0    0    0  501 -0.00000000000E+00  0.00000000000E+00  0.13254130438E+04  0.13254130438E+04  0.00000000000E+00 0.  1.
          2   -1    0    0  501    0  0.00000000000E+00 -0.00000000000E+00 -0.11071347389E+04  0.11071347389E+04  0.00000000000E+00 0. -1.
         23    2    1    2    0    0  0.99377263274E+03  0.24570272143E+03  0.75633419983E+03  0.12760625823E+04  0.91325895430E+02 0.  0.
         11    1    3    3    0    0  0.61823208684E+03  0.19072029281E+03  0.44624810114E+03  0.78595324992E+03  0.00000000000E+00 0. -1.
        -11    1    3    3    0    0  0.37554054589E+03  0.54982428622E+02  0.31008609869E+03  0.49010933236E+03  0.00000000000E+00 0.  1.
         22    1    1    2    0    0 -0.99377263274E+03 -0.24570272143E+03 -0.53805589493E+03  0.11564852005E+04  0.00000000000E+00 0. -1.
<mgrwt>
<rscale>  0 0.24227347E+04</rscale>
<asrwt>0</asrwt>
<pdfrwt beam="1">  1        2 0.17032842E+00 0.24227347E+04</pdfrwt>
<pdfrwt beam="2">  1       -2 0.20390970E+00 0.24227347E+04</pdfrwt>
<totfact> 0.24269411E+00</totfact>
</mgrwt>
</event>
<event>
 6    1  0.1614874E-005  0.2331786E+04  0.7818608E-02  0.8465493E-01
          2   -1    0    0  501    0  0.00000000000E+00  0.00000000000E+00  0.65090096055E+03  0.65090096055E+03  0.00000000000E+00 0.  1.
         -2   -1    0    0    0  501 -0.00000000000E+00 -0.00000000000E+00 -0.20883455864E+04  0.20883455864E+04  0.00000000000E+00 0. -1.
         23    2    1    2    0    0  0.83386796281E+03 -0.75656903034E+03 -0.37283488637E+03  0.11896897153E+04  0.92861667033E+02 0.  0.
         11    1    3    3    0    0  0.13902058691E+03 -0.16921676518E+03 -0.53462558378E+02  0.22543132514E+03  0.00000000000E+00 0. -1.
        -11    1    3    3    0    0  0.69484737589E+03 -0.58735226515E+03 -0.31937232800E+03  0.96425839019E+03  0.00000000000E+00 0.  1.
         22    1    1    2    0    0 -0.83386796281E+03  0.75656903034E+03 -0.10646097395E+04  0.15495568316E+04  0.00000000000E+00 0. -1.
<mgrwt>
<rscale>  0 0.23317857E+04</rscale>
<asrwt>0</asrwt>
<pdfrwt beam="1">  1        2 0.10013861E+00 0.23317857E+04</pdfrwt>
<pdfrwt beam="2">  1       -2 0.32128393E+00 0.23317857E+04</pdfrwt>
<totfact> 0.95485760E-01</totfact>
</mgrwt>
</event>
<event>
 6    1  0.1614874E-005  0.4630505E+04  0.7818608E-02  0.7888179E-01
         -2   -1    0    0    0  501 -0.00000000000E+00  0.00000000000E+00  0.18648431060E+04  0.18648431060E+04  0.00000000000E+00 0.  1.
          2   -1    0    0  501    0  0.00000000000E+00 -0.00000000000E+00 -0.28744475432E+04  0.28744475432E+04  0.00000000000E+00 0. -1.
         23    2    1    2    0    0  0.35926273274E+03 -0.22552279873E+04 -0.88960273964E+03  0.24524755291E+04  0.90112156534E+02 0.  0.
         11    1    3    3    0    0  0.20564599217E+03 -0.14602403732E+04 -0.53778861581E+03  0.15696524510E+04  0.00000000000E+00 0.  1.
        -11    1    3    3    0    0  0.15361674057E+03 -0.79498761409E+03 -0.35181412383E+03  0.88282307812E+03  0.00000000000E+00 0. -1.
         22    1    1    2    0    0 -0.35926273274E+03  0.22552279873E+04 -0.12000169752E+03  0.22868151200E+04  0.00000000000E+00 0.  1.
<mgrwt>
<rscale>  0 0.46305048E+04</rscale>
<asrwt>0</asrwt>
<pdfrwt beam="1">  1        2 0.44222270E+00 0.46305048E+04</pdfrwt>
<pdfrwt beam="2">  1       -2 0.28689894E+00 0.46305048E+04</pdfrwt>
<totfact> 0.59675568E-02</totfact>
</mgrwt>
</event>
<event>
 6    1  0.1614874E-005  0.1974625E+04  0.7818608E-02  0.8618577E-01
         -2   -1    0    0    0  501 -0.00000000000E+00  0.00000000000E+00  0.26389317665E+03  0.26389317665E+03  0.00000000000E+00 0.  1.
          2   -1    0    0  501    0  0.00000000000E+00 -0.00000000000E+00 -0.36938664565E+04  0.36938664565E+04  0.00000000000E+00 0. -1.
         23    2    1    2    0    0 -0.70496948948E+03  0.64008814489E+03 -0.22246940373E+04  0.24217281013E+04  0.93854262939E+02 0.  0.
         13    1    3    3    0    0 -0.77747808301E+02  0.56302877713E+02 -0.16470382488E+03  0.19063600306E+03  0.00000000000E+00 0.  1.
        -13    1    3    3    0    0 -0.62722168117E+03  0.58378526718E+03 -0.20599902124E+04  0.22310920982E+04  0.00000000000E+00 0. -1.
         22    1    1    2    0    0  0.70496948948E+03 -0.64008814489E+03 -0.12052792426E+04  0.15360315319E+04  0.00000000000E+00 0.  1.
<mgrwt>
<rscale>  0 0.19746252E+04</rscale>
<asrwt>0</asrwt>
<pdfrwt beam="1">  1        2 0.56828717E+00 0.19746252E+04</pdfrwt>
<pdfrwt beam="2">  1       -2 0.40598949E-01 0.19746252E+04</pdfrwt>
<totfact> 0.31785190E+00</totfact>
</mgrwt>
</event>
<event>
 6    1  0.1614874E-005  0.1437524E+04  0.7818608E-02  0.8927096E-01
          2   -1    0    0  501    0  0.00000000000E+00  0.00000000000E+00  0.18785160392E+04  0.18785160392E+04  0.00000000000E+00 0. -1.
         -2   -1    0    0    0  501 -0.00000000000E+00 -0.00000000000E+00 -0.27501433461E+03  0.27501433461E+03  0.00000000000E+00 0.  1.
         23    2    1    2    0    0 -0.25623053864E+03 -0.62776902788E+03  0.46127699055E+03  0.82521364250E+03  0.91940483253E+02 0.  0.
         13    1    3    3    0    0 -0.21025473743E+03 -0.43987436285E+03  0.36569262161E+03  0.60944860587E+03  0.00000000000E+00 0. -1.
        -13    1    3    3    0    0 -0.45975801214E+02 -0.18789466503E+03  0.95584368937E+02  0.21576503663E+03  0.00000000000E+00 0.  1.
         22    1    1    2    0    0  0.25623053864E+03  0.62776902788E+03  0.11422247140E+04  0.13283167313E+04  0.00000000000E+00 0. -1.
<mgrwt>
<rscale>  0 0.14375240E+04</rscale>
<asrwt>0</asrwt>
<pdfrwt beam="1">  1        2 0.28900246E+00 0.14375240E+04</pdfrwt>
<pdfrwt beam="2">  1       -2 0.42309899E-01 0.14375240E+04</pdfrwt>
<totfact> 0.40120631E+01</totfact>
</mgrwt>
</event>
<event>
 6    1  0.1614874E-005  0.2957965E+04  0.7818608E-02  0.8255837E-01
          1   -1    0    0  501    0  0.00000000000E+00  0.00000000000E+00  0.14047226436E+04  0.14047226436E+04  0.00000000000E+00 0. -1.
         -1   -1    0    0    0  501 -0.00000000000E+00 -0.00000000000E+00 -0.15571677081E+04  0.15571677081E+04  0.00000000000E+00 0.  1.
         23    2    1    2    0    0  0.10607761479E+04 -0.65148778440E+03  0.72068166648E+03  0.14413533881E+04  0.91843105086E+02 0.  0.
         11    1    3    3    0    0  0.75720987910E+03 -0.42443866205E+03  0.52933430235E+03  0.10167151924E+04  0.00000000000E+00 0. -1.
        -11    1    3    3    0    0  0.30356626877E+03 -0.22704912235E+03  0.19134736412E+03  0.42463819570E+03  0.00000000000E+00 0.  1.
         22    1    1    2    0    0 -0.10607761479E+04  0.65148778440E+03 -0.87312673104E+03  0.15205369636E+04  0.00000000000E+00 0.  1.
<mgrwt>
<rscale>  0 0.29579647E+04</rscale>
<asrwt>0</asrwt>
<pdfrwt beam="1">  1        1 0.21611118E+00 0.29579647E+04</pdfrwt>
<pdfrwt beam="2">  1       -1 0.23956426E+00 0.29579647E+04</pdfrwt>
<totfact> 0.53145891E-01</totfact>
</mgrwt>
</event>
<event>
 6    1  0.1614874E-005  0.2909136E+04  0.7818608E-02  0.8270164E-01
          1   -1    0    0  501    0  0.00000000000E+00  0.00000000000E+00  0.25515938207E+04  0.25515938207E+04  0.00000000000E+00 0. -1.
         -1   -1    0    0    0  501 -0.00000000000E+00 -0.00000000000E+00 -0.82919483307E+03  0.82919483307E+03  0.00000000000E+00 0.  1.
         23    2    1    2    0    0 -0.53736102588E+03 -0.72470447052E+03  0.21857030642E+04  0.23665874364E+04  0.97389772432E+02 0.  0.
         13    1    3    3    0    0 -0.24810996929E+03 -0.41414234888E+03  0.11913799120E+04  0.12854798858E+04  0.00000000000E+00 0. -1.
        -13    1    3    3    0    0 -0.28925105659E+03 -0.31056212164E+03  0.99432315219E+03  0.10811075507E+04  0.00000000000E+00 0.  1.
         22    1    1    2    0    0  0.53736102588E+03  0.72470447052E+03 -0.46330407661E+03  0.10142012173E+04  0.00000000000E+00 0.  1.
<mgrwt>
<rscale>  0 0.29091362E+04</rscale>
<asrwt>0</asrwt>
<pdfrwt beam="1">  1        1 0.39255289E+00 0.29091362E+04</pdfrwt>
<pdfrwt beam="2">  1       -1 0.12756844E+00 0.29091362E+04</pdfrwt>
<totfact> 0.56871239E-01</totfact>
</mgrwt>
</event>
<event>
 6    1  0.1614874E-005  0.1552877E+04  0.7818608E-02  0.8850032E-01
          2   -1    0    0  501    0  0.00000000000E+00  0.00000000000E+00  0.25510864418E+04  0.25510864418E+04  0.00000000000E+00 0.  1.
         -2   -1    0    0    0  501 -0.00000000000E+00 -0.00000000000E+00 -0.23631365160E+03  0.23631365160E+03  0.00000000000E+00 0. -1.
         23    2    1    2    0    0  0.48371528483E+03  0.43600061363E+03  0.41077879623E+03  0.77512025676E+03  0.89415776851E+02 0.  0.
         11    1    3    3    0    0  0.28002805602E+03  0.30497686197E+03  0.23740662993E+03  0.47727194180E+03  0.00000000000E+00 0.  1.
        -11    1    3    3    0    0  0.20368722881E+03  0.13102375166E+03  0.17337216629E+03  0.29784831496E+03  0.00000000000E+00 0. -1.
         22    1    1    2    0    0 -0.48371528483E+03 -0.43600061363E+03  0.19039939940E+04  0.20122798367E+04  0.00000000000E+00 0.  1.
<mgrwt>
<rscale>  0 0.15528768E+04</rscale>
<asrwt>0</asrwt>
<pdfrwt beam="1">  1        2 0.39247482E+00 0.15528768E+04</pdfrwt>
<pdfrwt beam="2">  1       -2 0.36355948E-01 0.15528768E+04</pdfrwt>
<totfact> 0.22339521E+01</totfact>
</mgrwt>
</event>
<event>
 6    1  0.1614874E-005  0.3384289E+04  0.7818608E-02  0.8141773E-01
          1   -1    0    0  501    0  0.00000000000E+00  0.00000000000E+00  0.49895762786E+04  0.49895762786E+04  0.00000000000E+00 0. -1.
         -1   -1    0    0    0  501 -0.00000000000E+00 -0.00000000000E+00 -0.57386682538E+03  0.57386682538E+03  0.00000000000E+00 0.  1.
         23    2    1    2    0    0  0.14110479298E+04  0.73632546918E+03  0.12707176360E+04  0.20386445300E+04  0.90093021204E+02 0.  0.
         11    1    3    3    0    0  0.69950942748E+03  0.32064417634E+03  0.64160147635E+03  0.10018875094E+04  0.00000000000E+00 0.  1.
        -11    1    3    3    0    0  0.71153850233E+03  0.41568129284E+03  0.62911615968E+03  0.10367570207E+04  0.00000000000E+00 0. -1.
         22    1    1    2    0    0 -0.14110479298E+04 -0.73632546918E+03  0.31449918172E+04  0.35247985740E+04  0.00000000000E+00 0.  1.
<mgrwt>
<rscale>  0 0.33842886E+04</rscale>
<asrwt>0</asrwt>
<pdfrwt beam="1">  1        1 0.76762709E+00 0.33842886E+04</pdfrwt>
<pdfrwt beam="2">  1       -1 0.88287207E-01 0.33842886E+04</pdfrwt>
<totfact> 0.92108632E-03</totfact>
</mgrwt>
</event>
<event>
 6    1  0.1614874E-005  0.2427362E+04  0.7818608E-02  0.8429330E-01
          1   -1    0    0  501    0  0.00000000000E+00  0.00000000000E+00  0.11929526495E+04  0.11929526495E+04  0.00000000000E+00 0. -1.
         -1   -1    0    0    0  501 -0.00000000000E+00 -0.00000000000E+00 -0.12347696003E+04  0.12347696003E+04  0.00000000000E+00 0.  1.
         23    2    1    2    0    0 -0.33680829192E+02  0.11948269792E+04  0.17882722740E+03  0.12122265642E+04  0.93638438332E+02 0.  0.
         13    1    3    3    0    0  0.80893295398E+01  0.45530324122E+03  0.10900966121E+03  0.46824094754E+03  0.00000000000E+00 0. -1.
        -13    1    3    3    0    0 -0.41770158732E+02  0.73952373797E+03  0.69817566188E+02  0.74398561661E+03  0.00000000000E+00 0.  1.
         22    1    1    2    0    0  0.33680829192E+02 -0.11948269792E+04 -0.22064417816E+03  0.12154956856E+04  0.00000000000E+00 0.  1.
<mgrwt>
<rscale>  0 0.24273621E+04</rscale>
<asrwt>0</asrwt>
<pdfrwt beam="1">  1        1 0.18353118E+00 0.24273621E+04</pdfrwt>
<pdfrwt beam="2">  1       -1 0.18996455E+00 0.24273621E+04</pdfrwt>
<totfact> 0.17092493E+00</totfact>
</mgrwt>
</event>
<event>
 6    1  0.1614874E-005  0.1507062E+04  0.7818608E-02  0.8879771E-01
         -2   -1    0    0    0  501 -0.00000000000E+00  0.00000000000E+00  0.11574825964E+04  0.11574825964E+04  0.00000000000E+00 0.  1.
          2   -1    0    0  501    0  0.00000000000E+00 -0.00000000000E+00 -0.49055480226E+03  0.49055480226E+03  0.00000000000E+00 0. -1.
         23    2    1    2    0    0  0.44477983445E+03  0.59822723209E+03  0.43246386346E+03  0.86657834209E+03  0.90708915976E+02 0.  0.
         13    1    3    3    0    0  0.19684699633E+03  0.32220997887E+03  0.18384728402E+03  0.41996170574E+03  0.00000000000E+00 0. -1.
        -13    1    3    3    0    0  0.24793283812E+03  0.27601725322E+03  0.24861657944E+03  0.44661663635E+03  0.00000000000E+00 0.  1.
         22    1    1    2    0    0 -0.44477983445E+03 -0.59822723209E+03  0.23446393071E+03  0.78145905660E+03  0.00000000000E+00 0. -1.
<mgrwt>
<rscale>  0 0.15070616E+04</rscale>
<asrwt>0</asrwt>
<pdfrwt beam="1">  1        2 0.75469969E-01 0.15070616E+04</pdfrwt>
<pdfrwt beam="2">  1       -2 0.17807425E+00 0.15070616E+04</pdfrwt>
<totfact> 0.11356646E+01</totfact>
</mgrwt>
</event>
<event>
 6    1  0.1614874E-005  0.1331159E+04  0.7818608E-02  0.9005214E-01
          1   -1    0    0  501    0  0.00000000000E+00  0.00000000000E+00  0.77501405517E+03  0.77501405517E+03  0.00000000000E+00 0. -1.
         -1   -1    0    0    0  501 -0.00000000000E+00 -0.00000000000E+00 -0.57159725418E+03  0.57159725418E+03  0.00000000000E+00 0.  1.
         23    2    1    2    0    0  0.35098424423E+03  0.36807174640E+03 -0.32731537403E+03  0.61153077513E+03  0.90375796862E+02 0.  0.
         11    1    3    3    0    0  0.13457603801E+03  0.12542487238E+03 -0.16940921901E+03  0.25008317037E+03  0.00000000000E+00 0.  1.
        -11    1    3    3    0    0  0.21640820621E+03  0.24264687402E+03 -0.15790615502E+03  0.36144760475E+03  0.00000000000E+00 0. -1.
         22    1    1    2    0    0 -0.35098424423E+03 -0.36807174640E+03  0.53073217502E+03  0.73508053422E+03  0.00000000000E+00 0. -1.
<mgrwt>
<rscale>  0 0.13311588E+04</rscale>
<asrwt>0</asrwt>
<pdfrwt beam="1">  1        1 0.11923293E+00 0.13311588E+04</pdfrwt>
<pdfrwt beam="2">  1       -1 0.87938039E-01 0.13311588E+04</pdfrwt>
<totfact> 0.28995682E+01</totfact>
</mgrwt>
</event>
<event>
 6    1  0.1614874E-005  0.4343051E+04  0.7818608E-02  0.7938705E-01
          2   -1    0    0  501    0  0.00000000000E+00  0.00000000000E+00  0.44797544716E+04  0.44797544716E+04  0.00000000000E+00 0. -1.
         -2   -1    0    0    0  501 -0.00000000000E+00 -0.00000000000E+00 -0.10526297292E+04  0.10526297292E+04  0.00000000000E+00 0.  1.
         23    2    1    2    0    0 -0.55394609487E+03 -0.20986780720E+04  0.17216877704E+04  0.27719818404E+04  0.91480154001E+02 0.  0.
         11    1    3    3    0    0 -0.23942504013E+03 -0.10156811625E+04  0.87386214819E+03  0.13610906023E+04  0.00000000000E+00 0.  1.
        -11    1    3    3    0    0 -0.31452105473E+03 -0.10829969096E+04  0.84782562223E+03  0.14108912381E+04  0.00000000000E+00 0. -1.
         22    1    1    2    0    0  0.55394609487E+03  0.20986780720E+04  0.17054369720E+04  0.27604023604E+04  0.00000000000E+00 0.  1.
<mgrwt>
<rscale>  0 0.43430509E+04</rscale>
<asrwt>0</asrwt>
<pdfrwt beam="1">  1        2 0.68919299E+00 0.43430509E+04</pdfrwt>
<pdfrwt beam="2">  1       -2 0.16194304E+00 0.43430509E+04</pdfrwt>
<totfact> 0.23896870E-02</totfact>
</mgrwt>
</event>
<event>
 6    1  0.1614874E-005  0.7026394E+03  0.7818608E-02  0.9712729E-01
          2   -1    0    0  501    0  0.00000000000E+00  0.00000000000E+00  0.66085381448E+03  0.66085381448E+03  0.00000000000E+00 0.  1.
         -2   -1    0    0    0  501 -0.00000000000E+00 -0.00000000000E+00 -0.18676674852E+03  0.18676674852E+03  0.00000000000E+00 0. -1.
         23    2    1    2    0    0  0.12233165236E+03 -0.27884825930E+03  0.40185379707E+02  0.31753372274E+03  0.80569320787E+02 0.  0.
         13    1    3    3    0    0  0.12384838578E+03 -0.19686564800E+03  0.36727050645E+02  0.23546418469E+03  0.00000000000E+00 0.  1.
        -13    1    3    3    0    0 -0.15167334222E+01 -0.81982611302E+02  0.34583290627E+01  0.82069538052E+02  0.00000000000E+00 0. -1.
         22    1    1    2    0    0 -0.12233165236E+03  0.27884825930E+03  0.43390168625E+03  0.53008684026E+03  0.00000000000E+00 0.  1.
<mgrwt>
<rscale>  0 0.70263936E+03</rscale>
<asrwt>0</asrwt>
<pdfrwt beam="1">  1        2 0.10166982E+00 0.70263936E+03</pdfrwt>
<pdfrwt beam="2">  1       -2 0.28733346E-01 0.70263936E+03</pdfrwt>
<totfact> 0.49223900E+02</totfact>
</mgrwt>
</event>
<event>
 6    1  0.1614874E-005  0.1863933E+04  0.7818608E-02  0.8673021E-01
          2   -1    0    0  501    0  0.00000000000E+00  0.00000000000E+00  0.74123115442E+03  0.74123115442E+03  0.00000000000E+00 0. -1.
         -2   -1    0    0    0  501 -0.00000000000E+00 -0.00000000000E+00 -0.11717820018E+04  0.11717820018E+04  0.00000000000E+00 0.  1.
         23    2    1    2    0    0 -0.87330957354E+02 -0.76865976535E+03  0.31250394811E+03  0.84035526104E+03  0.10036790420E+03 0.  0.
         11    1    3    3    0    0 -0.58967789037E+02 -0.58221255583E+03  0.18913835171E+03  0.61499754179E+03  0.00000000000E+00 0. -1.
        -11    1    3    3    0    0 -0.28363168317E+02 -0.18644720952E+03  0.12336559639E+03  0.22535771925E+03  0.00000000000E+00 0.  1.
         22    1    1    2    0    0  0.87330957354E+02  0.76865976535E+03 -0.74305479549E+03  0.10726578952E+04  0.00000000000E+00 0.  1.
<mgrwt>
<rscale>  0 0.18639328E+04</rscale>
<asrwt>0</asrwt>
<pdfrwt beam="1">  1        2 0.11403556E+00 0.18639328E+04</pdfrwt>
<pdfrwt beam="2">  1       -2 0.18027415E+00 0.18639328E+04</pdfrwt>
<totfact> 0.64526202E+00</totfact>
</mgrwt>
</event>
<event>
 6    1  0.1614874E-005  0.4589944E+03  0.7818608E-02  0.1025073E+00
          4   -1    0    0  501    0  0.00000000000E+00  0.00000000000E+00  0.20866871143E+03  0.20866871143E+03  0.00000000000E+00 0. -1.
         -4   -1    0    0    0  501 -0.00000000000E+00 -0.00000000000E+00 -0.25240466654E+03  0.25240466654E+03  0.00000000000E+00 0.  1.
         23    2    1    2    0    0 -0.10957277439E+03  0.13345000027E+03 -0.16034168050E+03  0.25271793490E+03  0.91333480478E+02 0.  0.
         11    1    3    3    0    0 -0.75167286374E+02  0.71038131776E+02 -0.36204055132E+02  0.10957769260E+03  0.00000000000E+00 0.  1.
        -11    1    3    3    0    0 -0.34405488015E+02  0.62411868490E+02 -0.12413762537E+03  0.14314024230E+03  0.00000000000E+00 0. -1.
         22    1    1    2    0    0  0.10957277439E+03 -0.13345000027E+03  0.11660572540E+03  0.20835544306E+03  0.00000000000E+00 0. -1.
<mgrwt>
<rscale>  0 0.45899436E+03</rscale>
<asrwt>0</asrwt>
<pdfrwt beam="1">  1        4 0.32102879E-01 0.45899436E+03</pdfrwt>
<pdfrwt beam="2">  1       -4 0.38831487E-01 0.45899436E+03</pdfrwt>
<totfact> 0.11781035E+02</totfact>
</mgrwt>
</event>
<event>
 6    1  0.1614874E-005  0.2697263E+04  0.7818608E-02  0.8335894E-01
         -2   -1    0    0    0  501 -0.00000000000E+00  0.00000000000E+00  0.84375821587E+03  0.84375821587E+03  0.00000000000E+00 0. -1.
          2   -1    0    0  501    0  0.00000000000E+00 -0.00000000000E+00 -0.21556017865E+04  0.21556017865E+04  0.00000000000E+00 0.  1.
         23    2    1    2    0    0 -0.23365251796E+03  0.57718238562E+03 -0.19850081549E+04  0.20823629670E+04  0.90802785479E+02 0.  0.
         13    1    3    3    0    0 -0.14878931953E+03  0.39296457493E+03 -0.11945272096E+04  0.12662759072E+04  0.00000000000E+00 0.  1.
        -13    1    3    3    0    0 -0.84863198428E+02  0.18421781069E+03 -0.79048094533E+03  0.81608705979E+03  0.00000000000E+00 0. -1.
         22    1    1    2    0    0  0.23365251796E+03 -0.57718238562E+03  0.67316458426E+03  0.91699703539E+03  0.00000000000E+00 0. -1.
<mgrwt>
<rscale>  0 0.26972628E+04</rscale>
<asrwt>0</asrwt>
<pdfrwt beam="1">  1        2 0.33163104E+00 0.26972628E+04</pdfrwt>
<pdfrwt beam="2">  1       -2 0.12980896E+00 0.26972628E+04</pdfrwt>
<totfact> 0.20919859E+00</totfact>
</mgrwt>
</event>
<event>
 6    1  0.1614874E-005  0.4984629E+04  0.7818608E-02  0.7830883E-01
         -1   -1    0    0    0  501 -0.00000000000E+00  0.00000000000E+00  0.15283256570E+04  0.15283256570E+04  0.00000000000E+00 0.  1.
          1   -1    0    0  501    0  0.00000000000E+00 -0.00000000000E+00 -0.40643368924E+04  0.40643368924E+04  0.00000000000E+00 0. -1.
         23    2    1    2    0    0  0.22694780693E+04 -0.47561969224E+03 -0.22909378922E+04  0.32609666553E+04  0.93607169212E+02 0.  0.
         11    1    3    3    0    0  0.10495358751E+04 -0.25846675345E+03 -0.10286660329E+04  0.14921408857E+04  0.00000000000E+00 0.  1.
        -11    1    3    3    0    0  0.12199421943E+04 -0.21715293878E+03 -0.12622718594E+04  0.17688257696E+04  0.00000000000E+00 0. -1.
         22    1    1    2    0    0 -0.22694780693E+04  0.47561969224E+03 -0.24507334314E+03  0.23316958941E+04  0.00000000000E+00 0.  1.
<mgrwt>
<rscale>  0 0.49846285E+04</rscale>
<asrwt>0</asrwt>
<pdfrwt beam="1">  1        1 0.62528259E+00 0.49846285E+04</pdfrwt>
<pdfrwt beam="2">  1       -1 0.23512703E+00 0.49846285E+04</pdfrwt>
<totfact> 0.52874682E-03</totfact>
</mgrwt>
</event>
<event>
 6    1  0.1614874E-005  0.1973638E+04  0.7818608E-02  0.8619046E-01
         -1   -1    0    0    0  501 -0.00000000000E+00  0.00000000000E+00  0.12686511568E+04  0.12686511568E+04  0.00000000000E+00 0.  1.
          1   -1    0    0  501    0  0.00000000000E+00 -0.00000000000E+00 -0.76759622599E+03  0.76759622599E+03  0.00000000000E+00 0. -1.
         23    2    1    2    0    0  0.14951707518E+03 -0.49829209952E+03 -0.61152852374E+03  0.80804043136E+03  0.91169244467E+02 0.  0.
         13    1    3    3    0    0  0.39929517997E+02 -0.28458187830E+03 -0.31341482102E+03  0.42521766414E+03  0.00000000000E+00 0. -1.
        -13    1    3    3    0    0  0.10958755719E+03 -0.21371022122E+03 -0.29811370272E+03  0.38282276721E+03  0.00000000000E+00 0.  1.
         22    1    1    2    0    0 -0.14951707518E+03  0.49829209952E+03  0.11125834545E+04  0.12282069514E+04  0.00000000000E+00 0.  1.
<mgrwt>
<rscale>  0 0.19736381E+04</rscale>
<asrwt>0</asrwt>
<pdfrwt beam="1">  1        1 0.11809173E+00 0.19736381E+04</pdfrwt>
<pdfrwt beam="2">  1       -1 0.19517710E+00 0.19736381E+04</pdfrwt>
<totfact> 0.35688516E+00</totfact>
</mgrwt>
</event>
<event>
 6    1  0.1614874E-005  0.4223129E+04  0.7818608E-02  0.7960987E-01
         -2   -1    0    0    0  501 -0.00000000000E+00  0.00000000000E+00  0.23416876159E+04  0.23416876159E+04  0.00000000000E+00 0.  1.
          2   -1    0    0  501    0  0.00000000000E+00 -0.00000000000E+00 -0.19040561417E+04  0.19040561417E+04  0.00000000000E+00 0. -1.
         23    2    1    2    0    0 -0.64059634757E+03 -0.30300279457E+03 -0.17797401323E+04  0.19178882605E+04  0.92984230694E+02 0.  0.
         11    1    3    3    0    0 -0.51703182433E+03 -0.28138206351E+03 -0.14968397289E+04  0.16084237461E+04  0.00000000000E+00 0. -1.
        -11    1    3    3    0    0 -0.12356452324E+03 -0.21620731057E+02 -0.28290040342E+03  0.30946451439E+03  0.00000000000E+00 0.  1.
         22    1    1    2    0    0  0.64059634757E+03  0.30300279457E+03  0.22173716066E+04  0.23278554971E+04  0.00000000000E+00 0.  1.
<mgrwt>
<rscale>  0 0.42231290E+04</rscale>
<asrwt>0</asrwt>
<pdfrwt beam="1">  1        2 0.29293171E+00 0.42231290E+04</pdfrwt>
<pdfrwt beam="2">  1       -2 0.36025963E+00 0.42231290E+04</pdfrwt>
<totfact> 0.78396895E-02</totfact>
</mgrwt>
</event>
<event>
 6    1  0.1614874E-005  0.2368718E+04  0.7818608E-02  0.8451309E-01
          2   -1    0    0  501    0  0.00000000000E+00  0.00000000000E+00  0.10039942487E+04  0.10039942487E+04  0.00000000000E+00 0. -1.
         -2   -1    0    0    0  501 -0.00000000000E+00 -0.00000000000E+00 -0.13971260095E+04  0.13971260095E+04  0.00000000000E+00 0.  1.
         23    2    1    2    0    0  0.17184253590E+03 -0.41953004160E+03 -0.13040216011E+04  0.13836451410E+04  0.92012102710E+02 0.  0.
         13    1    3    3    0    0  0.90980850024E+02 -0.22447138720E+03 -0.55763662564E+03  0.60796671373E+03  0.00000000000E+00 0. -1.
        -13    1    3    3    0    0  0.80861685880E+02 -0.19505865440E+03 -0.74638497550E+03  0.77567842728E+03  0.00000000000E+00 0.  1.
         22    1    1    2    0    0 -0.17184253590E+03  0.41953004160E+03  0.91088984034E+03  0.10174751172E+04  0.00000000000E+00 0. -1.
<mgrwt>
<rscale>  0 0.23687182E+04</rscale>
<asrwt>0</asrwt>
<pdfrwt beam="1">  1        2 0.15446065E+00 0.23687182E+04</pdfrwt>
<pdfrwt beam="2">  1       -2 0.21494246E+00 0.23687182E+04</pdfrwt>
<totfact> 0.24023433E+00</totfact>
</mgrwt>
</event>
<event>
 6    1  0.1614874E-005  0.5433307E+03  0.7818608E-02  0.1003049E+00
         -2   -1    0    0    0  501 -0.00000000000E+00  0.00000000000E+00  0.39810511778E+02  0.39810511778E+02  0.00000000000E+00 0. -1.
          2   -1    0    0  501    0  0.00000000000E+00 -0.00000000000E+00 -0.18538334863E+04  0.18538334863E+04  0.00000000000E+00 0.  1.
         23    2    1    2    0    0 -0.18322943312E+03 -0.14433267709E+03 -0.13632045080E+04  0.13860592893E+04  0.91808910095E+02 0.  0.
         11    1    3    3    0    0 -0.11980456744E+03 -0.10638754058E+03 -0.11332173961E+04  0.11444881432E+04  0.00000000000E+00 0.  1.
        -11    1    3    3    0    0 -0.63424865685E+02 -0.37945136507E+02 -0.22998711191E+03  0.24157114608E+03  0.00000000000E+00 0. -1.
         22    1    1    2    0    0  0.18322943312E+03  0.14433267709E+03 -0.45081846657E+03  0.50758470883E+03  0.00000000000E+00 0. -1.
<mgrwt>
<rscale>  0 0.54333069E+03</rscale>
<asrwt>0</asrwt>
<pdfrwt beam="1">  1        2 0.28520512E+00 0.54333069E+03</pdfrwt>
<pdfrwt beam="2">  1       -2 0.61246948E-02 0.54333069E+03</pdfrwt>
<totfact> 0.12478652E+03</totfact>
</mgrwt>
</event>
<event>
 6    1  0.1614874E-005  0.8477670E+03  0.7818608E-02  0.9493339E-01
          2   -1    0    0  501    0  0.00000000000E+00  0.00000000000E+00  0.14678419143E+04  0.14678419143E+04  0.00000000000E+00 0. -1.
         -2   -1    0    0    0  501 -0.00000000000E+00 -0.00000000000E+00 -0.12240911786E+03  0.12240911786E+03  0.00000000000E+00 0.  1.
         23    2    1    2    0    0  0.50299564420E+02  0.41572353907E+03  0.71759869162E+03  0.83557774505E+03  0.88804159157E+02 0.  0.
         13    1    3    3    0    0  0.37008304537E+02  0.15611943689E+03  0.20028071580E+03  0.25662279381E+03  0.00000000000E+00 0. -1.
        -13    1    3    3    0    0  0.13291259883E+02  0.25960410217E+03  0.51731797582E+03  0.57895495123E+03  0.00000000000E+00 0.  1.
         22    1    1    2    0    0 -0.50299564420E+02 -0.41572353907E+03  0.62783410481E+03  0.75467328711E+03  0.00000000000E+00 0. -1.
<mgrwt>
<rscale>  0 0.84776703E+03</rscale>
<asrwt>0</asrwt>
<pdfrwt beam="1">  1        2 0.22582182E+00 0.84776703E+03</pdfrwt>
<pdfrwt beam="2">  1       -2 0.18832173E-01 0.84776703E+03</pdfrwt>
<totfact> 0.31592720E+02</totfact>
</mgrwt>
</event>
<event>
 6    1  0.1614874E-005  0.3002469E+04  0.7818608E-02  0.8243026E-01
         -2   -1    0    0    0  501 -0.00000000000E+00  0.00000000000E+00  0.84506200590E+03  0.84506200590E+03  0.00000000000E+00 0.  1.
          2   -1    0    0  501    0  0.00000000000E+00 -0.00000000000E+00 -0.26669116902E+04  0.26669116902E+04  0.00000000000E+00 0. -1.
         23    2    1    2    0    0 -0.56547262648E+03  0.13488622566E+04 -0.12996377301E+04  0.19589463287E+04  0.96040671887E+02 0.  0.
         13    1    3    3    0    0 -0.97985612405E+02  0.18903561983E+03 -0.22953158052E+03  0.31308208549E+03  0.00000000000E+00 0.  1.
        -13    1    3    3    0    0 -0.46748701407E+03  0.11598266368E+04 -0.10701061496E+04  0.16458642432E+04  0.00000000000E+00 0. -1.
         22    1    1    2    0    0  0.56547262648E+03 -0.13488622566E+04 -0.52221195419E+03  0.15530273674E+04  0.00000000000E+00 0.  1.
<mgrwt>
<rscale>  0 0.30024695E+04</rscale>
<asrwt>0</asrwt>
<pdfrwt beam="1">  1        2 0.41029411E+00 0.30024695E+04</pdfrwt>
<pdfrwt beam="2">  1       -2 0.13000954E+00 0.30024695E+04</pdfrwt>
<totfact> 0.10322423E+00</totfact>
</mgrwt>
</event>
<event>
 6    1  0.1614874E-005  0.2036910E+04  0.7818608E-02  0.8589556E-01
          1   -1    0    0  501    0  0.00000000000E+00  0.00000000000E+00  0.94025280156E+03  0.94025280156E+03  0.00000000000E+00 0. -1.
         -1   -1    0    0    0  501 -0.00000000000E+00 -0.00000000000E+00 -0.11031617647E+04  0.11031617647E+04  0.00000000000E+00 0.  1.
         23    2    1    2    0    0 -0.26287227257E+03 -0.91945456550E+03 -0.42761164025E+03  0.10511615556E+04  0.87122738115E+02 0.  0.
         13    1    3    3    0    0 -0.14671351352E+03 -0.49653947330E+03 -0.18410567189E+03  0.54951906429E+03  0.00000000000E+00 0. -1.
        -13    1    3    3    0    0 -0.11615875906E+03 -0.42291509220E+03 -0.24350596835E+03  0.50164249136E+03  0.00000000000E+00 0.  1.
         22    1    1    2    0    0  0.26287227257E+03  0.91945456550E+03  0.26470267715E+03  0.99225301057E+03  0.00000000000E+00 0. -1.
<mgrwt>
<rscale>  0 0.20369103E+04</rscale>
<asrwt>0</asrwt>
<pdfrwt beam="1">  1        1 0.14465428E+00 0.20369103E+04</pdfrwt>
<pdfrwt beam="2">  1       -1 0.16971719E+00 0.20369103E+04</pdfrwt>
<totfact> 0.38584346E+00</totfact>
</mgrwt>
</event>
<event>
 6    1  0.1614874E-005  0.2459144E+04  0.7818608E-02  0.8417687E-01
         -2   -1    0    0    0  501 -0.00000000000E+00  0.00000000000E+00  0.95435169108E+03  0.95435169108E+03  0.00000000000E+00 0.  1.
          2   -1    0    0  501    0  0.00000000000E+00 -0.00000000000E+00 -0.15841619814E+04  0.15841619814E+04  0.00000000000E+00 0. -1.
         23    2    1    2    0    0  0.55764533582E+03  0.79116689717E+03 -0.10951786008E+04  0.14645113242E+04  0.91999300623E+02 0.  0.
         11    1    3    3    0    0  0.38489213418E+03  0.52167753255E+03 -0.79336510678E+03  0.10245572681E+04  0.00000000000E+00 0.  1.
        -11    1    3    3    0    0  0.17275320163E+03  0.26948936462E+03 -0.30181349399E+03  0.43995405609E+03  0.00000000000E+00 0. -1.
         22    1    1    2    0    0 -0.55764533582E+03 -0.79116689717E+03  0.46536831048E+03  0.10740023483E+04  0.00000000000E+00 0.  1.
<mgrwt>
<rscale>  0 0.24591443E+04</rscale>
<asrwt>0</asrwt>
<pdfrwt beam="1">  1        2 0.24371723E+00 0.24591443E+04</pdfrwt>
<pdfrwt beam="2">  1       -2 0.14682334E+00 0.24591443E+04</pdfrwt>
<totfact> 0.32301416E+00</totfact>
</mgrwt>
</event>
<event>
 6    1  0.1614874E-005  0.4054990E+04  0.7818608E-02  0.7993544E-01
          2   -1    0    0  501    0  0.00000000000E+00  0.00000000000E+00  0.33363186144E+04  0.33363186144E+04  0.00000000000E+00 0. -1.
         -2   -1    0    0    0  501 -0.00000000000E+00 -0.00000000000E+00 -0.12321171262E+04  0.12321171262E+04  0.00000000000E+00 0.  1.
         23    2    1    2    0    0 -0.12200391637E+04  0.46396737903E+03  0.27990370848E+04  0.30897343522E+04  0.89935949286E+02 0.  0.
         11    1    3    3    0    0 -0.60836356447E+03  0.27944945933E+03  0.14315040188E+04  0.15803170513E+04  0.00000000000E+00 0. -1.
        -11    1    3    3    0    0 -0.61167559928E+03  0.18451791969E+03  0.13675330660E+04  0.15094173009E+04  0.00000000000E+00 0.  1.
         22    1    1    2    0    0  0.12200391637E+04 -0.46396737903E+03 -0.69483559654E+03  0.14787013884E+04  0.00000000000E+00 0.  1.
<mgrwt>
<rscale>  0 0.40549897E+04</rscale>
<asrwt>0</asrwt>
<pdfrwt beam="1">  1        2 0.51327978E+00 0.40549897E+04</pdfrwt>
<pdfrwt beam="2">  1       -2 0.18955648E+00 0.40549897E+04</pdfrwt>
<totfact> 0.12891128E-01</totfact>
</mgrwt>
</event>
<event>
 6    1  0.1614874E-005  0.1826826E+04  0.7818608E-02  0.8692163E-01
          2   -1    0    0  501    0  0.00000000000E+00  0.00000000000E+00  0.56641771925E+03  0.56641771925E+03  0.00000000000E+00 0. -1.
         -2   -1    0    0    0  501 -0.00000000000E+00 -0.00000000000E+00 -0.14729819248E+04  0.14729819248E+04  0.00000000000E+00 0.  1.
         23    2    1    2    0    0  0.62225590627E+03  0.41009859838E+03 -0.10397359187E+04  0.12823540850E+04  0.89431232291E+02 0.  0.
         11    1    3    3    0    0  0.21401767712E+03  0.93411019409E+02 -0.34325843424E+03  0.41515724412E+03  0.00000000000E+00 0.  1.
        -11    1    3    3    0    0  0.40823822915E+03  0.31668757898E+03 -0.69647748446E+03  0.86719684085E+03  0.00000000000E+00 0. -1.
         22    1    1    2    0    0 -0.62225590627E+03 -0.41009859838E+03  0.13317171320E+03  0.75704555905E+03  0.00000000000E+00 0. -1.
<mgrwt>
<rscale>  0 0.18268257E+04</rscale>
<asrwt>0</asrwt>
<pdfrwt beam="1">  1        2 0.87141189E-01 0.18268257E+04</pdfrwt>
<pdfrwt beam="2">  1       -2 0.22661260E+00 0.18268257E+04</pdfrwt>
<totfact> 0.44933882E+00</totfact>
</mgrwt>
</event>
<event>
 6    1  0.1614874E-005  0.3216750E+04  0.7818608E-02  0.8184408E-01
         -2   -1    0    0    0  501 -0.00000000000E+00  0.00000000000E+00  0.21357114301E+04  0.21357114301E+04  0.00000000000E+00 0.  1.
          2   -1    0    0  501    0  0.00000000000E+00 -0.00000000000E+00 -0.12112447919E+04  0.12112447919E+04  0.00000000000E+00 0. -1.
         23    2    1    2    0    0  0.10183643803E+04  0.86592001845E+03  0.13908955898E+04  0.19311739449E+04  0.89211961625E+02 0.  0.
         11    1    3    3    0    0  0.15691636297E+03  0.11791551060E+03  0.16376319500E+03  0.25562706556E+03  0.00000000000E+00 0.  1.
        -11    1    3    3    0    0  0.86144801737E+03  0.74800450785E+03  0.12271323948E+04  0.16755468793E+04  0.00000000000E+00 0. -1.
         22    1    1    2    0    0 -0.10183643803E+04 -0.86592001845E+03 -0.46642895157E+03  0.14157822772E+04  0.00000000000E+00 0. -1.
<mgrwt>
<rscale>  0 0.32167495E+04</rscale>
<asrwt>0</asrwt>
<pdfrwt beam="1">  1        2 0.18634535E+00 0.32167495E+04</pdfrwt>
<pdfrwt beam="2">  1       -2 0.32857099E+00 0.32167495E+04</pdfrwt>
<totfact> 0.33219537E-01</totfact>
</mgrwt>
</event>
<event>
 6    1  0.1614874E-005  0.4068525E+04  0.7818608E-02  0.7990864E-01
         -1   -1    0    0    0  501 -0.00000000000E+00  0.00000000000E+00  0.23366111372E+04  0.23366111372E+04  0.00000000000E+00 0.  1.
          1   -1    0    0  501    0  0.00000000000E+00 -0.00000000000E+00 -0.17710363878E+04  0.17710363878E+04  0.00000000000E+00 0. -1.
         23    2    1    2    0    0  0.39150561272E+03 -0.13552700678E+04 -0.11954546551E+04  0.18512658718E+04  0.89665458190E+02 0.  0.
         11    1    3    3    0    0  0.31321571384E+03 -0.93963259147E+03 -0.84893425238E+03  0.13044933328E+04  0.00000000000E+00 0.  1.
        -11    1    3    3    0    0  0.78289898872E+02 -0.41563747631E+03 -0.34652040267E+03  0.54677253904E+03  0.00000000000E+00 0. -1.
         22    1    1    2    0    0 -0.39150561272E+03  0.13552700678E+04  0.17610294045E+04  0.22563816532E+04  0.00000000000E+00 0.  1.
<mgrwt>
<rscale>  0 0.40685247E+04</rscale>
<asrwt>0</asrwt>
<pdfrwt beam="1">  1        1 0.27246713E+00 0.40685247E+04</pdfrwt>
<pdfrwt beam="2">  1       -1 0.35947864E+00 0.40685247E+04</pdfrwt>
<totfact> 0.44568833E-02</totfact>
</mgrwt>
</event>
<event>
 6    1  0.1614874E-005  0.4170967E+04  0.7818608E-02  0.7970918E-01
          1   -1    0    0  501    0  0.00000000000E+00  0.00000000000E+00  0.28501499833E+04  0.28501499833E+04  0.00000000000E+00 0. -1.
         -1   -1    0    0    0  501 -0.00000000000E+00 -0.00000000000E+00 -0.15259692044E+04  0.15259692044E+04  0.00000000000E+00 0.  1.
         23    2    1    2    0    0 -0.13384762102E+04 -0.15909226805E+04  0.50421473717E+03  0.21411923767E+04  0.88987371303E+02 0.  0.
         13    1    3    3    0    0 -0.17157455469E+03 -0.22663682516E+03  0.41535673008E+02  0.28727563501E+03  0.00000000000E+00 0. -1.
        -13    1    3    3    0    0 -0.11669016556E+04 -0.13642858553E+04  0.46267906416E+03  0.18539167417E+04  0.00000000000E+00 0.  1.
         22    1    1    2    0    0  0.13384762102E+04  0.15909226805E+04  0.81996604174E+03  0.22349268109E+04  0.00000000000E+00 0. -1.
<mgrwt>
<rscale>  0 0.41709668E+04</rscale>
<asrwt>0</asrwt>
<pdfrwt beam="1">  1        1 0.43848461E+00 0.41709668E+04</pdfrwt>
<pdfrwt beam="2">  1       -1 0.23476449E+00 0.41709668E+04</pdfrwt>
<totfact> 0.51972048E-02</totfact>
</mgrwt>
</event>
<event>
 6    1  0.1614874E-005  0.2884661E+04  0.7818608E-02  0.8277456E-01
         -2   -1    0    0    0  501 -0.00000000000E+00  0.00000000000E+00  0.14047811207E+04  0.14047811207E+04  0.00000000000E+00 0.  1.
          2   -1    0    0  501    0  0.00000000000E+00 -0.00000000000E+00 -0.14808838677E+04  0.14808838677E+04  0.00000000000E+00 0. -1.
         23    2    1    2    0    0 -0.18160951933E+03  0.10016116453E+04  0.98058779747E+03  0.14184217187E+04  0.11899511770E+03 0.  0.
         11    1    3    3    0    0 -0.11216662802E+03  0.37566330867E+03  0.32385028646E+03  0.50851084743E+03  0.00000000000E+00 0. -1.
        -11    1    3    3    0    0 -0.69442891313E+02  0.62594833666E+03  0.65673751101E+03  0.90991087129E+03  0.00000000000E+00 0.  1.
         22    1    1    2    0    0  0.18160951933E+03 -0.10016116453E+04 -0.10566905445E+04  0.14672432697E+04  0.00000000000E+00 0. -1.
<mgrwt>
<rscale>  0 0.28846613E+04</rscale>
<asrwt>0</asrwt>
<pdfrwt beam="1">  1        2 0.22782829E+00 0.28846613E+04</pdfrwt>
<pdfrwt beam="2">  1       -2 0.21612017E+00 0.28846613E+04</pdfrwt>
<totfact> 0.11765694E+00</totfact>
</mgrwt>
</event>
<event>
 6    1  0.1614874E-005  0.1224466E+04  0.7818608E-02  0.9091707E-01
          2   -1    0    0  501    0  0.00000000000E+00  0.00000000000E+00  0.88190291228E+03  0.88190291228E+03  0.00000000000E+00 0. -1.
         -2   -1    0    0    0  501 -0.00000000000E+00 -0.00000000000E+00 -0.42502353465E+03  0.42502353465E+03  0.00000000000E+00 0.  1.
         23    2    1    2    0    0  0.11794847579E+03 -0.25986306607E+03  0.80370835192E+03  0.85778171141E+03  0.91660751841E+02 0.  0.
         13    1    3    3    0    0  0.38462880495E+02 -0.83188604486E+02  0.39485178429E+03  0.40534882342E+03  0.00000000000E+00 0. -1.
        -13    1    3    3    0    0  0.79485595295E+02 -0.17667446159E+03  0.40885656763E+03  0.45243288798E+03  0.00000000000E+00 0.  1.
         22    1    1    2    0    0 -0.11794847579E+03  0.25986306607E+03 -0.34682897428E+03  0.44914473553E+03  0.00000000000E+00 0.  1.
<mgrwt>
<rscale>  0 0.12244664E+04</rscale>
<asrwt>0</asrwt>
<pdfrwt beam="1">  1        2 0.13567737E+00 0.12244664E+04</pdfrwt>
<pdfrwt beam="2">  1       -2 0.65388236E-01 0.12244664E+04</pdfrwt>
<totfact> 0.64073646E+01</totfact>
</mgrwt>
</event>
<event>
 6    1  0.1614874E-005  0.1666533E+04  0.7818608E-02  0.8780685E-01
         -2   -1    0    0    0  501 -0.00000000000E+00  0.00000000000E+00  0.91699177145E+03  0.91699177145E+03  0.00000000000E+00 0.  1.
          2   -1    0    0  501    0  0.00000000000E+00 -0.00000000000E+00 -0.75718586811E+03  0.75718586811E+03  0.00000000000E+00 0. -1.
         23    2    1    2    0    0  0.81056128201E+02 -0.53406562648E+03 -0.55408697858E+03  0.77894625263E+03  0.89155456064E+02 0.  0.
         11    1    3    3    0    0  0.83466272185E+02 -0.44099201139E+03 -0.41311568573E+03  0.61000421515E+03  0.00000000000E+00 0. -1.
        -11    1    3    3    0    0 -0.24101439849E+01 -0.93073615081E+02 -0.14097129285E+03  0.16894203747E+03  0.00000000000E+00 0.  1.
         22    1    1    2    0    0 -0.81056128201E+02  0.53406562648E+03  0.71389288192E+03  0.89523138694E+03  0.00000000000E+00 0.  1.
<mgrwt>
<rscale>  0 0.16665332E+04</rscale>
<asrwt>0</asrwt>
<pdfrwt beam="1">  1        2 0.11649013E+00 0.16665332E+04</pdfrwt>
<pdfrwt beam="2">  1       -2 0.14107566E+00 0.16665332E+04</pdfrwt>
<totfact> 0.12435787E+01</totfact>
</mgrwt>
</event>
<event>
 6    1  0.1614874E-005  0.1366238E+04  0.7818608E-02  0.8978627E-01
         -2   -1    0    0    0  501 -0.00000000000E+00  0.00000000000E+00  0.30303593681E+03  0.30303593681E+03  0.00000000000E+00 0.  1.
          2   -1    0    0  501    0  0.00000000000E+00 -0.00000000000E+00 -0.15399210251E+04  0.15399210251E+04  0.00000000000E+00 0. -1.
         23    2    1    2    0    0 -0.21267892120E+03 -0.34173634328E+02 -0.14913672465E+04  0.15095483092E+04  0.90330910101E+02 0.  0.
         11    1    3    3    0    0 -0.12675593548E+03 -0.42648187855E+01 -0.58297144673E+03  0.59660788091E+03  0.00000000000E+00 0.  1.
        -11    1    3    3    0    0 -0.85922985718E+02 -0.29908815542E+02 -0.90839579973E+03  0.91294042834E+03  0.00000000000E+00 0. -1.
         22    1    1    2    0    0  0.21267892120E+03  0.34173634328E+02  0.25448215820E+03  0.33340865263E+03  0.00000000000E+00 0.  1.
<mgrwt>
<rscale>  0 0.13662378E+04</rscale>
<asrwt>0</asrwt>
<pdfrwt beam="1">  1        2 0.23691092E+00 0.13662378E+04</pdfrwt>
<pdfrwt beam="2">  1       -2 0.46620915E-01 0.13662378E+04</pdfrwt>
<totfact> 0.51276153E+01</totfact>
</mgrwt>
</event>
<event>
 6    1  0.1614874E-005  0.4636136E+04  0.7818608E-02  0.7887227E-01
         -2   -1    0    0    0  501 -0.00000000000E+00  0.00000000000E+00  0.26953706762E+04  0.26953706762E+04  0.00000000000E+00 0.  1.
          2   -1    0    0  501    0  0.00000000000E+00 -0.00000000000E+00 -0.19935811811E+04  0.19935811811E+04  0.00000000000E+00 0. -1.
         23    2    1    2    0    0  0.11059321437E+04  0.52967033927E+02 -0.17077375439E+04  0.20372143203E+04  0.89349062229E+02 0.  0.
         13    1    3    3    0    0  0.60470076112E+03  0.62246437543E+02 -0.88152087693E+03  0.10708018892E+04  0.00000000000E+00 0. -1.
        -13    1    3    3    0    0  0.50123138258E+03 -0.92794036157E+01 -0.82621666694E+03  0.96641243107E+03  0.00000000000E+00 0.  1.
         22    1    1    2    0    0 -0.11059321437E+04 -0.52967033927E+02  0.24095270390E+04  0.26517375369E+04  0.00000000000E+00 0.  1.
<mgrwt>
<rscale>  0 0.46361364E+04</rscale>
<asrwt>0</asrwt>
<pdfrwt beam="1">  1        2 0.30670480E+00 0.46361364E+04</pdfrwt>
<pdfrwt beam="2">  1       -2 0.41467241E+00 0.46361364E+04</pdfrwt>
<totfact> 0.30031314E-02</totfact>
</mgrwt>
</event>
<event>
 6    1  0.1614874E-005  0.9474966E+03  0.7818608E-02  0.9368082E-01
          1   -1    0    0  501    0  0.00000000000E+00  0.00000000000E+00  0.16082365424E+04  0.16082365424E+04  0.00000000000E+00 0. -1.
         -1   -1    0    0    0  501 -0.00000000000E+00 -0.00000000000E+00 -0.13955498709E+03  0.13955498709E+03  0.00000000000E+00 0.  1.
         23    2    1    2    0    0  0.10565713250E+03 -0.94586914659E+02  0.15664279776E+04  0.15755577432E+04  0.92603882726E+02 0.  0.
         11    1    3    3    0    0  0.30937038927E+02 -0.35490790463E+02  0.18670720014E+03  0.19255200640E+03  0.00000000000E+00 0.  1.
        -11    1    3    3    0    0  0.74720093573E+02 -0.59096124196E+02  0.13797207775E+04  0.13830057368E+04  0.00000000000E+00 0. -1.
         22    1    1    2    0    0 -0.10565713250E+03  0.94586914659E+02 -0.97746422284E+02  0.17223378630E+03  0.00000000000E+00 0.  1.
<mgrwt>
<rscale>  0 0.94749655E+03</rscale>
<asrwt>0</asrwt>
<pdfrwt beam="1">  1        1 0.24742099E+00 0.94749655E+03</pdfrwt>
<pdfrwt beam="2">  1       -1 0.21469999E-01 0.94749655E+03</pdfrwt>
<totfact> 0.10066870E+02</totfact>
</mgrwt>
</event>
<event>
 6    1  0.1614874E-005  0.3007499E+04  0.7818608E-02  0.8241593E-01
         -2   -1    0    0    0  501 -0.00000000000E+00  0.00000000000E+00  0.88558779942E+03  0.88558779942E+03  0.00000000000E+00 0.  1.
          2   -1    0    0  501    0  0.00000000000E+00 -0.00000000000E+00 -0.25534025461E+04  0.25534025461E+04  0.00000000000E+00 0. -1.
         23    2    1    2    0    0 -0.73677832634E+03 -0.34938652830E+03  0.60818823795E+03  0.10213255974E+04  0.91103209415E+02 0.  0.
         11    1    3    3    0    0 -0.18249917300E+03 -0.44979883881E+02  0.14809489157E+03  0.23929319884E+03  0.00000000000E+00 0.  1.
        -11    1    3    3    0    0 -0.55427915334E+03 -0.30440664442E+03  0.46009334639E+03  0.78203239855E+03  0.00000000000E+00 0. -1.
         22    1    1    2    0    0  0.73677832634E+03  0.34938652830E+03 -0.22760029846E+04  0.24176647482E+04  0.00000000000E+00 0. -1.
<mgrwt>
<rscale>  0 0.30074987E+04</rscale>
<asrwt>0</asrwt>
<pdfrwt beam="1">  1        2 0.39283116E+00 0.30074987E+04</pdfrwt>
<pdfrwt beam="2">  1       -2 0.13624428E+00 0.30074987E+04</pdfrwt>
<totfact> 0.10680705E+00</totfact>
</mgrwt>
</event>
<event>
 6    1  0.1614874E-005  0.1155684E+04  0.7818608E-02  0.9152556E-01
          1   -1    0    0  501    0  0.00000000000E+00  0.00000000000E+00  0.11142429210E+04  0.11142429210E+04  0.00000000000E+00 0. -1.
         -1   -1    0    0    0  501 -0.00000000000E+00 -0.00000000000E+00 -0.29966672247E+03  0.29966672247E+03  0.00000000000E+00 0.  1.
         23    2    1    2    0    0  0.52230083299E+02 -0.18185478904E+03  0.10731967783E+04  0.10934665905E+04  0.90103904231E+02 0.  0.
         13    1    3    3    0    0  0.39914861801E+02 -0.77619231391E+02  0.71196332272E+03  0.71729332505E+03  0.00000000000E+00 0. -1.
        -13    1    3    3    0    0  0.12315221499E+02 -0.10423555765E+03  0.36123345561E+03  0.37617326541E+03  0.00000000000E+00 0.  1.
         22    1    1    2    0    0 -0.52230083299E+02  0.18185478904E+03 -0.25862057982E+03  0.32044305298E+03  0.00000000000E+00 0.  1.
<mgrwt>
<rscale>  0 0.11556843E+04</rscale>
<asrwt>0</asrwt>
<pdfrwt beam="1">  1        1 0.17142199E+00 0.11556843E+04</pdfrwt>
<pdfrwt beam="2">  1       -1 0.46102573E-01 0.11556843E+04</pdfrwt>
<totfact> 0.57449026E+01</totfact>
</mgrwt>
</event>
<event>
 6    1  0.1886048E-005  0.4492566E+04  0.7818608E-02  0.7911940E-01
         -2   -1    0    0    0  501 -0.00000000000E+00  0.00000000000E+00  0.13075108170E+04  0.13075108170E+04  0.00000000000E+00 0.  1.
          2   -1    0    0  501    0  0.00000000000E+00 -0.00000000000E+00 -0.38590783318E+04  0.38590783318E+04  0.00000000000E+00 0. -1.
         23    2    1    2    0    0 -0.79824962085E+03  0.20614665893E+04 -0.82390944809E+03  0.23609431712E+04  0.91536455938E+02 0.  0.
         11    1    3    3    0    0 -0.29165357228E+03  0.83052560320E+03 -0.29065957261E+03  0.92699383544E+03  0.00000000000E+00 0. -1.
        -11    1    3    3    0    0 -0.50659604857E+03  0.12309409861E+04 -0.53324987548E+03  0.14339493357E+04  0.00000000000E+00 0.  1.
         22    1    1    2    0    0  0.79824962085E+03 -0.20614665893E+04 -0.17276580668E+04  0.28056459776E+04  0.00000000000E+00 0. -1.
<mgrwt>
<rscale>  0 0.44925657E+04</rscale>
<asrwt>0</asrwt>
<pdfrwt beam="1">  1        2 0.59370436E+00 0.44925657E+04</pdfrwt>
<pdfrwt beam="2">  1       -2 0.20115551E+00 0.44925657E+04</pdfrwt>
<totfact> 0.43687681E-02</totfact>
</mgrwt>
</event>
<event>
 6    1  0.1720613E-005  0.4130227E+04  0.7818608E-02  0.7978779E-01
         -2   -1    0    0    0  501 -0.00000000000E+00  0.00000000000E+00  0.22720637630E+04  0.22720637630E+04  0.00000000000E+00 0.  1.
          2   -1    0    0  501    0  0.00000000000E+00 -0.00000000000E+00 -0.18770134372E+04  0.18770134372E+04  0.00000000000E+00 0. -1.
         23    2    1    2    0    0 -0.24022119140E+03 -0.13376214356E+04 -0.13630253680E+04  0.19269684111E+04  0.91824712436E+02 0.  0.
         11    1    3    3    0    0 -0.13090576735E+03 -0.74498494092E+03 -0.69386058261E+03  0.10264411285E+04  0.00000000000E+00 0. -1.
        -11    1    3    3    0    0 -0.10931542406E+03 -0.59263649471E+03 -0.66916478537E+03  0.90052728264E+03  0.00000000000E+00 0.  1.
         22    1    1    2    0    0  0.24022119140E+03  0.13376214356E+04  0.17580756938E+04  0.22221087892E+04  0.00000000000E+00 0.  1.
<mgrwt>
<rscale>  0 0.41302272E+04</rscale>
<asrwt>0</asrwt>
<pdfrwt beam="1">  1        2 0.28877130E+00 0.41302272E+04</pdfrwt>
<pdfrwt beam="2">  1       -2 0.34954827E+00 0.41302272E+04</pdfrwt>
<totfact> 0.95583006E-02</totfact>
</mgrwt>
</event>
<event>
 6    1  0.1825192E-005  0.3443212E+04  0.7818608E-02  0.8127381E-01
          1   -1    0    0  501    0  0.00000000000E+00  0.00000000000E+00  0.19017714813E+04  0.19017714813E+04  0.00000000000E+00 0. -1.
         -1   -1    0    0    0  501 -0.00000000000E+00 -0.00000000000E+00 -0.15585088518E+04  0.15585088518E+04  0.00000000000E+00 0.  1.
         23    2    1    2    0    0 -0.35982978473E+03 -0.16496549758E+04 -0.16046008739E+03  0.16982997462E+04  0.87381777534E+02 0.  0.
         11    1    3    3    0    0 -0.20925887483E+03 -0.11137272330E+04 -0.82884358957E+02  0.11362426868E+04  0.00000000000E+00 0. -1.
        -11    1    3    3    0    0 -0.15057090990E+03 -0.53592774281E+03 -0.77575728437E+02  0.56205705944E+03  0.00000000000E+00 0.  1.
         22    1    1    2    0    0  0.35982978473E+03  0.16496549758E+04  0.50372271692E+03  0.17619805869E+04  0.00000000000E+00 0. -1.
<mgrwt>
<rscale>  0 0.34432123E+04</rscale>
<asrwt>0</asrwt>
<pdfrwt beam="1">  1        1 0.29258023E+00 0.34432123E+04</pdfrwt>
<pdfrwt beam="2">  1       -1 0.23977059E+00 0.34432123E+04</pdfrwt>
<totfact> 0.23172732E-01</totfact>
</mgrwt>
</event>
<event>
 6    1  0.1614874E-005  0.2092359E+04  0.7818608E-02  0.8564617E-01
          1   -1    0    0  501    0  0.00000000000E+00  0.00000000000E+00  0.72239806150E+03  0.72239806150E+03  0.00000000000E+00 0. -1.
         -1   -1    0    0    0  501 -0.00000000000E+00 -0.00000000000E+00 -0.15150812710E+04  0.15150812710E+04  0.00000000000E+00 0.  1.
         23    2    1    2    0    0  0.67345033403E+03 -0.65436593985E+03  0.91549376134E+02  0.94767415297E+03  0.89302162945E+02 0.  0.
         13    1    3    3    0    0  0.53192823461E+03 -0.46856892506E+03  0.85767993957E+02  0.71404525983E+03  0.00000000000E+00 0. -1.
        -13    1    3    3    0    0  0.14152209942E+03 -0.18579701480E+03  0.57813821774E+01  0.23362889314E+03  0.00000000000E+00 0.  1.
         22    1    1    2    0    0 -0.67345033403E+03  0.65436593985E+03 -0.88423258567E+03  0.12898051796E+04  0.00000000000E+00 0.  1.
<mgrwt>
<rscale>  0 0.20923592E+04</rscale>
<asrwt>0</asrwt>
<pdfrwt beam="1">  1        1 0.11113816E+00 0.20923592E+04</pdfrwt>
<pdfrwt beam="2">  1       -1 0.23308942E+00 0.20923592E+04</pdfrwt>
<totfact> 0.21510712E+00</totfact>
</mgrwt>
</event>
<event>
 6    1  0.1614874E-005  0.9338923E+03  0.7818608E-02  0.9384179E-01
         -1   -1    0    0    0  501 -0.00000000000E+00  0.00000000000E+00  0.78696034185E+03  0.78696034185E+03  0.00000000000E+00 0.  1.
          1   -1    0    0  501    0  0.00000000000E+00 -0.00000000000E+00 -0.27706441845E+03  0.27706441845E+03  0.00000000000E+00 0. -1.
         23    2    1    2    0    0 -0.65184372971E+02 -0.42122973350E+03  0.52892203583E+02  0.43909605174E+03  0.91237418797E+02 0.  0.
         13    1    3    3    0    0 -0.68645651818E+02 -0.17709365040E+03  0.42976946524E+02  0.19473418924E+03  0.00000000000E+00 0. -1.
        -13    1    3    3    0    0  0.34612788472E+01 -0.24413608309E+03  0.99152570584E+01  0.24436186250E+03  0.00000000000E+00 0.  1.
         22    1    1    2    0    0  0.65184372971E+02  0.42122973350E+03  0.45700371982E+03  0.62492870856E+03  0.00000000000E+00 0.  1.
<mgrwt>
<rscale>  0 0.93389231E+03</rscale>
<asrwt>0</asrwt>
<pdfrwt beam="1">  1        1 0.42625296E-01 0.93389231E+03</pdfrwt>
<pdfrwt beam="2">  1       -1 0.12107082E+00 0.93389231E+03</pdfrwt>
<totfact> 0.59308966E+01</totfact>
</mgrwt>
</event>
<event>
 6    1  0.1614874E-005  0.8406892E+03  0.7818608E-02  0.9502919E-01
         -1   -1    0    0    0  501 -0.00000000000E+00  0.00000000000E+00  0.10715770004E+03  0.10715770004E+03  0.00000000000E+00 0.  1.
          1   -1    0    0  501    0  0.00000000000E+00 -0.00000000000E+00 -0.16488744299E+04  0.16488744299E+04  0.00000000000E+00 0. -1.
         23    2    1    2    0    0 -0.27992233488E+02 -0.36503615681E+03 -0.11895512992E+04  0.12480405439E+04  0.92401000862E+02 0.  0.
         13    1    3    3    0    0  0.94017087629E-02 -0.92805471433E+02 -0.45020503824E+03  0.45967100417E+03  0.00000000000E+00 0. -1.
        -13    1    3    3    0    0 -0.28001635197E+02 -0.27223068538E+03 -0.73934626095E+03  0.78836953976E+03  0.00000000000E+00 0.  1.
         22    1    1    2    0    0  0.27992233488E+02  0.36503615681E+03 -0.35216543072E+03  0.50799158606E+03  0.00000000000E+00 0. -1.
<mgrwt>
<rscale>  0 0.84068922E+03</rscale>
<asrwt>0</asrwt>
<pdfrwt beam="1">  1        1 0.25367297E+00 0.84068922E+03</pdfrwt>
<pdfrwt beam="2">  1       -1 0.16485801E-01 0.84068922E+03</pdfrwt>
<totfact> 0.14774608E+02</totfact>
</mgrwt>
</event>
<event>
 6    1  0.1614874E-005  0.2562271E+04  0.7818608E-02  0.8381131E-01
         -1   -1    0    0    0  501 -0.00000000000E+00  0.00000000000E+00  0.21533829766E+04  0.21533829766E+04  0.00000000000E+00 0.  1.
          1   -1    0    0  501    0  0.00000000000E+00 -0.00000000000E+00 -0.76219963617E+03  0.76219963617E+03  0.00000000000E+00 0. -1.
         23    2    1    2    0    0 -0.24025823202E+03  0.89196522232E+03 -0.31041089723E+03  0.97941399266E+03  0.97830813292E+02 0.  0.
         11    1    3    3    0    0 -0.15722803896E+03  0.62890129160E+03 -0.26269535882E+03  0.69946146596E+03  0.00000000000E+00 0. -1.
        -11    1    3    3    0    0 -0.83030193060E+02  0.26306393072E+03 -0.47715538406E+02  0.27995252670E+03  0.00000000000E+00 0.  1.
         22    1    1    2    0    0  0.24025823202E+03 -0.89196522232E+03  0.17015942377E+04  0.19361686201E+04  0.00000000000E+00 0.  1.
<mgrwt>
<rscale>  0 0.25622707E+04</rscale>
<asrwt>0</asrwt>
<pdfrwt beam="1">  1        1 0.11726148E+00 0.25622707E+04</pdfrwt>
<pdfrwt beam="2">  1       -1 0.33128969E+00 0.25622707E+04</pdfrwt>
<totfact> 0.43570660E-01</totfact>
</mgrwt>
</event>
<event>
 6    1  0.1614874E-005  0.1597397E+04  0.7818608E-02  0.8822149E-01
          2   -1    0    0  501    0  0.00000000000E+00  0.00000000000E+00  0.69548487489E+03  0.69548487489E+03  0.00000000000E+00 0. -1.
         -2   -1    0    0    0  501 -0.00000000000E+00 -0.00000000000E+00 -0.91722931503E+03  0.91722931503E+03  0.00000000000E+00 0.  1.
         23    2    1    2    0    0 -0.20401262628E+03 -0.30839512776E+03 -0.82311780956E+03  0.90675481719E+03  0.89177707838E+02 0.  0.
         11    1    3    3    0    0 -0.11778690042E+03 -0.21444931993E+03 -0.44658750564E+03  0.50921769895E+03  0.00000000000E+00 0.  1.
        -11    1    3    3    0    0 -0.86225725853E+02 -0.93945807825E+02 -0.37653030393E+03  0.39753711824E+03  0.00000000000E+00 0. -1.
         22    1    1    2    0    0  0.20401262628E+03  0.30839512776E+03  0.60137336942E+03  0.70595937274E+03  0.00000000000E+00 0. -1.
<mgrwt>
<rscale>  0 0.15973968E+04</rscale>
<asrwt>0</asrwt>
<pdfrwt beam="1">  1        2 0.10699767E+00 0.15973968E+04</pdfrwt>
<pdfrwt beam="2">  1       -2 0.14111220E+00 0.15973968E+04</pdfrwt>
<totfact> 0.13933875E+01</totfact>
</mgrwt>
</event>
<event>
 6    1  0.1614874E-005  0.2969754E+04  0.7818608E-02  0.8252421E-01
          2   -1    0    0  501    0  0.00000000000E+00  0.00000000000E+00  0.23144483899E+04  0.23144483899E+04  0.00000000000E+00 0. -1.
         -2   -1    0    0    0  501 -0.00000000000E+00 -0.00000000000E+00 -0.95265016205E+03  0.95265016205E+03  0.00000000000E+00 0.  1.
         23    2    1    2    0    0 -0.11368663499E+04  0.50017372132E+01  0.17299785322E+04  0.20720894092E+04  0.90767191615E+02 0.  0.
         13    1    3    3    0    0 -0.53055178689E+03  0.17415150170E+02  0.73023378826E+03  0.90279004843E+03  0.00000000000E+00 0. -1.
        -13    1    3    3    0    0 -0.60631456299E+03 -0.12413412957E+02  0.99974474391E+03  0.11692993608E+04  0.00000000000E+00 0.  1.
         22    1    1    2    0    0  0.11368663499E+04 -0.50017372132E+01 -0.36818030429E+03  0.11950091428E+04  0.00000000000E+00 0.  1.
<mgrwt>
<rscale>  0 0.29697540E+04</rscale>
<asrwt>0</asrwt>
<pdfrwt beam="1">  1        2 0.35606898E+00 0.29697540E+04</pdfrwt>
<pdfrwt beam="2">  1       -2 0.14656156E+00 0.29697540E+04</pdfrwt>
<totfact> 0.12160684E+00</totfact>
</mgrwt>
</event>
<event>
 6    1  0.1614874E-005  0.3102774E+03  0.7818608E-02  0.1080213E+00
          2   -1    0    0  501    0  0.00000000000E+00  0.00000000000E+00  0.11380120096E+04  0.11380120096E+04  0.00000000000E+00 0.  1.
         -2   -1    0    0    0  501 -0.00000000000E+00 -0.00000000000E+00 -0.21149173680E+02  0.21149173680E+02  0.00000000000E+00 0. -1.
         23    2    1    2    0    0  0.11496746302E+03  0.21664058031E+02  0.90605733464E+03  0.91806823786E+03  0.90678259454E+02 0.  0.
         13    1    3    3    0    0 -0.15839266317E-01 -0.16030777826E+00  0.34185144394E+03  0.34185148190E+03  0.00000000000E+00 0. -1.
        -13    1    3    3    0    0  0.11498330229E+03  0.21824365809E+02  0.56420589070E+03  0.57621675596E+03  0.00000000000E+00 0.  1.
         22    1    1    2    0    0 -0.11496746302E+03 -0.21664058031E+02  0.21080550129E+03  0.24109294543E+03  0.00000000000E+00 0. -1.
<mgrwt>
<rscale>  0 0.31027738E+03</rscale>
<asrwt>0</asrwt>
<pdfrwt beam="1">  1        2 0.17507872E+00 0.31027738E+03</pdfrwt>
<pdfrwt beam="2">  1       -2 0.32537199E-02 0.31027738E+03</pdfrwt>
<totfact> 0.81558754E+03</totfact>
</mgrwt>
</event>
<event>
 6    1  0.1614874E-005  0.4887884E+04  0.7818608E-02  0.7846039E-01
         -2   -1    0    0    0  501 -0.00000000000E+00  0.00000000000E+00  0.16217179497E+04  0.16217179497E+04  0.00000000000E+00 0.  1.
          2   -1    0    0  501    0  0.00000000000E+00 -0.00000000000E+00 -0.36830396258E+04  0.36830396258E+04  0.00000000000E+00 0. -1.
         23    2    1    2    0    0 -0.70544695198E+03  0.20802037751E+04 -0.21917935674E+04  0.31043198775E+04  0.89105060316E+02 0.  0.
         13    1    3    3    0    0 -0.51534203885E+03  0.15071425557E+04 -0.16444371935E+04  0.22893732295E+04  0.00000000000E+00 0. -1.
        -13    1    3    3    0    0 -0.19010491312E+03  0.57306121940E+03 -0.54735637386E+03  0.81494664805E+03  0.00000000000E+00 0.  1.
         22    1    1    2    0    0  0.70544695198E+03 -0.20802037751E+04  0.13047189130E+03  0.22004376979E+04  0.00000000000E+00 0.  1.
<mgrwt>
<rscale>  0 0.48878836E+04</rscale>
<asrwt>0</asrwt>
<pdfrwt beam="1">  1        2 0.56662147E+00 0.48878836E+04</pdfrwt>
<pdfrwt beam="2">  1       -2 0.24949507E+00 0.48878836E+04</pdfrwt>
<totfact> 0.28481526E-02</totfact>
</mgrwt>
</event>
<event>
 6    1  0.1614874E-005  0.2560688E+04  0.7818608E-02  0.8381679E-01
          1   -1    0    0  501    0  0.00000000000E+00  0.00000000000E+00  0.11696873445E+04  0.11696873445E+04  0.00000000000E+00 0. -1.
         -1   -1    0    0    0  501 -0.00000000000E+00 -0.00000000000E+00 -0.14014689211E+04  0.14014689211E+04  0.00000000000E+00 0.  1.
         23    2    1    2    0    0  0.44224419138E+03  0.99421339769E+03  0.55795470640E+03  0.12266401438E+04  0.96397007235E+02 0.  0.
         13    1    3    3    0    0  0.12182557865E+03  0.18055213099E+03  0.11826705531E+03  0.24784600055E+03  0.00000000000E+00 0. -1.
        -13    1    3    3    0    0  0.32041861273E+03  0.81366126670E+03  0.43968765109E+03  0.97879414324E+03  0.00000000000E+00 0.  1.
         22    1    1    2    0    0 -0.44224419138E+03 -0.99421339769E+03 -0.78973628303E+03  0.13445161218E+04  0.00000000000E+00 0.  1.
<mgrwt>
<rscale>  0 0.25606878E+04</rscale>
<asrwt>0</asrwt>
<pdfrwt beam="1">  1        1 0.17995190E+00 0.25606878E+04</pdfrwt>
<pdfrwt beam="2">  1       -1 0.21561060E+00 0.25606878E+04</pdfrwt>
<totfact> 0.11709216E+00</totfact>
</mgrwt>
</event>
<event>
 6    1  0.1614874E-005  0.1114911E+04  0.7818608E-02  0.9190780E-01
         -1   -1    0    0    0  501 -0.00000000000E+00  0.00000000000E+00  0.60687728841E+03  0.60687728841E+03  0.00000000000E+00 0.  1.
          1   -1    0    0  501    0  0.00000000000E+00 -0.00000000000E+00 -0.51205801625E+03  0.51205801625E+03  0.00000000000E+00 0. -1.
         23    2    1    2    0    0  0.49108801824E+03  0.68931253173E+02 -0.19976801859E+03  0.54213323186E+03  0.89901170795E+02 0.  0.
         13    1    3    3    0    0  0.29899952791E+03  0.78711801197E+02 -0.14895783884E+03  0.34319776091E+03  0.00000000000E+00 0. -1.
        -13    1    3    3    0    0  0.19208849032E+03 -0.97805480244E+01 -0.50810179744E+02  0.19893547095E+03  0.00000000000E+00 0.  1.
         22    1    1    2    0    0 -0.49108801824E+03 -0.68931253173E+02  0.29458729075E+03  0.57680207281E+03  0.00000000000E+00 0. -1.
<mgrwt>
<rscale>  0 0.11149105E+04</rscale>
<asrwt>0</asrwt>
<pdfrwt beam="1">  1        1 0.78778157E-01 0.11149105E+04</pdfrwt>
<pdfrwt beam="2">  1       -1 0.93365736E-01 0.11149105E+04</pdfrwt>
<totfact> 0.47551565E+01</totfact>
</mgrwt>
</event>
<event>
 6    1  0.1614874E-005  0.2783960E+04  0.7818608E-02  0.8308266E-01
         -2   -1    0    0    0  501 -0.00000000000E+00  0.00000000000E+00  0.43388735760E+03  0.43388735760E+03  0.00000000000E+00 0.  1.
          2   -1    0    0  501    0  0.00000000000E+00 -0.00000000000E+00 -0.44656934677E+04  0.44656934677E+04  0.00000000000E+00 0. -1.
         23    2    1    2    0    0 -0.19694995039E+03 -0.12904699637E+04 -0.28611713070E+04  0.31461590699E+04  0.88958613160E+02 0.  0.
         13    1    3    3    0    0 -0.75986006576E+02 -0.31629434255E+03 -0.77868064142E+03  0.84389544711E+03  0.00000000000E+00 0. -1.
        -13    1    3    3    0    0 -0.12096394382E+03 -0.97417562115E+03 -0.20824906655E+04  0.23022636228E+04  0.00000000000E+00 0.  1.
         22    1    1    2    0    0  0.19694995039E+03  0.12904699637E+04 -0.11706348032E+04  0.17534217555E+04  0.00000000000E+00 0.  1.
<mgrwt>
<rscale>  0 0.27839597E+04</rscale>
<asrwt>0</asrwt>
<pdfrwt beam="1">  1        2 0.68702973E+00 0.27839597E+04</pdfrwt>
<pdfrwt beam="2">  1       -2 0.66751904E-01 0.27839597E+04</pdfrwt>
<totfact> 0.23908301E-01</totfact>
</mgrwt>
</event>
<event>
 6    1  0.1614874E-005  0.8076229E+03  0.7818608E-02  0.9549048E-01
         -2   -1    0    0    0  501 -0.00000000000E+00  0.00000000000E+00  0.11446017862E+03  0.11446017862E+03  0.00000000000E+00 0.  1.
          2   -1    0    0  501    0  0.00000000000E+00 -0.00000000000E+00 -0.14246324834E+04  0.14246324834E+04  0.00000000000E+00 0. -1.
         23    2    1    2    0    0  0.26581009068E+03 -0.28729323019E+03 -0.80778213895E+03  0.90223452780E+03  0.91229133047E+02 0.  0.
         13    1    3    3    0    0  0.52347902495E+02 -0.60834080280E+02 -0.26135934193E+03  0.27340408525E+03  0.00000000000E+00 0.  1.
        -13    1    3    3    0    0  0.21346218819E+03 -0.22645914991E+03 -0.54642279703E+03  0.62883044255E+03  0.00000000000E+00 0. -1.
         22    1    1    2    0    0 -0.26581009068E+03  0.28729323019E+03 -0.50239016587E+03  0.63685813427E+03  0.00000000000E+00 0.  1.
<mgrwt>
<rscale>  0 0.80762290E+03</rscale>
<asrwt>0</asrwt>
<pdfrwt beam="1">  1        2 0.21917421E+00 0.80762290E+03</pdfrwt>
<pdfrwt beam="2">  1       -2 0.17609260E-01 0.80762290E+03</pdfrwt>
<totfact> 0.37618161E+02</totfact>
</mgrwt>
</event>
<event>
 6    1  0.1614874E-005  0.2185111E+04  0.7818608E-02  0.8524651E-01
         -2   -1    0    0    0  501 -0.00000000000E+00  0.00000000000E+00  0.78851038751E+03  0.78851038751E+03  0.00000000000E+00 0.  1.
          2   -1    0    0  501    0  0.00000000000E+00 -0.00000000000E+00 -0.15138380817E+04  0.15138380817E+04  0.00000000000E+00 0. -1.
         23    2    1    2    0    0 -0.49204723273E+03 -0.62940511951E+03  0.41893014043E+03  0.90678862607E+03  0.92205564459E+02 0.  0.
         11    1    3    3    0    0 -0.29101665646E+03 -0.43974853638E+03  0.29024785141E+03  0.60192465046E+03  0.00000000000E+00 0. -1.
        -11    1    3    3    0    0 -0.20103057627E+03 -0.18965658313E+03  0.12868228902E+03  0.30486397561E+03  0.00000000000E+00 0.  1.
         22    1    1    2    0    0  0.49204723273E+03  0.62940511951E+03 -0.11442578346E+04  0.13955598431E+04  0.00000000000E+00 0. -1.
<mgrwt>
<rscale>  0 0.21851106E+04</rscale>
<asrwt>0</asrwt>
<pdfrwt beam="1">  1        2 0.23289817E+00 0.21851106E+04</pdfrwt>
<pdfrwt beam="2">  1       -2 0.12130929E+00 0.21851106E+04</pdfrwt>
<totfact> 0.58979338E+00</totfact>
</mgrwt>
</event>
<event>
 6    1  0.1614874E-005  0.2229028E+04  0.7818608E-02  0.8506442E-01
          1   -1    0    0  501    0  0.00000000000E+00  0.00000000000E+00  0.25179644245E+04  0.25179644245E+04  0.00000000000E+00 0. -1.
         -1   -1    0    0    0  501 -0.00000000000E+00 -0.00000000000E+00 -0.49331196640E+03  0.49331196640E+03  0.00000000000E+00 0.  1.
         23    2    1    2    0    0 -0.46627219237E+03  0.72045151819E+03  0.19706582050E+04  0.21514069085E+04  0.92724202575E+02 0.  0.
         11    1    3    3    0    0 -0.19632294764E+03  0.27221883571E+03  0.66760884999E+03  0.74722645221E+03  0.00000000000E+00 0. -1.
        -11    1    3    3    0    0 -0.26994924473E+03  0.44823268248E+03  0.13030493550E+04  0.14041804563E+04  0.00000000000E+00 0.  1.
         22    1    1    2    0    0  0.46627219237E+03 -0.72045151819E+03  0.53994253162E+02  0.85986948243E+03  0.00000000000E+00 0.  1.
<mgrwt>
<rscale>  0 0.22290285E+04</rscale>
<asrwt>0</asrwt>
<pdfrwt beam="1">  1        1 0.38737913E+00 0.22290285E+04</pdfrwt>
<pdfrwt beam="2">  1       -1 0.75894150E-01 0.22290285E+04</pdfrwt>
<totfact> 0.20877670E+00</totfact>
</mgrwt>
</event>
<event>
 6    1  0.1614874E-005  0.1510710E+04  0.7818608E-02  0.8877362E-01
         -1   -1    0    0    0  501 -0.00000000000E+00  0.00000000000E+00  0.39484442641E+03  0.39484442641E+03  0.00000000000E+00 0.  1.
          1   -1    0    0  501    0  0.00000000000E+00 -0.00000000000E+00 -0.14450278307E+04  0.14450278307E+04  0.00000000000E+00 0. -1.
         23    2    1    2    0    0  0.36073470334E+03 -0.33286411489E+03  0.16869584240E+03  0.52587276579E+03  0.84592159078E+02 0.  0.
         13    1    3    3    0    0  0.15117522289E+03 -0.17937296195E+03  0.11223432660E+03  0.26004836389E+03  0.00000000000E+00 0.  1.
        -13    1    3    3    0    0  0.20955948045E+03 -0.15349115294E+03  0.56461515805E+02  0.26582440190E+03  0.00000000000E+00 0. -1.
         22    1    1    2    0    0 -0.36073470334E+03  0.33286411489E+03 -0.12188792467E+04  0.13139994914E+04  0.00000000000E+00 0. -1.
<mgrwt>
<rscale>  0 0.15107100E+04</rscale>
<asrwt>0</asrwt>
<pdfrwt beam="1">  1        1 0.22231197E+00 0.15107100E+04</pdfrwt>
<pdfrwt beam="2">  1       -1 0.60745296E-01 0.15107100E+04</pdfrwt>
<totfact> 0.18976419E+01</totfact>
</mgrwt>
</event>
<event>
 6    1  0.1614874E-005  0.2510932E+04  0.7818608E-02  0.8399101E-01
          2   -1    0    0  501    0  0.00000000000E+00  0.00000000000E+00  0.14271965041E+04  0.14271965041E+04  0.00000000000E+00 0. -1.
         -2   -1    0    0    0  501 -0.00000000000E+00 -0.00000000000E+00 -0.11043997746E+04  0.11043997746E+04  0.00000000000E+00 0.  1.
         23    2    1    2    0    0 -0.12298488382E+04  0.14704079668E+03 -0.33840439103E+02  0.12426667885E+04  0.94479687659E+02 0.  0.
         13    1    3    3    0    0 -0.11213938038E+04  0.14049966194E+03 -0.56907845516E+02  0.11315930016E+04  0.00000000000E+00 0. -1.
        -13    1    3    3    0    0 -0.10845503433E+03  0.65411347386E+01  0.23067406413E+02  0.11107378698E+03  0.00000000000E+00 0.  1.
         22    1    1    2    0    0  0.12298488382E+04 -0.14704079668E+03  0.35663716859E+03  0.12889294902E+04  0.00000000000E+00 0.  1.
<mgrwt>
<rscale>  0 0.25109325E+04</rscale>
<asrwt>0</asrwt>
<pdfrwt beam="1">  1        2 0.21956869E+00 0.25109325E+04</pdfrwt>
<pdfrwt beam="2">  1       -2 0.16990766E+00 0.25109325E+04</pdfrwt>
<totfact> 0.26559386E+00</totfact>
</mgrwt>
</event>
<event>
 6    1  0.1614874E-005  0.3921508E+04  0.7818608E-02  0.8020571E-01
         -1   -1    0    0    0  501 -0.00000000000E+00  0.00000000000E+00  0.26433097235E+04  0.26433097235E+04  0.00000000000E+00 0.  1.
          1   -1    0    0  501    0  0.00000000000E+00 -0.00000000000E+00 -0.14544476740E+04  0.14544476740E+04  0.00000000000E+00 0. -1.
         23    2    1    2    0    0 -0.71408316867E+03  0.91479059366E+03 -0.10555182670E+04  0.15710996036E+04  0.86478613854E+02 0.  0.
         13    1    3    3    0    0 -0.36068325806E+03  0.41512154493E+03 -0.45631394897E+03  0.71459130259E+03  0.00000000000E+00 0. -1.
        -13    1    3    3    0    0 -0.35339991061E+03  0.49966904873E+03 -0.59920431799E+03  0.85650830105E+03  0.00000000000E+00 0.  1.
         22    1    1    2    0    0  0.71408316867E+03 -0.91479059366E+03  0.22443803165E+04  0.25266577938E+04  0.00000000000E+00 0.  1.
<mgrwt>
<rscale>  0 0.39215077E+04</rscale>
<asrwt>0</asrwt>
<pdfrwt beam="1">  1        1 0.22376118E+00 0.39215077E+04</pdfrwt>
<pdfrwt beam="2">  1       -1 0.40666303E+00 0.39215077E+04</pdfrwt>
<totfact> 0.35670738E-02</totfact>
</mgrwt>
</event>
<event>
 6    1  0.1614874E-005  0.2041191E+04  0.7818608E-02  0.8587601E-01
          2   -1    0    0  501    0  0.00000000000E+00  0.00000000000E+00  0.85579264764E+03  0.85579264764E+03  0.00000000000E+00 0.  1.
         -2   -1    0    0    0  501 -0.00000000000E+00 -0.00000000000E+00 -0.12171353803E+04  0.12171353803E+04  0.00000000000E+00 0. -1.
         23    2    1    2    0    0 -0.60126920846E+03 -0.40783041320E+03  0.54375172309E+03  0.91230479845E+03  0.93721939443E+02 0.  0.
         11    1    3    3    0    0 -0.13107030329E+03 -0.83427589319E+02  0.16648755178E+03  0.22772284023E+03  0.00000000000E+00 0.  1.
        -11    1    3    3    0    0 -0.47019890517E+03 -0.32440282389E+03  0.37726417132E+03  0.68458195822E+03  0.00000000000E+00 0. -1.
         22    1    1    2    0    0  0.60126920846E+03  0.40783041320E+03 -0.90509445574E+03  0.11606232295E+04  0.00000000000E+00 0. -1.
<mgrwt>
<rscale>  0 0.20411913E+04</rscale>
<asrwt>0</asrwt>
<pdfrwt beam="1">  1        2 0.13166041E+00 0.20411913E+04</pdfrwt>
<pdfrwt beam="2">  1       -2 0.18725160E+00 0.20411913E+04</pdfrwt>
<totfact> 0.47078154E+00</totfact>
</mgrwt>
</event>
<event>
 6    1  0.1614874E-005  0.1091055E+04  0.7818608E-02  0.9213955E-01
          2   -1    0    0  501    0  0.00000000000E+00  0.00000000000E+00  0.17372477401E+04  0.17372477401E+04  0.00000000000E+00 0. -1.
         -2   -1    0    0    0  501 -0.00000000000E+00 -0.00000000000E+00 -0.17130550507E+03  0.17130550507E+03  0.00000000000E+00 0.  1.
         23    2    1    2    0    0  0.41998822825E+03 -0.23189120455E+03  0.12276746772E+04  0.13215365646E+04  0.95447031934E+02 0.  0.
         11    1    3    3    0    0  0.16101433824E+03 -0.14300445558E+03  0.53855669970E+03  0.58001656031E+03  0.00000000000E+00 0. -1.
        -11    1    3    3    0    0  0.25897389001E+03 -0.88886748971E+02  0.68911797747E+03  0.74152000426E+03  0.00000000000E+00 0.  1.
         22    1    1    2    0    0 -0.41998822825E+03  0.23189120455E+03  0.33826755790E+03  0.58701668064E+03  0.00000000000E+00 0.  1.
<mgrwt>
<rscale>  0 0.10910547E+04</rscale>
<asrwt>0</asrwt>
<pdfrwt beam="1">  1        2 0.26726887E+00 0.10910547E+04</pdfrwt>
<pdfrwt beam="2">  1       -2 0.26354694E-01 0.10910547E+04</pdfrwt>
<totfact> 0.12105221E+02</totfact>
</mgrwt>
</event>
<event>
 6    1  0.1614874E-005  0.4907009E+04  0.7818608E-02  0.7843014E-01
         -2   -1    0    0    0  501 -0.00000000000E+00  0.00000000000E+00  0.25499914719E+04  0.25499914719E+04  0.00000000000E+00 0. -1.
          2   -1    0    0  501    0  0.00000000000E+00 -0.00000000000E+00 -0.23606685376E+04  0.23606685376E+04  0.00000000000E+00 0.  1.
         23    2    1    2    0    0 -0.22617963322E+04 -0.33794749123E+03  0.98163219441E+03  0.24903945037E+04  0.92368086915E+02 0.  0.
         11    1    3    3    0    0 -0.10204790404E+04 -0.10639541787E+03  0.44631507565E+03  0.11188809604E+04  0.00000000000E+00 0.  1.
        -11    1    3    3    0    0 -0.12413172918E+04 -0.23155207336E+03  0.53531711876E+03  0.13715135433E+04  0.00000000000E+00 0. -1.
         22    1    1    2    0    0  0.22617963322E+04  0.33794749123E+03 -0.79230926007E+03  0.24202655059E+04  0.00000000000E+00 0.  1.
<mgrwt>
<rscale>  0 0.49070091E+04</rscale>
<asrwt>0</asrwt>
<pdfrwt beam="1">  1        2 0.36317978E+00 0.49070091E+04</pdfrwt>
<pdfrwt beam="2">  1       -2 0.39230638E+00 0.49070091E+04</pdfrwt>
<totfact> 0.25598518E-02</totfact>
</mgrwt>
</event>
<event>
 6    1  0.1614874E-005  0.3559236E+04  0.7818608E-02  0.8099893E-01
          2   -1    0    0  501    0  0.00000000000E+00  0.00000000000E+00  0.16667317569E+04  0.16667317569E+04  0.00000000000E+00 0. -1.
         -2   -1    0    0    0  501 -0.00000000000E+00 -0.00000000000E+00 -0.19001501545E+04  0.19001501545E+04  0.00000000000E+00 0.  1.
         23    2    1    2    0    0  0.33617060099E+03 -0.12399527257E+04  0.11155461930E+04  0.17040349231E+04  0.93799123097E+02 0.  0.
         11    1    3    3    0    0  0.16627818074E+03 -0.49792292799E+03  0.50170538269E+03  0.72614321358E+03  0.00000000000E+00 0. -1.
        -11    1    3    3    0    0  0.16989242025E+03 -0.74202979775E+03  0.61384081034E+03  0.97789170957E+03  0.00000000000E+00 0.  1.
         22    1    1    2    0    0 -0.33617060099E+03  0.12399527257E+04 -0.13489645905E+04  0.18628469882E+04  0.00000000000E+00 0.  1.
<mgrwt>
<rscale>  0 0.35592362E+04</rscale>
<asrwt>0</asrwt>
<pdfrwt beam="1">  1        2 0.25642027E+00 0.35592362E+04</pdfrwt>
<pdfrwt beam="2">  1       -2 0.29233079E+00 0.35592362E+04</pdfrwt>
<totfact> 0.29633437E-01</totfact>
</mgrwt>
</event>
<event>
 6    1  0.1614874E-005  0.4190153E+04  0.7818608E-02  0.7967248E-01
         -2   -1    0    0    0  501 -0.00000000000E+00  0.00000000000E+00  0.12924672027E+04  0.12924672027E+04  0.00000000000E+00 0.  1.
          2   -1    0    0  501    0  0.00000000000E+00 -0.00000000000E+00 -0.33960974669E+04  0.33960974669E+04  0.00000000000E+00 0. -1.
         23    2    1    2    0    0  0.37437050240E+03 -0.70715939805E+03  0.11130892215E+04  0.13738230603E+04  0.90523469895E+02 0.  0.
         11    1    3    3    0    0  0.21783444358E+03 -0.32067512996E+03  0.50980768674E+03  0.64045941421E+03  0.00000000000E+00 0. -1.
        -11    1    3    3    0    0  0.15653605881E+03 -0.38648426809E+03  0.60328153474E+03  0.73336364605E+03  0.00000000000E+00 0.  1.
         22    1    1    2    0    0 -0.37437050240E+03  0.70715939805E+03 -0.32167194856E+04  0.33147416093E+04  0.00000000000E+00 0. -1.
<mgrwt>
<rscale>  0 0.41901525E+04</rscale>
<asrwt>0</asrwt>
<pdfrwt beam="1">  1        2 0.52247653E+00 0.41901525E+04</pdfrwt>
<pdfrwt beam="2">  1       -2 0.19884111E+00 0.41901525E+04</pdfrwt>
<totfact> 0.10071934E-01</totfact>
</mgrwt>
</event>
<event>
 6    1  0.1614874E-005  0.1378092E+04  0.7818608E-02  0.8969831E-01
          2   -1    0    0  501    0  0.00000000000E+00  0.00000000000E+00  0.30583334016E+04  0.30583334016E+04  0.00000000000E+00 0. -1.
         -2   -1    0    0    0  501 -0.00000000000E+00 -0.00000000000E+00 -0.15524289311E+03  0.15524289311E+03  0.00000000000E+00 0.  1.
         23    2    1    2    0    0 -0.42818286754E+03  0.52885782185E+03  0.16584813732E+04  0.17950971572E+04  0.93713259048E+02 0.  0.
         11    1    3    3    0    0 -0.38050864374E+03  0.42012342476E+03  0.13267597408E+04  0.14427688414E+04  0.00000000000E+00 0.  1.
        -11    1    3    3    0    0 -0.47674223798E+02  0.10873439709E+03  0.33172163236E+03  0.35232831578E+03  0.00000000000E+00 0. -1.
         22    1    1    2    0    0  0.42818286754E+03 -0.52885782185E+03  0.12446091353E+04  0.14184791375E+04  0.00000000000E+00 0.  1.
<mgrwt>
<rscale>  0 0.13780922E+04</rscale>
<asrwt>0</asrwt>
<pdfrwt beam="1">  1        2 0.47051279E+00 0.13780922E+04</pdfrwt>
<pdfrwt beam="2">  1       -2 0.23883524E-01 0.13780922E+04</pdfrwt>
<totfact> 0.24555264E+01</totfact>
</mgrwt>
</event>
<event>
 6    1  0.1614874E-005  0.1266902E+04  0.7818608E-02  0.9056232E-01
          2   -1    0    0  501    0  0.00000000000E+00  0.00000000000E+00  0.13846890926E+04  0.13846890926E+04  0.00000000000E+00 0. -1.
         -2   -1    0    0    0  501 -0.00000000000E+00 -0.00000000000E+00 -0.28978346711E+03  0.28978346711E+03  0.00000000000E+00 0.  1.
         23    2    1    2    0    0 -0.72240182555E+02 -0.82420172587E+02  0.13705222911E+04  0.13778646111E+04  0.90375922036E+02 0.  0.
         13    1    3    3    0    0 -0.23131495779E+02 -0.71527550675E+02  0.47325633138E+03  0.47918974508E+03  0.00000000000E+00 0. -1.
        -13    1    3    3    0    0 -0.49108686777E+02 -0.10892621912E+02  0.89726595974E+03  0.89867486603E+03  0.00000000000E+00 0.  1.
         22    1    1    2    0    0  0.72240182555E+02  0.82420172587E+02 -0.27561666561E+03  0.29660794862E+03  0.00000000000E+00 0.  1.
<mgrwt>
<rscale>  0 0.12669017E+04</rscale>
<asrwt>0</asrwt>
<pdfrwt beam="1">  1        2 0.21302909E+00 0.12669017E+04</pdfrwt>
<pdfrwt beam="2">  1       -2 0.44582073E-01 0.12669017E+04</pdfrwt>
<totfact> 0.69185884E+01</totfact>
</mgrwt>
</event>
<event>
 6    1  0.1614874E-005  0.2641629E+04  0.7818608E-02  0.8354197E-01
         -2   -1    0    0    0  501 -0.00000000000E+00  0.00000000000E+00  0.12253379563E+04  0.12253379563E+04  0.00000000000E+00 0.  1.
          2   -1    0    0  501    0  0.00000000000E+00 -0.00000000000E+00 -0.14237301868E+04  0.14237301868E+04  0.00000000000E+00 0. -1.
         23    2    1    2    0    0 -0.10269436821E+03 -0.61406736926E+03 -0.12661378050E+04  0.14130643084E+04  0.77594659855E+02 0.  0.
         11    1    3    3    0    0 -0.51252011550E+02 -0.14672779409E+03 -0.36304137590E+03  0.39491119871E+03  0.00000000000E+00 0. -1.
        -11    1    3    3    0    0 -0.51442356658E+02 -0.46733957516E+03 -0.90309642910E+03  0.10181531097E+04  0.00000000000E+00 0.  1.
         22    1    1    2    0    0  0.10269436821E+03  0.61406736926E+03  0.10677455746E+04  0.12360038347E+04  0.00000000000E+00 0.  1.
<mgrwt>
<rscale>  0 0.26416288E+04</rscale>
<asrwt>0</asrwt>
<pdfrwt beam="1">  1        2 0.21903541E+00 0.26416288E+04</pdfrwt>
<pdfrwt beam="2">  1       -2 0.18851353E+00 0.26416288E+04</pdfrwt>
<totfact> 0.19612539E+00</totfact>
</mgrwt>
</event>
<event>
 6    1  0.1614874E-005  0.1188060E+04  0.7818608E-02  0.9123372E-01
          1   -1    0    0  501    0  0.00000000000E+00  0.00000000000E+00  0.19560093481E+04  0.19560093481E+04  0.00000000000E+00 0. -1.
         -1   -1    0    0    0  501 -0.00000000000E+00 -0.00000000000E+00 -0.18040389272E+03  0.18040389272E+03  0.00000000000E+00 0.  1.
         23    2    1    2    0    0 -0.34390791314E+03 -0.19018831143E+03  0.10060084895E+03  0.41592357850E+03  0.91802210329E+02 0.  0.
         13    1    3    3    0    0 -0.19645530088E+03 -0.82087762783E+02  0.13337210489E+02  0.21333299611E+03  0.00000000000E+00 0. -1.
        -13    1    3    3    0    0 -0.14745261225E+03 -0.10810054865E+03  0.87263638457E+02  0.20259058240E+03  0.00000000000E+00 0.  1.
         22    1    1    2    0    0  0.34390791314E+03  0.19018831143E+03  0.16750046064E+04  0.17204896623E+04  0.00000000000E+00 0. -1.
<mgrwt>
<rscale>  0 0.11880601E+04</rscale>
<asrwt>0</asrwt>
<pdfrwt beam="1">  1        1 0.30092450E+00 0.11880601E+04</pdfrwt>
<pdfrwt beam="2">  1       -1 0.27754446E-01 0.11880601E+04</pdfrwt>
<totfact> 0.37030833E+01</totfact>
</mgrwt>
</event>
<event>
 6    1  0.1614874E-005  0.2555453E+04  0.7818608E-02  0.8383492E-01
          2   -1    0    0  501    0  0.00000000000E+00  0.00000000000E+00  0.10680280446E+04  0.10680280446E+04  0.00000000000E+00 0. -1.
         -2   -1    0    0    0  501 -0.00000000000E+00 -0.00000000000E+00 -0.15285974019E+04  0.15285974019E+04  0.00000000000E+00 0.  1.
         23    2    1    2    0    0 -0.72217314488E+03  0.89331915239E+03 -0.79535735022E+03  0.14001154551E+04  0.90425736959E+02 0.  0.
         11    1    3    3    0    0 -0.56763797504E+03  0.65441881105E+03 -0.62847570926E+03  0.10702609813E+04  0.00000000000E+00 0.  1.
        -11    1    3    3    0    0 -0.15453516984E+03  0.23890034133E+03 -0.16688164096E+03  0.32985447382E+03  0.00000000000E+00 0. -1.
         22    1    1    2    0    0  0.72217314488E+03 -0.89331915239E+03  0.33478799289E+03  0.11965099913E+04  0.00000000000E+00 0. -1.
<mgrwt>
<rscale>  0 0.25554529E+04</rscale>
<asrwt>0</asrwt>
<pdfrwt beam="1">  1        2 0.16431201E+00 0.25554529E+04</pdfrwt>
<pdfrwt beam="2">  1       -2 0.23516883E+00 0.25554529E+04</pdfrwt>
<totfact> 0.16069929E+00</totfact>
</mgrwt>
</event>
<event>
 6    1  0.1614874E-005  0.3675981E+04  0.7818608E-02  0.8073306E-01
          2   -1    0    0  501    0  0.00000000000E+00  0.00000000000E+00  0.43437659990E+04  0.43437659990E+04  0.00000000000E+00 0.  1.
         -2   -1    0    0    0  501 -0.00000000000E+00 -0.00000000000E+00 -0.77771429467E+03  0.77771429467E+03  0.00000000000E+00 0. -1.
         23    2    1    2    0    0  0.24334402665E+03 -0.16763466367E+04  0.27738374898E+04  0.32514648597E+04  0.92168067090E+02 0.  0.
         11    1    3    3    0    0  0.77604566612E+02 -0.68326576204E+03  0.12027737000E+04  0.13854743389E+04  0.00000000000E+00 0. -1.
        -11    1    3    3    0    0  0.16573946004E+03 -0.99308087461E+03  0.15710637897E+04  0.18659905208E+04  0.00000000000E+00 0.  1.
         22    1    1    2    0    0 -0.24334402665E+03  0.16763466367E+04  0.79221421454E+03  0.18700154340E+04  0.00000000000E+00 0. -1.
<mgrwt>
<rscale>  0 0.36759809E+04</rscale>
<asrwt>0</asrwt>
<pdfrwt beam="1">  1        2 0.66827168E+00 0.36759809E+04</pdfrwt>
<pdfrwt beam="2">  1       -2 0.11964836E+00 0.36759809E+04</pdfrwt>
<totfact> 0.74627033E-02</totfact>
</mgrwt>
</event>
<event>
 6    1  0.1614874E-005  0.2806961E+04  0.7818608E-02  0.8301111E-01
          1   -1    0    0  501    0  0.00000000000E+00  0.00000000000E+00  0.25755099354E+04  0.25755099354E+04  0.00000000000E+00 0. -1.
         -1   -1    0    0    0  501 -0.00000000000E+00 -0.00000000000E+00 -0.76480268168E+03  0.76480268168E+03  0.00000000000E+00 0.  1.
         23    2    1    2    0    0 -0.10404603243E+04  0.24542719627E+03 -0.17309473858E+03  0.10868125528E+04  0.91692646144E+02 0.  0.
         13    1    3    3    0    0 -0.55431529277E+03  0.86019145806E+02 -0.10491172173E+03  0.57067609605E+03  0.00000000000E+00 0.  1.
        -13    1    3    3    0    0 -0.48614503150E+03  0.15940805047E+03 -0.68183016850E+02  0.51613645676E+03  0.00000000000E+00 0. -1.
         22    1    1    2    0    0  0.10404603243E+04 -0.24542719627E+03  0.19838019923E+04  0.22535000643E+04  0.00000000000E+00 0. -1.
<mgrwt>
<rscale>  0 0.28069606E+04</rscale>
<asrwt>0</asrwt>
<pdfrwt beam="1">  1        1 0.39623229E+00 0.28069606E+04</pdfrwt>
<pdfrwt beam="2">  1       -1 0.11766195E+00 0.28069606E+04</pdfrwt>
<totfact> 0.67420880E-01</totfact>
</mgrwt>
</event>
<event>
 6    1  0.1614874E-005  0.2322035E+04  0.7818608E-02  0.8469283E-01
          1   -1    0    0  501    0  0.00000000000E+00  0.00000000000E+00  0.12877708764E+04  0.12877708764E+04  0.00000000000E+00 0. -1.
         -1   -1    0    0    0  501 -0.00000000000E+00 -0.00000000000E+00 -0.10467401883E+04  0.10467401883E+04  0.00000000000E+00 0.  1.
         23    2    1    2    0    0 -0.63959298412E+03 -0.48430635075E+03 -0.72078856469E+03  0.10820223017E+04  0.87202520442E+02 0.  0.
         11    1    3    3    0    0 -0.29160016024E+03 -0.20044131400E+03 -0.37189240637E+03  0.51333355211E+03  0.00000000000E+00 0. -1.
        -11    1    3    3    0    0 -0.34799282389E+03 -0.28386503675E+03 -0.34889615832E+03  0.56868874954E+03  0.00000000000E+00 0.  1.
         22    1    1    2    0    0  0.63959298412E+03  0.48430635075E+03  0.96181925276E+03  0.12524887631E+04  0.00000000000E+00 0. -1.
<mgrwt>
<rscale>  0 0.23220349E+04</rscale>
<asrwt>0</asrwt>
<pdfrwt beam="1">  1        1 0.19811860E+00 0.23220349E+04</pdfrwt>
<pdfrwt beam="2">  1       -1 0.16103695E+00 0.23220349E+04</pdfrwt>
<totfact> 0.23900692E+00</totfact>
</mgrwt>
</event>
<event>
 6    1  0.1614874E-005  0.1844431E+04  0.7818608E-02  0.8683022E-01
          2   -1    0    0  501    0  0.00000000000E+00  0.00000000000E+00  0.26306708448E+04  0.26306708448E+04  0.00000000000E+00 0. -1.
         -2   -1    0    0    0  501 -0.00000000000E+00 -0.00000000000E+00 -0.32329437242E+03  0.32329437242E+03  0.00000000000E+00 0.  1.
         23    2    1    2    0    0 -0.87105570682E+03  0.14952079027E+03  0.15656599589E+04  0.18001723859E+04  0.90746907578E+02 0.  0.
         13    1    3    3    0    0 -0.29780814731E+03  0.21574707223E+02  0.59293467500E+03  0.66387249484E+03  0.00000000000E+00 0. -1.
        -13    1    3    3    0    0 -0.57324755951E+03  0.12794608304E+03  0.97272528386E+03  0.11362998911E+04  0.00000000000E+00 0.  1.
         22    1    1    2    0    0  0.87105570682E+03 -0.14952079027E+03  0.74171651353E+03  0.11537928313E+04  0.00000000000E+00 0.  1.
<mgrwt>
<rscale>  0 0.18444306E+04</rscale>
<asrwt>0</asrwt>
<pdfrwt beam="1">  1        2 0.40471858E+00 0.18444306E+04</pdfrwt>
<pdfrwt beam="2">  1       -2 0.49737598E-01 0.18444306E+04</pdfrwt>
<totfact> 0.10520395E+01</totfact>
</mgrwt>
</event>
<event>
 6    1  0.1614874E-005  0.3764857E+04  0.7818608E-02  0.8053739E-01
         -2   -1    0    0    0  501 -0.00000000000E+00  0.00000000000E+00  0.10528070535E+04  0.10528070535E+04  0.00000000000E+00 0. -1.
          2   -1    0    0  501    0  0.00000000000E+00 -0.00000000000E+00 -0.33657986597E+04  0.33657986597E+04  0.00000000000E+00 0.  1.
         23    2    1    2    0    0  0.10943286038E+04  0.14925166912E+04 -0.15520323449E+04  0.24175509503E+04  0.10289329840E+03 0.  0.
         11    1    3    3    0    0  0.10144963090E+03  0.10833572392E+03 -0.97418352203E+02  0.17753588943E+03  0.00000000000E+00 0.  1.
        -11    1    3    3    0    0  0.99287897295E+03  0.13841809673E+04 -0.14546139927E+04  0.22400150608E+04  0.00000000000E+00 0. -1.
         22    1    1    2    0    0 -0.10943286038E+04 -0.14925166912E+04 -0.76095926135E+03  0.20010547629E+04  0.00000000000E+00 0. -1.
<mgrwt>
<rscale>  0 0.37648567E+04</rscale>
<asrwt>0</asrwt>
<pdfrwt beam="1">  1        2 0.51781517E+00 0.37648567E+04</pdfrwt>
<pdfrwt beam="2">  1       -2 0.16197032E+00 0.37648567E+04</pdfrwt>
<totfact> 0.19676904E-01</totfact>
</mgrwt>
</event>
<event>
 6    1  0.1614874E-005  0.3409544E+04  0.7818608E-02  0.8135568E-01
         -2   -1    0    0    0  501 -0.00000000000E+00  0.00000000000E+00  0.15673362145E+04  0.15673362145E+04  0.00000000000E+00 0. -1.
          2   -1    0    0  501    0  0.00000000000E+00 -0.00000000000E+00 -0.18542592709E+04  0.18542592709E+04  0.00000000000E+00 0.  1.
         23    2    1    2    0    0 -0.13334412437E+04  0.24974977070E+03 -0.11776028322E+04  0.17987119525E+04  0.90419906082E+02 0.  0.
         13    1    3    3    0    0 -0.73221431209E+03  0.95589964657E+02 -0.66489360236E+03  0.99365926888E+03  0.00000000000E+00 0.  1.
        -13    1    3    3    0    0 -0.60122693158E+03  0.15415980605E+03 -0.51270922980E+03  0.80505268361E+03  0.00000000000E+00 0. -1.
         22    1    1    2    0    0  0.13334412437E+04 -0.24974977070E+03  0.89067977582E+03  0.16228835329E+04  0.00000000000E+00 0. -1.
<mgrwt>
<rscale>  0 0.34095441E+04</rscale>
<asrwt>0</asrwt>
<pdfrwt beam="1">  1        2 0.28527066E+00 0.34095441E+04</pdfrwt>
<pdfrwt beam="2">  1       -2 0.24112865E+00 0.34095441E+04</pdfrwt>
<totfact> 0.48580804E-01</totfact>
</mgrwt>
</event>
<event>
 6    1  0.1614874E-005  0.1575988E+04  0.7818608E-02  0.8835437E-01
          1   -1    0    0  501    0  0.00000000000E+00  0.00000000000E+00  0.67226190721E+03  0.67226190721E+03  0.00000000000E+00 0. -1.
         -1   -1    0    0    0  501 -0.00000000000E+00 -0.00000000000E+00 -0.92365022263E+03  0.92365022263E+03  0.00000000000E+00 0.  1.
         23    2    1    2    0    0 -0.59259486917E+03  0.10826803485E+03 -0.63636226547E+03  0.88100263309E+03  0.91203400451E+02 0.  0.
         11    1    3    3    0    0 -0.40577144016E+03  0.30539162697E+02 -0.42400228576E+03  0.58767426389E+03  0.00000000000E+00 0. -1.
        -11    1    3    3    0    0 -0.18682342901E+03  0.77728872155E+02 -0.21235997971E+03  0.29332836920E+03  0.00000000000E+00 0.  1.
         22    1    1    2    0    0  0.59259486917E+03 -0.10826803485E+03  0.38497395005E+03  0.71490949676E+03  0.00000000000E+00 0. -1.
<mgrwt>
<rscale>  0 0.15759884E+04</rscale>
<asrwt>0</asrwt>
<pdfrwt beam="1">  1        1 0.10342491E+00 0.15759884E+04</pdfrwt>
<pdfrwt beam="2">  1       -1 0.14210003E+00 0.15759884E+04</pdfrwt>
<totfact> 0.11225204E+01</totfact>
</mgrwt>
</event>
<event>
 6    1  0.1614874E-005  0.1951520E+04  0.7818608E-02  0.8629628E-01
         -2   -1    0    0    0  501 -0.00000000000E+00  0.00000000000E+00  0.43600451592E+03  0.43600451592E+03  0.00000000000E+00 0. -1.
          2   -1    0    0  501    0  0.00000000000E+00 -0.00000000000E+00 -0.21837098057E+04  0.21837098057E+04  0.00000000000E+00 0.  1.
         23    2    1    2    0    0  0.47754802003E+03 -0.82033786181E+03 -0.11662188009E+04  0.15065508764E+04  0.92859748357E+02 0.  0.
         13    1    3    3    0    0  0.28950653383E+03 -0.53109407615E+03 -0.67609503143E+03  0.90718214399E+03  0.00000000000E+00 0. -1.
        -13    1    3    3    0    0  0.18804148620E+03 -0.28924378566E+03 -0.49012376943E+03  0.59936873244E+03  0.00000000000E+00 0.  1.
         22    1    1    2    0    0 -0.47754802003E+03  0.82033786181E+03 -0.58148648896E+03  0.11131634452E+04  0.00000000000E+00 0.  1.
<mgrwt>
<rscale>  0 0.19515198E+04</rscale>
<asrwt>0</asrwt>
<pdfrwt beam="1">  1        2 0.33595536E+00 0.19515198E+04</pdfrwt>
<pdfrwt beam="2">  1       -2 0.67077616E-01 0.19515198E+04</pdfrwt>
<totfact> 0.10034067E+01</totfact>
</mgrwt>
</event>
<event>
 6    1  0.1614874E-005  0.3351550E+04  0.7818608E-02  0.8149901E-01
         -2   -1    0    0    0  501 -0.00000000000E+00  0.00000000000E+00  0.72011241355E+03  0.72011241355E+03  0.00000000000E+00 0.  1.
          2   -1    0    0  501    0  0.00000000000E+00 -0.00000000000E+00 -0.38996982074E+04  0.38996982074E+04  0.00000000000E+00 0. -1.
         23    2    1    2    0    0  0.14738619138E+04 -0.56167884951E+03 -0.81589291865E+03  0.17781920542E+04  0.92377789010E+02 0.  0.
         13    1    3    3    0    0  0.49546507018E+03 -0.23506900006E+03 -0.29233123220E+03  0.62145041627E+03  0.00000000000E+00 0. -1.
        -13    1    3    3    0    0  0.97839684360E+03 -0.32660984946E+03 -0.52356168645E+03  0.11567416379E+04  0.00000000000E+00 0.  1.
         22    1    1    2    0    0 -0.14738619138E+04  0.56167884951E+03 -0.23636928752E+04  0.28416185668E+04  0.00000000000E+00 0. -1.
<mgrwt>
<rscale>  0 0.33515495E+04</rscale>
<asrwt>0</asrwt>
<pdfrwt beam="1">  1        2 0.59995356E+00 0.33515495E+04</pdfrwt>
<pdfrwt beam="2">  1       -2 0.11078653E+00 0.33515495E+04</pdfrwt>
<totfact> 0.22044048E-01</totfact>
</mgrwt>
</event>
<event>
 6    1  0.1614874E-005  0.1634898E+04  0.7818608E-02  0.8799391E-01
          1   -1    0    0  501    0  0.00000000000E+00  0.00000000000E+00  0.84504068505E+03  0.84504068505E+03  0.00000000000E+00 0. -1.
         -1   -1    0    0    0  501 -0.00000000000E+00 -0.00000000000E+00 -0.79075841015E+03  0.79075841015E+03  0.00000000000E+00 0.  1.
         23    2    1    2    0    0 -0.19944794851E+03 -0.62726772136E+02  0.81526274457E+03  0.84661888299E+03  0.91630007407E+02 0.  0.
         11    1    3    3    0    0 -0.14594769018E+03 -0.66788032376E+02  0.71614583275E+03  0.73391159093E+03  0.00000000000E+00 0.  1.
        -11    1    3    3    0    0 -0.53500258333E+02  0.40612602396E+01  0.99116911817E+02  0.11270729207E+03  0.00000000000E+00 0. -1.
         22    1    1    2    0    0  0.19944794851E+03  0.62726772136E+02 -0.76098046967E+03  0.78918021220E+03  0.00000000000E+00 0.  1.
<mgrwt>
<rscale>  0 0.16348982E+04</rscale>
<asrwt>0</asrwt>
<pdfrwt beam="1">  1        1 0.13000626E+00 0.16348982E+04</pdfrwt>
<pdfrwt beam="2">  1       -1 0.12165514E+00 0.16348982E+04</pdfrwt>
<totfact> 0.11583949E+01</totfact>
</mgrwt>
</event>
<event>
 6    1  0.1614874E-005  0.2573680E+04  0.7818608E-02  0.8377197E-01
          2   -1    0    0  501    0  0.00000000000E+00  0.00000000000E+00  0.25889546971E+04  0.25889546971E+04  0.00000000000E+00 0.  1.
         -2   -1    0    0    0  501 -0.00000000000E+00 -0.00000000000E+00 -0.63962404535E+03  0.63962404535E+03  0.00000000000E+00 0. -1.
         23    2    1    2    0    0 -0.12594655166E+04 -0.66688133584E+01  0.65642993305E+03  0.14236161032E+04  0.97389381538E+02 0.  0.
         11    1    3    3    0    0 -0.60471861780E+03  0.17264060036E+02  0.26545226910E+03  0.66064178013E+03  0.00000000000E+00 0. -1.
        -11    1    3    3    0    0 -0.65474689883E+03 -0.23932873395E+02  0.39097766396E+03  0.76297432307E+03  0.00000000000E+00 0.  1.
         22    1    1    2    0    0  0.12594655166E+04  0.66688133584E+01  0.12929007187E+04  0.18049626392E+04  0.00000000000E+00 0. -1.
<mgrwt>
<rscale>  0 0.25736804E+04</rscale>
<asrwt>0</asrwt>
<pdfrwt beam="1">  1        2 0.39830072E+00 0.25736804E+04</pdfrwt>
<pdfrwt beam="2">  1       -2 0.98403700E-01 0.25736804E+04</pdfrwt>
<totfact> 0.23491417E+00</totfact>
</mgrwt>
</event>
<event>
 6    1  0.1614874E-005  0.1318396E+04  0.7818608E-02  0.9015103E-01
         -1   -1    0    0    0  501 -0.00000000000E+00  0.00000000000E+00  0.23056991523E+03  0.23056991523E+03  0.00000000000E+00 0.  1.
          1   -1    0    0  501    0  0.00000000000E+00 -0.00000000000E+00 -0.18846422338E+04  0.18846422338E+04  0.00000000000E+00 0. -1.
         23    2    1    2    0    0 -0.50836580067E+03  0.37558089887E+03 -0.54894288236E+03  0.84210262127E+03  0.91113872586E+02 0.  0.
         11    1    3    3    0    0 -0.25672040441E+03  0.13639437452E+03 -0.23052529135E+03  0.37101307442E+03  0.00000000000E+00 0. -1.
        -11    1    3    3    0    0 -0.25164539626E+03  0.23918652435E+03 -0.31841759100E+03  0.47108954685E+03  0.00000000000E+00 0.  1.
         22    1    1    2    0    0  0.50836580067E+03 -0.37558089887E+03 -0.11051294362E+04  0.12731095278E+04  0.00000000000E+00 0. -1.
<mgrwt>
<rscale>  0 0.13183957E+04</rscale>
<asrwt>0</asrwt>
<pdfrwt beam="1">  1        1 0.28994495E+00 0.13183957E+04</pdfrwt>
<pdfrwt beam="2">  1       -1 0.35472295E-01 0.13183957E+04</pdfrwt>
<totfact> 0.26544431E+01</totfact>
</mgrwt>
</event>
<event>
 6    1  0.1614874E-005  0.2033991E+04  0.7818608E-02  0.8590891E-01
         -1   -1    0    0    0  501 -0.00000000000E+00  0.00000000000E+00  0.88468962183E+03  0.88468962183E+03  0.00000000000E+00 0.  1.
          1   -1    0    0  501    0  0.00000000000E+00 -0.00000000000E+00 -0.11690882263E+04  0.11690882263E+04  0.00000000000E+00 0. -1.
         23    2    1    2    0    0  0.42601154851E+03  0.43494760948E+03 -0.96259143568E+03  0.11423993435E+04  0.88480085326E+02 0.  0.
         11    1    3    3    0    0  0.18902956123E+03  0.25608673064E+03 -0.49357016708E+03  0.58730239099E+03  0.00000000000E+00 0. -1.
        -11    1    3    3    0    0  0.23698198728E+03  0.17886087884E+03 -0.46902126859E+03  0.55509695249E+03  0.00000000000E+00 0.  1.
         22    1    1    2    0    0 -0.42601154851E+03 -0.43494760948E+03  0.67819283119E+03  0.91137850465E+03  0.00000000000E+00 0.  1.
<mgrwt>
<rscale>  0 0.20339914E+04</rscale>
<asrwt>0</asrwt>
<pdfrwt beam="1">  1        1 0.17985973E+00 0.20339914E+04</pdfrwt>
<pdfrwt beam="2">  1       -1 0.13610610E+00 0.20339914E+04</pdfrwt>
<totfact> 0.46982440E+00</totfact>
</mgrwt>
</event>
<event>
 6    1  0.1614874E-005  0.1116612E+04  0.7818608E-02  0.9189150E-01
          1   -1    0    0  501    0  0.00000000000E+00  0.00000000000E+00  0.68364944295E+03  0.68364944295E+03  0.00000000000E+00 0. -1.
         -1   -1    0    0    0  501 -0.00000000000E+00 -0.00000000000E+00 -0.45594392257E+03  0.45594392257E+03  0.00000000000E+00 0.  1.
         23    2    1    2    0    0  0.34379685722E+03 -0.43497528039E+03  0.10030027317E+03  0.57070684731E+03  0.90809620558E+02 0.  0.
         13    1    3    3    0    0  0.25027454067E+03 -0.25854690458E+03  0.89122350195E+02  0.37071099374E+03  0.00000000000E+00 0.  1.
        -13    1    3    3    0    0  0.93522316554E+02 -0.17642837582E+03  0.11177922974E+02  0.19999585358E+03  0.00000000000E+00 0. -1.
         22    1    1    2    0    0 -0.34379685722E+03  0.43497528039E+03  0.12740524721E+03  0.56888651821E+03  0.00000000000E+00 0.  1.
<mgrwt>
<rscale>  0 0.11166124E+04</rscale>
<asrwt>0</asrwt>
<pdfrwt beam="1">  1        1 0.10517684E+00 0.11166124E+04</pdfrwt>
<pdfrwt beam="2">  1       -1 0.70145219E-01 0.11166124E+04</pdfrwt>
<totfact> 0.57770273E+01</totfact>
</mgrwt>
</event>
<event>
 6    1  0.1614874E-005  0.7459361E+03  0.7818608E-02  0.9641748E-01
         -2   -1    0    0    0  501 -0.00000000000E+00  0.00000000000E+00  0.57002151732E+02  0.57002151732E+02  0.00000000000E+00 0.  1.
          2   -1    0    0  501    0  0.00000000000E+00 -0.00000000000E+00 -0.24403495905E+04  0.24403495905E+04  0.00000000000E+00 0. -1.
         23    2    1    2    0    0 -0.30930843773E+03 -0.78522955275E+02 -0.18191586038E+04  0.18491645735E+04  0.90741556698E+02 0.  0.
         13    1    3    3    0    0 -0.16145995394E+03  0.58028952941E+01 -0.88726611273E+03  0.90185594477E+03  0.00000000000E+00 0. -1.
        -13    1    3    3    0    0 -0.14784848378E+03 -0.84325850570E+02 -0.93189249104E+03  0.94730862874E+03  0.00000000000E+00 0.  1.
         22    1    1    2    0    0  0.30930843773E+03  0.78522955275E+02 -0.56418883499E+03  0.64818716871E+03  0.00000000000E+00 0. -1.
<mgrwt>
<rscale>  0 0.74593613E+03</rscale>
<asrwt>0</asrwt>
<pdfrwt beam="1">  1        2 0.37543847E+00 0.74593613E+03</pdfrwt>
<pdfrwt beam="2">  1       -2 0.87695602E-02 0.74593613E+03</pdfrwt>
<totfact> 0.33164187E+02</totfact>
</mgrwt>
</event>
<event>
 6    1  0.1614874E-005  0.2544214E+04  0.7818608E-02  0.8387401E-01
          2   -1    0    0  501    0  0.00000000000E+00  0.00000000000E+00  0.17827988026E+04  0.17827988026E+04  0.00000000000E+00 0. -1.
         -2   -1    0    0    0  501 -0.00000000000E+00 -0.00000000000E+00 -0.90770568157E+03  0.90770568157E+03  0.00000000000E+00 0.  1.
         23    2    1    2    0    0  0.20715694056E+03  0.80019551315E+03 -0.58217018706E+03  0.10151408799E+04  0.91444092783E+02 0.  0.
         11    1    3    3    0    0  0.16380519666E+03  0.58014241289E+03 -0.37585561701E+03  0.71039763972E+03  0.00000000000E+00 0. -1.
        -11    1    3    3    0    0  0.43351743902E+02  0.22005310027E+03 -0.20631457006E+03  0.30474324021E+03  0.00000000000E+00 0.  1.
         22    1    1    2    0    0 -0.20715694056E+03 -0.80019551315E+03  0.14572633081E+04  0.16753636042E+04  0.00000000000E+00 0. -1.
<mgrwt>
<rscale>  0 0.25442143E+04</rscale>
<asrwt>0</asrwt>
<pdfrwt beam="1">  1        2 0.27427674E+00 0.25442143E+04</pdfrwt>
<pdfrwt beam="2">  1       -2 0.13964703E+00 0.25442143E+04</pdfrwt>
<totfact> 0.28341544E+00</totfact>
</mgrwt>
</event>
<event>
 6    1  0.1614874E-005  0.1293251E+04  0.7818608E-02  0.9034934E-01
         -1   -1    0    0    0  501 -0.00000000000E+00  0.00000000000E+00  0.63677551380E+03  0.63677551380E+03  0.00000000000E+00 0.  1.
          1   -1    0    0  501    0  0.00000000000E+00 -0.00000000000E+00 -0.65662802882E+03  0.65662802882E+03  0.00000000000E+00 0. -1.
         23    2    1    2    0    0 -0.64132148125E+02 -0.16667086626E+03 -0.62807898920E+03  0.65950169377E+03  0.92558939761E+02 0.  0.
         13    1    3    3    0    0 -0.43711422301E+02 -0.29641411687E+02 -0.94785261515E+02  0.10850597922E+03  0.00000000000E+00 0. -1.
        -13    1    3    3    0    0 -0.20420725824E+02 -0.13702945458E+03 -0.53329372768E+03  0.55099571455E+03  0.00000000000E+00 0.  1.
         22    1    1    2    0    0  0.64132148125E+02  0.16667086626E+03  0.60822647418E+03  0.63390184885E+03  0.00000000000E+00 0.  1.
<mgrwt>
<rscale>  0 0.12932512E+04</rscale>
<asrwt>0</asrwt>
<pdfrwt beam="1">  1        1 0.10101970E+00 0.12932512E+04</pdfrwt>
<pdfrwt beam="2">  1       -1 0.97965464E-01 0.12932512E+04</pdfrwt>
<totfact> 0.29472833E+01</totfact>
</mgrwt>
</event>
<event>
 6    1  0.1614874E-005  0.1309504E+04  0.7818608E-02  0.9022063E-01
         -2   -1    0    0    0  501 -0.00000000000E+00  0.00000000000E+00  0.59917212533E+03  0.59917212533E+03  0.00000000000E+00 0.  1.
          2   -1    0    0  501    0  0.00000000000E+00 -0.00000000000E+00 -0.71548699972E+03  0.71548699972E+03  0.00000000000E+00 0. -1.
         23    2    1    2    0    0  0.41578811428E+03  0.15325767907E+03 -0.53764634607E+03  0.70319540479E+03  0.95144688208E+02 0.  0.
         13    1    3    3    0    0  0.16169181687E+03  0.68798114025E+02 -0.14438616037E+03  0.22743084100E+03  0.00000000000E+00 0.  1.
        -13    1    3    3    0    0  0.25409629742E+03  0.84459565050E+02 -0.39326018571E+03  0.47576456378E+03  0.00000000000E+00 0. -1.
         22    1    1    2    0    0 -0.41578811428E+03 -0.15325767907E+03  0.42133147168E+03  0.61146372026E+03  0.00000000000E+00 0.  1.
<mgrwt>
<rscale>  0 0.13095035E+04</rscale>
<asrwt>0</asrwt>
<pdfrwt beam="1">  1        2 0.11007492E+00 0.13095035E+04</pdfrwt>
<pdfrwt beam="2">  1       -2 0.92180327E-01 0.13095035E+04</pdfrwt>
<totfact> 0.39038287E+01</totfact>
</mgrwt>
</event>
<event>
 6    1  0.1614874E-005  0.1216632E+04  0.7818608E-02  0.9098422E-01
         -1   -1    0    0    0  501 -0.00000000000E+00  0.00000000000E+00  0.21670583949E+03  0.21670583949E+03  0.00000000000E+00 0.  1.
          1   -1    0    0  501    0  0.00000000000E+00 -0.00000000000E+00 -0.17076063866E+04  0.17076063866E+04  0.00000000000E+00 0. -1.
         23    2    1    2    0    0 -0.27500151838E+03  0.39951289489E+03 -0.17489423054E+03  0.52177559073E+03  0.80158511181E+02 0.  0.
         11    1    3    3    0    0 -0.18185378418E+03  0.23922889014E+03 -0.14621503333E+03  0.33418572183E+03  0.00000000000E+00 0.  1.
        -11    1    3    3    0    0 -0.93147734194E+02  0.16028400475E+03 -0.28679197207E+02  0.18758986890E+03  0.00000000000E+00 0. -1.
         22    1    1    2    0    0  0.27500151838E+03 -0.39951289489E+03 -0.13160063166E+04  0.14025366354E+04  0.00000000000E+00 0. -1.
<mgrwt>
<rscale>  0 0.12166319E+04</rscale>
<asrwt>0</asrwt>
<pdfrwt beam="1">  1        1 0.26270867E+00 0.12166319E+04</pdfrwt>
<pdfrwt beam="2">  1       -1 0.33339360E-01 0.12166319E+04</pdfrwt>
<totfact> 0.39420585E+01</totfact>
</mgrwt>
</event>
<event>
 6    1  0.1614874E-005  0.6480114E+03  0.7818608E-02  0.9810518E-01
          1   -1    0    0  501    0  0.00000000000E+00  0.00000000000E+00  0.20377971220E+03  0.20377971220E+03  0.00000000000E+00 0. -1.
         -1   -1    0    0    0  501 -0.00000000000E+00 -0.00000000000E+00 -0.51516265516E+03  0.51516265516E+03  0.00000000000E+00 0.  1.
         23    2    1    2    0    0  0.15284899918E+03  0.24996056708E+03 -0.29543734072E+03  0.42551884431E+03  0.89106469601E+02 0.  0.
         13    1    3    3    0    0  0.14609981211E+03  0.19108389233E+03 -0.19833608606E+03  0.31176178733E+03  0.00000000000E+00 0. -1.
        -13    1    3    3    0    0  0.67491870709E+01  0.58876674749E+02 -0.97101254656E+02  0.11375705697E+03  0.00000000000E+00 0.  1.
         22    1    1    2    0    0 -0.15284899918E+03 -0.24996056708E+03 -0.15945602244E+02  0.29342352305E+03  0.00000000000E+00 0.  1.
<mgrwt>
<rscale>  0 0.64801141E+03</rscale>
<asrwt>0</asrwt>
<pdfrwt beam="1">  1        1 0.31350725E-01 0.64801141E+03</pdfrwt>
<pdfrwt beam="2">  1       -1 0.79255792E-01 0.64801141E+03</pdfrwt>
<totfact> 0.23458643E+02</totfact>
</mgrwt>
</event>
<event>
 6    1  0.1614874E-005  0.1456916E+04  0.7818608E-02  0.8913620E-01
         -1   -1    0    0    0  501 -0.00000000000E+00  0.00000000000E+00  0.21044103090E+03  0.21044103090E+03  0.00000000000E+00 0.  1.
          1   -1    0    0  501    0  0.00000000000E+00 -0.00000000000E+00 -0.25216133247E+04  0.25216133247E+04  0.00000000000E+00 0. -1.
         23    2    1    2    0    0  0.34449666549E+03  0.24650966930E+03 -0.22647828590E+04  0.23059124200E+04  0.92443067235E+02 0.  0.
         13    1    3    3    0    0  0.29584821575E+03  0.16837658766E+03 -0.17111318247E+04  0.17446629942E+04  0.00000000000E+00 0. -1.
        -13    1    3    3    0    0  0.48648449738E+02  0.78133081641E+02 -0.55365103434E+03  0.56124942578E+03  0.00000000000E+00 0.  1.
         22    1    1    2    0    0 -0.34449666549E+03 -0.24650966930E+03 -0.46389434759E+02  0.42614193557E+03  0.00000000000E+00 0.  1.
<mgrwt>
<rscale>  0 0.14569158E+04</rscale>
<asrwt>0</asrwt>
<pdfrwt beam="1">  1        1 0.38794054E+00 0.14569158E+04</pdfrwt>
<pdfrwt beam="2">  1       -1 0.32375541E-01 0.14569158E+04</pdfrwt>
<totfact> 0.11365042E+01</totfact>
</mgrwt>
</event>
<event>
 6    1  0.1614874E-005  0.2265265E+04  0.7818608E-02  0.8491744E-01
         -1   -1    0    0    0  501 -0.00000000000E+00  0.00000000000E+00  0.10200121292E+04  0.10200121292E+04  0.00000000000E+00 0.  1.
          1   -1    0    0  501    0  0.00000000000E+00 -0.00000000000E+00 -0.12576878987E+04  0.12576878987E+04  0.00000000000E+00 0. -1.
         23    2    1    2    0    0  0.10278655993E+04  0.89019609264E+02 -0.58449857162E+03  0.11892524007E+04  0.90832324398E+02 0.  0.
         13    1    3    3    0    0  0.73605076007E+03  0.35484487564E+02 -0.38184715878E+03  0.82996212138E+03  0.00000000000E+00 0.  1.
        -13    1    3    3    0    0  0.29181483928E+03  0.53535121700E+02 -0.20265141283E+03  0.35929027930E+03  0.00000000000E+00 0. -1.
         22    1    1    2    0    0 -0.10278655993E+04 -0.89019609264E+02  0.34682280216E+03  0.10884476272E+04  0.00000000000E+00 0.  1.
<mgrwt>
<rscale>  0 0.22652655E+04</rscale>
<asrwt>0</asrwt>
<pdfrwt beam="1">  1        1 0.19349045E+00 0.22652655E+04</pdfrwt>
<pdfrwt beam="2">  1       -1 0.15692494E+00 0.22652655E+04</pdfrwt>
<totfact> 0.27131806E+00</totfact>
</mgrwt>
</event>
<event>
 6    1  0.1614874E-005  0.3327993E+04  0.7818608E-02  0.8155809E-01
          2   -1    0    0  501    0  0.00000000000E+00  0.00000000000E+00  0.23400877316E+04  0.23400877316E+04  0.00000000000E+00 0. -1.
         -2   -1    0    0    0  501 -0.00000000000E+00 -0.00000000000E+00 -0.11832393753E+04  0.11832393753E+04  0.00000000000E+00 0.  1.
         23    2    1    2    0    0 -0.79353911010E+03  0.72821738481E+02 -0.96616735705E+03  0.12556844887E+04  0.90867202366E+02 0.  0.
         11    1    3    3    0    0 -0.12592001860E+03 -0.63124811079E+00 -0.10771453004E+03  0.16570657664E+03  0.00000000000E+00 0.  1.
        -11    1    3    3    0    0 -0.66761909149E+03  0.73452986591E+02 -0.85845282701E+03  0.10899779121E+04  0.00000000000E+00 0. -1.
         22    1    1    2    0    0  0.79353911010E+03 -0.72821738481E+02  0.21230157134E+04  0.22676426183E+04  0.00000000000E+00 0. -1.
<mgrwt>
<rscale>  0 0.33279928E+04</rscale>
<asrwt>0</asrwt>
<pdfrwt beam="1">  1        2 0.36001350E+00 0.33279928E+04</pdfrwt>
<pdfrwt beam="2">  1       -2 0.18203683E+00 0.33279928E+04</pdfrwt>
<totfact> 0.62928332E-01</totfact>
</mgrwt>
</event>
<event>
 6    1  0.1614874E-005  0.8509038E+03  0.7818608E-02  0.9489125E-01
          3   -1    0    0  501    0  0.00000000000E+00  0.00000000000E+00  0.30935394593E+03  0.30935394593E+03  0.00000000000E+00 0. -1.
         -3   -1    0    0    0  501 -0.00000000000E+00 -0.00000000000E+00 -0.58512049443E+03  0.58512049443E+03  0.00000000000E+00 0.  1.
         23    2    1    2    0    0 -0.87986560329E+02  0.34087766534E+03  0.99501622843E+02  0.37992082998E+03  0.10246973492E+03 0.  0.
         13    1    3    3    0    0 -0.99941146305E+02  0.24304809355E+03  0.10050843531E+03  0.28135840856E+03  0.00000000000E+00 0. -1.
        -13    1    3    3    0    0  0.11954585976E+02  0.97829571795E+02 -0.10068124654E+01  0.98562421413E+02  0.00000000000E+00 0.  1.
         22    1    1    2    0    0  0.87986560329E+02 -0.34087766534E+03 -0.37526817135E+03  0.51455361038E+03  0.00000000000E+00 0.  1.
<mgrwt>
<rscale>  0 0.85090383E+03</rscale>
<asrwt>0</asrwt>
<pdfrwt beam="1">  1        3 0.47592915E-01 0.85090383E+03</pdfrwt>
<pdfrwt beam="2">  1       -3 0.90018538E-01 0.85090383E+03</pdfrwt>
<totfact> 0.12861563E+01</totfact>
</mgrwt>
</event>
<event>
 6    1  0.1614874E-005  0.1946040E+04  0.7818608E-02  0.8632273E-01
          2   -1    0    0  501    0  0.00000000000E+00  0.00000000000E+00  0.18240904183E+04  0.18240904183E+04  0.00000000000E+00 0. -1.
         -2   -1    0    0    0  501 -0.00000000000E+00 -0.00000000000E+00 -0.51903584497E+03  0.51903584497E+03  0.00000000000E+00 0.  1.
         23    2    1    2    0    0 -0.42976094303E+03  0.20195139594E+03  0.16735984880E+04  0.17420410352E+04  0.91083668188E+02 0.  0.
         11    1    3    3    0    0 -0.90150465739E+02  0.79043754089E+02  0.49707671664E+03  0.51133187243E+03  0.00000000000E+00 0. -1.
        -11    1    3    3    0    0 -0.33961047729E+03  0.12290764185E+03  0.11765217714E+04  0.12307091627E+04  0.00000000000E+00 0.  1.
         22    1    1    2    0    0  0.42976094303E+03 -0.20195139594E+03 -0.36854391464E+03  0.60108522815E+03  0.00000000000E+00 0.  1.
<mgrwt>
<rscale>  0 0.19460404E+04</rscale>
<asrwt>0</asrwt>
<pdfrwt beam="1">  1        2 0.28062929E+00 0.19460404E+04</pdfrwt>
<pdfrwt beam="2">  1       -2 0.79851669E-01 0.19460404E+04</pdfrwt>
<totfact> 0.10836528E+01</totfact>
</mgrwt>
</event>
<event>
 6    1  0.1614874E-005  0.3789885E+04  0.7818608E-02  0.8048329E-01
          2   -1    0    0  501    0  0.00000000000E+00  0.00000000000E+00  0.33012325186E+04  0.33012325186E+04  0.00000000000E+00 0. -1.
         -2   -1    0    0    0  501 -0.00000000000E+00 -0.00000000000E+00 -0.10877169313E+04  0.10877169313E+04  0.00000000000E+00 0.  1.
         23    2    1    2    0    0  0.49756806351E+03 -0.17590826634E+04  0.53470335446E+03  0.19069429415E+04  0.92617009833E+02 0.  0.
         11    1    3    3    0    0  0.21025362506E+03 -0.61947416082E+03  0.22137254948E+03  0.69062336221E+03  0.00000000000E+00 0.  1.
        -11    1    3    3    0    0  0.28731443845E+03 -0.11396085025E+04  0.31333080498E+03  0.12163195793E+04  0.00000000000E+00 0. -1.
         22    1    1    2    0    0 -0.49756806351E+03  0.17590826634E+04  0.16788122328E+04  0.24820065084E+04  0.00000000000E+00 0. -1.
<mgrwt>
<rscale>  0 0.37898847E+04</rscale>
<asrwt>0</asrwt>
<pdfrwt beam="1">  1        2 0.50788192E+00 0.37898847E+04</pdfrwt>
<pdfrwt beam="2">  1       -2 0.16734107E+00 0.37898847E+04</pdfrwt>
<totfact> 0.19840976E-01</totfact>
</mgrwt>
</event>
<event>
 6    1  0.1614874E-005  0.9699943E+03  0.7818608E-02  0.9342081E-01
          2   -1    0    0  501    0  0.00000000000E+00  0.00000000000E+00  0.49164953442E+03  0.49164953442E+03  0.00000000000E+00 0. -1.
         -2   -1    0    0    0  501 -0.00000000000E+00 -0.00000000000E+00 -0.47843472855E+03  0.47843472855E+03  0.00000000000E+00 0.  1.
         23    2    1    2    0    0 -0.45058798380E+03  0.19550868362E+02 -0.15948932542E+03  0.48713655921E+03  0.91942453737E+02 0.  0.
         11    1    3    3    0    0 -0.81389750132E+02  0.39507190549E+02 -0.34965725344E+02  0.96993357919E+02  0.00000000000E+00 0.  1.
        -11    1    3    3    0    0 -0.36919823367E+03 -0.19956322187E+02 -0.12452360007E+03  0.39014320129E+03  0.00000000000E+00 0. -1.
         22    1    1    2    0    0  0.45058798380E+03 -0.19550868362E+02  0.17270413128E+03  0.48294770376E+03  0.00000000000E+00 0. -1.
<mgrwt>
<rscale>  0 0.96999425E+03</rscale>
<asrwt>0</asrwt>
<pdfrwt beam="1">  1        2 0.75638390E-01 0.96999425E+03</pdfrwt>
<pdfrwt beam="2">  1       -2 0.73605343E-01 0.96999425E+03</pdfrwt>
<totfact> 0.10461012E+02</totfact>
</mgrwt>
</event>
<event>
 6    1  0.1614874E-005  0.1313436E+04  0.7818608E-02  0.9018977E-01
          2   -1    0    0  501    0  0.00000000000E+00  0.00000000000E+00  0.11037739966E+04  0.11037739966E+04  0.00000000000E+00 0. -1.
         -2   -1    0    0    0  501 -0.00000000000E+00 -0.00000000000E+00 -0.39073108359E+03  0.39073108359E+03  0.00000000000E+00 0.  1.
         23    2    1    2    0    0 -0.43375272691E+03  0.13123940367E+03 -0.17748156416E+03  0.49530587403E+03  0.91994532732E+02 0.  0.
         13    1    3    3    0    0 -0.13929440943E+02  0.72059908400E+01  0.10516488474E+02  0.18882588774E+02  0.00000000000E+00 0. -1.
        -13    1    3    3    0    0 -0.41982328597E+03  0.12403341283E+03 -0.18799805263E+03  0.47642328526E+03  0.00000000000E+00 0.  1.
         22    1    1    2    0    0  0.43375272691E+03 -0.13123940367E+03  0.89052447721E+03  0.99919920621E+03  0.00000000000E+00 0. -1.
<mgrwt>
<rscale>  0 0.13134364E+04</rscale>
<asrwt>0</asrwt>
<pdfrwt beam="1">  1        2 0.16981138E+00 0.13134364E+04</pdfrwt>
<pdfrwt beam="2">  1       -2 0.60112475E-01 0.13134364E+04</pdfrwt>
<totfact> 0.54744396E+01</totfact>
</mgrwt>
</event>
<event>
 6    1  0.1614874E-005  0.1770804E+04  0.7818608E-02  0.8721981E-01
          1   -1    0    0  501    0  0.00000000000E+00  0.00000000000E+00  0.38167863952E+03  0.38167863952E+03  0.00000000000E+00 0. -1.
         -1   -1    0    0    0  501 -0.00000000000E+00 -0.00000000000E+00 -0.20539191193E+04  0.20539191193E+04  0.00000000000E+00 0.  1.
         23    2    1    2    0    0 -0.29283557753E+03 -0.83302602314E+03 -0.84332276076E+03  0.12244868574E+04  0.92139862982E+02 0.  0.
         11    1    3    3    0    0 -0.14510630929E+03 -0.53668707060E+03 -0.55211399122E+03  0.78352964975E+03  0.00000000000E+00 0. -1.
        -11    1    3    3    0    0 -0.14772926824E+03 -0.29633895253E+03 -0.29120876954E+03  0.44095720761E+03  0.00000000000E+00 0.  1.
         22    1    1    2    0    0  0.29283557753E+03  0.83302602314E+03 -0.82891771900E+03  0.12111109014E+04  0.00000000000E+00 0. -1.
<mgrwt>
<rscale>  0 0.17708044E+04</rscale>
<asrwt>0</asrwt>
<pdfrwt beam="1">  1        1 0.58719790E-01 0.17708044E+04</pdfrwt>
<pdfrwt beam="2">  1       -1 0.31598756E+00 0.17708044E+04</pdfrwt>
<totfact> 0.15730751E+00</totfact>
</mgrwt>
</event>
<event>
 6    1  0.1614874E-005  0.1214908E+04  0.7818608E-02  0.9099906E-01
         -1   -1    0    0    0  501 -0.00000000000E+00  0.00000000000E+00  0.10216235027E+04  0.10216235027E+04  0.00000000000E+00 0.  1.
          1   -1    0    0  501    0  0.00000000000E+00 -0.00000000000E+00 -0.36119043862E+03  0.36119043862E+03  0.00000000000E+00 0. -1.
         23    2    1    2    0    0  0.10488024928E+03 -0.42372780450E+03  0.80714430120E+03  0.92230410849E+03  0.92832249677E+02 0.  0.
         11    1    3    3    0    0  0.45453569553E+02 -0.82355900479E+02  0.23881519896E+03  0.25667337334E+03  0.00000000000E+00 0. -1.
        -11    1    3    3    0    0  0.59426679730E+02 -0.34137190402E+03  0.56832910224E+03  0.66563073515E+03  0.00000000000E+00 0.  1.
         22    1    1    2    0    0 -0.10488024928E+03  0.42372780450E+03 -0.14671123715E+03  0.46050983280E+03  0.00000000000E+00 0. -1.
<mgrwt>
<rscale>  0 0.12149085E+04</rscale>
<asrwt>0</asrwt>
<pdfrwt beam="1">  1        1 0.55567760E-01 0.12149085E+04</pdfrwt>
<pdfrwt beam="2">  1       -1 0.15717285E+00 0.12149085E+04</pdfrwt>
<totfact> 0.20860379E+01</totfact>
</mgrwt>
</event>
<event>
 6    1  0.1614874E-005  0.2483982E+04  0.7818608E-02  0.8408714E-01
          2   -1    0    0  501    0  0.00000000000E+00  0.00000000000E+00  0.13251598070E+04  0.13251598070E+04  0.00000000000E+00 0. -1.
         -2   -1    0    0    0  501 -0.00000000000E+00 -0.00000000000E+00 -0.11640423258E+04  0.11640423258E+04  0.00000000000E+00 0.  1.
         23    2    1    2    0    0  0.76978556586E+03  0.51010114365E+03 -0.74961203652E+03  0.11922051210E+04  0.81620163404E+02 0.  0.
         13    1    3    3    0    0  0.17571183092E+03  0.15611438485E+03 -0.17382525797E+03  0.29233810732E+03  0.00000000000E+00 0.  1.
        -13    1    3    3    0    0  0.59407373493E+03  0.35398675880E+03 -0.57578677856E+03  0.89986701367E+03  0.00000000000E+00 0. -1.
         22    1    1    2    0    0 -0.76978556586E+03 -0.51010114365E+03  0.91072951775E+03  0.12969970118E+04  0.00000000000E+00 0. -1.
<mgrwt>
<rscale>  0 0.24839824E+04</rscale>
<asrwt>0</asrwt>
<pdfrwt beam="1">  1        2 0.20387074E+00 0.24839824E+04</pdfrwt>
<pdfrwt beam="2">  1       -2 0.17908343E+00 0.24839824E+04</pdfrwt>
<totfact> 0.26265291E+00</totfact>
</mgrwt>
</event>
<event>
 6    1  0.1614874E-005  0.4027319E+04  0.7818608E-02  0.7999058E-01
         -1   -1    0    0    0  501 -0.00000000000E+00  0.00000000000E+00  0.12036690596E+04  0.12036690596E+04  0.00000000000E+00 0.  1.
          1   -1    0    0  501    0  0.00000000000E+00 -0.00000000000E+00 -0.33687196742E+04  0.33687196742E+04  0.00000000000E+00 0. -1.
         23    2    1    2    0    0  0.91755643997E+03  0.92209452156E+03 -0.28266485849E+04  0.31129778933E+04  0.92309340463E+02 0.  0.
         13    1    3    3    0    0  0.17409527151E+03  0.16502291012E+03 -0.44156157613E+03  0.50251203960E+03  0.00000000000E+00 0. -1.
        -13    1    3    3    0    0  0.74346116845E+03  0.75707161144E+03 -0.23850870087E+04  0.26104658537E+04  0.00000000000E+00 0.  1.
         22    1    1    2    0    0 -0.91755643997E+03 -0.92209452156E+03  0.66159797022E+03  0.14594108405E+04  0.00000000000E+00 0.  1.
<mgrwt>
<rscale>  0 0.40273185E+04</rscale>
<asrwt>0</asrwt>
<pdfrwt beam="1">  1        1 0.51826455E+00 0.40273185E+04</pdfrwt>
<pdfrwt beam="2">  1       -1 0.18517986E+00 0.40273185E+04</pdfrwt>
<totfact> 0.47149618E-02</totfact>
</mgrwt>
</event>
<event>
 6    1  0.1614874E-005  0.3588358E+04  0.7818608E-02  0.8093164E-01
         -1   -1    0    0    0  501 -0.00000000000E+00  0.00000000000E+00  0.52685468690E+04  0.52685468690E+04  0.00000000000E+00 0.  1.
          1   -1    0    0  501    0  0.00000000000E+00 -0.00000000000E+00 -0.61099942480E+03  0.61099942480E+03  0.00000000000E+00 0. -1.
         23    2    1    2    0    0 -0.21141642481E+03  0.13687259278E+04  0.41961608935E+04  0.44197568846E+04  0.91526526431E+02 0.  0.
         11    1    3    3    0    0 -0.16113773734E+03  0.74491702637E+03  0.23020155670E+04  0.24249004963E+04  0.00000000000E+00 0. -1.
        -11    1    3    3    0    0 -0.50278687465E+02  0.62380890139E+03  0.18941453265E+04  0.19948563883E+04  0.00000000000E+00 0.  1.
         22    1    1    2    0    0  0.21141642481E+03 -0.13687259278E+04  0.46138655074E+03  0.14597894092E+04  0.00000000000E+00 0. -1.
<mgrwt>
<rscale>  0 0.35883585E+04</rscale>
<asrwt>0</asrwt>
<pdfrwt beam="1">  1        1 0.93999915E-01 0.35883585E+04</pdfrwt>
<pdfrwt beam="2">  1       -1 0.81054564E+00 0.35883585E+04</pdfrwt>
<totfact> 0.16189304E-03</totfact>
</mgrwt>
</event>
<event>
 6    1  0.1614874E-005  0.1561950E+04  0.7818608E-02  0.8844271E-01
          1   -1    0    0  501    0  0.00000000000E+00  0.00000000000E+00  0.69943855665E+03  0.69943855665E+03  0.00000000000E+00 0. -1.
         -1   -1    0    0    0  501 -0.00000000000E+00 -0.00000000000E+00 -0.87201615204E+03  0.87201615204E+03  0.00000000000E+00 0.  1.
         23    2    1    2    0    0 -0.28763510179E+03 -0.62019535085E+03 -0.46090118159E+03  0.82949331120E+03  0.90846183945E+02 0.  0.
         13    1    3    3    0    0 -0.19508935093E+03 -0.31735759217E+03 -0.26435948632E+03  0.45679495855E+03  0.00000000000E+00 0. -1.
        -13    1    3    3    0    0 -0.92545750864E+02 -0.30283775869E+03 -0.19654169527E+03  0.37269835265E+03  0.00000000000E+00 0.  1.
         22    1    1    2    0    0  0.28763510179E+03  0.62019535085E+03  0.28832358620E+03  0.74196139749E+03  0.00000000000E+00 0. -1.
<mgrwt>
<rscale>  0 0.15619497E+04</rscale>
<asrwt>0</asrwt>
<pdfrwt beam="1">  1        1 0.10760593E+00 0.15619497E+04</pdfrwt>
<pdfrwt beam="2">  1       -1 0.13415633E+00 0.15619497E+04</pdfrwt>
<totfact> 0.12292561E+01</totfact>
</mgrwt>
</event>
<event>
 6    1  0.1614874E-005  0.4889296E+04  0.7818608E-02  0.7845815E-01
         -2   -1    0    0    0  501 -0.00000000000E+00  0.00000000000E+00  0.26190487203E+04  0.26190487203E+04  0.00000000000E+00 0.  1.
          2   -1    0    0  501    0  0.00000000000E+00 -0.00000000000E+00 -0.22818605148E+04  0.22818605148E+04  0.00000000000E+00 0. -1.
         23    2    1    2    0    0  0.24429622255E+04  0.57678994413E+02  0.20009967625E+03  0.24534238794E+04  0.88642822697E+02 0.  0.
         13    1    3    3    0    0  0.97157259438E+03 -0.19888029315E+02  0.86509181225E+02  0.97561912563E+03  0.00000000000E+00 0. -1.
        -13    1    3    3    0    0  0.14713896311E+04  0.77567023728E+02  0.11359049503E+03  0.14778047537E+04  0.00000000000E+00 0.  1.
         22    1    1    2    0    0 -0.24429622255E+04 -0.57678994413E+02  0.13708852926E+03  0.24474853557E+04  0.00000000000E+00 0.  1.
<mgrwt>
<rscale>  0 0.48892960E+04</rscale>
<asrwt>0</asrwt>
<pdfrwt beam="1">  1        2 0.35105546E+00 0.48892960E+04</pdfrwt>
<pdfrwt beam="2">  1       -2 0.40293057E+00 0.48892960E+04</pdfrwt>
<totfact> 0.24228808E-02</totfact>
</mgrwt>
</event>
<event>
 6    1  0.1614874E-005  0.9055574E+03  0.7818608E-02  0.9418661E-01
          4   -1    0    0  501    0  0.00000000000E+00  0.00000000000E+00  0.26964545333E+03  0.26964545333E+03  0.00000000000E+00 0. -1.
         -4   -1    0    0    0  501 -0.00000000000E+00 -0.00000000000E+00 -0.76028934258E+03  0.76028934258E+03  0.00000000000E+00 0.  1.
         23    2    1    2    0    0 -0.80410562089E+02 -0.78149244208E+02 -0.74284472285E+03  0.75393040584E+03  0.63400407817E+02 0.  0.
         11    1    3    3    0    0  0.39367207576E+01 -0.28243832489E+02 -0.23421802117E+03  0.23594764946E+03  0.00000000000E+00 0. -1.
        -11    1    3    3    0    0 -0.84347282846E+02 -0.49905411720E+02 -0.50862670168E+03  0.51798275638E+03  0.00000000000E+00 0.  1.
         22    1    1    2    0    0  0.80410562089E+02  0.78149244208E+02  0.25220083360E+03  0.27600439007E+03  0.00000000000E+00 0. -1.
<mgrwt>
<rscale>  0 0.90555743E+03</rscale>
<asrwt>0</asrwt>
<pdfrwt beam="1">  1        4 0.41483916E-01 0.90555743E+03</pdfrwt>
<pdfrwt beam="2">  1       -4 0.11696759E+00 0.90555743E+03</pdfrwt>
<totfact> 0.63562417E+00</totfact>
</mgrwt>
</event>
<event>
 6    1  0.1614874E-005  0.2982142E+04  0.7818608E-02  0.8248849E-01
         -1   -1    0    0    0  501 -0.00000000000E+00  0.00000000000E+00  0.14332892047E+04  0.14332892047E+04  0.00000000000E+00 0.  1.
          1   -1    0    0  501    0  0.00000000000E+00 -0.00000000000E+00 -0.15511825086E+04  0.15511825086E+04  0.00000000000E+00 0. -1.
         23    2    1    2    0    0 -0.75725875693E+03 -0.11147805525E+04 -0.69437703631E+03  0.15186920577E+04  0.89942160450E+02 0.  0.
         11    1    3    3    0    0 -0.38433513539E+03 -0.63022488481E+03 -0.40935197995E+03  0.84407697825E+03  0.00000000000E+00 0. -1.
        -11    1    3    3    0    0 -0.37292362154E+03 -0.48455566771E+03 -0.28502505636E+03  0.67461507941E+03  0.00000000000E+00 0.  1.
         22    1    1    2    0    0  0.75725875693E+03  0.11147805525E+04  0.57648373246E+03  0.14657796557E+04  0.00000000000E+00 0.  1.
<mgrwt>
<rscale>  0 0.29821423E+04</rscale>
<asrwt>0</asrwt>
<pdfrwt beam="1">  1        1 0.23864346E+00 0.29821423E+04</pdfrwt>
<pdfrwt beam="2">  1       -1 0.22050603E+00 0.29821423E+04</pdfrwt>
<totfact> 0.56118658E-01</totfact>
</mgrwt>
</event>
<event>
 6    1  0.1614874E-005  0.2886514E+03  0.7818608E-02  0.1091055E+00
         -2   -1    0    0    0  501 -0.00000000000E+00  0.00000000000E+00  0.84259220439E+02  0.84259220439E+02  0.00000000000E+00 0.  1.
          2   -1    0    0  501    0  0.00000000000E+00 -0.00000000000E+00 -0.24721221291E+03  0.24721221291E+03  0.00000000000E+00 0. -1.
         23    2    1    2    0    0  0.22532991228E+02 -0.12047682757E+03 -0.14013782496E+03  0.20680013134E+03  0.90029343352E+02 0.  0.
         11    1    3    3    0    0 -0.60967672300E+01 -0.21308147415E+02 -0.88791054863E+02  0.91515349208E+02  0.00000000000E+00 0.  1.
        -11    1    3    3    0    0  0.28629758458E+02 -0.99168680152E+02 -0.51346770098E+02  0.11528478214E+03  0.00000000000E+00 0. -1.
         22    1    1    2    0    0 -0.22532991228E+02  0.12047682757E+03 -0.22815167506E+02  0.12467130200E+03  0.00000000000E+00 0.  1.
<mgrwt>
<rscale>  0 0.28865140E+03</rscale>
<asrwt>0</asrwt>
<pdfrwt beam="1">  1        2 0.38032648E-01 0.28865140E+03</pdfrwt>
<pdfrwt beam="2">  1       -2 0.12962957E-01 0.28865140E+03</pdfrwt>
<totfact> 0.58560896E+03</totfact>
</mgrwt>
</event>
<event>
 6    1  0.1614874E-005  0.1539698E+04  0.7818608E-02  0.8858475E-01
          2   -1    0    0  501    0  0.00000000000E+00  0.00000000000E+00  0.45325706245E+03  0.45325706245E+03  0.00000000000E+00 0.  1.
         -2   -1    0    0    0  501 -0.00000000000E+00 -0.00000000000E+00 -0.13075745868E+04  0.13075745868E+04  0.00000000000E+00 0. -1.
         23    2    1    2    0    0  0.43179676473E+03  0.91597993269E+02  0.28892460642E+03  0.53533533837E+03  0.90927762068E+02 0.  0.
         11    1    3    3    0    0  0.19034767492E+03  0.86698468061E+02  0.13606963149E+03  0.24952716551E+03  0.00000000000E+00 0.  1.
        -11    1    3    3    0    0  0.24144908981E+03  0.48995252081E+01  0.15285497493E+03  0.28580817287E+03  0.00000000000E+00 0. -1.
         22    1    1    2    0    0 -0.43179676473E+03 -0.91597993269E+02 -0.11432421307E+04  0.12254963108E+04  0.00000000000E+00 0. -1.
<mgrwt>
<rscale>  0 0.15396979E+04</rscale>
<asrwt>0</asrwt>
<pdfrwt beam="1">  1        2 0.69731855E-01 0.15396979E+04</pdfrwt>
<pdfrwt beam="2">  1       -2 0.20116532E+00 0.15396979E+04</pdfrwt>
<totfact> 0.86743277E+00</totfact>
</mgrwt>
</event>
<event>
 6    1  0.1614874E-005  0.3581507E+04  0.7818608E-02  0.8094741E-01
         -2   -1    0    0    0  501 -0.00000000000E+00  0.00000000000E+00  0.22806033817E+04  0.22806033817E+04  0.00000000000E+00 0.  1.
          2   -1    0    0  501    0  0.00000000000E+00 -0.00000000000E+00 -0.14061182952E+04  0.14061182952E+04  0.00000000000E+00 0. -1.
         23    2    1    2    0    0 -0.62380758184E+03 -0.39852036525E+03  0.21147274758E+04  0.22423686850E+04  0.90502166031E+02 0.  0.
         13    1    3    3    0    0 -0.24985444134E+03 -0.13873380235E+03  0.69699966924E+03  0.75331457486E+03  0.00000000000E+00 0.  1.
        -13    1    3    3    0    0 -0.37395314050E+03 -0.25978656290E+03  0.14177278066E+04  0.14890541102E+04  0.00000000000E+00 0. -1.
         22    1    1    2    0    0  0.62380758184E+03  0.39852036525E+03 -0.12402423894E+04  0.14443529918E+04  0.00000000000E+00 0. -1.
<mgrwt>
<rscale>  0 0.35815070E+04</rscale>
<asrwt>0</asrwt>
<pdfrwt beam="1">  1        2 0.21632589E+00 0.35815070E+04</pdfrwt>
<pdfrwt beam="2">  1       -2 0.35086206E+00 0.35815070E+04</pdfrwt>
<totfact> 0.17994907E-01</totfact>
</mgrwt>
</event>
<event>
 6    1  0.1614874E-005  0.7586952E+03  0.7818608E-02  0.9621807E-01
          2   -1    0    0  501    0  0.00000000000E+00  0.00000000000E+00  0.46604653388E+04  0.46604653388E+04  0.00000000000E+00 0. -1.
         -2   -1    0    0    0  501 -0.00000000000E+00 -0.00000000000E+00 -0.30877732214E+02  0.30877732214E+02  0.00000000000E+00 0.  1.
         23    2    1    2    0    0  0.40963342850E+02  0.26129498484E+03  0.39813178786E+04  0.39911954403E+04  0.93786607150E+02 0.  0.
         11    1    3    3    0    0 -0.12615274802E+02  0.90426740017E+00  0.31395622114E+03  0.31421087131E+03  0.00000000000E+00 0. -1.
        -11    1    3    3    0    0  0.53578617652E+02  0.26039071744E+03  0.36673616575E+04  0.36769845690E+04  0.00000000000E+00 0.  1.
         22    1    1    2    0    0 -0.40963342850E+02 -0.26129498484E+03  0.64826972790E+03  0.70014763063E+03  0.00000000000E+00 0.  1.
<mgrwt>
<rscale>  0 0.75869520E+03</rscale>
<asrwt>0</asrwt>
<pdfrwt beam="1">  1        2 0.71699411E+00 0.75869520E+03</pdfrwt>
<pdfrwt beam="2">  1       -2 0.47504240E-02 0.75869520E+03</pdfrwt>
<totfact> 0.21592394E+01</totfact>
</mgrwt>
</event>
<event>
 6    1  0.1614874E-005  0.9369935E+03  0.7818608E-02  0.9380484E-01
          1   -1    0    0  501    0  0.00000000000E+00  0.00000000000E+00  0.31245090088E+04  0.31245090088E+04  0.00000000000E+00 0. -1.
         -1   -1    0    0    0  501 -0.00000000000E+00 -0.00000000000E+00 -0.70247582406E+02  0.70247582406E+02  0.00000000000E+00 0.  1.
         23    2    1    2    0    0 -0.29168429785E+03 -0.34000622925E+03  0.19546742416E+04  0.20074167315E+04  0.91030640398E+02 0.  0.
         13    1    3    3    0    0 -0.10659871495E+03 -0.13838208402E+03  0.57880636057E+03  0.60459051452E+03  0.00000000000E+00 0. -1.
        -13    1    3    3    0    0 -0.18508558289E+03 -0.20162414523E+03  0.13758678810E+04  0.14028262170E+04  0.00000000000E+00 0.  1.
         22    1    1    2    0    0  0.29168429785E+03  0.34000622925E+03  0.10995871848E+04  0.11873398597E+04  0.00000000000E+00 0. -1.
<mgrwt>
<rscale>  0 0.93699350E+03</rscale>
<asrwt>0</asrwt>
<pdfrwt beam="1">  1        1 0.48069359E+00 0.93699350E+03</pdfrwt>
<pdfrwt beam="2">  1       -1 0.10807323E-01 0.93699350E+03</pdfrwt>
<totfact> 0.27993070E+01</totfact>
</mgrwt>
</event>
<event>
 6    1  0.1614874E-005  0.2399677E+04  0.7818608E-02  0.8439624E-01
         -2   -1    0    0    0  501 -0.00000000000E+00  0.00000000000E+00  0.14527492939E+04  0.14527492939E+04  0.00000000000E+00 0.  1.
          2   -1    0    0  501    0  0.00000000000E+00 -0.00000000000E+00 -0.99095754038E+03  0.99095754038E+03  0.00000000000E+00 0. -1.
         23    2    1    2    0    0 -0.86417040767E+03 -0.82412189563E+03  0.13251941855E+03  0.12050028087E+04  0.92211606149E+02 0.  0.
         11    1    3    3    0    0 -0.54443484030E+03 -0.46918856148E+03  0.52408585556E+02  0.72062046973E+03  0.00000000000E+00 0. -1.
        -11    1    3    3    0    0 -0.31973556737E+03 -0.35493333415E+03  0.80110832991E+02  0.48438233896E+03  0.00000000000E+00 0.  1.
         22    1    1    2    0    0  0.86417040767E+03  0.82412189563E+03  0.32927233494E+03  0.12387040255E+04  0.00000000000E+00 0.  1.
<mgrwt>
<rscale>  0 0.23996774E+04</rscale>
<asrwt>0</asrwt>
<pdfrwt beam="1">  1        2 0.15245501E+00 0.23996774E+04</pdfrwt>
<pdfrwt beam="2">  1       -2 0.22349989E+00 0.23996774E+04</pdfrwt>
<totfact> 0.21558199E+00</totfact>
</mgrwt>
</event>
<event>
 6    1  0.1614874E-005  0.3215006E+04  0.7818608E-02  0.8184865E-01
          2   -1    0    0  501    0  0.00000000000E+00  0.00000000000E+00  0.25932854508E+04  0.25932854508E+04  0.00000000000E+00 0. -1.
         -2   -1    0    0    0  501 -0.00000000000E+00 -0.00000000000E+00 -0.99644471363E+03  0.99644471363E+03  0.00000000000E+00 0.  1.
         23    2    1    2    0    0  0.13893130312E+03  0.88609256537E+03  0.22869148177E+04  0.24580658247E+04  0.87442975143E+02 0.  0.
         11    1    3    3    0    0  0.32304905369E+02  0.24545701867E+03  0.74131405459E+03  0.78156207844E+03  0.00000000000E+00 0. -1.
        -11    1    3    3    0    0  0.10662639775E+03  0.64063554670E+03  0.15456007631E+04  0.16765037463E+04  0.00000000000E+00 0.  1.
         22    1    1    2    0    0 -0.13893130312E+03 -0.88609256537E+03 -0.69007408046E+03  0.11316643398E+04  0.00000000000E+00 0.  1.
<mgrwt>
<rscale>  0 0.32150058E+04</rscale>
<asrwt>0</asrwt>
<pdfrwt beam="1">  1        2 0.39896699E+00 0.32150058E+04</pdfrwt>
<pdfrwt beam="2">  1       -2 0.15329919E+00 0.32150058E+04</pdfrwt>
<totfact> 0.73009035E-01</totfact>
</mgrwt>
</event>
<event>
 6    1  0.1614874E-005  0.6103086E+03  0.7818608E-02  0.9884247E-01
         -2   -1    0    0    0  501 -0.00000000000E+00  0.00000000000E+00  0.20771278128E+03  0.20771278128E+03  0.00000000000E+00 0.  1.
          2   -1    0    0  501    0  0.00000000000E+00 -0.00000000000E+00 -0.44830726752E+03  0.44830726752E+03  0.00000000000E+00 0. -1.
         23    2    1    2    0    0  0.18342843443E+03  0.23204225462E+03 -0.13247715866E+03  0.34109314457E+03  0.10632373782E+03 0.  0.
         13    1    3    3    0    0  0.96370494771E+02  0.16683059102E+03 -0.12975732521E+03  0.23228577616E+03  0.00000000000E+00 0.  1.
        -13    1    3    3    0    0  0.87057939655E+02  0.65211663600E+02 -0.27198334486E+01  0.10880736841E+03  0.00000000000E+00 0. -1.
         22    1    1    2    0    0 -0.18342843443E+03 -0.23204225462E+03 -0.10811732757E+03  0.31492690422E+03  0.00000000000E+00 0. -1.
<mgrwt>
<rscale>  0 0.61030861E+03</rscale>
<asrwt>0</asrwt>
<pdfrwt beam="1">  1        2 0.68970348E-01 0.61030861E+03</pdfrwt>
<pdfrwt beam="2">  1       -2 0.31955813E-01 0.61030861E+03</pdfrwt>
<totfact> 0.64000223E+02</totfact>
</mgrwt>
</event>
<event>
 6    1  0.1614874E-005  0.8634905E+03  0.7818608E-02  0.9472407E-01
         -4   -1    0    0    0  501 -0.00000000000E+00  0.00000000000E+00  0.97105430571E+02  0.97105430571E+02  0.00000000000E+00 0.  1.
          4   -1    0    0  501    0  0.00000000000E+00 -0.00000000000E+00 -0.19196040191E+04  0.19196040191E+04  0.00000000000E+00 0. -1.
         23    2    1    2    0    0 -0.15936217442E+03 -0.39541026425E+03 -0.87608687190E+03  0.97871103105E+03  0.92744247599E+02 0.  0.
         13    1    3    3    0    0 -0.10702003919E+03 -0.23484889908E+03 -0.62420884172E+03  0.67545834236E+03  0.00000000000E+00 0.  1.
        -13    1    3    3    0    0 -0.52342135232E+02 -0.16056136516E+03 -0.25187803019E+03  0.30325268869E+03  0.00000000000E+00 0. -1.
         22    1    1    2    0    0  0.15936217442E+03  0.39541026425E+03 -0.94641171667E+03  0.10379984187E+04  0.00000000000E+00 0.  1.
<mgrwt>
<rscale>  0 0.86349053E+03</rscale>
<asrwt>0</asrwt>
<pdfrwt beam="1">  1        4 0.29532368E+00 0.86349053E+03</pdfrwt>
<pdfrwt beam="2">  1       -4 0.14939298E-01 0.86349053E+03</pdfrwt>
<totfact> 0.26486469E+00</totfact>
</mgrwt>
</event>
<event>
 6    1  0.1614874E-005  0.2002677E+04  0.7818608E-02  0.8605370E-01
          2   -1    0    0  501    0  0.00000000000E+00  0.00000000000E+00  0.22355031890E+04  0.22355031890E+04  0.00000000000E+00 0. -1.
         -2   -1    0    0    0  501 -0.00000000000E+00 -0.00000000000E+00 -0.44852502026E+03  0.44852502026E+03  0.00000000000E+00 0.  1.
         23    2    1    2    0    0 -0.85975580646E+03  0.28448449897E+03  0.14617348189E+04  0.17217939792E+04  0.88285610508E+02 0.  0.
         13    1    3    3    0    0 -0.38943833258E+03  0.91373148632E+02  0.69232669001E+03  0.79957958508E+03  0.00000000000E+00 0. -1.
        -13    1    3    3    0    0 -0.47031747388E+03  0.19311135034E+03  0.76940812888E+03  0.92221439408E+03  0.00000000000E+00 0.  1.
         22    1    1    2    0    0  0.85975580646E+03 -0.28448449897E+03  0.32524334981E+03  0.96223423006E+03  0.00000000000E+00 0.  1.
<mgrwt>
<rscale>  0 0.20026773E+04</rscale>
<asrwt>0</asrwt>
<pdfrwt beam="1">  1        2 0.34392356E+00 0.20026773E+04</pdfrwt>
<pdfrwt beam="2">  1       -2 0.69003851E-01 0.20026773E+04</pdfrwt>
<totfact> 0.87858677E+00</totfact>
</mgrwt>
</event>
<event>
 6    1  0.1614874E-005  0.2591714E+04  0.7818608E-02  0.8371021E-01
          2   -1    0    0  501    0  0.00000000000E+00  0.00000000000E+00  0.16399205482E+04  0.16399205482E+04  0.00000000000E+00 0. -1.
         -2   -1    0    0    0  501 -0.00000000000E+00 -0.00000000000E+00 -0.10239793478E+04  0.10239793478E+04  0.00000000000E+00 0.  1.
         23    2    1    2    0    0  0.59663948332E+03  0.89707486606E+03  0.10455113867E+04  0.15040496758E+04  0.91374938579E+02 0.  0.
         11    1    3    3    0    0  0.14644869215E+03  0.24015781538E+03  0.22082980390E+03  0.35761543313E+03  0.00000000000E+00 0. -1.
        -11    1    3    3    0    0  0.45019079117E+03  0.65691705067E+03  0.82468158277E+03  0.11464342427E+04  0.00000000000E+00 0.  1.
         22    1    1    2    0    0 -0.59663948332E+03 -0.89707486606E+03 -0.42957018623E+03  0.11598502202E+04  0.00000000000E+00 0.  1.
<mgrwt>
<rscale>  0 0.25917135E+04</rscale>
<asrwt>0</asrwt>
<pdfrwt beam="1">  1        2 0.25229547E+00 0.25917135E+04</pdfrwt>
<pdfrwt beam="2">  1       -2 0.15753528E+00 0.25917135E+04</pdfrwt>
<totfact> 0.24641411E+00</totfact>
</mgrwt>
</event>
<event>
 6    1  0.1614874E-005  0.1820264E+04  0.7818608E-02  0.8695597E-01
         -1   -1    0    0    0  501 -0.00000000000E+00  0.00000000000E+00  0.35875095374E+03  0.35875095374E+03  0.00000000000E+00 0.  1.
          1   -1    0    0  501    0  0.00000000000E+00 -0.00000000000E+00 -0.23089567739E+04  0.23089567739E+04  0.00000000000E+00 0. -1.
         23    2    1    2    0    0 -0.56435929837E+03 -0.19189022188E+02  0.64290829858E+02  0.57556375813E+03  0.90943348512E+02 0.  0.
         13    1    3    3    0    0 -0.23260424456E+03 -0.44702044456E+02  0.99798473658E+00  0.23686283656E+03  0.00000000000E+00 0. -1.
        -13    1    3    3    0    0 -0.33175505380E+03  0.25513022268E+02  0.63292845121E+02  0.33870092157E+03  0.00000000000E+00 0.  1.
         22    1    1    2    0    0  0.56435929837E+03  0.19189022188E+02 -0.20144966500E+04  0.20921439695E+04  0.00000000000E+00 0. -1.
<mgrwt>
<rscale>  0 0.18202642E+04</rscale>
<asrwt>0</asrwt>
<pdfrwt beam="1">  1        1 0.35522412E+00 0.18202642E+04</pdfrwt>
<pdfrwt beam="2">  1       -1 0.55192454E-01 0.18202642E+04</pdfrwt>
<totfact> 0.57393156E+00</totfact>
</mgrwt>
</event>
<event>
 6    1  0.1614874E-005  0.8950424E+03  0.7818608E-02  0.9431800E-01
          1   -1    0    0  501    0  0.00000000000E+00  0.00000000000E+00  0.66897908363E+03  0.66897908363E+03  0.00000000000E+00 0. -1.
         -1   -1    0    0    0  501 -0.00000000000E+00 -0.00000000000E+00 -0.29937439195E+03  0.29937439195E+03  0.00000000000E+00 0.  1.
         23    2    1    2    0    0  0.33339717089E+03  0.26499952719E+03  0.55249312636E+02  0.43901641161E+03  0.91129030211E+02 0.  0.
         13    1    3    3    0    0  0.12411318966E+03  0.46306628958E+02  0.25017896177E+02  0.13481202789E+03  0.00000000000E+00 0. -1.
        -13    1    3    3    0    0  0.20928398123E+03  0.21869289823E+03  0.30231416459E+02  0.30420438372E+03  0.00000000000E+00 0.  1.
         22    1    1    2    0    0 -0.33339717089E+03 -0.26499952719E+03  0.31435537905E+03  0.52933706398E+03  0.00000000000E+00 0. -1.
<mgrwt>
<rscale>  0 0.89504236E+03</rscale>
<asrwt>0</asrwt>
<pdfrwt beam="1">  1        1 0.10291986E+00 0.89504236E+03</pdfrwt>
<pdfrwt beam="2">  1       -1 0.46057599E-01 0.89504236E+03</pdfrwt>
<totfact> 0.13782264E+02</totfact>
</mgrwt>
</event>
<event>
 6    1  0.1614874E-005  0.2053298E+04  0.7818608E-02  0.8582100E-01
         -2   -1    0    0    0  501 -0.00000000000E+00  0.00000000000E+00  0.11158262053E+04  0.11158262053E+04  0.00000000000E+00 0.  1.
          2   -1    0    0  501    0  0.00000000000E+00 -0.00000000000E+00 -0.94459889050E+03  0.94459889050E+03  0.00000000000E+00 0. -1.
         23    2    1    2    0    0  0.72882833632E+01  0.86905985739E+03 -0.45876368198E+03  0.98701612863E+03  0.91752751899E+02 0.  0.
         13    1    3    3    0    0 -0.18080898113E+02  0.40771349975E+02 -0.32090359342E+02  0.54945545935E+02  0.00000000000E+00 0. -1.
        -13    1    3    3    0    0  0.25369181476E+02  0.82828850741E+03 -0.42667332263E+03  0.93207058270E+03  0.00000000000E+00 0.  1.
         22    1    1    2    0    0 -0.72882833632E+01 -0.86905985739E+03  0.62999099680E+03  0.10734089672E+04  0.00000000000E+00 0.  1.
<mgrwt>
<rscale>  0 0.20532980E+04</rscale>
<asrwt>0</asrwt>
<pdfrwt beam="1">  1        2 0.14532291E+00 0.20532980E+04</pdfrwt>
<pdfrwt beam="2">  1       -2 0.17166557E+00 0.20532980E+04</pdfrwt>
<totfact> 0.52506612E+00</totfact>
</mgrwt>
</event>
<event>
 6    1  0.1614874E-005  0.3419005E+04  0.7818608E-02  0.8133258E-01
          2   -1    0    0  501    0  0.00000000000E+00  0.00000000000E+00  0.41018864469E+04  0.41018864469E+04  0.00000000000E+00 0. -1.
         -2   -1    0    0    0  501 -0.00000000000E+00 -0.00000000000E+00 -0.71245235086E+03  0.71245235086E+03  0.00000000000E+00 0.  1.
         23    2    1    2    0    0  0.13287707210E+04 -0.96919584961E+03  0.10456918187E+04  0.19511063436E+04  0.91500603482E+02 0.  0.
         11    1    3    3    0    0  0.37717166778E+03 -0.22788966366E+03  0.29596919181E+03  0.53083889108E+03  0.00000000000E+00 0. -1.
        -11    1    3    3    0    0  0.95159905323E+03 -0.74130618595E+03  0.74972262690E+03  0.14202674525E+04  0.00000000000E+00 0.  1.
         22    1    1    2    0    0 -0.13287707210E+04  0.96919584961E+03  0.23437422773E+04  0.28632324541E+04  0.00000000000E+00 0. -1.
<mgrwt>
<rscale>  0 0.34190049E+04</rscale>
<asrwt>0</asrwt>
<pdfrwt beam="1">  1        2 0.63105944E+00 0.34190049E+04</pdfrwt>
<pdfrwt beam="2">  1       -2 0.10960806E+00 0.34190049E+04</pdfrwt>
<totfact> 0.15414660E-01</totfact>
</mgrwt>
</event>
<event>
 6    1  0.1614874E-005  0.3005301E+04  0.7818608E-02  0.8242219E-01
         -2   -1    0    0    0  501 -0.00000000000E+00  0.00000000000E+00  0.23515030985E+04  0.23515030985E+04  0.00000000000E+00 0.  1.
          2   -1    0    0  501    0  0.00000000000E+00 -0.00000000000E+00 -0.96021924520E+03  0.96021924520E+03  0.00000000000E+00 0. -1.
         23    2    1    2    0    0  0.43884768528E+03 -0.14255457485E+04  0.50810486890E+03  0.15782942112E+04  0.89855925717E+02 0.  0.
         13    1    3    3    0    0  0.19603785656E+03 -0.52620240420E+03  0.22172518050E+03  0.60372333652E+03  0.00000000000E+00 0. -1.
        -13    1    3    3    0    0  0.24280982873E+03 -0.89934334432E+03  0.28637968840E+03  0.97457087470E+03  0.00000000000E+00 0.  1.
         22    1    1    2    0    0 -0.43884768528E+03  0.14255457485E+04  0.88317898439E+03  0.17334281325E+04  0.00000000000E+00 0. -1.
<mgrwt>
<rscale>  0 0.30053010E+04</rscale>
<asrwt>0</asrwt>
<pdfrwt beam="1">  1        2 0.14772604E+00 0.30053010E+04</pdfrwt>
<pdfrwt beam="2">  1       -2 0.36176970E+00 0.30053010E+04</pdfrwt>
<totfact> 0.29962330E-01</totfact>
</mgrwt>
</event>
<event>
 6    1  0.1614874E-005  0.2161249E+04  0.7818608E-02  0.8534732E-01
          1   -1    0    0  501    0  0.00000000000E+00  0.00000000000E+00  0.13495206615E+04  0.13495206615E+04  0.00000000000E+00 0. -1.
         -1   -1    0    0    0  501 -0.00000000000E+00 -0.00000000000E+00 -0.86530700557E+03  0.86530700557E+03  0.00000000000E+00 0.  1.
         23    2    1    2    0    0  0.46282385606E+03  0.59733229052E+03 -0.54655485939E+03  0.93674491574E+03  0.88074035901E+02 0.  0.
         13    1    3    3    0    0  0.26050722687E+03  0.36480190333E+03 -0.37204030399E+03  0.58254478945E+03  0.00000000000E+00 0. -1.
        -13    1    3    3    0    0  0.20231662920E+03  0.23253038719E+03 -0.17451455540E+03  0.35420012629E+03  0.00000000000E+00 0.  1.
         22    1    1    2    0    0 -0.46282385606E+03 -0.59733229052E+03  0.10307685153E+04  0.12780827513E+04  0.00000000000E+00 0. -1.
<mgrwt>
<rscale>  0 0.21612493E+04</rscale>
<asrwt>0</asrwt>
<pdfrwt beam="1">  1        1 0.20761856E+00 0.21612493E+04</pdfrwt>
<pdfrwt beam="2">  1       -1 0.13312415E+00 0.21612493E+04</pdfrwt>
<totfact> 0.36428288E+00</totfact>
</mgrwt>
</event>
<event>
 6    1  0.1614874E-005  0.5145681E+04  0.7818608E-02  0.7806419E-01
          1   -1    0    0  501    0  0.00000000000E+00  0.00000000000E+00  0.26084784540E+04  0.26084784540E+04  0.00000000000E+00 0. -1.
         -1   -1    0    0    0  501 -0.00000000000E+00 -0.00000000000E+00 -0.25376898917E+04  0.25376898917E+04  0.00000000000E+00 0.  1.
         23    2    1    2    0    0 -0.15474363827E+04  0.78786617351E+03 -0.18620495883E+04  0.25478697135E+04  0.95493149983E+02 0.  0.
         11    1    3    3    0    0 -0.11021699591E+04  0.54919738491E+03 -0.13808697138E+04  0.18501885181E+04  0.00000000000E+00 0.  1.
        -11    1    3    3    0    0 -0.44526642364E+03  0.23866878861E+03 -0.48117987453E+03  0.69768119533E+03  0.00000000000E+00 0. -1.
         22    1    1    2    0    0  0.15474363827E+04 -0.78786617351E+03  0.19328381506E+04  0.25982986322E+04  0.00000000000E+00 0. -1.
<mgrwt>
<rscale>  0 0.51456815E+04</rscale>
<asrwt>0</asrwt>
<pdfrwt beam="1">  1        1 0.40130437E+00 0.51456815E+04</pdfrwt>
<pdfrwt beam="2">  1       -1 0.39041383E+00 0.51456815E+04</pdfrwt>
<totfact> 0.67582577E-03</totfact>
</mgrwt>
</event>
<event>
 6    1  0.1614874E-005  0.1990121E+04  0.7818608E-02  0.8611253E-01
         -2   -1    0    0    0  501 -0.00000000000E+00  0.00000000000E+00  0.94526077320E+03  0.94526077320E+03  0.00000000000E+00 0. -1.
          2   -1    0    0  501    0  0.00000000000E+00 -0.00000000000E+00 -0.10474840049E+04  0.10474840049E+04  0.00000000000E+00 0.  1.
         23    2    1    2    0    0  0.36542821368E+03 -0.35323114275E+03 -0.90527882741E+03  0.10423720568E+04  0.93272342633E+02 0.  0.
         11    1    3    3    0    0  0.12311217603E+03 -0.18241685783E+03 -0.37192228710E+03  0.43215588108E+03  0.00000000000E+00 0.  1.
        -11    1    3    3    0    0  0.24231603765E+03 -0.17081428492E+03 -0.53335654030E+03  0.61021617573E+03  0.00000000000E+00 0. -1.
         22    1    1    2    0    0 -0.36542821368E+03  0.35323114275E+03  0.80305559571E+03  0.95037272129E+03  0.00000000000E+00 0. -1.
<mgrwt>
<rscale>  0 0.19901211E+04</rscale>
<asrwt>0</asrwt>
<pdfrwt beam="1">  1        2 0.16115139E+00 0.19901211E+04</pdfrwt>
<pdfrwt beam="2">  1       -2 0.14542473E+00 0.19901211E+04</pdfrwt>
<totfact> 0.71029815E+00</totfact>
</mgrwt>
</event>
<event>
 6    1  0.1614874E-005  0.1974232E+04  0.7818608E-02  0.8618764E-01
          3   -1    0    0  501    0  0.00000000000E+00  0.00000000000E+00  0.14417540317E+04  0.14417540317E+04  0.00000000000E+00 0. -1.
         -3   -1    0    0    0  501 -0.00000000000E+00 -0.00000000000E+00 -0.67584225906E+03  0.67584225906E+03  0.00000000000E+00 0.  1.
         23    2    1    2    0    0 -0.71142182447E+03  0.49060378500E+03  0.89089928247E+03  0.12444210714E+04  0.89828643179E+02 0.  0.
         11    1    3    3    0    0 -0.40787776529E+03  0.31081659405E+03  0.47441558773E+03  0.69859958234E+03  0.00000000000E+00 0.  1.
        -11    1    3    3    0    0 -0.30354405918E+03  0.17978719095E+03  0.41648369473E+03  0.54582148902E+03  0.00000000000E+00 0. -1.
         22    1    1    2    0    0  0.71142182447E+03 -0.49060378500E+03 -0.12498750981E+03  0.87317521942E+03  0.00000000000E+00 0.  1.
<mgrwt>
<rscale>  0 0.19742323E+04</rscale>
<asrwt>0</asrwt>
<pdfrwt beam="1">  1        3 0.22180831E+00 0.19742323E+04</pdfrwt>
<pdfrwt beam="2">  1       -3 0.10397573E+00 0.19742323E+04</pdfrwt>
<totfact> 0.20980499E-01</totfact>
</mgrwt>
</event>
<event>
 6    1  0.1614874E-005  0.1480344E+04  0.7818608E-02  0.8897630E-01
         -2   -1    0    0    0  501 -0.00000000000E+00  0.00000000000E+00  0.22879915284E+03  0.22879915284E+03  0.00000000000E+00 0.  1.
          2   -1    0    0  501    0  0.00000000000E+00 -0.00000000000E+00 -0.23944784729E+04  0.23944784729E+04  0.00000000000E+00 0. -1.
         23    2    1    2    0    0 -0.56489014027E+03 -0.38689966905E+03 -0.15718942873E+04  0.17169813774E+04  0.91548761179E+02 0.  0.
         13    1    3    3    0    0 -0.28255027427E+03 -0.20335174489E+03 -0.91072325652E+03  0.97498894332E+03  0.00000000000E+00 0.  1.
        -13    1    3    3    0    0 -0.28233986600E+03 -0.18354792415E+03 -0.66117103074E+03  0.74199243412E+03  0.00000000000E+00 0. -1.
         22    1    1    2    0    0  0.56489014027E+03  0.38689966905E+03 -0.59378503278E+03  0.90629624827E+03  0.00000000000E+00 0.  1.
<mgrwt>
<rscale>  0 0.14803441E+04</rscale>
<asrwt>0</asrwt>
<pdfrwt beam="1">  1        2 0.36838132E+00 0.14803441E+04</pdfrwt>
<pdfrwt beam="2">  1       -2 0.35199868E-01 0.14803441E+04</pdfrwt>
<totfact> 0.29428149E+01</totfact>
</mgrwt>
</event>
<event>
 6    1  0.1614874E-005  0.6219621E+04  0.7818608E-02  0.7663752E-01
         -2   -1    0    0    0  501 -0.00000000000E+00  0.00000000000E+00  0.35247950261E+04  0.35247950261E+04  0.00000000000E+00 0.  1.
          2   -1    0    0  501    0  0.00000000000E+00 -0.00000000000E+00 -0.27436829066E+04  0.27436829066E+04  0.00000000000E+00 0. -1.
         23    2    1    2    0    0  0.27573373011E+04 -0.68428827673E+03  0.16637279497E+04  0.32935543805E+04  0.91380132041E+02 0.  0.
         13    1    3    3    0    0  0.26073058244E+03 -0.92556128466E+02  0.16341650519E+03  0.32132853547E+03  0.00000000000E+00 0.  1.
        -13    1    3    3    0    0  0.24966067187E+04 -0.59173214826E+03  0.15003114445E+04  0.29722258450E+04  0.00000000000E+00 0. -1.
         22    1    1    2    0    0 -0.27573373011E+04  0.68428827673E+03 -0.88261583022E+03  0.29749235522E+04  0.00000000000E+00 0. -1.
<mgrwt>
<rscale>  0 0.62196205E+04</rscale>
<asrwt>0</asrwt>
<pdfrwt beam="1">  1        2 0.42210506E+00 0.62196205E+04</pdfrwt>
<pdfrwt beam="2">  1       -2 0.54227616E+00 0.62196205E+04</pdfrwt>
<totfact> 0.15801006E-03</totfact>
</mgrwt>
</event>
<event>
 6    1  0.1614874E-005  0.1970397E+04  0.7818608E-02  0.8620587E-01
          1   -1    0    0  501    0  0.00000000000E+00  0.00000000000E+00  0.10988238413E+04  0.10988238413E+04  0.00000000000E+00 0. -1.
         -1   -1    0    0    0  501 -0.00000000000E+00 -0.00000000000E+00 -0.88332285564E+03  0.88332285564E+03  0.00000000000E+00 0.  1.
         23    2    1    2    0    0 -0.47849718860E+03  0.38171310416E+02  0.97100962653E+03  0.10870433984E+04  0.91580821219E+02 0.  0.
         13    1    3    3    0    0 -0.20709124425E+03  0.52257812141E+02  0.49089729201E+03  0.53534831062E+03  0.00000000000E+00 0.  1.
        -13    1    3    3    0    0 -0.27140594435E+03 -0.14086501725E+02  0.48011233452E+03  0.55169508782E+03  0.00000000000E+00 0. -1.
         22    1    1    2    0    0  0.47849718860E+03 -0.38171310416E+02 -0.75550864091E+03  0.89510329847E+03  0.00000000000E+00 0.  1.
<mgrwt>
<rscale>  0 0.19703971E+04</rscale>
<asrwt>0</asrwt>
<pdfrwt beam="1">  1        1 0.16904982E+00 0.19703971E+04</pdfrwt>
<pdfrwt beam="2">  1       -1 0.13589582E+00 0.19703971E+04</pdfrwt>
<totfact> 0.53514902E+00</totfact>
</mgrwt>
</event>
<event>
 6    1  0.1614874E-005  0.1379517E+04  0.7818608E-02  0.8968780E-01
          1   -1    0    0  501    0  0.00000000000E+00  0.00000000000E+00  0.18334700254E+04  0.18334700254E+04  0.00000000000E+00 0. -1.
         -1   -1    0    0    0  501 -0.00000000000E+00 -0.00000000000E+00 -0.25948978472E+03  0.25948978472E+03  0.00000000000E+00 0.  1.
         23    2    1    2    0    0 -0.35291466589E+03  0.45790587452E+03  0.22805537214E+03  0.62812524503E+03  0.91134622207E+02 0.  0.
         13    1    3    3    0    0 -0.19749606170E+03  0.23921799719E+03  0.16958581012E+03  0.35353824625E+03  0.00000000000E+00 0. -1.
        -13    1    3    3    0    0 -0.15541860419E+03  0.21868787733E+03  0.58469562029E+02  0.27458699878E+03  0.00000000000E+00 0.  1.
         22    1    1    2    0    0  0.35291466589E+03 -0.45790587452E+03  0.13459248685E+04  0.14648345651E+04  0.00000000000E+00 0. -1.
<mgrwt>
<rscale>  0 0.13795169E+04</rscale>
<asrwt>0</asrwt>
<pdfrwt beam="1">  1        1 0.28207230E+00 0.13795169E+04</pdfrwt>
<pdfrwt beam="2">  1       -1 0.39921507E-01 0.13795169E+04</pdfrwt>
<totfact> 0.23090629E+01</totfact>
</mgrwt>
</event>
<event>
 6    1  0.1614874E-005  0.7513972E+03  0.7818608E-02  0.9633161E-01
          2   -1    0    0  501    0  0.00000000000E+00  0.00000000000E+00  0.20548876545E+03  0.20548876545E+03  0.00000000000E+00 0. -1.
         -2   -1    0    0    0  501 -0.00000000000E+00 -0.00000000000E+00 -0.68689617050E+03  0.68689617050E+03  0.00000000000E+00 0.  1.
         23    2    1    2    0    0 -0.13705318181E+03 -0.11772945705E+03  0.13896903668E+03  0.24623423437E+03  0.93140245444E+02 0.  0.
         13    1    3    3    0    0 -0.11649486305E+03 -0.47626987486E+02  0.62650568329E+02  0.14058618981E+03  0.00000000000E+00 0.  1.
        -13    1    3    3    0    0 -0.20558318763E+02 -0.70102469561E+02  0.76318468352E+02  0.10564804457E+03  0.00000000000E+00 0. -1.
         22    1    1    2    0    0  0.13705318181E+03  0.11772945705E+03 -0.62037644173E+03  0.64615070158E+03  0.00000000000E+00 0.  1.
<mgrwt>
<rscale>  0 0.75139722E+03</rscale>
<asrwt>0</asrwt>
<pdfrwt beam="1">  1        2 0.31613656E-01 0.75139722E+03</pdfrwt>
<pdfrwt beam="2">  1       -2 0.10567634E+00 0.75139722E+03</pdfrwt>
<totfact> 0.12249256E+02</totfact>
</mgrwt>
</event>
<event>
 6    1  0.1614874E-005  0.6569959E+03  0.7818608E-02  0.9793740E-01
         -2   -1    0    0    0  501 -0.00000000000E+00  0.00000000000E+00  0.89893802830E+02  0.89893802830E+02  0.00000000000E+00 0.  1.
          2   -1    0    0  501    0  0.00000000000E+00 -0.00000000000E+00 -0.12004264273E+04  0.12004264273E+04  0.00000000000E+00 0. -1.
         23    2    1    2    0    0 -0.17914509204E+03 -0.16003517563E+03 -0.98809505945E+03  0.10206997955E+04  0.88272332112E+02 0.  0.
         11    1    3    3    0    0 -0.65555138872E+02 -0.85567802568E+01 -0.22938477688E+03  0.23872174301E+03  0.00000000000E+00 0. -1.
        -11    1    3    3    0    0 -0.11358995317E+03 -0.15147839538E+03 -0.75871028257E+03  0.78197805251E+03  0.00000000000E+00 0.  1.
         22    1    1    2    0    0  0.17914509204E+03  0.16003517563E+03 -0.12243756505E+03  0.26962043464E+03  0.00000000000E+00 0.  1.
<mgrwt>
<rscale>  0 0.65699588E+03</rscale>
<asrwt>0</asrwt>
<pdfrwt beam="1">  1        2 0.18468098E+00 0.65699588E+03</pdfrwt>
<pdfrwt beam="2">  1       -2 0.13829816E-01 0.65699588E+03</pdfrwt>
<totfact> 0.76864900E+02</totfact>
</mgrwt>
</event>
<event>
 6    1  0.1614874E-005  0.3236326E+04  0.7818608E-02  0.8179289E-01
          2   -1    0    0  501    0  0.00000000000E+00  0.00000000000E+00  0.17898344935E+04  0.17898344935E+04  0.00000000000E+00 0.  1.
         -2   -1    0    0    0  501 -0.00000000000E+00 -0.00000000000E+00 -0.14629574648E+04  0.14629574648E+04  0.00000000000E+00 0. -1.
         23    2    1    2    0    0 -0.98379583692E+03 -0.60092465026E+03  0.13030581095E+04  0.17421979737E+04  0.91261484918E+02 0.  0.
         13    1    3    3    0    0 -0.46386041176E+03 -0.27826494271E+03  0.67995945871E+03  0.86887440141E+03  0.00000000000E+00 0.  1.
        -13    1    3    3    0    0 -0.51993542516E+03 -0.32265970755E+03  0.62309865079E+03  0.87332357224E+03  0.00000000000E+00 0. -1.
         22    1    1    2    0    0  0.98379583692E+03  0.60092465026E+03 -0.97618108080E+03  0.15105939847E+04  0.00000000000E+00 0. -1.
<mgrwt>
<rscale>  0 0.32363261E+04</rscale>
<asrwt>0</asrwt>
<pdfrwt beam="1">  1        2 0.27535915E+00 0.32363261E+04</pdfrwt>
<pdfrwt beam="2">  1       -2 0.22507038E+00 0.32363261E+04</pdfrwt>
<totfact> 0.67385209E-01</totfact>
</mgrwt>
</event>
<event>
 6    1  0.1614874E-005  0.3263807E+04  0.7818608E-02  0.8172166E-01
          2   -1    0    0  501    0  0.00000000000E+00  0.00000000000E+00  0.33166457010E+04  0.33166457010E+04  0.00000000000E+00 0. -1.
         -2   -1    0    0    0  501 -0.00000000000E+00 -0.00000000000E+00 -0.80295228234E+03  0.80295228234E+03  0.00000000000E+00 0.  1.
         23    2    1    2    0    0 -0.16303679738E+03  0.82170761030E+03 -0.50811473953E+03  0.98381914245E+03  0.89079304016E+02 0.  0.
         13    1    3    3    0    0 -0.67203417228E+02  0.54842203601E+03 -0.34625203489E+03  0.65205329578E+03  0.00000000000E+00 0. -1.
        -13    1    3    3    0    0 -0.95833380156E+02  0.27328557429E+03 -0.16186270463E+03  0.33176584667E+03  0.00000000000E+00 0.  1.
         22    1    1    2    0    0  0.16303679738E+03 -0.82170761030E+03  0.30218081582E+04  0.31357788409E+04  0.00000000000E+00 0. -1.
<mgrwt>
<rscale>  0 0.32638065E+04</rscale>
<asrwt>0</asrwt>
<pdfrwt beam="1">  1        2 0.51025318E+00 0.32638065E+04</pdfrwt>
<pdfrwt beam="2">  1       -2 0.12353112E+00 0.32638065E+04</pdfrwt>
<totfact> 0.44866265E-01</totfact>
</mgrwt>
</event>
<event>
 6    1  0.1614874E-005  0.1637796E+04  0.7818608E-02  0.8797659E-01
          2   -1    0    0  501    0  0.00000000000E+00  0.00000000000E+00  0.13386868689E+04  0.13386868689E+04  0.00000000000E+00 0. -1.
         -2   -1    0    0    0  501 -0.00000000000E+00 -0.00000000000E+00 -0.50093427768E+03  0.50093427768E+03  0.00000000000E+00 0.  1.
         23    2    1    2    0    0 -0.66866648513E+03  0.12392286382E+03  0.92742175600E+03  0.11536821525E+04  0.91649609985E+02 0.  0.
         11    1    3    3    0    0 -0.22904941433E+03  0.46293231576E+02  0.39419898980E+03  0.45825706874E+03  0.00000000000E+00 0.  1.
        -11    1    3    3    0    0 -0.43961707080E+03  0.77629632244E+02  0.53322276620E+03  0.69542508377E+03  0.00000000000E+00 0. -1.
         22    1    1    2    0    0  0.66866648513E+03 -0.12392286382E+03 -0.89669164747E+02  0.68593899409E+03  0.00000000000E+00 0.  1.
<mgrwt>
<rscale>  0 0.16377963E+04</rscale>
<asrwt>0</asrwt>
<pdfrwt beam="1">  1        2 0.20595182E+00 0.16377963E+04</pdfrwt>
<pdfrwt beam="2">  1       -2 0.77066812E-01 0.16377963E+04</pdfrwt>
<totfact> 0.22559478E+01</totfact>
</mgrwt>
</event>
<event>
 6    1  0.1614874E-005  0.1269100E+04  0.7818608E-02  0.9054435E-01
          1   -1    0    0  501    0  0.00000000000E+00  0.00000000000E+00  0.41182914292E+03  0.41182914292E+03  0.00000000000E+00 0. -1.
         -1   -1    0    0    0  501 -0.00000000000E+00 -0.00000000000E+00 -0.97772030208E+03  0.97772030208E+03  0.00000000000E+00 0.  1.
         23    2    1    2    0    0 -0.25944761273E+03  0.46042959630E+03  0.94135958759E+02  0.54400567128E+03  0.88159598145E+02 0.  0.
         11    1    3    3    0    0 -0.96236429233E+02  0.23846410418E+03  0.16092766502E+02  0.25765394705E+03  0.00000000000E+00 0.  1.
        -11    1    3    3    0    0 -0.16321118350E+03  0.22196549212E+03  0.78043192256E+02  0.28635172423E+03  0.00000000000E+00 0. -1.
         22    1    1    2    0    0  0.25944761273E+03 -0.46042959630E+03 -0.66002711791E+03  0.84554377372E+03  0.00000000000E+00 0.  1.
<mgrwt>
<rscale>  0 0.12691000E+04</rscale>
<asrwt>0</asrwt>
<pdfrwt beam="1">  1        1 0.63358330E-01 0.12691000E+04</pdfrwt>
<pdfrwt beam="2">  1       -1 0.15041851E+00 0.12691000E+04</pdfrwt>
<totfact> 0.19678748E+01</totfact>
</mgrwt>
</event>
<event>
 6    1  0.1614874E-005  0.1431604E+04  0.7818608E-02  0.8931254E-01
         -2   -1    0    0    0  501 -0.00000000000E+00  0.00000000000E+00  0.48534156216E+03  0.48534156216E+03  0.00000000000E+00 0. -1.
          2   -1    0    0  501    0  0.00000000000E+00 -0.00000000000E+00 -0.10556950398E+04  0.10556950398E+04  0.00000000000E+00 0.  1.
         23    2    1    2    0    0 -0.56278831555E+03  0.41309230080E+03 -0.44215123064E+03  0.83123962169E+03  0.89920302533E+02 0.  0.
         13    1    3    3    0    0 -0.47753212690E+03  0.37146739063E+03 -0.41092578832E+03  0.73135829662E+03  0.00000000000E+00 0.  1.
        -13    1    3    3    0    0 -0.85256188651E+02  0.41624910164E+02 -0.31225442319E+02  0.99881325068E+02  0.00000000000E+00 0. -1.
         22    1    1    2    0    0  0.56278831555E+03 -0.41309230080E+03 -0.12820224701E+03  0.70979698029E+03  0.00000000000E+00 0.  1.
<mgrwt>
<rscale>  0 0.14316042E+04</rscale>
<asrwt>0</asrwt>
<pdfrwt beam="1">  1        2 0.16241462E+00 0.14316042E+04</pdfrwt>
<pdfrwt beam="2">  1       -2 0.74667934E-01 0.14316042E+04</pdfrwt>
<totfact> 0.36363338E+01</totfact>
</mgrwt>
</event>
<event>
 6    1  0.1614874E-005  0.6930468E+04  0.7818608E-02  0.7584649E-01
          2   -1    0    0  501    0  0.00000000000E+00  0.00000000000E+00  0.36394513901E+04  0.36394513901E+04  0.00000000000E+00 0. -1.
         -2   -1    0    0    0  501 -0.00000000000E+00 -0.00000000000E+00 -0.32993560114E+04  0.32993560114E+04  0.00000000000E+00 0.  1.
         23    2    1    2    0    0 -0.19386520231E+03 -0.28777027459E+04  0.20920044575E+04  0.35642048722E+04  0.91197097352E+02 0.  0.
         11    1    3    3    0    0 -0.75694449362E+02 -0.16097821787E+04  0.11298248139E+04  0.19681545728E+04  0.00000000000E+00 0. -1.
        -11    1    3    3    0    0 -0.11817075295E+03 -0.12679205672E+04  0.96217964357E+03  0.15960502994E+04  0.00000000000E+00 0.  1.
         22    1    1    2    0    0  0.19386520231E+03  0.28777027459E+04 -0.17519090788E+04  0.33746025293E+04  0.00000000000E+00 0.  1.
<mgrwt>
<rscale>  0 0.69304678E+04</rscale>
<asrwt>0</asrwt>
<pdfrwt beam="1">  1        2 0.55991560E+00 0.69304678E+04</pdfrwt>
<pdfrwt beam="2">  1       -2 0.50759323E+00 0.69304678E+04</pdfrwt>
<totfact> 0.60842547E-04</totfact>
</mgrwt>
</event>
<event>
 6    1  0.1614874E-005  0.2555966E+04  0.7818608E-02  0.8383314E-01
          1   -1    0    0  501    0  0.00000000000E+00  0.00000000000E+00  0.19260780240E+04  0.19260780240E+04  0.00000000000E+00 0. -1.
         -1   -1    0    0    0  501 -0.00000000000E+00 -0.00000000000E+00 -0.84796152402E+03  0.84796152402E+03  0.00000000000E+00 0.  1.
         23    2    1    2    0    0 -0.57037792321E+03  0.13666892670E+03 -0.69073838727E+03  0.91047925039E+03  0.88563959533E+02 0.  0.
         13    1    3    3    0    0 -0.45632004098E+03  0.12384142434E+03 -0.60149994256E+03  0.76509271273E+03  0.00000000000E+00 0.  1.
        -13    1    3    3    0    0 -0.11405788224E+03  0.12827502362E+02 -0.89238444708E+02  0.14538653766E+03  0.00000000000E+00 0. -1.
         22    1    1    2    0    0  0.57037792321E+03 -0.13666892670E+03  0.17688548873E+04  0.18635602977E+04  0.00000000000E+00 0. -1.
<mgrwt>
<rscale>  0 0.25559656E+04</rscale>
<asrwt>0</asrwt>
<pdfrwt beam="1">  1        1 0.29631970E+00 0.25559656E+04</pdfrwt>
<pdfrwt beam="2">  1       -1 0.13045562E+00 0.25559656E+04</pdfrwt>
<totfact> 0.14863663E+00</totfact>
</mgrwt>
</event>
<event>
 6    1  0.1614874E-005  0.6951018E+03  0.7818608E-02  0.9725646E-01
         -2   -1    0    0    0  501 -0.00000000000E+00  0.00000000000E+00  0.25591454189E+03  0.25591454189E+03  0.00000000000E+00 0. -1.
          2   -1    0    0  501    0  0.00000000000E+00 -0.00000000000E+00 -0.47199989287E+03  0.47199989287E+03  0.00000000000E+00 0.  1.
         23    2    1    2    0    0 -0.73597887854E+02  0.67101991184E+02 -0.45211510576E+03  0.47173213354E+03  0.90574889680E+02 0.  0.
         13    1    3    3    0    0 -0.34085498937E+02  0.83909942130E+02 -0.27704475909E+03  0.29147298016E+03  0.00000000000E+00 0.  1.
        -13    1    3    3    0    0 -0.39512388917E+02 -0.16807950946E+02 -0.17507034668E+03  0.18025915338E+03  0.00000000000E+00 0. -1.
         22    1    1    2    0    0  0.73597887854E+02 -0.67101991184E+02  0.23602975478E+03  0.25618230122E+03  0.00000000000E+00 0. -1.
<mgrwt>
<rscale>  0 0.69510182E+03</rscale>
<asrwt>0</asrwt>
<pdfrwt beam="1">  1        2 0.72615367E-01 0.69510182E+03</pdfrwt>
<pdfrwt beam="2">  1       -2 0.39371469E-01 0.69510182E+03</pdfrwt>
<totfact> 0.40480051E+02</totfact>
</mgrwt>
</event>
<event>
 6    1  0.1614874E-005  0.1150668E+04  0.7818608E-02  0.9157168E-01
         -1   -1    0    0    0  501 -0.00000000000E+00  0.00000000000E+00  0.10903780889E+04  0.10903780889E+04  0.00000000000E+00 0.  1.
          1   -1    0    0  501    0  0.00000000000E+00 -0.00000000000E+00 -0.30357261798E+03  0.30357261798E+03  0.00000000000E+00 0. -1.
         23    2    1    2    0    0 -0.22236203346E+03  0.44776094993E+03  0.60020678598E+02  0.51182210143E+03  0.91785834677E+02 0.  0.
         11    1    3    3    0    0 -0.34694651722E+02  0.10898488829E+03  0.48873207409E+02  0.12437851557E+03  0.00000000000E+00 0. -1.
        -11    1    3    3    0    0 -0.18766738174E+03  0.33877606164E+03  0.11147471188E+02  0.38744358585E+03  0.00000000000E+00 0.  1.
         22    1    1    2    0    0  0.22236203346E+03 -0.44776094993E+03  0.72678479231E+03  0.88212860544E+03  0.00000000000E+00 0.  1.
<mgrwt>
<rscale>  0 0.11506675E+04</rscale>
<asrwt>0</asrwt>
<pdfrwt beam="1">  1        1 0.46703480E-01 0.11506675E+04</pdfrwt>
<pdfrwt beam="2">  1       -1 0.16775047E+00 0.11506675E+04</pdfrwt>
<totfact> 0.21919770E+01</totfact>
</mgrwt>
</event>
<event>
 6    1  0.1614874E-005  0.2442568E+04  0.7818608E-02  0.8423737E-01
         -2   -1    0    0    0  501 -0.00000000000E+00  0.00000000000E+00  0.99598484746E+03  0.99598484746E+03  0.00000000000E+00 0.  1.
          2   -1    0    0  501    0  0.00000000000E+00 -0.00000000000E+00 -0.14975474720E+04  0.14975474720E+04  0.00000000000E+00 0. -1.
         23    2    1    2    0    0  0.98402849651E+03  0.52170944727E+02 -0.98460124656E+03  0.13960988592E+04  0.92835987539E+02 0.  0.
         13    1    3    3    0    0  0.78337158326E+03  0.59965056716E+02 -0.73626500518E+03  0.10767325589E+04  0.00000000000E+00 0. -1.
        -13    1    3    3    0    0  0.20065691325E+03 -0.77941119884E+01 -0.24833624138E+03  0.31936630035E+03  0.00000000000E+00 0.  1.
         22    1    1    2    0    0 -0.98402849651E+03 -0.52170944727E+02  0.48303862198E+03  0.10974334603E+04  0.00000000000E+00 0.  1.
<mgrwt>
<rscale>  0 0.24425680E+04</rscale>
<asrwt>0</asrwt>
<pdfrwt beam="1">  1        2 0.23039192E+00 0.24425680E+04</pdfrwt>
<pdfrwt beam="2">  1       -2 0.15322844E+00 0.24425680E+04</pdfrwt>
<totfact> 0.32310970E+00</totfact>
</mgrwt>
</event>
<event>
 6    1  0.1614874E-005  0.2450027E+04  0.7818608E-02  0.8421008E-01
         -2   -1    0    0    0  501 -0.00000000000E+00  0.00000000000E+00  0.87839147739E+03  0.87839147739E+03  0.00000000000E+00 0.  1.
          2   -1    0    0  501    0  0.00000000000E+00 -0.00000000000E+00 -0.17084157669E+04  0.17084157669E+04  0.00000000000E+00 0. -1.
         23    2    1    2    0    0  0.50291412217E+03 -0.64348103957E+03 -0.13771727298E+04  0.16037701757E+04  0.92106385101E+02 0.  0.
         13    1    3    3    0    0  0.14357524316E+03 -0.21968853847E+03 -0.51602169567E+03  0.57892598386E+03  0.00000000000E+00 0. -1.
        -13    1    3    3    0    0  0.35933887901E+03 -0.42379250109E+03 -0.86115103411E+03  0.10248441918E+04  0.00000000000E+00 0.  1.
         22    1    1    2    0    0 -0.50291412217E+03  0.64348103957E+03  0.54714844027E+03  0.98303706860E+03  0.00000000000E+00 0.  1.
<mgrwt>
<rscale>  0 0.24500268E+04</rscale>
<asrwt>0</asrwt>
<pdfrwt beam="1">  1        2 0.26283319E+00 0.24500268E+04</pdfrwt>
<pdfrwt beam="2">  1       -2 0.13513715E+00 0.24500268E+04</pdfrwt>
<totfact> 0.34192713E+00</totfact>
</mgrwt>
</event>
<event>
 6    1  0.1614874E-005  0.2304144E+04  0.7818608E-02  0.8476289E-01
         -2   -1    0    0    0  501 -0.00000000000E+00  0.00000000000E+00  0.53371447654E+03  0.53371447654E+03  0.00000000000E+00 0.  1.
          2   -1    0    0  501    0  0.00000000000E+00 -0.00000000000E+00 -0.24868527892E+04  0.24868527892E+04  0.00000000000E+00 0. -1.
         23    2    1    2    0    0  0.10569530581E+03  0.94940523644E+03 -0.18181376836E+04  0.20558046159E+04  0.90366928269E+02 0.  0.
         11    1    3    3    0    0  0.10359543789E+03  0.79944239134E+03 -0.15918546569E+04  0.17843322002E+04  0.00000000000E+00 0. -1.
        -11    1    3    3    0    0  0.20998679214E+01  0.14996284510E+03 -0.22628302669E+03  0.27147241577E+03  0.00000000000E+00 0.  1.
         22    1    1    2    0    0 -0.10569530581E+03 -0.94940523644E+03 -0.13500062908E+03  0.96476264982E+03  0.00000000000E+00 0.  1.
<mgrwt>
<rscale>  0 0.23041435E+04</rscale>
<asrwt>0</asrwt>
<pdfrwt beam="1">  1        2 0.38259273E+00 0.23041435E+04</pdfrwt>
<pdfrwt beam="2">  1       -2 0.82109920E-01 0.23041435E+04</pdfrwt>
<totfact> 0.41848131E+00</totfact>
</mgrwt>
</event>
<event>
 6    1  0.1614874E-005  0.1611308E+04  0.7818608E-02  0.8813631E-01
          2   -1    0    0  501    0  0.00000000000E+00  0.00000000000E+00  0.76295804664E+03  0.76295804664E+03  0.00000000000E+00 0. -1.
         -2   -1    0    0    0  501 -0.00000000000E+00 -0.00000000000E+00 -0.85073975342E+03  0.85073975342E+03  0.00000000000E+00 0.  1.
         23    2    1    2    0    0  0.24149641378E+01 -0.63920432614E+03  0.44241996090E+03  0.78321492184E+03  0.95405394928E+02 0.  0.
         13    1    3    3    0    0 -0.28290152782E+02 -0.23278576698E+03  0.11933822371E+03  0.26311814398E+03  0.00000000000E+00 0. -1.
        -13    1    3    3    0    0  0.30705116920E+02 -0.40641855916E+03  0.32308173719E+03  0.52009677786E+03  0.00000000000E+00 0.  1.
         22    1    1    2    0    0 -0.24149641378E+01  0.63920432614E+03 -0.53020166768E+03  0.83048287822E+03  0.00000000000E+00 0.  1.
<mgrwt>
<rscale>  0 0.16113085E+04</rscale>
<asrwt>0</asrwt>
<pdfrwt beam="1">  1        2 0.11737816E+00 0.16113085E+04</pdfrwt>
<pdfrwt beam="2">  1       -2 0.13088304E+00 0.16113085E+04</pdfrwt>
<totfact> 0.14995947E+01</totfact>
</mgrwt>
</event>
<event>
 6    1  0.1614874E-005  0.1694510E+04  0.7818608E-02  0.8764501E-01
          2   -1    0    0  501    0  0.00000000000E+00  0.00000000000E+00  0.74042015129E+03  0.74042015129E+03  0.00000000000E+00 0. -1.
         -2   -1    0    0    0  501 -0.00000000000E+00 -0.00000000000E+00 -0.96950541580E+03  0.96950541580E+03  0.00000000000E+00 0.  1.
         23    2    1    2    0    0 -0.44378853269E+03  0.56679075344E+03  0.33160351238E+03  0.79747177404E+03  0.88319426205E+02 0.  0.
         11    1    3    3    0    0 -0.55726119893E+02  0.12101166897E+03  0.44999149196E+02  0.14062058133E+03  0.00000000000E+00 0.  1.
        -11    1    3    3    0    0 -0.38806241280E+03  0.44577908447E+03  0.28660436319E+03  0.65685119271E+03  0.00000000000E+00 0. -1.
         22    1    1    2    0    0  0.44378853269E+03 -0.56679075344E+03 -0.56068877689E+03  0.91245379305E+03  0.00000000000E+00 0.  1.
<mgrwt>
<rscale>  0 0.16945104E+04</rscale>
<asrwt>0</asrwt>
<pdfrwt beam="1">  1        2 0.11391079E+00 0.16945104E+04</pdfrwt>
<pdfrwt beam="2">  1       -2 0.14915468E+00 0.16945104E+04</pdfrwt>
<totfact> 0.11034549E+01</totfact>
</mgrwt>
</event>
<event>
 6    1  0.1614874E-005  0.1870387E+04  0.7818608E-02  0.8669739E-01
          1   -1    0    0  501    0  0.00000000000E+00  0.00000000000E+00  0.21626480705E+04  0.21626480705E+04  0.00000000000E+00 0. -1.
         -1   -1    0    0    0  501 -0.00000000000E+00 -0.00000000000E+00 -0.40440550001E+03  0.40440550001E+03  0.00000000000E+00 0.  1.
         23    2    1    2    0    0  0.77362884187E+03 -0.36785010367E+03  0.37386282350E+03  0.93907243805E+03  0.90930464483E+02 0.  0.
         13    1    3    3    0    0  0.16881190738E+03 -0.75449583403E+02  0.12246995992E+03  0.22178591207E+03  0.00000000000E+00 0.  1.
        -13    1    3    3    0    0  0.60481693449E+03 -0.29240052026E+03  0.25139286357E+03  0.71728652598E+03  0.00000000000E+00 0. -1.
         22    1    1    2    0    0 -0.77362884187E+03  0.36785010367E+03  0.13843797470E+04  0.16279811324E+04  0.00000000000E+00 0. -1.
<mgrwt>
<rscale>  0 0.18703869E+04</rscale>
<asrwt>0</asrwt>
<pdfrwt beam="1">  1        1 0.33271508E+00 0.18703869E+04</pdfrwt>
<pdfrwt beam="2">  1       -1 0.62216232E-01 0.18703869E+04</pdfrwt>
<totfact> 0.56789046E+00</totfact>
</mgrwt>
</event>
<event>
 6    1  0.1614874E-005  0.3104076E+04  0.7818608E-02  0.8214620E-01
         -2   -1    0    0    0  501 -0.00000000000E+00  0.00000000000E+00  0.20798522770E+04  0.20798522770E+04  0.00000000000E+00 0.  1.
          2   -1    0    0  501    0  0.00000000000E+00 -0.00000000000E+00 -0.11581699567E+04  0.11581699567E+04  0.00000000000E+00 0. -1.
         23    2    1    2    0    0  0.14992186259E+03  0.59735443238E+03  0.19457272256E+04  0.20430423800E+04  0.94121450839E+02 0.  0.
         13    1    3    3    0    0  0.23769867876E+02  0.19763752552E+03  0.75046853318E+03  0.77642038704E+03  0.00000000000E+00 0. -1.
        -13    1    3    3    0    0  0.12615199471E+03  0.39971690687E+03  0.11952586924E+04  0.12666219930E+04  0.00000000000E+00 0.  1.
         22    1    1    2    0    0 -0.14992186259E+03 -0.59735443238E+03 -0.10240449053E+04  0.11949798537E+04  0.00000000000E+00 0. -1.
<mgrwt>
<rscale>  0 0.31040763E+04</rscale>
<asrwt>0</asrwt>
<pdfrwt beam="1">  1        2 0.17817999E+00 0.31040763E+04</pdfrwt>
<pdfrwt beam="2">  1       -2 0.31997727E+00 0.31040763E+04</pdfrwt>
<totfact> 0.40796985E-01</totfact>
</mgrwt>
</event>
<event>
 6    1  0.1614874E-005  0.2361601E+04  0.7818608E-02  0.8454021E-01
          1   -1    0    0  501    0  0.00000000000E+00  0.00000000000E+00  0.11236480334E+04  0.11236480334E+04  0.00000000000E+00 0. -1.
         -1   -1    0    0    0  501 -0.00000000000E+00 -0.00000000000E+00 -0.12408603168E+04  0.12408603168E+04  0.00000000000E+00 0.  1.
         23    2    1    2    0    0  0.75771384109E+03 -0.67461544411E+03 -0.66000582562E+03  0.12139167234E+04  0.93540680952E+02 0.  0.
         13    1    3    3    0    0  0.55254090969E+03 -0.54519340918E+03 -0.50369406551E+03  0.92533508629E+03  0.00000000000E+00 0.  1.
        -13    1    3    3    0    0  0.20517293140E+03 -0.12942203493E+03 -0.15631176011E+03  0.28858163708E+03  0.00000000000E+00 0. -1.
         22    1    1    2    0    0 -0.75771384109E+03  0.67461544411E+03  0.54279354221E+03  0.11505916269E+04  0.00000000000E+00 0.  1.
<mgrwt>
<rscale>  0 0.23616014E+04</rscale>
<asrwt>0</asrwt>
<pdfrwt beam="1">  1        1 0.17286893E+00 0.23616014E+04</pdfrwt>
<pdfrwt beam="2">  1       -1 0.19090159E+00 0.23616014E+04</pdfrwt>
<totfact> 0.19056010E+00</totfact>
</mgrwt>
</event>
<event>
 6    1  0.1614874E-005  0.2151490E+04  0.7818608E-02  0.8538895E-01
         -1   -1    0    0    0  501 -0.00000000000E+00  0.00000000000E+00  0.42531356476E+03  0.42531356476E+03  0.00000000000E+00 0.  1.
          1   -1    0    0  501    0  0.00000000000E+00 -0.00000000000E+00 -0.27208812318E+04  0.27208812318E+04  0.00000000000E+00 0. -1.
         23    2    1    2    0    0 -0.76026505509E+03  0.23368430171E+03 -0.96345419347E+02  0.80756489819E+03  0.10132777560E+03 0.  0.
         13    1    3    3    0    0 -0.46995976942E+03  0.18391795981E+03 -0.92056773101E+02  0.51299361623E+03  0.00000000000E+00 0. -1.
        -13    1    3    3    0    0 -0.29030528566E+03  0.49766341899E+02 -0.42886462460E+01  0.29457128196E+03  0.00000000000E+00 0.  1.
         22    1    1    2    0    0  0.76026505509E+03 -0.23368430171E+03 -0.21992222477E+04  0.23386298984E+04  0.00000000000E+00 0. -1.
<mgrwt>
<rscale>  0 0.21514904E+04</rscale>
<asrwt>0</asrwt>
<pdfrwt beam="1">  1        1 0.41859708E+00 0.21514904E+04</pdfrwt>
<pdfrwt beam="2">  1       -1 0.65432861E-01 0.21514904E+04</pdfrwt>
<totfact> 0.20573201E+00</totfact>
</mgrwt>
</event>
<event>
 6    1  0.1614874E-005  0.5538497E+04  0.7818608E-02  0.7750414E-01
          1   -1    0    0  501    0  0.00000000000E+00  0.00000000000E+00  0.19066404685E+04  0.19066404685E+04  0.00000000000E+00 0. -1.
         -1   -1    0    0    0  501 -0.00000000000E+00 -0.00000000000E+00 -0.40221208900E+04  0.40221208900E+04  0.00000000000E+00 0.  1.
         23    2    1    2    0    0 -0.16171103733E+04 -0.96824943519E+03  0.11126615224E+04  0.21906531019E+04  0.91610158257E+02 0.  0.
         11    1    3    3    0    0 -0.32767345590E+03 -0.21567583616E+03  0.19354854388E+03  0.43743227915E+03  0.00000000000E+00 0.  1.
        -11    1    3    3    0    0 -0.12894369174E+04 -0.75257359903E+03  0.91911297854E+03  0.17532208227E+04  0.00000000000E+00 0. -1.
         22    1    1    2    0    0  0.16171103733E+04  0.96824943519E+03 -0.32281419439E+04  0.37381082566E+04  0.00000000000E+00 0.  1.
<mgrwt>
<rscale>  0 0.55384974E+04</rscale>
<asrwt>0</asrwt>
<pdfrwt beam="1">  1        1 0.29332931E+00 0.55384974E+04</pdfrwt>
<pdfrwt beam="2">  1       -1 0.61878782E+00 0.55384974E+04</pdfrwt>
<totfact> 0.90838761E-04</totfact>
</mgrwt>
</event>
<event>
 6    1  0.1614874E-005  0.1619520E+04  0.7818608E-02  0.8808645E-01
         -1   -1    0    0    0  501 -0.00000000000E+00  0.00000000000E+00  0.42271737372E+03  0.42271737372E+03  0.00000000000E+00 0.  1.
          1   -1    0    0  501    0  0.00000000000E+00 -0.00000000000E+00 -0.15511813608E+04  0.15511813608E+04  0.00000000000E+00 0. -1.
         23    2    1    2    0    0  0.16862774083E+03 -0.67686142416E+03 -0.70886871210E+02  0.70699461088E+03  0.90772951977E+02 0.  0.
         11    1    3    3    0    0  0.77608708514E+02 -0.19055826926E+03 -0.50318867286E+02  0.21181962615E+03  0.00000000000E+00 0.  1.
        -11    1    3    3    0    0  0.91019032314E+02 -0.48630315490E+03 -0.20568003923E+02  0.49517498472E+03  0.00000000000E+00 0. -1.
         22    1    1    2    0    0 -0.16862774083E+03  0.67686142416E+03 -0.10575771159E+04  0.12669041237E+04  0.00000000000E+00 0. -1.
<mgrwt>
<rscale>  0 0.16195201E+04</rscale>
<asrwt>0</asrwt>
<pdfrwt beam="1">  1        1 0.23864329E+00 0.16195201E+04</pdfrwt>
<pdfrwt beam="2">  1       -1 0.65033441E-01 0.16195201E+04</pdfrwt>
<totfact> 0.13845688E+01</totfact>
</mgrwt>
</event>
<event>
 6    1  0.1614874E-005  0.2615273E+04  0.7818608E-02  0.8363032E-01
         -2   -1    0    0    0  501 -0.00000000000E+00  0.00000000000E+00  0.12211335045E+04  0.12211335045E+04  0.00000000000E+00 0.  1.
          2   -1    0    0  501    0  0.00000000000E+00 -0.00000000000E+00 -0.14002674890E+04  0.14002674890E+04  0.00000000000E+00 0. -1.
         23    2    1    2    0    0 -0.94571902797E+03 -0.89214495443E+03  0.34777113211E+02  0.13038027781E+04  0.91570393545E+02 0.  0.
         11    1    3    3    0    0 -0.70139639732E+03 -0.66630821403E+03 -0.14023963201E+02  0.96753305567E+03  0.00000000000E+00 0. -1.
        -11    1    3    3    0    0 -0.24432263065E+03 -0.22583674040E+03  0.48801076413E+02  0.33626972242E+03  0.00000000000E+00 0.  1.
         22    1    1    2    0    0  0.94571902797E+03  0.89214495443E+03 -0.21391109773E+03  0.13175982154E+04  0.00000000000E+00 0.  1.
<mgrwt>
<rscale>  0 0.26152733E+04</rscale>
<asrwt>0</asrwt>
<pdfrwt beam="1">  1        2 0.21542577E+00 0.26152733E+04</pdfrwt>
<pdfrwt beam="2">  1       -2 0.18786669E+00 0.26152733E+04</pdfrwt>
<totfact> 0.20476807E+00</totfact>
</mgrwt>
</event>
<event>
 6    1  0.1614874E-005  0.3106687E+04  0.7818608E-02  0.8213905E-01
          2   -1    0    0  501    0  0.00000000000E+00  0.00000000000E+00  0.14773840951E+04  0.14773840951E+04  0.00000000000E+00 0. -1.
         -2   -1    0    0    0  501 -0.00000000000E+00 -0.00000000000E+00 -0.16332088109E+04  0.16332088109E+04  0.00000000000E+00 0.  1.
         23    2    1    2    0    0 -0.10872485981E+04  0.40080471573E+03  0.95576230769E+03  0.15048595392E+04  0.91469720233E+02 0.  0.
         11    1    3    3    0    0 -0.95368286303E+03  0.38247968679E+03  0.84878182541E+03  0.13327536536E+04  0.00000000000E+00 0. -1.
        -11    1    3    3    0    0 -0.13356573507E+03  0.18325028933E+02  0.10698048229E+03  0.17210588561E+03  0.00000000000E+00 0.  1.
         22    1    1    2    0    0  0.10872485981E+04 -0.40080471573E+03 -0.11115870235E+04  0.16057333667E+04  0.00000000000E+00 0.  1.
<mgrwt>
<rscale>  0 0.31066874E+04</rscale>
<asrwt>0</asrwt>
<pdfrwt beam="1">  1        2 0.22728986E+00 0.31066874E+04</pdfrwt>
<pdfrwt beam="2">  1       -2 0.25126289E+00 0.31066874E+04</pdfrwt>
<totfact> 0.70026376E-01</totfact>
</mgrwt>
</event>
<event>
 6    1  0.1614874E-005  0.2873201E+04  0.7818608E-02  0.8280896E-01
         -2   -1    0    0    0  501 -0.00000000000E+00  0.00000000000E+00  0.18603290181E+04  0.18603290181E+04  0.00000000000E+00 0.  1.
          2   -1    0    0  501    0  0.00000000000E+00 -0.00000000000E+00 -0.11093847395E+04  0.11093847395E+04  0.00000000000E+00 0. -1.
         23    2    1    2    0    0 -0.64105648171E+03 -0.10887419008E+04  0.10785569407E+04  0.16644772289E+04  0.10434093940E+03 0.  0.
         11    1    3    3    0    0 -0.13068097614E+03 -0.15650933059E+03  0.14918022602E+03  0.25264090706E+03  0.00000000000E+00 0.  1.
        -11    1    3    3    0    0 -0.51037550558E+03 -0.93223257026E+03  0.92937671471E+03  0.14118363218E+04  0.00000000000E+00 0. -1.
         22    1    1    2    0    0  0.64105648171E+03  0.10887419008E+04 -0.32761266220E+03  0.13052365287E+04  0.00000000000E+00 0. -1.
<mgrwt>
<rscale>  0 0.28732007E+04</rscale>
<asrwt>0</asrwt>
<pdfrwt beam="1">  1        2 0.17067458E+00 0.28732007E+04</pdfrwt>
<pdfrwt beam="2">  1       -2 0.28620446E+00 0.28732007E+04</pdfrwt>
<totfact> 0.71765943E-01</totfact>
</mgrwt>
</event>
<event>
 6    1  0.1614874E-005  0.1620099E+04  0.7818608E-02  0.8808295E-01
         -1   -1    0    0    0  501 -0.00000000000E+00  0.00000000000E+00  0.21707099700E+03  0.21707099700E+03  0.00000000000E+00 0.  1.
          1   -1    0    0  501    0  0.00000000000E+00 -0.00000000000E+00 -0.30228816868E+04  0.30228816868E+04  0.00000000000E+00 0. -1.
         23    2    1    2    0    0  0.45593207240E+03 -0.29415767572E+03 -0.21173811173E+03  0.58974225194E+03  0.92520824374E+02 0.  0.
         11    1    3    3    0    0  0.25102903916E+03 -0.11702936886E+03 -0.78402137841E+02  0.28785125828E+03  0.00000000000E+00 0. -1.
        -11    1    3    3    0    0  0.20490303324E+03 -0.17712830686E+03 -0.13333597388E+03  0.30189099366E+03  0.00000000000E+00 0.  1.
         22    1    1    2    0    0 -0.45593207240E+03  0.29415767572E+03 -0.25940725781E+04  0.26502104319E+04  0.00000000000E+00 0. -1.
<mgrwt>
<rscale>  0 0.16200987E+04</rscale>
<asrwt>0</asrwt>
<pdfrwt beam="1">  1        1 0.46505870E+00 0.16200987E+04</pdfrwt>
<pdfrwt beam="2">  1       -1 0.33395540E-01 0.16200987E+04</pdfrwt>
<totfact> 0.46729258E+00</totfact>
</mgrwt>
</event>
<event>
 6    1  0.1614874E-005  0.1853223E+04  0.7818608E-02  0.8678497E-01
          2   -1    0    0  501    0  0.00000000000E+00  0.00000000000E+00  0.38381511002E+04  0.38381511002E+04  0.00000000000E+00 0. -1.
         -2   -1    0    0    0  501 -0.00000000000E+00 -0.00000000000E+00 -0.22370385575E+03  0.22370385575E+03  0.00000000000E+00 0.  1.
         23    2    1    2    0    0  0.26001250835E+03  0.87106766661E+03  0.14425869004E+04  0.17074245071E+04  0.88747383138E+02 0.  0.
         11    1    3    3    0    0  0.11712371284E+03  0.52774199598E+03  0.81690015321E+03  0.97956900663E+03  0.00000000000E+00 0. -1.
        -11    1    3    3    0    0  0.14288879551E+03  0.34332567063E+03  0.62568674717E+03  0.72785550048E+03  0.00000000000E+00 0.  1.
         22    1    1    2    0    0 -0.26001250835E+03 -0.87106766661E+03  0.21718603441E+04  0.23544304489E+04  0.00000000000E+00 0. -1.
<mgrwt>
<rscale>  0 0.18532234E+04</rscale>
<asrwt>0</asrwt>
<pdfrwt beam="1">  1        2 0.59048474E+00 0.18532234E+04</pdfrwt>
<pdfrwt beam="2">  1       -2 0.34415981E-01 0.18532234E+04</pdfrwt>
<totfact> 0.34537250E+00</totfact>
</mgrwt>
</event>
<event>
 6    1  0.1614874E-005  0.1197635E+04  0.7818608E-02  0.9114929E-01
         -2   -1    0    0    0  501 -0.00000000000E+00  0.00000000000E+00  0.11891738711E+03  0.11891738711E+03  0.00000000000E+00 0. -1.
          2   -1    0    0  501    0  0.00000000000E+00 -0.00000000000E+00 -0.30153906589E+04  0.30153906589E+04  0.00000000000E+00 0.  1.
         23    2    1    2    0    0 -0.38083394731E+03 -0.76485440621E+00 -0.26543387313E+04  0.26830163265E+04  0.89595909738E+02 0.  0.
         11    1    3    3    0    0 -0.22689470785E+03 -0.50288536877E+01 -0.18683318632E+04  0.18820654741E+04  0.00000000000E+00 0.  1.
        -11    1    3    3    0    0 -0.15393923946E+03  0.42639992815E+01 -0.78600686810E+03  0.80095085232E+03  0.00000000000E+00 0. -1.
         22    1    1    2    0    0  0.38083394731E+03  0.76485440621E+00 -0.24213454044E+03  0.45129171951E+03  0.00000000000E+00 0. -1.
<mgrwt>
<rscale>  0 0.11976350E+04</rscale>
<asrwt>0</asrwt>
<pdfrwt beam="1">  1        2 0.46390621E+00 0.11976350E+04</pdfrwt>
<pdfrwt beam="2">  1       -2 0.18294985E-01 0.11976350E+04</pdfrwt>
<totfact> 0.42607267E+01</totfact>
</mgrwt>
</event>
<event>
 6    1  0.1614874E-005  0.2247844E+04  0.7818608E-02  0.8498774E-01
          1   -1    0    0  501    0  0.00000000000E+00  0.00000000000E+00  0.24809624635E+04  0.24809624635E+04  0.00000000000E+00 0. -1.
         -1   -1    0    0    0  501 -0.00000000000E+00 -0.00000000000E+00 -0.50915745578E+03  0.50915745578E+03  0.00000000000E+00 0.  1.
         23    2    1    2    0    0  0.19211466451E+03 -0.84468306565E+03  0.38567280926E+02  0.87167576519E+03  0.89071200392E+02 0.  0.
         13    1    3    3    0    0  0.28329126901E+02 -0.28279400950E+03 -0.10045546695E+02  0.28438689184E+03  0.00000000000E+00 0.  1.
        -13    1    3    3    0    0  0.16378553761E+03 -0.56188905615E+03  0.48612827621E+02  0.58728887335E+03  0.00000000000E+00 0. -1.
         22    1    1    2    0    0 -0.19211466451E+03  0.84468306565E+03  0.19332377268E+04  0.21184441541E+04  0.00000000000E+00 0. -1.
<mgrwt>
<rscale>  0 0.22478439E+04</rscale>
<asrwt>0</asrwt>
<pdfrwt beam="1">  1        1 0.38168653E+00 0.22478439E+04</pdfrwt>
<pdfrwt beam="2">  1       -1 0.78331918E-01 0.22478439E+04</pdfrwt>
<totfact> 0.20685219E+00</totfact>
</mgrwt>
</event>
<event>
 6    1  0.1614874E-005  0.1392177E+04  0.7818608E-02  0.8959501E-01
          1   -1    0    0  501    0  0.00000000000E+00  0.00000000000E+00  0.31233356059E+04  0.31233356059E+04  0.00000000000E+00 0. -1.
         -1   -1    0    0    0  501 -0.00000000000E+00 -0.00000000000E+00 -0.15513518681E+03  0.15513518681E+03  0.00000000000E+00 0.  1.
         23    2    1    2    0    0 -0.42409176189E+03 -0.25350570012E+03  0.34593494243E+03  0.61006392858E+03  0.91586298470E+02 0.  0.
         11    1    3    3    0    0 -0.17344732112E+03 -0.92596698071E+02  0.85464090228E+02  0.21438804168E+03  0.00000000000E+00 0. -1.
        -11    1    3    3    0    0 -0.25064444077E+03 -0.16090900204E+03  0.26047085220E+03  0.39567588690E+03  0.00000000000E+00 0.  1.
         22    1    1    2    0    0  0.42409176189E+03  0.25350570012E+03  0.26222654767E+04  0.26684068642E+04  0.00000000000E+00 0. -1.
<mgrwt>
<rscale>  0 0.13921771E+04</rscale>
<asrwt>0</asrwt>
<pdfrwt beam="1">  1        1 0.48051313E+00 0.13921771E+04</pdfrwt>
<pdfrwt beam="2">  1       -1 0.23866954E-01 0.13921771E+04</pdfrwt>
<totfact> 0.72442138E+00</totfact>
</mgrwt>
</event>
<event>
 6    1  0.1614874E-005  0.2341271E+04  0.7818608E-02  0.8461824E-01
          1   -1    0    0  501    0  0.00000000000E+00  0.00000000000E+00  0.10406448112E+04  0.10406448112E+04  0.00000000000E+00 0. -1.
         -1   -1    0    0    0  501 -0.00000000000E+00 -0.00000000000E+00 -0.13168641674E+04  0.13168641674E+04  0.00000000000E+00 0.  1.
         23    2    1    2    0    0 -0.80159604273E+03  0.84462688225E+02 -0.99073225246E+03  0.12803744278E+04  0.90100599048E+02 0.  0.
         13    1    3    3    0    0 -0.36148118339E+03  0.32939527144E+02 -0.37640960114E+03  0.52291284764E+03  0.00000000000E+00 0.  1.
        -13    1    3    3    0    0 -0.44011485933E+03  0.51523161081E+02 -0.61432265132E+03  0.75746158019E+03  0.00000000000E+00 0. -1.
         22    1    1    2    0    0  0.80159604273E+03 -0.84462688225E+02  0.71451289630E+03  0.10771345507E+04  0.00000000000E+00 0. -1.
<mgrwt>
<rscale>  0 0.23412713E+04</rscale>
<asrwt>0</asrwt>
<pdfrwt beam="1">  1        1 0.16009920E+00 0.23412713E+04</pdfrwt>
<pdfrwt beam="2">  1       -1 0.20259449E+00 0.23412713E+04</pdfrwt>
<totfact> 0.18303882E+00</totfact>
</mgrwt>
</event>
<event>
 6    1  0.1614874E-005  0.1816168E+04  0.7818608E-02  0.8697748E-01
         -3   -1    0    0    0  501 -0.00000000000E+00  0.00000000000E+00  0.14192634497E+04  0.14192634497E+04  0.00000000000E+00 0.  1.
          3   -1    0    0  501    0  0.00000000000E+00 -0.00000000000E+00 -0.58101740310E+03  0.58101740310E+03  0.00000000000E+00 0. -1.
         23    2    1    2    0    0 -0.45652907906E+03  0.75854658248E+03  0.21134453895E+03  0.91546878699E+03  0.98004428410E+02 0.  0.
         13    1    3    3    0    0 -0.34553088902E+03  0.59587436447E+03  0.20406261571E+03  0.71840058785E+03  0.00000000000E+00 0.  1.
        -13    1    3    3    0    0 -0.11099819005E+03  0.16267221801E+03  0.72819232459E+01  0.19706819914E+03  0.00000000000E+00 0. -1.
         22    1    1    2    0    0  0.45652907906E+03 -0.75854658248E+03  0.62690150762E+03  0.10848120658E+04  0.00000000000E+00 0.  1.
<mgrwt>
<rscale>  0 0.18161682E+04</rscale>
<asrwt>0</asrwt>
<pdfrwt beam="1">  1        3 0.89387293E-01 0.18161682E+04</pdfrwt>
<pdfrwt beam="2">  1       -3 0.21834822E+00 0.18161682E+04</pdfrwt>
<totfact> 0.31487950E-01</totfact>
</mgrwt>
</event>
<event>
 6    1  0.1614874E-005  0.3168703E+04  0.7818608E-02  0.8197132E-01
         -1   -1    0    0    0  501 -0.00000000000E+00  0.00000000000E+00  0.20255514027E+04  0.20255514027E+04  0.00000000000E+00 0.  1.
          1   -1    0    0  501    0  0.00000000000E+00 -0.00000000000E+00 -0.12392525017E+04  0.12392525017E+04  0.00000000000E+00 0. -1.
         23    2    1    2    0    0  0.80550121935E+03 -0.13166883762E+04  0.75529225905E+03  0.17209574397E+04  0.93421723180E+02 0.  0.
         13    1    3    3    0    0  0.65009391583E+03 -0.98995189614E+03  0.56614678377E+03  0.13126877149E+04  0.00000000000E+00 0. -1.
        -13    1    3    3    0    0  0.15540730353E+03 -0.32673648009E+03  0.18914547528E+03  0.40826972485E+03  0.00000000000E+00 0.  1.
         22    1    1    2    0    0 -0.80550121935E+03  0.13166883762E+04  0.31006641962E+02  0.15438464646E+04  0.00000000000E+00 0. -1.
<mgrwt>
<rscale>  0 0.31687030E+04</rscale>
<asrwt>0</asrwt>
<pdfrwt beam="1">  1        1 0.19065423E+00 0.31687030E+04</pdfrwt>
<pdfrwt beam="2">  1       -1 0.31162329E+00 0.31687030E+04</pdfrwt>
<totfact> 0.23288236E-01</totfact>
</mgrwt>
</event>
<event>
 6    1  0.1614874E-005  0.1819893E+04  0.7818608E-02  0.8695792E-01
         -2   -1    0    0    0  501 -0.00000000000E+00  0.00000000000E+00  0.32849350289E+03  0.32849350289E+03  0.00000000000E+00 0.  1.
          2   -1    0    0  501    0  0.00000000000E+00 -0.00000000000E+00 -0.25206051574E+04  0.25206051574E+04  0.00000000000E+00 0. -1.
         23    2    1    2    0    0  0.25062564030E+03  0.55090824484E+03 -0.21577447686E+04  0.22428856708E+04  0.91435989106E+02 0.  0.
         11    1    3    3    0    0  0.33649340346E+02  0.16799189979E+03 -0.65237895181E+03  0.67450118848E+03  0.00000000000E+00 0.  1.
        -11    1    3    3    0    0  0.21697629996E+03  0.38291634504E+03 -0.15053658168E+04  0.15683844823E+04  0.00000000000E+00 0. -1.
         22    1    1    2    0    0 -0.25062564030E+03 -0.55090824484E+03 -0.34366885956E+02  0.60621298952E+03  0.00000000000E+00 0.  1.
<mgrwt>
<rscale>  0 0.18198928E+04</rscale>
<asrwt>0</asrwt>
<pdfrwt beam="1">  1        2 0.38778540E+00 0.18198928E+04</pdfrwt>
<pdfrwt beam="2">  1       -2 0.50537463E-01 0.18198928E+04</pdfrwt>
<totfact> 0.11831968E+01</totfact>
</mgrwt>
</event>
<event>
 6    1  0.1614874E-005  0.3211626E+04  0.7818608E-02  0.8185753E-01
         -2   -1    0    0    0  501 -0.00000000000E+00  0.00000000000E+00  0.19899938100E+04  0.19899938100E+04  0.00000000000E+00 0.  1.
          2   -1    0    0  501    0  0.00000000000E+00 -0.00000000000E+00 -0.12958010520E+04  0.12958010520E+04  0.00000000000E+00 0. -1.
         23    2    1    2    0    0 -0.70247360707E+03 -0.13860515348E+04  0.75585003211E+03  0.17306711868E+04  0.96464812914E+02 0.  0.
         13    1    3    3    0    0 -0.65006159841E+03 -0.13282518293E+04  0.71427153996E+03  0.16422596739E+04  0.00000000000E+00 0. -1.
        -13    1    3    3    0    0 -0.52412008654E+02 -0.57799705528E+02  0.41578492148E+02  0.88411512936E+02  0.00000000000E+00 0.  1.
         22    1    1    2    0    0  0.70247360707E+03  0.13860515348E+04 -0.61657274178E+02  0.15551236752E+04  0.00000000000E+00 0. -1.
<mgrwt>
<rscale>  0 0.32116264E+04</rscale>
<asrwt>0</asrwt>
<pdfrwt beam="1">  1        2 0.19935401E+00 0.32116264E+04</pdfrwt>
<pdfrwt beam="2">  1       -2 0.30615290E+00 0.32116264E+04</pdfrwt>
<totfact> 0.40747924E-01</totfact>
</mgrwt>
</event>
<event>
 6    1  0.1614874E-005  0.1894852E+04  0.7818608E-02  0.8657423E-01
         -2   -1    0    0    0  501 -0.00000000000E+00  0.00000000000E+00  0.40356841796E+03  0.40356841796E+03  0.00000000000E+00 0.  1.
          2   -1    0    0  501    0  0.00000000000E+00 -0.00000000000E+00 -0.22241988140E+04  0.22241988140E+04  0.00000000000E+00 0. -1.
         23    2    1    2    0    0  0.29117932663E+03 -0.83033511670E+03 -0.13914386571E+04  0.16487639863E+04  0.89885146720E+02 0.  0.
         11    1    3    3    0    0  0.42464307049E+02 -0.76143561076E+02 -0.18347869849E+03  0.20313909536E+03  0.00000000000E+00 0.  1.
        -11    1    3    3    0    0  0.24871501958E+03 -0.75419155563E+03 -0.12079599587E+04  0.14456248909E+04  0.00000000000E+00 0. -1.
         22    1    1    2    0    0 -0.29117932663E+03  0.83033511670E+03 -0.42919173889E+03  0.97900324566E+03  0.00000000000E+00 0. -1.
<mgrwt>
<rscale>  0 0.18948524E+04</rscale>
<asrwt>0</asrwt>
<pdfrwt beam="1">  1        2 0.34218443E+00 0.18948524E+04</pdfrwt>
<pdfrwt beam="2">  1       -2 0.62087450E-01 0.18948524E+04</pdfrwt>
<totfact> 0.11294426E+01</totfact>
</mgrwt>
</event>
<event>
 6    1  0.1614874E-005  0.2045945E+04  0.7818608E-02  0.8585436E-01
          2   -1    0    0  501    0  0.00000000000E+00  0.00000000000E+00  0.70232932988E+03  0.70232932988E+03  0.00000000000E+00 0. -1.
         -2   -1    0    0    0  501 -0.00000000000E+00 -0.00000000000E+00 -0.14900032999E+04  0.14900032999E+04  0.00000000000E+00 0.  1.
         23    2    1    2    0    0 -0.52861244206E+03 -0.75613130604E+03 -0.86316603603E+03  0.12666627545E+04  0.90627049152E+02 0.  0.
         11    1    3    3    0    0 -0.36087717765E+03 -0.47853248973E+03 -0.50791693140E+03  0.78562414059E+03  0.00000000000E+00 0.  1.
        -11    1    3    3    0    0 -0.16773526441E+03 -0.27759881631E+03 -0.35524910462E+03  0.48103861391E+03  0.00000000000E+00 0. -1.
         22    1    1    2    0    0  0.52861244206E+03  0.75613130604E+03  0.75492066057E+02  0.92566987523E+03  0.00000000000E+00 0. -1.
<mgrwt>
<rscale>  0 0.20459453E+04</rscale>
<asrwt>0</asrwt>
<pdfrwt beam="1">  1        2 0.10805067E+00 0.20459453E+04</pdfrwt>
<pdfrwt beam="2">  1       -2 0.22923128E+00 0.20459453E+04</pdfrwt>
<totfact> 0.32634719E+00</totfact>
</mgrwt>
</event>
<event>
 6    1  0.1614874E-005  0.2789100E+04  0.7818608E-02  0.8306660E-01
         -2   -1    0    0    0  501 -0.00000000000E+00  0.00000000000E+00  0.14138941008E+04  0.14138941008E+04  0.00000000000E+00 0. -1.
          2   -1    0    0  501    0  0.00000000000E+00 -0.00000000000E+00 -0.13754710267E+04  0.13754710267E+04  0.00000000000E+00 0.  1.
         23    2    1    2    0    0 -0.12627174343E+04  0.58806318246E+03  0.34751849348E+02  0.13964232396E+04  0.92285143109E+02 0.  0.
         11    1    3    3    0    0 -0.80344075665E+03  0.37589354629E+03  0.66485303018E+02  0.88951295837E+03  0.00000000000E+00 0.  1.
        -11    1    3    3    0    0 -0.45927667760E+03  0.21216963616E+03 -0.31733453670E+02  0.50691028119E+03  0.00000000000E+00 0. -1.
         22    1    1    2    0    0  0.12627174343E+04 -0.58806318246E+03  0.36712246818E+01  0.13929418880E+04  0.00000000000E+00 0.  1.
<mgrwt>
<rscale>  0 0.27891005E+04</rscale>
<asrwt>0</asrwt>
<pdfrwt beam="1">  1        2 0.21161093E+00 0.27891005E+04</pdfrwt>
<pdfrwt beam="2">  1       -2 0.21752217E+00 0.27891005E+04</pdfrwt>
<totfact> 0.13342317E+00</totfact>
</mgrwt>
</event>
<event>
 6    1  0.1614874E-005  0.2120567E+04  0.7818608E-02  0.8552237E-01
         -1   -1    0    0    0  501 -0.00000000000E+00  0.00000000000E+00  0.57366972276E+03  0.57366972276E+03  0.00000000000E+00 0.  1.
          1   -1    0    0  501    0  0.00000000000E+00 -0.00000000000E+00 -0.19596656663E+04  0.19596656663E+04  0.00000000000E+00 0. -1.
         23    2    1    2    0    0 -0.12883351793E+03  0.67379539732E+03  0.26859880687E+03  0.74216758539E+03  0.89828130072E+02 0.  0.
         13    1    3    3    0    0 -0.67480551274E+02  0.34199189773E+03  0.18457043349E+03  0.39443418694E+03  0.00000000000E+00 0.  1.
        -13    1    3    3    0    0 -0.61352966656E+02  0.33180349959E+03  0.84028373388E+02  0.34773339845E+03  0.00000000000E+00 0. -1.
         22    1    1    2    0    0  0.12883351793E+03 -0.67379539732E+03 -0.16545947504E+04  0.17911678037E+04  0.00000000000E+00 0. -1.
<mgrwt>
<rscale>  0 0.21205668E+04</rscale>
<asrwt>0</asrwt>
<pdfrwt beam="1">  1        1 0.30148703E+00 0.21205668E+04</pdfrwt>
<pdfrwt beam="2">  1       -1 0.88256880E-01 0.21205668E+04</pdfrwt>
<totfact> 0.36741579E+00</totfact>
</mgrwt>
</event>
<event>
 6    1  0.1614874E-005  0.1843889E+04  0.7818608E-02  0.8683302E-01
         -2   -1    0    0    0  501 -0.00000000000E+00  0.00000000000E+00  0.17536976315E+04  0.17536976315E+04  0.00000000000E+00 0.  1.
          2   -1    0    0  501    0  0.00000000000E+00 -0.00000000000E+00 -0.48467977107E+03  0.48467977107E+03  0.00000000000E+00 0. -1.
         23    2    1    2    0    0 -0.77949317859E+03  0.12468557115E+03  0.63160684008E+02  0.79711141842E+03  0.90781243917E+02 0.  0.
         11    1    3    3    0    0 -0.41726512688E+03  0.86867287357E+02 -0.67521864481E+01  0.42626482818E+03  0.00000000000E+00 0.  1.
        -11    1    3    3    0    0 -0.36222805171E+03  0.37818283791E+02  0.69912870456E+02  0.37084659024E+03  0.00000000000E+00 0. -1.
         22    1    1    2    0    0  0.77949317859E+03 -0.12468557115E+03  0.12058571764E+04  0.14412659842E+04  0.00000000000E+00 0. -1.
<mgrwt>
<rscale>  0 0.18438891E+04</rscale>
<asrwt>0</asrwt>
<pdfrwt beam="1">  1        2 0.74566119E-01 0.18438891E+04</pdfrwt>
<pdfrwt beam="2">  1       -2 0.26979963E+00 0.18438891E+04</pdfrwt>
<totfact> 0.29206904E+00</totfact>
</mgrwt>
</event>
<event>
 6    1  0.1614874E-005  0.3398537E+04  0.7818608E-02  0.8138266E-01
         -2   -1    0    0    0  501 -0.00000000000E+00  0.00000000000E+00  0.10212039486E+04  0.10212039486E+04  0.00000000000E+00 0. -1.
          2   -1    0    0  501    0  0.00000000000E+00 -0.00000000000E+00 -0.28275573636E+04  0.28275573636E+04  0.00000000000E+00 0.  1.
         23    2    1    2    0    0  0.10276448750E+04  0.69101152937E+03  0.41182159100E+03  0.13083181856E+04  0.92458256212E+02 0.  0.
         11    1    3    3    0    0  0.55667051274E+03  0.42200300040E+03  0.25620805520E+03  0.74405050880E+03  0.00000000000E+00 0.  1.
        -11    1    3    3    0    0  0.47097436221E+03  0.26900852897E+03  0.15561353580E+03  0.56426767677E+03  0.00000000000E+00 0. -1.
         22    1    1    2    0    0 -0.10276448750E+04 -0.69101152937E+03 -0.22181750060E+04  0.25404431267E+04  0.00000000000E+00 0.  1.
<mgrwt>
<rscale>  0 0.33985366E+04</rscale>
<asrwt>0</asrwt>
<pdfrwt beam="1">  1        2 0.43500882E+00 0.33985366E+04</pdfrwt>
<pdfrwt beam="2">  1       -2 0.15710830E+00 0.33985366E+04</pdfrwt>
<totfact> 0.48772240E-01</totfact>
</mgrwt>
</event>
<event>
 6    1  0.1614874E-005  0.4445408E+03  0.7818608E-02  0.1029363E+00
         -1   -1    0    0    0  501 -0.00000000000E+00  0.00000000000E+00  0.37587170725E+02  0.37587170725E+02  0.00000000000E+00 0.  1.
          1   -1    0    0  501    0  0.00000000000E+00 -0.00000000000E+00 -0.13143880909E+04  0.13143880909E+04  0.00000000000E+00 0. -1.
         23    2    1    2    0    0  0.95636433346E+02  0.48211441394E+02 -0.12248891011E+04  0.12329563244E+04  0.91418364232E+02 0.  0.
         11    1    3    3    0    0  0.31011763791E+02  0.10684488540E+02 -0.85314118232E+03  0.85377149446E+03  0.00000000000E+00 0. -1.
        -11    1    3    3    0    0  0.64624669554E+02  0.37526952854E+02 -0.37174791880E+03  0.37918482992E+03  0.00000000000E+00 0.  1.
         22    1    1    2    0    0 -0.95636433346E+02 -0.48211441394E+02 -0.51911819044E+02  0.11901893724E+03  0.00000000000E+00 0.  1.
<mgrwt>
<rscale>  0 0.44454079E+03</rscale>
<asrwt>0</asrwt>
<pdfrwt beam="1">  1        1 0.20221350E+00 0.44454079E+03</pdfrwt>
<pdfrwt beam="2">  1       -1 0.57826432E-02 0.44454079E+03</pdfrwt>
<totfact> 0.13411341E+03</totfact>
</mgrwt>
</event>
<event>
 6    1  0.1614874E-005  0.2635586E+04  0.7818608E-02  0.8356213E-01
         -2   -1    0    0    0  501 -0.00000000000E+00  0.00000000000E+00  0.72444695509E+03  0.72444695509E+03  0.00000000000E+00 0.  1.
          2   -1    0    0  501    0  0.00000000000E+00 -0.00000000000E+00 -0.23971096610E+04  0.23971096610E+04  0.00000000000E+00 0. -1.
         23    2    1    2    0    0  0.96514667205E+03  0.58681523674E+03 -0.16377932282E+04  0.19914786979E+04  0.88093845013E+02 0.  0.
         11    1    3    3    0    0  0.47930803278E+03  0.34050399511E+03 -0.82665598884E+03  0.10144157357E+04  0.00000000000E+00 0. -1.
        -11    1    3    3    0    0  0.48583863926E+03  0.24631124163E+03 -0.81113723932E+03  0.97706296223E+03  0.00000000000E+00 0.  1.
         22    1    1    2    0    0 -0.96514667205E+03 -0.58681523674E+03 -0.34869477767E+02  0.11300779182E+04  0.00000000000E+00 0.  1.
<mgrwt>
<rscale>  0 0.26355863E+04</rscale>
<asrwt>0</asrwt>
<pdfrwt beam="1">  1        2 0.36878609E+00 0.26355863E+04</pdfrwt>
<pdfrwt beam="2">  1       -2 0.11145338E+00 0.26355863E+04</pdfrwt>
<totfact> 0.22395418E+00</totfact>
</mgrwt>
</event>
<event>
 6    1  0.1614874E-005  0.1709618E+04  0.7818608E-02  0.8755898E-01
          1   -1    0    0  501    0  0.00000000000E+00  0.00000000000E+00  0.73331683940E+03  0.73331683940E+03  0.00000000000E+00 0. -1.
         -1   -1    0    0    0  501 -0.00000000000E+00 -0.00000000000E+00 -0.99642974936E+03  0.99642974936E+03  0.00000000000E+00 0.  1.
         23    2    1    2    0    0  0.88050629786E+02 -0.51295629808E+03  0.55096013140E+03  0.76352094545E+03  0.92358489597E+02 0.  0.
         11    1    3    3    0    0  0.82740716273E+02 -0.33969978115E+03  0.31403466633E+03  0.46995716730E+03  0.00000000000E+00 0.  1.
        -11    1    3    3    0    0  0.53099135131E+01 -0.17325651693E+03  0.23692546507E+03  0.29356377814E+03  0.00000000000E+00 0. -1.
         22    1    1    2    0    0 -0.88050629786E+02  0.51295629808E+03 -0.81407304135E+03  0.96622564331E+03  0.00000000000E+00 0.  1.
<mgrwt>
<rscale>  0 0.17096183E+04</rscale>
<asrwt>0</asrwt>
<pdfrwt beam="1">  1        1 0.11281798E+00 0.17096183E+04</pdfrwt>
<pdfrwt beam="2">  1       -1 0.15329688E+00 0.17096183E+04</pdfrwt>
<totfact> 0.79334049E+00</totfact>
</mgrwt>
</event>
<event>
 6    1  0.1614874E-005  0.2465186E+04  0.7818608E-02  0.8415494E-01
         -2   -1    0    0    0  501 -0.00000000000E+00  0.00000000000E+00  0.73158578953E+03  0.73158578953E+03  0.00000000000E+00 0.  1.
          2   -1    0    0  501    0  0.00000000000E+00 -0.00000000000E+00 -0.20767025880E+04  0.20767025880E+04  0.00000000000E+00 0. -1.
         23    2    1    2    0    0 -0.23083951459E+03  0.94231473045E+03  0.18957862753E+03  0.99265240540E+03  0.90414651500E+02 0.  0.
         11    1    3    3    0    0 -0.65386359043E+02  0.14078891540E+03  0.16295028763E+02  0.15608466488E+03  0.00000000000E+00 0. -1.
        -11    1    3    3    0    0 -0.16545315555E+03  0.80152581505E+03  0.17328359877E+03  0.83656774052E+03  0.00000000000E+00 0.  1.
         22    1    1    2    0    0  0.23083951459E+03 -0.94231473045E+03 -0.15346954260E+04  0.18156359721E+04  0.00000000000E+00 0. -1.
<mgrwt>
<rscale>  0 0.24651865E+04</rscale>
<asrwt>0</asrwt>
<pdfrwt beam="1">  1        2 0.31949270E+00 0.24651865E+04</pdfrwt>
<pdfrwt beam="2">  1       -2 0.11255166E+00 0.24651865E+04</pdfrwt>
<totfact> 0.33651355E+00</totfact>
</mgrwt>
</event>
<event>
 6    1  0.1614874E-005  0.2813930E+04  0.7818608E-02  0.8298957E-01
          1   -1    0    0  501    0  0.00000000000E+00  0.00000000000E+00  0.62014701083E+03  0.62014701083E+03  0.00000000000E+00 0. -1.
         -1   -1    0    0    0  501 -0.00000000000E+00 -0.00000000000E+00 -0.31920666722E+04  0.31920666722E+04  0.00000000000E+00 0.  1.
         23    2    1    2    0    0  0.66789206091E+03 -0.26170211629E+02 -0.29623048861E+04  0.30381559922E+04  0.91525457279E+02 0.  0.
         13    1    3    3    0    0  0.47597776057E+03  0.20072068988E+02 -0.20241561171E+04  0.20794628400E+04  0.00000000000E+00 0. -1.
        -13    1    3    3    0    0  0.19191430035E+03 -0.46242280617E+02 -0.93814876900E+03  0.95869315215E+03  0.00000000000E+00 0.  1.
         22    1    1    2    0    0 -0.66789206091E+03  0.26170211629E+02  0.39038522478E+03  0.77405769083E+03  0.00000000000E+00 0. -1.
<mgrwt>
<rscale>  0 0.28139301E+04</rscale>
<asrwt>0</asrwt>
<pdfrwt beam="1">  1        1 0.95407233E-01 0.28139301E+04</pdfrwt>
<pdfrwt beam="2">  1       -1 0.49108718E+00 0.28139301E+04</pdfrwt>
<totfact> 0.47958782E-02</totfact>
</mgrwt>
</event>
<event>
 6    1  0.1614874E-005  0.2785498E+04  0.7818608E-02  0.8307785E-01
         -1   -1    0    0    0  501 -0.00000000000E+00  0.00000000000E+00  0.17003803818E+04  0.17003803818E+04  0.00000000000E+00 0.  1.
          1   -1    0    0  501    0  0.00000000000E+00 -0.00000000000E+00 -0.11407743860E+04  0.11407743860E+04  0.00000000000E+00 0. -1.
         23    2    1    2    0    0 -0.56271583279E+03 -0.10304199068E+03 -0.10133976534E+04  0.11673545286E+04  0.92059933008E+02 0.  0.
         11    1    3    3    0    0 -0.18055710017E+03 -0.51862193495E+02 -0.41437201022E+03  0.45496672009E+03  0.00000000000E+00 0. -1.
        -11    1    3    3    0    0 -0.38215873262E+03 -0.51179797189E+02 -0.59902564314E+03  0.71238780850E+03  0.00000000000E+00 0.  1.
         22    1    1    2    0    0  0.56271583279E+03  0.10304199068E+03  0.15730036492E+04  0.16738002392E+04  0.00000000000E+00 0.  1.
<mgrwt>
<rscale>  0 0.27854984E+04</rscale>
<asrwt>0</asrwt>
<pdfrwt beam="1">  1        1 0.17550375E+00 0.27854984E+04</pdfrwt>
<pdfrwt beam="2">  1       -1 0.26159698E+00 0.27854984E+04</pdfrwt>
<totfact> 0.60007302E-01</totfact>
</mgrwt>
</event>
<event>
 6    1  0.1614874E-005  0.8500538E+03  0.7818608E-02  0.9490265E-01
          1   -1    0    0  501    0  0.00000000000E+00  0.00000000000E+00  0.36282547044E+03  0.36282547044E+03  0.00000000000E+00 0. -1.
         -1   -1    0    0    0  501 -0.00000000000E+00 -0.00000000000E+00 -0.49789192160E+03  0.49789192160E+03  0.00000000000E+00 0.  1.
         23    2    1    2    0    0  0.79703946142E+02 -0.79877063840E+02  0.34090807837E+03  0.37154991856E+03  0.95383225571E+02 0.  0.
         11    1    3    3    0    0  0.92846947291E+02 -0.42141551431E+02  0.19225562313E+03  0.21762051972E+03  0.00000000000E+00 0. -1.
        -11    1    3    3    0    0 -0.13143001149E+02 -0.37735512410E+02  0.14865245524E+03  0.15392939884E+03  0.00000000000E+00 0.  1.
         22    1    1    2    0    0 -0.79703946142E+02  0.79877063840E+02 -0.47597452953E+03  0.48916747349E+03  0.00000000000E+00 0.  1.
<mgrwt>
<rscale>  0 0.85005381E+03</rscale>
<asrwt>0</asrwt>
<pdfrwt beam="1">  1        1 0.55819303E-01 0.85005381E+03</pdfrwt>
<pdfrwt beam="2">  1       -1 0.76598757E-01 0.85005381E+03</pdfrwt>
<totfact> 0.11805965E+02</totfact>
</mgrwt>
</event>
<event>
 6    1  0.1614874E-005  0.3373568E+04  0.7818608E-02  0.8144424E-01
         -1   -1    0    0    0  501 -0.00000000000E+00  0.00000000000E+00  0.16326585891E+04  0.16326585891E+04  0.00000000000E+00 0.  1.
          1   -1    0    0  501    0  0.00000000000E+00 -0.00000000000E+00 -0.17427034411E+04  0.17427034411E+04  0.00000000000E+00 0. -1.
         23    2    1    2    0    0  0.77524543449E+03 -0.60318212335E+03 -0.14256225235E+04  0.17335402471E+04  0.89039604148E+02 0.  0.
         13    1    3    3    0    0  0.22810463224E+03 -0.22979162772E+03 -0.45674816298E+03  0.55987034196E+03  0.00000000000E+00 0.  1.
        -13    1    3    3    0    0  0.54714080225E+03 -0.37339049563E+03 -0.96887436055E+03  0.11736699051E+04  0.00000000000E+00 0. -1.
         22    1    1    2    0    0 -0.77524543449E+03  0.60318212335E+03  0.13155776716E+04  0.16418217831E+04  0.00000000000E+00 0.  1.
<mgrwt>
<rscale>  0 0.33735677E+04</rscale>
<asrwt>0</asrwt>
<pdfrwt beam="1">  1        1 0.26810822E+00 0.33735677E+04</pdfrwt>
<pdfrwt beam="2">  1       -1 0.25117824E+00 0.33735677E+04</pdfrwt>
<totfact> 0.25170591E-01</totfact>
</mgrwt>
</event>
<event>
 6    1  0.1614874E-005  0.1067208E+04  0.7818608E-02  0.9237756E-01
         -1   -1    0    0    0  501 -0.00000000000E+00  0.00000000000E+00  0.35164056481E+03  0.35164056481E+03  0.00000000000E+00 0.  1.
          1   -1    0    0  501    0  0.00000000000E+00 -0.00000000000E+00 -0.80972768870E+03  0.80972768870E+03  0.00000000000E+00 0. -1.
         23    2    1    2    0    0  0.32565309840E+03  0.30060641911E+03  0.84958304691E+02  0.46043138245E+03  0.91460290270E+02 0.  0.
         13    1    3    3    0    0  0.80131370540E+02  0.13010234322E+03  0.41793022491E+02  0.15841184610E+03  0.00000000000E+00 0.  1.
        -13    1    3    3    0    0  0.24552172786E+03  0.17050407590E+03  0.43165282200E+02  0.30201953635E+03  0.00000000000E+00 0. -1.
         22    1    1    2    0    0 -0.32565309840E+03 -0.30060641911E+03 -0.54304542858E+03  0.70093687106E+03  0.00000000000E+00 0. -1.
<mgrwt>
<rscale>  0 0.10672078E+04</rscale>
<asrwt>0</asrwt>
<pdfrwt beam="1">  1        1 0.12457349E+00 0.10672078E+04</pdfrwt>
<pdfrwt beam="2">  1       -1 0.54098549E-01 0.10672078E+04</pdfrwt>
<totfact> 0.74685637E+01</totfact>
</mgrwt>
</event>
<event>
 6    1  0.1614874E-005  0.3191162E+04  0.7818608E-02  0.8191155E-01
         -1   -1    0    0    0  501 -0.00000000000E+00  0.00000000000E+00  0.19954202414E+04  0.19954202414E+04  0.00000000000E+00 0.  1.
          1   -1    0    0  501    0  0.00000000000E+00 -0.00000000000E+00 -0.12758605869E+04  0.12758605869E+04  0.00000000000E+00 0. -1.
         23    2    1    2    0    0  0.70770072618E+03  0.39711908338E+02  0.18239613621E+04  0.19589849451E+04  0.91485579457E+02 0.  0.
         11    1    3    3    0    0  0.54874909004E+03  0.61694461813E+02  0.14720401407E+04  0.15722067123E+04  0.00000000000E+00 0. -1.
        -11    1    3    3    0    0  0.15895163614E+03 -0.21982553475E+02  0.35192122134E+03  0.38677823274E+03  0.00000000000E+00 0.  1.
         22    1    1    2    0    0 -0.70770072618E+03 -0.39711908338E+02 -0.11044017075E+04  0.13122958832E+04  0.00000000000E+00 0. -1.
<mgrwt>
<rscale>  0 0.31911616E+04</rscale>
<asrwt>0</asrwt>
<pdfrwt beam="1">  1        1 0.19628624E+00 0.31911616E+04</pdfrwt>
<pdfrwt beam="2">  1       -1 0.30698773E+00 0.31911616E+04</pdfrwt>
<totfact> 0.23443528E-01</totfact>
</mgrwt>
</event>
<event>
 6    1  0.1614874E-005  0.1560237E+04  0.7818608E-02  0.8845355E-01
          1   -1    0    0  501    0  0.00000000000E+00  0.00000000000E+00  0.10430748902E+04  0.10430748902E+04  0.00000000000E+00 0. -1.
         -1   -1    0    0    0  501 -0.00000000000E+00 -0.00000000000E+00 -0.58345264990E+03  0.58345264990E+03  0.00000000000E+00 0.  1.
         23    2    1    2    0    0 -0.51354888829E+03 -0.50606179283E+03  0.53358184264E+03  0.90175100789E+03  0.92813245924E+02 0.  0.
         11    1    3    3    0    0 -0.22020822195E+03 -0.25163678599E+03  0.29568520249E+03  0.44636585000E+03  0.00000000000E+00 0. -1.
        -11    1    3    3    0    0 -0.29334066634E+03 -0.25442500684E+03  0.23789664015E+03  0.45538515789E+03  0.00000000000E+00 0.  1.
         22    1    1    2    0    0  0.51354888829E+03  0.50606179283E+03 -0.73959602362E+02  0.72477653219E+03  0.00000000000E+00 0.  1.
<mgrwt>
<rscale>  0 0.15602369E+04</rscale>
<asrwt>0</asrwt>
<pdfrwt beam="1">  1        1 0.16047306E+00 0.15602369E+04</pdfrwt>
<pdfrwt beam="2">  1       -1 0.89761946E-01 0.15602369E+04</pdfrwt>
<totfact> 0.16390107E+01</totfact>
</mgrwt>
</event>
<event>
 6    1  0.1614874E-005  0.2671019E+04  0.7818608E-02  0.8344470E-01
          1   -1    0    0  501    0  0.00000000000E+00  0.00000000000E+00  0.89053163485E+03  0.89053163485E+03  0.00000000000E+00 0. -1.
         -1   -1    0    0    0  501 -0.00000000000E+00 -0.00000000000E+00 -0.20028323261E+04  0.20028323261E+04  0.00000000000E+00 0.  1.
         23    2    1    2    0    0  0.46734498577E+03 -0.24698980132E+02 -0.19099452145E+04  0.19685622736E+04  0.91243231272E+02 0.  0.
         13    1    3    3    0    0  0.18895222665E+03  0.24964658477E+02 -0.65608087978E+03  0.68320443422E+03  0.00000000000E+00 0. -1.
        -13    1    3    3    0    0  0.27839275912E+03 -0.49663638609E+02 -0.12538643348E+04  0.12853578394E+04  0.00000000000E+00 0.  1.
         22    1    1    2    0    0 -0.46734498577E+03  0.24698980132E+02  0.79764452329E+03  0.92480168732E+03  0.00000000000E+00 0. -1.
<mgrwt>
<rscale>  0 0.26710189E+04</rscale>
<asrwt>0</asrwt>
<pdfrwt beam="1">  1        1 0.13700487E+00 0.26710189E+04</pdfrwt>
<pdfrwt beam="2">  1       -1 0.30812805E+00 0.26710189E+04</pdfrwt>
<totfact> 0.47425641E-01</totfact>
</mgrwt>
</event>
<event>
 6    1  0.1614874E-005  0.2154477E+04  0.7818608E-02  0.8537618E-01
          2   -1    0    0  501    0  0.00000000000E+00  0.00000000000E+00  0.20618628426E+04  0.20618628426E+04  0.00000000000E+00 0.  1.
         -2   -1    0    0    0  501 -0.00000000000E+00 -0.00000000000E+00 -0.56281281422E+03  0.56281281422E+03  0.00000000000E+00 0. -1.
         23    2    1    2    0    0 -0.18578485110E+03  0.97601941698E+03  0.24946612713E+03  0.10282453140E+04  0.89023389736E+02 0.  0.
         13    1    3    3    0    0 -0.47991077150E+02  0.47949662583E+03  0.13405054397E+03  0.50018967004E+03  0.00000000000E+00 0. -1.
        -13    1    3    3    0    0 -0.13779377395E+03  0.49652279115E+03  0.11541558316E+03  0.52805564395E+03  0.00000000000E+00 0.  1.
         22    1    1    2    0    0  0.18578485110E+03 -0.97601941698E+03  0.12495839012E+04  0.15964303428E+04  0.00000000000E+00 0. -1.
<mgrwt>
<rscale>  0 0.21544770E+04</rscale>
<asrwt>0</asrwt>
<pdfrwt beam="1">  1        2 0.31720967E+00 0.21544770E+04</pdfrwt>
<pdfrwt beam="2">  1       -2 0.86586587E-01 0.21544770E+04</pdfrwt>
<totfact> 0.65392217E+00</totfact>
</mgrwt>
</event>
<event>
 6    1  0.1614874E-005  0.2148625E+04  0.7818608E-02  0.8540121E-01
         -2   -1    0    0    0  501 -0.00000000000E+00  0.00000000000E+00  0.81503371608E+03  0.81503371608E+03  0.00000000000E+00 0.  1.
          2   -1    0    0  501    0  0.00000000000E+00 -0.00000000000E+00 -0.14160730910E+04  0.14160730910E+04  0.00000000000E+00 0. -1.
         23    2    1    2    0    0 -0.12652691691E+03  0.49764700916E+03  0.67643054062E+03  0.85430217623E+03  0.92802616277E+02 0.  0.
         11    1    3    3    0    0 -0.21190609604E+02  0.26831678183E+03  0.36311200020E+03  0.45198812156E+03  0.00000000000E+00 0. -1.
        -11    1    3    3    0    0 -0.10533630731E+03  0.22933022733E+03  0.31331854042E+03  0.40231405466E+03  0.00000000000E+00 0.  1.
         22    1    1    2    0    0  0.12652691691E+03 -0.49764700916E+03 -0.12774699155E+04  0.13768046308E+04  0.00000000000E+00 0. -1.
<mgrwt>
<rscale>  0 0.21486250E+04</rscale>
<asrwt>0</asrwt>
<pdfrwt beam="1">  1        2 0.21785740E+00 0.21486250E+04</pdfrwt>
<pdfrwt beam="2">  1       -2 0.12538980E+00 0.21486250E+04</pdfrwt>
<totfact> 0.61877754E+00</totfact>
</mgrwt>
</event>
<event>
 6    1  0.1614874E-005  0.1807153E+04  0.7818608E-02  0.8702505E-01
          1   -1    0    0  501    0  0.00000000000E+00  0.00000000000E+00  0.81837160630E+03  0.81837160630E+03  0.00000000000E+00 0. -1.
         -1   -1    0    0    0  501 -0.00000000000E+00 -0.00000000000E+00 -0.99765232537E+03  0.99765232537E+03  0.00000000000E+00 0.  1.
         23    2    1    2    0    0 -0.38042590797E+03  0.35308590886E+03 -0.83051436703E+03  0.98325818146E+03  0.87458602162E+02 0.  0.
         13    1    3    3    0    0 -0.22581869966E+03  0.23310287606E+03 -0.58808361566E+03  0.67169440592E+03  0.00000000000E+00 0.  1.
        -13    1    3    3    0    0 -0.15460720831E+03  0.11998303280E+03 -0.24243075137E+03  0.31156377554E+03  0.00000000000E+00 0. -1.
         22    1    1    2    0    0  0.38042590797E+03 -0.35308590886E+03  0.65123364796E+03  0.83276575021E+03  0.00000000000E+00 0. -1.
<mgrwt>
<rscale>  0 0.18071528E+04</rscale>
<asrwt>0</asrwt>
<pdfrwt beam="1">  1        1 0.12590332E+00 0.18071528E+04</pdfrwt>
<pdfrwt beam="2">  1       -1 0.15348497E+00 0.18071528E+04</pdfrwt>
<totfact> 0.65889680E+00</totfact>
</mgrwt>
</event>
<event>
 6    1  0.1614874E-005  0.5434555E+03  0.7818608E-02  0.1003020E+00
          2   -1    0    0  501    0  0.00000000000E+00  0.00000000000E+00  0.21919491340E+03  0.21919491340E+03  0.00000000000E+00 0. -1.
         -2   -1    0    0    0  501 -0.00000000000E+00 -0.00000000000E+00 -0.33685071010E+03  0.33685071010E+03  0.00000000000E+00 0.  1.
         23    2    1    2    0    0  0.56647634809E+01 -0.22823033276E+03 -0.19626903914E+03  0.31458917562E+03  0.91233981376E+02 0.  0.
         13    1    3    3    0    0 -0.21303519260E+02 -0.38833759110E+02 -0.58684360256E+01  0.44680413168E+02  0.00000000000E+00 0.  1.
        -13    1    3    3    0    0  0.26968282741E+02 -0.18939657365E+03 -0.19040060311E+03  0.26990876246E+03  0.00000000000E+00 0. -1.
         22    1    1    2    0    0 -0.56647634809E+01  0.22823033276E+03  0.78613242438E+02  0.24145644788E+03  0.00000000000E+00 0. -1.
<mgrwt>
<rscale>  0 0.54345547E+03</rscale>
<asrwt>0</asrwt>
<pdfrwt beam="1">  1        2 0.33722294E-01 0.54345547E+03</pdfrwt>
<pdfrwt beam="2">  1       -2 0.51823186E-01 0.54345547E+03</pdfrwt>
<totfact> 0.55262429E+02</totfact>
</mgrwt>
</event>
<event>
 6    1  0.1614874E-005  0.5218627E+04  0.7818608E-02  0.7795639E-01
         -1   -1    0    0    0  501 -0.00000000000E+00  0.00000000000E+00  0.22348352205E+04  0.22348352205E+04  0.00000000000E+00 0.  1.
          1   -1    0    0  501    0  0.00000000000E+00 -0.00000000000E+00 -0.30465408697E+04  0.30465408697E+04  0.00000000000E+00 0. -1.
         23    2    1    2    0    0  0.50744302038E+03 -0.21462858362E+04  0.10037502489E+04  0.24248184718E+04  0.90491709445E+02 0.  0.
         13    1    3    3    0    0  0.14092737125E+03 -0.49537663385E+03  0.20113321316E+03  0.55291328684E+03  0.00000000000E+00 0. -1.
        -13    1    3    3    0    0  0.36651564913E+03 -0.16509092023E+04  0.80261703570E+03  0.18719051849E+04  0.00000000000E+00 0.  1.
         22    1    1    2    0    0 -0.50744302038E+03  0.21462858362E+04 -0.18154558980E+04  0.28565576184E+04  0.00000000000E+00 0. -1.
<mgrwt>
<rscale>  0 0.52186270E+04</rscale>
<asrwt>0</asrwt>
<pdfrwt beam="1">  1        1 0.46869859E+00 0.52186270E+04</pdfrwt>
<pdfrwt beam="2">  1       -1 0.34382081E+00 0.52186270E+04</pdfrwt>
<totfact> 0.66944852E-03</totfact>
</mgrwt>
</event>
<event>
 6    1  0.1614874E-005  0.4343084E+04  0.7818608E-02  0.7938699E-01
          1   -1    0    0  501    0  0.00000000000E+00  0.00000000000E+00  0.23517974700E+04  0.23517974700E+04  0.00000000000E+00 0. -1.
         -1   -1    0    0    0  501 -0.00000000000E+00 -0.00000000000E+00 -0.20051025762E+04  0.20051025762E+04  0.00000000000E+00 0.  1.
         23    2    1    2    0    0  0.71502124832E+03  0.40342033641E+03 -0.18422919139E+04  0.20190235316E+04  0.91723343235E+02 0.  0.
         11    1    3    3    0    0  0.33867490586E+03  0.18081881957E+03 -0.75233300614E+03  0.84463074150E+03  0.00000000000E+00 0.  1.
        -11    1    3    3    0    0  0.37634634246E+03  0.22260151684E+03 -0.10899589078E+04  0.11743927901E+04  0.00000000000E+00 0. -1.
         22    1    1    2    0    0 -0.71502124832E+03 -0.40342033641E+03  0.21889868077E+04  0.23378765146E+04  0.00000000000E+00 0. -1.
<mgrwt>
<rscale>  0 0.43430842E+04</rscale>
<asrwt>0</asrwt>
<pdfrwt beam="1">  1        1 0.36181500E+00 0.43430842E+04</pdfrwt>
<pdfrwt beam="2">  1       -1 0.30847732E+00 0.43430842E+04</pdfrwt>
<totfact> 0.37970949E-02</totfact>
</mgrwt>
</event>
<event>
 6    1  0.1614874E-005  0.9182488E+03  0.7818608E-02  0.9403053E-01
         -1   -1    0    0    0  501 -0.00000000000E+00  0.00000000000E+00  0.70369612962E+02  0.70369612962E+02  0.00000000000E+00 0.  1.
          1   -1    0    0  501    0  0.00000000000E+00 -0.00000000000E+00 -0.29955432451E+04  0.29955432451E+04  0.00000000000E+00 0. -1.
         23    2    1    2    0    0  0.21440335980E+03 -0.16162603697E+03 -0.27016136016E+04  0.27165264476E+04  0.93317265602E+02 0.  0.
         13    1    3    3    0    0  0.15675622968E+03 -0.15541461371E+03 -0.18905785557E+04  0.19034215227E+04  0.00000000000E+00 0.  1.
        -13    1    3    3    0    0  0.57647130115E+02 -0.62114232593E+01 -0.81103504581E+03  0.81310492492E+03  0.00000000000E+00 0. -1.
         22    1    1    2    0    0 -0.21440335980E+03  0.16162603697E+03 -0.22356003059E+03  0.34938641044E+03  0.00000000000E+00 0.  1.
<mgrwt>
<rscale>  0 0.91824881E+03</rscale>
<asrwt>0</asrwt>
<pdfrwt beam="1">  1        1 0.46085278E+00 0.91824881E+03</pdfrwt>
<pdfrwt beam="2">  1       -1 0.10826095E-01 0.91824881E+03</pdfrwt>
<totfact> 0.34703216E+01</totfact>
</mgrwt>
</event>
<event>
 6    1  0.1614874E-005  0.2937680E+04  0.7818608E-02  0.8261754E-01
         -2   -1    0    0    0  501 -0.00000000000E+00  0.00000000000E+00  0.12927296558E+04  0.12927296558E+04  0.00000000000E+00 0.  1.
          2   -1    0    0  501    0  0.00000000000E+00 -0.00000000000E+00 -0.16689424174E+04  0.16689424174E+04  0.00000000000E+00 0. -1.
         23    2    1    2    0    0  0.11315398380E+04  0.19577628706E+03  0.73117084174E+03  0.13663635750E+04  0.11673842447E+03 0.  0.
         11    1    3    3    0    0  0.90382941955E+03  0.11514881747E+03  0.54833753019E+03  0.10634100417E+04  0.00000000000E+00 0. -1.
        -11    1    3    3    0    0  0.22771041845E+03  0.80627469584E+02  0.18283331155E+03  0.30295353329E+03  0.00000000000E+00 0.  1.
         22    1    1    2    0    0 -0.11315398380E+04 -0.19577628706E+03 -0.11073836033E+04  0.15953084982E+04  0.00000000000E+00 0. -1.
<mgrwt>
<rscale>  0 0.29376803E+04</rscale>
<asrwt>0</asrwt>
<pdfrwt beam="1">  1        2 0.25676037E+00 0.29376803E+04</pdfrwt>
<pdfrwt beam="2">  1       -2 0.19888149E+00 0.29376803E+04</pdfrwt>
<totfact> 0.11879541E+00</totfact>
</mgrwt>
</event>
<event>
 6    1  0.1614874E-005  0.3373329E+04  0.7818608E-02  0.8144483E-01
         -1   -1    0    0    0  501 -0.00000000000E+00  0.00000000000E+00  0.14287590547E+04  0.14287590547E+04  0.00000000000E+00 0.  1.
          1   -1    0    0  501    0  0.00000000000E+00 -0.00000000000E+00 -0.19911250299E+04  0.19911250299E+04  0.00000000000E+00 0. -1.
         23    2    1    2    0    0  0.78880808504E+03 -0.60965380974E+03 -0.16591158233E+04  0.19377382780E+04  0.90930501598E+02 0.  0.
         11    1    3    3    0    0  0.12824028784E+03 -0.14429484394E+03 -0.31682904983E+03  0.37100838296E+03  0.00000000000E+00 0.  1.
        -11    1    3    3    0    0  0.66056779721E+03 -0.46535896580E+03 -0.13422867734E+04  0.15667298950E+04  0.00000000000E+00 0. -1.
         22    1    1    2    0    0 -0.78880808504E+03  0.60965380974E+03  0.10967498481E+04  0.14821458066E+04  0.00000000000E+00 0.  1.
<mgrwt>
<rscale>  0 0.33733295E+04</rscale>
<asrwt>0</asrwt>
<pdfrwt beam="1">  1        1 0.30632692E+00 0.33733295E+04</pdfrwt>
<pdfrwt beam="2">  1       -1 0.21980909E+00 0.33733295E+04</pdfrwt>
<totfact> 0.27501311E-01</totfact>
</mgrwt>
</event>
<event>
 6    1  0.1614874E-005  0.1645874E+04  0.7818608E-02  0.8792851E-01
          2   -1    0    0  501    0  0.00000000000E+00  0.00000000000E+00  0.12933149462E+04  0.12933149462E+04  0.00000000000E+00 0.  1.
         -2   -1    0    0    0  501 -0.00000000000E+00 -0.00000000000E+00 -0.52363523973E+03  0.52363523973E+03  0.00000000000E+00 0. -1.
         23    2    1    2    0    0 -0.57005565856E+03  0.53382350778E+03  0.10919838311E+03  0.79412734211E+03  0.93717433292E+02 0.  0.
         11    1    3    3    0    0 -0.87752992902E+02  0.50462597384E+02  0.35775026625E+02  0.10736346692E+03  0.00000000000E+00 0. -1.
        -11    1    3    3    0    0 -0.48230266566E+03  0.48336091039E+03  0.73423356489E+02  0.68676387520E+03  0.00000000000E+00 0.  1.
         22    1    1    2    0    0  0.57005565856E+03 -0.53382350778E+03  0.66048132335E+03  0.10228228438E+04  0.00000000000E+00 0.  1.
<mgrwt>
<rscale>  0 0.16458740E+04</rscale>
<asrwt>0</asrwt>
<pdfrwt beam="1">  1        2 0.19897153E+00 0.16458740E+04</pdfrwt>
<pdfrwt beam="2">  1       -2 0.80559268E-01 0.16458740E+04</pdfrwt>
<totfact> 0.21691853E+01</totfact>
</mgrwt>
</event>
<event>
 6    1  0.1614874E-005  0.3806988E+04  0.7818608E-02  0.8044657E-01
          1   -1    0    0  501    0  0.00000000000E+00  0.00000000000E+00  0.31112946068E+04  0.31112946068E+04  0.00000000000E+00 0. -1.
         -1   -1    0    0    0  501 -0.00000000000E+00 -0.00000000000E+00 -0.11645600932E+04  0.11645600932E+04  0.00000000000E+00 0.  1.
         23    2    1    2    0    0 -0.59798986946E+03 -0.24158443887E+03 -0.10361201813E+04  0.12240720970E+04  0.94087956766E+02 0.  0.
         11    1    3    3    0    0  0.12630576181E+01  0.41163315715E+00 -0.18695374024E+02  0.18742512273E+02  0.00000000000E+00 0. -1.
        -11    1    3    3    0    0 -0.59925292707E+03 -0.24199607203E+03 -0.10174248073E+04  0.12053295848E+04  0.00000000000E+00 0.  1.
         22    1    1    2    0    0  0.59798986946E+03  0.24158443887E+03  0.29828546949E+04  0.30517826030E+04  0.00000000000E+00 0. -1.
<mgrwt>
<rscale>  0 0.38069881E+04</rscale>
<asrwt>0</asrwt>
<pdfrwt beam="1">  1        1 0.47866071E+00 0.38069881E+04</pdfrwt>
<pdfrwt beam="2">  1       -1 0.17916309E+00 0.38069881E+04</pdfrwt>
<totfact> 0.83000654E-02</totfact>
</mgrwt>
</event>
<event>
 6    1  0.1614874E-005  0.1052131E+04  0.7818608E-02  0.9253147E-01
          2   -1    0    0  501    0  0.00000000000E+00  0.00000000000E+00  0.67271104329E+03  0.67271104329E+03  0.00000000000E+00 0. -1.
         -2   -1    0    0    0  501 -0.00000000000E+00 -0.00000000000E+00 -0.41138755709E+03  0.41138755709E+03  0.00000000000E+00 0.  1.
         23    2    1    2    0    0 -0.36534936412E+03 -0.30422087037E+03  0.35415885239E+03  0.59969288092E+03  0.90402228218E+02 0.  0.
         11    1    3    3    0    0 -0.83528693456E+02 -0.55899162342E+02  0.33867162571E+02  0.10606009467E+03  0.00000000000E+00 0.  1.
        -11    1    3    3    0    0 -0.28182067067E+03 -0.24832170802E+03  0.32029168982E+03  0.49363278625E+03  0.00000000000E+00 0. -1.
         22    1    1    2    0    0  0.36534936412E+03  0.30422087037E+03 -0.92835366188E+02  0.48440571946E+03  0.00000000000E+00 0.  1.
<mgrwt>
<rscale>  0 0.10521311E+04</rscale>
<asrwt>0</asrwt>
<pdfrwt beam="1">  1        2 0.10349401E+00 0.10521311E+04</pdfrwt>
<pdfrwt beam="2">  1       -2 0.63290393E-01 0.10521311E+04</pdfrwt>
<totfact> 0.99204368E+01</totfact>
</mgrwt>
</event>
<event>
 6    1  0.1614874E-005  0.9598957E+03  0.7818608E-02  0.9353658E-01
         -2   -1    0    0    0  501 -0.00000000000E+00  0.00000000000E+00  0.26391562463E+03  0.26391562463E+03  0.00000000000E+00 0.  1.
          2   -1    0    0  501    0  0.00000000000E+00 -0.00000000000E+00 -0.87281666392E+03  0.87281666392E+03  0.00000000000E+00 0. -1.
         23    2    1    2    0    0  0.18209029264E+03 -0.43833335049E+03 -0.34374781009E+03  0.59304190260E+03  0.90791742298E+02 0.  0.
         13    1    3    3    0    0  0.74891412936E+02 -0.82079897681E+02 -0.73734498756E+02  0.13335145159E+03  0.00000000000E+00 0.  1.
        -13    1    3    3    0    0  0.10719887970E+03 -0.35625345281E+03 -0.27001331134E+03  0.45969045101E+03  0.00000000000E+00 0. -1.
         22    1    1    2    0    0 -0.18209029264E+03  0.43833335049E+03 -0.26515322920E+03  0.54369038596E+03  0.00000000000E+00 0. -1.
<mgrwt>
<rscale>  0 0.95989573E+03</rscale>
<asrwt>0</asrwt>
<pdfrwt beam="1">  1        2 0.13427949E+00 0.95989573E+03</pdfrwt>
<pdfrwt beam="2">  1       -2 0.40602403E-01 0.95989573E+03</pdfrwt>
<totfact> 0.17568696E+02</totfact>
</mgrwt>
</event>
<event>
 6    1  0.1614874E-005  0.2460216E+04  0.7818608E-02  0.8417297E-01
         -2   -1    0    0    0  501 -0.00000000000E+00  0.00000000000E+00  0.48209111540E+03  0.48209111540E+03  0.00000000000E+00 0.  1.
          2   -1    0    0  501    0  0.00000000000E+00 -0.00000000000E+00 -0.31387554463E+04  0.31387554463E+04  0.00000000000E+00 0. -1.
         23    2    1    2    0    0  0.11366806936E+04  0.41912888910E+03 -0.10306723549E+04  0.15931478831E+04  0.90125743017E+02 0.  0.
         11    1    3    3    0    0  0.15532045926E+03  0.90183700949E+02 -0.16310595881E+03  0.24261306391E+03  0.00000000000E+00 0.  1.
        -11    1    3    3    0    0  0.98136023435E+03  0.32894518815E+03 -0.86756639605E+03  0.13505348192E+04  0.00000000000E+00 0. -1.
         22    1    1    2    0    0 -0.11366806936E+04 -0.41912888910E+03 -0.16259919760E+04  0.20276986785E+04  0.00000000000E+00 0. -1.
<mgrwt>
<rscale>  0 0.24602163E+04</rscale>
<asrwt>0</asrwt>
<pdfrwt beam="1">  1        2 0.48288545E+00 0.24602163E+04</pdfrwt>
<pdfrwt beam="2">  1       -2 0.74167864E-01 0.24602163E+04</pdfrwt>
<totfact> 0.20823715E+00</totfact>
</mgrwt>
</event>
<event>
 6    1  0.1614874E-005  0.1773950E+04  0.7818608E-02  0.8720277E-01
         -2   -1    0    0    0  501 -0.00000000000E+00  0.00000000000E+00  0.21929212553E+04  0.21929212553E+04  0.00000000000E+00 0.  1.
          2   -1    0    0  501    0  0.00000000000E+00 -0.00000000000E+00 -0.35875629101E+03  0.35875629101E+03  0.00000000000E+00 0. -1.
         23    2    1    2    0    0  0.80880961090E+02  0.87996994745E+03  0.97827767703E+03  0.13214613512E+04  0.91345777166E+02 0.  0.
         13    1    3    3    0    0  0.47172365938E+02  0.61327961087E+03  0.73989507120E+03  0.96217557109E+03  0.00000000000E+00 0. -1.
        -13    1    3    3    0    0  0.33708595152E+02  0.26669033658E+03  0.23838260583E+03  0.35928578009E+03  0.00000000000E+00 0.  1.
         22    1    1    2    0    0 -0.80880961090E+02 -0.87996994745E+03  0.85588728724E+03  0.12302161951E+04  0.00000000000E+00 0. -1.
<mgrwt>
<rscale>  0 0.17739496E+04</rscale>
<asrwt>0</asrwt>
<pdfrwt beam="1">  1        2 0.55193277E-01 0.17739496E+04</pdfrwt>
<pdfrwt beam="2">  1       -2 0.33737249E+00 0.17739496E+04</pdfrwt>
<totfact> 0.15934108E+00</totfact>
</mgrwt>
</event>
<event>
 6    1  0.1614874E-005  0.1730944E+04  0.7818608E-02  0.8743910E-01
         -2   -1    0    0    0  501 -0.00000000000E+00  0.00000000000E+00  0.54751910214E+03  0.54751910214E+03  0.00000000000E+00 0.  1.
          2   -1    0    0  501    0  0.00000000000E+00 -0.00000000000E+00 -0.13680654392E+04  0.13680654392E+04  0.00000000000E+00 0. -1.
         23    2    1    2    0    0 -0.54810942994E+03  0.44198383110E+03  0.14105761524E+03  0.72375577208E+03  0.90285727882E+02 0.  0.
         11    1    3    3    0    0 -0.13852755365E+03  0.64774434901E+02  0.36258144901E+02  0.15716317510E+03  0.00000000000E+00 0. -1.
        -11    1    3    3    0    0 -0.40958187630E+03  0.37720939619E+03  0.10479947034E+03  0.56659259698E+03  0.00000000000E+00 0.  1.
         22    1    1    2    0    0  0.54810942994E+03 -0.44198383110E+03 -0.96160395227E+03  0.11918287692E+04  0.00000000000E+00 0. -1.
<mgrwt>
<rscale>  0 0.17309442E+04</rscale>
<asrwt>0</asrwt>
<pdfrwt beam="1">  1        2 0.21047160E+00 0.17309442E+04</pdfrwt>
<pdfrwt beam="2">  1       -2 0.84233709E-01 0.17309442E+04</pdfrwt>
<totfact> 0.17626032E+01</totfact>
</mgrwt>
</event>
<event>
 6    1  0.1614874E-005  0.2249880E+04  0.7818608E-02  0.8497949E-01
          2   -1    0    0  501    0  0.00000000000E+00  0.00000000000E+00  0.16871721680E+04  0.16871721680E+04  0.00000000000E+00 0. -1.
         -2   -1    0    0    0  501 -0.00000000000E+00 -0.00000000000E+00 -0.75006580847E+03  0.75006580847E+03  0.00000000000E+00 0.  1.
         23    2    1    2    0    0  0.52755912097E+03  0.22310720426E+03  0.15157011194E+04  0.16230713185E+04  0.94420181712E+02 0.  0.
         13    1    3    3    0    0  0.36493190644E+03  0.19380645405E+03  0.11424192522E+04  0.12148489559E+04  0.00000000000E+00 0.  1.
        -13    1    3    3    0    0  0.16262721453E+03  0.29300750212E+02  0.37328186726E+03  0.40822236256E+03  0.00000000000E+00 0. -1.
         22    1    1    2    0    0 -0.52755912097E+03 -0.22310720426E+03 -0.57859475994E+03  0.81416665796E+03  0.00000000000E+00 0.  1.
<mgrwt>
<rscale>  0 0.22498801E+04</rscale>
<asrwt>0</asrwt>
<pdfrwt beam="1">  1        2 0.25956495E+00 0.22498801E+04</pdfrwt>
<pdfrwt beam="2">  1       -2 0.11539474E+00 0.22498801E+04</pdfrwt>
<totfact> 0.53072785E+00</totfact>
</mgrwt>
</event>
<event>
 6    1  0.1614874E-005  0.8427954E+04  0.7818608E-02  0.7445780E-01
          2   -1    0    0  501    0  0.00000000000E+00  0.00000000000E+00  0.34350256138E+04  0.34350256138E+04  0.00000000000E+00 0. -1.
         -2   -1    0    0    0  501 -0.00000000000E+00 -0.00000000000E+00 -0.51695689260E+04  0.51695689260E+04  0.00000000000E+00 0.  1.
         23    2    1    2    0    0 -0.34497471164E+04 -0.51616624543E+03  0.15457530799E+04  0.38163247917E+04  0.88315181162E+02 0.  0.
         11    1    3    3    0    0 -0.15697457576E+04 -0.26121434557E+03  0.66637317199E+03  0.17252211111E+04  0.00000000000E+00 0. -1.
        -11    1    3    3    0    0 -0.18800013589E+04 -0.25495189986E+03  0.87937990790E+03  0.20911036806E+04  0.00000000000E+00 0.  1.
         22    1    1    2    0    0  0.34497471164E+04  0.51616624543E+03 -0.32802963921E+04  0.47882697481E+04  0.00000000000E+00 0.  1.
<mgrwt>
<rscale>  0 0.84279539E+04</rscale>
<asrwt>0</asrwt>
<pdfrwt beam="1">  1        2 0.52846548E+00 0.84279539E+04</pdfrwt>
<pdfrwt beam="2">  1       -2 0.79531830E+00 0.84279539E+04</pdfrwt>
<totfact> 0.42833880E-05</totfact>
</mgrwt>
</event>
<event>
 6    1  0.1614874E-005  0.2826618E+04  0.7818608E-02  0.8295052E-01
          2   -1    0    0  501    0  0.00000000000E+00  0.00000000000E+00  0.95262537968E+03  0.95262537968E+03  0.00000000000E+00 0.  1.
         -2   -1    0    0    0  501 -0.00000000000E+00 -0.00000000000E+00 -0.20967758573E+04  0.20967758573E+04  0.00000000000E+00 0. -1.
         23    2    1    2    0    0 -0.66040230714E+03  0.27101255779E+03  0.74225298328E+03  0.10324488253E+04  0.73702590731E+02 0.  0.
         13    1    3    3    0    0 -0.12563165904E+03  0.83224387815E+02  0.14706914924E+03  0.21056815319E+03  0.00000000000E+00 0.  1.
        -13    1    3    3    0    0 -0.53477064810E+03  0.18778816998E+03  0.59518383404E+03  0.82188067209E+03  0.00000000000E+00 0. -1.
         22    1    1    2    0    0  0.66040230714E+03 -0.27101255779E+03 -0.18864034609E+04  0.20169524117E+04  0.00000000000E+00 0. -1.
<mgrwt>
<rscale>  0 0.28266177E+04</rscale>
<asrwt>0</asrwt>
<pdfrwt beam="1">  1        2 0.14655775E+00 0.28266177E+04</pdfrwt>
<pdfrwt beam="2">  1       -2 0.32258090E+00 0.28266177E+04</pdfrwt>
<totfact> 0.54189222E-01</totfact>
</mgrwt>
</event>
<event>
 6    1  0.1614874E-005  0.1937645E+04  0.7818608E-02  0.8636342E-01
         -1   -1    0    0    0  501 -0.00000000000E+00  0.00000000000E+00  0.11801327578E+04  0.11801327578E+04  0.00000000000E+00 0.  1.
          1   -1    0    0  501    0  0.00000000000E+00 -0.00000000000E+00 -0.79534837820E+03  0.79534837820E+03  0.00000000000E+00 0. -1.
         23    2    1    2    0    0  0.56799574844E+03 -0.78213707773E+03  0.18839223269E+03  0.98911028590E+03  0.92140901543E+02 0.  0.
         11    1    3    3    0    0  0.38174072402E+03 -0.48943445576E+03  0.81206385970E+02  0.62599244723E+03  0.00000000000E+00 0.  1.
        -11    1    3    3    0    0  0.18625502442E+03 -0.29270262197E+03  0.10718584672E+03  0.36311783868E+03  0.00000000000E+00 0. -1.
         22    1    1    2    0    0 -0.56799574844E+03  0.78213707773E+03  0.19639214695E+03  0.98637085013E+03  0.00000000000E+00 0.  1.
<mgrwt>
<rscale>  0 0.19376446E+04</rscale>
<asrwt>0</asrwt>
<pdfrwt beam="1">  1        1 0.12236129E+00 0.19376446E+04</pdfrwt>
<pdfrwt beam="2">  1       -1 0.18155889E+00 0.19376446E+04</pdfrwt>
<totfact> 0.42211396E+00</totfact>
</mgrwt>
</event>
<event>
 6    1  0.1614874E-005  0.1065374E+04  0.7818608E-02  0.9239614E-01
         -1   -1    0    0    0  501 -0.00000000000E+00  0.00000000000E+00  0.34215461513E+03  0.34215461513E+03  0.00000000000E+00 0.  1.
          1   -1    0    0  501    0  0.00000000000E+00 -0.00000000000E+00 -0.82931957942E+03  0.82931957942E+03  0.00000000000E+00 0. -1.
         23    2    1    2    0    0 -0.28201623783E+03  0.16577681604E+03  0.21080923608E+03  0.40064146592E+03  0.95173205566E+02 0.  0.
         13    1    3    3    0    0 -0.19405044859E+03  0.67643597960E+02  0.15556177139E+03  0.25774153267E+03  0.00000000000E+00 0.  1.
        -13    1    3    3    0    0 -0.87965789234E+02  0.98133218085E+02  0.55247464691E+02  0.14289993325E+03  0.00000000000E+00 0. -1.
         22    1    1    2    0    0  0.28201623783E+03 -0.16577681604E+03 -0.69797420038E+03  0.77083272863E+03  0.00000000000E+00 0. -1.
<mgrwt>
<rscale>  0 0.10653742E+04</rscale>
<asrwt>0</asrwt>
<pdfrwt beam="1">  1        1 0.12758763E+00 0.10653742E+04</pdfrwt>
<pdfrwt beam="2">  1       -1 0.52639172E-01 0.10653742E+04</pdfrwt>
<totfact> 0.75737536E+01</totfact>
</mgrwt>
</event>
<event>
 6    1  0.1614874E-005  0.3869640E+03  0.7818608E-02  0.1048389E+00
          2   -1    0    0  501    0  0.00000000000E+00  0.00000000000E+00  0.20434472848E+03  0.20434472848E+03  0.00000000000E+00 0. -1.
         -2   -1    0    0    0  501 -0.00000000000E+00 -0.00000000000E+00 -0.18319672851E+03  0.18319672851E+03  0.00000000000E+00 0.  1.
         23    2    1    2    0    0 -0.17104429228E+01  0.16814208355E+03 -0.55469307789E+02  0.20275807646E+03  0.98789207854E+02 0.  0.
         11    1    3    3    0    0 -0.44476213550E+02  0.97111035301E+02 -0.54338389770E+02  0.11983883908E+03  0.00000000000E+00 0. -1.
        -11    1    3    3    0    0  0.42765770627E+02  0.71031048244E+02 -0.11309180191E+01  0.82919237379E+02  0.00000000000E+00 0.  1.
         22    1    1    2    0    0  0.17104429228E+01 -0.16814208355E+03  0.76617307750E+02  0.18478338053E+03  0.00000000000E+00 0. -1.
<mgrwt>
<rscale>  0 0.38696401E+03</rscale>
<asrwt>0</asrwt>
<pdfrwt beam="1">  1        2 0.31437650E-01 0.38696401E+03</pdfrwt>
<pdfrwt beam="2">  1       -2 0.28184112E-01 0.38696401E+03</pdfrwt>
<totfact> 0.19202882E+03</totfact>
</mgrwt>
</event>
<event>
 6    1  0.1614874E-005  0.1615124E+04  0.7818608E-02  0.8811310E-01
          1   -1    0    0  501    0  0.00000000000E+00  0.00000000000E+00  0.11561870404E+04  0.11561870404E+04  0.00000000000E+00 0. -1.
         -1   -1    0    0    0  501 -0.00000000000E+00 -0.00000000000E+00 -0.56405816380E+03  0.56405816380E+03  0.00000000000E+00 0.  1.
         23    2    1    2    0    0 -0.10453399162E+03 -0.61296199408E+03 -0.24749453330E+03  0.67544032669E+03  0.91193910479E+02 0.  0.
         13    1    3    3    0    0 -0.11418756760E+03 -0.58909530162E+03 -0.22375436685E+03  0.64042024614E+03  0.00000000000E+00 0. -1.
        -13    1    3    3    0    0  0.96535759754E+01 -0.23866692465E+02 -0.23740166457E+02  0.35020080550E+02  0.00000000000E+00 0.  1.
         22    1    1    2    0    0  0.10453399162E+03  0.61296199408E+03  0.83962340987E+03  0.10448048775E+04  0.00000000000E+00 0. -1.
<mgrwt>
<rscale>  0 0.16151244E+04</rscale>
<asrwt>0</asrwt>
<pdfrwt beam="1">  1        1 0.17787493E+00 0.16151244E+04</pdfrwt>
<pdfrwt beam="2">  1       -1 0.86778179E-01 0.16151244E+04</pdfrwt>
<totfact> 0.14437635E+01</totfact>
</mgrwt>
</event>
<event>
 6    1  0.1614874E-005  0.4041351E+04  0.7818608E-02  0.7996256E-01
          2   -1    0    0  501    0  0.00000000000E+00  0.00000000000E+00  0.31796927810E+04  0.31796927810E+04  0.00000000000E+00 0. -1.
         -2   -1    0    0    0  501 -0.00000000000E+00 -0.00000000000E+00 -0.12841270153E+04  0.12841270153E+04  0.00000000000E+00 0.  1.
         23    2    1    2    0    0 -0.11745568552E+04  0.30928847345E+02 -0.86613858617E+03  0.14625615057E+04  0.91376735624E+02 0.  0.
         11    1    3    3    0    0 -0.80332508819E+03 -0.18770053765E+01 -0.54661548065E+03  0.97166002498E+03  0.00000000000E+00 0. -1.
        -11    1    3    3    0    0 -0.37123176701E+03  0.32805852722E+02 -0.31952310552E+03  0.49090148072E+03  0.00000000000E+00 0.  1.
         22    1    1    2    0    0  0.11745568552E+04 -0.30928847345E+02  0.27617043518E+04  0.30012582906E+04  0.00000000000E+00 0. -1.
<mgrwt>
<rscale>  0 0.40413510E+04</rscale>
<asrwt>0</asrwt>
<pdfrwt beam="1">  1        2 0.48918350E+00 0.40413510E+04</pdfrwt>
<pdfrwt beam="2">  1       -2 0.19755800E+00 0.40413510E+04</pdfrwt>
<totfact> 0.14494026E-01</totfact>
</mgrwt>
</event>
<event>
 6    1  0.1614874E-005  0.3294799E+04  0.7818608E-02  0.8164220E-01
         -1   -1    0    0    0  501 -0.00000000000E+00  0.00000000000E+00  0.13319652587E+04  0.13319652587E+04  0.00000000000E+00 0.  1.
          1   -1    0    0  501    0  0.00000000000E+00 -0.00000000000E+00 -0.20375340761E+04  0.20375340761E+04  0.00000000000E+00 0. -1.
         23    2    1    2    0    0 -0.13538474403E+04 -0.26769500711E+03 -0.12706753850E+04  0.18782217144E+04  0.92397867080E+02 0.  0.
         11    1    3    3    0    0 -0.31225364187E+03 -0.44953595761E+02 -0.24388032131E+03  0.39874901098E+03  0.00000000000E+00 0. -1.
        -11    1    3    3    0    0 -0.10415937984E+04 -0.22274141135E+03 -0.10267950637E+04  0.14794727034E+04  0.00000000000E+00 0.  1.
         22    1    1    2    0    0  0.13538474403E+04  0.26769500711E+03  0.56510656762E+03  0.14912776204E+04  0.00000000000E+00 0.  1.
<mgrwt>
<rscale>  0 0.32947987E+04</rscale>
<asrwt>0</asrwt>
<pdfrwt beam="1">  1        1 0.31346678E+00 0.32947987E+04</pdfrwt>
<pdfrwt beam="2">  1       -1 0.20491773E+00 0.32947987E+04</pdfrwt>
<totfact> 0.32475922E-01</totfact>
</mgrwt>
</event>
<event>
 6    1  0.1614874E-005  0.3860296E+04  0.7818608E-02  0.8033338E-01
          2   -1    0    0  501    0  0.00000000000E+00  0.00000000000E+00  0.44905017235E+04  0.44905017235E+04  0.00000000000E+00 0. -1.
         -2   -1    0    0    0  501 -0.00000000000E+00 -0.00000000000E+00 -0.82963377597E+03  0.82963377597E+03  0.00000000000E+00 0.  1.
         23    2    1    2    0    0  0.10317363797E+04  0.14542354819E+04  0.28461242430E+04  0.33597559194E+04  0.90861637371E+02 0.  0.
         11    1    3    3    0    0  0.62422615720E+03  0.92334616314E+03  0.18455838882E+04  0.21560163081E+04  0.00000000000E+00 0. -1.
        -11    1    3    3    0    0  0.40751022246E+03  0.53088931876E+03  0.10005403548E+04  0.12037396113E+04  0.00000000000E+00 0.  1.
         22    1    1    2    0    0 -0.10317363797E+04 -0.14542354819E+04  0.81474370446E+03  0.19603795801E+04  0.00000000000E+00 0. -1.
<mgrwt>
<rscale>  0 0.38602963E+04</rscale>
<asrwt>0</asrwt>
<pdfrwt beam="1">  1        2 0.69084640E+00 0.38602963E+04</pdfrwt>
<pdfrwt beam="2">  1       -2 0.12763597E+00 0.38602963E+04</pdfrwt>
<totfact> 0.45340771E-02</totfact>
</mgrwt>
</event>
<event>
 6    1  0.1614874E-005  0.1242104E+04  0.7818608E-02  0.9076781E-01
          3   -1    0    0  501    0  0.00000000000E+00  0.00000000000E+00  0.12235145146E+04  0.12235145146E+04  0.00000000000E+00 0. -1.
         -3   -1    0    0    0  501 -0.00000000000E+00 -0.00000000000E+00 -0.31524400202E+03  0.31524400202E+03  0.00000000000E+00 0.  1.
         23    2    1    2    0    0  0.15028870532E+03  0.49388384869E+03  0.87719524564E+03  0.10215799950E+04  0.87442760429E+02 0.  0.
         13    1    3    3    0    0  0.91263536772E+02  0.19827537364E+03  0.43074517277E+03  0.48289083736E+03  0.00000000000E+00 0. -1.
        -13    1    3    3    0    0  0.59025168544E+02  0.29560847505E+03  0.44645007286E+03  0.53868915768E+03  0.00000000000E+00 0.  1.
         22    1    1    2    0    0 -0.15028870532E+03 -0.49388384869E+03  0.31075266915E+02  0.51717852155E+03  0.00000000000E+00 0.  1.
<mgrwt>
<rscale>  0 0.12421040E+04</rscale>
<asrwt>0</asrwt>
<pdfrwt beam="1">  1        3 0.18823300E+00 0.12421040E+04</pdfrwt>
<pdfrwt beam="2">  1       -3 0.48499078E-01 0.12421040E+04</pdfrwt>
<totfact> 0.19101372E+00</totfact>
</mgrwt>
</event>
<event>
 6    1  0.1614874E-005  0.2038530E+04  0.7818608E-02  0.8588815E-01
          2   -1    0    0  501    0  0.00000000000E+00  0.00000000000E+00  0.15081088710E+04  0.15081088710E+04  0.00000000000E+00 0. -1.
         -2   -1    0    0    0  501 -0.00000000000E+00 -0.00000000000E+00 -0.68887699649E+03  0.68887699649E+03  0.00000000000E+00 0.  1.
         23    2    1    2    0    0 -0.16177567431E+02  0.66415542759E+03 -0.41976675527E+03  0.79111185097E+03  0.91047714045E+02 0.  0.
         11    1    3    3    0    0 -0.40466534739E+02  0.60828996291E+03 -0.38290773499E+03  0.71991148965E+03  0.00000000000E+00 0. -1.
        -11    1    3    3    0    0  0.24288967308E+02  0.55865464683E+02 -0.36859020278E+02  0.71200361326E+02  0.00000000000E+00 0.  1.
         22    1    1    2    0    0  0.16177567431E+02 -0.66415542759E+03  0.12389986297E+04  0.14058740165E+04  0.00000000000E+00 0. -1.
<mgrwt>
<rscale>  0 0.20385304E+04</rscale>
<asrwt>0</asrwt>
<pdfrwt beam="1">  1        2 0.23201675E+00 0.20385304E+04</pdfrwt>
<pdfrwt beam="2">  1       -2 0.10598108E+00 0.20385304E+04</pdfrwt>
<totfact> 0.83633261E+00</totfact>
</mgrwt>
</event>
<event>
 6    1  0.1614874E-005  0.8860102E+03  0.7818608E-02  0.9443240E-01
          1   -1    0    0  501    0  0.00000000000E+00  0.00000000000E+00  0.62235051418E+03  0.62235051418E+03  0.00000000000E+00 0. -1.
         -1   -1    0    0    0  501 -0.00000000000E+00 -0.00000000000E+00 -0.31534243127E+03  0.31534243127E+03  0.00000000000E+00 0.  1.
         23    2    1    2    0    0  0.19431738917E+03  0.38883236040E+03  0.21343993057E+03  0.49305280853E+03  0.92707150816E+02 0.  0.
         11    1    3    3    0    0  0.62979529993E+02  0.15733396616E+03  0.36242977384E+02  0.17330306263E+03  0.00000000000E+00 0.  1.
        -11    1    3    3    0    0  0.13133785917E+03  0.23149839423E+03  0.17719695319E+03  0.31974974590E+03  0.00000000000E+00 0. -1.
         22    1    1    2    0    0 -0.19431738917E+03 -0.38883236040E+03  0.93568152344E+02  0.44464013692E+03  0.00000000000E+00 0.  1.
<mgrwt>
<rscale>  0 0.88601021E+03</rscale>
<asrwt>0</asrwt>
<pdfrwt beam="1">  1        1 0.95746233E-01 0.88601021E+03</pdfrwt>
<pdfrwt beam="2">  1       -1 0.48514220E-01 0.88601021E+03</pdfrwt>
<totfact> 0.13914826E+02</totfact>
</mgrwt>
</event>
<event>
 6    1  0.1614874E-005  0.2036300E+04  0.7818608E-02  0.8589835E-01
         -1   -1    0    0    0  501 -0.00000000000E+00  0.00000000000E+00  0.77045601878E+03  0.77045601878E+03  0.00000000000E+00 0. -1.
          1   -1    0    0  501    0  0.00000000000E+00 -0.00000000000E+00 -0.13454746208E+04  0.13454746208E+04  0.00000000000E+00 0.  1.
         23    2    1    2    0    0 -0.22242868734E+03 -0.28185641957E+03 -0.12757385707E+04  0.13285768203E+04  0.93219657782E+02 0.  0.
         11    1    3    3    0    0 -0.16555177472E+03 -0.16914113158E+03 -0.69244370902E+03  0.73177483058E+03  0.00000000000E+00 0.  1.
        -11    1    3    3    0    0 -0.56876912616E+02 -0.11271528800E+03 -0.58329486164E+03  0.59680198974E+03  0.00000000000E+00 0. -1.
         22    1    1    2    0    0  0.22242868734E+03  0.28185641957E+03  0.70071996866E+03  0.78735381925E+03  0.00000000000E+00 0. -1.
<mgrwt>
<rscale>  0 0.20362996E+04</rscale>
<asrwt>0</asrwt>
<pdfrwt beam="1">  1        1 0.20699610E+00 0.20362996E+04</pdfrwt>
<pdfrwt beam="2">  1       -1 0.11853170E+00 0.20362996E+04</pdfrwt>
<totfact> 0.49536026E+00</totfact>
</mgrwt>
</event>
<event>
 6    1  0.1614874E-005  0.1125435E+04  0.7818608E-02  0.9180750E-01
         -2   -1    0    0    0  501 -0.00000000000E+00  0.00000000000E+00  0.16263786269E+03  0.16263786269E+03  0.00000000000E+00 0. -1.
          2   -1    0    0  501    0  0.00000000000E+00 -0.00000000000E+00 -0.19469693905E+04  0.19469693905E+04  0.00000000000E+00 0.  1.
         23    2    1    2    0    0  0.62639212770E+02  0.55547697465E+03 -0.89472808165E+03  0.10589538223E+04  0.91468669024E+02 0.  0.
         11    1    3    3    0    0  0.39651828171E+02  0.18084427873E+03 -0.37085015092E+03  0.41449578413E+03  0.00000000000E+00 0.  1.
        -11    1    3    3    0    0  0.22987384599E+02  0.37463269592E+03 -0.52387793072E+03  0.64445803820E+03  0.00000000000E+00 0. -1.
         22    1    1    2    0    0 -0.62639212770E+02 -0.55547697465E+03 -0.88960344617E+03  0.10506534309E+04  0.00000000000E+00 0. -1.
<mgrwt>
<rscale>  0 0.11254349E+04</rscale>
<asrwt>0</asrwt>
<pdfrwt beam="1">  1        2 0.29953378E+00 0.11254349E+04</pdfrwt>
<pdfrwt beam="2">  1       -2 0.25021207E-01 0.11254349E+04</pdfrwt>
<totfact> 0.10169236E+02</totfact>
</mgrwt>
</event>
<event>
 6    1  0.1614874E-005  0.8407307E+03  0.7818608E-02  0.9502863E-01
         -2   -1    0    0    0  501 -0.00000000000E+00  0.00000000000E+00  0.97606775968E+02  0.97606775968E+02  0.00000000000E+00 0.  1.
          2   -1    0    0  501    0  0.00000000000E+00 -0.00000000000E+00 -0.18103972975E+04  0.18103972975E+04  0.00000000000E+00 0. -1.
         23    2    1    2    0    0  0.33965248281E+02 -0.40094542990E+03 -0.63308295775E+03  0.75575440472E+03  0.91977241800E+02 0.  0.
         13    1    3    3    0    0  0.57992349618E+02 -0.26878903733E+03 -0.46942403217E+03  0.54403086418E+03  0.00000000000E+00 0.  1.
        -13    1    3    3    0    0 -0.24027101336E+02 -0.13215639257E+03 -0.16365892558E+03  0.21172354054E+03  0.00000000000E+00 0. -1.
         22    1    1    2    0    0 -0.33965248281E+02  0.40094542990E+03 -0.10797075638E+04  0.11522496688E+04  0.00000000000E+00 0. -1.
<mgrwt>
<rscale>  0 0.84073074E+03</rscale>
<asrwt>0</asrwt>
<pdfrwt beam="1">  1        2 0.27852265E+00 0.84073074E+03</pdfrwt>
<pdfrwt beam="2">  1       -2 0.15016427E-01 0.84073074E+03</pdfrwt>
<totfact> 0.30152199E+02</totfact>
</mgrwt>
</event>
<event>
 6    1  0.1614874E-005  0.2502798E+04  0.7818608E-02  0.8401989E-01
          2   -1    0    0  501    0  0.00000000000E+00  0.00000000000E+00  0.40349527712E+04  0.40349527712E+04  0.00000000000E+00 0. -1.
         -2   -1    0    0    0  501 -0.00000000000E+00 -0.00000000000E+00 -0.38810849771E+03  0.38810849771E+03  0.00000000000E+00 0.  1.
         23    2    1    2    0    0  0.81144838416E+03  0.65291381847E+03  0.60464443158E+03  0.12075170206E+04  0.88076852564E+02 0.  0.
         11    1    3    3    0    0  0.13745822449E+03  0.10581869337E+03  0.64346204494E+02  0.18502106199E+03  0.00000000000E+00 0. -1.
        -11    1    3    3    0    0  0.67399015967E+03  0.54709512510E+03  0.54029822708E+03  0.10224959586E+04  0.00000000000E+00 0.  1.
         22    1    1    2    0    0 -0.81144838416E+03 -0.65291381847E+03  0.30421998419E+04  0.32155442482E+04  0.00000000000E+00 0. -1.
<mgrwt>
<rscale>  0 0.25027980E+04</rscale>
<asrwt>0</asrwt>
<pdfrwt beam="1">  1        2 0.62076194E+00 0.25027980E+04</pdfrwt>
<pdfrwt beam="2">  1       -2 0.59709002E-01 0.25027980E+04</pdfrwt>
<totfact> 0.75027273E-01</totfact>
</mgrwt>
</event>
<event>
 6    1  0.1614874E-005  0.2837619E+04  0.7818608E-02  0.8291683E-01
          2   -1    0    0  501    0  0.00000000000E+00  0.00000000000E+00  0.12662448182E+04  0.12662448182E+04  0.00000000000E+00 0. -1.
         -2   -1    0    0    0  501 -0.00000000000E+00 -0.00000000000E+00 -0.15897558911E+04  0.15897558911E+04  0.00000000000E+00 0.  1.
         23    2    1    2    0    0 -0.13798608881E+04 -0.98836971142E+02  0.14885138593E+03  0.13941829675E+04  0.88343616335E+02 0.  0.
         11    1    3    3    0    0 -0.10182602470E+04 -0.53771374826E+02  0.75457111655E+02  0.10224671472E+04  0.00000000000E+00 0. -1.
        -11    1    3    3    0    0 -0.36160064108E+03 -0.45065596315E+02  0.73394274279E+02  0.37171582035E+03  0.00000000000E+00 0.  1.
         22    1    1    2    0    0  0.13798608881E+04  0.98836971142E+02 -0.47236245885E+03  0.14618177417E+04  0.00000000000E+00 0.  1.
<mgrwt>
<rscale>  0 0.28376188E+04</rscale>
<asrwt>0</asrwt>
<pdfrwt beam="1">  1        2 0.19480690E+00 0.28376188E+04</pdfrwt>
<pdfrwt beam="2">  1       -2 0.24457783E+00 0.28376188E+04</pdfrwt>
<totfact> 0.10416579E+00</totfact>
</mgrwt>
</event>
<event>
 6    1  0.1614874E-005  0.6106665E+04  0.7818608E-02  0.7677316E-01
          2   -1    0    0  501    0  0.00000000000E+00  0.00000000000E+00  0.23110159357E+04  0.23110159357E+04  0.00000000000E+00 0. -1.
         -2   -1    0    0    0  501 -0.00000000000E+00 -0.00000000000E+00 -0.40340869465E+04  0.40340869465E+04  0.00000000000E+00 0.  1.
         23    2    1    2    0    0 -0.27812777083E+04 -0.12007089883E+04 -0.47080984438E+03  0.30670904060E+04  0.90409533596E+02 0.  0.
         13    1    3    3    0    0 -0.61436640686E+03 -0.22569883472E+03 -0.93439834625E+02  0.66114828031E+03  0.00000000000E+00 0.  1.
        -13    1    3    3    0    0 -0.21669113015E+04 -0.97501015355E+03 -0.37737000976E+03  0.24059421257E+04  0.00000000000E+00 0. -1.
         22    1    1    2    0    0  0.27812777083E+04  0.12007089883E+04 -0.12522611664E+04  0.32780124762E+04  0.00000000000E+00 0. -1.
<mgrwt>
<rscale>  0 0.61066650E+04</rscale>
<asrwt>0</asrwt>
<pdfrwt beam="1">  1        2 0.35554092E+00 0.61066650E+04</pdfrwt>
<pdfrwt beam="2">  1       -2 0.62062875E+00 0.61066650E+04</pdfrwt>
<totfact> 0.12950922E-03</totfact>
</mgrwt>
</event>
<event>
 6    1  0.1614874E-005  0.5487655E+04  0.7818608E-02  0.7757390E-01
         -2   -1    0    0    0  501 -0.00000000000E+00  0.00000000000E+00  0.23204192474E+04  0.23204192474E+04  0.00000000000E+00 0.  1.
          2   -1    0    0  501    0  0.00000000000E+00 -0.00000000000E+00 -0.32444958801E+04  0.32444958801E+04  0.00000000000E+00 0. -1.
         23    2    1    2    0    0 -0.12150586415E+04 -0.23013102611E+04 -0.13416323870E+04  0.29292464784E+04  0.90061366264E+02 0.  0.
         11    1    3    3    0    0 -0.70543073984E+03 -0.13641397378E+04 -0.83916240990E+03  0.17500580857E+04  0.00000000000E+00 0. -1.
        -11    1    3    3    0    0 -0.50962790165E+03 -0.93717052322E+03 -0.50246997706E+03  0.11791883927E+04  0.00000000000E+00 0.  1.
         22    1    1    2    0    0  0.12150586415E+04  0.23013102611E+04  0.41755575424E+03  0.26356686491E+04  0.00000000000E+00 0.  1.
<mgrwt>
<rscale>  0 0.54876555E+04</rscale>
<asrwt>0</asrwt>
<pdfrwt beam="1">  1        2 0.49915321E+00 0.54876555E+04</pdfrwt>
<pdfrwt beam="2">  1       -2 0.35698758E+00 0.54876555E+04</pdfrwt>
<totfact> 0.11924528E-02</totfact>
</mgrwt>
</event>
<event>
 6    1  0.1614874E-005  0.2534322E+04  0.7818608E-02  0.8390859E-01
         -2   -1    0    0    0  501 -0.00000000000E+00  0.00000000000E+00  0.79726675230E+03  0.79726675230E+03  0.00000000000E+00 0.  1.
          2   -1    0    0  501    0  0.00000000000E+00 -0.00000000000E+00 -0.20140015744E+04  0.20140015744E+04  0.00000000000E+00 0. -1.
         23    2    1    2    0    0  0.27042858595E+03  0.66423487467E+03  0.54738226510E+03  0.90694464460E+03  0.92637224581E+02 0.  0.
         13    1    3    3    0    0  0.19694904229E+03  0.36371559135E+03  0.32212770560E+03  0.52425586822E+03  0.00000000000E+00 0.  1.
        -13    1    3    3    0    0  0.73479543665E+02  0.30051928332E+03  0.22525455951E+03  0.38268877637E+03  0.00000000000E+00 0. -1.
         22    1    1    2    0    0 -0.27042858595E+03 -0.66423487467E+03 -0.17641170872E+04  0.19043236821E+04  0.00000000000E+00 0. -1.
<mgrwt>
<rscale>  0 0.25343216E+04</rscale>
<asrwt>0</asrwt>
<pdfrwt beam="1">  1        2 0.30984639E+00 0.25343216E+04</pdfrwt>
<pdfrwt beam="2">  1       -2 0.12265642E+00 0.25343216E+04</pdfrwt>
<totfact> 0.29343783E+00</totfact>
</mgrwt>
</event>
<event>
 6    1  0.2002352E-005  0.2402683E+04  0.7818608E-02  0.8438500E-01
         -1   -1    0    0    0  501 -0.00000000000E+00  0.00000000000E+00  0.72040933436E+03  0.72040933436E+03  0.00000000000E+00 0.  1.
          1   -1    0    0  501    0  0.00000000000E+00 -0.00000000000E+00 -0.20033358284E+04  0.20033358284E+04  0.00000000000E+00 0. -1.
         23    2    1    2    0    0  0.51405324697E+02  0.32504698197E+03  0.66529859070E+03  0.74792152977E+03  0.92012781733E+02 0.  0.
         13    1    3    3    0    0  0.59419317862E+02  0.25412792358E+03  0.43988084160E+03  0.51147513301E+03  0.00000000000E+00 0.  1.
        -13    1    3    3    0    0 -0.80139931655E+01  0.70919058386E+02  0.22541774910E+03  0.23644639676E+03  0.00000000000E+00 0. -1.
         22    1    1    2    0    0 -0.51405324697E+02 -0.32504698197E+03 -0.19482250847E+04  0.19758236330E+04  0.00000000000E+00 0. -1.
<mgrwt>
<rscale>  0 0.24026834E+04</rscale>
<asrwt>0</asrwt>
<pdfrwt beam="1">  1        1 0.30820551E+00 0.24026834E+04</pdfrwt>
<pdfrwt beam="2">  1       -1 0.11083221E+00 0.24026834E+04</pdfrwt>
<totfact> 0.19906738E+00</totfact>
</mgrwt>
</event>
<event>
 6    1  0.1614874E-005  0.5602420E+04  0.7818608E-02  0.7741751E-01
         -2   -1    0    0    0  501 -0.00000000000E+00  0.00000000000E+00  0.25733145237E+04  0.25733145237E+04  0.00000000000E+00 0.  1.
          2   -1    0    0  501    0  0.00000000000E+00 -0.00000000000E+00 -0.30492885328E+04  0.30492885328E+04  0.00000000000E+00 0. -1.
         23    2    1    2    0    0 -0.50067108136E+03  0.22939419224E+04  0.12937536718E+04  0.26824028695E+04  0.92981268233E+02 0.  0.
         13    1    3    3    0    0 -0.35473580790E+03  0.14819664499E+04  0.87592422475E+03  0.17576419714E+04  0.00000000000E+00 0. -1.
        -13    1    3    3    0    0 -0.14593527346E+03  0.81197547247E+03  0.41782944707E+03  0.92476089816E+03  0.00000000000E+00 0.  1.
         22    1    1    2    0    0  0.50067108136E+03 -0.22939419224E+04 -0.17697276809E+04  0.29402001870E+04  0.00000000000E+00 0. -1.
<mgrwt>
<rscale>  0 0.56024204E+04</rscale>
<asrwt>0</asrwt>
<pdfrwt beam="1">  1        2 0.46912131E+00 0.56024204E+04</pdfrwt>
<pdfrwt beam="2">  1       -2 0.39589454E+00 0.56024204E+04</pdfrwt>
<totfact> 0.88876436E-03</totfact>
</mgrwt>
</event>
<event>
 6    1  0.1614874E-005  0.1715753E+04  0.7818608E-02  0.8752430E-01
         -2   -1    0    0    0  501 -0.00000000000E+00  0.00000000000E+00  0.54816372884E+03  0.54816372884E+03  0.00000000000E+00 0.  1.
          2   -1    0    0  501    0  0.00000000000E+00 -0.00000000000E+00 -0.13425775991E+04  0.13425775991E+04  0.00000000000E+00 0. -1.
         23    2    1    2    0    0  0.70742063979E+03 -0.24495857076E+03  0.57889176904E+02  0.75633877717E+03  0.90821396537E+02 0.  0.
         11    1    3    3    0    0  0.59381069623E+03 -0.21811708324E+03  0.79627013902E+02  0.63759443716E+03  0.00000000000E+00 0. -1.
        -11    1    3    3    0    0  0.11360994356E+03 -0.26841487519E+02 -0.21737836997E+02  0.11874434001E+03  0.00000000000E+00 0.  1.
         22    1    1    2    0    0 -0.70742063979E+03  0.24495857076E+03 -0.85230304718E+03  0.11344025508E+04  0.00000000000E+00 0. -1.
<mgrwt>
<rscale>  0 0.17157533E+04</rscale>
<asrwt>0</asrwt>
<pdfrwt beam="1">  1        2 0.20655039E+00 0.17157533E+04</pdfrwt>
<pdfrwt beam="2">  1       -2 0.84332883E-01 0.17157533E+04</pdfrwt>
<totfact> 0.18206871E+01</totfact>
</mgrwt>
</event>
<event>
 6    1  0.1614874E-005  0.2649374E+04  0.7818608E-02  0.8351621E-01
         -1   -1    0    0    0  501 -0.00000000000E+00  0.00000000000E+00  0.13281821360E+04  0.13281821360E+04  0.00000000000E+00 0.  1.
          1   -1    0    0  501    0  0.00000000000E+00 -0.00000000000E+00 -0.13212013017E+04  0.13212013017E+04  0.00000000000E+00 0. -1.
         23    2    1    2    0    0 -0.10125533538E+04  0.82405182954E+03  0.21897350058E+03  0.13267850094E+04  0.89907481036E+02 0.  0.
         11    1    3    3    0    0 -0.35313435104E+03  0.34334368702E+03  0.86157048163E+02  0.50001179411E+03  0.00000000000E+00 0. -1.
        -11    1    3    3    0    0 -0.65941900273E+03  0.48070814252E+03  0.13281645242E+03  0.82677321526E+03  0.00000000000E+00 0.  1.
         22    1    1    2    0    0  0.10125533538E+04 -0.82405182954E+03 -0.21199266631E+03  0.13225984283E+04  0.00000000000E+00 0. -1.
<mgrwt>
<rscale>  0 0.26493742E+04</rscale>
<asrwt>0</asrwt>
<pdfrwt beam="1">  1        1 0.20326174E+00 0.26493742E+04</pdfrwt>
<pdfrwt beam="2">  1       -1 0.20433571E+00 0.26493742E+04</pdfrwt>
<totfact> 0.10765386E+00</totfact>
</mgrwt>
</event>
<event>
 6    1  0.1614874E-005  0.2399706E+04  0.7818608E-02  0.8439614E-01
          2   -1    0    0  501    0  0.00000000000E+00  0.00000000000E+00  0.16256618685E+04  0.16256618685E+04  0.00000000000E+00 0. -1.
         -2   -1    0    0    0  501 -0.00000000000E+00 -0.00000000000E+00 -0.88557631377E+03  0.88557631377E+03  0.00000000000E+00 0.  1.
         23    2    1    2    0    0 -0.27971811769E+03  0.38073222619E+01  0.15897434358E+04  0.16167130368E+04  0.90664934586E+02 0.  0.
         13    1    3    3    0    0 -0.68010947497E+02 -0.19712100969E+02  0.60908391051E+03  0.61318615929E+03  0.00000000000E+00 0.  1.
        -13    1    3    3    0    0 -0.21170717019E+03  0.23519423230E+02  0.98065952532E+03  0.10035268775E+04  0.00000000000E+00 0. -1.
         22    1    1    2    0    0  0.27971811769E+03 -0.38073222619E+01 -0.84965788110E+03  0.89452514552E+03  0.00000000000E+00 0.  1.
<mgrwt>
<rscale>  0 0.23997064E+04</rscale>
<asrwt>0</asrwt>
<pdfrwt beam="1">  1        2 0.25010183E+00 0.23997064E+04</pdfrwt>
<pdfrwt beam="2">  1       -2 0.13624251E+00 0.23997064E+04</pdfrwt>
<totfact> 0.37395426E+00</totfact>
</mgrwt>
</event>
<event>
 6    1  0.1614874E-005  0.1032867E+04  0.7818608E-02  0.9273213E-01
          1   -1    0    0  501    0  0.00000000000E+00  0.00000000000E+00  0.32477389561E+03  0.32477389561E+03  0.00000000000E+00 0. -1.
         -1   -1    0    0    0  501 -0.00000000000E+00 -0.00000000000E+00 -0.82119835963E+03  0.82119835963E+03  0.00000000000E+00 0.  1.
         23    2    1    2    0    0  0.39610522028E+03 -0.52291118764E+02  0.10552336215E+03  0.42349395656E+03  0.92618813684E+02 0.  0.
         11    1    3    3    0    0  0.31281290060E+03 -0.22342776117E+02  0.11597328933E+03  0.33436643711E+03  0.00000000000E+00 0.  1.
        -11    1    3    3    0    0  0.83292319680E+02 -0.29948342648E+02 -0.10449927186E+02  0.89127519449E+02  0.00000000000E+00 0. -1.
         22    1    1    2    0    0 -0.39610522028E+03  0.52291118764E+02 -0.60194782617E+03  0.72247829868E+03  0.00000000000E+00 0.  1.
<mgrwt>
<rscale>  0 0.10328674E+04</rscale>
<asrwt>0</asrwt>
<pdfrwt beam="1">  1        1 0.49965215E-01 0.10328674E+04</pdfrwt>
<pdfrwt beam="2">  1       -1 0.12633821E+00 0.10328674E+04</pdfrwt>
<totfact> 0.43106301E+01</totfact>
</mgrwt>
</event>
<event>
 6    1  0.1614874E-005  0.6360211E+03  0.7818608E-02  0.9833369E-01
         -2   -1    0    0    0  501 -0.00000000000E+00  0.00000000000E+00  0.41087324043E+03  0.41087324043E+03  0.00000000000E+00 0.  1.
          2   -1    0    0  501    0  0.00000000000E+00 -0.00000000000E+00 -0.24613605865E+03  0.24613605865E+03  0.00000000000E+00 0. -1.
         23    2    1    2    0    0 -0.17260519796E+03  0.24241510418E+03 -0.97487534149E+01  0.31204121551E+03  0.93365115998E+02 0.  0.
         13    1    3    3    0    0 -0.62436738678E+02  0.16714818086E+03 -0.32600232267E+01  0.17845864634E+03  0.00000000000E+00 0.  1.
        -13    1    3    3    0    0 -0.11016845928E+03  0.75266923320E+02 -0.64887301882E+01  0.13358256917E+03  0.00000000000E+00 0. -1.
         22    1    1    2    0    0  0.17260519796E+03 -0.24241510418E+03  0.17448593520E+03  0.34496808357E+03  0.00000000000E+00 0.  1.
<mgrwt>
<rscale>  0 0.63602113E+03</rscale>
<asrwt>0</asrwt>
<pdfrwt beam="1">  1        2 0.37867086E-01 0.63602113E+03</pdfrwt>
<pdfrwt beam="2">  1       -2 0.63211267E-01 0.63602113E+03</pdfrwt>
<totfact> 0.32061945E+02</totfact>
</mgrwt>
</event>
<event>
 6    1  0.1614874E-005  0.3071367E+04  0.7818608E-02  0.8223640E-01
          2   -1    0    0  501    0  0.00000000000E+00  0.00000000000E+00  0.15339835369E+04  0.15339835369E+04  0.00000000000E+00 0. -1.
         -2   -1    0    0    0  501 -0.00000000000E+00 -0.00000000000E+00 -0.15373856898E+04  0.15373856898E+04  0.00000000000E+00 0.  1.
         23    2    1    2    0    0 -0.81930739427E+03 -0.44062228904E+03 -0.12215819184E+04  0.15386022682E+04  0.98091530268E+02 0.  0.
         11    1    3    3    0    0 -0.29306277655E+03 -0.16837296502E+03 -0.36944386949E+03  0.50072349560E+03  0.00000000000E+00 0. -1.
        -11    1    3    3    0    0 -0.52624461771E+03 -0.27224932402E+03 -0.85213804891E+03  0.10378787725E+04  0.00000000000E+00 0.  1.
         22    1    1    2    0    0  0.81930739427E+03  0.44062228904E+03  0.12181797655E+04  0.15327669585E+04  0.00000000000E+00 0. -1.
<mgrwt>
<rscale>  0 0.30713673E+04</rscale>
<asrwt>0</asrwt>
<pdfrwt beam="1">  1        2 0.23599747E+00 0.30713673E+04</pdfrwt>
<pdfrwt beam="2">  1       -2 0.23652088E+00 0.30713673E+04</pdfrwt>
<totfact> 0.80472255E-01</totfact>
</mgrwt>
</event>
<event>
 6    1  0.1614874E-005  0.2986866E+04  0.7818608E-02  0.8247491E-01
          2   -1    0    0  501    0  0.00000000000E+00  0.00000000000E+00  0.31231039559E+04  0.31231039559E+04  0.00000000000E+00 0. -1.
         -2   -1    0    0    0  501 -0.00000000000E+00 -0.00000000000E+00 -0.71414253854E+03  0.71414253854E+03  0.00000000000E+00 0.  1.
         23    2    1    2    0    0  0.12636201824E+02  0.10856172149E+04  0.25203974399E+04  0.27458517914E+04  0.92598023949E+02 0.  0.
         11    1    3    3    0    0 -0.29071845940E+02  0.48119063641E+03  0.11934237808E+04  0.12871091334E+04  0.00000000000E+00 0.  1.
        -11    1    3    3    0    0  0.41708047764E+02  0.60442657847E+03  0.13269736592E+04  0.14587426580E+04  0.00000000000E+00 0. -1.
         22    1    1    2    0    0 -0.12636201824E+02 -0.10856172149E+04 -0.11143602257E+03  0.10913947031E+04  0.00000000000E+00 0.  1.
<mgrwt>
<rscale>  0 0.29868655E+04</rscale>
<asrwt>0</asrwt>
<pdfrwt beam="1">  1        2 0.48047753E+00 0.29868655E+04</pdfrwt>
<pdfrwt beam="2">  1       -2 0.10986808E+00 0.29868655E+04</pdfrwt>
<totfact> 0.82069200E-01</totfact>
</mgrwt>
</event>
<event>
 6    1  0.1614874E-005  0.2921011E+04  0.7818608E-02  0.8266653E-01
         -2   -1    0    0    0  501 -0.00000000000E+00  0.00000000000E+00  0.81064611499E+03  0.81064611499E+03  0.00000000000E+00 0.  1.
          2   -1    0    0  501    0  0.00000000000E+00 -0.00000000000E+00 -0.26313285651E+04  0.26313285651E+04  0.00000000000E+00 0. -1.
         23    2    1    2    0    0  0.12695286498E+04 -0.26614830608E+03 -0.12402777517E+03  0.13062839254E+04  0.91961357952E+02 0.  0.
         13    1    3    3    0    0  0.34894171190E+03 -0.55206848501E+02  0.32797241563E+01  0.35329714266E+03  0.00000000000E+00 0.  1.
        -13    1    3    3    0    0  0.92058693791E+03 -0.21094145758E+03 -0.12730749932E+03  0.95298678278E+03  0.00000000000E+00 0. -1.
         22    1    1    2    0    0 -0.12695286498E+04  0.26614830608E+03 -0.16966546750E+04  0.21356907547E+04  0.00000000000E+00 0. -1.
<mgrwt>
<rscale>  0 0.29210110E+04</rscale>
<asrwt>0</asrwt>
<pdfrwt beam="1">  1        2 0.40481978E+00 0.29210110E+04</pdfrwt>
<pdfrwt beam="2">  1       -2 0.12471479E+00 0.29210110E+04</pdfrwt>
<totfact> 0.12114516E+00</totfact>
</mgrwt>
</event>
<event>
 6    1  0.1614874E-005  0.1846695E+04  0.7818608E-02  0.8681854E-01
         -1   -1    0    0    0  501 -0.00000000000E+00  0.00000000000E+00  0.57133351619E+03  0.57133351619E+03  0.00000000000E+00 0.  1.
          1   -1    0    0  501    0  0.00000000000E+00 -0.00000000000E+00 -0.14922473800E+04  0.14922473800E+04  0.00000000000E+00 0. -1.
         23    2    1    2    0    0 -0.38901634969E+03  0.45618783055E+03  0.31988893392E+03  0.68552696405E+03  0.90428045010E+02 0.  0.
         11    1    3    3    0    0 -0.14293193110E+03  0.18968559581E+03  0.17456072824E+03  0.29475686596E+03  0.00000000000E+00 0.  1.
        -11    1    3    3    0    0 -0.24608441859E+03  0.26650223474E+03  0.14532820567E+03  0.39077009809E+03  0.00000000000E+00 0. -1.
         22    1    1    2    0    0  0.38901634969E+03 -0.45618783055E+03 -0.12408027977E+04  0.13780539322E+04  0.00000000000E+00 0. -1.
<mgrwt>
<rscale>  0 0.18466954E+04</rscale>
<asrwt>0</asrwt>
<pdfrwt beam="1">  1        1 0.22957652E+00 0.18466954E+04</pdfrwt>
<pdfrwt beam="2">  1       -1 0.87897465E-01 0.18466954E+04</pdfrwt>
<totfact> 0.79207840E+00</totfact>
</mgrwt>
</event>
<event>
 6    1  0.1614874E-005  0.1135072E+04  0.7818608E-02  0.9171667E-01
         -1   -1    0    0    0  501 -0.00000000000E+00  0.00000000000E+00  0.93293696348E+03  0.93293696348E+03  0.00000000000E+00 0.  1.
          1   -1    0    0  501    0  0.00000000000E+00 -0.00000000000E+00 -0.34525057171E+03  0.34525057171E+03  0.00000000000E+00 0. -1.
         23    2    1    2    0    0 -0.48057747537E+03 -0.20185388159E+03  0.53778252800E+03  0.75455589466E+03  0.91895872597E+02 0.  0.
         13    1    3    3    0    0 -0.31666429966E+03 -0.10235391341E+03  0.38847348473E+03  0.51153128019E+03  0.00000000000E+00 0. -1.
        -13    1    3    3    0    0 -0.16391317572E+03 -0.99499968174E+02  0.14930904326E+03  0.24302461447E+03  0.00000000000E+00 0.  1.
         22    1    1    2    0    0  0.48057747537E+03  0.20185388159E+03  0.49903863767E+02  0.52363164053E+03  0.00000000000E+00 0. -1.
<mgrwt>
<rscale>  0 0.11350718E+04</rscale>
<asrwt>0</asrwt>
<pdfrwt beam="1">  1        1 0.53115473E-01 0.11350718E+04</pdfrwt>
<pdfrwt beam="2">  1       -1 0.14352876E+00 0.11350718E+04</pdfrwt>
<totfact> 0.28462891E+01</totfact>
</mgrwt>
</event>
<event>
 6    1  0.1614874E-005  0.2909753E+04  0.7818608E-02  0.8269982E-01
         -2   -1    0    0    0  501 -0.00000000000E+00  0.00000000000E+00  0.10802385768E+04  0.10802385768E+04  0.00000000000E+00 0.  1.
          2   -1    0    0  501    0  0.00000000000E+00 -0.00000000000E+00 -0.19594426988E+04  0.19594426988E+04  0.00000000000E+00 0. -1.
         23    2    1    2    0    0  0.13214633280E+04 -0.37960036159E+03  0.52467607665E+02  0.13788459516E+04  0.90008592132E+02 0.  0.
         13    1    3    3    0    0  0.61139842479E+03 -0.17611467290E+03 -0.20621438382E+02  0.63659222079E+03  0.00000000000E+00 0. -1.
        -13    1    3    3    0    0  0.71006490319E+03 -0.20348568868E+03  0.73089046046E+02  0.74225373081E+03  0.00000000000E+00 0.  1.
         22    1    1    2    0    0 -0.13214633280E+04  0.37960036159E+03 -0.93167172962E+03  0.16608353240E+04  0.00000000000E+00 0. -1.
<mgrwt>
<rscale>  0 0.29097530E+04</rscale>
<asrwt>0</asrwt>
<pdfrwt beam="1">  1        2 0.30145272E+00 0.29097530E+04</pdfrwt>
<pdfrwt beam="2">  1       -2 0.16619055E+00 0.29097530E+04</pdfrwt>
<totfact> 0.13775911E+00</totfact>
</mgrwt>
</event>
<event>
 6    1  0.1614874E-005  0.4746715E+04  0.7818608E-02  0.7868813E-01
         -2   -1    0    0    0  501 -0.00000000000E+00  0.00000000000E+00  0.11788386776E+04  0.11788386776E+04  0.00000000000E+00 0. -1.
          2   -1    0    0  501    0  0.00000000000E+00 -0.00000000000E+00 -0.47782836815E+04  0.47782836815E+04  0.00000000000E+00 0.  1.
         23    2    1    2    0    0  0.90194514860E+03  0.10980103008E+04 -0.41847326195E+04  0.44203421976E+04  0.91139314711E+02 0.  0.
         11    1    3    3    0    0  0.60928274132E+03  0.67599357922E+03 -0.27158367198E+04  0.28642559010E+04  0.00000000000E+00 0.  1.
        -11    1    3    3    0    0  0.29266240728E+03  0.42201672163E+03 -0.14688958998E+04  0.15560862966E+04  0.00000000000E+00 0. -1.
         22    1    1    2    0    0 -0.90194514860E+03 -0.10980103008E+04  0.58528761564E+03  0.15367801615E+04  0.00000000000E+00 0. -1.
<mgrwt>
<rscale>  0 0.47467149E+04</rscale>
<asrwt>0</asrwt>
<pdfrwt beam="1">  1        2 0.73512056E+00 0.47467149E+04</pdfrwt>
<pdfrwt beam="2">  1       -2 0.18135980E+00 0.47467149E+04</pdfrwt>
<totfact> 0.81942825E-03</totfact>
</mgrwt>
</event>
<event>
 6    1  0.1614874E-005  0.2525013E+04  0.7818608E-02  0.8394128E-01
         -2   -1    0    0    0  501 -0.00000000000E+00  0.00000000000E+00  0.14126116600E+04  0.14126116600E+04  0.00000000000E+00 0.  1.
          2   -1    0    0  501    0  0.00000000000E+00 -0.00000000000E+00 -0.11283520541E+04  0.11283520541E+04  0.00000000000E+00 0. -1.
         23    2    1    2    0    0 -0.85592948387E+03  0.48308948224E+03  0.93731427621E+03  0.13609335740E+04  0.87128704870E+02 0.  0.
         11    1    3    3    0    0 -0.38515621883E+03  0.26721770950E+03  0.44960381828E+03  0.64953384099E+03  0.00000000000E+00 0. -1.
        -11    1    3    3    0    0 -0.47077326503E+03  0.21587177274E+03  0.48771045793E+03  0.71139973300E+03  0.00000000000E+00 0.  1.
         22    1    1    2    0    0  0.85592948387E+03 -0.48308948224E+03 -0.65305467028E+03  0.11800301401E+04  0.00000000000E+00 0. -1.
<mgrwt>
<rscale>  0 0.25250135E+04</rscale>
<asrwt>0</asrwt>
<pdfrwt beam="1">  1        2 0.17359262E+00 0.25250135E+04</pdfrwt>
<pdfrwt beam="2">  1       -2 0.21732487E+00 0.25250135E+04</pdfrwt>
<totfact> 0.19143826E+00</totfact>
</mgrwt>
</event>
<event>
 6    1  0.1614874E-005  0.3180009E+04  0.7818608E-02  0.8194117E-01
         -2   -1    0    0    0  501 -0.00000000000E+00  0.00000000000E+00  0.69547258137E+03  0.69547258137E+03  0.00000000000E+00 0.  1.
          2   -1    0    0  501    0  0.00000000000E+00 -0.00000000000E+00 -0.36351028029E+04  0.36351028029E+04  0.00000000000E+00 0. -1.
         23    2    1    2    0    0 -0.33560492215E+02  0.99103720353E+03  0.21927607684E+03  0.10196887889E+04  0.91663422083E+02 0.  0.
         13    1    3    3    0    0 -0.11597256457E+02  0.73894744847E+03  0.12436124080E+03  0.74942881328E+03  0.00000000000E+00 0. -1.
        -13    1    3    3    0    0 -0.21963235759E+02  0.25208975506E+03  0.94914836042E+02  0.27025997564E+03  0.00000000000E+00 0.  1.
         22    1    1    2    0    0  0.33560492215E+02 -0.99103720353E+03 -0.31589062983E+04  0.33108865953E+04  0.00000000000E+00 0. -1.
<mgrwt>
<rscale>  0 0.31800090E+04</rscale>
<asrwt>0</asrwt>
<pdfrwt beam="1">  1        2 0.55924658E+00 0.31800090E+04</pdfrwt>
<pdfrwt beam="2">  1       -2 0.10699578E+00 0.31800090E+04</pdfrwt>
<totfact> 0.38535062E-01</totfact>
</mgrwt>
</event>
<event>
 6    1  0.1614874E-005  0.1147929E+04  0.7818608E-02  0.9159696E-01
         -1   -1    0    0    0  501 -0.00000000000E+00  0.00000000000E+00  0.68286521441E+03  0.68286521441E+03  0.00000000000E+00 0.  1.
          1   -1    0    0  501    0  0.00000000000E+00 -0.00000000000E+00 -0.48243100257E+03  0.48243100257E+03  0.00000000000E+00 0. -1.
         23    2    1    2    0    0 -0.26620959787E+02 -0.36152315709E+03 -0.34586710062E+03  0.50966461875E+03  0.93414686721E+02 0.  0.
         13    1    3    3    0    0  0.10773155288E+02 -0.61062711393E+02 -0.10836360667E+03  0.12484945674E+03  0.00000000000E+00 0. -1.
        -13    1    3    3    0    0 -0.37394115075E+02 -0.30046044570E+03 -0.23750349396E+03  0.38481516201E+03  0.00000000000E+00 0.  1.
         22    1    1    2    0    0  0.26620959787E+02  0.36152315709E+03  0.54630131246E+03  0.65563159824E+03  0.00000000000E+00 0.  1.
<mgrwt>
<rscale>  0 0.11479292E+04</rscale>
<asrwt>0</asrwt>
<pdfrwt beam="1">  1        1 0.74220154E-01 0.11479292E+04</pdfrwt>
<pdfrwt beam="2">  1       -1 0.10505619E+00 0.11479292E+04</pdfrwt>
<totfact> 0.39348902E+01</totfact>
</mgrwt>
</event>
<event>
 6    1  0.1614874E-005  0.2995967E+04  0.7818608E-02  0.8244883E-01
         -4   -1    0    0    0  501 -0.00000000000E+00  0.00000000000E+00  0.24229847041E+04  0.24229847041E+04  0.00000000000E+00 0. -1.
          4   -1    0    0  501    0  0.00000000000E+00 -0.00000000000E+00 -0.92611179451E+03  0.92611179451E+03  0.00000000000E+00 0.  1.
         23    2    1    2    0    0  0.11014737213E+04  0.30269924988E+03  0.18294538210E+04  0.21593565030E+04  0.10510960378E+03 0.  0.
         13    1    3    3    0    0  0.16325943087E+03  0.66779859104E+02  0.22629779924E+03  0.28692139219E+03  0.00000000000E+00 0. -1.
        -13    1    3    3    0    0  0.93821429048E+03  0.23591939077E+03  0.16031560218E+04  0.18724351108E+04  0.00000000000E+00 0.  1.
         22    1    1    2    0    0 -0.11014737213E+04 -0.30269924988E+03 -0.33258091142E+03  0.11897399957E+04  0.00000000000E+00 0.  1.
<mgrwt>
<rscale>  0 0.29959671E+04</rscale>
<asrwt>0</asrwt>
<pdfrwt beam="1">  1        4 0.14247874E+00 0.29959671E+04</pdfrwt>
<pdfrwt beam="2">  1       -4 0.37276688E+00 0.29959671E+04</pdfrwt>
<totfact> 0.60746666E-03</totfact>
</mgrwt>
</event>
<event>
 6    1  0.1614874E-005  0.1454407E+04  0.7818608E-02  0.8915351E-01
          2   -1    0    0  501    0  0.00000000000E+00  0.00000000000E+00  0.37823072368E+03  0.37823072368E+03  0.00000000000E+00 0. -1.
         -2   -1    0    0    0  501 -0.00000000000E+00 -0.00000000000E+00 -0.13981536174E+04  0.13981536174E+04  0.00000000000E+00 0.  1.
         23    2    1    2    0    0  0.53093258213E+03  0.20774760383E+03  0.33533307924E+02  0.57854526906E+03  0.92421166090E+02 0.  0.
         11    1    3    3    0    0  0.35808307240E+03  0.17738877966E+03 -0.13586153282E+01  0.39961495433E+03  0.00000000000E+00 0. -1.
        -11    1    3    3    0    0  0.17284950974E+03  0.30358824166E+02  0.34891923252E+02  0.17893031473E+03  0.00000000000E+00 0.  1.
         22    1    1    2    0    0 -0.53093258213E+03 -0.20774760383E+03 -0.10534562016E+04  0.11978390720E+04  0.00000000000E+00 0.  1.
<mgrwt>
<rscale>  0 0.14544066E+04</rscale>
<asrwt>0</asrwt>
<pdfrwt beam="1">  1        2 0.58189341E-01 0.14544066E+04</pdfrwt>
<pdfrwt beam="2">  1       -2 0.21510056E+00 0.14544066E+04</pdfrwt>
<totfact> 0.87139695E+00</totfact>
</mgrwt>
</event>
<event>
 6    1  0.1614874E-005  0.1625993E+04  0.7818608E-02  0.8804737E-01
         -2   -1    0    0    0  501 -0.00000000000E+00  0.00000000000E+00  0.42672465231E+03  0.42672465231E+03  0.00000000000E+00 0.  1.
          2   -1    0    0  501    0  0.00000000000E+00 -0.00000000000E+00 -0.15489230365E+04  0.15489230365E+04  0.00000000000E+00 0. -1.
         23    2    1    2    0    0  0.24911278525E+03 -0.68838158890E+03 -0.14053482671E+03  0.75107032016E+03  0.91816102097E+02 0.  0.
         13    1    3    3    0    0  0.77411927628E+02 -0.23661221141E+03 -0.45077469555E+01  0.24899450779E+03  0.00000000000E+00 0. -1.
        -13    1    3    3    0    0  0.17170085762E+03 -0.45176937749E+03 -0.13602707975E+03  0.50207581238E+03  0.00000000000E+00 0.  1.
         22    1    1    2    0    0 -0.24911278525E+03  0.68838158890E+03 -0.98166355751E+03  0.12245773687E+04  0.00000000000E+00 0. -1.
<mgrwt>
<rscale>  0 0.16259934E+04</rscale>
<asrwt>0</asrwt>
<pdfrwt beam="1">  1        2 0.23829585E+00 0.16259934E+04</pdfrwt>
<pdfrwt beam="2">  1       -2 0.65649946E-01 0.16259934E+04</pdfrwt>
<totfact> 0.24359157E+01</totfact>
</mgrwt>
</event>
<event>
 6    1  0.1614874E-005  0.7945045E+04  0.7818608E-02  0.7487120E-01
          2   -1    0    0  501    0  0.00000000000E+00  0.00000000000E+00  0.45106822157E+04  0.45106822157E+04  0.00000000000E+00 0.  1.
         -2   -1    0    0    0  501 -0.00000000000E+00 -0.00000000000E+00 -0.34985690763E+04  0.34985690763E+04  0.00000000000E+00 0. -1.
         23    2    1    2    0    0  0.71680998757E+03  0.26174557018E+04 -0.24176773652E+04  0.36356539380E+04  0.89021376451E+02 0.  0.
         11    1    3    3    0    0  0.33164386646E+03  0.13773239452E+04 -0.12521798458E+04  0.18907573272E+04  0.00000000000E+00 0. -1.
        -11    1    3    3    0    0  0.38516612110E+03  0.12401317566E+04 -0.11654975195E+04  0.17448966108E+04  0.00000000000E+00 0.  1.
         22    1    1    2    0    0 -0.71680998757E+03 -0.26174557018E+04  0.34297905046E+04  0.43735973540E+04  0.00000000000E+00 0.  1.
<mgrwt>
<rscale>  0 0.79450446E+04</rscale>
<asrwt>0</asrwt>
<pdfrwt beam="1">  1        2 0.69395111E+00 0.79450446E+04</pdfrwt>
<pdfrwt beam="2">  1       -2 0.53824139E+00 0.79450446E+04</pdfrwt>
<totfact> 0.69676022E-05</totfact>
</mgrwt>
</event>
<event>
 6    1  0.1614874E-005  0.2738618E+04  0.7818608E-02  0.8322583E-01
         -2   -1    0    0    0  501 -0.00000000000E+00  0.00000000000E+00  0.67253178360E+03  0.67253178360E+03  0.00000000000E+00 0.  1.
          2   -1    0    0  501    0  0.00000000000E+00 -0.00000000000E+00 -0.27879821762E+04  0.27879821762E+04  0.00000000000E+00 0. -1.
         23    2    1    2    0    0 -0.12106295987E+04 -0.53460641586E+03 -0.14948231344E+04  0.19988004999E+04  0.96328553613E+02 0.  0.
         13    1    3    3    0    0 -0.32963177152E+03 -0.12257680168E+03 -0.34263739650E+03  0.49100159122E+03  0.00000000000E+00 0. -1.
        -13    1    3    3    0    0 -0.88099782717E+03 -0.41202961418E+03 -0.11521857379E+04  0.15077989087E+04  0.00000000000E+00 0.  1.
         22    1    1    2    0    0  0.12106295987E+04  0.53460641586E+03 -0.62062725817E+03  0.14617134598E+04  0.00000000000E+00 0. -1.
<mgrwt>
<rscale>  0 0.27386176E+04</rscale>
<asrwt>0</asrwt>
<pdfrwt beam="1">  1        2 0.42892033E+00 0.27386176E+04</pdfrwt>
<pdfrwt beam="2">  1       -2 0.10346643E+00 0.27386176E+04</pdfrwt>
<totfact> 0.15654241E+00</totfact>
</mgrwt>
</event>
<event>
 6    1  0.1614874E-005  0.4856412E+04  0.7818608E-02  0.7851047E-01
         -2   -1    0    0    0  501 -0.00000000000E+00  0.00000000000E+00  0.16399013233E+04  0.16399013233E+04  0.00000000000E+00 0.  1.
          2   -1    0    0  501    0  0.00000000000E+00 -0.00000000000E+00 -0.35954509015E+04  0.35954509015E+04  0.00000000000E+00 0. -1.
         23    2    1    2    0    0 -0.17238805680E+04 -0.10593897233E+04  0.46603558909E+03  0.20796992780E+04  0.11785210289E+03 0.  0.
         13    1    3    3    0    0 -0.69867169491E+03 -0.49283400471E+03  0.21873551959E+03  0.88253765981E+03  0.00000000000E+00 0. -1.
        -13    1    3    3    0    0 -0.10252088731E+04 -0.56655571855E+03  0.24730006950E+03  0.11971616182E+04  0.00000000000E+00 0.  1.
         22    1    1    2    0    0  0.17238805680E+04  0.10593897233E+04 -0.24215851673E+04  0.31556529468E+04  0.00000000000E+00 0. -1.
<mgrwt>
<rscale>  0 0.48564121E+04</rscale>
<asrwt>0</asrwt>
<pdfrwt beam="1">  1        2 0.55314629E+00 0.48564121E+04</pdfrwt>
<pdfrwt beam="2">  1       -2 0.25229251E+00 0.48564121E+04</pdfrwt>
<totfact> 0.31789521E-02</totfact>
</mgrwt>
</event>
<event>
 6    1  0.1614874E-005  0.2119282E+04  0.7818608E-02  0.8552797E-01
          1   -1    0    0  501    0  0.00000000000E+00  0.00000000000E+00  0.93518683484E+03  0.93518683484E+03  0.00000000000E+00 0. -1.
         -1   -1    0    0    0  501 -0.00000000000E+00 -0.00000000000E+00 -0.12006572565E+04  0.12006572565E+04  0.00000000000E+00 0.  1.
         23    2    1    2    0    0 -0.15502601019E+03 -0.29757520047E+03 -0.11438346518E+04  0.11955740320E+04  0.91953745886E+02 0.  0.
         11    1    3    3    0    0 -0.13750180197E+02 -0.61879130871E+02 -0.34557842686E+03  0.35134391044E+03  0.00000000000E+00 0.  1.
        -11    1    3    3    0    0 -0.14127582999E+03 -0.23569606960E+03 -0.79825622498E+03  0.84423012152E+03  0.00000000000E+00 0. -1.
         22    1    1    2    0    0  0.15502601019E+03  0.29757520047E+03  0.87836423016E+03  0.94027005940E+03  0.00000000000E+00 0. -1.
<mgrwt>
<rscale>  0 0.21192818E+04</rscale>
<asrwt>0</asrwt>
<pdfrwt beam="1">  1        1 0.14387490E+00 0.21192818E+04</pdfrwt>
<pdfrwt beam="2">  1       -1 0.18471650E+00 0.21192818E+04</pdfrwt>
<totfact> 0.30118005E+00</totfact>
</mgrwt>
</event>
<event>
 6    1  0.1683773E-005  0.3394038E+04  0.7818608E-02  0.8139371E-01
         -2   -1    0    0    0  501 -0.00000000000E+00  0.00000000000E+00  0.10658933646E+04  0.10658933646E+04  0.00000000000E+00 0.  1.
          2   -1    0    0  501    0  0.00000000000E+00 -0.00000000000E+00 -0.27018407431E+04  0.27018407431E+04  0.00000000000E+00 0. -1.
         23    2    1    2    0    0  0.16689039627E+04 -0.21868029588E+01 -0.48438976744E+03  0.17400925836E+04  0.89685750822E+02 0.  0.
         13    1    3    3    0    0  0.72331835759E+03  0.25514670562E+02 -0.24719895358E+03  0.76481878082E+03  0.00000000000E+00 0. -1.
        -13    1    3    3    0    0  0.94558560512E+03 -0.27701473520E+02 -0.23719081385E+03  0.97527380280E+03  0.00000000000E+00 0.  1.
         22    1    1    2    0    0 -0.16689039627E+04  0.21868029588E+01 -0.11515576110E+04  0.20276415241E+04  0.00000000000E+00 0.  1.
<mgrwt>
<rscale>  0 0.33940384E+04</rscale>
<asrwt>0</asrwt>
<pdfrwt beam="1">  1        2 0.41566781E+00 0.33940384E+04</pdfrwt>
<pdfrwt beam="2">  1       -2 0.16398360E+00 0.33940384E+04</pdfrwt>
<totfact> 0.51682816E-01</totfact>
</mgrwt>
</event>
<event>
 6    1  0.1614874E-005  0.3980351E+04  0.7818608E-02  0.8008522E-01
         -2   -1    0    0    0  501 -0.00000000000E+00  0.00000000000E+00  0.12798793983E+04  0.12798793983E+04  0.00000000000E+00 0.  1.
          2   -1    0    0  501    0  0.00000000000E+00 -0.00000000000E+00 -0.30946656775E+04  0.30946656775E+04  0.00000000000E+00 0. -1.
         23    2    1    2    0    0 -0.48825456118E+03 -0.10992172880E+04  0.83332634779E+03  0.14660795615E+04  0.91023710824E+02 0.  0.
         11    1    3    3    0    0 -0.43184248560E+03 -0.90756537147E+03  0.66855878403E+03  0.12071179245E+04  0.00000000000E+00 0.  1.
        -11    1    3    3    0    0 -0.56412075578E+02 -0.19165191656E+03  0.16476756376E+03  0.25896163704E+03  0.00000000000E+00 0. -1.
         22    1    1    2    0    0  0.48825456118E+03  0.10992172880E+04 -0.26481126270E+04  0.29084655143E+04  0.00000000000E+00 0. -1.
<mgrwt>
<rscale>  0 0.39803512E+04</rscale>
<asrwt>0</asrwt>
<pdfrwt beam="1">  1        2 0.47610241E+00 0.39803512E+04</pdfrwt>
<pdfrwt beam="2">  1       -2 0.19690452E+00 0.39803512E+04</pdfrwt>
<totfact> 0.16692906E-01</totfact>
</mgrwt>
</event>
<event>
 6    1  0.1614874E-005  0.1642950E+04  0.7818608E-02  0.8794588E-01
          2   -1    0    0  501    0  0.00000000000E+00  0.00000000000E+00  0.10243909148E+04  0.10243909148E+04  0.00000000000E+00 0. -1.
         -2   -1    0    0    0  501 -0.00000000000E+00 -0.00000000000E+00 -0.65875392185E+03  0.65875392185E+03  0.00000000000E+00 0.  1.
         23    2    1    2    0    0 -0.45455497310E+03  0.13820572616E+03 -0.50011293216E+03  0.69560041783E+03  0.89587666869E+02 0.  0.
         11    1    3    3    0    0 -0.26124512512E+03  0.51482115527E+02 -0.32906798346E+03  0.42330268291E+03  0.00000000000E+00 0. -1.
        -11    1    3    3    0    0 -0.19330984798E+03  0.86723610631E+02 -0.17104494870E+03  0.27229773492E+03  0.00000000000E+00 0.  1.
         22    1    1    2    0    0  0.45455497310E+03 -0.13820572616E+03  0.86574992512E+03  0.98754441883E+03  0.00000000000E+00 0. -1.
<mgrwt>
<rscale>  0 0.16429504E+04</rscale>
<asrwt>0</asrwt>
<pdfrwt beam="1">  1        2 0.15759860E+00 0.16429504E+04</pdfrwt>
<pdfrwt beam="2">  1       -2 0.10134676E+00 0.16429504E+04</pdfrwt>
<totfact> 0.18585665E+01</totfact>
</mgrwt>
</event>
<event>
 6    1  0.1614874E-005  0.1804458E+04  0.7818608E-02  0.8703932E-01
          3   -1    0    0  501    0  0.00000000000E+00  0.00000000000E+00  0.11809068544E+04  0.11809068544E+04  0.00000000000E+00 0. -1.
         -3   -1    0    0    0  501 -0.00000000000E+00 -0.00000000000E+00 -0.68931511717E+03  0.68931511717E+03  0.00000000000E+00 0.  1.
         23    2    1    2    0    0 -0.66039815570E+03 -0.50338220407E+03 -0.11335035389E+03  0.84285918219E+03  0.89687963806E+02 0.  0.
         11    1    3    3    0    0 -0.12100270617E+03 -0.13295217083E+03 -0.42199106290E+02  0.18465833098E+03  0.00000000000E+00 0. -1.
        -11    1    3    3    0    0 -0.53939544952E+03 -0.37043003324E+03 -0.71151247601E+02  0.65820085121E+03  0.00000000000E+00 0.  1.
         22    1    1    2    0    0  0.66039815570E+03  0.50338220407E+03  0.60494209116E+03  0.10273627894E+04  0.00000000000E+00 0. -1.
<mgrwt>
<rscale>  0 0.18044578E+04</rscale>
<asrwt>0</asrwt>
<pdfrwt beam="1">  1        3 0.18167798E+00 0.18044578E+04</pdfrwt>
<pdfrwt beam="2">  1       -3 0.10604848E+00 0.18044578E+04</pdfrwt>
<totfact> 0.36345381E-01</totfact>
</mgrwt>
</event>
<event>
 6    1  0.1614874E-005  0.4282695E+04  0.7818608E-02  0.7949826E-01
         -2   -1    0    0    0  501 -0.00000000000E+00  0.00000000000E+00  0.21711125088E+04  0.21711125088E+04  0.00000000000E+00 0.  1.
          2   -1    0    0  501    0  0.00000000000E+00 -0.00000000000E+00 -0.21119907218E+04  0.21119907218E+04  0.00000000000E+00 0. -1.
         23    2    1    2    0    0 -0.17609448328E+04  0.11022184611E+04  0.54487116383E+03  0.21496167185E+04  0.90306208602E+02 0.  0.
         11    1    3    3    0    0 -0.75162494321E+03  0.50938343605E+03  0.26936569486E+03  0.94708469407E+03  0.00000000000E+00 0. -1.
        -11    1    3    3    0    0 -0.10093198896E+04  0.59283502506E+03  0.27550546897E+03  0.12025320245E+04  0.00000000000E+00 0.  1.
         22    1    1    2    0    0  0.17609448328E+04 -0.11022184611E+04 -0.48574937681E+03  0.21334865121E+04  0.00000000000E+00 0. -1.
<mgrwt>
<rscale>  0 0.42826952E+04</rscale>
<asrwt>0</asrwt>
<pdfrwt beam="1">  1        2 0.32492165E+00 0.42826952E+04</pdfrwt>
<pdfrwt beam="2">  1       -2 0.33401731E+00 0.42826952E+04</pdfrwt>
<totfact> 0.87426263E-02</totfact>
</mgrwt>
</event>
<event>
 6    1  0.1614874E-005  0.4073738E+04  0.7818608E-02  0.7989834E-01
         -2   -1    0    0    0  501 -0.00000000000E+00  0.00000000000E+00  0.10305115023E+04  0.10305115023E+04  0.00000000000E+00 0.  1.
          2   -1    0    0  501    0  0.00000000000E+00 -0.00000000000E+00 -0.40259954113E+04  0.40259954113E+04  0.00000000000E+00 0. -1.
         23    2    1    2    0    0 -0.16578364455E+04 -0.82473729574E+03 -0.44814840047E+03  0.19072956663E+04  0.91249564676E+02 0.  0.
         13    1    3    3    0    0 -0.86637201663E+03 -0.38219332833E+03 -0.24238047364E+03  0.97745613990E+03  0.00000000000E+00 0. -1.
        -13    1    3    3    0    0 -0.79146442883E+03 -0.44254396741E+03 -0.20576792683E+03  0.92983952643E+03  0.00000000000E+00 0.  1.
         22    1    1    2    0    0  0.16578364455E+04  0.82473729574E+03 -0.25473355086E+04  0.31492112473E+04  0.00000000000E+00 0. -1.
<mgrwt>
<rscale>  0 0.40737376E+04</rscale>
<asrwt>0</asrwt>
<pdfrwt beam="1">  1        2 0.61938391E+00 0.40737376E+04</pdfrwt>
<pdfrwt beam="2">  1       -2 0.15854023E+00 0.40737376E+04</pdfrwt>
<totfact> 0.65736918E-02</totfact>
</mgrwt>
</event>
<event>
 6    1  0.1614874E-005  0.2452621E+04  0.7818608E-02  0.8420062E-01
         -1   -1    0    0    0  501 -0.00000000000E+00  0.00000000000E+00  0.84180786377E+03  0.84180786377E+03  0.00000000000E+00 0.  1.
          1   -1    0    0  501    0  0.00000000000E+00 -0.00000000000E+00 -0.17864376496E+04  0.17864376496E+04  0.00000000000E+00 0. -1.
         23    2    1    2    0    0  0.38150580005E+03 -0.11519140263E+04 -0.64956496107E+03  0.13794397437E+04  0.92015044394E+02 0.  0.
         13    1    3    3    0    0  0.26215457130E+03 -0.64953924391E+03 -0.38370207207E+03  0.79865732873E+03  0.00000000000E+00 0. -1.
        -13    1    3    3    0    0  0.11935122875E+03 -0.50237478241E+03 -0.26586288900E+03  0.58078241498E+03  0.00000000000E+00 0.  1.
         22    1    1    2    0    0 -0.38150580005E+03  0.11519140263E+04 -0.29506482476E+03  0.12488057696E+04  0.00000000000E+00 0.  1.
<mgrwt>
<rscale>  0 0.24526209E+04</rscale>
<asrwt>0</asrwt>
<pdfrwt beam="1">  1        1 0.27483656E+00 0.24526209E+04</pdfrwt>
<pdfrwt beam="2">  1       -1 0.12950890E+00 0.24526209E+04</pdfrwt>
<totfact> 0.19006053E+00</totfact>
</mgrwt>
</event>
<event>
 6    1  0.1614874E-005  0.3956019E+04  0.7818608E-02  0.8013478E-01
          2   -1    0    0  501    0  0.00000000000E+00  0.00000000000E+00  0.26272547559E+04  0.26272547559E+04  0.00000000000E+00 0. -1.
         -2   -1    0    0    0  501 -0.00000000000E+00 -0.00000000000E+00 -0.14892051159E+04  0.14892051159E+04  0.00000000000E+00 0.  1.
         23    2    1    2    0    0  0.89953420927E+03  0.16265175385E+04  0.12700201708E+04  0.22530926729E+04  0.93564210802E+02 0.  0.
         13    1    3    3    0    0  0.36170669420E+03  0.66918351970E+03  0.46504642501E+03  0.89157528738E+03  0.00000000000E+00 0.  1.
        -13    1    3    3    0    0  0.53782751507E+03  0.95733401881E+03  0.80497374582E+03  0.13615173855E+04  0.00000000000E+00 0. -1.
         22    1    1    2    0    0 -0.89953420927E+03 -0.16265175385E+04 -0.13197053085E+03  0.18633671988E+04  0.00000000000E+00 0.  1.
<mgrwt>
<rscale>  0 0.39560188E+04</rscale>
<asrwt>0</asrwt>
<pdfrwt beam="1">  1        2 0.40419304E+00 0.39560188E+04</pdfrwt>
<pdfrwt beam="2">  1       -2 0.22910848E+00 0.39560188E+04</pdfrwt>
<totfact> 0.20106876E-01</totfact>
</mgrwt>
</event>
<event>
 6    1  0.1614874E-005  0.3599321E+04  0.7818608E-02  0.8090647E-01
         -2   -1    0    0    0  501 -0.00000000000E+00  0.00000000000E+00  0.24799005265E+04  0.24799005265E+04  0.00000000000E+00 0.  1.
          2   -1    0    0  501    0  0.00000000000E+00 -0.00000000000E+00 -0.13060110098E+04  0.13060110098E+04  0.00000000000E+00 0. -1.
         23    2    1    2    0    0 -0.24265532197E+03  0.44131597766E+03  0.24033610203E+04  0.24572875957E+04  0.92069196229E+02 0.  0.
         11    1    3    3    0    0 -0.24877192746E+03  0.41991540670E+03  0.22507004570E+04  0.23030130194E+04  0.00000000000E+00 0.  1.
        -11    1    3    3    0    0  0.61166054956E+01  0.21400570961E+02  0.15266056331E+03  0.15427457629E+03  0.00000000000E+00 0. -1.
         22    1    1    2    0    0  0.24265532197E+03 -0.44131597766E+03 -0.12294715035E+04  0.13286239406E+04  0.00000000000E+00 0. -1.
<mgrwt>
<rscale>  0 0.35993207E+04</rscale>
<asrwt>0</asrwt>
<pdfrwt beam="1">  1        2 0.20092477E+00 0.35993207E+04</pdfrwt>
<pdfrwt beam="2">  1       -2 0.38152316E+00 0.35993207E+04</pdfrwt>
<totfact> 0.13073781E-01</totfact>
</mgrwt>
</event>
<event>
 6    1  0.1614874E-005  0.2308613E+04  0.7818608E-02  0.8474533E-01
          1   -1    0    0  501    0  0.00000000000E+00  0.00000000000E+00  0.11718196285E+04  0.11718196285E+04  0.00000000000E+00 0. -1.
         -1   -1    0    0    0  501 -0.00000000000E+00 -0.00000000000E+00 -0.11370546679E+04  0.11370546679E+04  0.00000000000E+00 0.  1.
         23    2    1    2    0    0 -0.79391709994E+03  0.29029595197E+03 -0.76607031558E+03  0.11444374193E+04  0.91088840858E+02 0.  0.
         13    1    3    3    0    0 -0.15312978895E+03  0.88963335059E+02 -0.18778361638E+03  0.25811992141E+03  0.00000000000E+00 0. -1.
        -13    1    3    3    0    0 -0.64078731098E+03  0.20133261691E+03 -0.57828669920E+03  0.88631749786E+03  0.00000000000E+00 0.  1.
         22    1    1    2    0    0  0.79391709994E+03 -0.29029595197E+03  0.80083527611E+03  0.11644368771E+04  0.00000000000E+00 0. -1.
<mgrwt>
<rscale>  0 0.23086126E+04</rscale>
<asrwt>0</asrwt>
<pdfrwt beam="1">  1        1 0.18027994E+00 0.23086126E+04</pdfrwt>
<pdfrwt beam="2">  1       -1 0.17493149E+00 0.23086126E+04</pdfrwt>
<totfact> 0.22924490E+00</totfact>
</mgrwt>
</event>
<event>
 6    1  0.1614874E-005  0.2854946E+04  0.7818608E-02  0.8286410E-01
          2   -1    0    0  501    0  0.00000000000E+00  0.00000000000E+00  0.14938803438E+04  0.14938803438E+04  0.00000000000E+00 0. -1.
         -2   -1    0    0    0  501 -0.00000000000E+00 -0.00000000000E+00 -0.13640174724E+04  0.13640174724E+04  0.00000000000E+00 0.  1.
         23    2    1    2    0    0  0.36873460725E+03  0.38948494671E+03  0.13876915122E+04  0.14904927467E+04  0.90648555400E+02 0.  0.
         13    1    3    3    0    0  0.20875941331E+03  0.27869324132E+03  0.93574239945E+03  0.99843089572E+03  0.00000000000E+00 0. -1.
        -13    1    3    3    0    0  0.15997519394E+03  0.11079170538E+03  0.45194911278E+03  0.49206185099E+03  0.00000000000E+00 0.  1.
         22    1    1    2    0    0 -0.36873460725E+03 -0.38948494671E+03 -0.12578286409E+04  0.13674050695E+04  0.00000000000E+00 0.  1.
<mgrwt>
<rscale>  0 0.28549458E+04</rscale>
<asrwt>0</asrwt>
<pdfrwt beam="1">  1        2 0.22982775E+00 0.28549458E+04</pdfrwt>
<pdfrwt beam="2">  1       -2 0.20984884E+00 0.28549458E+04</pdfrwt>
<totfact> 0.12721836E+00</totfact>
</mgrwt>
</event>
<event>
 6    1  0.1614874E-005  0.2134417E+04  0.7818608E-02  0.8546232E-01
         -2   -1    0    0    0  501 -0.00000000000E+00  0.00000000000E+00  0.46744583796E+03  0.46744583796E+03  0.00000000000E+00 0.  1.
          2   -1    0    0  501    0  0.00000000000E+00 -0.00000000000E+00 -0.24365038535E+04  0.24365038535E+04  0.00000000000E+00 0. -1.
         23    2    1    2    0    0  0.59444100664E+03  0.84395245366E+03 -0.13439065671E+04  0.16971231969E+04  0.92338670538E+02 0.  0.
         11    1    3    3    0    0  0.23549917393E+03  0.35718047749E+03 -0.62894312897E+03  0.76066235210E+03  0.00000000000E+00 0. -1.
        -11    1    3    3    0    0  0.35894183271E+03  0.48677197617E+03 -0.71496343812E+03  0.93646084484E+03  0.00000000000E+00 0.  1.
         22    1    1    2    0    0 -0.59444100664E+03 -0.84395245366E+03 -0.62515144846E+03  0.12068264945E+04  0.00000000000E+00 0.  1.
<mgrwt>
<rscale>  0 0.21344166E+04</rscale>
<asrwt>0</asrwt>
<pdfrwt beam="1">  1        2 0.37484676E+00 0.21344166E+04</pdfrwt>
<pdfrwt beam="2">  1       -2 0.71914741E-01 0.21344166E+04</pdfrwt>
<totfact> 0.61000140E+00</totfact>
</mgrwt>
</event>
<event>
 6    1  0.1614874E-005  0.5426500E+03  0.7818608E-02  0.1003210E+00
          2   -1    0    0  501    0  0.00000000000E+00  0.00000000000E+00  0.13616418031E+04  0.13616418031E+04  0.00000000000E+00 0. -1.
         -2   -1    0    0    0  501 -0.00000000000E+00 -0.00000000000E+00 -0.54065059558E+02  0.54065059558E+02  0.00000000000E+00 0.  1.
         23    2    1    2    0    0  0.24216928447E+03  0.10318912522E+03  0.64544145892E+03  0.70316416706E+03  0.92472758419E+02 0.  0.
         13    1    3    3    0    0  0.17443497030E+03  0.11556440240E+03  0.46007133436E+03  0.50541895756E+03  0.00000000000E+00 0. -1.
        -13    1    3    3    0    0  0.67734314170E+02 -0.12375277184E+02  0.18537012456E+03  0.19774520951E+03  0.00000000000E+00 0.  1.
         22    1    1    2    0    0 -0.24216928447E+03 -0.10318912522E+03  0.66213528464E+03  0.71254269561E+03  0.00000000000E+00 0.  1.
<mgrwt>
<rscale>  0 0.54264996E+03</rscale>
<asrwt>0</asrwt>
<pdfrwt beam="1">  1        2 0.20948333E+00 0.54264996E+03</pdfrwt>
<pdfrwt beam="2">  1       -2 0.83177025E-02 0.54264996E+03</pdfrwt>
<totfact> 0.14296791E+03</totfact>
</mgrwt>
</event>
<event>
 6    1  0.1614874E-005  0.3634787E+04  0.7818608E-02  0.8082569E-01
         -2   -1    0    0    0  501 -0.00000000000E+00  0.00000000000E+00  0.16550286549E+04  0.16550286549E+04  0.00000000000E+00 0.  1.
          2   -1    0    0  501    0  0.00000000000E+00 -0.00000000000E+00 -0.19956868530E+04  0.19956868530E+04  0.00000000000E+00 0. -1.
         23    2    1    2    0    0  0.57118027857E+03  0.14930084535E+04 -0.10364209826E+04  0.19073259918E+04  0.91666966548E+02 0.  0.
         11    1    3    3    0    0  0.44928515046E+03  0.12298588555E+04 -0.81290426260E+03  0.15411759442E+04  0.00000000000E+00 0.  1.
        -11    1    3    3    0    0  0.12189512811E+03  0.26314959800E+03 -0.22351672001E+03  0.36615004753E+03  0.00000000000E+00 0. -1.
         22    1    1    2    0    0 -0.57118027857E+03 -0.14930084535E+04  0.69576278442E+03  0.17433895162E+04  0.00000000000E+00 0. -1.
<mgrwt>
<rscale>  0 0.36347869E+04</rscale>
<asrwt>0</asrwt>
<pdfrwt beam="1">  1        2 0.30702875E+00 0.36347869E+04</pdfrwt>
<pdfrwt beam="2">  1       -2 0.25461979E+00 0.36347869E+04</pdfrwt>
<totfact> 0.32868571E-01</totfact>
</mgrwt>
</event>
<event>
 6    1  0.1614874E-005  0.3759497E+04  0.7818608E-02  0.8054903E-01
          1   -1    0    0  501    0  0.00000000000E+00  0.00000000000E+00  0.21681515354E+04  0.21681515354E+04  0.00000000000E+00 0. -1.
         -1   -1    0    0    0  501 -0.00000000000E+00 -0.00000000000E+00 -0.16297081668E+04  0.16297081668E+04  0.00000000000E+00 0.  1.
         23    2    1    2    0    0  0.12338387556E+02  0.75596882679E+03  0.20066572076E+04  0.21464079228E+04  0.93555969618E+02 0.  0.
         11    1    3    3    0    0  0.82345540530E+01  0.54093634525E+03  0.15484340090E+04  0.16402218807E+04  0.00000000000E+00 0.  1.
        -11    1    3    3    0    0  0.41038335033E+01  0.21503248154E+03  0.45822319859E+03  0.50618604217E+03  0.00000000000E+00 0. -1.
         22    1    1    2    0    0 -0.12338387556E+02 -0.75596882679E+03 -0.14682138390E+04  0.16514517794E+04  0.00000000000E+00 0.  1.
<mgrwt>
<rscale>  0 0.37594969E+04</rscale>
<asrwt>0</asrwt>
<pdfrwt beam="1">  1        1 0.33356177E+00 0.37594969E+04</pdfrwt>
<pdfrwt beam="2">  1       -1 0.25072433E+00 0.37594969E+04</pdfrwt>
<totfact> 0.12610478E-01</totfact>
</mgrwt>
</event>
<event>
 6    1  0.1614874E-005  0.1408778E+04  0.7818608E-02  0.8947489E-01
         -1   -1    0    0    0  501 -0.00000000000E+00  0.00000000000E+00  0.21655286704E+03  0.21655286704E+03  0.00000000000E+00 0. -1.
          1   -1    0    0  501    0  0.00000000000E+00 -0.00000000000E+00 -0.22911893641E+04  0.22911893641E+04  0.00000000000E+00 0.  1.
         23    2    1    2    0    0 -0.60657035402E+03  0.20952152736E+03 -0.15460041071E+04  0.16763102926E+04  0.89781026949E+02 0.  0.
         13    1    3    3    0    0 -0.25299079387E+03  0.13069449348E+03 -0.63511139785E+03  0.69602577545E+03  0.00000000000E+00 0. -1.
        -13    1    3    3    0    0 -0.35357956015E+03  0.78827033887E+02 -0.91089270930E+03  0.98028451711E+03  0.00000000000E+00 0.  1.
         22    1    1    2    0    0  0.60657035402E+03 -0.20952152736E+03 -0.52863238989E+03  0.83143193856E+03  0.00000000000E+00 0. -1.
<mgrwt>
<rscale>  0 0.14087777E+04</rscale>
<asrwt>0</asrwt>
<pdfrwt beam="1">  1        1 0.35249065E+00 0.14087777E+04</pdfrwt>
<pdfrwt beam="2">  1       -1 0.33315828E-01 0.14087777E+04</pdfrwt>
<totfact> 0.15619427E+01</totfact>
</mgrwt>
</event>
<event>
 6    1  0.1614874E-005  0.7205031E+03  0.7818608E-02  0.9682798E-01
          1   -1    0    0  501    0  0.00000000000E+00  0.00000000000E+00  0.12229380119E+04  0.12229380119E+04  0.00000000000E+00 0. -1.
         -1   -1    0    0    0  501 -0.00000000000E+00 -0.00000000000E+00 -0.10612246496E+03  0.10612246496E+03  0.00000000000E+00 0.  1.
         23    2    1    2    0    0  0.67730271078E+02  0.19154479594E+02  0.12081842327E+04  0.12137239239E+04  0.91990975487E+02 0.  0.
         11    1    3    3    0    0  0.51876785045E+02  0.52497170360E+02  0.61906941204E+03  0.62345335883E+03  0.00000000000E+00 0.  1.
        -11    1    3    3    0    0  0.15853486033E+02 -0.33342690766E+02  0.58911482066E+03  0.59027056505E+03  0.00000000000E+00 0. -1.
         22    1    1    2    0    0 -0.67730271078E+02 -0.19154479594E+02 -0.91368685776E+02  0.11533655296E+03  0.00000000000E+00 0.  1.
<mgrwt>
<rscale>  0 0.72050315E+03</rscale>
<asrwt>0</asrwt>
<pdfrwt beam="1">  1        1 0.18814430E+00 0.72050315E+03</pdfrwt>
<pdfrwt beam="2">  1       -1 0.16326534E-01 0.72050315E+03</pdfrwt>
<totfact> 0.29883523E+02</totfact>
</mgrwt>
</event>
<event>
 6    1  0.1614874E-005  0.1735452E+04  0.7818608E-02  0.8741399E-01
          1   -1    0    0  501    0  0.00000000000E+00  0.00000000000E+00  0.99563083966E+03  0.99563083966E+03  0.00000000000E+00 0. -1.
         -1   -1    0    0    0  501 -0.00000000000E+00 -0.00000000000E+00 -0.75625228225E+03  0.75625228225E+03  0.00000000000E+00 0.  1.
         23    2    1    2    0    0  0.33836565067E+03 -0.48316005494E+02  0.92243133536E+03  0.98808547371E+03  0.92777071325E+02 0.  0.
         13    1    3    3    0    0  0.30769630174E+03 -0.32253164997E+02  0.73461846244E+03  0.79710825244E+03  0.00000000000E+00 0.  1.
        -13    1    3    3    0    0  0.30669348934E+02 -0.16062840497E+02  0.18781287292E+03  0.19097722127E+03  0.00000000000E+00 0. -1.
         22    1    1    2    0    0 -0.33836565067E+03  0.48316005494E+02 -0.68305277794E+03  0.76379764820E+03  0.00000000000E+00 0.  1.
<mgrwt>
<rscale>  0 0.17354516E+04</rscale>
<asrwt>0</asrwt>
<pdfrwt beam="1">  1        1 0.15317397E+00 0.17354516E+04</pdfrwt>
<pdfrwt beam="2">  1       -1 0.11634651E+00 0.17354516E+04</pdfrwt>
<totfact> 0.96593842E+00</totfact>
</mgrwt>
</event>
<event>
 6    1  0.1614874E-005  0.3578774E+04  0.7818608E-02  0.8095371E-01
         -1   -1    0    0    0  501 -0.00000000000E+00  0.00000000000E+00  0.14839893387E+04  0.14839893387E+04  0.00000000000E+00 0.  1.
          1   -1    0    0  501    0  0.00000000000E+00 -0.00000000000E+00 -0.21576339831E+04  0.21576339831E+04  0.00000000000E+00 0. -1.
         23    2    1    2    0    0  0.88119855180E+03  0.12169714831E+04  0.64955279014E+03  0.16395289362E+04  0.92767597161E+02 0.  0.
         11    1    3    3    0    0  0.17804780162E+03  0.26450156305E+03  0.17806451174E+03  0.36519729854E+03  0.00000000000E+00 0.  1.
        -11    1    3    3    0    0  0.70315075018E+03  0.95246992001E+03  0.47148827840E+03  0.12743316376E+04  0.00000000000E+00 0. -1.
         22    1    1    2    0    0 -0.88119855180E+03 -0.12169714831E+04 -0.13231974346E+04  0.20020943857E+04  0.00000000000E+00 0. -1.
<mgrwt>
<rscale>  0 0.35787740E+04</rscale>
<asrwt>0</asrwt>
<pdfrwt beam="1">  1        1 0.33194369E+00 0.35787740E+04</pdfrwt>
<pdfrwt beam="2">  1       -1 0.22830605E+00 0.35787740E+04</pdfrwt>
<totfact> 0.18281538E-01</totfact>
</mgrwt>
</event>
<event>
 6    1  0.1614874E-005  0.7031336E+03  0.7818608E-02  0.9711888E-01
          2   -1    0    0  501    0  0.00000000000E+00  0.00000000000E+00  0.23954498075E+04  0.23954498075E+04  0.00000000000E+00 0. -1.
         -2   -1    0    0    0  501 -0.00000000000E+00 -0.00000000000E+00 -0.51597492355E+02  0.51597492355E+02  0.00000000000E+00 0.  1.
         23    2    1    2    0    0  0.16013494744E+02 -0.19157349202E+03  0.21916868146E+04  0.22018714968E+04  0.88261884023E+02 0.  0.
         11    1    3    3    0    0  0.47324543358E+02 -0.15957992435E+03  0.16757610014E+04  0.16840072145E+04  0.00000000000E+00 0.  1.
        -11    1    3    3    0    0 -0.31311048613E+02 -0.31993567670E+02  0.51592581317E+03  0.51786428225E+03  0.00000000000E+00 0. -1.
         22    1    1    2    0    0 -0.16013494744E+02  0.19157349202E+03  0.15216550054E+03  0.24517580307E+03  0.00000000000E+00 0.  1.
<mgrwt>
<rscale>  0 0.70313357E+03</rscale>
<asrwt>0</asrwt>
<pdfrwt beam="1">  1        2 0.36853065E+00 0.70313357E+03</pdfrwt>
<pdfrwt beam="2">  1       -2 0.79380776E-02 0.70313357E+03</pdfrwt>
<totfact> 0.41392739E+02</totfact>
</mgrwt>
</event>
<event>
 6    1  0.1614874E-005  0.2338489E+04  0.7818608E-02  0.8462898E-01
         -2   -1    0    0    0  501 -0.00000000000E+00  0.00000000000E+00  0.10139690877E+04  0.10139690877E+04  0.00000000000E+00 0.  1.
          2   -1    0    0  501    0  0.00000000000E+00 -0.00000000000E+00 -0.13482980924E+04  0.13482980924E+04  0.00000000000E+00 0. -1.
         23    2    1    2    0    0  0.50259169664E+03 -0.35613673905E+02 -0.12315483824E+04  0.13332534002E+04  0.83585068781E+02 0.  0.
         13    1    3    3    0    0  0.18724653675E+03 -0.53340490974E+02 -0.45169102971E+03  0.49186508295E+03  0.00000000000E+00 0. -1.
        -13    1    3    3    0    0  0.31534515988E+03  0.17726817069E+02 -0.77985735269E+03  0.84138831727E+03  0.00000000000E+00 0.  1.
         22    1    1    2    0    0 -0.50259169664E+03  0.35613673905E+02  0.89721937770E+03  0.10290137798E+04  0.00000000000E+00 0.  1.
<mgrwt>
<rscale>  0 0.23384889E+04</rscale>
<asrwt>0</asrwt>
<pdfrwt beam="1">  1        2 0.20743047E+00 0.23384889E+04</pdfrwt>
<pdfrwt beam="2">  1       -2 0.15599524E+00 0.23384889E+04</pdfrwt>
<totfact> 0.37796225E+00</totfact>
</mgrwt>
</event>
<event>
 6    1  0.1614874E-005  0.1891396E+04  0.7818608E-02  0.8659151E-01
          3   -1    0    0  501    0  0.00000000000E+00  0.00000000000E+00  0.62646926734E+03  0.62646926734E+03  0.00000000000E+00 0. -1.
         -3   -1    0    0    0  501 -0.00000000000E+00 -0.00000000000E+00 -0.14275959859E+04  0.14275959859E+04  0.00000000000E+00 0.  1.
         23    2    1    2    0    0  0.69804809578E+02 -0.93985204953E+03 -0.44867293396E+03  0.10478752828E+04  0.92415475592E+02 0.  0.
         11    1    3    3    0    0  0.42804011078E+02 -0.70752466358E+03 -0.29343740142E+03  0.76715633445E+03  0.00000000000E+00 0.  1.
        -11    1    3    3    0    0  0.27000798500E+02 -0.23232738595E+03 -0.15523553254E+03  0.28071894832E+03  0.00000000000E+00 0. -1.
         22    1    1    2    0    0 -0.69804809578E+02  0.93985204953E+03 -0.35245378464E+03  0.10061899705E+04  0.00000000000E+00 0. -1.
<mgrwt>
<rscale>  0 0.18913963E+04</rscale>
<asrwt>0</asrwt>
<pdfrwt beam="1">  1        3 0.96379889E-01 0.18913963E+04</pdfrwt>
<pdfrwt beam="2">  1       -3 0.21963015E+00 0.18913963E+04</pdfrwt>
<totfact> 0.25848181E-01</totfact>
</mgrwt>
</event>
<event>
 6    1  0.1614874E-005  0.2539037E+04  0.7818608E-02  0.8389209E-01
          1   -1    0    0  501    0  0.00000000000E+00  0.00000000000E+00  0.21663364038E+04  0.21663364038E+04  0.00000000000E+00 0. -1.
         -1   -1    0    0    0  501 -0.00000000000E+00 -0.00000000000E+00 -0.74396442552E+03  0.74396442552E+03  0.00000000000E+00 0.  1.
         23    2    1    2    0    0 -0.50909607504E+03  0.41961196341E+03 -0.53065805721E+03  0.84885004577E+03  0.60789909204E+02 0.  0.
         11    1    3    3    0    0 -0.16048144631E+03  0.98926204565E+02 -0.16329104304E+03  0.24940860710E+03  0.00000000000E+00 0. -1.
        -11    1    3    3    0    0 -0.34861462873E+03  0.32068575884E+03 -0.36736701417E+03  0.59944143867E+03  0.00000000000E+00 0.  1.
         22    1    1    2    0    0  0.50909607504E+03 -0.41961196341E+03  0.19530300355E+04  0.20614507836E+04  0.00000000000E+00 0. -1.
<mgrwt>
<rscale>  0 0.25390370E+04</rscale>
<asrwt>0</asrwt>
<pdfrwt beam="1">  1        1 0.33328252E+00 0.25390370E+04</pdfrwt>
<pdfrwt beam="2">  1       -1 0.11445607E+00 0.25390370E+04</pdfrwt>
<totfact> 0.14114765E+00</totfact>
</mgrwt>
</event>
<event>
 6    1  0.1614874E-005  0.3179111E+04  0.7818608E-02  0.8194356E-01
          1   -1    0    0  501    0  0.00000000000E+00  0.00000000000E+00  0.21278209050E+04  0.21278209050E+04  0.00000000000E+00 0. -1.
         -1   -1    0    0    0  501 -0.00000000000E+00 -0.00000000000E+00 -0.11874528280E+04  0.11874528280E+04  0.00000000000E+00 0.  1.
         23    2    1    2    0    0 -0.14948539985E+04  0.16306173905E+03 -0.62500309709E+02  0.15078107019E+04  0.91701780068E+02 0.  0.
         13    1    3    3    0    0 -0.23824790017E+03  0.56440032098E+02 -0.25235151559E+02  0.24613888769E+03  0.00000000000E+00 0. -1.
        -13    1    3    3    0    0 -0.12566060984E+04  0.10662170695E+03 -0.37265158150E+02  0.12616718142E+04  0.00000000000E+00 0.  1.
         22    1    1    2    0    0  0.14948539985E+04 -0.16306173905E+03  0.10028683867E+04  0.18074630311E+04  0.00000000000E+00 0. -1.
<mgrwt>
<rscale>  0 0.31791112E+04</rscale>
<asrwt>0</asrwt>
<pdfrwt beam="1">  1        1 0.32735706E+00 0.31791112E+04</pdfrwt>
<pdfrwt beam="2">  1       -1 0.18268505E+00 0.31791112E+04</pdfrwt>
<totfact> 0.40710452E-01</totfact>
</mgrwt>
</event>
<event>
 6    1  0.1614874E-005  0.2397457E+04  0.7818608E-02  0.8440456E-01
         -2   -1    0    0    0  501 -0.00000000000E+00  0.00000000000E+00  0.96056818209E+03  0.96056818209E+03  0.00000000000E+00 0.  1.
          2   -1    0    0  501    0  0.00000000000E+00 -0.00000000000E+00 -0.14959377391E+04  0.14959377391E+04  0.00000000000E+00 0. -1.
         23    2    1    2    0    0  0.54433805186E+03  0.34420305632E+03 -0.13019258951E+04  0.14553124943E+04  0.90242790541E+02 0.  0.
         13    1    3    3    0    0  0.41791493938E+03  0.23836760400E+03 -0.89211288112E+03  0.10135765407E+04  0.00000000000E+00 0.  1.
        -13    1    3    3    0    0  0.12642311247E+03  0.10583545232E+03 -0.40981301393E+03  0.44173595362E+03  0.00000000000E+00 0. -1.
         22    1    1    2    0    0 -0.54433805186E+03 -0.34420305632E+03  0.76655633803E+03  0.10011934269E+04  0.00000000000E+00 0.  1.
<mgrwt>
<rscale>  0 0.23974571E+04</rscale>
<asrwt>0</asrwt>
<pdfrwt beam="1">  1        2 0.23014427E+00 0.23974571E+04</pdfrwt>
<pdfrwt beam="2">  1       -2 0.14777972E+00 0.23974571E+04</pdfrwt>
<totfact> 0.35780146E+00</totfact>
</mgrwt>
</event>
<event>
 6    1  0.1614874E-005  0.3122144E+04  0.7818608E-02  0.8209687E-01
         -1   -1    0    0    0  501 -0.00000000000E+00  0.00000000000E+00  0.41708014846E+04  0.41708014846E+04  0.00000000000E+00 0.  1.
          1   -1    0    0  501    0  0.00000000000E+00 -0.00000000000E+00 -0.58428727933E+03  0.58428727933E+03  0.00000000000E+00 0. -1.
         23    2    1    2    0    0  0.43099019957E+03  0.13834892748E+04  0.26737319026E+04  0.30424981363E+04  0.90318863683E+02 0.  0.
         13    1    3    3    0    0  0.23620502392E+03  0.76955216376E+03  0.13909397037E+04  0.16070832602E+04  0.00000000000E+00 0.  1.
        -13    1    3    3    0    0  0.19478517565E+03  0.61393711105E+03  0.12827921989E+04  0.14354148761E+04  0.00000000000E+00 0. -1.
         22    1    1    2    0    0 -0.43099019957E+03 -0.13834892748E+04  0.91278230270E+03  0.17125906276E+04  0.00000000000E+00 0. -1.
<mgrwt>
<rscale>  0 0.31221443E+04</rscale>
<asrwt>0</asrwt>
<pdfrwt beam="1">  1        1 0.89890353E-01 0.31221443E+04</pdfrwt>
<pdfrwt beam="2">  1       -1 0.64166175E+00 0.31221443E+04</pdfrwt>
<totfact> 0.92525774E-03</totfact>
</mgrwt>
</event>
<event>
 6    1  0.1614874E-005  0.3476420E+04  0.7818608E-02  0.8119401E-01
          2   -1    0    0  501    0  0.00000000000E+00  0.00000000000E+00  0.42320894004E+04  0.42320894004E+04  0.00000000000E+00 0. -1.
         -2   -1    0    0    0  501 -0.00000000000E+00 -0.00000000000E+00 -0.71392015179E+03  0.71392015179E+03  0.00000000000E+00 0.  1.
         23    2    1    2    0    0 -0.14615581376E+04  0.26813240089E+03  0.30395329712E+04  0.33848753940E+04  0.10282789525E+03 0.  0.
         13    1    3    3    0    0 -0.37927084654E+03  0.11432433929E+03  0.78326312321E+03  0.87773432755E+03  0.00000000000E+00 0. -1.
        -13    1    3    3    0    0 -0.10822872910E+04  0.15380806159E+03  0.22562698480E+04  0.25071410665E+04  0.00000000000E+00 0.  1.
         22    1    1    2    0    0  0.14615581376E+04 -0.26813240089E+03  0.47863627746E+03  0.15611341582E+04  0.00000000000E+00 0.  1.
<mgrwt>
<rscale>  0 0.34764199E+04</rscale>
<asrwt>0</asrwt>
<pdfrwt beam="1">  1        2 0.65109066E+00 0.34764199E+04</pdfrwt>
<pdfrwt beam="2">  1       -2 0.10983387E+00 0.34764199E+04</pdfrwt>
<totfact> 0.11794854E-01</totfact>
</mgrwt>
</event>
<event>
 6    1  0.1614874E-005  0.2685030E+04  0.7818608E-02  0.8339879E-01
          1   -1    0    0  501    0  0.00000000000E+00  0.00000000000E+00  0.14939982337E+04  0.14939982337E+04  0.00000000000E+00 0. -1.
         -1   -1    0    0    0  501 -0.00000000000E+00 -0.00000000000E+00 -0.12063910370E+04  0.12063910370E+04  0.00000000000E+00 0.  1.
         23    2    1    2    0    0 -0.97652934356E+03 -0.80909119050E+03 -0.29460638253E+03  0.13049643300E+04  0.88886829618E+02 0.  0.
         11    1    3    3    0    0 -0.33980655439E+02 -0.50514728968E+02 -0.63652006058E+01  0.61212241958E+02  0.00000000000E+00 0. -1.
        -11    1    3    3    0    0 -0.94254868812E+03 -0.75857646154E+03 -0.28824118192E+03  0.12437520880E+04  0.00000000000E+00 0.  1.
         22    1    1    2    0    0  0.97652934356E+03  0.80909119050E+03  0.58221357916E+03  0.13954249407E+04  0.00000000000E+00 0. -1.
<mgrwt>
<rscale>  0 0.26850297E+04</rscale>
<asrwt>0</asrwt>
<pdfrwt beam="1">  1        1 0.22984588E+00 0.26850297E+04</pdfrwt>
<pdfrwt beam="2">  1       -1 0.18559862E+00 0.26850297E+04</pdfrwt>
<totfact> 0.10960595E+00</totfact>
</mgrwt>
</event>
<event>
 6    1  0.1614874E-005  0.7990325E+03  0.7818608E-02  0.9561419E-01
          2   -1    0    0  501    0  0.00000000000E+00  0.00000000000E+00  0.19040512000E+03  0.19040512000E+03  0.00000000000E+00 0. -1.
         -2   -1    0    0    0  501 -0.00000000000E+00 -0.00000000000E+00 -0.83828228149E+03  0.83828228149E+03  0.00000000000E+00 0.  1.
         23    2    1    2    0    0  0.33159880254E+03 -0.73364375615E+02 -0.58430344037E+03  0.68317080931E+03  0.99858634147E+02 0.  0.
         13    1    3    3    0    0  0.89090759779E+02 -0.64785299235E+01 -0.81370922418E+02  0.12083195704E+03  0.00000000000E+00 0. -1.
        -13    1    3    3    0    0  0.24250804276E+03 -0.66885845692E+02 -0.50293251795E+03  0.56233885227E+03  0.00000000000E+00 0.  1.
         22    1    1    2    0    0 -0.33159880254E+03  0.73364375615E+02 -0.63573721125E+02  0.34551659218E+03  0.00000000000E+00 0. -1.
<mgrwt>
<rscale>  0 0.79903251E+03</rscale>
<asrwt>0</asrwt>
<pdfrwt beam="1">  1        2 0.29293095E-01 0.79903251E+03</pdfrwt>
<pdfrwt beam="2">  1       -2 0.12896651E+00 0.79903251E+03</pdfrwt>
<totfact> 0.81640526E+01</totfact>
</mgrwt>
</event>
<event>
 6    1  0.1614874E-005  0.1052544E+04  0.7818608E-02  0.9252721E-01
          1   -1    0    0  501    0  0.00000000000E+00  0.00000000000E+00  0.48439903058E+03  0.48439903058E+03  0.00000000000E+00 0. -1.
         -1   -1    0    0    0  501 -0.00000000000E+00 -0.00000000000E+00 -0.57176466107E+03  0.57176466107E+03  0.00000000000E+00 0.  1.
         23    2    1    2    0    0  0.33761633035E+03 -0.90141302828E+02  0.34538168965E+03  0.49994387531E+03  0.92439850253E+02 0.  0.
         11    1    3    3    0    0  0.22044851206E+03 -0.36553331300E+02  0.27072750323E+03  0.35103713978E+03  0.00000000000E+00 0. -1.
        -11    1    3    3    0    0  0.11716781830E+03 -0.53587971528E+02  0.74654186426E+02  0.14890673553E+03  0.00000000000E+00 0.  1.
         22    1    1    2    0    0 -0.33761633035E+03  0.90141302828E+02 -0.43274732014E+03  0.55621981634E+03  0.00000000000E+00 0.  1.
<mgrwt>
<rscale>  0 0.10525441E+04</rscale>
<asrwt>0</asrwt>
<pdfrwt beam="1">  1        1 0.74522928E-01 0.10525441E+04</pdfrwt>
<pdfrwt beam="2">  1       -1 0.87963794E-01 0.10525441E+04</pdfrwt>
<totfact> 0.58828724E+01</totfact>
</mgrwt>
</event>
<event>
 6    1  0.1614874E-005  0.9433752E+03  0.7818608E-02  0.9372928E-01
         -2   -1    0    0    0  501 -0.00000000000E+00  0.00000000000E+00  0.10249161991E+03  0.10249161991E+03  0.00000000000E+00 0.  1.
          2   -1    0    0  501    0  0.00000000000E+00 -0.00000000000E+00 -0.21708038771E+04  0.21708038771E+04  0.00000000000E+00 0. -1.
         23    2    1    2    0    0 -0.20289592007E+03  0.27465123105E+03 -0.18126428488E+04  0.18467197130E+04  0.89997488943E+02 0.  0.
         11    1    3    3    0    0 -0.18399486063E+03  0.23388792119E+03 -0.13783467636E+04  0.14101054815E+04  0.00000000000E+00 0. -1.
        -11    1    3    3    0    0 -0.18901059443E+02  0.40763309855E+02 -0.43429608523E+03  0.43661423147E+03  0.00000000000E+00 0.  1.
         22    1    1    2    0    0  0.20289592007E+03 -0.27465123105E+03 -0.25566940833E+03  0.42657578395E+03  0.00000000000E+00 0.  1.
<mgrwt>
<rscale>  0 0.94337523E+03</rscale>
<asrwt>0</asrwt>
<pdfrwt beam="1">  1        2 0.33396980E+00 0.94337523E+03</pdfrwt>
<pdfrwt beam="2">  1       -2 0.15767943E-01 0.94337523E+03</pdfrwt>
<totfact> 0.17459166E+02</totfact>
</mgrwt>
</event>
<event>
 6    1  0.1614874E-005  0.2907748E+04  0.7818608E-02  0.8270576E-01
          1   -1    0    0  501    0  0.00000000000E+00  0.00000000000E+00  0.28643532667E+04  0.28643532667E+04  0.00000000000E+00 0. -1.
         -1   -1    0    0    0  501 -0.00000000000E+00 -0.00000000000E+00 -0.73795019715E+03  0.73795019715E+03  0.00000000000E+00 0.  1.
         23    2    1    2    0    0 -0.12469732584E+04 -0.44498470291E+03  0.18040539740E+04  0.22396359944E+04  0.91678532472E+02 0.  0.
         13    1    3    3    0    0 -0.88662918605E+03 -0.28260093844E+03  0.12194364974E+04  0.15339491436E+04  0.00000000000E+00 0. -1.
        -13    1    3    3    0    0 -0.36034407231E+03 -0.16238376448E+03  0.58461747659E+03  0.70568685077E+03  0.00000000000E+00 0.  1.
         22    1    1    2    0    0  0.12469732584E+04  0.44498470291E+03  0.32234909552E+03  0.13626674694E+04  0.00000000000E+00 0. -1.
<mgrwt>
<rscale>  0 0.29077483E+04</rscale>
<asrwt>0</asrwt>
<pdfrwt beam="1">  1        1 0.44066973E+00 0.29077483E+04</pdfrwt>
<pdfrwt beam="2">  1       -1 0.11353080E+00 0.29077483E+04</pdfrwt>
<totfact> 0.45482006E-01</totfact>
</mgrwt>
</event>
<event>
 6    1  0.1614874E-005  0.1489934E+04  0.7818608E-02  0.8891174E-01
          1   -1    0    0  501    0  0.00000000000E+00  0.00000000000E+00  0.11756746706E+04  0.11756746706E+04  0.00000000000E+00 0. -1.
         -1   -1    0    0    0  501 -0.00000000000E+00 -0.00000000000E+00 -0.47204884635E+03  0.47204884635E+03  0.00000000000E+00 0.  1.
         23    2    1    2    0    0 -0.60236906514E+03  0.41561742880E+03  0.48937458817E+03  0.88516864686E+03  0.91922293710E+02 0.  0.
         11    1    3    3    0    0 -0.40184614859E+03  0.31779963742E+03  0.30926123320E+03  0.59843082060E+03  0.00000000000E+00 0.  1.
        -11    1    3    3    0    0 -0.20052291655E+03  0.97817791382E+02  0.18011335498E+03  0.28673782627E+03  0.00000000000E+00 0. -1.
         22    1    1    2    0    0  0.60236906514E+03 -0.41561742880E+03  0.21425123612E+03  0.76255487012E+03  0.00000000000E+00 0. -1.
<mgrwt>
<rscale>  0 0.14899341E+04</rscale>
<asrwt>0</asrwt>
<pdfrwt beam="1">  1        1 0.18087302E+00 0.14899341E+04</pdfrwt>
<pdfrwt beam="2">  1       -1 0.72622900E-01 0.14899341E+04</pdfrwt>
<totfact> 0.20614209E+01</totfact>
</mgrwt>
</event>
<event>
 6    1  0.1614874E-005  0.3480964E+04  0.7818608E-02  0.8118316E-01
         -2   -1    0    0    0  501 -0.00000000000E+00  0.00000000000E+00  0.18179690477E+04  0.18179690477E+04  0.00000000000E+00 0.  1.
          2   -1    0    0  501    0  0.00000000000E+00 -0.00000000000E+00 -0.16662978427E+04  0.16662978427E+04  0.00000000000E+00 0. -1.
         23    2    1    2    0    0 -0.64750708224E+03 -0.40403988999E+03  0.16402705139E+04  0.18114125761E+04  0.90633923015E+02 0.  0.
         11    1    3    3    0    0 -0.55607181493E+03 -0.33012403521E+03  0.14511869758E+04  0.15887546634E+04  0.00000000000E+00 0. -1.
        -11    1    3    3    0    0 -0.91435267310E+02 -0.73915854779E+02  0.18908353812E+03  0.22265791269E+03  0.00000000000E+00 0.  1.
         22    1    1    2    0    0  0.64750708224E+03  0.40403988999E+03 -0.14885993089E+04  0.16728543142E+04  0.00000000000E+00 0. -1.
<mgrwt>
<rscale>  0 0.34809642E+04</rscale>
<asrwt>0</asrwt>
<pdfrwt beam="1">  1        2 0.25635351E+00 0.34809642E+04</pdfrwt>
<pdfrwt beam="2">  1       -2 0.27968755E+00 0.34809642E+04</pdfrwt>
<totfact> 0.35646135E-01</totfact>
</mgrwt>
</event>
<event>
 6    1  0.1614874E-005  0.3792584E+04  0.7818608E-02  0.8047748E-01
         -2   -1    0    0    0  501 -0.00000000000E+00  0.00000000000E+00  0.29024534213E+04  0.29024534213E+04  0.00000000000E+00 0.  1.
          2   -1    0    0  501    0  0.00000000000E+00 -0.00000000000E+00 -0.12389251173E+04  0.12389251173E+04  0.00000000000E+00 0. -1.
         23    2    1    2    0    0  0.10009835610E+03 -0.28252638755E+03  0.28756763392E+04  0.28927217805E+04  0.92108907898E+02 0.  0.
         11    1    3    3    0    0  0.52734285343E+02 -0.16290129395E+03  0.12058037349E+04  0.12178999891E+04  0.00000000000E+00 0.  1.
        -11    1    3    3    0    0  0.47364070760E+02 -0.11962509360E+03  0.16698726043E+04  0.16748217914E+04  0.00000000000E+00 0. -1.
         22    1    1    2    0    0 -0.10009835610E+03  0.28252638755E+03 -0.12121480352E+04  0.12486567582E+04  0.00000000000E+00 0. -1.
<mgrwt>
<rscale>  0 0.37925835E+04</rscale>
<asrwt>0</asrwt>
<pdfrwt beam="1">  1        2 0.19060386E+00 0.37925835E+04</pdfrwt>
<pdfrwt beam="2">  1       -2 0.44653129E+00 0.37925835E+04</pdfrwt>
<totfact> 0.52687062E-02</totfact>
</mgrwt>
</event>
<event>
 6    1  0.1614874E-005  0.1040054E+04  0.7818608E-02  0.9265673E-01
          2   -1    0    0  501    0  0.00000000000E+00  0.00000000000E+00  0.21466785908E+04  0.21466785908E+04  0.00000000000E+00 0.  1.
         -2   -1    0    0    0  501 -0.00000000000E+00 -0.00000000000E+00 -0.12597509940E+03  0.12597509940E+03  0.00000000000E+00 0. -1.
         23    2    1    2    0    0 -0.16056627599E+03  0.47105177782E+03  0.71975230981E+03  0.87976270982E+03  0.90927068204E+02 0.  0.
         11    1    3    3    0    0 -0.12539857630E+03  0.23249768039E+03  0.35461436469E+03  0.44218923774E+03  0.00000000000E+00 0. -1.
        -11    1    3    3    0    0 -0.35167699695E+02  0.23855409743E+03  0.36513794512E+03  0.43757347208E+03  0.00000000000E+00 0.  1.
         22    1    1    2    0    0  0.16056627599E+03 -0.47105177782E+03  0.13009511816E+04  0.13928909804E+04  0.00000000000E+00 0.  1.
<mgrwt>
<rscale>  0 0.10400539E+04</rscale>
<asrwt>0</asrwt>
<pdfrwt beam="1">  1        2 0.33025822E+00 0.10400539E+04</pdfrwt>
<pdfrwt beam="2">  1       -2 0.19380786E-01 0.10400539E+04</pdfrwt>
<totfact> 0.12510897E+02</totfact>
</mgrwt>
</event>
<event>
 6    1  0.1614874E-005  0.2754777E+04  0.7818608E-02  0.8317447E-01
         -1   -1    0    0    0  501 -0.00000000000E+00  0.00000000000E+00  0.20216239848E+04  0.20216239848E+04  0.00000000000E+00 0.  1.
          1   -1    0    0  501    0  0.00000000000E+00 -0.00000000000E+00 -0.93845286045E+03  0.93845286045E+03  0.00000000000E+00 0. -1.
         23    2    1    2    0    0  0.81310591786E+03  0.10271072622E+03 -0.64532540562E+03  0.10471233746E+04  0.91278450259E+02 0.  0.
         11    1    3    3    0    0  0.68612157767E+03  0.79808522653E+02 -0.49962717026E+03  0.85250192311E+03  0.00000000000E+00 0. -1.
        -11    1    3    3    0    0  0.12698434018E+03  0.22902203571E+02 -0.14569823536E+03  0.19462145145E+03  0.00000000000E+00 0.  1.
         22    1    1    2    0    0 -0.81310591786E+03 -0.10271072622E+03  0.17284965300E+04  0.19129534707E+04  0.00000000000E+00 0.  1.
<mgrwt>
<rscale>  0 0.27547768E+04</rscale>
<asrwt>0</asrwt>
<pdfrwt beam="1">  1        1 0.14437736E+00 0.27547768E+04</pdfrwt>
<pdfrwt beam="2">  1       -1 0.31101907E+00 0.27547768E+04</pdfrwt>
<totfact> 0.41210218E-01</totfact>
</mgrwt>
</event>
<event>
 6    1  0.1614874E-005  0.1476071E+04  0.7818608E-02  0.8900523E-01
         -2   -1    0    0    0  501 -0.00000000000E+00  0.00000000000E+00  0.33200953132E+03  0.33200953132E+03  0.00000000000E+00 0.  1.
          2   -1    0    0  501    0  0.00000000000E+00 -0.00000000000E+00 -0.16406043048E+04  0.16406043048E+04  0.00000000000E+00 0. -1.
         23    2    1    2    0    0 -0.14096849153E+03  0.32752531275E+03  0.20244431365E+03  0.42007267115E+03  0.91281996150E+02 0.  0.
         11    1    3    3    0    0 -0.80755052380E+02  0.81365337186E+02  0.61144778006E+02  0.12992451831E+03  0.00000000000E+00 0. -1.
        -11    1    3    3    0    0 -0.60213439153E+02  0.24615997557E+03  0.14129953564E+03  0.29014815285E+03  0.00000000000E+00 0.  1.
         22    1    1    2    0    0  0.14096849153E+03 -0.32752531275E+03 -0.15110390871E+04  0.15525411650E+04  0.00000000000E+00 0. -1.
<mgrwt>
<rscale>  0 0.14760708E+04</rscale>
<asrwt>0</asrwt>
<pdfrwt beam="1">  1        2 0.25240067E+00 0.14760708E+04</pdfrwt>
<pdfrwt beam="2">  1       -2 0.51078389E-01 0.14760708E+04</pdfrwt>
<totfact> 0.37103936E+01</totfact>
</mgrwt>
</event>
<event>
 6    1  0.1614874E-005  0.3842323E+04  0.7818608E-02  0.8037133E-01
          2   -1    0    0  501    0  0.00000000000E+00  0.00000000000E+00  0.28006922981E+04  0.28006922981E+04  0.00000000000E+00 0. -1.
         -2   -1    0    0    0  501 -0.00000000000E+00 -0.00000000000E+00 -0.13178391748E+04  0.13178391748E+04  0.00000000000E+00 0.  1.
         23    2    1    2    0    0 -0.66465258426E+02 -0.18721905195E+04  0.11926250666E+04  0.22228133249E+04  0.95023974224E+02 0.  0.
         13    1    3    3    0    0 -0.79117280159E+02 -0.12222738916E+04  0.74605977870E+03  0.14341611498E+04  0.00000000000E+00 0. -1.
        -13    1    3    3    0    0  0.12652021733E+02 -0.64991662793E+03  0.44656528792E+03  0.78865217510E+03  0.00000000000E+00 0.  1.
         22    1    1    2    0    0  0.66465258426E+02  0.18721905195E+04  0.29022805666E+03  0.18957181481E+04  0.00000000000E+00 0.  1.
<mgrwt>
<rscale>  0 0.38423233E+04</rscale>
<asrwt>0</asrwt>
<pdfrwt beam="1">  1        2 0.43087574E+00 0.38423233E+04</pdfrwt>
<pdfrwt beam="2">  1       -2 0.20274449E+00 0.38423233E+04</pdfrwt>
<totfact> 0.23547460E-01</totfact>
</mgrwt>
</event>
<event>
 6    1  0.1614874E-005  0.5698910E+04  0.7818608E-02  0.7728897E-01
         -1   -1    0    0    0  501 -0.00000000000E+00  0.00000000000E+00  0.31179620823E+04  0.31179620823E+04  0.00000000000E+00 0.  1.
          1   -1    0    0  501    0  0.00000000000E+00 -0.00000000000E+00 -0.26040708500E+04  0.26040708500E+04  0.00000000000E+00 0. -1.
         23    2    1    2    0    0  0.16900734469E+04  0.14505444515E+04 -0.15263484869E+04  0.27016015767E+04  0.92108163892E+02 0.  0.
         13    1    3    3    0    0  0.12181485936E+04  0.10665047633E+04 -0.10630769570E+04  0.19368662893E+04  0.00000000000E+00 0.  1.
        -13    1    3    3    0    0  0.47192485331E+03  0.38403968822E+03 -0.46327152991E+03  0.76473528736E+03  0.00000000000E+00 0. -1.
         22    1    1    2    0    0 -0.16900734469E+04 -0.14505444515E+04  0.20402397192E+04  0.30204313555E+04  0.00000000000E+00 0.  1.
<mgrwt>
<rscale>  0 0.56989101E+04</rscale>
<asrwt>0</asrwt>
<pdfrwt beam="1">  1        1 0.40062629E+00 0.56989101E+04</pdfrwt>
<pdfrwt beam="2">  1       -1 0.47968647E+00 0.56989101E+04</pdfrwt>
<totfact> 0.16005342E-03</totfact>
</mgrwt>
</event>
<event>
 6    1  0.1614874E-005  0.3665635E+04  0.7818608E-02  0.8075621E-01
         -1   -1    0    0    0  501 -0.00000000000E+00  0.00000000000E+00  0.17752150941E+04  0.17752150941E+04  0.00000000000E+00 0.  1.
          1   -1    0    0  501    0  0.00000000000E+00 -0.00000000000E+00 -0.18922887388E+04  0.18922887388E+04  0.00000000000E+00 0. -1.
         23    2    1    2    0    0 -0.15862522135E+04  0.91556095687E+03 -0.35933706499E+02  0.18341921736E+04  0.92313314438E+02 0.  0.
         13    1    3    3    0    0 -0.56149883144E+03  0.29385400881E+03  0.22817610071E+02  0.63415436570E+03  0.00000000000E+00 0.  1.
        -13    1    3    3    0    0 -0.10247533820E+04  0.62170694806E+03 -0.58751316570E+02  0.12000378079E+04  0.00000000000E+00 0. -1.
         22    1    1    2    0    0  0.15862522135E+04 -0.91556095687E+03 -0.81139938150E+02  0.18333116593E+04  0.00000000000E+00 0.  1.
<mgrwt>
<rscale>  0 0.36656348E+04</rscale>
<asrwt>0</asrwt>
<pdfrwt beam="1">  1        1 0.29112135E+00 0.36656348E+04</pdfrwt>
<pdfrwt beam="2">  1       -1 0.27311001E+00 0.36656348E+04</pdfrwt>
<totfact> 0.13995698E-01</totfact>
</mgrwt>
</event>
<event>
 6    1  0.1614874E-005  0.2692571E+04  0.7818608E-02  0.8337420E-01
         -2   -1    0    0    0  501 -0.00000000000E+00  0.00000000000E+00  0.94085520211E+03  0.94085520211E+03  0.00000000000E+00 0.  1.
          2   -1    0    0  501    0  0.00000000000E+00 -0.00000000000E+00 -0.19264218381E+04  0.19264218381E+04  0.00000000000E+00 0. -1.
         23    2    1    2    0    0  0.19043644397E+03 -0.33916551837E+03 -0.18641240719E+04  0.19064636055E+04  0.91354449581E+02 0.  0.
         13    1    3    3    0    0  0.53607642466E+02 -0.16990182254E+03 -0.71121730999E+03  0.73319197395E+03  0.00000000000E+00 0. -1.
        -13    1    3    3    0    0  0.13682880150E+03 -0.16926369582E+03 -0.11529067619E+04  0.11732716315E+04  0.00000000000E+00 0.  1.
         22    1    1    2    0    0 -0.19043644397E+03  0.33916551837E+03  0.87855743595E+03  0.96081343470E+03  0.00000000000E+00 0.  1.
<mgrwt>
<rscale>  0 0.26925705E+04</rscale>
<asrwt>0</asrwt>
<pdfrwt beam="1">  1        2 0.29637259E+00 0.26925705E+04</pdfrwt>
<pdfrwt beam="2">  1       -2 0.14474695E+00 0.26925705E+04</pdfrwt>
<totfact> 0.21215587E+00</totfact>
</mgrwt>
</event>
<event>
 6    1  0.1614874E-005  0.1511550E+04  0.7818608E-02  0.8876808E-01
          1   -1    0    0  501    0  0.00000000000E+00  0.00000000000E+00  0.67645000979E+03  0.67645000979E+03  0.00000000000E+00 0. -1.
         -1   -1    0    0    0  501 -0.00000000000E+00 -0.00000000000E+00 -0.84440239053E+03  0.84440239053E+03  0.00000000000E+00 0.  1.
         23    2    1    2    0    0 -0.50117680144E+02 -0.22820648696E+03  0.63595434513E+03  0.68368096838E+03  0.91606522084E+02 0.  0.
         13    1    3    3    0    0 -0.57805243819E+02 -0.62735490840E+02  0.21836711956E+03  0.23443845019E+03  0.00000000000E+00 0.  1.
        -13    1    3    3    0    0  0.76875636749E+01 -0.16547099612E+03  0.41758722557E+03  0.44924251819E+03  0.00000000000E+00 0. -1.
         22    1    1    2    0    0  0.50117680144E+02  0.22820648696E+03 -0.80390672587E+03  0.83717143194E+03  0.00000000000E+00 0.  1.
<mgrwt>
<rscale>  0 0.15115502E+04</rscale>
<asrwt>0</asrwt>
<pdfrwt beam="1">  1        1 0.10406923E+00 0.15115502E+04</pdfrwt>
<pdfrwt beam="2">  1       -1 0.12990806E+00 0.15115502E+04</pdfrwt>
<totfact> 0.14092029E+01</totfact>
</mgrwt>
</event>
<event>
 6    1  0.1614874E-005  0.1875110E+04  0.7818608E-02  0.8667346E-01
         -2   -1    0    0    0  501 -0.00000000000E+00  0.00000000000E+00  0.52746832734E+03  0.52746832734E+03  0.00000000000E+00 0. -1.
          2   -1    0    0  501    0  0.00000000000E+00 -0.00000000000E+00 -0.16664677883E+04  0.16664677883E+04  0.00000000000E+00 0.  1.
         23    2    1    2    0    0  0.22971843410E+02 -0.92348206088E+03 -0.74305427628E+03  0.11888891458E+04  0.89336000996E+02 0.  0.
         13    1    3    3    0    0 -0.23760583193E+02 -0.41759408533E+03 -0.29917526095E+03  0.51425209982E+03  0.00000000000E+00 0. -1.
        -13    1    3    3    0    0  0.46732426603E+02 -0.50588797555E+03 -0.44387901533E+03  0.67463704594E+03  0.00000000000E+00 0.  1.
         22    1    1    2    0    0 -0.22971843410E+02  0.92348206088E+03 -0.39594518467E+03  0.10050469699E+04  0.00000000000E+00 0. -1.
<mgrwt>
<rscale>  0 0.18751096E+04</rscale>
<asrwt>0</asrwt>
<pdfrwt beam="1">  1        2 0.25637966E+00 0.18751096E+04</pdfrwt>
<pdfrwt beam="2">  1       -2 0.81148974E-01 0.18751096E+04</pdfrwt>
<totfact> 0.12859679E+01</totfact>
</mgrwt>
</event>
<event>
 6    1  0.1614874E-005  0.1652687E+04  0.7818608E-02  0.8788819E-01
         -3   -1    0    0    0  501 -0.00000000000E+00  0.00000000000E+00  0.86099678792E+03  0.86099678792E+03  0.00000000000E+00 0.  1.
          3   -1    0    0  501    0  0.00000000000E+00 -0.00000000000E+00 -0.79308470301E+03  0.79308470301E+03  0.00000000000E+00 0. -1.
         23    2    1    2    0    0 -0.15837628464E+03 -0.76515115923E+03 -0.22688634536E+03  0.81894949029E+03  0.93067233314E+02 0.  0.
         11    1    3    3    0    0 -0.16308070945E+03 -0.70178030301E+03 -0.18857705486E+03  0.74474976812E+03  0.00000000000E+00 0. -1.
        -11    1    3    3    0    0  0.47044248149E+01 -0.63370856221E+02 -0.38309290505E+02  0.74199722169E+02  0.00000000000E+00 0.  1.
         22    1    1    2    0    0  0.15837628464E+03  0.76515115923E+03  0.29479843027E+03  0.83513200065E+03  0.00000000000E+00 0.  1.
<mgrwt>
<rscale>  0 0.16526868E+04</rscale>
<asrwt>0</asrwt>
<pdfrwt beam="1">  1        3 0.12201303E+00 0.16526868E+04</pdfrwt>
<pdfrwt beam="2">  1       -3 0.13246104E+00 0.16526868E+04</pdfrwt>
<totfact> 0.60216739E-01</totfact>
</mgrwt>
</event>
<event>
 6    1  0.1614874E-005  0.7938166E+03  0.7818608E-02  0.9569011E-01
         -2   -1    0    0    0  501 -0.00000000000E+00  0.00000000000E+00  0.45816316560E+03  0.45816316560E+03  0.00000000000E+00 0.  1.
          2   -1    0    0  501    0  0.00000000000E+00 -0.00000000000E+00 -0.34384301520E+03  0.34384301520E+03  0.00000000000E+00 0. -1.
         23    2    1    2    0    0 -0.26488972849E+03  0.11344475991E+01 -0.23392444629E+03  0.36446514917E+03  0.89142263578E+02 0.  0.
         13    1    3    3    0    0 -0.24727083065E+03  0.34781717482E+01 -0.17508886441E+03  0.30300341881E+03  0.00000000000E+00 0. -1.
        -13    1    3    3    0    0 -0.17618897839E+02 -0.23437241492E+01 -0.58835581875E+02  0.61461730357E+02  0.00000000000E+00 0.  1.
         22    1    1    2    0    0  0.26488972849E+03 -0.11344475991E+01  0.34824459669E+03  0.43754103163E+03  0.00000000000E+00 0.  1.
<mgrwt>
<rscale>  0 0.79381661E+03</rscale>
<asrwt>0</asrwt>
<pdfrwt beam="1">  1        2 0.52898926E-01 0.79381661E+03</pdfrwt>
<pdfrwt beam="2">  1       -2 0.70486641E-01 0.79381661E+03</pdfrwt>
<totfact> 0.17396339E+02</totfact>
</mgrwt>
</event>
<event>
 6    1  0.1614874E-005  0.1792190E+04  0.7818608E-02  0.8710464E-01
          1   -1    0    0  501    0  0.00000000000E+00  0.00000000000E+00  0.12249895351E+04  0.12249895351E+04  0.00000000000E+00 0. -1.
         -1   -1    0    0    0  501 -0.00000000000E+00 -0.00000000000E+00 -0.65550430348E+03  0.65550430348E+03  0.00000000000E+00 0.  1.
         23    2    1    2    0    0  0.43694541194E+03  0.15545469782E+03  0.10867335110E+04  0.11857757385E+04  0.99934588751E+02 0.  0.
         13    1    3    3    0    0  0.21947648327E+03  0.12700089754E+03  0.53509613705E+03  0.59213767873E+03  0.00000000000E+00 0.  1.
        -13    1    3    3    0    0  0.21746892867E+03  0.28453800281E+02  0.55163737396E+03  0.59363805979E+03  0.00000000000E+00 0. -1.
         22    1    1    2    0    0 -0.43694541194E+03 -0.15545469782E+03 -0.51724827936E+03  0.69471810009E+03  0.00000000000E+00 0.  1.
<mgrwt>
<rscale>  0 0.17921896E+04</rscale>
<asrwt>0</asrwt>
<pdfrwt beam="1">  1        1 0.18845993E+00 0.17921896E+04</pdfrwt>
<pdfrwt beam="2">  1       -1 0.10084682E+00 0.17921896E+04</pdfrwt>
<totfact> 0.90451217E+00</totfact>
</mgrwt>
</event>
<event>
 6    1  0.1614874E-005  0.4190614E+04  0.7818608E-02  0.7967160E-01
          2   -1    0    0  501    0  0.00000000000E+00  0.00000000000E+00  0.39264237052E+04  0.39264237052E+04  0.00000000000E+00 0. -1.
         -2   -1    0    0    0  501 -0.00000000000E+00 -0.00000000000E+00 -0.11181452388E+04  0.11181452388E+04  0.00000000000E+00 0.  1.
         23    2    1    2    0    0 -0.11802024292E+04 -0.15761233054E+04  0.54586400600E+03  0.20453087622E+04  0.90983360703E+02 0.  0.
         13    1    3    3    0    0 -0.28466472735E+03 -0.38039160794E+03  0.91604931227E+02  0.48386283780E+03  0.00000000000E+00 0.  1.
        -13    1    3    3    0    0 -0.89553770181E+03 -0.11957316975E+04  0.45425907477E+03  0.15614459244E+04  0.00000000000E+00 0. -1.
         22    1    1    2    0    0  0.11802024292E+04  0.15761233054E+04  0.22624144604E+04  0.29992601818E+04  0.00000000000E+00 0. -1.
<mgrwt>
<rscale>  0 0.41906143E+04</rscale>
<asrwt>0</asrwt>
<pdfrwt beam="1">  1        2 0.60406518E+00 0.41906143E+04</pdfrwt>
<pdfrwt beam="2">  1       -2 0.17202235E+00 0.41906143E+04</pdfrwt>
<totfact> 0.62546577E-02</totfact>
</mgrwt>
</event>
<event>
 6    1  0.1614874E-005  0.3611734E+04  0.7818608E-02  0.8087809E-01
         -2   -1    0    0    0  501 -0.00000000000E+00  0.00000000000E+00  0.18601323801E+04  0.18601323801E+04  0.00000000000E+00 0.  1.
          2   -1    0    0  501    0  0.00000000000E+00 -0.00000000000E+00 -0.17531847607E+04  0.17531847607E+04  0.00000000000E+00 0. -1.
         23    2    1    2    0    0 -0.66221112682E+03 -0.77967914810E+03 -0.14332617528E+04  0.17643530902E+04  0.11081256432E+03 0.  0.
         13    1    3    3    0    0 -0.19837028890E+03 -0.25753514439E+03 -0.37355393085E+03  0.49519456920E+03  0.00000000000E+00 0.  1.
        -13    1    3    3    0    0 -0.46384083792E+03 -0.52214400371E+03 -0.10597078220E+04  0.12691585210E+04  0.00000000000E+00 0. -1.
         22    1    1    2    0    0  0.66221112682E+03  0.77967914810E+03  0.15402093722E+04  0.18489640506E+04  0.00000000000E+00 0.  1.
<mgrwt>
<rscale>  0 0.36117341E+04</rscale>
<asrwt>0</asrwt>
<pdfrwt beam="1">  1        2 0.26972073E+00 0.36117341E+04</pdfrwt>
<pdfrwt beam="2">  1       -2 0.28617421E+00 0.36117341E+04</pdfrwt>
<totfact> 0.28802941E-01</totfact>
</mgrwt>
</event>
<event>
 6    1  0.1614874E-005  0.2656024E+04  0.7818608E-02  0.8349416E-01
         -2   -1    0    0    0  501 -0.00000000000E+00  0.00000000000E+00  0.12526676224E+04  0.12526676224E+04  0.00000000000E+00 0.  1.
          2   -1    0    0  501    0  0.00000000000E+00 -0.00000000000E+00 -0.14078883214E+04  0.14078883214E+04  0.00000000000E+00 0. -1.
         23    2    1    2    0    0 -0.13025456681E+04 -0.25099184732E+03 -0.76883681894E+02  0.13317373658E+04  0.89393432816E+02 0.  0.
         13    1    3    3    0    0 -0.41697054840E+03 -0.38087785718E+02 -0.25170539155E+02  0.41946236267E+03  0.00000000000E+00 0. -1.
        -13    1    3    3    0    0 -0.88557511974E+03 -0.21290406160E+03 -0.51713142740E+02  0.91227500310E+03  0.00000000000E+00 0.  1.
         22    1    1    2    0    0  0.13025456681E+04  0.25099184732E+03 -0.78337017064E+02  0.13288185780E+04  0.00000000000E+00 0. -1.
<mgrwt>
<rscale>  0 0.26560242E+04</rscale>
<asrwt>0</asrwt>
<pdfrwt beam="1">  1        2 0.21659820E+00 0.26560242E+04</pdfrwt>
<pdfrwt beam="2">  1       -2 0.19271810E+00 0.26560242E+04</pdfrwt>
<totfact> 0.18743772E+00</totfact>
</mgrwt>
</event>
<event>
 6    1  0.1614874E-005  0.6469164E+04  0.7818608E-02  0.7634805E-01
          1   -1    0    0  501    0  0.00000000000E+00  0.00000000000E+00  0.32571570298E+04  0.32571570298E+04  0.00000000000E+00 0. -1.
         -1   -1    0    0    0  501 -0.00000000000E+00 -0.00000000000E+00 -0.32121639120E+04  0.32121639120E+04  0.00000000000E+00 0.  1.
         23    2    1    2    0    0  0.17277385725E+04  0.18239639366E+04  0.20588197795E+04  0.32494726783E+04  0.91699428595E+02 0.  0.
         13    1    3    3    0    0  0.12638508051E+04  0.13632934548E+04  0.14775256344E+04  0.23746515327E+04  0.00000000000E+00 0. -1.
        -13    1    3    3    0    0  0.46388776737E+03  0.46067048182E+03  0.58129414508E+03  0.87482114552E+03  0.00000000000E+00 0.  1.
         22    1    1    2    0    0 -0.17277385725E+04 -0.18239639366E+04 -0.20138266617E+04  0.32198482636E+04  0.00000000000E+00 0.  1.
<mgrwt>
<rscale>  0 0.64691645E+04</rscale>
<asrwt>0</asrwt>
<pdfrwt beam="1">  1        1 0.50110108E+00 0.64691645E+04</pdfrwt>
<pdfrwt beam="2">  1       -1 0.49417906E+00 0.64691645E+04</pdfrwt>
<totfact> 0.40772975E-04</totfact>
</mgrwt>
</event>
<event>
 6    1  0.1614874E-005  0.5802867E+03  0.7818608E-02  0.9947171E-01
          1   -1    0    0  501    0  0.00000000000E+00  0.00000000000E+00  0.11388222401E+03  0.11388222401E+03  0.00000000000E+00 0. -1.
         -1   -1    0    0    0  501 -0.00000000000E+00 -0.00000000000E+00 -0.73921237543E+03  0.73921237543E+03  0.00000000000E+00 0.  1.
         23    2    1    2    0    0  0.12899949250E+02  0.17488301589E+03  0.55084371802E+01  0.19833677947E+03  0.92502201436E+02 0.  0.
         13    1    3    3    0    0 -0.34121640346E+02  0.69547237020E+02 -0.20401615937E+02  0.80108242085E+02  0.00000000000E+00 0.  1.
        -13    1    3    3    0    0  0.47021589597E+02  0.10533577887E+03  0.25910053117E+02  0.11822853738E+03  0.00000000000E+00 0. -1.
         22    1    1    2    0    0 -0.12899949250E+02 -0.17488301589E+03 -0.63083858861E+03  0.65475781997E+03  0.00000000000E+00 0.  1.
<mgrwt>
<rscale>  0 0.58028665E+03</rscale>
<asrwt>0</asrwt>
<pdfrwt beam="1">  1        1 0.17520343E-01 0.58028665E+03</pdfrwt>
<pdfrwt beam="2">  1       -1 0.11372498E+00 0.58028665E+03</pdfrwt>
<totfact> 0.22492357E+02</totfact>
</mgrwt>
</event>
<event>
 6    1  0.1614874E-005  0.3131105E+04  0.7818608E-02  0.8207253E-01
         -1   -1    0    0    0  501 -0.00000000000E+00  0.00000000000E+00  0.35419348511E+04  0.35419348511E+04  0.00000000000E+00 0.  1.
          1   -1    0    0  501    0  0.00000000000E+00 -0.00000000000E+00 -0.69198205823E+03  0.69198205823E+03  0.00000000000E+00 0. -1.
         23    2    1    2    0    0 -0.10880929642E+04 -0.46458480482E+03  0.28098478568E+04  0.30501121343E+04  0.90297916260E+02 0.  0.
         11    1    3    3    0    0 -0.98424742926E+03 -0.40489125148E+03  0.24608274259E+04  0.26811101334E+04  0.00000000000E+00 0. -1.
        -11    1    3    3    0    0 -0.10384553489E+03 -0.59693553344E+02  0.34902043096E+03  0.36900200088E+03  0.00000000000E+00 0.  1.
         22    1    1    2    0    0  0.10880929642E+04  0.46458480482E+03  0.40104936049E+02  0.11838047750E+04  0.00000000000E+00 0. -1.
<mgrwt>
<rscale>  0 0.31311055E+04</rscale>
<asrwt>0</asrwt>
<pdfrwt beam="1">  1        1 0.10645878E+00 0.31311055E+04</pdfrwt>
<pdfrwt beam="2">  1       -1 0.54491304E+00 0.31311055E+04</pdfrwt>
<totfact> 0.18568282E-02</totfact>
</mgrwt>
</event>
<event>
 6    1  0.1614874E-005  0.1860415E+04  0.7818608E-02  0.8674815E-01
         -1   -1    0    0    0  501 -0.00000000000E+00  0.00000000000E+00  0.54330263308E+03  0.54330263308E+03  0.00000000000E+00 0.  1.
          1   -1    0    0  501    0  0.00000000000E+00 -0.00000000000E+00 -0.15926414176E+04  0.15926414176E+04  0.00000000000E+00 0. -1.
         23    2    1    2    0    0 -0.60241930880E+02  0.80840490152E+03 -0.72952934655E+01  0.81571595966E+03  0.90508179120E+02 0.  0.
         11    1    3    3    0    0  0.70214556747E+01  0.31649881436E+03  0.29032064466E+02  0.31790511336E+03  0.00000000000E+00 0. -1.
        -11    1    3    3    0    0 -0.67263386555E+02  0.49190608716E+03 -0.36327357931E+02  0.49781084630E+03  0.00000000000E+00 0.  1.
         22    1    1    2    0    0  0.60241930880E+02 -0.80840490152E+03 -0.10420434910E+04  0.13202280910E+04  0.00000000000E+00 0. -1.
<mgrwt>
<rscale>  0 0.18604153E+04</rscale>
<asrwt>0</asrwt>
<pdfrwt beam="1">  1        1 0.24502176E+00 0.18604153E+04</pdfrwt>
<pdfrwt beam="2">  1       -1 0.83585020E-01 0.18604153E+04</pdfrwt>
<totfact> 0.75240849E+00</totfact>
</mgrwt>
</event>
<event>
 6    1  0.1614874E-005  0.4669766E+04  0.7818608E-02  0.7881572E-01
         -1   -1    0    0    0  501 -0.00000000000E+00  0.00000000000E+00  0.25476601587E+04  0.25476601587E+04  0.00000000000E+00 0. -1.
          1   -1    0    0  501    0  0.00000000000E+00 -0.00000000000E+00 -0.21398767958E+04  0.21398767958E+04  0.00000000000E+00 0.  1.
         23    2    1    2    0    0 -0.56882717263E+03 -0.17195855481E+04  0.16814270431E+04  0.24733312202E+04  0.98140787080E+02 0.  0.
         13    1    3    3    0    0 -0.14887241959E+03 -0.44966623060E+03  0.38206434694E+03  0.60855228326E+03  0.00000000000E+00 0.  1.
        -13    1    3    3    0    0 -0.41995475304E+03 -0.12699193175E+04  0.12993626962E+04  0.18647789370E+04  0.00000000000E+00 0. -1.
         22    1    1    2    0    0  0.56882717263E+03  0.17195855481E+04 -0.12736436802E+04  0.22142057343E+04  0.00000000000E+00 0.  1.
<mgrwt>
<rscale>  0 0.46697661E+04</rscale>
<asrwt>0</asrwt>
<pdfrwt beam="1">  1        1 0.32921181E+00 0.46697661E+04</pdfrwt>
<pdfrwt beam="2">  1       -1 0.39194772E+00 0.46697661E+04</pdfrwt>
<totfact> 0.14405699E-02</totfact>
</mgrwt>
</event>
<event>
 6    1  0.1614874E-005  0.3455295E+04  0.7818608E-02  0.8124467E-01
         -1   -1    0    0    0  501 -0.00000000000E+00  0.00000000000E+00  0.21389287370E+04  0.21389287370E+04  0.00000000000E+00 0. -1.
          1   -1    0    0  501    0  0.00000000000E+00 -0.00000000000E+00 -0.13954492379E+04  0.13954492379E+04  0.00000000000E+00 0.  1.
         23    2    1    2    0    0 -0.10371184894E+04  0.86524127603E+03  0.14707112813E+04  0.20003886360E+04  0.11960683575E+03 0.  0.
         13    1    3    3    0    0 -0.56311559761E+03  0.43793967281E+03  0.69564024507E+03  0.99639634878E+03  0.00000000000E+00 0.  1.
        -13    1    3    3    0    0 -0.47400289181E+03  0.42730160322E+03  0.77507103621E+03  0.10039922872E+04  0.00000000000E+00 0. -1.
         22    1    1    2    0    0  0.10371184894E+04 -0.86524127603E+03 -0.72723178214E+03  0.15339893389E+04  0.00000000000E+00 0.  1.
<mgrwt>
<rscale>  0 0.34552953E+04</rscale>
<asrwt>0</asrwt>
<pdfrwt beam="1">  1        1 0.21468450E+00 0.34552953E+04</pdfrwt>
<pdfrwt beam="2">  1       -1 0.32906596E+00 0.34552953E+04</pdfrwt>
<totfact> 0.13527815E-01</totfact>
</mgrwt>
</event>
<event>
 6    1  0.1614874E-005  0.1073986E+04  0.7818608E-02  0.9230925E-01
          2   -1    0    0  501    0  0.00000000000E+00  0.00000000000E+00  0.16166091045E+04  0.16166091045E+04  0.00000000000E+00 0.  1.
         -2   -1    0    0    0  501 -0.00000000000E+00 -0.00000000000E+00 -0.17837421080E+03  0.17837421080E+03  0.00000000000E+00 0. -1.
         23    2    1    2    0    0  0.39446329857E+03 -0.28914241114E+03  0.10796008395E+04  0.11884991748E+04  0.88247878466E+02 0.  0.
         11    1    3    3    0    0  0.15471176183E+03 -0.13838680886E+03  0.55115273955E+03  0.58894480253E+03  0.00000000000E+00 0.  1.
        -11    1    3    3    0    0  0.23975153674E+03 -0.15075560228E+03  0.52844809999E+03  0.59955437232E+03  0.00000000000E+00 0. -1.
         22    1    1    2    0    0 -0.39446329857E+03  0.28914241114E+03  0.35863405420E+03  0.60648414049E+03  0.00000000000E+00 0. -1.
<mgrwt>
<rscale>  0 0.10739858E+04</rscale>
<asrwt>0</asrwt>
<pdfrwt beam="1">  1        2 0.24870908E+00 0.10739858E+04</pdfrwt>
<pdfrwt beam="2">  1       -2 0.27442187E-01 0.10739858E+04</pdfrwt>
<totfact> 0.13126410E+02</totfact>
</mgrwt>
</event>
<event>
 6    1  0.1614874E-005  0.7648041E+03  0.7818608E-02  0.9612407E-01
          4   -1    0    0  501    0  0.00000000000E+00  0.00000000000E+00  0.52959804340E+03  0.52959804340E+03  0.00000000000E+00 0. -1.
         -4   -1    0    0    0  501 -0.00000000000E+00 -0.00000000000E+00 -0.27611757969E+03  0.27611757969E+03  0.00000000000E+00 0.  1.
         23    2    1    2    0    0  0.33229096122E+03 -0.21246439988E+02  0.31470499457E+03  0.46716409481E+03  0.91292736531E+02 0.  0.
         13    1    3    3    0    0  0.22848232453E+03 -0.79116449020E+01  0.15496321338E+03  0.27618900095E+03  0.00000000000E+00 0.  1.
        -13    1    3    3    0    0  0.10380863670E+03 -0.13334795086E+02  0.15974178120E+03  0.19097509385E+03  0.00000000000E+00 0. -1.
         22    1    1    2    0    0 -0.33229096122E+03  0.21246439988E+02 -0.61224530871E+02  0.33855152828E+03  0.00000000000E+00 0.  1.
<mgrwt>
<rscale>  0 0.76480411E+03</rscale>
<asrwt>0</asrwt>
<pdfrwt beam="1">  1        4 0.81476622E-01 0.76480411E+03</pdfrwt>
<pdfrwt beam="2">  1       -4 0.42479628E-01 0.76480411E+03</pdfrwt>
<totfact> 0.14282800E+01</totfact>
</mgrwt>
</event>
<event>
 6    1  0.1614874E-005  0.5252393E+04  0.7818608E-02  0.7790710E-01
         -2   -1    0    0    0  501 -0.00000000000E+00  0.00000000000E+00  0.29186491412E+04  0.29186491412E+04  0.00000000000E+00 0.  1.
          2   -1    0    0  501    0  0.00000000000E+00 -0.00000000000E+00 -0.23630479589E+04  0.23630479589E+04  0.00000000000E+00 0. -1.
         23    2    1    2    0    0  0.16286939363E+04 -0.19150590585E+04  0.10387150310E+04  0.27217177787E+04  0.93400297134E+02 0.  0.
         13    1    3    3    0    0  0.81690875304E+03 -0.96859112066E+03  0.57372569602E+03  0.13909240972E+04  0.00000000000E+00 0. -1.
        -13    1    3    3    0    0  0.81178518324E+03 -0.94646793779E+03  0.46498933500E+03  0.13307936815E+04  0.00000000000E+00 0.  1.
         22    1    1    2    0    0 -0.16286939363E+04  0.19150590585E+04 -0.48311384866E+03  0.25599793214E+04  0.00000000000E+00 0.  1.
<mgrwt>
<rscale>  0 0.52523929E+04</rscale>
<asrwt>0</asrwt>
<pdfrwt beam="1">  1        2 0.36354584E+00 0.52523929E+04</pdfrwt>
<pdfrwt beam="2">  1       -2 0.44902295E+00 0.52523929E+04</pdfrwt>
<totfact> 0.10528311E-02</totfact>
</mgrwt>
</event>
<event>
 6    1  0.1614874E-005  0.1186084E+04  0.7818608E-02  0.9125125E-01
          1   -1    0    0  501    0  0.00000000000E+00  0.00000000000E+00  0.27494369729E+03  0.27494369729E+03  0.00000000000E+00 0.  1.
         -1   -1    0    0    0  501 -0.00000000000E+00 -0.00000000000E+00 -0.12791667936E+04  0.12791667936E+04  0.00000000000E+00 0. -1.
         23    2    1    2    0    0 -0.42639938644E+02 -0.30846078664E+03  0.15049954971E+03  0.35813782795E+03  0.92985848858E+02 0.  0.
         11    1    3    3    0    0 -0.63604738126E+02 -0.26364142582E+03  0.14712663826E+03  0.30854272282E+03  0.00000000000E+00 0. -1.
        -11    1    3    3    0    0  0.20964799481E+02 -0.44819360819E+02  0.33729114492E+01  0.49595105133E+02  0.00000000000E+00 0.  1.
         22    1    1    2    0    0  0.42639938644E+02  0.30846078664E+03 -0.11547226460E+04  0.11959726629E+04  0.00000000000E+00 0. -1.
<mgrwt>
<rscale>  0 0.11860841E+04</rscale>
<asrwt>0</asrwt>
<pdfrwt beam="1">  1        1 0.42299029E-01 0.11860841E+04</pdfrwt>
<pdfrwt beam="2">  1       -1 0.19679490E+00 0.11860841E+04</pdfrwt>
<totfact> 0.15421678E+01</totfact>
</mgrwt>
</event>
<event>
 6    1  0.1614874E-005  0.1684986E+04  0.7818608E-02  0.8769974E-01
          2   -1    0    0  501    0  0.00000000000E+00  0.00000000000E+00  0.12333380548E+04  0.12333380548E+04  0.00000000000E+00 0. -1.
         -2   -1    0    0    0  501 -0.00000000000E+00 -0.00000000000E+00 -0.57550665550E+03  0.57550665550E+03  0.00000000000E+00 0.  1.
         23    2    1    2    0    0  0.27340642171E+03  0.61395606157E+03 -0.20990034026E+03  0.71127854426E+03  0.10082607656E+03 0.  0.
         11    1    3    3    0    0  0.13257682383E+03  0.36298855165E+03 -0.75879342705E+02  0.39382099677E+03  0.00000000000E+00 0. -1.
        -11    1    3    3    0    0  0.14082959788E+03  0.25096750991E+03 -0.13402099756E+03  0.31745754749E+03  0.00000000000E+00 0.  1.
         22    1    1    2    0    0 -0.27340642171E+03 -0.61395606157E+03  0.86773173952E+03  0.10975661660E+04  0.00000000000E+00 0. -1.
<mgrwt>
<rscale>  0 0.16849858E+04</rscale>
<asrwt>0</asrwt>
<pdfrwt beam="1">  1        2 0.18974432E+00 0.16849858E+04</pdfrwt>
<pdfrwt beam="2">  1       -2 0.88539486E-01 0.16849858E+04</pdfrwt>
<totfact> 0.18919689E+01</totfact>
</mgrwt>
</event>
<event>
 6    1  0.1614874E-005  0.2838047E+04  0.7818608E-02  0.8291553E-01
         -2   -1    0    0    0  501 -0.00000000000E+00  0.00000000000E+00  0.64157701938E+03  0.64157701938E+03  0.00000000000E+00 0.  1.
          2   -1    0    0  501    0  0.00000000000E+00 -0.00000000000E+00 -0.31385599887E+04  0.31385599887E+04  0.00000000000E+00 0. -1.
         23    2    1    2    0    0  0.97539494896E+03  0.61810817794E+03 -0.23448505250E+04  0.26154064355E+04  0.92594880021E+02 0.  0.
         11    1    3    3    0    0  0.98594636789E+02  0.46059199873E+02 -0.17264692016E+03  0.20408162910E+03  0.00000000000E+00 0.  1.
        -11    1    3    3    0    0  0.87680031217E+03  0.57204897806E+03 -0.21722036049E+04  0.24113248064E+04  0.00000000000E+00 0. -1.
         22    1    1    2    0    0 -0.97539494896E+03 -0.61810817794E+03 -0.15213244424E+03  0.11647305726E+04  0.00000000000E+00 0.  1.
<mgrwt>
<rscale>  0 0.28380472E+04</rscale>
<asrwt>0</asrwt>
<pdfrwt beam="1">  1        2 0.48285538E+00 0.28380472E+04</pdfrwt>
<pdfrwt beam="2">  1       -2 0.98704158E-01 0.28380472E+04</pdfrwt>
<totfact> 0.10499293E+00</totfact>
</mgrwt>
</event>
<event>
 6    1  0.1614874E-005  0.1219555E+04  0.7818608E-02  0.9095910E-01
         -2   -1    0    0    0  501 -0.00000000000E+00  0.00000000000E+00  0.47735111798E+03  0.47735111798E+03  0.00000000000E+00 0.  1.
          2   -1    0    0  501    0  0.00000000000E+00 -0.00000000000E+00 -0.77894134890E+03  0.77894134890E+03  0.00000000000E+00 0. -1.
         23    2    1    2    0    0 -0.49333423916E+03  0.21421689281E+03 -0.44005026264E+03  0.70091986305E+03  0.91525253717E+02 0.  0.
         13    1    3    3    0    0 -0.20820519102E+03  0.49414314427E+02 -0.20476997149E+03  0.29617886026E+03  0.00000000000E+00 0. -1.
        -13    1    3    3    0    0 -0.28512904814E+03  0.16480257839E+03 -0.23528029115E+03  0.40474100279E+03  0.00000000000E+00 0.  1.
         22    1    1    2    0    0  0.49333423916E+03 -0.21421689281E+03  0.13846003173E+03  0.55537260383E+03  0.00000000000E+00 0.  1.
<mgrwt>
<rscale>  0 0.12195549E+04</rscale>
<asrwt>0</asrwt>
<pdfrwt beam="1">  1        2 0.11983713E+00 0.12195549E+04</pdfrwt>
<pdfrwt beam="2">  1       -2 0.73438634E-01 0.12195549E+04</pdfrwt>
<totfact> 0.58863037E+01</totfact>
</mgrwt>
</event>
<event>
 6    1  0.1614874E-005  0.8901037E+03  0.7818608E-02  0.9438038E-01
          2   -1    0    0  501    0  0.00000000000E+00  0.00000000000E+00  0.19099960178E+04  0.19099960178E+04  0.00000000000E+00 0. -1.
         -2   -1    0    0    0  501 -0.00000000000E+00 -0.00000000000E+00 -0.10370237971E+03  0.10370237971E+03  0.00000000000E+00 0.  1.
         23    2    1    2    0    0  0.29748906556E+03  0.94447857537E+01  0.17368160679E+03  0.35417708313E+03  0.81775042483E+02 0.  0.
         13    1    3    3    0    0  0.14887181213E+03 -0.28815948544E+02  0.11318752324E+03  0.18922101034E+03  0.00000000000E+00 0.  1.
        -13    1    3    3    0    0  0.14861725343E+03  0.38260734297E+02  0.60494083548E+02  0.16495607279E+03  0.00000000000E+00 0. -1.
         22    1    1    2    0    0 -0.29748906556E+03 -0.94447857537E+01  0.16326120313E+04  0.16595213144E+04  0.00000000000E+00 0. -1.
<mgrwt>
<rscale>  0 0.89010366E+03</rscale>
<asrwt>0</asrwt>
<pdfrwt beam="1">  1        2 0.29384551E+00 0.89010366E+03</pdfrwt>
<pdfrwt beam="2">  1       -2 0.15954214E-01 0.89010366E+03</pdfrwt>
<totfact> 0.23908435E+02</totfact>
</mgrwt>
</event>
<event>
 6    1  0.1614874E-005  0.2811892E+04  0.7818608E-02  0.8299586E-01
          1   -1    0    0  501    0  0.00000000000E+00  0.00000000000E+00  0.10635894176E+04  0.10635894176E+04  0.00000000000E+00 0. -1.
         -1   -1    0    0    0  501 -0.00000000000E+00 -0.00000000000E+00 -0.18585024944E+04  0.18585024944E+04  0.00000000000E+00 0.  1.
         23    2    1    2    0    0  0.10290617449E+04  0.69577048671E+03  0.28313248466E+03  0.12773284404E+04  0.91319745513E+02 0.  0.
         13    1    3    3    0    0  0.68247736438E+03  0.45527304569E+03  0.23079590716E+03  0.85224154427E+03  0.00000000000E+00 0. -1.
        -13    1    3    3    0    0  0.34658438051E+03  0.24049744102E+03  0.52336577501E+02  0.42508689617E+03  0.00000000000E+00 0.  1.
         22    1    1    2    0    0 -0.10290617449E+04 -0.69577048671E+03 -0.10780455614E+04  0.16447634716E+04  0.00000000000E+00 0.  1.
<mgrwt>
<rscale>  0 0.28118916E+04</rscale>
<asrwt>0</asrwt>
<pdfrwt beam="1">  1        1 0.16362914E+00 0.28118916E+04</pdfrwt>
<pdfrwt beam="2">  1       -1 0.28592346E+00 0.28118916E+04</pdfrwt>
<totfact> 0.47608594E-01</totfact>
</mgrwt>
</event>
<event>
 6    1  0.1614874E-005  0.1599267E+04  0.7818608E-02  0.8820999E-01
         -1   -1    0    0    0  501 -0.00000000000E+00  0.00000000000E+00  0.34905030776E+03  0.34905030776E+03  0.00000000000E+00 0.  1.
          1   -1    0    0  501    0  0.00000000000E+00 -0.00000000000E+00 -0.18318663581E+04  0.18318663581E+04  0.00000000000E+00 0. -1.
         23    2    1    2    0    0 -0.34588840765E+03  0.32714196965E+03  0.12745130738E+03  0.50174376762E+03  0.94033577738E+02 0.  0.
         11    1    3    3    0    0 -0.42743272444E+02  0.23762238746E+02 -0.12736360631E+02  0.50535593512E+02  0.00000000000E+00 0. -1.
        -11    1    3    3    0    0 -0.30314513520E+03  0.30337973090E+03  0.14018766801E+03  0.45120817411E+03  0.00000000000E+00 0.  1.
         22    1    1    2    0    0  0.34588840765E+03 -0.32714196965E+03 -0.16102673577E+04  0.16791728983E+04  0.00000000000E+00 0. -1.
<mgrwt>
<rscale>  0 0.15992667E+04</rscale>
<asrwt>0</asrwt>
<pdfrwt beam="1">  1        1 0.28182559E+00 0.15992667E+04</pdfrwt>
<pdfrwt beam="2">  1       -1 0.53700048E-01 0.15992667E+04</pdfrwt>
<totfact> 0.13017871E+01</totfact>
</mgrwt>
</event>
<event>
 6    1  0.1614874E-005  0.3722282E+04  0.7818608E-02  0.8063042E-01
         -2   -1    0    0    0  501 -0.00000000000E+00  0.00000000000E+00  0.95484142379E+03  0.95484142379E+03  0.00000000000E+00 0.  1.
          2   -1    0    0  501    0  0.00000000000E+00 -0.00000000000E+00 -0.36276664994E+04  0.36276664994E+04  0.00000000000E+00 0. -1.
         23    2    1    2    0    0 -0.30918423777E+03  0.10613950312E+04  0.50466102971E+03  0.12181993383E+04  0.84691012509E+02 0.  0.
         11    1    3    3    0    0 -0.20093381017E+03  0.54256912561E+03  0.25270282071E+03  0.63135914322E+03  0.00000000000E+00 0.  1.
        -11    1    3    3    0    0 -0.10825042760E+03  0.51882590563E+03  0.25195820900E+03  0.58684019504E+03  0.00000000000E+00 0. -1.
         22    1    1    2    0    0  0.30918423777E+03 -0.10613950312E+04 -0.31774861053E+04  0.33643085849E+04  0.00000000000E+00 0. -1.
<mgrwt>
<rscale>  0 0.37222822E+04</rscale>
<asrwt>0</asrwt>
<pdfrwt beam="1">  1        2 0.55810255E+00 0.37222822E+04</pdfrwt>
<pdfrwt beam="2">  1       -2 0.14689868E+00 0.37222822E+04</pdfrwt>
<totfact> 0.16812461E-01</totfact>
</mgrwt>
</event>
<event>
 6    1  0.1614874E-005  0.2682095E+04  0.7818608E-02  0.8340838E-01
         -1   -1    0    0    0  501 -0.00000000000E+00  0.00000000000E+00  0.73432134725E+03  0.73432134725E+03  0.00000000000E+00 0.  1.
          1   -1    0    0  501    0  0.00000000000E+00 -0.00000000000E+00 -0.24490762676E+04  0.24490762676E+04  0.00000000000E+00 0. -1.
         23    2    1    2    0    0  0.11206267534E+04  0.47357698887E+03 -0.19293746995E+03  0.12350629831E+04  0.89867791724E+02 0.  0.
         11    1    3    3    0    0  0.94158455615E+03  0.39852328992E+03 -0.19518594534E+03  0.10409129850E+04  0.00000000000E+00 0. -1.
        -11    1    3    3    0    0  0.17904219729E+03  0.75053698954E+02  0.22484753893E+01  0.19414999814E+03  0.00000000000E+00 0.  1.
         22    1    1    2    0    0 -0.11206267534E+04 -0.47357698887E+03 -0.15218174504E+04  0.19483346317E+04  0.00000000000E+00 0. -1.
<mgrwt>
<rscale>  0 0.26820954E+04</rscale>
<asrwt>0</asrwt>
<pdfrwt beam="1">  1        1 0.37678097E+00 0.26820954E+04</pdfrwt>
<pdfrwt beam="2">  1       -1 0.11297251E+00 0.26820954E+04</pdfrwt>
<totfact> 0.92004793E-01</totfact>
</mgrwt>
</event>
<event>
 6    1  0.1614874E-005  0.5668976E+04  0.7818608E-02  0.7732857E-01
          2   -1    0    0  501    0  0.00000000000E+00  0.00000000000E+00  0.36255290812E+04  0.36255290812E+04  0.00000000000E+00 0. -1.
         -2   -1    0    0    0  501 -0.00000000000E+00 -0.00000000000E+00 -0.22160413216E+04  0.22160413216E+04  0.00000000000E+00 0.  1.
         23    2    1    2    0    0  0.25609992088E+04 -0.90950738855E+03  0.15322586364E+04  0.31210937303E+04  0.86538470457E+02 0.  0.
         13    1    3    3    0    0  0.77520246184E+03 -0.31389627963E+03  0.45244826682E+03  0.95088336055E+03  0.00000000000E+00 0. -1.
        -13    1    3    3    0    0  0.17857967470E+04 -0.59561110892E+03  0.10798103696E+04  0.21702103697E+04  0.00000000000E+00 0.  1.
         22    1    1    2    0    0 -0.25609992088E+04  0.90950738855E+03 -0.12277087690E+03  0.27204766725E+04  0.00000000000E+00 0. -1.
<mgrwt>
<rscale>  0 0.56689760E+04</rscale>
<asrwt>0</asrwt>
<pdfrwt beam="1">  1        2 0.55777371E+00 0.56689760E+04</pdfrwt>
<pdfrwt beam="2">  1       -2 0.34092943E+00 0.56689760E+04</pdfrwt>
<totfact> 0.80854609E-03</totfact>
</mgrwt>
</event>
<event>
 6    1  0.1614874E-005  0.2427127E+04  0.7818608E-02  0.8429417E-01
          2   -1    0    0  501    0  0.00000000000E+00  0.00000000000E+00  0.14540996474E+04  0.14540996474E+04  0.00000000000E+00 0. -1.
         -2   -1    0    0    0  501 -0.00000000000E+00 -0.00000000000E+00 -0.10128162807E+04  0.10128162807E+04  0.00000000000E+00 0.  1.
         23    2    1    2    0    0 -0.63642136881E+03 -0.10300682794E+04  0.27485887850E+03  0.12447171189E+04  0.87752402954E+02 0.  0.
         11    1    3    3    0    0 -0.31242662424E+03 -0.57021430785E+03  0.17568740012E+03  0.67351378232E+03  0.00000000000E+00 0.  1.
        -11    1    3    3    0    0 -0.32399474457E+03 -0.45985397150E+03  0.99171478377E+02  0.57120333660E+03  0.00000000000E+00 0. -1.
         22    1    1    2    0    0  0.63642136881E+03  0.10300682794E+04  0.16642448818E+03  0.12221988091E+04  0.00000000000E+00 0. -1.
<mgrwt>
<rscale>  0 0.24271265E+04</rscale>
<asrwt>0</asrwt>
<pdfrwt beam="1">  1        2 0.22370764E+00 0.24271265E+04</pdfrwt>
<pdfrwt beam="2">  1       -2 0.15581789E+00 0.24271265E+04</pdfrwt>
<totfact> 0.32734464E+00</totfact>
</mgrwt>
</event>
<event>
 6    1  0.1614874E-005  0.1143703E+04  0.7818608E-02  0.9163613E-01
         -2   -1    0    0    0  501 -0.00000000000E+00  0.00000000000E+00  0.11816587583E+04  0.11816587583E+04  0.00000000000E+00 0.  1.
          2   -1    0    0  501    0  0.00000000000E+00 -0.00000000000E+00 -0.27674148256E+03  0.27674148256E+03  0.00000000000E+00 0. -1.
         23    2    1    2    0    0 -0.79521050549E+02  0.39490497582E+03  0.96624254466E+03  0.10509271423E+04  0.92464403993E+02 0.  0.
         13    1    3    3    0    0 -0.21895101607E+02  0.62008955181E+02  0.25772975941E+03  0.26598709534E+03  0.00000000000E+00 0.  1.
        -13    1    3    3    0    0 -0.57625948942E+02  0.33289602064E+03  0.70851278524E+03  0.78494004701E+03  0.00000000000E+00 0. -1.
         22    1    1    2    0    0  0.79521050549E+02 -0.39490497582E+03 -0.61325268921E+02  0.40747309852E+03  0.00000000000E+00 0. -1.
<mgrwt>
<rscale>  0 0.11437028E+04</rscale>
<asrwt>0</asrwt>
<pdfrwt beam="1">  1        2 0.42575613E-01 0.11437028E+04</pdfrwt>
<pdfrwt beam="2">  1       -2 0.18179365E+00 0.11437028E+04</pdfrwt>
<totfact> 0.20946698E+01</totfact>
</mgrwt>
</event>
<event>
 6    1  0.1614874E-005  0.2964878E+04  0.7818608E-02  0.8253832E-01
          1   -1    0    0  501    0  0.00000000000E+00  0.00000000000E+00  0.25913065513E+04  0.25913065513E+04  0.00000000000E+00 0. -1.
         -1   -1    0    0    0  501 -0.00000000000E+00 -0.00000000000E+00 -0.84807634926E+03  0.84807634926E+03  0.00000000000E+00 0.  1.
         23    2    1    2    0    0  0.22165066189E+03  0.57509525389E+03 -0.68981962020E+03  0.92948349931E+03  0.90691235038E+02 0.  0.
         13    1    3    3    0    0  0.13190288591E+03  0.25582383875E+03 -0.36982317493E+03  0.46862926552E+03  0.00000000000E+00 0. -1.
        -13    1    3    3    0    0  0.89747775981E+02  0.31927141513E+03 -0.31999644526E+03  0.46085423378E+03  0.00000000000E+00 0.  1.
         22    1    1    2    0    0 -0.22165066189E+03 -0.57509525389E+03  0.24330498223E+04  0.25098994013E+04  0.00000000000E+00 0. -1.
<mgrwt>
<rscale>  0 0.29648783E+04</rscale>
<asrwt>0</asrwt>
<pdfrwt beam="1">  1        1 0.39866254E+00 0.29648783E+04</pdfrwt>
<pdfrwt beam="2">  1       -1 0.13047329E+00 0.29648783E+04</pdfrwt>
<totfact> 0.50167306E-01</totfact>
</mgrwt>
</event>
<event>
 6    1  0.1614874E-005  0.9946762E+03  0.7818608E-02  0.9314403E-01
          2   -1    0    0  501    0  0.00000000000E+00  0.00000000000E+00  0.11689045878E+04  0.11689045878E+04  0.00000000000E+00 0. -1.
         -2   -1    0    0    0  501 -0.00000000000E+00 -0.00000000000E+00 -0.21160424203E+03  0.21160424203E+03  0.00000000000E+00 0.  1.
         23    2    1    2    0    0 -0.30325984219E+03  0.25382731101E+03  0.89163500244E+03  0.97962633707E+03  0.90884250539E+02 0.  0.
         13    1    3    3    0    0 -0.18174126066E+03  0.14740388738E+03  0.41584205430E+03  0.47716077580E+03  0.00000000000E+00 0. -1.
        -13    1    3    3    0    0 -0.12151858153E+03  0.10642342362E+03  0.47579294815E+03  0.50246556127E+03  0.00000000000E+00 0.  1.
         22    1    1    2    0    0  0.30325984219E+03 -0.25382731101E+03  0.65665343343E+02  0.40088249278E+03  0.00000000000E+00 0.  1.
<mgrwt>
<rscale>  0 0.99467617E+03</rscale>
<asrwt>0</asrwt>
<pdfrwt beam="1">  1        2 0.17983147E+00 0.99467617E+03</pdfrwt>
<pdfrwt beam="2">  1       -2 0.32554499E-01 0.99467617E+03</pdfrwt>
<totfact> 0.17340854E+02</totfact>
</mgrwt>
</event>
<event>
 6    1  0.1614874E-005  0.2084136E+04  0.7818608E-02  0.8568264E-01
         -2   -1    0    0    0  501 -0.00000000000E+00  0.00000000000E+00  0.80243124662E+03  0.80243124662E+03  0.00000000000E+00 0.  1.
          2   -1    0    0  501    0  0.00000000000E+00 -0.00000000000E+00 -0.13532691695E+04  0.13532691695E+04  0.00000000000E+00 0. -1.
         23    2    1    2    0    0  0.26864649790E+03  0.97816865509E+03 -0.37389608096E+02  0.10187685665E+04  0.86640352958E+02 0.  0.
         13    1    3    3    0    0  0.16127115993E+03  0.45420730868E+03 -0.42860702570E+02  0.48389017980E+03  0.00000000000E+00 0. -1.
        -13    1    3    3    0    0  0.10737533798E+03  0.52396134640E+03  0.54710944736E+01  0.53487838674E+03  0.00000000000E+00 0.  1.
         22    1    1    2    0    0 -0.26864649790E+03 -0.97816865509E+03 -0.51344831478E+03  0.11369318496E+04  0.00000000000E+00 0. -1.
<mgrwt>
<rscale>  0 0.20841358E+04</rscale>
<asrwt>0</asrwt>
<pdfrwt beam="1">  1        2 0.20819526E+00 0.20841358E+04</pdfrwt>
<pdfrwt beam="2">  1       -2 0.12345096E+00 0.20841358E+04</pdfrwt>
<totfact> 0.70289146E+00</totfact>
</mgrwt>
</event>
<event>
 6    1  0.1614874E-005  0.3729764E+04  0.7818608E-02  0.8061398E-01
         -2   -1    0    0    0  501 -0.00000000000E+00  0.00000000000E+00  0.10763192571E+04  0.10763192571E+04  0.00000000000E+00 0.  1.
          2   -1    0    0  501    0  0.00000000000E+00 -0.00000000000E+00 -0.32311827308E+04  0.32311827308E+04  0.00000000000E+00 0. -1.
         23    2    1    2    0    0 -0.13880206781E+04 -0.17172989432E+03  0.34465509859E+03  0.14432943048E+04  0.90657343380E+02 0.  0.
         13    1    3    3    0    0 -0.84564804387E+03 -0.13057210788E+03  0.24758882861E+03  0.89076928411E+03  0.00000000000E+00 0. -1.
        -13    1    3    3    0    0 -0.54237263419E+03 -0.41157786433E+02  0.97066269971E+02  0.55252502067E+03  0.00000000000E+00 0.  1.
         22    1    1    2    0    0  0.13880206781E+04  0.17172989432E+03 -0.24995185723E+04  0.28642076832E+04  0.00000000000E+00 0. -1.
<mgrwt>
<rscale>  0 0.37297636E+04</rscale>
<asrwt>0</asrwt>
<pdfrwt beam="1">  1        2 0.49710503E+00 0.37297636E+04</pdfrwt>
<pdfrwt beam="2">  1       -2 0.16558758E+00 0.37297636E+04</pdfrwt>
<totfact> 0.22847502E-01</totfact>
</mgrwt>
</event>
<event>
 6    1  0.1614874E-005  0.4628034E+04  0.7818608E-02  0.7888597E-01
          2   -1    0    0  501    0  0.00000000000E+00  0.00000000000E+00  0.26293947572E+04  0.26293947572E+04  0.00000000000E+00 0.  1.
         -2   -1    0    0    0  501 -0.00000000000E+00 -0.00000000000E+00 -0.20364663558E+04  0.20364663558E+04  0.00000000000E+00 0. -1.
         23    2    1    2    0    0  0.95795348876E+03  0.20747511501E+04 -0.64538680867E+02  0.22879355074E+04  0.90644488747E+02 0.  0.
         11    1    3    3    0    0  0.15590738442E+03  0.39847392880E+03 -0.36603417410E+02  0.42945127153E+03  0.00000000000E+00 0.  1.
        -11    1    3    3    0    0  0.80204610435E+03  0.16762772213E+04 -0.27935263457E+02  0.18584842359E+04  0.00000000000E+00 0. -1.
         22    1    1    2    0    0 -0.95795348876E+03 -0.20747511501E+04  0.65746708235E+03  0.23779256056E+04  0.00000000000E+00 0. -1.
<mgrwt>
<rscale>  0 0.46280337E+04</rscale>
<asrwt>0</asrwt>
<pdfrwt beam="1">  1        2 0.40452227E+00 0.46280337E+04</pdfrwt>
<pdfrwt beam="2">  1       -2 0.31330252E+00 0.46280337E+04</pdfrwt>
<totfact> 0.57746594E-02</totfact>
</mgrwt>
</event>
<event>
 6    1  0.1614874E-005  0.1095082E+04  0.7818608E-02  0.9209998E-01
          1   -1    0    0  501    0  0.00000000000E+00  0.00000000000E+00  0.72033226687E+03  0.72033226687E+03  0.00000000000E+00 0. -1.
         -1   -1    0    0    0  501 -0.00000000000E+00 -0.00000000000E+00 -0.41619853573E+03  0.41619853573E+03  0.00000000000E+00 0.  1.
         23    2    1    2    0    0  0.28834944821E+03  0.38656590087E+03  0.41376589223E+03  0.64196249513E+03  0.91296394145E+02 0.  0.
         11    1    3    3    0    0  0.16375466970E+03  0.14966108253E+03  0.21100638253E+03  0.30616617210E+03  0.00000000000E+00 0. -1.
        -11    1    3    3    0    0  0.12459477851E+03  0.23690481834E+03  0.20275950971E+03  0.33579632303E+03  0.00000000000E+00 0.  1.
         22    1    1    2    0    0 -0.28834944821E+03 -0.38656590087E+03 -0.10963216110E+03  0.49456830746E+03  0.00000000000E+00 0.  1.
<mgrwt>
<rscale>  0 0.10950822E+04</rscale>
<asrwt>0</asrwt>
<pdfrwt beam="1">  1        1 0.11082035E+00 0.10950822E+04</pdfrwt>
<pdfrwt beam="2">  1       -1 0.64030544E-01 0.10950822E+04</pdfrwt>
<totfact> 0.64305992E+01</totfact>
</mgrwt>
</event>
<event>
 6    1  0.1614874E-005  0.1886629E+04  0.7818608E-02  0.8661541E-01
          2   -1    0    0  501    0  0.00000000000E+00  0.00000000000E+00  0.23563262966E+04  0.23563262966E+04  0.00000000000E+00 0.  1.
         -2   -1    0    0    0  501 -0.00000000000E+00 -0.00000000000E+00 -0.37763957775E+03  0.37763957775E+03  0.00000000000E+00 0. -1.
         23    2    1    2    0    0 -0.88514007500E+03  0.25883072949E+03  0.72078287886E+03  0.11742260340E+04  0.93875031757E+02 0.  0.
         11    1    3    3    0    0 -0.57944955962E+03  0.15497953950E+03  0.52151677328E+03  0.79483343829E+03  0.00000000000E+00 0.  1.
        -11    1    3    3    0    0 -0.30569051537E+03  0.10385119000E+03  0.19926610559E+03  0.37939259572E+03  0.00000000000E+00 0. -1.
         22    1    1    2    0    0  0.88514007500E+03 -0.25883072949E+03  0.12579038400E+04  0.15597398403E+04  0.00000000000E+00 0.  1.
<mgrwt>
<rscale>  0 0.18866288E+04</rscale>
<asrwt>0</asrwt>
<pdfrwt beam="1">  1        2 0.36251173E+00 0.18866288E+04</pdfrwt>
<pdfrwt beam="2">  1       -2 0.58098398E-01 0.18866288E+04</pdfrwt>
<totfact> 0.10949376E+01</totfact>
</mgrwt>
</event>
<event>
 6    1  0.1614874E-005  0.1297582E+04  0.7818608E-02  0.9031485E-01
         -1   -1    0    0    0  501 -0.00000000000E+00  0.00000000000E+00  0.37209984901E+03  0.37209984901E+03  0.00000000000E+00 0.  1.
          1   -1    0    0  501    0  0.00000000000E+00 -0.00000000000E+00 -0.11312281290E+04  0.11312281290E+04  0.00000000000E+00 0. -1.
         23    2    1    2    0    0 -0.63642359911E+03 -0.88702467532E+02 -0.30788151500E+03  0.71813579254E+03  0.89581605246E+02 0.  0.
         13    1    3    3    0    0 -0.32312484377E+03 -0.87027927299E+02 -0.14066479150E+03  0.36300152666E+03  0.00000000000E+00 0. -1.
        -13    1    3    3    0    0 -0.31329875533E+03 -0.16745402328E+01 -0.16721672350E+03  0.35513426587E+03  0.00000000000E+00 0.  1.
         22    1    1    2    0    0  0.63642359911E+03  0.88702467532E+02 -0.45124676504E+03  0.78519218552E+03  0.00000000000E+00 0.  1.
<mgrwt>
<rscale>  0 0.12975821E+04</rscale>
<asrwt>0</asrwt>
<pdfrwt beam="1">  1        1 0.17403510E+00 0.12975821E+04</pdfrwt>
<pdfrwt beam="2">  1       -1 0.57246130E-01 0.12975821E+04</pdfrwt>
<totfact> 0.36474366E+01</totfact>
</mgrwt>
</event>
<event>
 6    1  0.1614874E-005  0.3779959E+04  0.7818608E-02  0.8050469E-01
         -2   -1    0    0    0  501 -0.00000000000E+00  0.00000000000E+00  0.11223296308E+04  0.11223296308E+04  0.00000000000E+00 0.  1.
          2   -1    0    0  501    0  0.00000000000E+00 -0.00000000000E+00 -0.31826851128E+04  0.31826851128E+04  0.00000000000E+00 0. -1.
         23    2    1    2    0    0  0.44754881277E+03 -0.13604588094E+04 -0.24334426647E+04  0.28250342851E+04  0.89595745792E+02 0.  0.
         13    1    3    3    0    0  0.23436172835E+03 -0.59649967493E+03 -0.10366660525E+04  0.12187755275E+04  0.00000000000E+00 0. -1.
        -13    1    3    3    0    0  0.21318708442E+03 -0.76395913444E+03 -0.13967766122E+04  0.16062587576E+04  0.00000000000E+00 0.  1.
         22    1    1    2    0    0 -0.44754881277E+03  0.13604588094E+04  0.37308718267E+03  0.14799804586E+04  0.00000000000E+00 0.  1.
<mgrwt>
<rscale>  0 0.37799586E+04</rscale>
<asrwt>0</asrwt>
<pdfrwt beam="1">  1        2 0.48964387E+00 0.37799586E+04</pdfrwt>
<pdfrwt beam="2">  1       -2 0.17266610E+00 0.37799586E+04</pdfrwt>
<totfact> 0.21789885E-01</totfact>
</mgrwt>
</event>
<event>
 6    1  0.1614874E-005  0.4462240E+04  0.7818608E-02  0.7917281E-01
          1   -1    0    0  501    0  0.00000000000E+00  0.00000000000E+00  0.24510802393E+04  0.24510802393E+04  0.00000000000E+00 0. -1.
         -1   -1    0    0    0  501 -0.00000000000E+00 -0.00000000000E+00 -0.20308988772E+04  0.20308988772E+04  0.00000000000E+00 0.  1.
         23    2    1    2    0    0  0.46689652070E+03  0.19484080636E+04  0.11952389493E+04  0.23337238693E+04  0.58177393352E+02 0.  0.
         13    1    3    3    0    0  0.16090748594E+03  0.77768613974E+03  0.48998370760E+03  0.93315110496E+03  0.00000000000E+00 0. -1.
        -13    1    3    3    0    0  0.30598903476E+03  0.11707219238E+04  0.70525524171E+03  0.14005727644E+04  0.00000000000E+00 0.  1.
         22    1    1    2    0    0 -0.46689652070E+03 -0.19484080636E+04 -0.77505758728E+03  0.21482552471E+04  0.00000000000E+00 0.  1.
<mgrwt>
<rscale>  0 0.44622398E+04</rscale>
<asrwt>0</asrwt>
<pdfrwt beam="1">  1        1 0.37708927E+00 0.44622398E+04</pdfrwt>
<pdfrwt beam="2">  1       -1 0.31244598E+00 0.44622398E+04</pdfrwt>
<totfact> 0.30266805E-02</totfact>
</mgrwt>
</event>
<event>
 6    1  0.1614874E-005  0.3922435E+04  0.7818608E-02  0.8020379E-01
         -1   -1    0    0    0  501 -0.00000000000E+00  0.00000000000E+00  0.21060809458E+04  0.21060809458E+04  0.00000000000E+00 0.  1.
          1   -1    0    0  501    0  0.00000000000E+00 -0.00000000000E+00 -0.18263182999E+04  0.18263182999E+04  0.00000000000E+00 0. -1.
         23    2    1    2    0    0  0.17362434837E+03 -0.67990206386E+03 -0.16950672372E+04  0.18366021901E+04  0.86269548515E+02 0.  0.
         11    1    3    3    0    0  0.30846910689E+02 -0.25825296420E+03 -0.56392124881E+03  0.62100990352E+03  0.00000000000E+00 0. -1.
        -11    1    3    3    0    0  0.14277743768E+03 -0.42164909967E+03 -0.11311459884E+04  0.12155922866E+04  0.00000000000E+00 0.  1.
         22    1    1    2    0    0 -0.17362434837E+03  0.67990206386E+03  0.19748298831E+04  0.20957970556E+04  0.00000000000E+00 0.  1.
<mgrwt>
<rscale>  0 0.39224350E+04</rscale>
<asrwt>0</asrwt>
<pdfrwt beam="1">  1        1 0.28097205E+00 0.39224350E+04</pdfrwt>
<pdfrwt beam="2">  1       -1 0.32401245E+00 0.39224350E+04</pdfrwt>
<totfact> 0.70936761E-02</totfact>
</mgrwt>
</event>
<event>
 6    1  0.1614874E-005  0.3179553E+04  0.7818608E-02  0.8194238E-01
         -1   -1    0    0    0  501 -0.00000000000E+00  0.00000000000E+00  0.72453846183E+03  0.72453846183E+03  0.00000000000E+00 0.  1.
          1   -1    0    0  501    0  0.00000000000E+00 -0.00000000000E+00 -0.34882750530E+04  0.34882750530E+04  0.00000000000E+00 0. -1.
         23    2    1    2    0    0 -0.58414047769E+03  0.76728003582E+02 -0.33374270946E+04  0.33904826339E+04  0.99224971178E+02 0.  0.
         11    1    3    3    0    0 -0.24200096638E+03  0.40160589750E+02 -0.11229044079E+04  0.11493875108E+04  0.00000000000E+00 0. -1.
        -11    1    3    3    0    0 -0.34213951131E+03  0.36567413832E+02 -0.22145226866E+04  0.22410951231E+04  0.00000000000E+00 0.  1.
         22    1    1    2    0    0  0.58414047769E+03 -0.76728003582E+02  0.57369050335E+03  0.82233088100E+03  0.00000000000E+00 0.  1.
<mgrwt>
<rscale>  0 0.31795531E+04</rscale>
<asrwt>0</asrwt>
<pdfrwt beam="1">  1        1 0.53665769E+00 0.31795531E+04</pdfrwt>
<pdfrwt beam="2">  1       -1 0.11146746E+00 0.31795531E+04</pdfrwt>
<totfact> 0.15802762E-01</totfact>
</mgrwt>
</event>
<event>
 6    1  0.1614874E-005  0.4220535E+03  0.7818608E-02  0.1036400E+00
         -2   -1    0    0    0  501 -0.00000000000E+00  0.00000000000E+00  0.45802003622E+02  0.45802003622E+02  0.00000000000E+00 0.  1.
          2   -1    0    0  501    0  0.00000000000E+00 -0.00000000000E+00 -0.97227826571E+03  0.97227826571E+03  0.00000000000E+00 0. -1.
         23    2    1    2    0    0  0.78281308923E+02 -0.38632728688E+02 -0.92229861715E+03  0.93068516781E+03  0.88992647588E+02 0.  0.
         13    1    3    3    0    0  0.26511275697E+01  0.14261747139E+02 -0.40219438906E+03  0.40245590132E+03  0.00000000000E+00 0. -1.
        -13    1    3    3    0    0  0.75630181353E+02 -0.52894475827E+02 -0.52010422809E+03  0.52822926650E+03  0.00000000000E+00 0.  1.
         22    1    1    2    0    0 -0.78281308923E+02  0.38632728688E+02 -0.41776449315E+01  0.87395101520E+02  0.00000000000E+00 0.  1.
<mgrwt>
<rscale>  0 0.42205352E+03</rscale>
<asrwt>0</asrwt>
<pdfrwt beam="1">  1        2 0.14958127E+00 0.42205352E+03</pdfrwt>
<pdfrwt beam="2">  1       -2 0.70464623E-02 0.42205352E+03</pdfrwt>
<totfact> 0.31628975E+03</totfact>
</mgrwt>
</event>
<event>
 6    1  0.1614874E-005  0.9971726E+03  0.7818608E-02  0.9311651E-01
         -2   -1    0    0    0  501 -0.00000000000E+00  0.00000000000E+00  0.17375650306E+03  0.17375650306E+03  0.00000000000E+00 0.  1.
          2   -1    0    0  501    0  0.00000000000E+00 -0.00000000000E+00 -0.14306706089E+04  0.14306706089E+04  0.00000000000E+00 0. -1.
         23    2    1    2    0    0 -0.23922240917E+03 -0.43285913437E+03 -0.66505197056E+03  0.83313262966E+03  0.84979196255E+02 0.  0.
         13    1    3    3    0    0 -0.79713892845E+02 -0.22660987494E+03 -0.34328727266E+03  0.41898984678E+03  0.00000000000E+00 0. -1.
        -13    1    3    3    0    0 -0.15950851633E+03 -0.20624925942E+03 -0.32176469791E+03  0.41414278288E+03  0.00000000000E+00 0.  1.
         22    1    1    2    0    0  0.23922240917E+03  0.43285913437E+03 -0.59186213531E+03  0.77129448232E+03  0.00000000000E+00 0. -1.
<mgrwt>
<rscale>  0 0.99717265E+03</rscale>
<asrwt>0</asrwt>
<pdfrwt beam="1">  1        2 0.22010317E+00 0.99717265E+03</pdfrwt>
<pdfrwt beam="2">  1       -2 0.26731769E-01 0.99717265E+03</pdfrwt>
<totfact> 0.17598760E+02</totfact>
</mgrwt>
</event>
<event>
 6    1  0.1614874E-005  0.3410812E+03  0.7818608E-02  0.1066336E+00
          2   -1    0    0  501    0  0.00000000000E+00  0.00000000000E+00  0.38667841596E+03  0.38667841596E+03  0.00000000000E+00 0. -1.
         -2   -1    0    0    0  501 -0.00000000000E+00 -0.00000000000E+00 -0.75215217164E+02  0.75215217164E+02  0.00000000000E+00 0.  1.
         23    2    1    2    0    0 -0.10018033868E+02  0.80690507505E+02 -0.17987891624E+02  0.12255701561E+03  0.89918512150E+02 0.  0.
         13    1    3    3    0    0  0.18202577737E+02  0.49792552825E+02 -0.47635747427E+02  0.71272691727E+02  0.00000000000E+00 0. -1.
        -13    1    3    3    0    0 -0.28220611606E+02  0.30897954680E+02  0.29647855803E+02  0.51284323887E+02  0.00000000000E+00 0.  1.
         22    1    1    2    0    0  0.10018033868E+02 -0.80690507505E+02  0.32945109042E+03  0.33933661751E+03  0.00000000000E+00 0. -1.
<mgrwt>
<rscale>  0 0.34108123E+03</rscale>
<asrwt>0</asrwt>
<pdfrwt beam="1">  1        2 0.59488986E-01 0.34108123E+03</pdfrwt>
<pdfrwt beam="2">  1       -2 0.11571572E-01 0.34108123E+03</pdfrwt>
<totfact> 0.43577652E+03</totfact>
</mgrwt>
</event>
<event>
 6    1  0.1614874E-005  0.2559203E+04  0.7818608E-02  0.8382192E-01
         -3   -1    0    0    0  501 -0.00000000000E+00  0.00000000000E+00  0.22295991676E+04  0.22295991676E+04  0.00000000000E+00 0.  1.
          3   -1    0    0  501    0  0.00000000000E+00 -0.00000000000E+00 -0.73438326016E+03  0.73438326016E+03  0.00000000000E+00 0. -1.
         23    2    1    2    0    0 -0.12567361718E+04 -0.17895969763E+03  0.92021615654E+03  0.15704125184E+04  0.89360641398E+02 0.  0.
         11    1    3    3    0    0 -0.21220936115E+03 -0.64141966545E+02  0.15527784851E+03  0.27066254833E+03  0.00000000000E+00 0.  1.
        -11    1    3    3    0    0 -0.10445268106E+04 -0.11481773109E+03  0.76493830804E+03  0.12997499700E+04  0.00000000000E+00 0. -1.
         22    1    1    2    0    0  0.12567361718E+04  0.17895969763E+03  0.57499975094E+03  0.13935699094E+04  0.00000000000E+00 0. -1.
<mgrwt>
<rscale>  0 0.25592032E+04</rscale>
<asrwt>0</asrwt>
<pdfrwt beam="1">  1        3 0.11298204E+00 0.25592032E+04</pdfrwt>
<pdfrwt beam="2">  1       -3 0.34301525E+00 0.25592032E+04</pdfrwt>
<totfact> 0.33127899E-02</totfact>
</mgrwt>
</event>
<event>
 6    1  0.1614874E-005  0.1050576E+04  0.7818608E-02  0.9254750E-01
          1   -1    0    0  501    0  0.00000000000E+00  0.00000000000E+00  0.14755333795E+04  0.14755333795E+04  0.00000000000E+00 0. -1.
         -1   -1    0    0    0  501 -0.00000000000E+00 -0.00000000000E+00 -0.18700183963E+03  0.18700183963E+03  0.00000000000E+00 0.  1.
         23    2    1    2    0    0 -0.19600532284E+03 -0.16974446429E+03 -0.67219492807E+02  0.28221202061E+03  0.88847592119E+02 0.  0.
         11    1    3    3    0    0 -0.40763049795E+02 -0.75788766502E+02 -0.50989274886E+02  0.10002734381E+03  0.00000000000E+00 0.  1.
        -11    1    3    3    0    0 -0.15524227305E+03 -0.93955697792E+02 -0.16230217920E+02  0.18218467680E+03  0.00000000000E+00 0. -1.
         22    1    1    2    0    0  0.19600532284E+03  0.16974446429E+03  0.13557510326E+04  0.13803231985E+04  0.00000000000E+00 0. -1.
<mgrwt>
<rscale>  0 0.10505759E+04</rscale>
<asrwt>0</asrwt>
<pdfrwt beam="1">  1        1 0.22700513E+00 0.10505759E+04</pdfrwt>
<pdfrwt beam="2">  1       -1 0.28769515E-01 0.10505759E+04</pdfrwt>
<totfact> 0.74651759E+01</totfact>
</mgrwt>
</event>
<event>
 6    1  0.1614874E-005  0.9820968E+03  0.7818608E-02  0.9328402E-01
         -2   -1    0    0    0  501 -0.00000000000E+00  0.00000000000E+00  0.19211864155E+03  0.19211864155E+03  0.00000000000E+00 0.  1.
          2   -1    0    0  501    0  0.00000000000E+00 -0.00000000000E+00 -0.12551021450E+04  0.12551021450E+04  0.00000000000E+00 0. -1.
         23    2    1    2    0    0  0.40069567086E+03  0.99728101750E+02 -0.91596760947E+03  0.10089099517E+04  0.91651044850E+02 0.  0.
         13    1    3    3    0    0  0.27001877514E+03  0.69660066067E+02 -0.50847619252E+03  0.57992301393E+03  0.00000000000E+00 0.  1.
        -13    1    3    3    0    0  0.13067689572E+03  0.30068035683E+02 -0.40749141695E+03  0.42898693772E+03  0.00000000000E+00 0. -1.
         22    1    1    2    0    0 -0.40069567086E+03 -0.99728101750E+02 -0.14701589402E+03  0.43831083493E+03  0.00000000000E+00 0.  1.
<mgrwt>
<rscale>  0 0.98209678E+03</rscale>
<asrwt>0</asrwt>
<pdfrwt beam="1">  1        2 0.19309263E+00 0.98209678E+03</pdfrwt>
<pdfrwt beam="2">  1       -2 0.29556715E-01 0.98209678E+03</pdfrwt>
<totfact> 0.18478734E+02</totfact>
</mgrwt>
</event>
<event>
 6    1  0.1614874E-005  0.2441780E+04  0.7818608E-02  0.8424025E-01
          2   -1    0    0  501    0  0.00000000000E+00  0.00000000000E+00  0.20130164401E+04  0.20130164401E+04  0.00000000000E+00 0. -1.
         -2   -1    0    0    0  501 -0.00000000000E+00 -0.00000000000E+00 -0.74046729728E+03  0.74046729728E+03  0.00000000000E+00 0.  1.
         23    2    1    2    0    0  0.53406525173E+03 -0.67595015938E+03 -0.33535806865E+03  0.92934012686E+03  0.95256107952E+02 0.  0.
         13    1    3    3    0    0  0.31538837213E+03 -0.45664596418E+03 -0.18438668744E+03  0.58480237036E+03  0.00000000000E+00 0.  1.
        -13    1    3    3    0    0  0.21867687960E+03 -0.21930419521E+03 -0.15097138122E+03  0.34453775650E+03  0.00000000000E+00 0. -1.
         22    1    1    2    0    0 -0.53406525173E+03  0.67595015938E+03  0.16079072115E+04  0.18241436105E+04  0.00000000000E+00 0. -1.
<mgrwt>
<rscale>  0 0.24417804E+04</rscale>
<asrwt>0</asrwt>
<pdfrwt beam="1">  1        2 0.30969484E+00 0.24417804E+04</pdfrwt>
<pdfrwt beam="2">  1       -2 0.11391805E+00 0.24417804E+04</pdfrwt>
<totfact> 0.35530238E+00</totfact>
</mgrwt>
</event>
<event>
 6    1  0.1614874E-005  0.2941486E+04  0.7818608E-02  0.8260640E-01
         -1   -1    0    0    0  501 -0.00000000000E+00  0.00000000000E+00  0.19620499983E+04  0.19620499983E+04  0.00000000000E+00 0.  1.
          1   -1    0    0  501    0  0.00000000000E+00 -0.00000000000E+00 -0.11024615004E+04  0.11024615004E+04  0.00000000000E+00 0. -1.
         23    2    1    2    0    0 -0.21244034510E+03  0.12346917667E+04 -0.36957501914E+03  0.13093939498E+04  0.91280676167E+02 0.  0.
         11    1    3    3    0    0 -0.13587628636E+03  0.99188829598E+03 -0.28104463088E+03  0.10398513555E+04  0.00000000000E+00 0. -1.
        -11    1    3    3    0    0 -0.76564058743E+02  0.24280347074E+03 -0.88530388259E+02  0.26954259430E+03  0.00000000000E+00 0.  1.
         22    1    1    2    0    0  0.21244034510E+03 -0.12346917667E+04  0.12291635170E+04  0.17551175489E+04  0.00000000000E+00 0.  1.
<mgrwt>
<rscale>  0 0.29414857E+04</rscale>
<asrwt>0</asrwt>
<pdfrwt beam="1">  1        1 0.16960946E+00 0.29414857E+04</pdfrwt>
<pdfrwt beam="2">  1       -1 0.30185385E+00 0.29414857E+04</pdfrwt>
<totfact> 0.34683456E-01</totfact>
</mgrwt>
</event>
<event>
 6    1  0.1614874E-005  0.6741325E+03  0.7818608E-02  0.9762521E-01
          2   -1    0    0  501    0  0.00000000000E+00  0.00000000000E+00  0.10041299570E+04  0.10041299570E+04  0.00000000000E+00 0. -1.
         -2   -1    0    0    0  501 -0.00000000000E+00 -0.00000000000E+00 -0.11314636277E+03  0.11314636277E+03  0.00000000000E+00 0.  1.
         23    2    1    2    0    0  0.29815296524E+02  0.32673838092E+03  0.52373581615E+03  0.62481530408E+03  0.91913207014E+02 0.  0.
         13    1    3    3    0    0 -0.22537629501E+02  0.10723593175E+03  0.12158146382E+03  0.16367511156E+03  0.00000000000E+00 0.  1.
        -13    1    3    3    0    0  0.52352926025E+02  0.21950244917E+03  0.40215435233E+03  0.46114019251E+03  0.00000000000E+00 0. -1.
         22    1    1    2    0    0 -0.29815296524E+02 -0.32673838092E+03  0.36724777808E+03  0.49246101569E+03  0.00000000000E+00 0. -1.
<mgrwt>
<rscale>  0 0.67413249E+03</rscale>
<asrwt>0</asrwt>
<pdfrwt beam="1">  1        2 0.15448153E+00 0.67413249E+03</pdfrwt>
<pdfrwt beam="2">  1       -2 0.17407133E-01 0.67413249E+03</pdfrwt>
<totfact> 0.68526515E+02</totfact>
</mgrwt>
</event>
<event>
 6    1  0.1657861E-005  0.3072740E+04  0.7818608E-02  0.8223259E-01
          2   -1    0    0  501    0  0.00000000000E+00  0.00000000000E+00  0.19801650398E+04  0.19801650398E+04  0.00000000000E+00 0. -1.
         -2   -1    0    0    0  501 -0.00000000000E+00 -0.00000000000E+00 -0.11920386952E+04  0.11920386952E+04  0.00000000000E+00 0.  1.
         23    2    1    2    0    0 -0.60475187111E+03  0.12848418692E+04 -0.20649356074E+03  0.14384758986E+04  0.10014921882E+03 0.  0.
         13    1    3    3    0    0 -0.22367004527E+03  0.58211006499E+03 -0.70385602208E+02  0.62756238727E+03  0.00000000000E+00 0. -1.
        -13    1    3    3    0    0 -0.38108182584E+03  0.70273180416E+03 -0.13610795853E+03  0.81091351138E+03  0.00000000000E+00 0.  1.
         22    1    1    2    0    0  0.60475187111E+03 -0.12848418692E+04  0.99461990533E+03  0.17337278363E+04  0.00000000000E+00 0. -1.
<mgrwt>
<rscale>  0 0.30727404E+04</rscale>
<asrwt>0</asrwt>
<pdfrwt beam="1">  1        2 0.30464078E+00 0.30727404E+04</pdfrwt>
<pdfrwt beam="2">  1       -2 0.18339057E+00 0.30727404E+04</pdfrwt>
<totfact> 0.10022079E+00</totfact>
</mgrwt>
</event>
<event>
 6    1  0.1614874E-005  0.2889513E+04  0.7818608E-02  0.8276005E-01
         -1   -1    0    0    0  501 -0.00000000000E+00  0.00000000000E+00  0.16967856829E+04  0.16967856829E+04  0.00000000000E+00 0.  1.
          1   -1    0    0  501    0  0.00000000000E+00 -0.00000000000E+00 -0.12301619471E+04  0.12301619471E+04  0.00000000000E+00 0. -1.
         23    2    1    2    0    0  0.71889302145E+03 -0.18882283619E+03  0.14867852584E+04  0.16647310196E+04  0.91311134729E+02 0.  0.
         11    1    3    3    0    0  0.23765706279E+03 -0.10731133976E+03  0.51301984921E+03  0.57548759223E+03  0.00000000000E+00 0. -1.
        -11    1    3    3    0    0  0.48123595865E+03 -0.81511496431E+02  0.97376540915E+03  0.10892434273E+04  0.00000000000E+00 0.  1.
         22    1    1    2    0    0 -0.71889302145E+03  0.18882283619E+03 -0.10201615225E+04  0.12622166105E+04  0.00000000000E+00 0. -1.
<mgrwt>
<rscale>  0 0.28895129E+04</rscale>
<asrwt>0</asrwt>
<pdfrwt beam="1">  1        1 0.18925568E+00 0.28895129E+04</pdfrwt>
<pdfrwt beam="2">  1       -1 0.26104395E+00 0.28895129E+04</pdfrwt>
<totfact> 0.51548020E-01</totfact>
</mgrwt>
</event>
<event>
 6    1  0.1614874E-005  0.1667916E+04  0.7818608E-02  0.8779878E-01
          1   -1    0    0  501    0  0.00000000000E+00  0.00000000000E+00  0.20172423271E+04  0.20172423271E+04  0.00000000000E+00 0. -1.
         -1   -1    0    0    0  501 -0.00000000000E+00 -0.00000000000E+00 -0.34477060424E+03  0.34477060424E+03  0.00000000000E+00 0.  1.
         23    2    1    2    0    0  0.94115165887E+02 -0.82611789372E+03  0.84923687291E+03  0.11919513701E+04  0.90644159847E+02 0.  0.
         11    1    3    3    0    0  0.46955852310E+02 -0.67959627363E+03  0.66665837232E+03  0.95314706766E+03  0.00000000000E+00 0. -1.
        -11    1    3    3    0    0  0.47159313577E+02 -0.14652162009E+03  0.18257850059E+03  0.23880430249E+03  0.00000000000E+00 0.  1.
         22    1    1    2    0    0 -0.94115165887E+02  0.82611789372E+03  0.82323484992E+03  0.11700615612E+04  0.00000000000E+00 0. -1.
<mgrwt>
<rscale>  0 0.16679159E+04</rscale>
<asrwt>0</asrwt>
<pdfrwt beam="1">  1        1 0.31034497E+00 0.16679159E+04</pdfrwt>
<pdfrwt beam="2">  1       -1 0.53041633E-01 0.16679159E+04</pdfrwt>
<totfact> 0.99233689E+00</totfact>
</mgrwt>
</event>
<event>
 6    1  0.1614874E-005  0.9913177E+03  0.7818608E-02  0.9318119E-01
          2   -1    0    0  501    0  0.00000000000E+00  0.00000000000E+00  0.11798035969E+04  0.11798035969E+04  0.00000000000E+00 0. -1.
         -2   -1    0    0    0  501 -0.00000000000E+00 -0.00000000000E+00 -0.20823610419E+03  0.20823610419E+03  0.00000000000E+00 0.  1.
         23    2    1    2    0    0  0.47631573008E+03  0.94056068638E+02  0.38367837163E+03  0.62558521887E+03  0.91785371638E+02 0.  0.
         13    1    3    3    0    0  0.62841465407E+02  0.42460598593E+02  0.78090068274E+02  0.10885775567E+03  0.00000000000E+00 0. -1.
        -13    1    3    3    0    0  0.41347426467E+03  0.51595470045E+02  0.30558830336E+03  0.51672746320E+03  0.00000000000E+00 0.  1.
         22    1    1    2    0    0 -0.47631573008E+03 -0.94056068638E+02  0.58788912112E+03  0.76245448225E+03  0.00000000000E+00 0.  1.
<mgrwt>
<rscale>  0 0.99131772E+03</rscale>
<asrwt>0</asrwt>
<pdfrwt beam="1">  1        2 0.18150824E+00 0.99131772E+03</pdfrwt>
<pdfrwt beam="2">  1       -2 0.32036324E-01 0.99131772E+03</pdfrwt>
<totfact> 0.17608891E+02</totfact>
</mgrwt>
</event>
<event>
 6    1  0.1614874E-005  0.2273683E+04  0.7818608E-02  0.8488370E-01
          1   -1    0    0  501    0  0.00000000000E+00  0.00000000000E+00  0.13652866171E+04  0.13652866171E+04  0.00000000000E+00 0. -1.
         -1   -1    0    0    0  501 -0.00000000000E+00 -0.00000000000E+00 -0.94662071185E+03  0.94662071185E+03  0.00000000000E+00 0.  1.
         23    2    1    2    0    0  0.66988063488E+03  0.91416642660E+03  0.27175293483E+03  0.11690933715E+04  0.92137576940E+02 0.  0.
         13    1    3    3    0    0  0.12968300188E+03  0.15761294136E+03  0.14923148107E+02  0.20465146129E+03  0.00000000000E+00 0.  1.
        -13    1    3    3    0    0  0.54019763300E+03  0.75655348524E+03  0.25682978672E+03  0.96444191016E+03  0.00000000000E+00 0. -1.
         22    1    1    2    0    0 -0.66988063488E+03 -0.91416642660E+03  0.14691297039E+03  0.11428139575E+04  0.00000000000E+00 0.  1.
<mgrwt>
<rscale>  0 0.22736830E+04</rscale>
<asrwt>0</asrwt>
<pdfrwt beam="1">  1        1 0.21004409E+00 0.22736830E+04</pdfrwt>
<pdfrwt beam="2">  1       -1 0.14563396E+00 0.22736830E+04</pdfrwt>
<totfact> 0.27812314E+00</totfact>
</mgrwt>
</event>
<event>
 6    1  0.1614874E-005  0.2017675E+04  0.7818608E-02  0.8598401E-01
          1   -1    0    0  501    0  0.00000000000E+00  0.00000000000E+00  0.31348451738E+04  0.31348451738E+04  0.00000000000E+00 0. -1.
         -1   -1    0    0    0  501 -0.00000000000E+00 -0.00000000000E+00 -0.32465830424E+03  0.32465830424E+03  0.00000000000E+00 0.  1.
         23    2    1    2    0    0  0.48500486703E+03  0.82869271122E+03  0.19271783074E+04  0.21550244818E+04  0.90293732594E+02 0.  0.
         13    1    3    3    0    0  0.36030803603E+03  0.60272504357E+03  0.14937796814E+04  0.16505990111E+04  0.00000000000E+00 0. -1.
        -13    1    3    3    0    0  0.12469683100E+03  0.22596766765E+03  0.43339862600E+03  0.50442547071E+03  0.00000000000E+00 0.  1.
         22    1    1    2    0    0 -0.48500486703E+03 -0.82869271122E+03  0.88300856220E+03  0.13044789962E+04  0.00000000000E+00 0.  1.
<mgrwt>
<rscale>  0 0.20176754E+04</rscale>
<asrwt>0</asrwt>
<pdfrwt beam="1">  1        1 0.48228385E+00 0.20176754E+04</pdfrwt>
<pdfrwt beam="2">  1       -1 0.49947434E-01 0.20176754E+04</pdfrwt>
<totfact> 0.17755340E+00</totfact>
</mgrwt>
</event>
<event>
 6    1  0.1614874E-005  0.1572750E+04  0.7818608E-02  0.8837466E-01
         -2   -1    0    0    0  501 -0.00000000000E+00  0.00000000000E+00  0.93605225625E+03  0.93605225625E+03  0.00000000000E+00 0.  1.
          2   -1    0    0  501    0  0.00000000000E+00 -0.00000000000E+00 -0.66063122213E+03  0.66063122213E+03  0.00000000000E+00 0. -1.
         23    2    1    2    0    0 -0.54105016836E+03 -0.56626050437E+03  0.16781869194E+03  0.80613651106E+03  0.91141195960E+02 0.  0.
         13    1    3    3    0    0 -0.20343191998E+03 -0.20446616839E+03  0.17517595912E+02  0.28895990422E+03  0.00000000000E+00 0.  1.
        -13    1    3    3    0    0 -0.33761824838E+03 -0.36179433599E+03  0.15030109603E+03  0.51717660684E+03  0.00000000000E+00 0. -1.
         22    1    1    2    0    0  0.54105016836E+03  0.56626050437E+03  0.10760234217E+03  0.79054696732E+03  0.00000000000E+00 0.  1.
<mgrwt>
<rscale>  0 0.15727496E+04</rscale>
<asrwt>0</asrwt>
<pdfrwt beam="1">  1        2 0.10163557E+00 0.15727496E+04</pdfrwt>
<pdfrwt beam="2">  1       -2 0.14400804E+00 0.15727496E+04</pdfrwt>
<totfact> 0.14119382E+01</totfact>
</mgrwt>
</event>
<event>
 6    1  0.1614874E-005  0.2401947E+04  0.7818608E-02  0.8438775E-01
         -1   -1    0    0    0  501 -0.00000000000E+00  0.00000000000E+00  0.43983137677E+03  0.43983137677E+03  0.00000000000E+00 0.  1.
          1   -1    0    0  501    0  0.00000000000E+00 -0.00000000000E+00 -0.32792948310E+04  0.32792948310E+04  0.00000000000E+00 0. -1.
         23    2    1    2    0    0  0.27716088874E+03 -0.11113345279E+04 -0.19723093376E+04  0.22825194929E+04  0.89490339227E+02 0.  0.
         13    1    3    3    0    0  0.71005039602E+02 -0.18158571140E+03 -0.29223456924E+03  0.35130631889E+03  0.00000000000E+00 0.  1.
        -13    1    3    3    0    0  0.20615584914E+03 -0.92974881654E+03 -0.16800747684E+04  0.19312131740E+04  0.00000000000E+00 0. -1.
         22    1    1    2    0    0 -0.27716088874E+03  0.11113345279E+04 -0.86715411654E+03  0.14366067148E+04  0.00000000000E+00 0. -1.
<mgrwt>
<rscale>  0 0.24019465E+04</rscale>
<asrwt>0</asrwt>
<pdfrwt beam="1">  1        1 0.50450688E+00 0.24019465E+04</pdfrwt>
<pdfrwt beam="2">  1       -1 0.67666368E-01 0.24019465E+04</pdfrwt>
<totfact> 0.73442311E-01</totfact>
</mgrwt>
</event>
<event>
 6    1  0.1614874E-005  0.2172199E+04  0.7818608E-02  0.8530089E-01
         -1   -1    0    0    0  501 -0.00000000000E+00  0.00000000000E+00  0.75865563102E+03  0.75865563102E+03  0.00000000000E+00 0.  1.
          1   -1    0    0  501    0  0.00000000000E+00 -0.00000000000E+00 -0.15548715142E+04  0.15548715142E+04  0.00000000000E+00 0. -1.
         23    2    1    2    0    0 -0.73217809492E+03  0.79587232943E+03 -0.31385202778E+03  0.11293935310E+04  0.86770530624E+02 0.  0.
         11    1    3    3    0    0 -0.37269888533E+03  0.46684042912E+03 -0.18408328811E+03  0.62508487612E+03  0.00000000000E+00 0. -1.
        -11    1    3    3    0    0 -0.35947920959E+03  0.32903190031E+03 -0.12976873967E+03  0.50430865484E+03  0.00000000000E+00 0.  1.
         22    1    1    2    0    0  0.73217809492E+03 -0.79587232943E+03 -0.48236385541E+03  0.11841336143E+04  0.00000000000E+00 0.  1.
<mgrwt>
<rscale>  0 0.21721989E+04</rscale>
<asrwt>0</asrwt>
<pdfrwt beam="1">  1        1 0.23921100E+00 0.21721989E+04</pdfrwt>
<pdfrwt beam="2">  1       -1 0.11671625E+00 0.21721989E+04</pdfrwt>
<totfact> 0.36283063E+00</totfact>
</mgrwt>
</event>
<event>
 6    1  0.1614874E-005  0.1640415E+04  0.7818608E-02  0.8796097E-01
         -1   -1    0    0    0  501 -0.00000000000E+00  0.00000000000E+00  0.14730728333E+04  0.14730728333E+04  0.00000000000E+00 0.  1.
          1   -1    0    0  501    0  0.00000000000E+00 -0.00000000000E+00 -0.45669161681E+03  0.45669161681E+03  0.00000000000E+00 0. -1.
         23    2    1    2    0    0 -0.18351212341E+03  0.61951764932E+03  0.10991128534E+04  0.12783633900E+04  0.93193750843E+02 0.  0.
         13    1    3    3    0    0 -0.11717594759E+03  0.24064056690E+03  0.47621758279E+03  0.54627948094E+03  0.00000000000E+00 0.  1.
        -13    1    3    3    0    0 -0.66336175819E+02  0.37887708241E+03  0.62289527062E+03  0.73208390910E+03  0.00000000000E+00 0. -1.
         22    1    1    2    0    0  0.18351212341E+03 -0.61951764932E+03 -0.82731636959E+02  0.65140106003E+03  0.00000000000E+00 0. -1.
<mgrwt>
<rscale>  0 0.16404146E+04</rscale>
<asrwt>0</asrwt>
<pdfrwt beam="1">  1        1 0.70260249E-01 0.16404146E+04</pdfrwt>
<pdfrwt beam="2">  1       -1 0.22662659E+00 0.16404146E+04</pdfrwt>
<totfact> 0.47701781E+00</totfact>
</mgrwt>
</event>
<event>
 6    1  0.1614874E-005  0.1970384E+04  0.7818608E-02  0.8620594E-01
         -2   -1    0    0    0  501 -0.00000000000E+00  0.00000000000E+00  0.21311436526E+04  0.21311436526E+04  0.00000000000E+00 0.  1.
          2   -1    0    0  501    0  0.00000000000E+00 -0.00000000000E+00 -0.45543762567E+03  0.45543762567E+03  0.00000000000E+00 0. -1.
         23    2    1    2    0    0  0.93782393376E+02  0.20594289121E+03  0.20955184274E+04  0.21096640284E+04  0.90979235847E+02 0.  0.
         13    1    3    3    0    0  0.80893428425E+01 -0.76215524615E+01  0.18567792344E+03  0.18601025989E+03  0.00000000000E+00 0. -1.
        -13    1    3    3    0    0  0.85693050533E+02  0.21356444367E+03  0.19098405040E+04  0.19236537685E+04  0.00000000000E+00 0.  1.
         22    1    1    2    0    0 -0.93782393376E+02 -0.20594289121E+03 -0.41981240042E+03  0.47691724994E+03  0.00000000000E+00 0. -1.
<mgrwt>
<rscale>  0 0.19703837E+04</rscale>
<asrwt>0</asrwt>
<pdfrwt beam="1">  1        2 0.70067328E-01 0.19703837E+04</pdfrwt>
<pdfrwt beam="2">  1       -2 0.32786825E+00 0.19703837E+04</pdfrwt>
<totfact> 0.13698801E+00</totfact>
</mgrwt>
</event>
<event>
 6    1  0.1614874E-005  0.3108386E+04  0.7818608E-02  0.8213440E-01
          2   -1    0    0  501    0  0.00000000000E+00  0.00000000000E+00  0.16310324072E+04  0.16310324072E+04  0.00000000000E+00 0. -1.
         -2   -1    0    0    0  501 -0.00000000000E+00 -0.00000000000E+00 -0.14809738408E+04  0.14809738408E+04  0.00000000000E+00 0.  1.
         23    2    1    2    0    0  0.11838774551E+04 -0.80532987923E+03  0.67690160146E+03  0.15863307823E+04  0.90152812850E+02 0.  0.
         13    1    3    3    0    0  0.99731068909E+03 -0.69539812229E+03  0.60601534948E+03  0.13584777373E+04  0.00000000000E+00 0.  1.
        -13    1    3    3    0    0  0.18656676605E+03 -0.10993175694E+03  0.70886251978E+02  0.22785304496E+03  0.00000000000E+00 0. -1.
         22    1    1    2    0    0 -0.11838774551E+04  0.80532987923E+03 -0.52684303510E+03  0.15256754658E+04  0.00000000000E+00 0.  1.
<mgrwt>
<rscale>  0 0.31083863E+04</rscale>
<asrwt>0</asrwt>
<pdfrwt beam="1">  1        2 0.25092806E+00 0.31083863E+04</pdfrwt>
<pdfrwt beam="2">  1       -2 0.22784213E+00 0.31083863E+04</pdfrwt>
<totfact> 0.80190892E-01</totfact>
</mgrwt>
</event>
<event>
 6    1  0.1614874E-005  0.2584897E+04  0.7818608E-02  0.8373349E-01
         -2   -1    0    0    0  501 -0.00000000000E+00  0.00000000000E+00  0.73883053785E+03  0.73883053785E+03  0.00000000000E+00 0.  1.
          2   -1    0    0  501    0  0.00000000000E+00 -0.00000000000E+00 -0.22609019959E+04  0.22609019959E+04  0.00000000000E+00 0. -1.
         23    2    1    2    0    0  0.79787941465E+03 -0.31448994549E+03  0.35783343424E+03  0.93344168051E+03  0.88051792269E+02 0.  0.
         11    1    3    3    0    0  0.64855151318E+03 -0.28295504946E+03  0.31765322520E+03  0.77561987902E+03  0.00000000000E+00 0. -1.
        -11    1    3    3    0    0  0.14932790147E+03 -0.31534896023E+02  0.40180209040E+02  0.15782180148E+03  0.00000000000E+00 0.  1.
         22    1    1    2    0    0 -0.79787941465E+03  0.31448994549E+03 -0.18799048923E+04  0.20662908533E+04  0.00000000000E+00 0. -1.
<mgrwt>
<rscale>  0 0.25848972E+04</rscale>
<asrwt>0</asrwt>
<pdfrwt beam="1">  1        2 0.34783107E+00 0.25848972E+04</pdfrwt>
<pdfrwt beam="2">  1       -2 0.11366624E+00 0.25848972E+04</pdfrwt>
<totfact> 0.25631497E+00</totfact>
</mgrwt>
</event>
<event>
 6    1  0.1614874E-005  0.2213612E+04  0.7818608E-02  0.8512784E-01
          2   -1    0    0  501    0  0.00000000000E+00  0.00000000000E+00  0.24574597482E+04  0.24574597482E+04  0.00000000000E+00 0.  1.
         -2   -1    0    0    0  501 -0.00000000000E+00 -0.00000000000E+00 -0.49849033707E+03  0.49849033707E+03  0.00000000000E+00 0. -1.
         23    2    1    2    0    0  0.87178259003E+03 -0.43050433724E+03  0.16820663947E+04  0.19450029307E+04  0.91379296482E+02 0.  0.
         11    1    3    3    0    0  0.53628994099E+03 -0.31197111642E+03  0.10447384948E+04  0.12150767057E+04  0.00000000000E+00 0.  1.
        -11    1    3    3    0    0  0.33549264904E+03 -0.11853322082E+03  0.63732789992E+03  0.72992622505E+03  0.00000000000E+00 0. -1.
         22    1    1    2    0    0 -0.87178259003E+03  0.43050433724E+03  0.27690301640E+03  0.10109471545E+04  0.00000000000E+00 0.  1.
<mgrwt>
<rscale>  0 0.22136124E+04</rscale>
<asrwt>0</asrwt>
<pdfrwt beam="1">  1        2 0.37807072E+00 0.22136124E+04</pdfrwt>
<pdfrwt beam="2">  1       -2 0.76690823E-01 0.22136124E+04</pdfrwt>
<totfact> 0.51113690E+00</totfact>
</mgrwt>
</event>
<event>
 6    1  0.1614874E-005  0.4282582E+04  0.7818608E-02  0.7949847E-01
         -2   -1    0    0    0  501 -0.00000000000E+00  0.00000000000E+00  0.37859588135E+04  0.37859588135E+04  0.00000000000E+00 0.  1.
          2   -1    0    0  501    0  0.00000000000E+00 -0.00000000000E+00 -0.12110876003E+04  0.12110876003E+04  0.00000000000E+00 0. -1.
         23    2    1    2    0    0 -0.19844655923E+04 -0.41631852221E+03  0.48875822584E+03  0.20878726145E+04  0.94353866787E+02 0.  0.
         13    1    3    3    0    0 -0.16927557714E+04 -0.33553921151E+03  0.38714569750E+03  0.17685843082E+04  0.00000000000E+00 0. -1.
        -13    1    3    3    0    0 -0.29170982091E+03 -0.80779310692E+02  0.10161252834E+03  0.31928830635E+03  0.00000000000E+00 0.  1.
         22    1    1    2    0    0  0.19844655923E+04  0.41631852221E+03  0.20861129873E+04  0.29091737993E+04  0.00000000000E+00 0. -1.
<mgrwt>
<rscale>  0 0.42825823E+04</rscale>
<asrwt>0</asrwt>
<pdfrwt beam="1">  1        2 0.18632117E+00 0.42825823E+04</pdfrwt>
<pdfrwt beam="2">  1       -2 0.58245520E+00 0.42825823E+04</pdfrwt>
<totfact> 0.86484075E-03</totfact>
</mgrwt>
</event>
<event>
 6    1  0.1614874E-005  0.2933526E+04  0.7818608E-02  0.8262972E-01
          2   -1    0    0  501    0  0.00000000000E+00  0.00000000000E+00  0.29023335459E+04  0.29023335459E+04  0.00000000000E+00 0. -1.
         -2   -1    0    0    0  501 -0.00000000000E+00 -0.00000000000E+00 -0.74126320877E+03  0.74126320877E+03  0.00000000000E+00 0.  1.
         23    2    1    2    0    0 -0.10072162866E+04  0.38737319718E+03  0.23128255546E+04  0.25538388514E+04  0.91587067877E+02 0.  0.
         13    1    3    3    0    0 -0.26957994631E+03  0.14734531111E+03  0.64113977397E+03  0.71094598805E+03  0.00000000000E+00 0. -1.
        -13    1    3    3    0    0 -0.73763634031E+03  0.24002788606E+03  0.16716857806E+04  0.18428928633E+04  0.00000000000E+00 0.  1.
         22    1    1    2    0    0  0.10072162866E+04 -0.38737319718E+03 -0.15175521738E+03  0.10897579033E+04  0.00000000000E+00 0.  1.
<mgrwt>
<rscale>  0 0.29335256E+04</rscale>
<asrwt>0</asrwt>
<pdfrwt beam="1">  1        2 0.44651285E+00 0.29335256E+04</pdfrwt>
<pdfrwt beam="2">  1       -2 0.11404049E+00 0.29335256E+04</pdfrwt>
<totfact> 0.10367382E+00</totfact>
</mgrwt>
</event>
<event>
 6    1  0.1614874E-005  0.1397903E+04  0.7818608E-02  0.8955338E-01
         -1   -1    0    0    0  501 -0.00000000000E+00  0.00000000000E+00  0.14341095444E+03  0.14341095444E+03  0.00000000000E+00 0.  1.
          1   -1    0    0  501    0  0.00000000000E+00 -0.00000000000E+00 -0.34065284039E+04  0.34065284039E+04  0.00000000000E+00 0. -1.
         23    2    1    2    0    0 -0.29570753447E+03 -0.90978143387E+02 -0.32213216059E+04  0.32377425277E+04  0.10170456661E+03 0.  0.
         13    1    3    3    0    0 -0.38367251293E+02 -0.25810689368E+02 -0.91985364869E+03  0.92101518590E+03  0.00000000000E+00 0. -1.
        -13    1    3    3    0    0 -0.25734028318E+03 -0.65167454018E+02 -0.23014679572E+04  0.23167273418E+04  0.00000000000E+00 0.  1.
         22    1    1    2    0    0  0.29570753447E+03  0.90978143387E+02 -0.41795843600E+02  0.31219683064E+03  0.00000000000E+00 0.  1.
<mgrwt>
<rscale>  0 0.13979034E+04</rscale>
<asrwt>0</asrwt>
<pdfrwt beam="1">  1        1 0.52408126E+00 0.13979034E+04</pdfrwt>
<pdfrwt beam="2">  1       -1 0.22063225E-01 0.13979034E+04</pdfrwt>
<totfact> 0.50656500E+00</totfact>
</mgrwt>
</event>
<event>
 6    1  0.1614874E-005  0.1117360E+04  0.7818608E-02  0.9188435E-01
         -2   -1    0    0    0  501 -0.00000000000E+00  0.00000000000E+00  0.31251855568E+03  0.31251855568E+03  0.00000000000E+00 0.  1.
          2   -1    0    0  501    0  0.00000000000E+00 -0.00000000000E+00 -0.99873499680E+03  0.99873499680E+03  0.00000000000E+00 0. -1.
         23    2    1    2    0    0  0.61436998121E+02  0.16243729025E+03 -0.96365894030E+03  0.98393914956E+03  0.96629802990E+02 0.  0.
         11    1    3    3    0    0  0.47355414109E+02  0.14214492596E+02 -0.21396481068E+03  0.21960311303E+03  0.00000000000E+00 0.  1.
        -11    1    3    3    0    0  0.14081584011E+02  0.14822279766E+03 -0.74969412962E+03  0.76433603653E+03  0.00000000000E+00 0. -1.
         22    1    1    2    0    0 -0.61436998121E+02 -0.16243729025E+03  0.27744249917E+03  0.32731440291E+03  0.00000000000E+00 0.  1.
<mgrwt>
<rscale>  0 0.11173598E+04</rscale>
<asrwt>0</asrwt>
<pdfrwt beam="1">  1        2 0.15365154E+00 0.11173598E+04</pdfrwt>
<pdfrwt beam="2">  1       -2 0.48079778E-01 0.11173598E+04</pdfrwt>
<totfact> 0.10254939E+02</totfact>
</mgrwt>
</event>
<event>
 6    1  0.1614874E-005  0.2340044E+04  0.7818608E-02  0.8462298E-01
         -1   -1    0    0    0  501 -0.00000000000E+00  0.00000000000E+00  0.23413408323E+04  0.23413408323E+04  0.00000000000E+00 0.  1.
          1   -1    0    0  501    0  0.00000000000E+00 -0.00000000000E+00 -0.58468679035E+03  0.58468679035E+03  0.00000000000E+00 0. -1.
         23    2    1    2    0    0 -0.20521943810E+03 -0.82942485145E+03  0.18762290572E+04  0.20632653227E+04  0.82266120206E+02 0.  0.
         13    1    3    3    0    0 -0.76453442115E+02 -0.17731859094E+03  0.39109366434E+03  0.43616655740E+03  0.00000000000E+00 0. -1.
        -13    1    3    3    0    0 -0.12876599599E+03 -0.65210626050E+03  0.14851353929E+04  0.16270987653E+04  0.00000000000E+00 0.  1.
         22    1    1    2    0    0  0.20521943810E+03  0.82942485145E+03 -0.11957501530E+03  0.86276229998E+03  0.00000000000E+00 0. -1.
<mgrwt>
<rscale>  0 0.23400436E+04</rscale>
<asrwt>0</asrwt>
<pdfrwt beam="1">  1        1 0.89951815E-01 0.23400436E+04</pdfrwt>
<pdfrwt beam="2">  1       -1 0.36020628E+00 0.23400436E+04</pdfrwt>
<totfact> 0.42580372E-01</totfact>
</mgrwt>
</event>
<event>
 6    1  0.1614874E-005  0.1898240E+04  0.7818608E-02  0.8655733E-01
         -1   -1    0    0    0  501 -0.00000000000E+00  0.00000000000E+00  0.26443009823E+03  0.26443009823E+03  0.00000000000E+00 0.  1.
          1   -1    0    0  501    0  0.00000000000E+00 -0.00000000000E+00 -0.34066814943E+04  0.34066814943E+04  0.00000000000E+00 0. -1.
         23    2    1    2    0    0 -0.10071045539E+03 -0.44674339554E+03 -0.31773028129E+04  0.32118177224E+04  0.10391179056E+03 0.  0.
         13    1    3    3    0    0 -0.39529397514E+02 -0.36677160403E+03 -0.25042261780E+04  0.25312512190E+04  0.00000000000E+00 0.  1.
        -13    1    3    3    0    0 -0.61181057878E+02 -0.79971791506E+02 -0.67307663484E+03  0.68056650348E+03  0.00000000000E+00 0. -1.
         22    1    1    2    0    0  0.10071045539E+03  0.44674339554E+03  0.35051416794E+02  0.45929387009E+03  0.00000000000E+00 0.  1.
<mgrwt>
<rscale>  0 0.18982404E+04</rscale>
<asrwt>0</asrwt>
<pdfrwt beam="1">  1        1 0.52410485E+00 0.18982404E+04</pdfrwt>
<pdfrwt beam="2">  1       -1 0.40681553E-01 0.18982404E+04</pdfrwt>
<totfact> 0.16414180E+00</totfact>
</mgrwt>
</event>
<event>
 6    1  0.1614874E-005  0.2225531E+04  0.7818608E-02  0.8507876E-01
          1   -1    0    0  501    0  0.00000000000E+00  0.00000000000E+00  0.58455559262E+03  0.58455559262E+03  0.00000000000E+00 0. -1.
         -1   -1    0    0    0  501 -0.00000000000E+00 -0.00000000000E+00 -0.21182711016E+04  0.21182711016E+04  0.00000000000E+00 0.  1.
         23    2    1    2    0    0  0.10968364066E+04  0.33753315766E+02 -0.97700825700E+03  0.14723339663E+04  0.95040963512E+02 0.  0.
         13    1    3    3    0    0  0.26370365173E+03 -0.10634351129E+02 -0.18806914397E+03  0.32407207265E+03  0.00000000000E+00 0. -1.
        -13    1    3    3    0    0  0.83313275489E+03  0.44387666894E+02 -0.78893911303E+03  0.11482618936E+04  0.00000000000E+00 0.  1.
         22    1    1    2    0    0 -0.10968364066E+04 -0.33753315766E+02 -0.55670725202E+03  0.12304927280E+04  0.00000000000E+00 0.  1.
<mgrwt>
<rscale>  0 0.22255311E+04</rscale>
<asrwt>0</asrwt>
<pdfrwt beam="1">  1        1 0.89931627E-01 0.22255311E+04</pdfrwt>
<pdfrwt beam="2">  1       -1 0.32588787E+00 0.22255311E+04</pdfrwt>
<totfact> 0.72506253E-01</totfact>
</mgrwt>
</event>
<event>
 6    1  0.1614874E-005  0.1444748E+04  0.7818608E-02  0.8922050E-01
          2   -1    0    0  501    0  0.00000000000E+00  0.00000000000E+00  0.10644597699E+04  0.10644597699E+04  0.00000000000E+00 0. -1.
         -2   -1    0    0    0  501 -0.00000000000E+00 -0.00000000000E+00 -0.49022446752E+03  0.49022446752E+03  0.00000000000E+00 0.  1.
         23    2    1    2    0    0 -0.63098066596E+03 -0.22848540324E+03  0.56699323485E+03  0.88356977043E+03  0.94191456815E+02 0.  0.
         13    1    3    3    0    0 -0.21777660435E+03 -0.32047416916E+02  0.18648166325E+03  0.28849453558E+03  0.00000000000E+00 0.  1.
        -13    1    3    3    0    0 -0.41320406162E+03 -0.19643798632E+03  0.38051157159E+03  0.59507523484E+03  0.00000000000E+00 0. -1.
         22    1    1    2    0    0  0.63098066596E+03  0.22848540324E+03  0.72420675736E+01  0.67111446703E+03  0.00000000000E+00 0. -1.
<mgrwt>
<rscale>  0 0.14447480E+04</rscale>
<asrwt>0</asrwt>
<pdfrwt beam="1">  1        2 0.16376304E+00 0.14447480E+04</pdfrwt>
<pdfrwt beam="2">  1       -2 0.75419149E-01 0.14447480E+04</pdfrwt>
<totfact> 0.35082910E+01</totfact>
</mgrwt>
</event>
<event>
 6    1  0.1614874E-005  0.2019845E+04  0.7818608E-02  0.8597398E-01
          2   -1    0    0  501    0  0.00000000000E+00  0.00000000000E+00  0.18412523501E+04  0.18412523501E+04  0.00000000000E+00 0. -1.
         -2   -1    0    0    0  501 -0.00000000000E+00 -0.00000000000E+00 -0.55393983917E+03  0.55393983917E+03  0.00000000000E+00 0.  1.
         23    2    1    2    0    0  0.28307282903E+03  0.40422216675E+03 -0.39749863724E+03  0.63959702193E+03  0.86910282603E+02 0.  0.
         11    1    3    3    0    0  0.42507518343E+02  0.73517573197E+02 -0.11330796285E+03  0.14159949551E+03  0.00000000000E+00 0. -1.
        -11    1    3    3    0    0  0.24056531069E+03  0.33070459356E+03 -0.28419067439E+03  0.49799752642E+03  0.00000000000E+00 0.  1.
         22    1    1    2    0    0 -0.28307282903E+03 -0.40422216675E+03  0.16848111482E+04  0.17555951674E+04  0.00000000000E+00 0. -1.
<mgrwt>
<rscale>  0 0.20198446E+04</rscale>
<asrwt>0</asrwt>
<pdfrwt beam="1">  1        2 0.28326959E+00 0.20198446E+04</pdfrwt>
<pdfrwt beam="2">  1       -2 0.85221515E-01 0.20198446E+04</pdfrwt>
<totfact> 0.90938113E+00</totfact>
</mgrwt>
</event>
<event>
 6    1  0.1614874E-005  0.5117319E+03  0.7818608E-02  0.1010761E+00
          3   -1    0    0  501    0  0.00000000000E+00  0.00000000000E+00  0.41095580822E+02  0.41095580822E+02  0.00000000000E+00 0.  1.
         -3   -1    0    0    0  501 -0.00000000000E+00 -0.00000000000E+00 -0.15930518330E+04  0.15930518330E+04  0.00000000000E+00 0. -1.
         23    2    1    2    0    0 -0.20528313033E+03  0.28097343025E+02 -0.12315954657E+04  0.12526219785E+04  0.96456236746E+02 0.  0.
         13    1    3    3    0    0 -0.10249190399E+03  0.55134216270E+02 -0.78331711111E+03  0.79191544293E+03  0.00000000000E+00 0.  1.
        -13    1    3    3    0    0 -0.10279122634E+03 -0.27036873244E+02 -0.44827835460E+03  0.46070653558E+03  0.00000000000E+00 0. -1.
         22    1    1    2    0    0  0.20528313033E+03 -0.28097343025E+02 -0.32036078645E+03  0.38152543529E+03  0.00000000000E+00 0.  1.
<mgrwt>
<rscale>  0 0.51173192E+03</rscale>
<asrwt>0</asrwt>
<pdfrwt beam="1">  1        3 0.63223982E-02 0.51173192E+03</pdfrwt>
<pdfrwt beam="2">  1       -3 0.24508485E+00 0.51173192E+03</pdfrwt>
<totfact> 0.34703086E+01</totfact>
</mgrwt>
</event>
<event>
 6    1  0.1614874E-005  0.9713119E+03  0.7818608E-02  0.9340581E-01
         -1   -1    0    0    0  501 -0.00000000000E+00  0.00000000000E+00  0.15044239113E+03  0.15044239113E+03  0.00000000000E+00 0.  1.
          1   -1    0    0  501    0  0.00000000000E+00 -0.00000000000E+00 -0.15677873713E+04  0.15677873713E+04  0.00000000000E+00 0. -1.
         23    2    1    2    0    0 -0.38738665737E+03  0.22022765732E+03 -0.39395450353E+03  0.60203232873E+03  0.93135012884E+02 0.  0.
         11    1    3    3    0    0 -0.22987990935E+03  0.15379151119E+03 -0.18823594162E+03  0.33455847225E+03  0.00000000000E+00 0. -1.
        -11    1    3    3    0    0 -0.15750674802E+03  0.66436146128E+02 -0.20571856191E+03  0.26747385648E+03  0.00000000000E+00 0.  1.
         22    1    1    2    0    0  0.38738665737E+03 -0.22022765732E+03 -0.10233904767E+04  0.11161974337E+04  0.00000000000E+00 0. -1.
<mgrwt>
<rscale>  0 0.97131186E+03</rscale>
<asrwt>0</asrwt>
<pdfrwt beam="1">  1        1 0.24119806E+00 0.97131186E+03</pdfrwt>
<pdfrwt beam="2">  1       -1 0.23144983E-01 0.97131186E+03</pdfrwt>
<totfact> 0.94311266E+01</totfact>
</mgrwt>
</event>
<event>
 6    1  0.1614874E-005  0.1340851E+04  0.7818608E-02  0.8997783E-01
          3   -1    0    0  501    0  0.00000000000E+00  0.00000000000E+00  0.12462233317E+04  0.12462233317E+04  0.00000000000E+00 0. -1.
         -3   -1    0    0    0  501 -0.00000000000E+00 -0.00000000000E+00 -0.36066582066E+03  0.36066582066E+03  0.00000000000E+00 0.  1.
         23    2    1    2    0    0 -0.17478849418E+03 -0.34553583076E+03  0.10962640544E+04  0.11660453303E+04  0.88998917841E+02 0.  0.
         11    1    3    3    0    0 -0.22933409763E+02 -0.11848584106E+03  0.26845642582E+03  0.29433601272E+03  0.00000000000E+00 0. -1.
        -11    1    3    3    0    0 -0.15185508441E+03 -0.22704998970E+03  0.82780762854E+03  0.87170931758E+03  0.00000000000E+00 0.  1.
         22    1    1    2    0    0  0.17478849418E+03  0.34553583076E+03 -0.21070654333E+03  0.44084382205E+03  0.00000000000E+00 0.  1.
<mgrwt>
<rscale>  0 0.13408507E+04</rscale>
<asrwt>0</asrwt>
<pdfrwt beam="1">  1        3 0.19172666E+00 0.13408507E+04</pdfrwt>
<pdfrwt beam="2">  1       -3 0.55487050E-01 0.13408507E+04</pdfrwt>
<totfact> 0.13640985E+00</totfact>
</mgrwt>
</event>
<event>
 6    1  0.1614874E-005  0.4157609E+04  0.7818608E-02  0.7973485E-01
         -3   -1    0    0    0  501 -0.00000000000E+00  0.00000000000E+00  0.37733246874E+04  0.37733246874E+04  0.00000000000E+00 0.  1.
          3   -1    0    0  501    0  0.00000000000E+00 -0.00000000000E+00 -0.11452577022E+04  0.11452577022E+04  0.00000000000E+00 0. -1.
         23    2    1    2    0    0 -0.11361444818E+04  0.17146406030E+04  0.96744186132E+03  0.22750066894E+04  0.94313312469E+02 0.  0.
         13    1    3    3    0    0 -0.93170336526E+03  0.13532187308E+04  0.74543295237E+03  0.18041458867E+04  0.00000000000E+00 0.  1.
        -13    1    3    3    0    0 -0.20444111658E+03  0.36142187219E+03  0.22200890895E+03  0.47086080268E+03  0.00000000000E+00 0. -1.
         22    1    1    2    0    0  0.11361444818E+04 -0.17146406030E+04  0.16606251238E+04  0.26435757002E+04  0.00000000000E+00 0. -1.
<mgrwt>
<rscale>  0 0.41576095E+04</rscale>
<asrwt>0</asrwt>
<pdfrwt beam="1">  1        3 0.17619349E+00 0.41576095E+04</pdfrwt>
<pdfrwt beam="2">  1       -3 0.58051148E+00 0.41576095E+04</pdfrwt>
<totfact> 0.48553305E-04</totfact>
</mgrwt>
</event>
<event>
 6    1  0.1614874E-005  0.1540437E+04  0.7818608E-02  0.8858000E-01
          4   -1    0    0  501    0  0.00000000000E+00  0.00000000000E+00  0.13740219021E+04  0.13740219021E+04  0.00000000000E+00 0.  1.
         -4   -1    0    0    0  501 -0.00000000000E+00 -0.00000000000E+00 -0.43175161686E+03  0.43175161686E+03  0.00000000000E+00 0. -1.
         23    2    1    2    0    0 -0.71040367306E+03  0.24793242250E+03  0.29510503117E+03  0.81331861778E+03  0.90864348174E+02 0.  0.
         13    1    3    3    0    0 -0.17203503607E+03  0.89888856550E+02  0.10637648768E+03  0.22134140440E+03  0.00000000000E+00 0. -1.
        -13    1    3    3    0    0 -0.53836863699E+03  0.15804356595E+03  0.18872854349E+03  0.59197721338E+03  0.00000000000E+00 0.  1.
         22    1    1    2    0    0  0.71040367306E+03 -0.24793242250E+03  0.64716525408E+03  0.99245490120E+03  0.00000000000E+00 0.  1.
<mgrwt>
<rscale>  0 0.15404365E+04</rscale>
<asrwt>0</asrwt>
<pdfrwt beam="1">  1        4 0.21138798E+00 0.15404365E+04</pdfrwt>
<pdfrwt beam="2">  1       -4 0.66423326E-01 0.15404365E+04</pdfrwt>
<totfact> 0.44902545E-01</totfact>
</mgrwt>
</event>
<event>
 6    1  0.1614874E-005  0.7198052E+03  0.7818608E-02  0.9683950E-01
          2   -1    0    0  501    0  0.00000000000E+00  0.00000000000E+00  0.10961951945E+04  0.10961951945E+04  0.00000000000E+00 0. -1.
         -2   -1    0    0    0  501 -0.00000000000E+00 -0.00000000000E+00 -0.11816315695E+03  0.11816315695E+03  0.00000000000E+00 0.  1.
         23    2    1    2    0    0 -0.39826845790E+02 -0.34550130483E+03  0.60976621646E+03  0.70782400487E+03  0.90789062409E+02 0.  0.
         11    1    3    3    0    0 -0.20092380201E+02 -0.19007115979E+03  0.42206886548E+03  0.46332804441E+03  0.00000000000E+00 0. -1.
        -11    1    3    3    0    0 -0.19734465589E+02 -0.15543014504E+03  0.18769735098E+03  0.24449596047E+03  0.00000000000E+00 0.  1.
         22    1    1    2    0    0  0.39826845790E+02  0.34550130483E+03  0.36826582113E+03  0.50653434661E+03  0.00000000000E+00 0.  1.
<mgrwt>
<rscale>  0 0.71980521E+03</rscale>
<asrwt>0</asrwt>
<pdfrwt beam="1">  1        2 0.16864541E+00 0.71980521E+03</pdfrwt>
<pdfrwt beam="2">  1       -2 0.18178948E-01 0.71980521E+03</pdfrwt>
<totfact> 0.55632055E+02</totfact>
</mgrwt>
</event>
<event>
 6    1  0.1614874E-005  0.2301546E+04  0.7818608E-02  0.8477312E-01
          2   -1    0    0  501    0  0.00000000000E+00  0.00000000000E+00  0.17440041643E+04  0.17440041643E+04  0.00000000000E+00 0. -1.
         -2   -1    0    0    0  501 -0.00000000000E+00 -0.00000000000E+00 -0.75933190939E+03  0.75933190939E+03  0.00000000000E+00 0.  1.
         23    2    1    2    0    0  0.17498839925E+03  0.71627165692E+03  0.14515351499E+04  0.16306236416E+04  0.91176437694E+02 0.  0.
         13    1    3    3    0    0  0.11023312331E+03  0.43755273816E+03  0.98311404621E+03  0.10817194498E+04  0.00000000000E+00 0.  1.
        -13    1    3    3    0    0  0.64755275948E+02  0.27871891876E+03  0.46842110367E+03  0.54890419183E+03  0.00000000000E+00 0. -1.
         22    1    1    2    0    0 -0.17498839925E+03 -0.71627165692E+03 -0.46686289499E+03  0.87271243207E+03  0.00000000000E+00 0.  1.
<mgrwt>
<rscale>  0 0.23015456E+04</rscale>
<asrwt>0</asrwt>
<pdfrwt beam="1">  1        2 0.26830833E+00 0.23015456E+04</pdfrwt>
<pdfrwt beam="2">  1       -2 0.11682029E+00 0.23015456E+04</pdfrwt>
<totfact> 0.47682678E+00</totfact>
</mgrwt>
</event>
<event>
 6    1  0.1614874E-005  0.1514647E+04  0.7818608E-02  0.8874771E-01
          2   -1    0    0  501    0  0.00000000000E+00  0.00000000000E+00  0.10339522119E+04  0.10339522119E+04  0.00000000000E+00 0. -1.
         -2   -1    0    0    0  501 -0.00000000000E+00 -0.00000000000E+00 -0.55470523990E+03  0.55470523990E+03  0.00000000000E+00 0.  1.
         23    2    1    2    0    0 -0.27053528235E+03  0.18332155413E+03  0.95389914532E+03  0.10123842381E+04  0.90565638610E+02 0.  0.
         13    1    3    3    0    0 -0.12114266772E+03  0.13013189326E+03  0.43959924357E+03  0.47419125944E+03  0.00000000000E+00 0. -1.
        -13    1    3    3    0    0 -0.14939261462E+03  0.53189660869E+02  0.51429990175E+03  0.53819297865E+03  0.00000000000E+00 0.  1.
         22    1    1    2    0    0  0.27053528235E+03 -0.18332155413E+03 -0.47465217332E+03  0.57627321371E+03  0.00000000000E+00 0.  1.
<mgrwt>
<rscale>  0 0.15146468E+04</rscale>
<asrwt>0</asrwt>
<pdfrwt beam="1">  1        2 0.15906957E+00 0.15146468E+04</pdfrwt>
<pdfrwt beam="2">  1       -2 0.85339268E-01 0.15146468E+04</pdfrwt>
<totfact> 0.27619100E+01</totfact>
</mgrwt>
</event>
<event>
 6    1  0.1614874E-005  0.2389186E+04  0.7818608E-02  0.8443563E-01
         -2   -1    0    0    0  501 -0.00000000000E+00  0.00000000000E+00  0.22911752836E+04  0.22911752836E+04  0.00000000000E+00 0.  1.
          2   -1    0    0  501    0  0.00000000000E+00 -0.00000000000E+00 -0.62284749870E+03  0.62284749870E+03  0.00000000000E+00 0. -1.
         23    2    1    2    0    0 -0.10012666472E+04 -0.54463206587E+03  0.12644122772E+04  0.17047640328E+04  0.91230557495E+02 0.  0.
         11    1    3    3    0    0 -0.62119289671E+03 -0.34038699283E+03  0.85069740931E+03  0.11069914191E+04  0.00000000000E+00 0. -1.
        -11    1    3    3    0    0 -0.38007375052E+03 -0.20424507304E+03  0.41371486789E+03  0.59777261363E+03  0.00000000000E+00 0.  1.
         22    1    1    2    0    0  0.10012666472E+04  0.54463206587E+03  0.40391550773E+03  0.12092587496E+04  0.00000000000E+00 0. -1.
<mgrwt>
<rscale>  0 0.23891863E+04</rscale>
<asrwt>0</asrwt>
<pdfrwt beam="1">  1        2 0.95822693E-01 0.23891863E+04</pdfrwt>
<pdfrwt beam="2">  1       -2 0.35248850E+00 0.23891863E+04</pdfrwt>
<totfact> 0.64051695E-01</totfact>
</mgrwt>
</event>
<event>
 6    1  0.1614874E-005  0.1023118E+04  0.7818608E-02  0.9283547E-01
         -2   -1    0    0    0  501 -0.00000000000E+00  0.00000000000E+00  0.22784269056E+03  0.22784269056E+03  0.00000000000E+00 0.  1.
          2   -1    0    0  501    0  0.00000000000E+00 -0.00000000000E+00 -0.11485664236E+04  0.11485664236E+04  0.00000000000E+00 0. -1.
         23    2    1    2    0    0  0.20014261311E+03 -0.32515962548E+03 -0.91328600624E+03  0.99451754914E+03  0.95853944730E+02 0.  0.
         11    1    3    3    0    0  0.11103533646E+03 -0.17290051385E+03 -0.36901294195E+03  0.42236712107E+03  0.00000000000E+00 0. -1.
        -11    1    3    3    0    0  0.89107276651E+02 -0.15225911163E+03 -0.54427306429E+03  0.57215042807E+03  0.00000000000E+00 0.  1.
         22    1    1    2    0    0 -0.20014261311E+03  0.32515962548E+03 -0.74377267663E+01  0.38189156498E+03  0.00000000000E+00 0.  1.
<mgrwt>
<rscale>  0 0.10231177E+04</rscale>
<asrwt>0</asrwt>
<pdfrwt beam="1">  1        2 0.17670253E+00 0.10231177E+04</pdfrwt>
<pdfrwt beam="2">  1       -2 0.35052721E-01 0.10231177E+04</pdfrwt>
<totfact> 0.15476905E+02</totfact>
</mgrwt>
</event>
<event>
 6    1  0.1614874E-005  0.1519677E+04  0.7818608E-02  0.8871472E-01
          1   -1    0    0  501    0  0.00000000000E+00  0.00000000000E+00  0.44177527842E+03  0.44177527842E+03  0.00000000000E+00 0. -1.
         -1   -1    0    0    0  501 -0.00000000000E+00 -0.00000000000E+00 -0.13068964224E+04  0.13068964224E+04  0.00000000000E+00 0.  1.
         23    2    1    2    0    0  0.85641557197E+02  0.55536923129E+03 -0.10179566324E+04  0.11663246000E+04  0.91147725126E+02 0.  0.
         13    1    3    3    0    0  0.35404291249E+02  0.62681336327E+02 -0.16495525624E+03  0.17997958307E+03  0.00000000000E+00 0.  1.
        -13    1    3    3    0    0  0.50237265948E+02  0.49268789497E+03 -0.85300137613E+03  0.98634501693E+03  0.00000000000E+00 0. -1.
         22    1    1    2    0    0 -0.85641557197E+02 -0.55536923129E+03  0.15283548835E+03  0.58234710086E+03  0.00000000000E+00 0. -1.
<mgrwt>
<rscale>  0 0.15196770E+04</rscale>
<asrwt>0</asrwt>
<pdfrwt beam="1">  1        1 0.67965428E-01 0.15196770E+04</pdfrwt>
<pdfrwt beam="2">  1       -1 0.20106099E+00 0.15196770E+04</pdfrwt>
<totfact> 0.75025807E+00</totfact>
</mgrwt>
</event>
<event>
 6    1  0.1614874E-005  0.2795489E+04  0.7818608E-02  0.8304670E-01
         -2   -1    0    0    0  501 -0.00000000000E+00  0.00000000000E+00  0.11462798182E+04  0.11462798182E+04  0.00000000000E+00 0.  1.
          2   -1    0    0  501    0  0.00000000000E+00 -0.00000000000E+00 -0.17043739848E+04  0.17043739848E+04  0.00000000000E+00 0. -1.
         23    2    1    2    0    0 -0.12717298292E+04  0.43955542721E+03 -0.65989768442E+03  0.15012577572E+04  0.88341198911E+02 0.  0.
         11    1    3    3    0    0 -0.56754547958E+03  0.17833340456E+03 -0.24670794283E+03  0.64403065426E+03  0.00000000000E+00 0. -1.
        -11    1    3    3    0    0 -0.70418434964E+03  0.26122202265E+03 -0.41318974159E+03  0.85722710290E+03  0.00000000000E+00 0.  1.
         22    1    1    2    0    0  0.12717298292E+04 -0.43955542721E+03  0.10180351780E+03  0.13493960458E+04  0.00000000000E+00 0. -1.
<mgrwt>
<rscale>  0 0.27954889E+04</rscale>
<asrwt>0</asrwt>
<pdfrwt beam="1">  1        2 0.26221138E+00 0.27954889E+04</pdfrwt>
<pdfrwt beam="2">  1       -2 0.17635074E+00 0.27954889E+04</pdfrwt>
<totfact> 0.16321746E+00</totfact>
</mgrwt>
</event>
<event>
 6    1  0.1614874E-005  0.1939946E+04  0.7818608E-02  0.8635224E-01
          2   -1    0    0  501    0  0.00000000000E+00  0.00000000000E+00  0.10007106529E+04  0.10007106529E+04  0.00000000000E+00 0.  1.
         -2   -1    0    0    0  501 -0.00000000000E+00 -0.00000000000E+00 -0.94017904046E+03  0.94017904046E+03  0.00000000000E+00 0. -1.
         23    2    1    2    0    0  0.80830196573E+03  0.29240520509E+03  0.47699539953E+03  0.98574836470E+03  0.72954476078E+02 0.  0.
         13    1    3    3    0    0  0.52606096225E+03  0.20723646907E+03  0.34824286796E+03  0.66404833047E+03  0.00000000000E+00 0. -1.
        -13    1    3    3    0    0  0.28224100348E+03  0.85168736016E+02  0.12875253157E+03  0.32170003423E+03  0.00000000000E+00 0.  1.
         22    1    1    2    0    0 -0.80830196573E+03 -0.29240520509E+03 -0.41646378709E+03  0.95514132866E+03  0.00000000000E+00 0. -1.
<mgrwt>
<rscale>  0 0.19399455E+04</rscale>
<asrwt>0</asrwt>
<pdfrwt beam="1">  1        2 0.15395549E+00 0.19399455E+04</pdfrwt>
<pdfrwt beam="2">  1       -2 0.14464293E+00 0.19399455E+04</pdfrwt>
<totfact> 0.77466720E+00</totfact>
</mgrwt>
</event>
<event>
 6    1  0.1614874E-005  0.1428439E+04  0.7818608E-02  0.8933486E-01
          1   -1    0    0  501    0  0.00000000000E+00  0.00000000000E+00  0.68280599838E+03  0.68280599838E+03  0.00000000000E+00 0. -1.
         -1   -1    0    0    0  501 -0.00000000000E+00 -0.00000000000E+00 -0.74707805473E+03  0.74707805473E+03  0.00000000000E+00 0.  1.
         23    2    1    2    0    0 -0.18229211825E+02 -0.51289933451E+03 -0.52563576407E+03  0.73977210400E+03  0.87015963383E+02 0.  0.
         11    1    3    3    0    0  0.30320925196E+02 -0.10311763984E+03 -0.96878018422E+02  0.14469953906E+03  0.00000000000E+00 0. -1.
        -11    1    3    3    0    0 -0.48550137020E+02 -0.40978169466E+03 -0.42875774565E+03  0.59507256494E+03  0.00000000000E+00 0.  1.
         22    1    1    2    0    0  0.18229211825E+02  0.51289933451E+03  0.46136370773E+03  0.69011194911E+03  0.00000000000E+00 0. -1.
<mgrwt>
<rscale>  0 0.14284388E+04</rscale>
<asrwt>0</asrwt>
<pdfrwt beam="1">  1        1 0.10504708E+00 0.14284388E+04</pdfrwt>
<pdfrwt beam="2">  1       -1 0.11493509E+00 0.14284388E+04</pdfrwt>
<totfact> 0.18925700E+01</totfact>
</mgrwt>
</event>
<event>
 6    1  0.1946866E-005  0.2073688E+04  0.7818608E-02  0.8572923E-01
          1   -1    0    0  501    0  0.00000000000E+00  0.00000000000E+00  0.14801962303E+04  0.14801962303E+04  0.00000000000E+00 0.  1.
         -1   -1    0    0    0  501 -0.00000000000E+00 -0.00000000000E+00 -0.72628592609E+03  0.72628592609E+03  0.00000000000E+00 0. -1.
         23    2    1    2    0    0  0.22580260447E+03  0.15041422395E+03 -0.68413650350E+03  0.74306496497E+03  0.10242817870E+03 0.  0.
         11    1    3    3    0    0  0.82323942350E+02  0.46229911221E+02 -0.37483209878E+03  0.38654047453E+03  0.00000000000E+00 0. -1.
        -11    1    3    3    0    0  0.14347866212E+03  0.10418431273E+03 -0.30930440472E+03  0.35652449044E+03  0.00000000000E+00 0.  1.
         22    1    1    2    0    0 -0.22580260447E+03 -0.15041422395E+03  0.14380468077E+04  0.14634171914E+04  0.00000000000E+00 0.  1.
<mgrwt>
<rscale>  0 0.20736882E+04</rscale>
<asrwt>0</asrwt>
<pdfrwt beam="1">  1        1 0.22772250E+00 0.20736882E+04</pdfrwt>
<pdfrwt beam="2">  1       -1 0.11173630E+00 0.20736882E+04</pdfrwt>
<totfact> 0.45766297E+00</totfact>
</mgrwt>
</event>
<event>
 6    1  0.1614874E-005  0.1289056E+04  0.7818608E-02  0.9038290E-01
         -1   -1    0    0    0  501 -0.00000000000E+00  0.00000000000E+00  0.51831593685E+03  0.51831593685E+03  0.00000000000E+00 0.  1.
          1   -1    0    0  501    0  0.00000000000E+00 -0.00000000000E+00 -0.80147262158E+03  0.80147262158E+03  0.00000000000E+00 0. -1.
         23    2    1    2    0    0 -0.18936995767E+03  0.41110318110E+03  0.32281261523E+03  0.56343837573E+03  0.91586092371E+02 0.  0.
         11    1    3    3    0    0 -0.15167050059E+03  0.32936251139E+03  0.20968985754E+03  0.41887162832E+03  0.00000000000E+00 0. -1.
        -11    1    3    3    0    0 -0.37699457082E+02  0.81740669708E+02  0.11312275769E+03  0.14456674741E+03  0.00000000000E+00 0.  1.
         22    1    1    2    0    0  0.18936995767E+03 -0.41110318110E+03 -0.60596929996E+03  0.75635018270E+03  0.00000000000E+00 0. -1.
<mgrwt>
<rscale>  0 0.12890555E+04</rscale>
<asrwt>0</asrwt>
<pdfrwt beam="1">  1        1 0.12330348E+00 0.12890555E+04</pdfrwt>
<pdfrwt beam="2">  1       -1 0.79740914E-01 0.12890555E+04</pdfrwt>
<totfact> 0.34061645E+01</totfact>
</mgrwt>
</event>
<event>
 6    1  0.1614874E-005  0.1995240E+04  0.7818608E-02  0.8608849E-01
          1   -1    0    0  501    0  0.00000000000E+00  0.00000000000E+00  0.18727178653E+04  0.18727178653E+04  0.00000000000E+00 0. -1.
         -1   -1    0    0    0  501 -0.00000000000E+00 -0.00000000000E+00 -0.53144437642E+03  0.53144437642E+03  0.00000000000E+00 0.  1.
         23    2    1    2    0    0  0.34907811057E+03  0.70547567326E+02 -0.44805869176E+03  0.57973297775E+03  0.92202210877E+02 0.  0.
         13    1    3    3    0    0  0.25443198039E+03  0.61550169256E+02 -0.38531044220E+03  0.46581991461E+03  0.00000000000E+00 0. -1.
        -13    1    3    3    0    0  0.94646130183E+02  0.89973980699E+01 -0.62748249566E+02  0.11391306314E+03  0.00000000000E+00 0.  1.
         22    1    1    2    0    0 -0.34907811057E+03 -0.70547567326E+02  0.17893321806E+04  0.18244292639E+04  0.00000000000E+00 0. -1.
<mgrwt>
<rscale>  0 0.19952397E+04</rscale>
<asrwt>0</asrwt>
<pdfrwt beam="1">  1        1 0.28811044E+00 0.19952397E+04</pdfrwt>
<pdfrwt beam="2">  1       -1 0.81760674E-01 0.19952397E+04</pdfrwt>
<totfact> 0.50233731E+00</totfact>
</mgrwt>
</event>
<event>
 6    1  0.1614874E-005  0.3351383E+04  0.7818608E-02  0.8149943E-01
          3   -1    0    0  501    0  0.00000000000E+00  0.00000000000E+00  0.33039545387E+04  0.33039545387E+04  0.00000000000E+00 0. -1.
         -3   -1    0    0    0  501 -0.00000000000E+00 -0.00000000000E+00 -0.84987315951E+03  0.84987315951E+03  0.00000000000E+00 0.  1.
         23    2    1    2    0    0  0.12716778009E+04 -0.64213529399E+03  0.13758379957E+03  0.14343308327E+04  0.94199100893E+02 0.  0.
         11    1    3    3    0    0  0.98675865077E+03 -0.46526671489E+03  0.13226722472E+03  0.10989360171E+04  0.00000000000E+00 0. -1.
        -11    1    3    3    0    0  0.28491915015E+03 -0.17686857910E+03  0.53165748481E+01  0.33539481565E+03  0.00000000000E+00 0.  1.
         22    1    1    2    0    0 -0.12716778009E+04  0.64213529399E+03  0.23164975797E+04  0.27194968655E+04  0.00000000000E+00 0. -1.
<mgrwt>
<rscale>  0 0.33513832E+04</rscale>
<asrwt>0</asrwt>
<pdfrwt beam="1">  1        3 0.50830069E+00 0.33513832E+04</pdfrwt>
<pdfrwt beam="2">  1       -3 0.13074972E+00 0.33513832E+04</pdfrwt>
<totfact> 0.30754600E-03</totfact>
</mgrwt>
</event>
<event>
 6    1  0.1614874E-005  0.2415695E+04  0.7818608E-02  0.8433651E-01
          2   -1    0    0  501    0  0.00000000000E+00  0.00000000000E+00  0.19140206572E+04  0.19140206572E+04  0.00000000000E+00 0.  1.
         -2   -1    0    0    0  501 -0.00000000000E+00 -0.00000000000E+00 -0.76221534595E+03  0.76221534595E+03  0.00000000000E+00 0. -1.
         23    2    1    2    0    0  0.11665530244E+04  0.55614254050E+02  0.90972612190E+03  0.14835326712E+04  0.96585017757E+02 0.  0.
         13    1    3    3    0    0  0.67582408163E+03  0.74776803184E+02  0.50083665810E+03  0.84449222477E+03  0.00000000000E+00 0.  1.
        -13    1    3    3    0    0  0.49072894280E+03 -0.19162549134E+02  0.40888946380E+03  0.63904044645E+03  0.00000000000E+00 0. -1.
         22    1    1    2    0    0 -0.11665530244E+04 -0.55614254050E+02  0.24207918936E+03  0.11927033319E+04  0.00000000000E+00 0. -1.
<mgrwt>
<rscale>  0 0.24156953E+04</rscale>
<asrwt>0</asrwt>
<pdfrwt beam="1">  1        2 0.29446472E+00 0.24156953E+04</pdfrwt>
<pdfrwt beam="2">  1       -2 0.11726390E+00 0.24156953E+04</pdfrwt>
<totfact> 0.37656611E+00</totfact>
</mgrwt>
</event>
<event>
 6    1  0.1614874E-005  0.1980704E+04  0.7818608E-02  0.8615696E-01
          2   -1    0    0  501    0  0.00000000000E+00  0.00000000000E+00  0.15920275274E+04  0.15920275274E+04  0.00000000000E+00 0. -1.
         -2   -1    0    0    0  501 -0.00000000000E+00 -0.00000000000E+00 -0.61606811546E+03  0.61606811546E+03  0.00000000000E+00 0.  1.
         23    2    1    2    0    0  0.55782159977E+03 -0.70769551219E+03  0.36636186577E+02  0.90643286133E+03  0.90996960339E+02 0.  0.
         13    1    3    3    0    0  0.42640661357E+03 -0.59826399573E+03  0.28190856553E+02  0.73521230476E+03  0.00000000000E+00 0. -1.
        -13    1    3    3    0    0  0.13141498619E+03 -0.10943151646E+03  0.84453300247E+01  0.17122055657E+03  0.00000000000E+00 0.  1.
         22    1    1    2    0    0 -0.55782159977E+03  0.70769551219E+03  0.93932322541E+03  0.13016627816E+04  0.00000000000E+00 0. -1.
<mgrwt>
<rscale>  0 0.19807043E+04</rscale>
<asrwt>0</asrwt>
<pdfrwt beam="1">  1        2 0.24492731E+00 0.19807043E+04</pdfrwt>
<pdfrwt beam="2">  1       -2 0.94779711E-01 0.19807043E+04</pdfrwt>
<totfact> 0.98250737E+00</totfact>
</mgrwt>
</event>
<event>
 6    1  0.1614874E-005  0.3068413E+04  0.7818608E-02  0.8224461E-01
         -2   -1    0    0    0  501 -0.00000000000E+00  0.00000000000E+00  0.13754261474E+04  0.13754261474E+04  0.00000000000E+00 0. -1.
          2   -1    0    0  501    0  0.00000000000E+00 -0.00000000000E+00 -0.17113160748E+04  0.17113160748E+04  0.00000000000E+00 0.  1.
         23    2    1    2    0    0 -0.30878002129E+03 -0.11219104682E+04 -0.11719396930E+04  0.16539102674E+04  0.89153399569E+02 0.  0.
         11    1    3    3    0    0 -0.15356006159E+03 -0.42029189437E+03 -0.41686561449E+03  0.61155777285E+03  0.00000000000E+00 0.  1.
        -11    1    3    3    0    0 -0.15521995970E+03 -0.70161857380E+03 -0.75507407849E+03  0.10423524946E+04  0.00000000000E+00 0. -1.
         22    1    1    2    0    0  0.30878002129E+03  0.11219104682E+04  0.83604976558E+03  0.14328319548E+04  0.00000000000E+00 0. -1.
<mgrwt>
<rscale>  0 0.30684125E+04</rscale>
<asrwt>0</asrwt>
<pdfrwt beam="1">  1        2 0.26327940E+00 0.30684125E+04</pdfrwt>
<pdfrwt beam="2">  1       -2 0.21160402E+00 0.30684125E+04</pdfrwt>
<totfact> 0.92009803E-01</totfact>
</mgrwt>
</event>
<event>
 6    1  0.4941199E-005  0.3797105E+04  0.7818608E-02  0.8046776E-01
         -2   -1    0    0    0  501 -0.00000000000E+00  0.00000000000E+00  0.14442350344E+04  0.14442350344E+04  0.00000000000E+00 0.  1.
          2   -1    0    0  501    0  0.00000000000E+00 -0.00000000000E+00 -0.24957863063E+04  0.24957863063E+04  0.00000000000E+00 0. -1.
         23    2    1    2    0    0 -0.33067749207E+02  0.18691757337E+04 -0.18926129958E+03  0.18812704096E+04  0.91908187856E+02 0.  0.
         11    1    3    3    0    0  0.30567799822E+02  0.39786220337E+03 -0.39139322968E+02  0.40094963507E+03  0.00000000000E+00 0. -1.
        -11    1    3    3    0    0 -0.63635549029E+02  0.14713135304E+04 -0.15012197662E+03  0.14803207746E+04  0.00000000000E+00 0.  1.
         22    1    1    2    0    0  0.33067749207E+02 -0.18691757337E+04 -0.86228997240E+03  0.20587509311E+04  0.00000000000E+00 0. -1.
<mgrwt>
<rscale>  0 0.37971052E+04</rscale>
<asrwt>0</asrwt>
<pdfrwt beam="1">  1        2 0.38396712E+00 0.37971052E+04</pdfrwt>
<pdfrwt beam="2">  1       -2 0.22219000E+00 0.37971052E+04</pdfrwt>
<totfact> 0.26876674E-01</totfact>
</mgrwt>
</event>
<event>
 6    1  0.1614874E-005  0.1482507E+04  0.7818608E-02  0.8896170E-01
          2   -1    0    0  501    0  0.00000000000E+00  0.00000000000E+00  0.43740144662E+04  0.43740144662E+04  0.00000000000E+00 0. -1.
         -2   -1    0    0    0  501 -0.00000000000E+00 -0.00000000000E+00 -0.12561839432E+03  0.12561839432E+03  0.00000000000E+00 0.  1.
         23    2    1    2    0    0 -0.51880406313E+03 -0.43823018760E+03  0.30126143944E+04  0.30895407686E+04  0.90627360390E+02 0.  0.
         11    1    3    3    0    0 -0.33916279281E+03 -0.22861845146E+03  0.18188710256E+04  0.18642933256E+04  0.00000000000E+00 0. -1.
        -11    1    3    3    0    0 -0.17964127032E+03 -0.20961173614E+03  0.11937433688E+04  0.12252474430E+04  0.00000000000E+00 0.  1.
         22    1    1    2    0    0  0.51880406313E+03  0.43823018760E+03  0.12357816775E+04  0.14100920919E+04  0.00000000000E+00 0.  1.
<mgrwt>
<rscale>  0 0.14825069E+04</rscale>
<asrwt>0</asrwt>
<pdfrwt beam="1">  1        2 0.67292519E+00 0.14825069E+04</pdfrwt>
<pdfrwt beam="2">  1       -2 0.19325910E-01 0.14825069E+04</pdfrwt>
<totfact> 0.36850988E+00</totfact>
</mgrwt>
</event>
<event>
 6    1  0.1614874E-005  0.2163589E+04  0.7818608E-02  0.8533738E-01
         -2   -1    0    0    0  501 -0.00000000000E+00  0.00000000000E+00  0.18732025255E+04  0.18732025255E+04  0.00000000000E+00 0.  1.
          2   -1    0    0  501    0  0.00000000000E+00 -0.00000000000E+00 -0.62474804811E+03  0.62474804811E+03  0.00000000000E+00 0. -1.
         23    2    1    2    0    0 -0.23169057180E+03 -0.38144129459E+03  0.17606794104E+04  0.18185741210E+04  0.89676447374E+02 0.  0.
         11    1    3    3    0    0 -0.42891677860E+02 -0.51430025937E+02  0.16178716223E+03  0.17509948446E+03  0.00000000000E+00 0.  1.
        -11    1    3    3    0    0 -0.18879889394E+03 -0.33001126866E+03  0.15988922482E+04  0.16434746366E+04  0.00000000000E+00 0. -1.
         22    1    1    2    0    0  0.23169057180E+03  0.38144129459E+03 -0.51222493302E+03  0.67937645256E+03  0.00000000000E+00 0. -1.
<mgrwt>
<rscale>  0 0.21635893E+04</rscale>
<asrwt>0</asrwt>
<pdfrwt beam="1">  1        2 0.96115085E-01 0.21635893E+04</pdfrwt>
<pdfrwt beam="2">  1       -2 0.28818500E+00 0.21635893E+04</pdfrwt>
<totfact> 0.16253228E+00</totfact>
</mgrwt>
</event>
<event>
 6    1  0.1614874E-005  0.4816607E+04  0.7818608E-02  0.7857437E-01
         -2   -1    0    0    0  501 -0.00000000000E+00  0.00000000000E+00  0.20402346958E+04  0.20402346958E+04  0.00000000000E+00 0.  1.
          2   -1    0    0  501    0  0.00000000000E+00 -0.00000000000E+00 -0.28427735465E+04  0.28427735465E+04  0.00000000000E+00 0. -1.
         23    2    1    2    0    0 -0.47547526265E+03 -0.22945692866E+04 -0.96072815141E+03  0.25343599520E+04  0.94110834830E+02 0.  0.
         11    1    3    3    0    0 -0.23467372738E+03 -0.11255633327E+04 -0.42058431393E+03  0.12242776398E+04  0.00000000000E+00 0. -1.
        -11    1    3    3    0    0 -0.24080153527E+03 -0.11690059539E+04 -0.54014383749E+03  0.13100823122E+04  0.00000000000E+00 0.  1.
         22    1    1    2    0    0  0.47547526265E+03  0.22945692866E+04  0.15818930072E+03  0.23486482902E+04  0.00000000000E+00 0.  1.
<mgrwt>
<rscale>  0 0.48166068E+04</rscale>
<asrwt>0</asrwt>
<pdfrwt beam="1">  1        2 0.43734977E+00 0.48166068E+04</pdfrwt>
<pdfrwt beam="2">  1       -2 0.31388226E+00 0.48166068E+04</pdfrwt>
<totfact> 0.42011111E-02</totfact>
</mgrwt>
</event>
<event>
 6    1  0.1876527E-005  0.3313100E+04  0.7818608E-02  0.8159570E-01
         -1   -1    0    0    0  501 -0.00000000000E+00  0.00000000000E+00  0.15258220622E+04  0.15258220622E+04  0.00000000000E+00 0.  1.
          1   -1    0    0  501    0  0.00000000000E+00 -0.00000000000E+00 -0.17984786121E+04  0.17984786121E+04  0.00000000000E+00 0. -1.
         23    2    1    2    0    0  0.91301214613E+03  0.44864372985E+03  0.11739499465E+04  0.15558146747E+04  0.86766640580E+02 0.  0.
         13    1    3    3    0    0  0.44201736009E+03  0.20289888183E+03  0.49817106561E+03  0.69621958711E+03  0.00000000000E+00 0.  1.
        -13    1    3    3    0    0  0.47099478604E+03  0.24574484802E+03  0.67577888091E+03  0.85959508763E+03  0.00000000000E+00 0. -1.
         22    1    1    2    0    0 -0.91301214613E+03 -0.44864372985E+03 -0.14466064964E+04  0.17684859996E+04  0.00000000000E+00 0. -1.
<mgrwt>
<rscale>  0 0.33131003E+04</rscale>
<asrwt>0</asrwt>
<pdfrwt beam="1">  1        1 0.27668901E+00 0.33131003E+04</pdfrwt>
<pdfrwt beam="2">  1       -1 0.23474186E+00 0.33131003E+04</pdfrwt>
<totfact> 0.29718243E-01</totfact>
</mgrwt>
</event>
<event>
 6    1  0.1614874E-005  0.2790353E+04  0.7818608E-02  0.8306270E-01
         -2   -1    0    0    0  501 -0.00000000000E+00  0.00000000000E+00  0.22121000356E+04  0.22121000356E+04  0.00000000000E+00 0.  1.
          2   -1    0    0  501    0  0.00000000000E+00 -0.00000000000E+00 -0.87994108749E+03  0.87994108749E+03  0.00000000000E+00 0. -1.
         23    2    1    2    0    0 -0.33643751782E+03 -0.69388683367E+03  0.19531882726E+04  0.21019166041E+04  0.91868607284E+02 0.  0.
         11    1    3    3    0    0 -0.26215449535E+03 -0.53782139351E+03  0.16118297936E+04  0.17192940744E+04  0.00000000000E+00 0. -1.
        -11    1    3    3    0    0 -0.74283022471E+02 -0.15606544016E+03  0.34135847899E+03  0.38262252968E+03  0.00000000000E+00 0.  1.
         22    1    1    2    0    0  0.33643751782E+03  0.69388683367E+03 -0.62102932446E+03  0.99012451903E+03  0.00000000000E+00 0. -1.
<mgrwt>
<rscale>  0 0.27903532E+04</rscale>
<asrwt>0</asrwt>
<pdfrwt beam="1">  1        2 0.13537555E+00 0.27903532E+04</pdfrwt>
<pdfrwt beam="2">  1       -2 0.34032308E+00 0.27903532E+04</pdfrwt>
<totfact> 0.47161161E-01</totfact>
</mgrwt>
</event>
<event>
 6    1  0.1614874E-005  0.1368791E+04  0.7818608E-02  0.8976724E-01
         -2   -1    0    0    0  501 -0.00000000000E+00  0.00000000000E+00  0.22925145136E+03  0.22925145136E+03  0.00000000000E+00 0. -1.
          2   -1    0    0  501    0  0.00000000000E+00 -0.00000000000E+00 -0.20431598981E+04  0.20431598981E+04  0.00000000000E+00 0.  1.
         23    2    1    2    0    0 -0.22227710283E+03  0.30149787147E+03 -0.18561878049E+04  0.18954556213E+04  0.83730330654E+02 0.  0.
         11    1    3    3    0    0 -0.72417278083E+02  0.47514637931E+02 -0.51466346766E+03  0.52190074529E+03  0.00000000000E+00 0. -1.
        -11    1    3    3    0    0 -0.14985982475E+03  0.25398323354E+03 -0.13415243372E+04  0.13735548760E+04  0.00000000000E+00 0.  1.
         22    1    1    2    0    0  0.22227710283E+03 -0.30149787147E+03  0.42279358072E+02  0.37695572825E+03  0.00000000000E+00 0. -1.
<mgrwt>
<rscale>  0 0.13687913E+04</rscale>
<asrwt>0</asrwt>
<pdfrwt beam="1">  1        2 0.31433229E+00 0.13687913E+04</pdfrwt>
<pdfrwt beam="2">  1       -2 0.35269455E-01 0.13687913E+04</pdfrwt>
<totfact> 0.46590826E+01</totfact>
</mgrwt>
</event>
<event>
 6    1  0.1614874E-005  0.9747707E+03  0.7818608E-02  0.9336657E-01
          2   -1    0    0  501    0  0.00000000000E+00  0.00000000000E+00  0.88308747977E+03  0.88308747977E+03  0.00000000000E+00 0. -1.
         -2   -1    0    0    0  501 -0.00000000000E+00 -0.00000000000E+00 -0.26899313294E+03  0.26899313294E+03  0.00000000000E+00 0.  1.
         23    2    1    2    0    0  0.11502271706E+03 -0.26543278615E+03  0.76935918266E+03  0.82376375562E+03  0.54666111189E+02 0.  0.
         11    1    3    3    0    0  0.16769324699E+02 -0.49468774428E+02  0.20517818395E+03  0.21172259460E+03  0.00000000000E+00 0. -1.
        -11    1    3    3    0    0  0.98253392358E+02 -0.21596401172E+03  0.56418099872E+03  0.61204116102E+03  0.00000000000E+00 0.  1.
         22    1    1    2    0    0 -0.11502271706E+03  0.26543278615E+03 -0.15526483583E+03  0.32831685709E+03  0.00000000000E+00 0.  1.
<mgrwt>
<rscale>  0 0.97477068E+03</rscale>
<asrwt>0</asrwt>
<pdfrwt beam="1">  1        2 0.13585961E+00 0.97477068E+03</pdfrwt>
<pdfrwt beam="2">  1       -2 0.41383560E-01 0.97477068E+03</pdfrwt>
<totfact> 0.16638223E+02</totfact>
</mgrwt>
</event>
<event>
 6    1  0.1614874E-005  0.1368442E+04  0.7818608E-02  0.8976984E-01
          2   -1    0    0  501    0  0.00000000000E+00  0.00000000000E+00  0.51514459419E+03  0.51514459419E+03  0.00000000000E+00 0. -1.
         -2   -1    0    0    0  501 -0.00000000000E+00 -0.00000000000E+00 -0.90879023059E+03  0.90879023059E+03  0.00000000000E+00 0.  1.
         23    2    1    2    0    0  0.52157246099E+03 -0.28351640429E+02  0.25780808183E+03  0.58892967835E+03  0.86784280870E+02 0.  0.
         11    1    3    3    0    0  0.24135613013E+03  0.95796954058E+01  0.77984748138E+02  0.25382311372E+03  0.00000000000E+00 0. -1.
        -11    1    3    3    0    0  0.28021633086E+03 -0.37931335835E+02  0.17982333369E+03  0.33510656463E+03  0.00000000000E+00 0.  1.
         22    1    1    2    0    0 -0.52157246099E+03  0.28351640429E+02 -0.65145371823E+03  0.83500514643E+03  0.00000000000E+00 0.  1.
<mgrwt>
<rscale>  0 0.13684420E+04</rscale>
<asrwt>0</asrwt>
<pdfrwt beam="1">  1        2 0.79253014E-01 0.13684420E+04</pdfrwt>
<pdfrwt beam="2">  1       -2 0.13981388E+00 0.13684420E+04</pdfrwt>
<totfact> 0.20893445E+01</totfact>
</mgrwt>
</event>
<event>
 6    1  0.1614874E-005  0.2595288E+04  0.7818608E-02  0.8369804E-01
         -2   -1    0    0    0  501 -0.00000000000E+00  0.00000000000E+00  0.82414531976E+03  0.82414531976E+03  0.00000000000E+00 0.  1.
          2   -1    0    0  501    0  0.00000000000E+00 -0.00000000000E+00 -0.20431827957E+04  0.20431827957E+04  0.00000000000E+00 0. -1.
         23    2    1    2    0    0 -0.78428104580E+03  0.69414252859E+03 -0.14540419625E+04  0.17939420165E+04  0.84019765095E+02 0.  0.
         13    1    3    3    0    0 -0.54064842895E+03  0.52685012671E+03 -0.10264564514E+04  0.12741603613E+04  0.00000000000E+00 0. -1.
        -13    1    3    3    0    0 -0.24363261685E+03  0.16729240188E+03 -0.42758551115E+03  0.51978165518E+03  0.00000000000E+00 0.  1.
         22    1    1    2    0    0  0.78428104580E+03 -0.69414252859E+03  0.23500448658E+03  0.10733860990E+04  0.00000000000E+00 0.  1.
<mgrwt>
<rscale>  0 0.25952877E+04</rscale>
<asrwt>0</asrwt>
<pdfrwt beam="1">  1        2 0.31433581E+00 0.25952877E+04</pdfrwt>
<pdfrwt beam="2">  1       -2 0.12679159E+00 0.25952877E+04</pdfrwt>
<totfact> 0.25877143E+00</totfact>
</mgrwt>
</event>
<event>
 6    1  0.1614874E-005  0.4726128E+04  0.7818608E-02  0.7872202E-01
         -2   -1    0    0    0  501 -0.00000000000E+00  0.00000000000E+00  0.15710766438E+04  0.15710766438E+04  0.00000000000E+00 0.  1.
          2   -1    0    0  501    0  0.00000000000E+00 -0.00000000000E+00 -0.35542965447E+04  0.35542965447E+04  0.00000000000E+00 0. -1.
         23    2    1    2    0    0  0.22249184266E+04 -0.75711157557E+03 -0.73441822101E+03  0.24639852840E+04  0.91506357307E+02 0.  0.
         11    1    3    3    0    0  0.16081430127E+04 -0.53011254649E+03 -0.48932089063E+03  0.17625487781E+04  0.00000000000E+00 0. -1.
        -11    1    3    3    0    0  0.61677541392E+03 -0.22699902907E+03 -0.24509733038E+03  0.70143650587E+03  0.00000000000E+00 0.  1.
         22    1    1    2    0    0 -0.22249184266E+04  0.75711157557E+03 -0.12488016799E+04  0.26613879046E+04  0.00000000000E+00 0.  1.
<mgrwt>
<rscale>  0 0.47261283E+04</rscale>
<asrwt>0</asrwt>
<pdfrwt beam="1">  1        2 0.54681485E+00 0.47261283E+04</pdfrwt>
<pdfrwt beam="2">  1       -2 0.24170410E+00 0.47261283E+04</pdfrwt>
<totfact> 0.39951634E-02</totfact>
</mgrwt>
</event>
<event>
 6    1  0.1636986E-005  0.4360394E+04  0.7818608E-02  0.7935544E-01
          1   -1    0    0  501    0  0.00000000000E+00  0.00000000000E+00  0.34783506182E+04  0.34783506182E+04  0.00000000000E+00 0. -1.
         -1   -1    0    0    0  501 -0.00000000000E+00 -0.00000000000E+00 -0.13665267790E+04  0.13665267790E+04  0.00000000000E+00 0.  1.
         23    2    1    2    0    0  0.10617509477E+04  0.99333221636E+03 -0.74724433998E+03  0.16373402079E+04  0.92113440486E+02 0.  0.
         13    1    3    3    0    0  0.43027459571E+03  0.46506937048E+03 -0.32587070241E+03  0.71247277966E+03  0.00000000000E+00 0. -1.
        -13    1    3    3    0    0  0.63147635194E+03  0.52826284589E+03 -0.42137363757E+03  0.92486742825E+03  0.00000000000E+00 0.  1.
         22    1    1    2    0    0 -0.10617509477E+04 -0.99333221636E+03  0.28590681793E+04  0.32075371893E+04  0.00000000000E+00 0. -1.
<mgrwt>
<rscale>  0 0.43603941E+04</rscale>
<asrwt>0</asrwt>
<pdfrwt beam="1">  1        1 0.53513086E+00 0.43603941E+04</pdfrwt>
<pdfrwt beam="2">  1       -1 0.21023489E+00 0.43603941E+04</pdfrwt>
<totfact> 0.25266305E-02</totfact>
</mgrwt>
</event>
<event>
 6    1  0.1614874E-005  0.2659725E+04  0.7818608E-02  0.8348192E-01
          2   -1    0    0  501    0  0.00000000000E+00  0.00000000000E+00  0.49243329245E+04  0.49243329245E+04  0.00000000000E+00 0. -1.
         -2   -1    0    0    0  501 -0.00000000000E+00 -0.00000000000E+00 -0.35914185124E+03  0.35914185124E+03  0.00000000000E+00 0.  1.
         23    2    1    2    0    0  0.86092808883E+03 -0.40317613987E+01  0.42946433809E+04  0.43810283878E+04  0.90744344707E+02 0.  0.
         11    1    3    3    0    0  0.48062084435E+03 -0.27464284578E+02  0.25843804992E+04  0.26288349601E+04  0.00000000000E+00 0. -1.
        -11    1    3    3    0    0  0.38030724448E+03  0.23432523179E+02  0.17102628817E+04  0.17521934277E+04  0.00000000000E+00 0.  1.
         22    1    1    2    0    0 -0.86092808883E+03  0.40317613987E+01  0.27054769228E+03  0.90244638790E+03  0.00000000000E+00 0.  1.
<mgrwt>
<rscale>  0 0.26597248E+04</rscale>
<asrwt>0</asrwt>
<pdfrwt beam="1">  1        2 0.75758963E+00 0.26597248E+04</pdfrwt>
<pdfrwt beam="2">  1       -2 0.55252596E-01 0.26597248E+04</pdfrwt>
<totfact> 0.11606166E-01</totfact>
</mgrwt>
</event>
<event>
 6    1  0.1614874E-005  0.5826860E+04  0.7818608E-02  0.7712248E-01
         -1   -1    0    0    0  501 -0.00000000000E+00  0.00000000000E+00  0.49164155214E+04  0.49164155214E+04  0.00000000000E+00 0.  1.
          1   -1    0    0  501    0  0.00000000000E+00 -0.00000000000E+00 -0.17264762361E+04  0.17264762361E+04  0.00000000000E+00 0. -1.
         23    2    1    2    0    0  0.14607558235E+04  0.82179280881E+03  0.43111547774E+04  0.46263910319E+04  0.91035535934E+02 0.  0.
         13    1    3    3    0    0  0.11126470512E+04  0.61795566843E+03  0.31648149139E+04  0.34111443985E+04  0.00000000000E+00 0.  1.
        -13    1    3    3    0    0  0.34810877238E+03  0.20383714038E+03  0.11463398636E+04  0.12152466334E+04  0.00000000000E+00 0. -1.
         22    1    1    2    0    0 -0.14607558235E+04 -0.82179280881E+03 -0.11212154921E+04  0.20165007256E+04  0.00000000000E+00 0. -1.
<mgrwt>
<rscale>  0 0.58268601E+04</rscale>
<asrwt>0</asrwt>
<pdfrwt beam="1">  1        1 0.26561173E+00 0.58268601E+04</pdfrwt>
<pdfrwt beam="2">  1       -1 0.75637161E+00 0.58268601E+04</pdfrwt>
<totfact> 0.37266087E-04</totfact>
</mgrwt>
</event>
<event>
 6    1  0.1614874E-005  0.6395193E+04  0.7818608E-02  0.7643244E-01
         -2   -1    0    0    0  501 -0.00000000000E+00  0.00000000000E+00  0.23153323245E+04  0.23153323245E+04  0.00000000000E+00 0.  1.
          2   -1    0    0  501    0  0.00000000000E+00 -0.00000000000E+00 -0.44160504940E+04  0.44160504940E+04  0.00000000000E+00 0. -1.
         23    2    1    2    0    0  0.91168817462E+03  0.10204267249E+04  0.19907583471E+04  0.24171475313E+04  0.83888990694E+02 0.  0.
         11    1    3    3    0    0  0.35157995520E+03  0.39014414449E+03  0.83674664689E+03  0.98790984885E+03  0.00000000000E+00 0. -1.
        -11    1    3    3    0    0  0.56010821942E+03  0.63028258039E+03  0.11540117002E+04  0.14292376824E+04  0.00000000000E+00 0.  1.
         22    1    1    2    0    0 -0.91168817462E+03 -0.10204267249E+04 -0.40914765165E+04  0.43142352873E+04  0.00000000000E+00 0. -1.
<mgrwt>
<rscale>  0 0.63951933E+04</rscale>
<asrwt>0</asrwt>
<pdfrwt beam="1">  1        2 0.67939237E+00 0.63951933E+04</pdfrwt>
<pdfrwt beam="2">  1       -2 0.35620498E+00 0.63951933E+04</pdfrwt>
<totfact> 0.13610507E-03</totfact>
</mgrwt>
</event>
<event>
 6    1  0.1614874E-005  0.4018994E+04  0.7818608E-02  0.8000726E-01
         -2   -1    0    0    0  501 -0.00000000000E+00  0.00000000000E+00  0.15012379888E+04  0.15012379888E+04  0.00000000000E+00 0. -1.
          2   -1    0    0  501    0  0.00000000000E+00 -0.00000000000E+00 -0.26898319040E+04  0.26898319040E+04  0.00000000000E+00 0.  1.
         23    2    1    2    0    0 -0.18959767624E+04 -0.66256490762E+03 -0.60144160050E+03  0.20985909846E+04  0.92908457723E+02 0.  0.
         11    1    3    3    0    0 -0.55889998152E+03 -0.23124805617E+03 -0.15418424921E+03  0.62419358819E+03  0.00000000000E+00 0. -1.
        -11    1    3    3    0    0 -0.13370767809E+04 -0.43131685144E+03 -0.44725735129E+03  0.14743973964E+04  0.00000000000E+00 0.  1.
         22    1    1    2    0    0  0.18959767624E+04  0.66256490762E+03 -0.58715231472E+03  0.20924789081E+04  0.00000000000E+00 0.  1.
<mgrwt>
<rscale>  0 0.40189938E+04</rscale>
<asrwt>0</asrwt>
<pdfrwt beam="1">  1        2 0.41382029E+00 0.40189938E+04</pdfrwt>
<pdfrwt beam="2">  1       -2 0.23095969E+00 0.40189938E+04</pdfrwt>
<totfact> 0.17883017E-01</totfact>
</mgrwt>
</event>
<event>
 6    1  0.1614874E-005  0.5309193E+03  0.7818608E-02  0.1006009E+00
         -1   -1    0    0    0  501 -0.00000000000E+00  0.00000000000E+00  0.10204871683E+03  0.10204871683E+03  0.00000000000E+00 0.  1.
          1   -1    0    0  501    0  0.00000000000E+00 -0.00000000000E+00 -0.69054095252E+03  0.69054095252E+03  0.00000000000E+00 0. -1.
         23    2    1    2    0    0  0.11960849589E+03 -0.22156349436E+03 -0.22139534464E+03  0.34744171445E+03  0.91122291419E+02 0.  0.
         11    1    3    3    0    0  0.85733779923E+02 -0.18843155114E+03 -0.21691269974E+03  0.29984637699E+03  0.00000000000E+00 0. -1.
        -11    1    3    3    0    0  0.33874715967E+02 -0.33131943220E+02 -0.44826449020E+01  0.47595337468E+02  0.00000000000E+00 0.  1.
         22    1    1    2    0    0 -0.11960849589E+03  0.22156349436E+03 -0.36709689105E+03  0.44514795489E+03  0.00000000000E+00 0.  1.
<mgrwt>
<rscale>  0 0.53091927E+03</rscale>
<asrwt>0</asrwt>
<pdfrwt beam="1">  1        1 0.10623707E+00 0.53091927E+03</pdfrwt>
<pdfrwt beam="2">  1       -1 0.15699802E-01 0.53091927E+03</pdfrwt>
<totfact> 0.85618611E+02</totfact>
</mgrwt>
</event>
<event>
 6    1  0.1614874E-005  0.2368408E+04  0.7818608E-02  0.8451427E-01
         -2   -1    0    0    0  501 -0.00000000000E+00  0.00000000000E+00  0.59902772896E+03  0.59902772896E+03  0.00000000000E+00 0.  1.
          2   -1    0    0  501    0  0.00000000000E+00 -0.00000000000E+00 -0.23410249567E+04  0.23410249567E+04  0.00000000000E+00 0. -1.
         23    2    1    2    0    0 -0.85197171216E+03  0.70560022343E+03 -0.13910782589E+04  0.17795047132E+04  0.88378891605E+02 0.  0.
         13    1    3    3    0    0 -0.77097738388E+02  0.98592656353E+02 -0.16955480241E+03  0.21074487935E+03  0.00000000000E+00 0.  1.
        -13    1    3    3    0    0 -0.77487397377E+03  0.60700756708E+03 -0.12215234564E+04  0.15687598339E+04  0.00000000000E+00 0. -1.
         22    1    1    2    0    0  0.85197171216E+03 -0.70560022343E+03 -0.35091896888E+03  0.11605479724E+04  0.00000000000E+00 0.  1.
<mgrwt>
<rscale>  0 0.23684078E+04</rscale>
<asrwt>0</asrwt>
<pdfrwt beam="1">  1        2 0.36015769E+00 0.23684078E+04</pdfrwt>
<pdfrwt beam="2">  1       -2 0.92158112E-01 0.23684078E+04</pdfrwt>
<totfact> 0.38743937E+00</totfact>
</mgrwt>
</event>
<event>
 6    1  0.1614874E-005  0.1938105E+04  0.7818608E-02  0.8636118E-01
          1   -1    0    0  501    0  0.00000000000E+00  0.00000000000E+00  0.12127157654E+04  0.12127157654E+04  0.00000000000E+00 0. -1.
         -1   -1    0    0    0  501 -0.00000000000E+00 -0.00000000000E+00 -0.77434656916E+03  0.77434656916E+03  0.00000000000E+00 0.  1.
         23    2    1    2    0    0  0.63415342918E+03  0.34508347202E+02  0.96716402521E+03  0.11606451463E+04  0.91375632814E+02 0.  0.
         13    1    3    3    0    0  0.33789903651E+03  0.55838978583E+02  0.56484069903E+03  0.66055943388E+03  0.00000000000E+00 0. -1.
        -13    1    3    3    0    0  0.29625439266E+03 -0.21330631381E+02  0.40232332618E+03  0.50008571245E+03  0.00000000000E+00 0.  1.
         22    1    1    2    0    0 -0.63415342918E+03 -0.34508347202E+02 -0.52879482901E+03  0.82641718820E+03  0.00000000000E+00 0.  1.
<mgrwt>
<rscale>  0 0.19381045E+04</rscale>
<asrwt>0</asrwt>
<pdfrwt beam="1">  1        1 0.18657166E+00 0.19381045E+04</pdfrwt>
<pdfrwt beam="2">  1       -1 0.11913024E+00 0.19381045E+04</pdfrwt>
<totfact> 0.61478625E+00</totfact>
</mgrwt>
</event>
<event>
 6    1  0.1614874E-005  0.2074772E+04  0.7818608E-02  0.8572439E-01
         -1   -1    0    0    0  501 -0.00000000000E+00  0.00000000000E+00  0.52423206528E+03  0.52423206528E+03  0.00000000000E+00 0.  1.
          1   -1    0    0  501    0  0.00000000000E+00 -0.00000000000E+00 -0.20528503603E+04  0.20528503603E+04  0.00000000000E+00 0. -1.
         23    2    1    2    0    0  0.38908276877E+03 -0.28780741351E+03 -0.19027079849E+04  0.19653949202E+04  0.90890090029E+02 0.  0.
         13    1    3    3    0    0  0.19385995011E+03 -0.95609902226E+02 -0.74576363074E+03  0.77645754977E+03  0.00000000000E+00 0.  1.
        -13    1    3    3    0    0  0.19522281866E+03 -0.19219751129E+03 -0.11569443542E+04  0.11889373705E+04  0.00000000000E+00 0. -1.
         22    1    1    2    0    0 -0.38908276877E+03  0.28780741351E+03  0.37408968982E+03  0.61168750539E+03  0.00000000000E+00 0.  1.
<mgrwt>
<rscale>  0 0.20747723E+04</rscale>
<asrwt>0</asrwt>
<pdfrwt beam="1">  1        1 0.31582314E+00 0.20747723E+04</pdfrwt>
<pdfrwt beam="2">  1       -1 0.80651086E-01 0.20747723E+04</pdfrwt>
<totfact> 0.38765420E+00</totfact>
</mgrwt>
</event>
<event>
 6    1  0.1614874E-005  0.4816225E+04  0.7818608E-02  0.7857499E-01
          2   -1    0    0  501    0  0.00000000000E+00  0.00000000000E+00  0.55083214067E+04  0.55083214067E+04  0.00000000000E+00 0. -1.
         -2   -1    0    0    0  501 -0.00000000000E+00 -0.00000000000E+00 -0.10527720493E+04  0.10527720493E+04  0.00000000000E+00 0.  1.
         23    2    1    2    0    0  0.13155242974E+03 -0.19691261836E+04  0.41064888894E+04  0.45569459617E+04  0.87985965461E+02 0.  0.
         11    1    3    3    0    0 -0.12294692016E+02 -0.17392905379E+03  0.34620791393E+03  0.38763693693E+03  0.00000000000E+00 0. -1.
        -11    1    3    3    0    0  0.14384712176E+03 -0.17951971298E+04  0.37602809755E+04  0.41693090247E+04  0.00000000000E+00 0.  1.
         22    1    1    2    0    0 -0.13155242974E+03  0.19691261836E+04  0.34906046799E+03  0.20041474943E+04  0.00000000000E+00 0.  1.
<mgrwt>
<rscale>  0 0.48162254E+04</rscale>
<asrwt>0</asrwt>
<pdfrwt beam="1">  1        2 0.84743404E+00 0.48162254E+04</pdfrwt>
<pdfrwt beam="2">  1       -2 0.16196493E+00 0.48162254E+04</pdfrwt>
<totfact> 0.10112898E-03</totfact>
</mgrwt>
</event>
<event>
 6    1  0.1614874E-005  0.2587012E+04  0.7818608E-02  0.8372626E-01
          1   -1    0    0  501    0  0.00000000000E+00  0.00000000000E+00  0.90818605591E+03  0.90818605591E+03  0.00000000000E+00 0. -1.
         -1   -1    0    0    0  501 -0.00000000000E+00 -0.00000000000E+00 -0.18423079331E+04  0.18423079331E+04  0.00000000000E+00 0.  1.
         23    2    1    2    0    0 -0.10082344418E+04 -0.78942497318E+03 -0.64915554257E+03  0.14386501378E+04  0.92643524508E+02 0.  0.
         13    1    3    3    0    0 -0.58623130365E+03 -0.51520463675E+03 -0.38417797904E+03  0.86988256603E+03  0.00000000000E+00 0.  1.
        -13    1    3    3    0    0 -0.42200313818E+03 -0.27422033644E+03 -0.26497756354E+03  0.56876757180E+03  0.00000000000E+00 0. -1.
         22    1    1    2    0    0  0.10082344418E+04  0.78942497318E+03 -0.28496633457E+03  0.13118438512E+04  0.00000000000E+00 0. -1.
<mgrwt>
<rscale>  0 0.25870125E+04</rscale>
<asrwt>0</asrwt>
<pdfrwt beam="1">  1        1 0.13972093E+00 0.25870125E+04</pdfrwt>
<pdfrwt beam="2">  1       -1 0.28343199E+00 0.25870125E+04</pdfrwt>
<totfact> 0.66807448E-01</totfact>
</mgrwt>
</event>
<event>
 6    1  0.1614874E-005  0.1252891E+04  0.7818608E-02  0.9067780E-01
         -1   -1    0    0    0  501 -0.00000000000E+00  0.00000000000E+00  0.48904414353E+03  0.48904414353E+03  0.00000000000E+00 0.  1.
          1   -1    0    0  501    0  0.00000000000E+00 -0.00000000000E+00 -0.80245113770E+03  0.80245113770E+03  0.00000000000E+00 0. -1.
         23    2    1    2    0    0  0.61522271613E+03 -0.27765639187E+02 -0.58826764156E+02  0.62510124264E+03  0.89560338364E+02 0.  0.
         13    1    3    3    0    0  0.19349176826E+03  0.32285107428E+02 -0.11657296136E+02  0.19651281154E+03  0.00000000000E+00 0. -1.
        -13    1    3    3    0    0  0.42173094786E+03 -0.60050746615E+02 -0.47169468020E+02  0.42858843109E+03  0.00000000000E+00 0.  1.
         22    1    1    2    0    0 -0.61522271613E+03  0.27765639187E+02 -0.25458023002E+03  0.66639403859E+03  0.00000000000E+00 0. -1.
<mgrwt>
<rscale>  0 0.12528911E+04</rscale>
<asrwt>0</asrwt>
<pdfrwt beam="1">  1        1 0.12345402E+00 0.12528911E+04</pdfrwt>
<pdfrwt beam="2">  1       -1 0.75237561E-01 0.12528911E+04</pdfrwt>
<totfact> 0.38540746E+01</totfact>
</mgrwt>
</event>
<event>
 6    1  0.1614874E-005  0.3234063E+04  0.7818608E-02  0.8179879E-01
         -2   -1    0    0    0  501 -0.00000000000E+00  0.00000000000E+00  0.88309428997E+03  0.88309428997E+03  0.00000000000E+00 0.  1.
          2   -1    0    0  501    0  0.00000000000E+00 -0.00000000000E+00 -0.29609425132E+04  0.29609425132E+04  0.00000000000E+00 0. -1.
         23    2    1    2    0    0  0.55780296946E+02  0.11679119697E+04 -0.23650148468E+04  0.26400457399E+04  0.97038511057E+02 0.  0.
         11    1    3    3    0    0  0.12466310202E+02  0.99153729265E+03 -0.20059320953E+04  0.22376472426E+04  0.00000000000E+00 0. -1.
        -11    1    3    3    0    0  0.43313986745E+02  0.17637467709E+03 -0.35908275153E+03  0.40239849728E+03  0.00000000000E+00 0.  1.
         22    1    1    2    0    0 -0.55780296946E+02 -0.11679119697E+04  0.28716662360E+03  0.12039910632E+04  0.00000000000E+00 0.  1.
<mgrwt>
<rscale>  0 0.32340633E+04</rscale>
<asrwt>0</asrwt>
<pdfrwt beam="1">  1        2 0.45552961E+00 0.32340633E+04</pdfrwt>
<pdfrwt beam="2">  1       -2 0.13586066E+00 0.32340633E+04</pdfrwt>
<totfact> 0.59989968E-01</totfact>
</mgrwt>
</event>
<event>
 6    1  0.1614874E-005  0.1838614E+04  0.7818608E-02  0.8686030E-01
          1   -1    0    0  501    0  0.00000000000E+00  0.00000000000E+00  0.46185276128E+03  0.46185276128E+03  0.00000000000E+00 0. -1.
         -1   -1    0    0    0  501 -0.00000000000E+00 -0.00000000000E+00 -0.18298590970E+04  0.18298590970E+04  0.00000000000E+00 0.  1.
         23    2    1    2    0    0  0.12357261975E+03  0.68465180588E+03  0.59197690009E+02  0.70396829628E+03  0.89714592002E+02 0.  0.
         13    1    3    3    0    0  0.62923264075E+02  0.54845028370E+03  0.55459726777E+02  0.55482684880E+03  0.00000000000E+00 0.  1.
        -13    1    3    3    0    0  0.60649355674E+02  0.13620152218E+03  0.37379632321E+01  0.14914144748E+03  0.00000000000E+00 0. -1.
         22    1    1    2    0    0 -0.12357261975E+03 -0.68465180588E+03 -0.14272040257E+04  0.15877435620E+04  0.00000000000E+00 0.  1.
<mgrwt>
<rscale>  0 0.18386141E+04</rscale>
<asrwt>0</asrwt>
<pdfrwt beam="1">  1        1 0.71054271E-01 0.18386141E+04</pdfrwt>
<pdfrwt beam="2">  1       -1 0.28151678E+00 0.18386141E+04</pdfrwt>
<totfact> 0.20238565E+00</totfact>
</mgrwt>
</event>
<event>
 6    1  0.1614874E-005  0.1673227E+04  0.7818608E-02  0.8776783E-01
          2   -1    0    0  501    0  0.00000000000E+00  0.00000000000E+00  0.53559150531E+03  0.53559150531E+03  0.00000000000E+00 0. -1.
         -2   -1    0    0    0  501 -0.00000000000E+00 -0.00000000000E+00 -0.13068205249E+04  0.13068205249E+04  0.00000000000E+00 0.  1.
         23    2    1    2    0    0 -0.12899386113E+03  0.38823803621E+03 -0.11870617880E+04  0.12590724376E+04  0.93699122605E+02 0.  0.
         13    1    3    3    0    0 -0.10530030161E+03  0.28066660978E+03 -0.97597377527E+03  0.10209734127E+04  0.00000000000E+00 0. -1.
        -13    1    3    3    0    0 -0.23693559523E+02  0.10757142642E+03 -0.21108801278E+03  0.23809902495E+03  0.00000000000E+00 0.  1.
         22    1    1    2    0    0  0.12899386113E+03 -0.38823803621E+03  0.41583276845E+03  0.58333959259E+03  0.00000000000E+00 0. -1.
<mgrwt>
<rscale>  0 0.16732268E+04</rscale>
<asrwt>0</asrwt>
<pdfrwt beam="1">  1        2 0.82398693E-01 0.16732268E+04</pdfrwt>
<pdfrwt beam="2">  1       -2 0.20104931E+00 0.16732268E+04</pdfrwt>
<totfact> 0.70846159E+00</totfact>
</mgrwt>
</event>
<event>
 6    1  0.1614874E-005  0.4203094E+04  0.7818608E-02  0.7964784E-01
         -2   -1    0    0    0  501 -0.00000000000E+00  0.00000000000E+00  0.13651117096E+04  0.13651117096E+04  0.00000000000E+00 0.  1.
          2   -1    0    0  501    0  0.00000000000E+00 -0.00000000000E+00 -0.32352662911E+04  0.32352662911E+04  0.00000000000E+00 0. -1.
         23    2    1    2    0    0 -0.13195669172E+04  0.13938386165E+04 -0.18695578082E+04  0.26809918243E+04  0.91803192715E+02 0.  0.
         11    1    3    3    0    0 -0.23872894578E+03  0.23720319444E+03 -0.28245763445E+03  0.43936224265E+03  0.00000000000E+00 0. -1.
        -11    1    3    3    0    0 -0.10808379714E+04  0.11566354220E+04 -0.15871001737E+04  0.22416295817E+04  0.00000000000E+00 0.  1.
         22    1    1    2    0    0  0.13195669172E+04 -0.13938386165E+04 -0.59677333816E+00  0.19193861763E+04  0.00000000000E+00 0.  1.
<mgrwt>
<rscale>  0 0.42030940E+04</rscale>
<asrwt>0</asrwt>
<pdfrwt beam="1">  1        2 0.49773327E+00 0.42030940E+04</pdfrwt>
<pdfrwt beam="2">  1       -2 0.21001719E+00 0.42030940E+04</pdfrwt>
<totfact> 0.10911986E-01</totfact>
</mgrwt>
</event>
<event>
 6    1  0.1614874E-005  0.4979628E+04  0.7818608E-02  0.7831658E-01
         -2   -1    0    0    0  501 -0.00000000000E+00  0.00000000000E+00  0.20610962036E+04  0.20610962036E+04  0.00000000000E+00 0.  1.
          2   -1    0    0  501    0  0.00000000000E+00 -0.00000000000E+00 -0.30077068657E+04  0.30077068657E+04  0.00000000000E+00 0. -1.
         23    2    1    2    0    0  0.72474593284E+03 -0.12945414180E+04 -0.25077126014E+04  0.29151704603E+04  0.92207220537E+02 0.  0.
         11    1    3    3    0    0  0.58760727741E+03 -0.99639810095E+03 -0.20071380818E+04  0.23166127789E+04  0.00000000000E+00 0. -1.
        -11    1    3    3    0    0  0.13713865543E+03 -0.29814331700E+03 -0.50057451959E+03  0.59855768139E+03  0.00000000000E+00 0.  1.
         22    1    1    2    0    0 -0.72474593284E+03  0.12945414180E+04  0.15611019392E+04  0.21536326090E+04  0.00000000000E+00 0.  1.
<mgrwt>
<rscale>  0 0.49796278E+04</rscale>
<asrwt>0</asrwt>
<pdfrwt beam="1">  1        2 0.46272413E+00 0.49796278E+04</pdfrwt>
<pdfrwt beam="2">  1       -2 0.31709172E+00 0.49796278E+04</pdfrwt>
<totfact> 0.31317133E-02</totfact>
</mgrwt>
</event>
<event>
 6    1  0.1614874E-005  0.2268328E+04  0.7818608E-02  0.8490515E-01
         -2   -1    0    0    0  501 -0.00000000000E+00  0.00000000000E+00  0.10701915926E+04  0.10701915926E+04  0.00000000000E+00 0.  1.
          2   -1    0    0  501    0  0.00000000000E+00 -0.00000000000E+00 -0.12019600368E+04  0.12019600368E+04  0.00000000000E+00 0. -1.
         23    2    1    2    0    0  0.83701834064E+03  0.61935822824E+03  0.38037050820E+03  0.11117678033E+04  0.84508031985E+02 0.  0.
         11    1    3    3    0    0  0.55940307377E+03  0.36817045723E+03  0.22583464070E+03  0.70674080784E+03  0.00000000000E+00 0.  1.
        -11    1    3    3    0    0  0.27761526687E+03  0.25118777101E+03  0.15453586750E+03  0.40502699545E+03  0.00000000000E+00 0. -1.
         22    1    1    2    0    0 -0.83701834064E+03 -0.61935822824E+03 -0.51213895236E+03  0.11603838261E+04  0.00000000000E+00 0. -1.
<mgrwt>
<rscale>  0 0.22683276E+04</rscale>
<asrwt>0</asrwt>
<pdfrwt beam="1">  1        2 0.18491693E+00 0.22683276E+04</pdfrwt>
<pdfrwt beam="2">  1       -2 0.16464486E+00 0.22683276E+04</pdfrwt>
<totfact> 0.39989963E+00</totfact>
</mgrwt>
</event>
<event>
 6    1  0.1614874E-005  0.1670011E+04  0.7818608E-02  0.8778655E-01
          2   -1    0    0  501    0  0.00000000000E+00  0.00000000000E+00  0.18111665295E+04  0.18111665295E+04  0.00000000000E+00 0. -1.
         -2   -1    0    0    0  501 -0.00000000000E+00 -0.00000000000E+00 -0.38496418550E+03  0.38496418550E+03  0.00000000000E+00 0.  1.
         23    2    1    2    0    0 -0.56367736646E+03 -0.51476608542E+03  0.11522144361E+04  0.13850908456E+04  0.90345157304E+02 0.  0.
         11    1    3    3    0    0 -0.31516722286E+02 -0.57061520742E+02  0.12475580185E+03  0.14075983457E+03  0.00000000000E+00 0.  1.
        -11    1    3    3    0    0 -0.53216064417E+03 -0.45770456468E+03  0.10274586343E+04  0.12443310110E+04  0.00000000000E+00 0. -1.
         22    1    1    2    0    0  0.56367736646E+03  0.51476608542E+03  0.27398790784E+03  0.81103986942E+03  0.00000000000E+00 0.  1.
<mgrwt>
<rscale>  0 0.16700111E+04</rscale>
<asrwt>0</asrwt>
<pdfrwt beam="1">  1        2 0.27864100E+00 0.16700111E+04</pdfrwt>
<pdfrwt beam="2">  1       -2 0.59225260E-01 0.16700111E+04</pdfrwt>
<totfact> 0.21596828E+01</totfact>
</mgrwt>
</event>
<event>
 6    1  0.1614874E-005  0.1848993E+04  0.7818608E-02  0.8680671E-01
         -2   -1    0    0    0  501 -0.00000000000E+00  0.00000000000E+00  0.25214839611E+03  0.25214839611E+03  0.00000000000E+00 0.  1.
          2   -1    0    0  501    0  0.00000000000E+00 -0.00000000000E+00 -0.33896468060E+04  0.33896468060E+04  0.00000000000E+00 0. -1.
         23    2    1    2    0    0  0.12678718257E+03 -0.91147805707E+03 -0.14495538807E+04  0.17192905931E+04  0.88805698776E+02 0.  0.
         13    1    3    3    0    0  0.36560900720E+02 -0.30876354748E+03 -0.56907884193E+03  0.64847695105E+03  0.00000000000E+00 0. -1.
        -13    1    3    3    0    0  0.90226281855E+02 -0.60271450958E+03 -0.88047503880E+03  0.10708136420E+04  0.00000000000E+00 0.  1.
         22    1    1    2    0    0 -0.12678718257E+03  0.91147805707E+03 -0.16879445291E+04  0.19225046090E+04  0.00000000000E+00 0. -1.
<mgrwt>
<rscale>  0 0.18489932E+04</rscale>
<asrwt>0</asrwt>
<pdfrwt beam="1">  1        2 0.52148407E+00 0.18489932E+04</pdfrwt>
<pdfrwt beam="2">  1       -2 0.38792065E-01 0.18489932E+04</pdfrwt>
<totfact> 0.57595222E+00</totfact>
</mgrwt>
</event>
<event>
 6    1  0.1614874E-005  0.1219748E+04  0.7818608E-02  0.9095744E-01
          2   -1    0    0  501    0  0.00000000000E+00  0.00000000000E+00  0.25180051805E+04  0.25180051805E+04  0.00000000000E+00 0.  1.
         -2   -1    0    0    0  501 -0.00000000000E+00 -0.00000000000E+00 -0.14771472256E+03  0.14771472256E+03  0.00000000000E+00 0. -1.
         23    2    1    2    0    0  0.37375022197E+03 -0.42367861132E+02  0.15233515174E+03  0.41609548899E+03  0.91897733507E+02 0.  0.
         13    1    3    3    0    0  0.20954403741E+03 -0.64062153118E+02  0.63449453250E+02  0.22811947789E+03  0.00000000000E+00 0.  1.
        -13    1    3    3    0    0  0.16420618455E+03  0.21694291986E+02  0.88885698489E+02  0.18797601109E+03  0.00000000000E+00 0. -1.
         22    1    1    2    0    0 -0.37375022197E+03  0.42367861132E+02  0.22179553062E+04  0.22496244141E+04  0.00000000000E+00 0.  1.
<mgrwt>
<rscale>  0 0.12197482E+04</rscale>
<asrwt>0</asrwt>
<pdfrwt beam="1">  1        2 0.38738538E+00 0.12197482E+04</pdfrwt>
<pdfrwt beam="2">  1       -2 0.22725344E-01 0.12197482E+04</pdfrwt>
<totfact> 0.57420373E+01</totfact>
</mgrwt>
</event>
<event>
 6    1  0.1614874E-005  0.2313183E+04  0.7818608E-02  0.8472741E-01
         -2   -1    0    0    0  501 -0.00000000000E+00  0.00000000000E+00  0.66120357182E+03  0.66120357182E+03  0.00000000000E+00 0.  1.
          2   -1    0    0  501    0  0.00000000000E+00 -0.00000000000E+00 -0.20231351932E+04  0.20231351932E+04  0.00000000000E+00 0. -1.
         23    2    1    2    0    0 -0.32595033623E+03  0.91302935796E+03 -0.14100889736E+04  0.17136764341E+04  0.92031391272E+02 0.  0.
         11    1    3    3    0    0 -0.20086969002E+03  0.67312168931E+03 -0.98606160958E+03  0.12106853179E+04  0.00000000000E+00 0.  1.
        -11    1    3    3    0    0 -0.12508064621E+03  0.23990766864E+03 -0.42402736406E+03  0.50299111623E+03  0.00000000000E+00 0. -1.
         22    1    1    2    0    0  0.32595033623E+03 -0.91302935796E+03  0.48157352234E+02  0.97066233096E+03  0.00000000000E+00 0.  1.
<mgrwt>
<rscale>  0 0.23131833E+04</rscale>
<asrwt>0</asrwt>
<pdfrwt beam="1">  1        2 0.31125157E+00 0.23131833E+04</pdfrwt>
<pdfrwt beam="2">  1       -2 0.10172363E+00 0.23131833E+04</pdfrwt>
<totfact> 0.46580715E+00</totfact>
</mgrwt>
</event>
<event>
 6    1  0.1614874E-005  0.2604388E+04  0.7818608E-02  0.8366712E-01
          2   -1    0    0  501    0  0.00000000000E+00  0.00000000000E+00  0.13189117898E+04  0.13189117898E+04  0.00000000000E+00 0. -1.
         -2   -1    0    0    0  501 -0.00000000000E+00 -0.00000000000E+00 -0.12856882629E+04  0.12856882629E+04  0.00000000000E+00 0.  1.
         23    2    1    2    0    0  0.83433561394E+03 -0.97412519967E+03 -0.19901087180E+03  0.13011551412E+04  0.91452463407E+02 0.  0.
         11    1    3    3    0    0  0.51223566555E+03 -0.57075116031E+03 -0.16053531241E+03  0.78352654747E+03  0.00000000000E+00 0.  1.
        -11    1    3    3    0    0  0.32209994839E+03 -0.40337403936E+03 -0.38475559398E+02  0.51762859374E+03  0.00000000000E+00 0. -1.
         22    1    1    2    0    0 -0.83433561394E+03  0.97412519967E+03  0.23223439870E+03  0.13034449115E+04  0.00000000000E+00 0. -1.
<mgrwt>
<rscale>  0 0.26043881E+04</rscale>
<asrwt>0</asrwt>
<pdfrwt beam="1">  1        2 0.20290951E+00 0.26043881E+04</pdfrwt>
<pdfrwt beam="2">  1       -2 0.19779819E+00 0.26043881E+04</pdfrwt>
<totfact> 0.19599327E+00</totfact>
</mgrwt>
</event>
<event>
 6    1  0.1614874E-005  0.1362270E+04  0.7818608E-02  0.8981592E-01
          2   -1    0    0  501    0  0.00000000000E+00  0.00000000000E+00  0.77987172629E+03  0.77987172629E+03  0.00000000000E+00 0.  1.
         -2   -1    0    0    0  501 -0.00000000000E+00 -0.00000000000E+00 -0.59489872206E+03  0.59489872206E+03  0.00000000000E+00 0. -1.
         23    2    1    2    0    0  0.24532488312E+03  0.31048842659E+03 -0.46289791560E+03  0.61561032683E+03  0.90079037002E+02 0.  0.
         11    1    3    3    0    0  0.51229376956E+02  0.38902875156E+02 -0.12527501526E+03  0.14082511213E+03  0.00000000000E+00 0.  1.
        -11    1    3    3    0    0  0.19409550616E+03  0.27158555144E+03 -0.33762290035E+03  0.47478521470E+03  0.00000000000E+00 0. -1.
         22    1    1    2    0    0 -0.24532488312E+03 -0.31048842659E+03  0.64787091984E+03  0.75916012151E+03  0.00000000000E+00 0.  1.
<mgrwt>
<rscale>  0 0.13622697E+04</rscale>
<asrwt>0</asrwt>
<pdfrwt beam="1">  1        2 0.11998027E+00 0.13622697E+04</pdfrwt>
<pdfrwt beam="2">  1       -2 0.91522880E-01 0.13622697E+04</pdfrwt>
<totfact> 0.35360333E+01</totfact>
</mgrwt>
</event>
<event>
 6    1  0.1614874E-005  0.1929398E+04  0.7818608E-02  0.8640360E-01
          2   -1    0    0  501    0  0.00000000000E+00  0.00000000000E+00  0.50396479010E+03  0.50396479010E+03  0.00000000000E+00 0. -1.
         -2   -1    0    0    0  501 -0.00000000000E+00 -0.00000000000E+00 -0.18466456459E+04  0.18466456459E+04  0.00000000000E+00 0.  1.
         23    2    1    2    0    0 -0.88933754970E+03  0.36274964472E+02 -0.22555159225E+03  0.92224950758E+03  0.86217649618E+02 0.  0.
         13    1    3    3    0    0 -0.50132925554E+03  0.34018800316E+02 -0.16896788007E+03  0.53013059309E+03  0.00000000000E+00 0.  1.
        -13    1    3    3    0    0 -0.38800829417E+03  0.22561641559E+01 -0.56583712180E+02  0.39211891449E+03  0.00000000000E+00 0. -1.
         22    1    1    2    0    0  0.88933754970E+03 -0.36274964472E+02 -0.11171292636E+04  0.14283609284E+04  0.00000000000E+00 0. -1.
<mgrwt>
<rscale>  0 0.19293982E+04</rscale>
<asrwt>0</asrwt>
<pdfrwt beam="1">  1        2 0.77533045E-01 0.19293982E+04</pdfrwt>
<pdfrwt beam="2">  1       -2 0.28409933E+00 0.19293982E+04</pdfrwt>
<totfact> 0.22681617E+00</totfact>
</mgrwt>
</event>
<event>
 6    1  0.1614874E-005  0.2465172E+04  0.7818608E-02  0.8415499E-01
          2   -1    0    0  501    0  0.00000000000E+00  0.00000000000E+00  0.19914617424E+04  0.19914617424E+04  0.00000000000E+00 0.  1.
         -2   -1    0    0    0  501 -0.00000000000E+00 -0.00000000000E+00 -0.76289093897E+03  0.76289093897E+03  0.00000000000E+00 0. -1.
         23    2    1    2    0    0 -0.89963827395E+03  0.38694880915E+02  0.15528442016E+04  0.17972740250E+04  0.89568345488E+02 0.  0.
         11    1    3    3    0    0 -0.84852106098E+03  0.39287636923E+02  0.14995773859E+04  0.17234453417E+04  0.00000000000E+00 0. -1.
        -11    1    3    3    0    0 -0.51117212975E+02 -0.59275600793E+00  0.53266815692E+02  0.73828683287E+02  0.00000000000E+00 0.  1.
         22    1    1    2    0    0  0.89963827395E+03 -0.38694880915E+02 -0.32427339820E+03  0.95707865641E+03  0.00000000000E+00 0. -1.
<mgrwt>
<rscale>  0 0.24651719E+04</rscale>
<asrwt>0</asrwt>
<pdfrwt beam="1">  1        2 0.30637873E+00 0.24651719E+04</pdfrwt>
<pdfrwt beam="2">  1       -2 0.11736784E+00 0.24651719E+04</pdfrwt>
<totfact> 0.33890213E+00</totfact>
</mgrwt>
</event>
<event>
 6    1  0.1614874E-005  0.1628210E+04  0.7818608E-02  0.8803402E-01
         -2   -1    0    0    0  501 -0.00000000000E+00  0.00000000000E+00  0.47674524074E+03  0.47674524074E+03  0.00000000000E+00 0.  1.
          2   -1    0    0  501    0  0.00000000000E+00 -0.00000000000E+00 -0.13901912978E+04  0.13901912978E+04  0.00000000000E+00 0. -1.
         23    2    1    2    0    0  0.38070734207E+03  0.10956173252E+03  0.35396632621E+03  0.53905250641E+03  0.91343259404E+02 0.  0.
         13    1    3    3    0    0  0.29691668394E+03  0.50165449096E+02  0.23560907866E+03  0.38234503715E+03  0.00000000000E+00 0.  1.
        -13    1    3    3    0    0  0.83790658123E+02  0.59396283427E+02  0.11835724755E+03  0.15670746926E+03  0.00000000000E+00 0. -1.
         22    1    1    2    0    0 -0.38070734207E+03 -0.10956173252E+03 -0.12674123832E+04  0.13278840321E+04  0.00000000000E+00 0. -1.
<mgrwt>
<rscale>  0 0.16282102E+04</rscale>
<asrwt>0</asrwt>
<pdfrwt beam="1">  1        2 0.21387558E+00 0.16282102E+04</pdfrwt>
<pdfrwt beam="2">  1       -2 0.73345422E-01 0.16282102E+04</pdfrwt>
<totfact> 0.23532314E+01</totfact>
</mgrwt>
</event>
<event>
 6    1  0.1614874E-005  0.1385402E+04  0.7818608E-02  0.8964454E-01
         -1   -1    0    0    0  501 -0.00000000000E+00  0.00000000000E+00  0.19847526995E+03  0.19847526995E+03  0.00000000000E+00 0.  1.
          1   -1    0    0  501    0  0.00000000000E+00 -0.00000000000E+00 -0.24176029926E+04  0.24176029926E+04  0.00000000000E+00 0. -1.
         23    2    1    2    0    0  0.49227806600E+03 -0.48277022777E+03 -0.11672417307E+04  0.13583545540E+04  0.85258719677E+02 0.  0.
         13    1    3    3    0    0  0.31107627030E+02 -0.65675265472E+01 -0.50227374504E+02  0.59444141965E+02  0.00000000000E+00 0.  1.
        -13    1    3    3    0    0  0.46117043897E+03 -0.47620270123E+03 -0.11170143562E+04  0.12989104120E+04  0.00000000000E+00 0. -1.
         22    1    1    2    0    0 -0.49227806600E+03  0.48277022777E+03 -0.10518859919E+04  0.12577237086E+04  0.00000000000E+00 0. -1.
<mgrwt>
<rscale>  0 0.13854016E+04</rscale>
<asrwt>0</asrwt>
<pdfrwt beam="1">  1        1 0.37193894E+00 0.13854016E+04</pdfrwt>
<pdfrwt beam="2">  1       -1 0.30534655E-01 0.13854016E+04</pdfrwt>
<totfact> 0.14963397E+01</totfact>
</mgrwt>
</event>
<event>
 6    1  0.1614874E-005  0.1490364E+04  0.7818608E-02  0.8890886E-01
          2   -1    0    0  501    0  0.00000000000E+00  0.00000000000E+00  0.11750990629E+04  0.11750990629E+04  0.00000000000E+00 0. -1.
         -2   -1    0    0    0  501 -0.00000000000E+00 -0.00000000000E+00 -0.47255286390E+03  0.47255286390E+03  0.00000000000E+00 0.  1.
         23    2    1    2    0    0  0.42621855762E+03  0.60154498828E+03  0.25504243914E+03  0.78522613472E+03  0.89525443906E+02 0.  0.
         11    1    3    3    0    0  0.35856912620E+03  0.44060072918E+03  0.19576904809E+03  0.60085467544E+03  0.00000000000E+00 0.  1.
        -11    1    3    3    0    0  0.67649431418E+02  0.16094425910E+03  0.59273391049E+02  0.18437145928E+03  0.00000000000E+00 0. -1.
         22    1    1    2    0    0 -0.42621855762E+03 -0.60154498828E+03  0.44750375989E+03  0.86242579211E+03  0.00000000000E+00 0. -1.
<mgrwt>
<rscale>  0 0.14903643E+04</rscale>
<asrwt>0</asrwt>
<pdfrwt beam="1">  1        2 0.18078447E+00 0.14903643E+04</pdfrwt>
<pdfrwt beam="2">  1       -2 0.72700441E-01 0.14903643E+04</pdfrwt>
<totfact> 0.32430462E+01</totfact>
</mgrwt>
</event>
<event>
 6    1  0.1614874E-005  0.2414299E+04  0.7818608E-02  0.8434169E-01
         -1   -1    0    0    0  501 -0.00000000000E+00  0.00000000000E+00  0.67908499189E+03  0.67908499189E+03  0.00000000000E+00 0.  1.
          1   -1    0    0  501    0  0.00000000000E+00 -0.00000000000E+00 -0.21458438227E+04  0.21458438227E+04  0.00000000000E+00 0. -1.
         23    2    1    2    0    0  0.32796366296E+03  0.11145173240E+04 -0.11106795807E+04  0.16098150495E+04  0.90478357440E+02 0.  0.
         11    1    3    3    0    0  0.79697241362E+02  0.17165132911E+03 -0.20622992900E+03  0.27990464927E+03  0.00000000000E+00 0.  1.
        -11    1    3    3    0    0  0.24826642160E+03  0.94286599484E+03 -0.90444965170E+03  0.13299104003E+04  0.00000000000E+00 0. -1.
         22    1    1    2    0    0 -0.32796366296E+03 -0.11145173240E+04 -0.35607925010E+03  0.12151137650E+04  0.00000000000E+00 0. -1.
<mgrwt>
<rscale>  0 0.24142993E+04</rscale>
<asrwt>0</asrwt>
<pdfrwt beam="1">  1        1 0.33012981E+00 0.24142993E+04</pdfrwt>
<pdfrwt beam="2">  1       -1 0.10447462E+00 0.24142993E+04</pdfrwt>
<totfact> 0.18280866E+00</totfact>
</mgrwt>
</event>
<event>
 6    1  0.1614874E-005  0.2442982E+04  0.7818608E-02  0.8423585E-01
         -2   -1    0    0    0  501 -0.00000000000E+00  0.00000000000E+00  0.84896310809E+03  0.84896310809E+03  0.00000000000E+00 0.  1.
          2   -1    0    0  501    0  0.00000000000E+00 -0.00000000000E+00 -0.17574848804E+04  0.17574848804E+04  0.00000000000E+00 0. -1.
         23    2    1    2    0    0  0.46821830238E+03 -0.45832587117E+03 -0.15526228966E+04  0.16876676877E+04  0.91068008494E+02 0.  0.
         13    1    3    3    0    0  0.24240177105E+02 -0.41447014464E+02 -0.17426131001E+03  0.18075520839E+03  0.00000000000E+00 0. -1.
        -13    1    3    3    0    0  0.44397812527E+03 -0.41687885671E+03 -0.13783615866E+04  0.15069124793E+04  0.00000000000E+00 0.  1.
         22    1    1    2    0    0 -0.46821830238E+03  0.45832587117E+03  0.64410112427E+03  0.91878030081E+03  0.00000000000E+00 0.  1.
<mgrwt>
<rscale>  0 0.24429816E+04</rscale>
<asrwt>0</asrwt>
<pdfrwt beam="1">  1        2 0.27038229E+00 0.24429816E+04</pdfrwt>
<pdfrwt beam="2">  1       -2 0.13060971E+00 0.24429816E+04</pdfrwt>
<totfact> 0.35042418E+00</totfact>
</mgrwt>
</event>
<event>
 6    1  0.1614874E-005  0.2317596E+04  0.7818608E-02  0.8471015E-01
          1   -1    0    0  501    0  0.00000000000E+00  0.00000000000E+00  0.99857882245E+03  0.99857882245E+03  0.00000000000E+00 0. -1.
         -1   -1    0    0    0  501 -0.00000000000E+00 -0.00000000000E+00 -0.13447236771E+04  0.13447236771E+04  0.00000000000E+00 0.  1.
         23    2    1    2    0    0  0.65335006927E+03 -0.47960175370E+03  0.66158072481E+03  0.10500913804E+04  0.90103810088E+02 0.  0.
         13    1    3    3    0    0  0.42503692510E+03 -0.27548544545E+03  0.45327630321E+03  0.67971172229E+03  0.00000000000E+00 0. -1.
        -13    1    3    3    0    0  0.22831314416E+03 -0.20411630824E+03  0.20830442160E+03  0.37037965812E+03  0.00000000000E+00 0.  1.
         22    1    1    2    0    0 -0.65335006927E+03  0.47960175370E+03 -0.10077255794E+04  0.12932111191E+04  0.00000000000E+00 0.  1.
<mgrwt>
<rscale>  0 0.23175958E+04</rscale>
<asrwt>0</asrwt>
<pdfrwt beam="1">  1        1 0.15362751E+00 0.23175958E+04</pdfrwt>
<pdfrwt beam="2">  1       -1 0.20688057E+00 0.23175958E+04</pdfrwt>
<totfact> 0.18482165E+00</totfact>
</mgrwt>
</event>
<event>
 6    1  0.1614874E-005  0.6723909E+03  0.7818608E-02  0.9765648E-01
         -2   -1    0    0    0  501 -0.00000000000E+00  0.00000000000E+00  0.10484045050E+03  0.10484045050E+03  0.00000000000E+00 0.  1.
          2   -1    0    0  501    0  0.00000000000E+00 -0.00000000000E+00 -0.10780895481E+04  0.10780895481E+04  0.00000000000E+00 0. -1.
         23    2    1    2    0    0  0.25014932146E+03  0.88864732339E+02 -0.15163957362E+03  0.31949856902E+03  0.92807066743E+02 0.  0.
         11    1    3    3    0    0  0.12398774265E+03  0.42136230685E+02 -0.12758302360E+03  0.18282737808E+03  0.00000000000E+00 0.  1.
        -11    1    3    3    0    0  0.12616157881E+03  0.46728501653E+02 -0.24056550017E+02  0.13667119094E+03  0.00000000000E+00 0. -1.
         22    1    1    2    0    0 -0.25014932146E+03 -0.88864732339E+02 -0.82160952394E+03  0.86343142954E+03  0.00000000000E+00 0.  1.
<mgrwt>
<rscale>  0 0.67239094E+03</rscale>
<asrwt>0</asrwt>
<pdfrwt beam="1">  1        2 0.16585992E+00 0.67239094E+03</pdfrwt>
<pdfrwt beam="2">  1       -2 0.16129301E-01 0.67239094E+03</pdfrwt>
<totfact> 0.70194632E+02</totfact>
</mgrwt>
</event>
<event>
 6    1  0.1614874E-005  0.3777373E+04  0.7818608E-02  0.8051028E-01
         -2   -1    0    0    0  501 -0.00000000000E+00  0.00000000000E+00  0.14226698088E+04  0.14226698088E+04  0.00000000000E+00 0.  1.
          2   -1    0    0  501    0  0.00000000000E+00 -0.00000000000E+00 -0.25073539239E+04  0.25073539239E+04  0.00000000000E+00 0. -1.
         23    2    1    2    0    0  0.12289941859E+04  0.10860198832E+04  0.42870475327E+03  0.16983849262E+04  0.10420027138E+03 0.  0.
         11    1    3    3    0    0  0.69142147488E+03  0.61909329496E+03  0.18946965829E+03  0.94722696077E+03  0.00000000000E+00 0.  1.
        -11    1    3    3    0    0  0.53757271098E+03  0.46692658820E+03  0.23923509498E+03  0.75115796542E+03  0.00000000000E+00 0. -1.
         22    1    1    2    0    0 -0.12289941859E+04 -0.10860198832E+04 -0.15133888684E+04  0.22316388064E+04  0.00000000000E+00 0.  1.
<mgrwt>
<rscale>  0 0.37773730E+04</rscale>
<asrwt>0</asrwt>
<pdfrwt beam="1">  1        2 0.38574676E+00 0.37773730E+04</pdfrwt>
<pdfrwt beam="2">  1       -2 0.21887228E+00 0.37773730E+04</pdfrwt>
<totfact> 0.27821192E-01</totfact>
</mgrwt>
</event>
<event>
 6    1  0.1614874E-005  0.1260788E+04  0.7818608E-02  0.9061252E-01
         -1   -1    0    0    0  501 -0.00000000000E+00  0.00000000000E+00  0.32305686128E+03  0.32305686128E+03  0.00000000000E+00 0.  1.
          1   -1    0    0  501    0  0.00000000000E+00 -0.00000000000E+00 -0.12301125655E+04  0.12301125655E+04  0.00000000000E+00 0. -1.
         23    2    1    2    0    0 -0.27727437755E+03 -0.49965388155E+03 -0.77413689424E+03  0.96648169734E+03  0.90905767017E+02 0.  0.
         13    1    3    3    0    0 -0.12802773825E+03 -0.26852087627E+03 -0.33246520791E+03  0.44612518112E+03  0.00000000000E+00 0. -1.
        -13    1    3    3    0    0 -0.14924663930E+03 -0.23113300528E+03 -0.44167168633E+03  0.52035651622E+03  0.00000000000E+00 0.  1.
         22    1    1    2    0    0  0.27727437755E+03  0.49965388155E+03 -0.13291880993E+03  0.58668772940E+03  0.00000000000E+00 0.  1.
<mgrwt>
<rscale>  0 0.12607875E+04</rscale>
<asrwt>0</asrwt>
<pdfrwt beam="1">  1        1 0.18924809E+00 0.12607875E+04</pdfrwt>
<pdfrwt beam="2">  1       -1 0.49701055E-01 0.12607875E+04</pdfrwt>
<totfact> 0.40630609E+01</totfact>
</mgrwt>
</event>
<event>
 6    1  0.1614874E-005  0.6453071E+04  0.7818608E-02  0.7636631E-01
          2   -1    0    0  501    0  0.00000000000E+00  0.00000000000E+00  0.41472724459E+04  0.41472724459E+04  0.00000000000E+00 0. -1.
         -2   -1    0    0    0  501 -0.00000000000E+00 -0.00000000000E+00 -0.25102118192E+04  0.25102118192E+04  0.00000000000E+00 0.  1.
         23    2    1    2    0    0  0.14911333097E+04 -0.92115398003E+03 -0.19752913608E+04  0.26423765350E+04  0.91512787495E+02 0.  0.
         13    1    3    3    0    0  0.50296791536E+03 -0.27673751335E+03 -0.59926839779E+03  0.82986925944E+03  0.00000000000E+00 0.  1.
        -13    1    3    3    0    0  0.98816539430E+03 -0.64441646668E+03 -0.13760229631E+04  0.18125072755E+04  0.00000000000E+00 0. -1.
         22    1    1    2    0    0 -0.14911333097E+04  0.92115398003E+03  0.36123519876E+04  0.40151077301E+04  0.00000000000E+00 0. -1.
<mgrwt>
<rscale>  0 0.64530713E+04</rscale>
<asrwt>0</asrwt>
<pdfrwt beam="1">  1        2 0.63804191E+00 0.64530713E+04</pdfrwt>
<pdfrwt beam="2">  1       -2 0.38618643E+00 0.64530713E+04</pdfrwt>
<totfact> 0.15224925E-03</totfact>
</mgrwt>
</event>
<event>
 6    1  0.1614874E-005  0.2526479E+04  0.7818608E-02  0.8393613E-01
          2   -1    0    0  501    0  0.00000000000E+00  0.00000000000E+00  0.27563529371E+04  0.27563529371E+04  0.00000000000E+00 0. -1.
         -2   -1    0    0    0  501 -0.00000000000E+00 -0.00000000000E+00 -0.57894391968E+03  0.57894391968E+03  0.00000000000E+00 0.  1.
         23    2    1    2    0    0  0.60972849975E+03  0.10870278174E+04  0.83123626442E+03  0.15007453039E+04  0.88794261365E+02 0.  0.
         13    1    3    3    0    0  0.37826921496E+03  0.73017137482E+03  0.58595953039E+03  0.10097457140E+04  0.00000000000E+00 0. -1.
        -13    1    3    3    0    0  0.23145928479E+03  0.35685644254E+03  0.24527673403E+03  0.49099958998E+03  0.00000000000E+00 0.  1.
         22    1    1    2    0    0 -0.60972849975E+03 -0.10870278174E+04  0.13461727529E+04  0.18345515528E+04  0.00000000000E+00 0.  1.
<mgrwt>
<rscale>  0 0.25264788E+04</rscale>
<asrwt>0</asrwt>
<pdfrwt beam="1">  1        2 0.42405429E+00 0.25264788E+04</pdfrwt>
<pdfrwt beam="2">  1       -2 0.89068297E-01 0.25264788E+04</pdfrwt>
<totfact> 0.23666638E+00</totfact>
</mgrwt>
</event>
<event>
 6    1  0.1614874E-005  0.2145528E+04  0.7818608E-02  0.8541449E-01
          2   -1    0    0  501    0  0.00000000000E+00  0.00000000000E+00  0.74479412592E+03  0.74479412592E+03  0.00000000000E+00 0. -1.
         -2   -1    0    0    0  501 -0.00000000000E+00 -0.00000000000E+00 -0.15451549742E+04  0.15451549742E+04  0.00000000000E+00 0.  1.
         23    2    1    2    0    0  0.61242748638E+03 -0.31978063610E+02 -0.13375346039E+04  0.14746910635E+04  0.98106541751E+02 0.  0.
         13    1    3    3    0    0  0.32830644228E+03 -0.57786936915E+02 -0.65554958102E+03  0.73543844290E+03  0.00000000000E+00 0. -1.
        -13    1    3    3    0    0  0.28412104410E+03  0.25808873306E+02 -0.68198502290E+03  0.73925262062E+03  0.00000000000E+00 0.  1.
         22    1    1    2    0    0 -0.61242748638E+03  0.31978063610E+02  0.53717375560E+03  0.81525803665E+03  0.00000000000E+00 0. -1.
<mgrwt>
<rscale>  0 0.21455278E+04</rscale>
<asrwt>0</asrwt>
<pdfrwt beam="1">  1        2 0.11458371E+00 0.21455278E+04</pdfrwt>
<pdfrwt beam="2">  1       -2 0.23771615E+00 0.21455278E+04</pdfrwt>
<totfact> 0.26580445E+00</totfact>
</mgrwt>
</event>
<event>
 6    1  0.1614874E-005  0.1437407E+04  0.7818608E-02  0.8927178E-01
         -1   -1    0    0    0  501 -0.00000000000E+00  0.00000000000E+00  0.16130244318E+04  0.16130244318E+04  0.00000000000E+00 0.  1.
          1   -1    0    0  501    0  0.00000000000E+00 -0.00000000000E+00 -0.32022762342E+03  0.32022762342E+03  0.00000000000E+00 0. -1.
         23    2    1    2    0    0  0.44154869643E+03 -0.75390282291E+02  0.14001509054E+04  0.14726287296E+04  0.86970520049E+02 0.  0.
         11    1    3    3    0    0  0.39584928473E+03 -0.38839446554E+02  0.12265894502E+04  0.12894676569E+04  0.00000000000E+00 0. -1.
        -11    1    3    3    0    0  0.45699411696E+02 -0.36550835737E+02  0.17356145515E+03  0.18316107266E+03  0.00000000000E+00 0.  1.
         22    1    1    2    0    0 -0.44154869643E+03  0.75390282291E+02 -0.10735409701E+03  0.46062332564E+03  0.00000000000E+00 0. -1.
<mgrwt>
<rscale>  0 0.14374074E+04</rscale>
<asrwt>0</asrwt>
<pdfrwt beam="1">  1        1 0.49265789E-01 0.14374074E+04</pdfrwt>
<pdfrwt beam="2">  1       -1 0.24815760E+00 0.14374074E+04</pdfrwt>
<totfact> 0.56142079E+00</totfact>
</mgrwt>
</event>
<event>
 6    1  0.1614874E-005  0.4523790E+04  0.7818608E-02  0.7906485E-01
         -2   -1    0    0    0  501 -0.00000000000E+00  0.00000000000E+00  0.14577862638E+04  0.14577862638E+04  0.00000000000E+00 0. -1.
          2   -1    0    0  501    0  0.00000000000E+00 -0.00000000000E+00 -0.35095462357E+04  0.35095462357E+04  0.00000000000E+00 0.  1.
         23    2    1    2    0    0  0.20289602659E+04  0.93895255908E+03 -0.13966637531E+04  0.26376409481E+04  0.90379547646E+02 0.  0.
         11    1    3    3    0    0  0.10311077484E+04  0.52479401852E+03 -0.70678171426E+03  0.13557773941E+04  0.00000000000E+00 0.  1.
        -11    1    3    3    0    0  0.99785251752E+03  0.41415854056E+03 -0.68988203888E+03  0.12818635540E+04  0.00000000000E+00 0. -1.
         22    1    1    2    0    0 -0.20289602659E+04 -0.93895255908E+03 -0.65509621882E+03  0.23296915514E+04  0.00000000000E+00 0.  1.
<mgrwt>
<rscale>  0 0.45237897E+04</rscale>
<asrwt>0</asrwt>
<pdfrwt beam="1">  1        2 0.53993018E+00 0.45237897E+04</pdfrwt>
<pdfrwt beam="2">  1       -2 0.22427481E+00 0.45237897E+04</pdfrwt>
<totfact> 0.56118196E-02</totfact>
</mgrwt>
</event>
<event>
 6    1  0.1614874E-005  0.1199388E+04  0.7818608E-02  0.9113392E-01
         -1   -1    0    0    0  501 -0.00000000000E+00  0.00000000000E+00  0.14295417837E+04  0.14295417837E+04  0.00000000000E+00 0.  1.
          1   -1    0    0  501    0  0.00000000000E+00 -0.00000000000E+00 -0.25157230378E+03  0.25157230378E+03  0.00000000000E+00 0. -1.
         23    2    1    2    0    0 -0.43823075098E+03 -0.29701640366E+03  0.20796026182E+03  0.57604267877E+03  0.91174350123E+02 0.  0.
         11    1    3    3    0    0 -0.13237128549E+03 -0.13450604468E+03  0.49118945250E+02  0.19500436934E+03  0.00000000000E+00 0. -1.
        -11    1    3    3    0    0 -0.30585946549E+03 -0.16251035898E+03  0.15884131657E+03  0.38103830944E+03  0.00000000000E+00 0.  1.
         22    1    1    2    0    0  0.43823075098E+03  0.29701640366E+03  0.97000921815E+03  0.11050714088E+04  0.00000000000E+00 0. -1.
<mgrwt>
<rscale>  0 0.11993884E+04</rscale>
<asrwt>0</asrwt>
<pdfrwt beam="1">  1        1 0.38703432E-01 0.11993884E+04</pdfrwt>
<pdfrwt beam="2">  1       -1 0.21992950E+00 0.11993884E+04</pdfrwt>
<totfact> 0.12039156E+01</totfact>
</mgrwt>
</event>
<event>
 6    1  0.1614874E-005  0.3471914E+04  0.7818608E-02  0.8120478E-01
         -1   -1    0    0    0  501 -0.00000000000E+00  0.00000000000E+00  0.13014680626E+04  0.13014680626E+04  0.00000000000E+00 0.  1.
          1   -1    0    0  501    0  0.00000000000E+00 -0.00000000000E+00 -0.23154980247E+04  0.23154980247E+04  0.00000000000E+00 0. -1.
         23    2    1    2    0    0  0.21516966776E+03  0.17118704343E+04 -0.31918135591E+03  0.17569626047E+04  0.90788139811E+02 0.  0.
         11    1    3    3    0    0  0.13579608369E+03  0.92415122654E+03 -0.21424625497E+03  0.95833059204E+03  0.00000000000E+00 0. -1.
        -11    1    3    3    0    0  0.79373584072E+02  0.78771920779E+03 -0.10493510094E+03  0.79863201262E+03  0.00000000000E+00 0.  1.
         22    1    1    2    0    0 -0.21516966776E+03 -0.17118704343E+04 -0.69484860619E+03  0.18600034826E+04  0.00000000000E+00 0. -1.
<mgrwt>
<rscale>  0 0.34719140E+04</rscale>
<asrwt>0</asrwt>
<pdfrwt beam="1">  1        1 0.35623046E+00 0.34719140E+04</pdfrwt>
<pdfrwt beam="2">  1       -1 0.20022586E+00 0.34719140E+04</pdfrwt>
<totfact> 0.22271835E-01</totfact>
</mgrwt>
</event>
<event>
 6    1  0.1614874E-005  0.2014976E+04  0.7818608E-02  0.8599651E-01
          1   -1    0    0  501    0  0.00000000000E+00  0.00000000000E+00  0.69358443129E+03  0.69358443129E+03  0.00000000000E+00 0. -1.
         -1   -1    0    0    0  501 -0.00000000000E+00 -0.00000000000E+00 -0.14634590936E+04  0.14634590936E+04  0.00000000000E+00 0.  1.
         23    2    1    2    0    0 -0.60072850196E+02  0.97187486117E+03 -0.65376848909E+03  0.11764161050E+04  0.91608524156E+02 0.  0.
         11    1    3    3    0    0  0.20408057012E+02  0.28082326724E+03 -0.20933787986E+03  0.35085687133E+03  0.00000000000E+00 0. -1.
        -11    1    3    3    0    0 -0.80480907208E+02  0.69105159393E+03 -0.44443060923E+03  0.82555923368E+03  0.00000000000E+00 0.  1.
         22    1    1    2    0    0  0.60072850196E+02 -0.97187486117E+03 -0.11610617318E+03  0.98062741984E+03  0.00000000000E+00 0.  1.
<mgrwt>
<rscale>  0 0.20149764E+04</rscale>
<asrwt>0</asrwt>
<pdfrwt beam="1">  1        1 0.10670530E+00 0.20149764E+04</pdfrwt>
<pdfrwt beam="2">  1       -1 0.22514755E+00 0.20149764E+04</pdfrwt>
<totfact> 0.26020349E+00</totfact>
</mgrwt>
</event>
<event>
 6    1  0.1614874E-005  0.2910071E+04  0.7818608E-02  0.8269887E-01
         -4   -1    0    0    0  501 -0.00000000000E+00  0.00000000000E+00  0.88513912251E+03  0.88513912251E+03  0.00000000000E+00 0.  1.
          4   -1    0    0  501    0  0.00000000000E+00 -0.00000000000E+00 -0.23918596480E+04  0.23918596480E+04  0.00000000000E+00 0. -1.
         23    2    1    2    0    0  0.61173231185E+03  0.10880040835E+04  0.85076227075E+02  0.12541823655E+04  0.88125673595E+02 0.  0.
         11    1    3    3    0    0  0.33940500975E+03  0.67551585727E+03  0.26553419616E+02  0.75645391014E+03  0.00000000000E+00 0. -1.
        -11    1    3    3    0    0  0.27232730210E+03  0.41248822623E+03  0.58522807459E+02  0.49772845532E+03  0.00000000000E+00 0.  1.
         22    1    1    2    0    0 -0.61173231185E+03 -0.10880040835E+04 -0.15917967525E+04  0.20228164050E+04  0.00000000000E+00 0. -1.
<mgrwt>
<rscale>  0 0.29100712E+04</rscale>
<asrwt>0</asrwt>
<pdfrwt beam="1">  1        4 0.36797840E+00 0.29100712E+04</pdfrwt>
<pdfrwt beam="2">  1       -4 0.13617525E+00 0.29100712E+04</pdfrwt>
<totfact> 0.74204626E-03</totfact>
</mgrwt>
</event>
<event>
 6    1  0.1614874E-005  0.2094956E+04  0.7818608E-02  0.8563469E-01
         -1   -1    0    0    0  501 -0.00000000000E+00  0.00000000000E+00  0.42215375924E+03  0.42215375924E+03  0.00000000000E+00 0.  1.
          1   -1    0    0  501    0  0.00000000000E+00 -0.00000000000E+00 -0.25990759453E+04  0.25990759453E+04  0.00000000000E+00 0. -1.
         23    2    1    2    0    0 -0.88758634641E+03  0.19714069604E+03 -0.18349418738E+04  0.20498263330E+04  0.90012992092E+02 0.  0.
         13    1    3    3    0    0 -0.39636131289E+03  0.60047383305E+02 -0.88756037300E+03  0.97389496062E+03  0.00000000000E+00 0.  1.
        -13    1    3    3    0    0 -0.49122503352E+03  0.13709331273E+03 -0.94738150079E+03  0.10759313723E+04  0.00000000000E+00 0. -1.
         22    1    1    2    0    0  0.88758634641E+03 -0.19714069604E+03 -0.34198031230E+03  0.97140337161E+03  0.00000000000E+00 0.  1.
<mgrwt>
<rscale>  0 0.20949555E+04</rscale>
<asrwt>0</asrwt>
<pdfrwt beam="1">  1        1 0.39985783E+00 0.20949555E+04</pdfrwt>
<pdfrwt beam="2">  1       -1 0.64946733E-01 0.20949555E+04</pdfrwt>
<totfact> 0.25566629E+00</totfact>
</mgrwt>
</event>
<event>
 6    1  0.1614874E-005  0.1371271E+04  0.7818608E-02  0.8974881E-01
         -2   -1    0    0    0  501 -0.00000000000E+00  0.00000000000E+00  0.46948420379E+03  0.46948420379E+03  0.00000000000E+00 0.  1.
          2   -1    0    0  501    0  0.00000000000E+00 -0.00000000000E+00 -0.10013028940E+04  0.10013028940E+04  0.00000000000E+00 0. -1.
         23    2    1    2    0    0 -0.65607873754E+03  0.71372520632E+02 -0.45404024915E+03  0.80627010597E+03  0.91572863811E+02 0.  0.
         11    1    3    3    0    0 -0.11823751058E+03 -0.21771067925E+02 -0.74436362027E+02  0.14140318348E+03  0.00000000000E+00 0.  1.
        -11    1    3    3    0    0 -0.53784122696E+03  0.93143588557E+02 -0.37960388712E+03  0.66486692249E+03  0.00000000000E+00 0. -1.
         22    1    1    2    0    0  0.65607873754E+03 -0.71372520632E+02 -0.77778441095E+02  0.66451699185E+03  0.00000000000E+00 0.  1.
<mgrwt>
<rscale>  0 0.13712708E+04</rscale>
<asrwt>0</asrwt>
<pdfrwt beam="1">  1        2 0.15404660E+00 0.13712708E+04</pdfrwt>
<pdfrwt beam="2">  1       -2 0.72228340E-01 0.13712708E+04</pdfrwt>
<totfact> 0.42561152E+01</totfact>
</mgrwt>
</event>
<event>
 6    1  0.1614874E-005  0.1835511E+04  0.7818608E-02  0.8687640E-01
         -3   -1    0    0    0  501 -0.00000000000E+00  0.00000000000E+00  0.12133400112E+04  0.12133400112E+04  0.00000000000E+00 0.  1.
          3   -1    0    0  501    0  0.00000000000E+00 -0.00000000000E+00 -0.69417915864E+03  0.69417915864E+03  0.00000000000E+00 0. -1.
         23    2    1    2    0    0  0.20248534368E+03  0.61249195818E+03 -0.41486860196E+03  0.77237259995E+03  0.91086568808E+02 0.  0.
         13    1    3    3    0    0  0.13818850599E+03  0.50540660490E+03 -0.30657778418E+03  0.60705999474E+03  0.00000000000E+00 0. -1.
        -13    1    3    3    0    0  0.64296837697E+02  0.10708535328E+03 -0.10829081778E+03  0.16531260521E+03  0.00000000000E+00 0.  1.
         22    1    1    2    0    0 -0.20248534368E+03 -0.61249195818E+03  0.93402945455E+03  0.11351465699E+04  0.00000000000E+00 0.  1.
<mgrwt>
<rscale>  0 0.18355112E+04</rscale>
<asrwt>0</asrwt>
<pdfrwt beam="1">  1        3 0.10679679E+00 0.18355112E+04</pdfrwt>
<pdfrwt beam="2">  1       -3 0.18666769E+00 0.18355112E+04</pdfrwt>
<totfact> 0.32924476E-01</totfact>
</mgrwt>
</event>
<event>
 6    1  0.1614874E-005  0.2881736E+04  0.7818608E-02  0.8278332E-01
          1   -1    0    0  501    0  0.00000000000E+00  0.00000000000E+00  0.23645970089E+04  0.23645970089E+04  0.00000000000E+00 0. -1.
         -1   -1    0    0    0  501 -0.00000000000E+00 -0.00000000000E+00 -0.87799318001E+03  0.87799318001E+03  0.00000000000E+00 0.  1.
         23    2    1    2    0    0 -0.13222473618E+04 -0.15121305854E+03  0.13609828397E+04  0.19058089398E+04  0.92897526010E+02 0.  0.
         11    1    3    3    0    0 -0.17657389721E+03 -0.33718187939E+02  0.14455191387E+03  0.23067404097E+03  0.00000000000E+00 0. -1.
        -11    1    3    3    0    0 -0.11456734646E+04 -0.11749487060E+03  0.12164309258E+04  0.16751348989E+04  0.00000000000E+00 0.  1.
         22    1    1    2    0    0  0.13222473618E+04  0.15121305854E+03  0.12562098924E+03  0.13367812491E+04  0.00000000000E+00 0.  1.
<mgrwt>
<rscale>  0 0.28817356E+04</rscale>
<asrwt>0</asrwt>
<pdfrwt beam="1">  1        1 0.36378415E+00 0.28817356E+04</pdfrwt>
<pdfrwt beam="2">  1       -1 0.13507587E+00 0.28817356E+04</pdfrwt>
<totfact> 0.66430592E-01</totfact>
</mgrwt>
</event>
<event>
 6    1  0.1614874E-005  0.2965416E+04  0.7818608E-02  0.8253676E-01
          1   -1    0    0  501    0  0.00000000000E+00  0.00000000000E+00  0.15756181061E+04  0.15756181061E+04  0.00000000000E+00 0. -1.
         -1   -1    0    0    0  501 -0.00000000000E+00 -0.00000000000E+00 -0.13952766452E+04  0.13952766452E+04  0.00000000000E+00 0.  1.
         23    2    1    2    0    0 -0.43336403270E+03 -0.90283915979E+03 -0.10032770833E+04  0.14204510112E+04  0.90516496610E+02 0.  0.
         13    1    3    3    0    0 -0.36471432995E+03 -0.82331843151E+03 -0.89991931137E+03  0.12730768041E+04  0.00000000000E+00 0.  1.
        -13    1    3    3    0    0 -0.68649702744E+02 -0.79520728279E+02 -0.10335777189E+03  0.14737420711E+03  0.00000000000E+00 0. -1.
         22    1    1    2    0    0  0.43336403270E+03  0.90283915979E+03  0.11836185441E+04  0.15504437401E+04  0.00000000000E+00 0. -1.
<mgrwt>
<rscale>  0 0.29654161E+04</rscale>
<asrwt>0</asrwt>
<pdfrwt beam="1">  1        1 0.24240279E+00 0.29654161E+04</pdfrwt>
<pdfrwt beam="2">  1       -1 0.21465794E+00 0.29654161E+04</pdfrwt>
<totfact> 0.59186544E-01</totfact>
</mgrwt>
</event>
<event>
 6    1  0.1614874E-005  0.1651722E+04  0.7818608E-02  0.8789389E-01
          2   -1    0    0  501    0  0.00000000000E+00  0.00000000000E+00  0.26517626587E+04  0.26517626587E+04  0.00000000000E+00 0. -1.
         -2   -1    0    0    0  501 -0.00000000000E+00 -0.00000000000E+00 -0.25720483540E+03  0.25720483540E+03  0.00000000000E+00 0.  1.
         23    2    1    2    0    0 -0.59285260777E+03  0.17803657121E+03  0.24466764337E+03  0.67173728222E+03  0.90539965661E+02 0.  0.
         13    1    3    3    0    0 -0.41327239156E+03  0.10818133594E+03  0.20974464337E+03  0.47590974617E+03  0.00000000000E+00 0. -1.
        -13    1    3    3    0    0 -0.17958021621E+03  0.69855235264E+02  0.34923000003E+02  0.19582753605E+03  0.00000000000E+00 0.  1.
         22    1    1    2    0    0  0.59285260777E+03 -0.17803657121E+03  0.21498901799E+04  0.22372302119E+04  0.00000000000E+00 0. -1.
<mgrwt>
<rscale>  0 0.16517217E+04</rscale>
<asrwt>0</asrwt>
<pdfrwt beam="1">  1        2 0.40796347E+00 0.16517217E+04</pdfrwt>
<pdfrwt beam="2">  1       -2 0.39569977E-01 0.16517217E+04</pdfrwt>
<totfact> 0.16411671E+01</totfact>
</mgrwt>
</event>
<event>
 6    1  0.1614874E-005  0.2855763E+04  0.7818608E-02  0.8286162E-01
         -1   -1    0    0    0  501 -0.00000000000E+00  0.00000000000E+00  0.14990015784E+04  0.14990015784E+04  0.00000000000E+00 0.  1.
          1   -1    0    0  501    0  0.00000000000E+00 -0.00000000000E+00 -0.13601353917E+04  0.13601353917E+04  0.00000000000E+00 0. -1.
         23    2    1    2    0    0  0.72136376653E+03  0.58454551493E+03 -0.10147361989E+04  0.13783069303E+04  0.89338110077E+02 0.  0.
         11    1    3    3    0    0  0.67937783917E+03  0.52251811693E+03 -0.91709771731E+03  0.12552480448E+04  0.00000000000E+00 0.  1.
        -11    1    3    3    0    0  0.41985927355E+02  0.62027397999E+02 -0.97638481636E+02  0.12305888548E+03  0.00000000000E+00 0. -1.
         22    1    1    2    0    0 -0.72136376653E+03 -0.58454551493E+03  0.11536023857E+04  0.14808300399E+04  0.00000000000E+00 0.  1.
<mgrwt>
<rscale>  0 0.28557627E+04</rscale>
<asrwt>0</asrwt>
<pdfrwt beam="1">  1        1 0.20925160E+00 0.28557627E+04</pdfrwt>
<pdfrwt beam="2">  1       -1 0.23061563E+00 0.28557627E+04</pdfrwt>
<totfact> 0.66040665E-01</totfact>
</mgrwt>
</event>
<event>
 6    1  0.1614874E-005  0.3006510E+04  0.7818608E-02  0.8241874E-01
         -1   -1    0    0    0  501 -0.00000000000E+00  0.00000000000E+00  0.90045159329E+03  0.90045159329E+03  0.00000000000E+00 0.  1.
          1   -1    0    0  501    0  0.00000000000E+00 -0.00000000000E+00 -0.25096026332E+04  0.25096026332E+04  0.00000000000E+00 0. -1.
         23    2    1    2    0    0  0.14734418072E+04 -0.20587466557E+02 -0.11348159298E+04  0.18620075865E+04  0.88376775733E+02 0.  0.
         11    1    3    3    0    0  0.35044439856E+03  0.90688991198E+01 -0.31491790712E+03  0.47123965202E+03  0.00000000000E+00 0.  1.
        -11    1    3    3    0    0  0.11229974087E+04 -0.29656365677E+02 -0.81989802266E+03  0.13907679344E+04  0.00000000000E+00 0. -1.
         22    1    1    2    0    0 -0.14734418072E+04  0.20587466557E+02 -0.47433511016E+03  0.15480466401E+04  0.00000000000E+00 0. -1.
<mgrwt>
<rscale>  0 0.30065101E+04</rscale>
<asrwt>0</asrwt>
<pdfrwt beam="1">  1        1 0.38609271E+00 0.30065101E+04</pdfrwt>
<pdfrwt beam="2">  1       -1 0.13853102E+00 0.30065101E+04</pdfrwt>
<totfact> 0.48874531E-01</totfact>
</mgrwt>
</event>
<event>
 6    1  0.1614874E-005  0.4007396E+04  0.7818608E-02  0.8003056E-01
         -2   -1    0    0    0  501 -0.00000000000E+00  0.00000000000E+00  0.19230055325E+04  0.19230055325E+04  0.00000000000E+00 0.  1.
          2   -1    0    0  501    0  0.00000000000E+00 -0.00000000000E+00 -0.20877767361E+04  0.20877767361E+04  0.00000000000E+00 0. -1.
         23    2    1    2    0    0 -0.85995745400E+03 -0.18069317608E+04 -0.16109273486E+03  0.20096469053E+04  0.90557184732E+02 0.  0.
         13    1    3    3    0    0 -0.87571471521E+02 -0.13762609210E+03  0.15568531551E+01  0.16313223974E+03  0.00000000000E+00 0.  1.
        -13    1    3    3    0    0 -0.77238598248E+03 -0.16693056687E+04 -0.16264958802E+03  0.18465146655E+04  0.00000000000E+00 0. -1.
         22    1    1    2    0    0  0.85995745400E+03  0.18069317608E+04 -0.36784687191E+01  0.20011353633E+04  0.00000000000E+00 0.  1.
<mgrwt>
<rscale>  0 0.40073963E+04</rscale>
<asrwt>0</asrwt>
<pdfrwt beam="1">  1        2 0.32119642E+00 0.40073963E+04</pdfrwt>
<pdfrwt beam="2">  1       -2 0.29584700E+00 0.40073963E+04</pdfrwt>
<totfact> 0.15859586E-01</totfact>
</mgrwt>
</event>
<event>
 6    1  0.1614874E-005  0.1569888E+04  0.7818608E-02  0.8839263E-01
         -1   -1    0    0    0  501 -0.00000000000E+00  0.00000000000E+00  0.42918880866E+03  0.42918880866E+03  0.00000000000E+00 0.  1.
          1   -1    0    0  501    0  0.00000000000E+00 -0.00000000000E+00 -0.14355857625E+04  0.14355857625E+04  0.00000000000E+00 0. -1.
         23    2    1    2    0    0  0.79937631022E+01  0.47146486953E+03 -0.12463961530E+04  0.13356785127E+04  0.90502461888E+02 0.  0.
         11    1    3    3    0    0  0.43234168816E+02  0.32018684447E+03 -0.89305998818E+03  0.94970782413E+03  0.00000000000E+00 0.  1.
        -11    1    3    3    0    0 -0.35240405714E+02  0.15127802507E+03 -0.35333616486E+03  0.38597068860E+03  0.00000000000E+00 0. -1.
         22    1    1    2    0    0 -0.79937631022E+01 -0.47146486953E+03  0.23999919919E+03  0.52909605845E+03  0.00000000000E+00 0.  1.
<mgrwt>
<rscale>  0 0.15698883E+04</rscale>
<asrwt>0</asrwt>
<pdfrwt beam="1">  1        1 0.22085935E+00 0.15698883E+04</pdfrwt>
<pdfrwt beam="2">  1       -1 0.66029047E-01 0.15698883E+04</pdfrwt>
<totfact> 0.16218901E+01</totfact>
</mgrwt>
</event>
<event>
 6    1  0.1897556E-005  0.4108115E+04  0.7818608E-02  0.7983084E-01
         -2   -1    0    0    0  501 -0.00000000000E+00  0.00000000000E+00  0.19244414581E+04  0.19244414581E+04  0.00000000000E+00 0.  1.
          2   -1    0    0  501    0  0.00000000000E+00 -0.00000000000E+00 -0.21924040201E+04  0.21924040201E+04  0.00000000000E+00 0. -1.
         23    2    1    2    0    0 -0.45260140303E+03  0.19508632910E+04 -0.58721702975E+03  0.20888812218E+04  0.88799260326E+02 0.  0.
         11    1    3    3    0    0 -0.15228796615E+03  0.50494222066E+03 -0.17427160459E+03  0.55545374515E+03  0.00000000000E+00 0.  1.
        -11    1    3    3    0    0 -0.30031343688E+03  0.14459210703E+04 -0.41294542516E+03  0.15334274767E+04  0.00000000000E+00 0. -1.
         22    1    1    2    0    0  0.45260140303E+03 -0.19508632910E+04  0.31925446775E+03  0.20279642564E+04  0.00000000000E+00 0.  1.
<mgrwt>
<rscale>  0 0.41081155E+04</rscale>
<asrwt>0</asrwt>
<pdfrwt beam="1">  1        2 0.33729293E+00 0.41081155E+04</pdfrwt>
<pdfrwt beam="2">  1       -2 0.29606792E+00 0.41081155E+04</pdfrwt>
<totfact> 0.13701156E-01</totfact>
</mgrwt>
</event>
<event>
 6    1  0.1614874E-005  0.2006127E+04  0.7818608E-02  0.8603762E-01
         -2   -1    0    0    0  501 -0.00000000000E+00  0.00000000000E+00  0.73906431394E+03  0.73906431394E+03  0.00000000000E+00 0.  1.
          2   -1    0    0  501    0  0.00000000000E+00 -0.00000000000E+00 -0.13613646930E+04  0.13613646930E+04  0.00000000000E+00 0. -1.
         23    2    1    2    0    0 -0.25487162654E+03  0.40559421540E+03 -0.12320253094E+04  0.13250383285E+04  0.91509536980E+02 0.  0.
         11    1    3    3    0    0 -0.10287268768E+03  0.19912170748E+03 -0.68884467730E+03  0.72438886912E+03  0.00000000000E+00 0. -1.
        -11    1    3    3    0    0 -0.15199893886E+03  0.20647250792E+03 -0.54318063209E+03  0.60064945936E+03  0.00000000000E+00 0.  1.
         22    1    1    2    0    0  0.25487162654E+03 -0.40559421540E+03  0.60972493034E+03  0.77539067847E+03  0.00000000000E+00 0.  1.
<mgrwt>
<rscale>  0 0.20061267E+04</rscale>
<asrwt>0</asrwt>
<pdfrwt beam="1">  1        2 0.20944072E+00 0.20061267E+04</pdfrwt>
<pdfrwt beam="2">  1       -2 0.11370220E+00 0.20061267E+04</pdfrwt>
<totfact> 0.85749479E+00</totfact>
</mgrwt>
</event>
<event>
 6    1  0.1614874E-005  0.4013829E+04  0.7818608E-02  0.8001763E-01
         -2   -1    0    0    0  501 -0.00000000000E+00  0.00000000000E+00  0.18896966662E+04  0.18896966662E+04  0.00000000000E+00 0. -1.
          2   -1    0    0  501    0  0.00000000000E+00 -0.00000000000E+00 -0.21314034842E+04  0.21314034842E+04  0.00000000000E+00 0.  1.
         23    2    1    2    0    0 -0.18718447228E+04  0.67938386625E+03  0.12167930860E+03  0.19968930016E+04  0.86085432705E+02 0.  0.
         13    1    3    3    0    0 -0.89709557645E+02  0.26127328031E+02 -0.11466164493E+02  0.94137744455E+02  0.00000000000E+00 0.  1.
        -13    1    3    3    0    0 -0.17821351652E+04  0.65325653822E+03  0.13314547309E+03  0.19027552572E+04  0.00000000000E+00 0. -1.
         22    1    1    2    0    0  0.18718447228E+04 -0.67938386625E+03 -0.36338612665E+03  0.20242071488E+04  0.00000000000E+00 0. -1.
<mgrwt>
<rscale>  0 0.40138291E+04</rscale>
<asrwt>0</asrwt>
<pdfrwt beam="1">  1        2 0.32790823E+00 0.40138291E+04</pdfrwt>
<pdfrwt beam="2">  1       -2 0.29072257E+00 0.40138291E+04</pdfrwt>
<totfact> 0.16106031E-01</totfact>
</mgrwt>
</event>
<event>
 6    1  0.1614874E-005  0.5998926E+03  0.7818608E-02  0.9905629E-01
          1   -1    0    0  501    0  0.00000000000E+00  0.00000000000E+00  0.49515845121E+03  0.49515845121E+03  0.00000000000E+00 0. -1.
         -1   -1    0    0    0  501 -0.00000000000E+00 -0.00000000000E+00 -0.18169495996E+03  0.18169495996E+03  0.00000000000E+00 0.  1.
         23    2    1    2    0    0  0.18967332657E+03  0.50031103312E+02 -0.84773876729E+02  0.23292539519E+03  0.92674416300E+02 0.  0.
         13    1    3    3    0    0  0.13658226668E+03  0.74578950076E+02 -0.77915344613E+02  0.17403314711E+03  0.00000000000E+00 0.  1.
        -13    1    3    3    0    0  0.53091059894E+02 -0.24547846764E+02 -0.68585321162E+01  0.58892248083E+02  0.00000000000E+00 0. -1.
         22    1    1    2    0    0 -0.18967332657E+03 -0.50031103312E+02  0.39823736798E+03  0.44392801598E+03  0.00000000000E+00 0. -1.
<mgrwt>
<rscale>  0 0.59989264E+03</rscale>
<asrwt>0</asrwt>
<pdfrwt beam="1">  1        1 0.76178223E-01 0.59989264E+03</pdfrwt>
<pdfrwt beam="2">  1       -1 0.27953071E-01 0.59989264E+03</pdfrwt>
<totfact> 0.52396486E+02</totfact>
</mgrwt>
</event>
<event>
 6    1  0.1614874E-005  0.1164317E+04  0.7818608E-02  0.9144676E-01
         -2   -1    0    0    0  501 -0.00000000000E+00  0.00000000000E+00  0.35677076161E+03  0.35677076161E+03  0.00000000000E+00 0.  1.
          2   -1    0    0  501    0  0.00000000000E+00 -0.00000000000E+00 -0.94993328839E+03  0.94993328839E+03  0.00000000000E+00 0. -1.
         23    2    1    2    0    0 -0.28574140258E+02 -0.51396576182E+03 -0.59485803140E+03  0.79194181309E+03  0.91315234168E+02 0.  0.
         11    1    3    3    0    0 -0.35649378120E+02 -0.70688842603E+02 -0.99881061454E+02  0.12745201868E+03  0.00000000000E+00 0. -1.
        -11    1    3    3    0    0  0.70752378618E+01 -0.44327691921E+03 -0.49497696994E+03  0.66448979441E+03  0.00000000000E+00 0.  1.
         22    1    1    2    0    0  0.28574140258E+02  0.51396576182E+03  0.16955046125E+01  0.51476223691E+03  0.00000000000E+00 0.  1.
<mgrwt>
<rscale>  0 0.11643168E+04</rscale>
<asrwt>0</asrwt>
<pdfrwt beam="1">  1        2 0.14614358E+00 0.11643168E+04</pdfrwt>
<pdfrwt beam="2">  1       -2 0.54887809E-01 0.11643168E+04</pdfrwt>
<totfact> 0.83845701E+01</totfact>
</mgrwt>
</event>
<event>
 6    1  0.1614874E-005  0.3243262E+04  0.7818608E-02  0.8177484E-01
          1   -1    0    0  501    0  0.00000000000E+00  0.00000000000E+00  0.12803242884E+04  0.12803242884E+04  0.00000000000E+00 0. -1.
         -1   -1    0    0    0  501 -0.00000000000E+00 -0.00000000000E+00 -0.20539223539E+04  0.20539223539E+04  0.00000000000E+00 0.  1.
         23    2    1    2    0    0  0.92497188837E+03  0.13131077881E+04 -0.16685458322E+03  0.16172834188E+04  0.89107505549E+02 0.  0.
         11    1    3    3    0    0  0.43169659912E+03  0.68734192697E+03 -0.96275588460E+02  0.81735541058E+03  0.00000000000E+00 0.  1.
        -11    1    3    3    0    0  0.49327528926E+03  0.62576586109E+03 -0.70578994764E+02  0.79992800826E+03  0.00000000000E+00 0. -1.
         22    1    1    2    0    0 -0.92497188837E+03 -0.13131077881E+04 -0.60674348236E+03  0.17169632235E+04  0.00000000000E+00 0.  1.
<mgrwt>
<rscale>  0 0.32432617E+04</rscale>
<asrwt>0</asrwt>
<pdfrwt beam="1">  1        1 0.19697297E+00 0.32432617E+04</pdfrwt>
<pdfrwt beam="2">  1       -1 0.31598805E+00 0.32432617E+04</pdfrwt>
<totfact> 0.20243728E-01</totfact>
</mgrwt>
</event>
<event>
 6    1  0.1614874E-005  0.3411377E+04  0.7818608E-02  0.8135120E-01
         -2   -1    0    0    0  501 -0.00000000000E+00  0.00000000000E+00  0.14995823340E+04  0.14995823340E+04  0.00000000000E+00 0.  1.
          2   -1    0    0  501    0  0.00000000000E+00 -0.00000000000E+00 -0.19401223514E+04  0.19401223514E+04  0.00000000000E+00 0. -1.
         23    2    1    2    0    0 -0.20296580033E+03  0.16229101597E+04 -0.70409255798E+03  0.17830537131E+04  0.92204724637E+02 0.  0.
         11    1    3    3    0    0 -0.15759119232E+03  0.91536013279E+03 -0.41672365944E+03  0.10180264068E+04  0.00000000000E+00 0. -1.
        -11    1    3    3    0    0 -0.45374608009E+02  0.70755002688E+03 -0.28736889854E+03  0.76502730633E+03  0.00000000000E+00 0.  1.
         22    1    1    2    0    0  0.20296580033E+03 -0.16229101597E+04  0.26355254060E+03  0.16566509723E+04  0.00000000000E+00 0. -1.
<mgrwt>
<rscale>  0 0.34113770E+04</rscale>
<asrwt>0</asrwt>
<pdfrwt beam="1">  1        2 0.29848036E+00 0.34113770E+04</pdfrwt>
<pdfrwt beam="2">  1       -2 0.23070498E+00 0.34113770E+04</pdfrwt>
<totfact> 0.50534438E-01</totfact>
</mgrwt>
</event>
<event>
 6    1  0.1614874E-005  0.4150881E+04  0.7818608E-02  0.7974782E-01
         -1   -1    0    0    0  501 -0.00000000000E+00  0.00000000000E+00  0.22549600201E+04  0.22549600201E+04  0.00000000000E+00 0.  1.
          1   -1    0    0  501    0  0.00000000000E+00 -0.00000000000E+00 -0.19102131304E+04  0.19102131304E+04  0.00000000000E+00 0. -1.
         23    2    1    2    0    0 -0.32041818503E+03  0.12119694105E+04  0.18309350669E+04  0.22208756004E+04  0.91801677417E+02 0.  0.
         11    1    3    3    0    0 -0.26461560237E+03  0.11026456881E+04  0.16380710425E+04  0.19922664658E+04  0.00000000000E+00 0.  1.
        -11    1    3    3    0    0 -0.55802582654E+02  0.10932372232E+03  0.19286402437E+03  0.22860913452E+03  0.00000000000E+00 0. -1.
         22    1    1    2    0    0  0.32041818503E+03 -0.12119694105E+04 -0.14861881773E+04  0.19442975501E+04  0.00000000000E+00 0. -1.
<mgrwt>
<rscale>  0 0.41508815E+04</rscale>
<asrwt>0</asrwt>
<pdfrwt beam="1">  1        1 0.29387894E+00 0.41508815E+04</pdfrwt>
<pdfrwt beam="2">  1       -1 0.34691693E+00 0.41508815E+04</pdfrwt>
<totfact> 0.43160241E-02</totfact>
</mgrwt>
</event>
<event>
 6    1  0.1614874E-005  0.6321275E+03  0.7818608E-02  0.9840906E-01
          2   -1    0    0  501    0  0.00000000000E+00  0.00000000000E+00  0.13916412691E+04  0.13916412691E+04  0.00000000000E+00 0. -1.
         -2   -1    0    0    0  501 -0.00000000000E+00 -0.00000000000E+00 -0.71783078976E+02  0.71783078976E+02  0.00000000000E+00 0.  1.
         23    2    1    2    0    0  0.28845630448E+03  0.30416731371E+02  0.42653010058E+03  0.52418673559E+03  0.93335898351E+02 0.  0.
         11    1    3    3    0    0  0.11774475265E+03 -0.26134175814E+02  0.12956165507E+03  0.17701142445E+03  0.00000000000E+00 0. -1.
        -11    1    3    3    0    0  0.17071155183E+03  0.56550907185E+02  0.29696844551E+03  0.34717531114E+03  0.00000000000E+00 0.  1.
         22    1    1    2    0    0 -0.28845630448E+03 -0.30416731371E+02  0.89332808953E+03  0.93923761247E+03  0.00000000000E+00 0. -1.
<mgrwt>
<rscale>  0 0.63212750E+03</rscale>
<asrwt>0</asrwt>
<pdfrwt beam="1">  1        2 0.21409864E+00 0.63212750E+03</pdfrwt>
<pdfrwt beam="2">  1       -2 0.11043552E-01 0.63212750E+03</pdfrwt>
<totfact> 0.86684405E+02</totfact>
</mgrwt>
</event>
<event>
 6    1  0.1614874E-005  0.6425692E+03  0.7818608E-02  0.9820823E-01
         -1   -1    0    0    0  501 -0.00000000000E+00  0.00000000000E+00  0.78178536002E+02  0.78178536002E+02  0.00000000000E+00 0.  1.
          1   -1    0    0  501    0  0.00000000000E+00 -0.00000000000E+00 -0.13203596442E+04  0.13203596442E+04  0.00000000000E+00 0. -1.
         23    2    1    2    0    0 -0.78268838908E+02 -0.76955641196E+02 -0.12758475035E+04  0.12837269960E+04  0.90110856018E+02 0.  0.
         11    1    3    3    0    0 -0.59966161376E+02  0.43320025474E+00 -0.43233184900E+03  0.43647102519E+03  0.00000000000E+00 0. -1.
        -11    1    3    3    0    0 -0.18302677532E+02 -0.77388841451E+02 -0.84351565447E+03  0.84725597084E+03  0.00000000000E+00 0.  1.
         22    1    1    2    0    0  0.78268838908E+02  0.76955641196E+02  0.33666395219E+02  0.11481118422E+03  0.00000000000E+00 0.  1.
<mgrwt>
<rscale>  0 0.64256917E+03</rscale>
<asrwt>0</asrwt>
<pdfrwt beam="1">  1        1 0.20313225E+00 0.64256917E+03</pdfrwt>
<pdfrwt beam="2">  1       -1 0.12027467E-01 0.64256917E+03</pdfrwt>
<totfact> 0.41959652E+02</totfact>
</mgrwt>
</event>
<event>
 6    1  0.1614874E-005  0.3329907E+04  0.7818608E-02  0.8155327E-01
          2   -1    0    0  501    0  0.00000000000E+00  0.00000000000E+00  0.30616143523E+04  0.30616143523E+04  0.00000000000E+00 0. -1.
         -2   -1    0    0    0  501 -0.00000000000E+00 -0.00000000000E+00 -0.90542764879E+03  0.90542764879E+03  0.00000000000E+00 0.  1.
         23    2    1    2    0    0 -0.55861605069E+03  0.12969282532E+04  0.21269503829E+04  0.25546222517E+04  0.90011841489E+02 0.  0.
         11    1    3    3    0    0 -0.91630087297E+02  0.30735634017E+03  0.48953167227E+03  0.58523948166E+03  0.00000000000E+00 0.  1.
        -11    1    3    3    0    0 -0.46698596339E+03  0.98957191299E+03  0.16374187107E+04  0.19693827701E+04  0.00000000000E+00 0. -1.
         22    1    1    2    0    0  0.55861605069E+03 -0.12969282532E+04  0.29236320567E+02  0.14124197494E+04  0.00000000000E+00 0.  1.
<mgrwt>
<rscale>  0 0.33299071E+04</rscale>
<asrwt>0</asrwt>
<pdfrwt beam="1">  1        2 0.47101759E+00 0.33299071E+04</pdfrwt>
<pdfrwt beam="2">  1       -2 0.13929656E+00 0.33299071E+04</pdfrwt>
<totfact> 0.48229840E-01</totfact>
</mgrwt>
</event>
<event>
 6    1  0.1614874E-005  0.1487488E+04  0.7818608E-02  0.8892816E-01
          2   -1    0    0  501    0  0.00000000000E+00  0.00000000000E+00  0.46244095655E+03  0.46244095655E+03  0.00000000000E+00 0. -1.
         -2   -1    0    0    0  501 -0.00000000000E+00 -0.00000000000E+00 -0.11961630629E+04  0.11961630629E+04  0.00000000000E+00 0.  1.
         23    2    1    2    0    0  0.61246778393E+03 -0.67446162780E+02 -0.82720554729E+03  0.10353826101E+04  0.89901950379E+02 0.  0.
         13    1    3    3    0    0  0.57063570367E+03 -0.83434861521E+02 -0.74947193576E+03  0.94567154177E+03  0.00000000000E+00 0.  1.
        -13    1    3    3    0    0  0.41832080259E+02  0.15988698741E+02 -0.77733611527E+02  0.89711068366E+02  0.00000000000E+00 0. -1.
         22    1    1    2    0    0 -0.61246778393E+03  0.67446162780E+02  0.93483440984E+02  0.62322140927E+03  0.00000000000E+00 0. -1.
<mgrwt>
<rscale>  0 0.14874875E+04</rscale>
<asrwt>0</asrwt>
<pdfrwt beam="1">  1        2 0.71144763E-01 0.14874875E+04</pdfrwt>
<pdfrwt beam="2">  1       -2 0.18402509E+00 0.14874875E+04</pdfrwt>
<totfact> 0.11078232E+01</totfact>
</mgrwt>
</event>
<event>
 6    1  0.1614874E-005  0.2462127E+03  0.7818608E-02  0.1115722E+00
         -2   -1    0    0    0  501 -0.00000000000E+00  0.00000000000E+00  0.90055162595E+02  0.90055162595E+02  0.00000000000E+00 0.  1.
          2   -1    0    0  501    0  0.00000000000E+00 -0.00000000000E+00 -0.16828769123E+03  0.16828769123E+03  0.00000000000E+00 0. -1.
         23    2    1    2    0    0 -0.66158309810E+02 -0.59866422240E+02 -0.10600916293E+03  0.16489526486E+03  0.89395722936E+02 0.  0.
         11    1    3    3    0    0  0.12281057075E+02 -0.44497964933E+02 -0.43445699131E+02  0.63391024752E+02  0.00000000000E+00 0. -1.
        -11    1    3    3    0    0 -0.78439366886E+02 -0.15368457307E+02 -0.62563463803E+02  0.10150424011E+03  0.00000000000E+00 0.  1.
         22    1    1    2    0    0  0.66158309810E+02  0.59866422240E+02  0.27776634304E+02  0.93447588958E+02  0.00000000000E+00 0.  1.
<mgrwt>
<rscale>  0 0.24621272E+03</rscale>
<asrwt>0</asrwt>
<pdfrwt beam="1">  1        2 0.25890414E-01 0.24621272E+03</pdfrwt>
<pdfrwt beam="2">  1       -2 0.13854641E-01 0.24621272E+03</pdfrwt>
<totfact> 0.79530565E+03</totfact>
</mgrwt>
</event>
<event>
 6    1  0.1614874E-005  0.2104269E+04  0.7818608E-02  0.8559365E-01
         -2   -1    0    0    0  501 -0.00000000000E+00  0.00000000000E+00  0.87544655567E+03  0.87544655567E+03  0.00000000000E+00 0.  1.
          2   -1    0    0  501    0  0.00000000000E+00 -0.00000000000E+00 -0.12644832204E+04  0.12644832204E+04  0.00000000000E+00 0. -1.
         23    2    1    2    0    0  0.74317751878E+03 -0.17671614014E+03  0.53820060161E+03  0.93855124843E+03  0.87619288667E+02 0.  0.
         13    1    3    3    0    0  0.40684994740E+03 -0.64799717647E+02  0.32664389886E+03  0.52575861360E+03  0.00000000000E+00 0.  1.
        -13    1    3    3    0    0  0.33632757138E+03 -0.11191642249E+03  0.21155670275E+03  0.41279263483E+03  0.00000000000E+00 0. -1.
         22    1    1    2    0    0 -0.74317751878E+03  0.17671614014E+03 -0.92723726632E+03  0.12013785276E+04  0.00000000000E+00 0. -1.
<mgrwt>
<rscale>  0 0.21042695E+04</rscale>
<asrwt>0</asrwt>
<pdfrwt beam="1">  1        2 0.19453588E+00 0.21042695E+04</pdfrwt>
<pdfrwt beam="2">  1       -2 0.13468409E+00 0.21042695E+04</pdfrwt>
<totfact> 0.63420386E+00</totfact>
</mgrwt>
</event>
<event>
 6    1  0.1614874E-005  0.2559456E+04  0.7818608E-02  0.8382105E-01
          2   -1    0    0  501    0  0.00000000000E+00  0.00000000000E+00  0.11300310096E+04  0.11300310096E+04  0.00000000000E+00 0. -1.
         -2   -1    0    0    0  501 -0.00000000000E+00 -0.00000000000E+00 -0.14492558013E+04  0.14492558013E+04  0.00000000000E+00 0.  1.
         23    2    1    2    0    0  0.20058301294E+03 -0.84722608834E+03 -0.11024761556E+04  0.14081726879E+04  0.97319348411E+02 0.  0.
         11    1    3    3    0    0  0.15708295750E+03 -0.58526911504E+03 -0.69836172452E+03  0.92462105256E+03  0.00000000000E+00 0. -1.
        -11    1    3    3    0    0  0.43500055433E+02 -0.26195697329E+03 -0.40411443105E+03  0.48355163536E+03  0.00000000000E+00 0.  1.
         22    1    1    2    0    0 -0.20058301294E+03  0.84722608834E+03  0.78325136387E+03  0.11711141229E+04  0.00000000000E+00 0. -1.
<mgrwt>
<rscale>  0 0.25594562E+04</rscale>
<asrwt>0</asrwt>
<pdfrwt beam="1">  1        2 0.17385092E+00 0.25594562E+04</pdfrwt>
<pdfrwt beam="2">  1       -2 0.22296243E+00 0.25594562E+04</pdfrwt>
<totfact> 0.17540346E+00</totfact>
</mgrwt>
</event>
<event>
 6    1  0.1614874E-005  0.2857398E+04  0.7818608E-02  0.8285667E-01
         -1   -1    0    0    0  501 -0.00000000000E+00  0.00000000000E+00  0.17314019160E+04  0.17314019160E+04  0.00000000000E+00 0.  1.
          1   -1    0    0  501    0  0.00000000000E+00 -0.00000000000E+00 -0.11789183703E+04  0.11789183703E+04  0.00000000000E+00 0. -1.
         23    2    1    2    0    0  0.81394058462E+02 -0.14103053769E+04  0.69359566032E+02  0.14173383612E+04  0.91929493366E+02 0.  0.
         11    1    3    3    0    0  0.26397085301E+02 -0.98062677001E+03  0.77900275059E+02  0.98407018095E+03  0.00000000000E+00 0. -1.
        -11    1    3    3    0    0  0.54996973160E+02 -0.42967860693E+03 -0.85407090269E+01  0.43326818025E+03  0.00000000000E+00 0.  1.
         22    1    1    2    0    0 -0.81394058462E+02  0.14103053769E+04  0.48312397968E+03  0.14929819251E+04  0.00000000000E+00 0.  1.
<mgrwt>
<rscale>  0 0.28573985E+04</rscale>
<asrwt>0</asrwt>
<pdfrwt beam="1">  1        1 0.18137206E+00 0.28573985E+04</pdfrwt>
<pdfrwt beam="2">  1       -1 0.26636953E+00 0.28573985E+04</pdfrwt>
<totfact> 0.52035760E-01</totfact>
</mgrwt>
</event>
<event>
 6    1  0.1614874E-005  0.1172238E+04  0.7818608E-02  0.9137510E-01
         -2   -1    0    0    0  501 -0.00000000000E+00  0.00000000000E+00  0.17643526390E+03  0.17643526390E+03  0.00000000000E+00 0.  1.
          2   -1    0    0  501    0  0.00000000000E+00 -0.00000000000E+00 -0.19470891822E+04  0.19470891822E+04  0.00000000000E+00 0. -1.
         23    2    1    2    0    0  0.94273376108E+02 -0.47069925216E+03 -0.29288855388E+03  0.56974333935E+03  0.91534213930E+02 0.  0.
         11    1    3    3    0    0  0.37325657570E+02 -0.35958405836E+03 -0.19276024179E+03  0.40969550956E+03  0.00000000000E+00 0.  1.
        -11    1    3    3    0    0  0.56947718538E+02 -0.11111519380E+03 -0.10012831209E+03  0.16004782979E+03  0.00000000000E+00 0. -1.
         22    1    1    2    0    0 -0.94273376108E+02  0.47069925216E+03 -0.14777653644E+04  0.15537811068E+04  0.00000000000E+00 0. -1.
<mgrwt>
<rscale>  0 0.11722375E+04</rscale>
<asrwt>0</asrwt>
<pdfrwt beam="1">  1        2 0.29955220E+00 0.11722375E+04</pdfrwt>
<pdfrwt beam="2">  1       -2 0.27143885E-01 0.11722375E+04</pdfrwt>
<totfact> 0.87340361E+01</totfact>
</mgrwt>
</event>
<event>
 6    1  0.1614874E-005  0.1743243E+04  0.7818608E-02  0.8737078E-01
         -1   -1    0    0    0  501 -0.00000000000E+00  0.00000000000E+00  0.81340525362E+03  0.81340525362E+03  0.00000000000E+00 0.  1.
          1   -1    0    0  501    0  0.00000000000E+00 -0.00000000000E+00 -0.93400484278E+03  0.93400484278E+03  0.00000000000E+00 0. -1.
         23    2    1    2    0    0  0.73054895826E+02  0.18163826719E+03  0.78845084234E+03  0.81751646543E+03  0.91372657530E+02 0.  0.
         13    1    3    3    0    0  0.82021337073E+02  0.17942755314E+03  0.66310520087E+03  0.69183108775E+03  0.00000000000E+00 0. -1.
        -13    1    3    3    0    0 -0.89664412470E+01  0.22107140514E+01  0.12534564147E+03  0.12568537767E+03  0.00000000000E+00 0.  1.
         22    1    1    2    0    0 -0.73054895826E+02 -0.18163826719E+03 -0.90905043150E+03  0.92989363097E+03  0.00000000000E+00 0. -1.
<mgrwt>
<rscale>  0 0.17432435E+04</rscale>
<asrwt>0</asrwt>
<pdfrwt beam="1">  1        1 0.14369305E+00 0.17432435E+04</pdfrwt>
<pdfrwt beam="2">  1       -1 0.12513927E+00 0.17432435E+04</pdfrwt>
<totfact> 0.90357160E+00</totfact>
</mgrwt>
</event>
<event>
 6    1  0.1614874E-005  0.5688360E+03  0.7818608E-02  0.9972258E-01
         -1   -1    0    0    0  501 -0.00000000000E+00  0.00000000000E+00  0.51945253695E+03  0.51945253695E+03  0.00000000000E+00 0.  1.
          1   -1    0    0  501    0  0.00000000000E+00 -0.00000000000E+00 -0.15572857386E+03  0.15572857386E+03  0.00000000000E+00 0. -1.
         23    2    1    2    0    0 -0.27454109472E+03 -0.33820474343E+02  0.21049328361E+03  0.35895922937E+03  0.89597258469E+02 0.  0.
         13    1    3    3    0    0 -0.13886173842E+02  0.10491298622E+02 -0.47359991092E+01  0.18036708633E+02  0.00000000000E+00 0.  1.
        -13    1    3    3    0    0 -0.26065492088E+03 -0.44311772965E+02  0.21522928272E+03  0.34092252073E+03  0.00000000000E+00 0. -1.
         22    1    1    2    0    0  0.27454109472E+03  0.33820474343E+02  0.15323067948E+03  0.31622188145E+03  0.00000000000E+00 0. -1.
<mgrwt>
<rscale>  0 0.56883601E+03</rscale>
<asrwt>0</asrwt>
<pdfrwt beam="1">  1        1 0.23958242E-01 0.56883601E+03</pdfrwt>
<pdfrwt beam="2">  1       -1 0.79915774E-01 0.56883601E+03</pdfrwt>
<totfact> 0.32786358E+02</totfact>
</mgrwt>
</event>
<event>
 6    1  0.1614874E-005  0.3472365E+04  0.7818608E-02  0.8120370E-01
         -1   -1    0    0    0  501 -0.00000000000E+00  0.00000000000E+00  0.20878786603E+04  0.20878786603E+04  0.00000000000E+00 0.  1.
          1   -1    0    0  501    0  0.00000000000E+00 -0.00000000000E+00 -0.14437286390E+04  0.14437286390E+04  0.00000000000E+00 0. -1.
         23    2    1    2    0    0  0.67824965263E+03  0.74253082860E+03 -0.11155896413E+04  0.15047727470E+04  0.91794060712E+02 0.  0.
         13    1    3    3    0    0  0.60300560830E+03  0.62773714656E+03 -0.99567925711E+03  0.13225153579E+04  0.00000000000E+00 0. -1.
        -13    1    3    3    0    0  0.75244044333E+02  0.11479368204E+03 -0.11991038417E+03  0.18225738909E+03  0.00000000000E+00 0.  1.
         22    1    1    2    0    0 -0.67824965263E+03 -0.74253082860E+03  0.17597396625E+04  0.20268345524E+04  0.00000000000E+00 0.  1.
<mgrwt>
<rscale>  0 0.34723653E+04</rscale>
<asrwt>0</asrwt>
<pdfrwt beam="1">  1        1 0.22211210E+00 0.34723653E+04</pdfrwt>
<pdfrwt beam="2">  1       -1 0.32121210E+00 0.34723653E+04</pdfrwt>
<totfact> 0.14066436E-01</totfact>
</mgrwt>
</event>
<event>
 6    1  0.1614874E-005  0.1845934E+04  0.7818608E-02  0.8682246E-01
          2   -1    0    0  501    0  0.00000000000E+00  0.00000000000E+00  0.36130925792E+04  0.36130925792E+04  0.00000000000E+00 0.  1.
         -2   -1    0    0    0  501 -0.00000000000E+00 -0.00000000000E+00 -0.23577262492E+03  0.23577262492E+03  0.00000000000E+00 0. -1.
         23    2    1    2    0    0  0.76621821520E+03 -0.44811253169E+03  0.22023658628E+04  0.23763122131E+04  0.92461592099E+02 0.  0.
         13    1    3    3    0    0  0.54532945410E+03 -0.36009527726E+03  0.16671786764E+04  0.17906807535E+04  0.00000000000E+00 0. -1.
        -13    1    3    3    0    0  0.22088876110E+03 -0.88017254429E+02  0.53518718643E+03  0.58563145952E+03  0.00000000000E+00 0.  1.
         22    1    1    2    0    0 -0.76621821520E+03  0.44811253169E+03  0.11749540915E+04  0.14725529910E+04  0.00000000000E+00 0. -1.
<mgrwt>
<rscale>  0 0.18459343E+04</rscale>
<asrwt>0</asrwt>
<pdfrwt beam="1">  1        2 0.55586036E+00 0.18459343E+04</pdfrwt>
<pdfrwt beam="2">  1       -2 0.36272714E-01 0.18459343E+04</pdfrwt>
<totfact> 0.45849215E+00</totfact>
</mgrwt>
</event>
<event>
 6    1  0.1614874E-005  0.3344656E+04  0.7818608E-02  0.8151625E-01
         -2   -1    0    0    0  501 -0.00000000000E+00  0.00000000000E+00  0.72801128969E+03  0.72801128969E+03  0.00000000000E+00 0. -1.
          2   -1    0    0  501    0  0.00000000000E+00 -0.00000000000E+00 -0.38415341546E+04  0.38415341546E+04  0.00000000000E+00 0.  1.
         23    2    1    2    0    0 -0.72563829398E+03 -0.13563598602E+04 -0.66609236585E+03  0.16788398121E+04  0.92526054380E+02 0.  0.
         13    1    3    3    0    0 -0.35423526468E+03 -0.67304726456E+03 -0.27926293533E+03  0.81022406168E+03  0.00000000000E+00 0.  1.
        -13    1    3    3    0    0 -0.37140302930E+03 -0.68331259568E+03 -0.38682943053E+03  0.86861575043E+03  0.00000000000E+00 0. -1.
         22    1    1    2    0    0  0.72563829398E+03  0.13563598602E+04 -0.24474304990E+04  0.28907056322E+04  0.00000000000E+00 0.  1.
<mgrwt>
<rscale>  0 0.33446556E+04</rscale>
<asrwt>0</asrwt>
<pdfrwt beam="1">  1        2 0.59100524E+00 0.33446556E+04</pdfrwt>
<pdfrwt beam="2">  1       -2 0.11200174E+00 0.33446556E+04</pdfrwt>
<totfact> 0.23839598E-01</totfact>
</mgrwt>
</event>
<event>
 6    1  0.1614874E-005  0.4192136E+04  0.7818608E-02  0.7966870E-01
          1   -1    0    0  501    0  0.00000000000E+00  0.00000000000E+00  0.17023178374E+04  0.17023178374E+04  0.00000000000E+00 0. -1.
         -1   -1    0    0    0  501 -0.00000000000E+00 -0.00000000000E+00 -0.25808937282E+04  0.25808937282E+04  0.00000000000E+00 0.  1.
         23    2    1    2    0    0 -0.20173844039E+04 -0.49158794487E+03 -0.15518174194E+03  0.20843942390E+04  0.95495706635E+02 0.  0.
         13    1    3    3    0    0 -0.71441595270E+03 -0.20384450115E+03 -0.91111507571E+02  0.74849451630E+03  0.00000000000E+00 0.  1.
        -13    1    3    3    0    0 -0.13029684512E+04 -0.28774344372E+03 -0.64070234374E+02  0.13358997227E+04  0.00000000000E+00 0. -1.
         22    1    1    2    0    0  0.20173844039E+04  0.49158794487E+03 -0.72339414883E+03  0.21988173265E+04  0.00000000000E+00 0.  1.
<mgrwt>
<rscale>  0 0.41921362E+04</rscale>
<asrwt>0</asrwt>
<pdfrwt beam="1">  1        1 0.26189505E+00 0.41921362E+04</pdfrwt>
<pdfrwt beam="2">  1       -1 0.39706057E+00 0.41921362E+04</pdfrwt>
<totfact> 0.27398659E-02</totfact>
</mgrwt>
</event>
<event>
 6    1  0.1614874E-005  0.1863440E+04  0.7818608E-02  0.8673272E-01
         -1   -1    0    0    0  501 -0.00000000000E+00  0.00000000000E+00  0.57788389670E+03  0.57788389670E+03  0.00000000000E+00 0.  1.
          1   -1    0    0  501    0  0.00000000000E+00 -0.00000000000E+00 -0.15022079547E+04  0.15022079547E+04  0.00000000000E+00 0. -1.
         23    2    1    2    0    0 -0.67308103366E+03 -0.23999890344E+03 -0.11268420332E+04  0.13373596777E+04  0.90113197596E+02 0.  0.
         11    1    3    3    0    0 -0.57882365122E+03 -0.17255462604E+03 -0.92971820471E+03  0.11086874484E+04  0.00000000000E+00 0. -1.
        -11    1    3    3    0    0 -0.94257382437E+02 -0.67444277403E+02 -0.19712382846E+03  0.22867222928E+03  0.00000000000E+00 0.  1.
         22    1    1    2    0    0  0.67308103366E+03  0.23999890344E+03  0.20251797518E+03  0.74273217366E+03  0.00000000000E+00 0.  1.
<mgrwt>
<rscale>  0 0.18634396E+04</rscale>
<asrwt>0</asrwt>
<pdfrwt beam="1">  1        1 0.23110892E+00 0.18634396E+04</pdfrwt>
<pdfrwt beam="2">  1       -1 0.88905214E-01 0.18634396E+04</pdfrwt>
<totfact> 0.75919804E+00</totfact>
</mgrwt>
</event>
<event>
 6    1  0.1614874E-005  0.2410215E+04  0.7818608E-02  0.8435689E-01
          2   -1    0    0  501    0  0.00000000000E+00  0.00000000000E+00  0.10712423598E+04  0.10712423598E+04  0.00000000000E+00 0.  1.
         -2   -1    0    0    0  501 -0.00000000000E+00 -0.00000000000E+00 -0.13557012500E+04  0.13557012500E+04  0.00000000000E+00 0. -1.
         23    2    1    2    0    0 -0.52163389307E+03 -0.10661548892E+04 -0.34155704034E+03  0.12386471969E+04  0.93794991399E+02 0.  0.
         11    1    3    3    0    0 -0.17806798895E+03 -0.46930144047E+03 -0.14512626829E+03  0.52250711427E+03  0.00000000000E+00 0. -1.
        -11    1    3    3    0    0 -0.34356590412E+03 -0.59685344870E+03 -0.19643077205E+03  0.71614008260E+03  0.00000000000E+00 0.  1.
         22    1    1    2    0    0  0.52163389307E+03  0.10661548892E+04  0.57098150165E+02  0.11882964129E+04  0.00000000000E+00 0.  1.
<mgrwt>
<rscale>  0 0.24102154E+04</rscale>
<asrwt>0</asrwt>
<pdfrwt beam="1">  1        2 0.16480652E+00 0.24102154E+04</pdfrwt>
<pdfrwt beam="2">  1       -2 0.20856942E+00 0.24102154E+04</pdfrwt>
<totfact> 0.23853408E+00</totfact>
</mgrwt>
</event>
<event>
 6    1  0.1614874E-005  0.3072494E+04  0.7818608E-02  0.8223328E-01
          2   -1    0    0  501    0  0.00000000000E+00  0.00000000000E+00  0.21062169773E+04  0.21062169773E+04  0.00000000000E+00 0. -1.
         -2   -1    0    0    0  501 -0.00000000000E+00 -0.00000000000E+00 -0.11205182109E+04  0.11205182109E+04  0.00000000000E+00 0.  1.
         23    2    1    2    0    0 -0.74422529373E+03 -0.29596775141E+03 -0.88046054685E+03  0.11959671610E+04  0.11686949066E+03 0.  0.
         11    1    3    3    0    0 -0.31893733716E+02 -0.17442861158E+02 -0.85015304776E+02  0.92461157801E+02  0.00000000000E+00 0.  1.
        -11    1    3    3    0    0 -0.71233156002E+03 -0.27852489025E+03 -0.79544524207E+03  0.11035060032E+04  0.00000000000E+00 0. -1.
         22    1    1    2    0    0  0.74422529373E+03  0.29596775141E+03  0.18661593133E+04  0.20307680272E+04  0.00000000000E+00 0. -1.
<mgrwt>
<rscale>  0 0.30724938E+04</rscale>
<asrwt>0</asrwt>
<pdfrwt beam="1">  1        2 0.32403338E+00 0.30724938E+04</pdfrwt>
<pdfrwt beam="2">  1       -2 0.17238742E+00 0.30724938E+04</pdfrwt>
<totfact> 0.10167937E+00</totfact>
</mgrwt>
</event>
<event>
 6    1  0.1614874E-005  0.1682819E+04  0.7818608E-02  0.8771225E-01
         -1   -1    0    0    0  501 -0.00000000000E+00  0.00000000000E+00  0.14623433638E+04  0.14623433638E+04  0.00000000000E+00 0.  1.
          1   -1    0    0  501    0  0.00000000000E+00 -0.00000000000E+00 -0.48413360356E+03  0.48413360356E+03  0.00000000000E+00 0. -1.
         23    2    1    2    0    0 -0.62586293853E+03 -0.23813043119E+03  0.10752258258E+04  0.12698510463E+04  0.89445978856E+02 0.  0.
         13    1    3    3    0    0 -0.13701276676E+03 -0.56743468043E+02  0.17366632018E+03  0.22836880301E+03  0.00000000000E+00 0.  1.
        -13    1    3    3    0    0 -0.48885017177E+03 -0.18138696315E+03  0.90155950566E+03  0.10414822433E+04  0.00000000000E+00 0. -1.
         22    1    1    2    0    0  0.62586293853E+03  0.23813043119E+03 -0.97016065586E+02  0.67662592108E+03  0.00000000000E+00 0. -1.
<mgrwt>
<rscale>  0 0.16828185E+04</rscale>
<asrwt>0</asrwt>
<pdfrwt beam="1">  1        1 0.74482094E-01 0.16828185E+04</pdfrwt>
<pdfrwt beam="2">  1       -1 0.22497590E+00 0.16828185E+04</pdfrwt>
<totfact> 0.45011169E+00</totfact>
</mgrwt>
</event>
<event>
 6    1  0.1614874E-005  0.7876416E+03  0.7818608E-02  0.9578080E-01
          2   -1    0    0  501    0  0.00000000000E+00  0.00000000000E+00  0.10078185861E+04  0.10078185861E+04  0.00000000000E+00 0. -1.
         -2   -1    0    0    0  501 -0.00000000000E+00 -0.00000000000E+00 -0.15389159774E+03  0.15389159774E+03  0.00000000000E+00 0.  1.
         23    2    1    2    0    0 -0.37863543872E+03 -0.46455935168E+02  0.32448723577E+03  0.50915413185E+03  0.91776982083E+02 0.  0.
         11    1    3    3    0    0 -0.19350668039E+03 -0.29980505307E+02  0.10726374883E+03  0.22326929450E+03  0.00000000000E+00 0.  1.
        -11    1    3    3    0    0 -0.18512875833E+03 -0.16475429861E+02  0.21722348694E+03  0.28588483735E+03  0.00000000000E+00 0. -1.
         22    1    1    2    0    0  0.37863543872E+03  0.46455935168E+02  0.52943975261E+03  0.65255605201E+03  0.00000000000E+00 0.  1.
<mgrwt>
<rscale>  0 0.78764157E+03</rscale>
<asrwt>0</asrwt>
<pdfrwt beam="1">  1        2 0.15504901E+00 0.78764157E+03</pdfrwt>
<pdfrwt beam="2">  1       -2 0.23675631E-01 0.78764157E+03</pdfrwt>
<totfact> 0.39573009E+02</totfact>
</mgrwt>
</event>
<event>
 6    1  0.1614874E-005  0.2993039E+04  0.7818608E-02  0.8245722E-01
          2   -1    0    0  501    0  0.00000000000E+00  0.00000000000E+00  0.13452779687E+04  0.13452779687E+04  0.00000000000E+00 0. -1.
         -2   -1    0    0    0  501 -0.00000000000E+00 -0.00000000000E+00 -0.16647637410E+04  0.16647637410E+04  0.00000000000E+00 0.  1.
         23    2    1    2    0    0  0.18161346619E+03  0.58030165006E+03  0.12136032700E+04  0.13607705167E+04  0.95551274846E+02 0.  0.
         11    1    3    3    0    0  0.89392422795E+02  0.41980479288E+03  0.88591850693E+03  0.98441793477E+03  0.00000000000E+00 0. -1.
        -11    1    3    3    0    0  0.92221043400E+02  0.16049685718E+03  0.32768476304E+03  0.37635258195E+03  0.00000000000E+00 0.  1.
         22    1    1    2    0    0 -0.18161346619E+03 -0.58030165006E+03 -0.15330890424E+04  0.16492711930E+04  0.00000000000E+00 0.  1.
<mgrwt>
<rscale>  0 0.29930386E+04</rscale>
<asrwt>0</asrwt>
<pdfrwt beam="1">  1        2 0.20696584E+00 0.29930386E+04</pdfrwt>
<pdfrwt beam="2">  1       -2 0.25611750E+00 0.29930386E+04</pdfrwt>
<totfact> 0.78540154E-01</totfact>
</mgrwt>
</event>
<event>
 6    1  0.1614874E-005  0.2948773E+04  0.7818608E-02  0.8258512E-01
         -1   -1    0    0    0  501 -0.00000000000E+00  0.00000000000E+00  0.10163056941E+04  0.10163056941E+04  0.00000000000E+00 0.  1.
          1   -1    0    0  501    0  0.00000000000E+00 -0.00000000000E+00 -0.21389391393E+04  0.21389391393E+04  0.00000000000E+00 0. -1.
         23    2    1    2    0    0  0.82090763989E+03  0.92725839013E+03 -0.14151482177E+04  0.18827424297E+04  0.91526516300E+02 0.  0.
         11    1    3    3    0    0  0.28428575805E+03  0.35229435856E+03 -0.57681306356E+03  0.73324144564E+03  0.00000000000E+00 0. -1.
        -11    1    3    3    0    0  0.53662188185E+03  0.57496403157E+03 -0.83833515417E+03  0.11495009841E+04  0.00000000000E+00 0.  1.
         22    1    1    2    0    0 -0.82090763989E+03 -0.92725839013E+03  0.29251477250E+03  0.12725024037E+04  0.00000000000E+00 0.  1.
<mgrwt>
<rscale>  0 0.29487733E+04</rscale>
<asrwt>0</asrwt>
<pdfrwt beam="1">  1        1 0.32906756E+00 0.29487733E+04</pdfrwt>
<pdfrwt beam="2">  1       -1 0.15635472E+00 0.29487733E+04</pdfrwt>
<totfact> 0.63845971E-01</totfact>
</mgrwt>
</event>
<event>
 6    1  0.1614874E-005  0.6902137E+03  0.7818608E-02  0.9734116E-01
          2   -1    0    0  501    0  0.00000000000E+00  0.00000000000E+00  0.15939301189E+04  0.15939301189E+04  0.00000000000E+00 0. -1.
         -2   -1    0    0    0  501 -0.00000000000E+00 -0.00000000000E+00 -0.74720171598E+02  0.74720171598E+02  0.00000000000E+00 0.  1.
         23    2    1    2    0    0 -0.21934261631E+03 -0.15284130732E+02  0.13970578200E+04  0.14171230948E+04  0.90125054255E+02 0.  0.
         11    1    3    3    0    0 -0.17145925360E+03  0.24309859776E+02  0.93440232733E+03  0.95031413450E+03  0.00000000000E+00 0.  1.
        -11    1    3    3    0    0 -0.47883362715E+02 -0.39593990508E+02  0.46265549268E+03  0.46680896030E+03  0.00000000000E+00 0. -1.
         22    1    1    2    0    0  0.21934261631E+03  0.15284130732E+02  0.12215212734E+03  0.25152719574E+03  0.00000000000E+00 0.  1.
<mgrwt>
<rscale>  0 0.69021368E+03</rscale>
<asrwt>0</asrwt>
<pdfrwt beam="1">  1        2 0.24521999E+00 0.69021368E+03</pdfrwt>
<pdfrwt beam="2">  1       -2 0.11495412E-01 0.69021368E+03</pdfrwt>
<totfact> 0.62478047E+02</totfact>
</mgrwt>
</event>
<event>
 6    1  0.1614874E-005  0.3081990E+04  0.7818608E-02  0.8220698E-01
         -2   -1    0    0    0  501 -0.00000000000E+00  0.00000000000E+00  0.89260482541E+03  0.89260482541E+03  0.00000000000E+00 0.  1.
          2   -1    0    0  501    0  0.00000000000E+00 -0.00000000000E+00 -0.26603772807E+04  0.26603772807E+04  0.00000000000E+00 0. -1.
         23    2    1    2    0    0 -0.76483698886E+03 -0.27325770202E+02 -0.24247722294E+04  0.25443339910E+04  0.91612095386E+02 0.  0.
         11    1    3    3    0    0 -0.54823829672E+03 -0.40945226808E+02 -0.16163311781E+04  0.17072692285E+04  0.00000000000E+00 0.  1.
        -11    1    3    3    0    0 -0.21659869214E+03  0.13619456606E+02 -0.80844105130E+03  0.83706476240E+03  0.00000000000E+00 0. -1.
         22    1    1    2    0    0  0.76483698886E+03  0.27325770202E+02  0.65699977402E+03  0.10086481152E+04  0.00000000000E+00 0.  1.
<mgrwt>
<rscale>  0 0.30819900E+04</rscale>
<asrwt>0</asrwt>
<pdfrwt beam="1">  1        2 0.40928881E+00 0.30819900E+04</pdfrwt>
<pdfrwt beam="2">  1       -2 0.13732382E+00 0.30819900E+04</pdfrwt>
<totfact> 0.89979640E-01</totfact>
</mgrwt>
</event>
<event>
 6    1  0.1614874E-005  0.5642992E+04  0.7818608E-02  0.7736314E-01
          2   -1    0    0  501    0  0.00000000000E+00  0.00000000000E+00  0.35261498637E+04  0.35261498637E+04  0.00000000000E+00 0. -1.
         -2   -1    0    0    0  501 -0.00000000000E+00 -0.00000000000E+00 -0.22576575909E+04  0.22576575909E+04  0.00000000000E+00 0.  1.
         23    2    1    2    0    0 -0.86475810690E+03 -0.67194323162E+03  0.32988283259E+04  0.34769527175E+04  0.87278783027E+02 0.  0.
         13    1    3    3    0    0 -0.54257036087E+03 -0.40984950481E+03  0.21763360449E+04  0.22800872337E+04  0.00000000000E+00 0. -1.
        -13    1    3    3    0    0 -0.32218774603E+03 -0.26209372681E+03  0.11224922810E+04  0.11968654838E+04  0.00000000000E+00 0.  1.
         22    1    1    2    0    0  0.86475810690E+03  0.67194323162E+03 -0.20303360530E+04  0.23068547371E+04  0.00000000000E+00 0.  1.
<mgrwt>
<rscale>  0 0.56429918E+04</rscale>
<asrwt>0</asrwt>
<pdfrwt beam="1">  1        2 0.54248459E+00 0.56429918E+04</pdfrwt>
<pdfrwt beam="2">  1       -2 0.34733194E+00 0.56429918E+04</pdfrwt>
<totfact> 0.87023431E-03</totfact>
</mgrwt>
</event>
<event>
 6    1  0.1614874E-005  0.6090306E+03  0.7818608E-02  0.9886846E-01
         -2   -1    0    0    0  501 -0.00000000000E+00  0.00000000000E+00  0.32206246279E+03  0.32206246279E+03  0.00000000000E+00 0.  1.
          2   -1    0    0  501    0  0.00000000000E+00 -0.00000000000E+00 -0.28792412731E+03  0.28792412731E+03  0.00000000000E+00 0. -1.
         23    2    1    2    0    0 -0.13283152167E+03  0.21862156099E+03 -0.13450352307E+03  0.30358868453E+03  0.92926269581E+02 0.  0.
         13    1    3    3    0    0 -0.66220858293E+01  0.87585534655E+02 -0.63077404909E+02  0.10813804563E+03  0.00000000000E+00 0. -1.
        -13    1    3    3    0    0 -0.12620943584E+03  0.13103602633E+03 -0.71426118162E+02  0.19545063891E+03  0.00000000000E+00 0.  1.
         22    1    1    2    0    0  0.13283152167E+03 -0.21862156099E+03  0.16864185855E+03  0.30639790557E+03  0.00000000000E+00 0.  1.
<mgrwt>
<rscale>  0 0.60903055E+03</rscale>
<asrwt>0</asrwt>
<pdfrwt beam="1">  1        2 0.44296019E-01 0.60903055E+03</pdfrwt>
<pdfrwt beam="2">  1       -2 0.49548072E-01 0.60903055E+03</pdfrwt>
<totfact> 0.44707276E+02</totfact>
</mgrwt>
</event>
<event>
 6    1  0.1614874E-005  0.2065261E+04  0.7818608E-02  0.8576702E-01
          2   -1    0    0  501    0  0.00000000000E+00  0.00000000000E+00  0.87902390780E+03  0.87902390780E+03  0.00000000000E+00 0. -1.
         -2   -1    0    0    0  501 -0.00000000000E+00 -0.00000000000E+00 -0.12130795769E+04  0.12130795769E+04  0.00000000000E+00 0.  1.
         23    2    1    2    0    0 -0.39818255778E+03 -0.57024920333E+03  0.60305142115E+03  0.92509739997E+03  0.91655221755E+02 0.  0.
         13    1    3    3    0    0 -0.19608441522E+02 -0.78221266626E+02  0.73463013473E+02  0.10908653391E+03  0.00000000000E+00 0. -1.
        -13    1    3    3    0    0 -0.37857411625E+03 -0.49202793671E+03  0.52958840768E+03  0.81601086607E+03  0.00000000000E+00 0.  1.
         22    1    1    2    0    0  0.39818255778E+03  0.57024920333E+03 -0.93710709028E+03  0.11670060848E+04  0.00000000000E+00 0.  1.
<mgrwt>
<rscale>  0 0.20652612E+04</rscale>
<asrwt>0</asrwt>
<pdfrwt beam="1">  1        2 0.13523445E+00 0.20652612E+04</pdfrwt>
<pdfrwt beam="2">  1       -2 0.18662763E+00 0.20652612E+04</pdfrwt>
<totfact> 0.45725252E+00</totfact>
</mgrwt>
</event>
<event>
 6    1  0.1614874E-005  0.1517017E+04  0.7818608E-02  0.8873215E-01
         -2   -1    0    0    0  501 -0.00000000000E+00  0.00000000000E+00  0.35311907460E+03  0.35311907460E+03  0.00000000000E+00 0. -1.
          2   -1    0    0  501    0  0.00000000000E+00 -0.00000000000E+00 -0.16292955630E+04  0.16292955630E+04  0.00000000000E+00 0.  1.
         23    2    1    2    0    0 -0.44434047388E+03  0.18991116302E+03  0.12105027587E+03  0.50398731868E+03  0.76454833306E+02 0.  0.
         11    1    3    3    0    0 -0.14220800954E+03  0.36720083389E+02  0.65077517884E+02  0.16064422130E+03  0.00000000000E+00 0. -1.
        -11    1    3    3    0    0 -0.30213246433E+03  0.15319107963E+03  0.55972757985E+02  0.34334309738E+03  0.00000000000E+00 0.  1.
         22    1    1    2    0    0  0.44434047388E+03 -0.18991116302E+03 -0.13972267643E+04  0.14784273189E+04  0.00000000000E+00 0.  1.
<mgrwt>
<rscale>  0 0.15170173E+04</rscale>
<asrwt>0</asrwt>
<pdfrwt beam="1">  1        2 0.25066086E+00 0.15170173E+04</pdfrwt>
<pdfrwt beam="2">  1       -2 0.54326011E-01 0.15170173E+04</pdfrwt>
<totfact> 0.33048799E+01</totfact>
</mgrwt>
</event>
<event>
 6    1  0.1614874E-005  0.1537736E+04  0.7818608E-02  0.8859740E-01
         -2   -1    0    0    0  501 -0.00000000000E+00  0.00000000000E+00  0.15705908234E+03  0.15705908234E+03  0.00000000000E+00 0.  1.
          2   -1    0    0  501    0  0.00000000000E+00 -0.00000000000E+00 -0.37639211960E+04  0.37639211960E+04  0.00000000000E+00 0. -1.
         23    2    1    2    0    0 -0.42117602537E+03 -0.62559975014E+03 -0.21569219147E+04  0.22866330471E+04  0.87259694201E+02 0.  0.
         13    1    3    3    0    0 -0.51582735277E+02 -0.12849866822E+03 -0.44788995188E+03  0.46880496510E+03  0.00000000000E+00 0.  1.
        -13    1    3    3    0    0 -0.36959329009E+03 -0.49710108192E+03 -0.17090319628E+04  0.18178280820E+04  0.00000000000E+00 0. -1.
         22    1    1    2    0    0  0.42117602537E+03  0.62559975014E+03 -0.14499401989E+04  0.16343472312E+04  0.00000000000E+00 0.  1.
<mgrwt>
<rscale>  0 0.15377360E+04</rscale>
<asrwt>0</asrwt>
<pdfrwt beam="1">  1        2 0.57906473E+00 0.15377360E+04</pdfrwt>
<pdfrwt beam="2">  1       -2 0.24162939E-01 0.15377360E+04</pdfrwt>
<totfact> 0.78259817E+00</totfact>
</mgrwt>
</event>
<event>
 6    1  0.1614874E-005  0.1982865E+04  0.7818608E-02  0.8614674E-01
          2   -1    0    0  501    0  0.00000000000E+00  0.00000000000E+00  0.99213892096E+03  0.99213892096E+03  0.00000000000E+00 0.  1.
         -2   -1    0    0    0  501 -0.00000000000E+00 -0.00000000000E+00 -0.99072707961E+03  0.99072707961E+03  0.00000000000E+00 0. -1.
         23    2    1    2    0    0  0.72005494592E+03  0.54217987929E+03  0.40852378690E+03  0.99383704101E+03  0.91554535513E+02 0.  0.
         13    1    3    3    0    0  0.33660006287E+03  0.29616202479E+03  0.23610564797E+03  0.50671236837E+03  0.00000000000E+00 0. -1.
        -13    1    3    3    0    0  0.38345488305E+03  0.24601785450E+03  0.17241813892E+03  0.48712467264E+03  0.00000000000E+00 0.  1.
         22    1    1    2    0    0 -0.72005494592E+03 -0.54217987929E+03 -0.40711194555E+03  0.98902895957E+03  0.00000000000E+00 0. -1.
<mgrwt>
<rscale>  0 0.19828655E+04</rscale>
<asrwt>0</asrwt>
<pdfrwt beam="1">  1        2 0.15263676E+00 0.19828655E+04</pdfrwt>
<pdfrwt beam="2">  1       -2 0.15241955E+00 0.19828655E+04</pdfrwt>
<totfact> 0.68067385E+00</totfact>
</mgrwt>
</event>
<event>
 6    1  0.1614874E-005  0.2401400E+04  0.7818608E-02  0.8438980E-01
          1   -1    0    0  501    0  0.00000000000E+00  0.00000000000E+00  0.14554725453E+04  0.14554725453E+04  0.00000000000E+00 0. -1.
         -1   -1    0    0    0  501 -0.00000000000E+00 -0.00000000000E+00 -0.99052363251E+03  0.99052363251E+03  0.00000000000E+00 0.  1.
         23    2    1    2    0    0 -0.56620148957E+03  0.10569211097E+04  0.22440661201E+03  0.12230787818E+04  0.88865178926E+02 0.  0.
         13    1    3    3    0    0 -0.27545193039E+03  0.45679564964E+03  0.13523912360E+03  0.55029596768E+03  0.00000000000E+00 0.  1.
        -13    1    3    3    0    0 -0.29074955918E+03  0.60012546010E+03  0.89167488401E+02  0.67278281415E+03  0.00000000000E+00 0. -1.
         22    1    1    2    0    0  0.56620148957E+03 -0.10569211097E+04  0.24054230082E+03  0.12229173960E+04  0.00000000000E+00 0.  1.
<mgrwt>
<rscale>  0 0.24013996E+04</rscale>
<asrwt>0</asrwt>
<pdfrwt beam="1">  1        1 0.22391885E+00 0.24013996E+04</pdfrwt>
<pdfrwt beam="2">  1       -1 0.15238825E+00 0.24013996E+04</pdfrwt>
<totfact> 0.21043551E+00</totfact>
</mgrwt>
</event>
<event>
 6    1  0.1614874E-005  0.1485622E+04  0.7818608E-02  0.8894070E-01
         -1   -1    0    0    0  501 -0.00000000000E+00  0.00000000000E+00  0.35769051304E+03  0.35769051304E+03  0.00000000000E+00 0.  1.
          1   -1    0    0  501    0  0.00000000000E+00 -0.00000000000E+00 -0.15425864115E+04  0.15425864115E+04  0.00000000000E+00 0. -1.
         23    2    1    2    0    0 -0.64693976513E+02  0.68945298012E+03 -0.93008150954E+03  0.11624008542E+04  0.81199809268E+02 0.  0.
         11    1    3    3    0    0  0.10889653172E+02  0.31656979480E+03 -0.42099946143E+03  0.52685440688E+03  0.00000000000E+00 0.  1.
        -11    1    3    3    0    0 -0.75583629684E+02  0.37288318532E+03 -0.50908204812E+03  0.63554644730E+03  0.00000000000E+00 0. -1.
         22    1    1    2    0    0  0.64693976513E+02 -0.68945298012E+03 -0.25481438889E+03  0.73787607033E+03  0.00000000000E+00 0.  1.
<mgrwt>
<rscale>  0 0.14856225E+04</rscale>
<asrwt>0</asrwt>
<pdfrwt beam="1">  1        1 0.23732099E+00 0.14856225E+04</pdfrwt>
<pdfrwt beam="2">  1       -1 0.55029310E-01 0.14856225E+04</pdfrwt>
<totfact> 0.19756366E+01</totfact>
</mgrwt>
</event>
<event>
 6    1  0.1614874E-005  0.4131058E+04  0.7818608E-02  0.7978617E-01
         -2   -1    0    0    0  501 -0.00000000000E+00  0.00000000000E+00  0.11480401779E+04  0.11480401779E+04  0.00000000000E+00 0.  1.
          2   -1    0    0  501    0  0.00000000000E+00 -0.00000000000E+00 -0.37162555283E+04  0.37162555283E+04  0.00000000000E+00 0. -1.
         23    2    1    2    0    0  0.17154991072E+04  0.11271160911E+04 -0.15451386278E+04  0.25708236986E+04  0.91396063139E+02 0.  0.
         13    1    3    3    0    0  0.84519910355E+03  0.51390189876E+03 -0.70692540972E+03  0.12158125765E+04  0.00000000000E+00 0.  1.
        -13    1    3    3    0    0  0.87030000369E+03  0.61321419232E+03 -0.83821321810E+03  0.13550111221E+04  0.00000000000E+00 0. -1.
         22    1    1    2    0    0 -0.17154991072E+04 -0.11271160911E+04 -0.10230767226E+04  0.22934720077E+04  0.00000000000E+00 0.  1.
<mgrwt>
<rscale>  0 0.41310583E+04</rscale>
<asrwt>0</asrwt>
<pdfrwt beam="1">  1        2 0.57173160E+00 0.41310583E+04</pdfrwt>
<pdfrwt beam="2">  1       -2 0.17662157E+00 0.41310583E+04</pdfrwt>
<totfact> 0.84604315E-02</totfact>
</mgrwt>
</event>
<event>
 6    1  0.1614874E-005  0.3315165E+04  0.7818608E-02  0.8159047E-01
         -2   -1    0    0    0  501 -0.00000000000E+00  0.00000000000E+00  0.15920484437E+04  0.15920484437E+04  0.00000000000E+00 0.  1.
          2   -1    0    0  501    0  0.00000000000E+00 -0.00000000000E+00 -0.17258146327E+04  0.17258146327E+04  0.00000000000E+00 0. -1.
         23    2    1    2    0    0 -0.91685879075E+03 -0.99547987763E+03 -0.10225335497E+04  0.16987529349E+04  0.92609096184E+02 0.  0.
         11    1    3    3    0    0 -0.55779309643E+03 -0.59041321225E+03 -0.66848494961E+03  0.10519472551E+04  0.00000000000E+00 0. -1.
        -11    1    3    3    0    0 -0.35906569432E+03 -0.40506666538E+03 -0.35404860005E+03  0.64680567980E+03  0.00000000000E+00 0.  1.
         22    1    1    2    0    0  0.91685879075E+03  0.99547987763E+03  0.88876736062E+03  0.16191101415E+04  0.00000000000E+00 0. -1.
<mgrwt>
<rscale>  0 0.33151655E+04</rscale>
<asrwt>0</asrwt>
<pdfrwt beam="1">  1        2 0.26550994E+00 0.33151655E+04</pdfrwt>
<pdfrwt beam="2">  1       -2 0.24493053E+00 0.33151655E+04</pdfrwt>
<totfact> 0.54656722E-01</totfact>
</mgrwt>
</event>
<event>
 6    1  0.1614874E-005  0.4773258E+04  0.7818608E-02  0.7864469E-01
         -2   -1    0    0    0  501 -0.00000000000E+00  0.00000000000E+00  0.13118522751E+04  0.13118522751E+04  0.00000000000E+00 0.  1.
          2   -1    0    0  501    0  0.00000000000E+00 -0.00000000000E+00 -0.43419512635E+04  0.43419512635E+04  0.00000000000E+00 0. -1.
         23    2    1    2    0    0  0.80219614370E+03  0.12349408113E+04 -0.37389168699E+04  0.40194779133E+04  0.90032632362E+02 0.  0.
         11    1    3    3    0    0  0.36139855436E+03  0.56105409648E+03 -0.15731757464E+04  0.17088804942E+04  0.00000000000E+00 0. -1.
        -11    1    3    3    0    0  0.44079758934E+03  0.67388671477E+03 -0.21657411235E+04  0.23105974191E+04  0.00000000000E+00 0.  1.
         22    1    1    2    0    0 -0.80219614370E+03 -0.12349408113E+04  0.70881788150E+03  0.16343256253E+04  0.00000000000E+00 0.  1.
<mgrwt>
<rscale>  0 0.47732583E+04</rscale>
<asrwt>0</asrwt>
<pdfrwt beam="1">  1        2 0.66799250E+00 0.47732583E+04</pdfrwt>
<pdfrwt beam="2">  1       -2 0.20182343E+00 0.47732583E+04</pdfrwt>
<totfact> 0.16537966E-02</totfact>
</mgrwt>
</event>
<event>
 6    1  0.1614874E-005  0.2658597E+04  0.7818608E-02  0.8348565E-01
          1   -1    0    0  501    0  0.00000000000E+00  0.00000000000E+00  0.19171968104E+04  0.19171968104E+04  0.00000000000E+00 0. -1.
         -1   -1    0    0    0  501 -0.00000000000E+00 -0.00000000000E+00 -0.92167632088E+03  0.92167632088E+03  0.00000000000E+00 0.  1.
         23    2    1    2    0    0  0.21712272336E+03 -0.66619810861E+03 -0.70583349066E+03  0.99888194575E+03  0.92747119069E+02 0.  0.
         11    1    3    3    0    0  0.11918291912E+03 -0.49504606906E+03 -0.49326546269E+03  0.70893299781E+03  0.00000000000E+00 0. -1.
        -11    1    3    3    0    0  0.97939804239E+02 -0.17115203955E+03 -0.21256802797E+03  0.28994894794E+03  0.00000000000E+00 0.  1.
         22    1    1    2    0    0 -0.21712272336E+03  0.66619810861E+03  0.17013539801E+04  0.18399911855E+04  0.00000000000E+00 0. -1.
<mgrwt>
<rscale>  0 0.26585973E+04</rscale>
<asrwt>0</asrwt>
<pdfrwt beam="1">  1        1 0.29495335E+00 0.26585973E+04</pdfrwt>
<pdfrwt beam="2">  1       -1 0.14179636E+00 0.26585973E+04</pdfrwt>
<totfact> 0.12046333E+00</totfact>
</mgrwt>
</event>
<event>
 6    1  0.1614874E-005  0.1844978E+04  0.7818608E-02  0.8682740E-01
         -1   -1    0    0    0  501 -0.00000000000E+00  0.00000000000E+00  0.98621604726E+03  0.98621604726E+03  0.00000000000E+00 0.  1.
          1   -1    0    0  501    0  0.00000000000E+00 -0.00000000000E+00 -0.86287994680E+03  0.86287994680E+03  0.00000000000E+00 0. -1.
         23    2    1    2    0    0 -0.19971532997E+03 -0.69388380678E+03 -0.51003522423E+03  0.88861685046E+03  0.90238720187E+02 0.  0.
         11    1    3    3    0    0 -0.19705843247E+03 -0.56553100993E+03 -0.43118937722E+03  0.73795774135E+03  0.00000000000E+00 0. -1.
        -11    1    3    3    0    0 -0.26568974981E+01 -0.12835279686E+03 -0.78845847015E+02  0.15065910911E+03  0.00000000000E+00 0.  1.
         22    1    1    2    0    0  0.19971532997E+03  0.69388380678E+03  0.63337132469E+03  0.96047914359E+03  0.00000000000E+00 0.  1.
<mgrwt>
<rscale>  0 0.18449781E+04</rscale>
<asrwt>0</asrwt>
<pdfrwt beam="1">  1        1 0.13275076E+00 0.18449781E+04</pdfrwt>
<pdfrwt beam="2">  1       -1 0.15172555E+00 0.18449781E+04</pdfrwt>
<totfact> 0.62115959E+00</totfact>
</mgrwt>
</event>
<event>
 6    1  0.1614874E-005  0.1577284E+04  0.7818608E-02  0.8834626E-01
          1   -1    0    0  501    0  0.00000000000E+00  0.00000000000E+00  0.55314982934E+03  0.55314982934E+03  0.00000000000E+00 0. -1.
         -1   -1    0    0    0  501 -0.00000000000E+00 -0.00000000000E+00 -0.11243897488E+04  0.11243897488E+04  0.00000000000E+00 0.  1.
         23    2    1    2    0    0  0.42159455625E+02 -0.46193511876E+03  0.38847900066E+03  0.61160248841E+03  0.89331944055E+02 0.  0.
         11    1    3    3    0    0 -0.10264166511E+02 -0.32247566133E+03  0.28157726610E+03  0.42823085135E+03  0.00000000000E+00 0.  1.
        -11    1    3    3    0    0  0.52423622136E+02 -0.13945945743E+03  0.10690173456E+03  0.18337163706E+03  0.00000000000E+00 0. -1.
         22    1    1    2    0    0 -0.42159455625E+02  0.46193511876E+03 -0.95971892014E+03  0.10659370898E+04  0.00000000000E+00 0.  1.
<mgrwt>
<rscale>  0 0.15772837E+04</rscale>
<asrwt>0</asrwt>
<pdfrwt beam="1">  1        1 0.85099975E-01 0.15772837E+04</pdfrwt>
<pdfrwt beam="2">  1       -1 0.17298304E+00 0.15772837E+04</pdfrwt>
<totfact> 0.86540651E+00</totfact>
</mgrwt>
</event>
<event>
 6    1  0.1614874E-005  0.1061294E+04  0.7818608E-02  0.9243760E-01
          2   -1    0    0  501    0  0.00000000000E+00  0.00000000000E+00  0.79176524138E+03  0.79176524138E+03  0.00000000000E+00 0. -1.
         -2   -1    0    0    0  501 -0.00000000000E+00 -0.00000000000E+00 -0.35564385303E+03  0.35564385303E+03  0.00000000000E+00 0.  1.
         23    2    1    2    0    0  0.20874653966E+03  0.48054842736E+03  0.16072071505E+03  0.55550754879E+03  0.90860220471E+02 0.  0.
         13    1    3    3    0    0  0.16744488575E+02  0.13506587052E+03  0.31830942654E+02  0.13977258740E+03  0.00000000000E+00 0. -1.
        -13    1    3    3    0    0  0.19200205108E+03  0.34548255684E+03  0.12888977240E+03  0.41573496140E+03  0.00000000000E+00 0.  1.
         22    1    1    2    0    0 -0.20874653966E+03 -0.48054842736E+03  0.27540067330E+03  0.59190154562E+03  0.00000000000E+00 0. -1.
<mgrwt>
<rscale>  0 0.10612944E+04</rscale>
<asrwt>0</asrwt>
<pdfrwt beam="1">  1        2 0.12181004E+00 0.10612944E+04</pdfrwt>
<pdfrwt beam="2">  1       -2 0.54714439E-01 0.10612944E+04</pdfrwt>
<totfact> 0.10924204E+02</totfact>
</mgrwt>
</event>
<event>
 6    1  0.1614874E-005  0.1682975E+04  0.7818608E-02  0.8771134E-01
         -2   -1    0    0    0  501 -0.00000000000E+00  0.00000000000E+00  0.42607636258E+03  0.42607636258E+03  0.00000000000E+00 0.  1.
          2   -1    0    0  501    0  0.00000000000E+00 -0.00000000000E+00 -0.16619123512E+04  0.16619123512E+04  0.00000000000E+00 0. -1.
         23    2    1    2    0    0  0.16195564348E+03  0.42268281093E+03  0.25693861432E+03  0.52809563915E+03  0.89314967693E+02 0.  0.
         11    1    3    3    0    0  0.13761978157E+03  0.28814863623E+03  0.21548935357E+03  0.38523304939E+03  0.00000000000E+00 0. -1.
        -11    1    3    3    0    0  0.24335861906E+02  0.13453417470E+03  0.41449260749E+02  0.14286258976E+03  0.00000000000E+00 0.  1.
         22    1    1    2    0    0 -0.16195564348E+03 -0.42268281093E+03 -0.14927746030E+04  0.15598930747E+04  0.00000000000E+00 0. -1.
<mgrwt>
<rscale>  0 0.16829754E+04</rscale>
<asrwt>0</asrwt>
<pdfrwt beam="1">  1        2 0.25567882E+00 0.16829754E+04</pdfrwt>
<pdfrwt beam="2">  1       -2 0.65550210E-01 0.16829754E+04</pdfrwt>
<totfact> 0.21033508E+01</totfact>
</mgrwt>
</event>
<event>
 6    1  0.1614874E-005  0.7442041E+03  0.7818608E-02  0.9644487E-01
          4   -1    0    0  501    0  0.00000000000E+00  0.00000000000E+00  0.93587041675E+03  0.93587041675E+03  0.00000000000E+00 0. -1.
         -4   -1    0    0    0  501 -0.00000000000E+00 -0.00000000000E+00 -0.14794775518E+03  0.14794775518E+03  0.00000000000E+00 0.  1.
         23    2    1    2    0    0 -0.11390266486E+03  0.16618897325E+03 -0.46010397561E+02  0.22589221999E+03  0.91201680226E+02 0.  0.
         11    1    3    3    0    0 -0.10761147297E+03  0.78679064781E+02 -0.24186250381E+02  0.13548283676E+03  0.00000000000E+00 0. -1.
        -11    1    3    3    0    0 -0.62911918939E+01  0.87509908474E+02 -0.21824147180E+02  0.90409383234E+02  0.00000000000E+00 0.  1.
         22    1    1    2    0    0  0.11390266486E+03 -0.16618897325E+03  0.83393305913E+03  0.85792595193E+03  0.00000000000E+00 0. -1.
<mgrwt>
<rscale>  0 0.74420408E+03</rscale>
<asrwt>0</asrwt>
<pdfrwt beam="1">  1        4 0.14398006E+00 0.74420408E+03</pdfrwt>
<pdfrwt beam="2">  1       -4 0.22761194E-01 0.74420408E+03</pdfrwt>
<totfact> 0.12034447E+01</totfact>
</mgrwt>
</event>
<event>
 6    1  0.1614874E-005  0.4049621E+04  0.7818608E-02  0.7994610E-01
         -2   -1    0    0    0  501 -0.00000000000E+00  0.00000000000E+00  0.20130915408E+04  0.20130915408E+04  0.00000000000E+00 0.  1.
          2   -1    0    0  501    0  0.00000000000E+00 -0.00000000000E+00 -0.20365981084E+04  0.20365981084E+04  0.00000000000E+00 0. -1.
         23    2    1    2    0    0  0.96344863855E+03  0.46399881807E+03  0.17064720577E+04  0.20158867516E+04  0.90688088433E+02 0.  0.
         13    1    3    3    0    0  0.61684502669E+03  0.25867448828E+03  0.11152864170E+04  0.13004899345E+04  0.00000000000E+00 0.  1.
        -13    1    3    3    0    0  0.34660361187E+03  0.20532432979E+03  0.59118564065E+03  0.71539681707E+03  0.00000000000E+00 0. -1.
         22    1    1    2    0    0 -0.96344863855E+03 -0.46399881807E+03 -0.17299786253E+04  0.20338028976E+04  0.00000000000E+00 0. -1.
<mgrwt>
<rscale>  0 0.40496214E+04</rscale>
<asrwt>0</asrwt>
<pdfrwt beam="1">  1        2 0.31332279E+00 0.40496214E+04</pdfrwt>
<pdfrwt beam="2">  1       -2 0.30970639E+00 0.40496214E+04</pdfrwt>
<totfact> 0.13879762E-01</totfact>
</mgrwt>
</event>
<event>
 6    1  0.1614874E-005  0.3088600E+03  0.7818608E-02  0.1080894E+00
         -1   -1    0    0    0  501 -0.00000000000E+00  0.00000000000E+00  0.19759734195E+03  0.19759734195E+03  0.00000000000E+00 0.  1.
          1   -1    0    0  501    0  0.00000000000E+00 -0.00000000000E+00 -0.12069302123E+03  0.12069302123E+03  0.00000000000E+00 0. -1.
         23    2    1    2    0    0  0.10726855146E+03  0.49712947758E+02  0.12329297126E+03  0.19128711044E+03  0.86091129349E+02 0.  0.
         13    1    3    3    0    0  0.88805276709E+02  0.37957323181E+01  0.47540830653E+02  0.10080136574E+03  0.00000000000E+00 0. -1.
        -13    1    3    3    0    0  0.18463274748E+02  0.45917215440E+02  0.75752140610E+02  0.90485744707E+02  0.00000000000E+00 0.  1.
         22    1    1    2    0    0 -0.10726855146E+03 -0.49712947758E+02 -0.46388650539E+02  0.12700325273E+03  0.00000000000E+00 0. -1.
<mgrwt>
<rscale>  0 0.30885997E+03</rscale>
<asrwt>0</asrwt>
<pdfrwt beam="1">  1        1 0.18568157E-01 0.30885997E+03</pdfrwt>
<pdfrwt beam="2">  1       -1 0.30399591E-01 0.30885997E+03</pdfrwt>
<totfact> 0.28097537E+03</totfact>
</mgrwt>
</event>
<event>
 6    1  0.1614874E-005  0.5685002E+03  0.7818608E-02  0.9973003E-01
         -2   -1    0    0    0  501 -0.00000000000E+00  0.00000000000E+00  0.53341409961E+02  0.53341409961E+02  0.00000000000E+00 0.  1.
          2   -1    0    0  501    0  0.00000000000E+00 -0.00000000000E+00 -0.15147354618E+04  0.15147354618E+04  0.00000000000E+00 0. -1.
         23    2    1    2    0    0 -0.56929317704E+02 -0.16087242960E+03 -0.13510225386E+04  0.13648460750E+04  0.91771579934E+02 0.  0.
         13    1    3    3    0    0 -0.33084254379E+02 -0.16194284369E+03 -0.12579101058E+04  0.12687229354E+04  0.00000000000E+00 0. -1.
        -13    1    3    3    0    0 -0.23845063324E+02  0.10704140840E+01 -0.93112432776E+02  0.96123139611E+02  0.00000000000E+00 0.  1.
         22    1    1    2    0    0  0.56929317704E+02  0.16087242960E+03 -0.11037151331E+03  0.20323079681E+03  0.00000000000E+00 0.  1.
<mgrwt>
<rscale>  0 0.56850022E+03</rscale>
<asrwt>0</asrwt>
<pdfrwt beam="1">  1        2 0.23303622E+00 0.56850022E+03</pdfrwt>
<pdfrwt beam="2">  1       -2 0.82063710E-02 0.56850022E+03</pdfrwt>
<totfact> 0.11995521E+03</totfact>
</mgrwt>
</event>
<event>
 6    1  0.1614874E-005  0.1342625E+04  0.7818608E-02  0.8996430E-01
          2   -1    0    0  501    0  0.00000000000E+00  0.00000000000E+00  0.11855330750E+04  0.11855330750E+04  0.00000000000E+00 0. -1.
         -2   -1    0    0    0  501 -0.00000000000E+00 -0.00000000000E+00 -0.38013292862E+03  0.38013292862E+03  0.00000000000E+00 0.  1.
         23    2    1    2    0    0 -0.24344367700E+03 -0.30197077452E+03  0.10391210746E+04  0.11128121146E+04  0.90149997647E+02 0.  0.
         11    1    3    3    0    0 -0.17622335103E+03 -0.14770597655E+03  0.59697799555E+03  0.63972998377E+03  0.00000000000E+00 0.  1.
        -11    1    3    3    0    0 -0.67220325970E+02 -0.15426479797E+03  0.44214307908E+03  0.47308213082E+03  0.00000000000E+00 0. -1.
         22    1    1    2    0    0  0.24344367700E+03  0.30197077452E+03 -0.23372092824E+03  0.45285388906E+03  0.00000000000E+00 0.  1.
<mgrwt>
<rscale>  0 0.13426245E+04</rscale>
<asrwt>0</asrwt>
<pdfrwt beam="1">  1        2 0.18238970E+00 0.13426245E+04</pdfrwt>
<pdfrwt beam="2">  1       -2 0.58481990E-01 0.13426245E+04</pdfrwt>
<totfact> 0.51626609E+01</totfact>
</mgrwt>
</event>
<event>
 6    1  0.1614874E-005  0.1679953E+04  0.7818608E-02  0.8772881E-01
         -1   -1    0    0    0  501 -0.00000000000E+00  0.00000000000E+00  0.10103149005E+04  0.10103149005E+04  0.00000000000E+00 0.  1.
          1   -1    0    0  501    0  0.00000000000E+00 -0.00000000000E+00 -0.69835710445E+03  0.69835710445E+03  0.00000000000E+00 0. -1.
         23    2    1    2    0    0  0.12110731361E+03  0.82856020990E+03  0.17219078460E+03  0.85972334908E+03  0.91080007741E+02 0.  0.
         11    1    3    3    0    0  0.26744245461E+02  0.11375737667E+03 -0.60451041910E+01  0.11701512166E+03  0.00000000000E+00 0. -1.
        -11    1    3    3    0    0  0.94363068151E+02  0.71480283323E+03  0.17823588879E+03  0.74270822742E+03  0.00000000000E+00 0.  1.
         22    1    1    2    0    0 -0.12110731361E+03 -0.82856020990E+03  0.13976701147E+03  0.84894865589E+03  0.00000000000E+00 0. -1.
<mgrwt>
<rscale>  0 0.16799531E+04</rscale>
<asrwt>0</asrwt>
<pdfrwt beam="1">  1        1 0.10743955E+00 0.16799531E+04</pdfrwt>
<pdfrwt beam="2">  1       -1 0.15543306E+00 0.16799531E+04</pdfrwt>
<totfact> 0.82539043E+00</totfact>
</mgrwt>
</event>
<event>
 6    1  0.1614874E-005  0.1961147E+04  0.7818608E-02  0.8625004E-01
         -2   -1    0    0    0  501 -0.00000000000E+00  0.00000000000E+00  0.53798123124E+03  0.53798123124E+03  0.00000000000E+00 0.  1.
          2   -1    0    0  501    0  0.00000000000E+00 -0.00000000000E+00 -0.17872817426E+04  0.17872817426E+04  0.00000000000E+00 0. -1.
         23    2    1    2    0    0  0.17347150027E+03  0.39357661210E+03  0.41612562074E+03  0.60519346580E+03  0.90020485496E+02 0.  0.
         13    1    3    3    0    0  0.63709030808E+02  0.22381489615E+03  0.26579297210E+03  0.35326739499E+03  0.00000000000E+00 0. -1.
        -13    1    3    3    0    0  0.10976246947E+03  0.16976171595E+03  0.15033264864E+03  0.25192607081E+03  0.00000000000E+00 0.  1.
         22    1    1    2    0    0 -0.17347150027E+03 -0.39357661210E+03 -0.16654261321E+04  0.17200695081E+04  0.00000000000E+00 0. -1.
<mgrwt>
<rscale>  0 0.19611466E+04</rscale>
<asrwt>0</asrwt>
<pdfrwt beam="1">  1        2 0.27496642E+00 0.19611466E+04</pdfrwt>
<pdfrwt beam="2">  1       -2 0.82766343E-01 0.19611466E+04</pdfrwt>
<totfact> 0.10462397E+01</totfact>
</mgrwt>
</event>
<event>
 6    1  0.1614874E-005  0.6768119E+04  0.7818608E-02  0.7601834E-01
          1   -1    0    0  501    0  0.00000000000E+00  0.00000000000E+00  0.26244703890E+04  0.26244703890E+04  0.00000000000E+00 0. -1.
         -1   -1    0    0    0  501 -0.00000000000E+00 -0.00000000000E+00 -0.43634931835E+04  0.43634931835E+04  0.00000000000E+00 0.  1.
         23    2    1    2    0    0 -0.35143712638E+03 -0.21118399760E+04  0.18354453175E+04  0.28214064300E+04  0.89992174274E+02 0.  0.
         13    1    3    3    0    0 -0.33540177021E+03 -0.18628518731E+04  0.16025448428E+04  0.24800930268E+04  0.00000000000E+00 0. -1.
        -13    1    3    3    0    0 -0.16035356168E+02 -0.24898810292E+03  0.23290047474E+03  0.34131340316E+03  0.00000000000E+00 0.  1.
         22    1    1    2    0    0  0.35143712638E+03  0.21118399760E+04 -0.35744681120E+04  0.41665571425E+04  0.00000000000E+00 0.  1.
<mgrwt>
<rscale>  0 0.67681190E+04</rscale>
<asrwt>0</asrwt>
<pdfrwt beam="1">  1        1 0.40376468E+00 0.67681190E+04</pdfrwt>
<pdfrwt beam="2">  1       -1 0.67130664E+00 0.67681190E+04</pdfrwt>
<totfact> 0.17931066E-04</totfact>
</mgrwt>
</event>
<event>
 6    1  0.1614874E-005  0.1654887E+04  0.7818608E-02  0.8787521E-01
         -2   -1    0    0    0  501 -0.00000000000E+00  0.00000000000E+00  0.69492729835E+03  0.69492729835E+03  0.00000000000E+00 0.  1.
          2   -1    0    0  501    0  0.00000000000E+00 -0.00000000000E+00 -0.98522937916E+03  0.98522937916E+03  0.00000000000E+00 0. -1.
         23    2    1    2    0    0  0.11602952832E+03 -0.41370971060E+03 -0.86060067882E+03  0.96611251434E+03  0.90118177371E+02 0.  0.
         13    1    3    3    0    0 -0.12675422259E+01 -0.14477290494E+03 -0.25680992665E+03  0.29480864827E+03  0.00000000000E+00 0.  1.
        -13    1    3    3    0    0  0.11729707054E+03 -0.26893680566E+03 -0.60379075216E+03  0.67130386607E+03  0.00000000000E+00 0. -1.
         22    1    1    2    0    0 -0.11602952832E+03  0.41370971060E+03  0.57029859801E+03  0.71404416318E+03  0.00000000000E+00 0.  1.
<mgrwt>
<rscale>  0 0.16548871E+04</rscale>
<asrwt>0</asrwt>
<pdfrwt beam="1">  1        2 0.15157375E+00 0.16548871E+04</pdfrwt>
<pdfrwt beam="2">  1       -2 0.10691189E+00 0.16548871E+04</pdfrwt>
<totfact> 0.17307579E+01</totfact>
</mgrwt>
</event>
<event>
 6    1  0.1614874E-005  0.2428826E+04  0.7818608E-02  0.8428790E-01
         -1   -1    0    0    0  501 -0.00000000000E+00  0.00000000000E+00  0.12036014341E+04  0.12036014341E+04  0.00000000000E+00 0.  1.
          1   -1    0    0  501    0  0.00000000000E+00 -0.00000000000E+00 -0.12253215642E+04  0.12253215642E+04  0.00000000000E+00 0. -1.
         23    2    1    2    0    0 -0.52381082317E+03  0.10906638996E+04  0.71758517708E+02  0.12153894067E+04  0.89981135855E+02 0.  0.
         13    1    3    3    0    0 -0.19969314846E+03  0.45660246970E+03 -0.11107833378E+02  0.49848425536E+03  0.00000000000E+00 0.  1.
        -13    1    3    3    0    0 -0.32411767471E+03  0.63406142990E+03  0.82866351086E+02  0.71690515139E+03  0.00000000000E+00 0. -1.
         22    1    1    2    0    0  0.52381082317E+03 -0.10906638996E+04 -0.93478647838E+02  0.12135335916E+04  0.00000000000E+00 0.  1.
<mgrwt>
<rscale>  0 0.24288259E+04</rscale>
<asrwt>0</asrwt>
<pdfrwt beam="1">  1        1 0.18851101E+00 0.24288259E+04</pdfrwt>
<pdfrwt beam="2">  1       -1 0.18516945E+00 0.24288259E+04</pdfrwt>
<totfact> 0.17497557E+00</totfact>
</mgrwt>
</event>
<event>
 6    1  0.1614874E-005  0.1927365E+04  0.7818608E-02  0.8641354E-01
         -1   -1    0    0    0  501 -0.00000000000E+00  0.00000000000E+00  0.80353318400E+03  0.80353318400E+03  0.00000000000E+00 0.  1.
          1   -1    0    0  501    0  0.00000000000E+00 -0.00000000000E+00 -0.11557505877E+04  0.11557505877E+04  0.00000000000E+00 0. -1.
         23    2    1    2    0    0  0.81828645389E+03  0.43031745661E+03 -0.44480565230E+03  0.10301237112E+04  0.92395660527E+02 0.  0.
         13    1    3    3    0    0  0.37646398820E+03  0.22814070469E+03 -0.16978139374E+03  0.47180402416E+03  0.00000000000E+00 0. -1.
        -13    1    3    3    0    0  0.44182246568E+03  0.20217675192E+03 -0.27502425855E+03  0.55831968709E+03  0.00000000000E+00 0.  1.
         22    1    1    2    0    0 -0.81828645389E+03 -0.43031745661E+03  0.92588248642E+02  0.92916006041E+03  0.00000000000E+00 0. -1.
<mgrwt>
<rscale>  0 0.19273650E+04</rscale>
<asrwt>0</asrwt>
<pdfrwt beam="1">  1        1 0.17780778E+00 0.19273650E+04</pdfrwt>
<pdfrwt beam="2">  1       -1 0.12362049E+00 0.19273650E+04</pdfrwt>
<totfact> 0.61861564E+00</totfact>
</mgrwt>
</event>
<event>
 6    1  0.1614874E-005  0.1176467E+04  0.7818608E-02  0.9133708E-01
          2   -1    0    0  501    0  0.00000000000E+00  0.00000000000E+00  0.96071014754E+03  0.96071014754E+03  0.00000000000E+00 0. -1.
         -2   -1    0    0    0  501 -0.00000000000E+00 -0.00000000000E+00 -0.36016986673E+03  0.36016986673E+03  0.00000000000E+00 0.  1.
         23    2    1    2    0    0 -0.34924766559E+03 -0.39642894257E+03  0.21077954343E+02  0.53672031994E+03  0.92166063406E+02 0.  0.
         13    1    3    3    0    0 -0.14361518740E+03 -0.20184262136E+03 -0.28330902954E+02  0.24933592984E+03  0.00000000000E+00 0.  1.
        -13    1    3    3    0    0 -0.20563247818E+03 -0.19458632122E+03  0.49408857297E+02  0.28738439009E+03  0.00000000000E+00 0. -1.
         22    1    1    2    0    0  0.34924766559E+03  0.39642894257E+03  0.57946232647E+03  0.78415969434E+03  0.00000000000E+00 0.  1.
<mgrwt>
<rscale>  0 0.11764673E+04</rscale>
<asrwt>0</asrwt>
<pdfrwt beam="1">  1        2 0.14780156E+00 0.11764673E+04</pdfrwt>
<pdfrwt beam="2">  1       -2 0.55410749E-01 0.11764673E+04</pdfrwt>
<totfact> 0.80813975E+01</totfact>
</mgrwt>
</event>
<event>
 6    1  0.1614874E-005  0.3747506E+04  0.7818608E-02  0.8057515E-01
          1   -1    0    0  501    0  0.00000000000E+00  0.00000000000E+00  0.22066568049E+04  0.22066568049E+04  0.00000000000E+00 0. -1.
         -1   -1    0    0    0  501 -0.00000000000E+00 -0.00000000000E+00 -0.15910720259E+04  0.15910720259E+04  0.00000000000E+00 0.  1.
         23    2    1    2    0    0 -0.12169487170E+04 -0.29253953199E+03 -0.11035239979E+04  0.16712579176E+04  0.93777693857E+02 0.  0.
         13    1    3    3    0    0 -0.61929829389E+03 -0.13106538020E+03 -0.61589199531E+03  0.88319389750E+03  0.00000000000E+00 0.  1.
        -13    1    3    3    0    0 -0.59765042306E+03 -0.16147415179E+03 -0.48763200259E+03  0.78806402013E+03  0.00000000000E+00 0. -1.
         22    1    1    2    0    0  0.12169487170E+04  0.29253953199E+03  0.17191087769E+04  0.21264709131E+04  0.00000000000E+00 0. -1.
<mgrwt>
<rscale>  0 0.37475058E+04</rscale>
<asrwt>0</asrwt>
<pdfrwt beam="1">  1        1 0.33948566E+00 0.37475058E+04</pdfrwt>
<pdfrwt beam="2">  1       -1 0.24478031E+00 0.37475058E+04</pdfrwt>
<totfact> 0.12995635E-01</totfact>
</mgrwt>
</event>
<event>
 6    1  0.1614874E-005  0.2955745E+04  0.7818608E-02  0.8256482E-01
          2   -1    0    0  501    0  0.00000000000E+00  0.00000000000E+00  0.10387855909E+04  0.10387855909E+04  0.00000000000E+00 0.  1.
         -2   -1    0    0    0  501 -0.00000000000E+00 -0.00000000000E+00 -0.21025579106E+04  0.21025579106E+04  0.00000000000E+00 0. -1.
         23    2    1    2    0    0  0.48998285147E+03  0.22260256988E+03 -0.19936295177E+04  0.20669741481E+04  0.90489648105E+02 0.  0.
         13    1    3    3    0    0  0.26318342910E+03  0.72008076427E+02 -0.10476463721E+04  0.10825957701E+04  0.00000000000E+00 0. -1.
        -13    1    3    3    0    0  0.22679942238E+03  0.15059449345E+03 -0.94598314558E+03  0.98437837805E+03  0.00000000000E+00 0.  1.
         22    1    1    2    0    0 -0.48998285147E+03 -0.22260256988E+03  0.92985719801E+03  0.10743693534E+04  0.00000000000E+00 0.  1.
<mgrwt>
<rscale>  0 0.29557448E+04</rscale>
<asrwt>0</asrwt>
<pdfrwt beam="1">  1        2 0.15981317E+00 0.29557448E+04</pdfrwt>
<pdfrwt beam="2">  1       -2 0.32347045E+00 0.29557448E+04</pdfrwt>
<totfact> 0.46578525E-01</totfact>
</mgrwt>
</event>
<event>
 6    1  0.1614874E-005  0.4062999E+04  0.7818608E-02  0.7991957E-01
         -2   -1    0    0    0  501 -0.00000000000E+00  0.00000000000E+00  0.13084421110E+04  0.13084421110E+04  0.00000000000E+00 0.  1.
          2   -1    0    0  501    0  0.00000000000E+00 -0.00000000000E+00 -0.31541252460E+04  0.31541252460E+04  0.00000000000E+00 0. -1.
         23    2    1    2    0    0  0.10260566022E+04  0.17215329109E+04 -0.56450931641E+03  0.20839387463E+04  0.87534081514E+02 0.  0.
         11    1    3    3    0    0  0.25563440472E+03  0.48408252755E+03 -0.18216654782E+03  0.57694843227E+03  0.00000000000E+00 0.  1.
        -11    1    3    3    0    0  0.77042219750E+03  0.12374503834E+04 -0.38234276859E+03  0.15069903140E+04  0.00000000000E+00 0. -1.
         22    1    1    2    0    0 -0.10260566022E+04 -0.17215329109E+04 -0.12811738185E+04  0.23786286107E+04  0.00000000000E+00 0. -1.
<mgrwt>
<rscale>  0 0.40629990E+04</rscale>
<asrwt>0</asrwt>
<pdfrwt beam="1">  1        2 0.48525004E+00 0.40629990E+04</pdfrwt>
<pdfrwt beam="2">  1       -2 0.20129879E+00 0.40629990E+04</pdfrwt>
<totfact> 0.14204334E-01</totfact>
</mgrwt>
</event>
<event>
 6    1  0.1614874E-005  0.1244241E+04  0.7818608E-02  0.9074990E-01
          2   -1    0    0  501    0  0.00000000000E+00  0.00000000000E+00  0.32592388061E+03  0.32592388061E+03  0.00000000000E+00 0.  1.
         -2   -1    0    0    0  501 -0.00000000000E+00 -0.00000000000E+00 -0.11874979104E+04  0.11874979104E+04  0.00000000000E+00 0. -1.
         23    2    1    2    0    0 -0.24744675632E+03 -0.23250328774E+03 -0.10622859483E+04  0.11189944210E+04  0.91702793139E+02 0.  0.
         11    1    3    3    0    0 -0.23346080028E+03 -0.19544780110E+03 -0.84622921795E+03  0.89933735469E+03  0.00000000000E+00 0. -1.
        -11    1    3    3    0    0 -0.13985956047E+02 -0.37055486638E+02 -0.21605673033E+03  0.21965706631E+03  0.00000000000E+00 0.  1.
         22    1    1    2    0    0  0.24744675632E+03  0.23250328774E+03  0.20071191846E+03  0.39442737004E+03  0.00000000000E+00 0.  1.
<mgrwt>
<rscale>  0 0.12442410E+04</rscale>
<asrwt>0</asrwt>
<pdfrwt beam="1">  1        2 0.50142134E-01 0.12442410E+04</pdfrwt>
<pdfrwt beam="2">  1       -2 0.18269199E+00 0.12442410E+04</pdfrwt>
<totfact> 0.17090196E+01</totfact>
</mgrwt>
</event>
<event>
 6    1  0.1614874E-005  0.3283323E+03  0.7818608E-02  0.1071877E+00
          2   -1    0    0  501    0  0.00000000000E+00  0.00000000000E+00  0.48067035138E+03  0.48067035138E+03  0.00000000000E+00 0.  1.
         -2   -1    0    0    0  501 -0.00000000000E+00 -0.00000000000E+00 -0.56068627023E+02  0.56068627023E+02  0.00000000000E+00 0. -1.
         23    2    1    2    0    0 -0.15031151517E+03 -0.17055512603E+01  0.19729140745E+03  0.26422028057E+03  0.91060401453E+02 0.  0.
         13    1    3    3    0    0 -0.96861025427E+02  0.40426931826E+02  0.96346271390E+02  0.14247455588E+03  0.00000000000E+00 0. -1.
        -13    1    3    3    0    0 -0.53450489743E+02 -0.42132483087E+02  0.10094513606E+03  0.12174572469E+03  0.00000000000E+00 0.  1.
         22    1    1    2    0    0  0.15031151517E+03  0.17055512603E+01  0.22731031691E+03  0.27251869783E+03  0.00000000000E+00 0. -1.
<mgrwt>
<rscale>  0 0.32833231E+03</rscale>
<asrwt>0</asrwt>
<pdfrwt beam="1">  1        2 0.73949282E-01 0.32833231E+03</pdfrwt>
<pdfrwt beam="2">  1       -2 0.86259430E-02 0.32833231E+03</pdfrwt>
<totfact> 0.54743801E+03</totfact>
</mgrwt>
</event>
<event>
 6    1  0.1614874E-005  0.1493406E+04  0.7818608E-02  0.8888849E-01
          1   -1    0    0  501    0  0.00000000000E+00  0.00000000000E+00  0.12792009254E+04  0.12792009254E+04  0.00000000000E+00 0. -1.
         -1   -1    0    0    0  501 -0.00000000000E+00 -0.00000000000E+00 -0.43587032485E+03  0.43587032485E+03  0.00000000000E+00 0.  1.
         23    2    1    2    0    0  0.45748718991E+03 -0.12771205799E+03  0.10808248055E+04  0.11840266231E+04  0.90176966899E+02 0.  0.
         11    1    3    3    0    0  0.16326666653E+03 -0.12367283369E+02  0.30204841864E+03  0.34357270163E+03  0.00000000000E+00 0.  1.
        -11    1    3    3    0    0  0.29422052338E+03 -0.11534477462E+03  0.77877638686E+03  0.84045392149E+03  0.00000000000E+00 0. -1.
         22    1    1    2    0    0 -0.45748718991E+03  0.12771205799E+03 -0.23749420491E+03  0.53104462718E+03  0.00000000000E+00 0.  1.
<mgrwt>
<rscale>  0 0.14934065E+04</rscale>
<asrwt>0</asrwt>
<pdfrwt beam="1">  1        1 0.19680014E+00 0.14934065E+04</pdfrwt>
<pdfrwt beam="2">  1       -1 0.67056974E-01 0.14934065E+04</pdfrwt>
<totfact> 0.20412257E+01</totfact>
</mgrwt>
</event>
<event>
 6    1  0.1614874E-005  0.1431444E+04  0.7818608E-02  0.8931367E-01
          2   -1    0    0  501    0  0.00000000000E+00  0.00000000000E+00  0.11545265945E+04  0.11545265945E+04  0.00000000000E+00 0. -1.
         -2   -1    0    0    0  501 -0.00000000000E+00 -0.00000000000E+00 -0.44369551889E+03  0.44369551889E+03  0.00000000000E+00 0.  1.
         23    2    1    2    0    0 -0.51984201058E+03 -0.31492289345E+03  0.77264816343E+03  0.98729372389E+03  0.91386913672E+02 0.  0.
         13    1    3    3    0    0 -0.29571723285E+03 -0.16102359599E+03  0.49528853084E+03  0.59890567625E+03  0.00000000000E+00 0.  1.
        -13    1    3    3    0    0 -0.22412477774E+03 -0.15389929746E+03  0.27735963259E+03  0.38838804763E+03  0.00000000000E+00 0. -1.
         22    1    1    2    0    0  0.51984201058E+03  0.31492289345E+03 -0.61817087797E+02  0.61092838953E+03  0.00000000000E+00 0.  1.
<mgrwt>
<rscale>  0 0.14314444E+04</rscale>
<asrwt>0</asrwt>
<pdfrwt beam="1">  1        2 0.17761947E+00 0.14314444E+04</pdfrwt>
<pdfrwt beam="2">  1       -2 0.68260850E-01 0.14314444E+04</pdfrwt>
<totfact> 0.38476436E+01</totfact>
</mgrwt>
</event>
<event>
 6    1  0.1614874E-005  0.4837365E+04  0.7818608E-02  0.7854097E-01
         -2   -1    0    0    0  501 -0.00000000000E+00  0.00000000000E+00  0.26090831680E+04  0.26090831680E+04  0.00000000000E+00 0.  1.
          2   -1    0    0  501    0  0.00000000000E+00 -0.00000000000E+00 -0.22421769781E+04  0.22421769781E+04  0.00000000000E+00 0. -1.
         23    2    1    2    0    0  0.24170818917E+04  0.45667756408E+01  0.12507031284E+03  0.24221059068E+04  0.92998461448E+02 0.  0.
         11    1    3    3    0    0  0.62019593196E+03 -0.26448690992E+02  0.61965159921E+02  0.62384469888E+03  0.00000000000E+00 0.  1.
        -11    1    3    3    0    0  0.17968859598E+04  0.31015466632E+02  0.63105152917E+02  0.17982612079E+04  0.00000000000E+00 0. -1.
         22    1    1    2    0    0 -0.24170818917E+04 -0.45667756408E+01  0.24183587708E+03  0.24291542393E+04  0.00000000000E+00 0. -1.
<mgrwt>
<rscale>  0 0.48373655E+04</rscale>
<asrwt>0</asrwt>
<pdfrwt beam="1">  1        2 0.34495030E+00 0.48373655E+04</pdfrwt>
<pdfrwt beam="2">  1       -2 0.40139741E+00 0.48373655E+04</pdfrwt>
<totfact> 0.26216675E-02</totfact>
</mgrwt>
</event>
<event>
 6    1  0.1614874E-005  0.4840711E+04  0.7818608E-02  0.7853560E-01
         -2   -1    0    0    0  501 -0.00000000000E+00  0.00000000000E+00  0.21723552396E+04  0.21723552396E+04  0.00000000000E+00 0.  1.
          2   -1    0    0  501    0  0.00000000000E+00 -0.00000000000E+00 -0.26966674480E+04  0.26966674480E+04  0.00000000000E+00 0. -1.
         23    2    1    2    0    0 -0.71238383600E+03  0.21798336424E+04  0.51361974102E+03  0.23517884573E+04  0.89096976315E+02 0.  0.
         11    1    3    3    0    0 -0.66660640448E+03  0.19536493462E+04  0.46121974527E+03  0.21151438532E+04  0.00000000000E+00 0. -1.
        -11    1    3    3    0    0 -0.45777431522E+02  0.22618429619E+03  0.52399995752E+02  0.23664460406E+03  0.00000000000E+00 0.  1.
         22    1    1    2    0    0  0.71238383600E+03 -0.21798336424E+04 -0.10379319495E+04  0.25172342303E+04  0.00000000000E+00 0. -1.
<mgrwt>
<rscale>  0 0.48407106E+04</rscale>
<asrwt>0</asrwt>
<pdfrwt beam="1">  1        2 0.41487191E+00 0.48407106E+04</pdfrwt>
<pdfrwt beam="2">  1       -2 0.33420850E+00 0.48407106E+04</pdfrwt>
<totfact> 0.38435197E-02</totfact>
</mgrwt>
</event>
<event>
 6    1  0.1614874E-005  0.2407138E+04  0.7818608E-02  0.8436836E-01
          2   -1    0    0  501    0  0.00000000000E+00  0.00000000000E+00  0.34331608517E+04  0.34331608517E+04  0.00000000000E+00 0. -1.
         -2   -1    0    0    0  501 -0.00000000000E+00 -0.00000000000E+00 -0.42193725005E+03  0.42193725005E+03  0.00000000000E+00 0.  1.
         23    2    1    2    0    0  0.74999090769E+03 -0.92389750781E+03  0.12383522855E+04  0.17198824990E+04  0.91686753977E+02 0.  0.
         13    1    3    3    0    0  0.50167246298E+03 -0.68262628476E+03  0.89109363918E+03  0.12295128216E+04  0.00000000000E+00 0.  1.
        -13    1    3    3    0    0  0.24831844471E+03 -0.24127122304E+03  0.34725864628E+03  0.49036967736E+03  0.00000000000E+00 0. -1.
         22    1    1    2    0    0 -0.74999090769E+03  0.92389750781E+03  0.17728713162E+04  0.21352156028E+04  0.00000000000E+00 0. -1.
<mgrwt>
<rscale>  0 0.24071381E+04</rscale>
<asrwt>0</asrwt>
<pdfrwt beam="1">  1        2 0.52817857E+00 0.24071381E+04</pdfrwt>
<pdfrwt beam="2">  1       -2 0.64913425E-01 0.24071381E+04</pdfrwt>
<totfact> 0.17831344E+00</totfact>
</mgrwt>
</event>
<event>
 6    1  0.1614874E-005  0.5845935E+03  0.7818608E-02  0.9937895E-01
         -4   -1    0    0    0  501 -0.00000000000E+00  0.00000000000E+00  0.32237600616E+03  0.32237600616E+03  0.00000000000E+00 0.  1.
          4   -1    0    0  501    0  0.00000000000E+00 -0.00000000000E+00 -0.26502404199E+03  0.26502404199E+03  0.00000000000E+00 0. -1.
         23    2    1    2    0    0 -0.56440326588E+02  0.88407572998E+02 -0.23712345902E+03  0.27480256850E+03  0.91035747962E+02 0.  0.
         11    1    3    3    0    0 -0.43060410948E+02  0.23981690106E+01 -0.12886757020E+03  0.13589260780E+03  0.00000000000E+00 0.  1.
        -11    1    3    3    0    0 -0.13379915639E+02  0.86009403987E+02 -0.10825588882E+03  0.13890996070E+03  0.00000000000E+00 0. -1.
         22    1    1    2    0    0  0.56440326588E+02 -0.88407572998E+02  0.29447542318E+03  0.31259747966E+03  0.00000000000E+00 0.  1.
<mgrwt>
<rscale>  0 0.58459351E+03</rscale>
<asrwt>0</asrwt>
<pdfrwt beam="1">  1        4 0.40772930E-01 0.58459351E+03</pdfrwt>
<pdfrwt beam="2">  1       -4 0.49596309E-01 0.58459351E+03</pdfrwt>
<totfact> 0.45301522E+01</totfact>
</mgrwt>
</event>
<event>
 6    1  0.1614874E-005  0.3211987E+04  0.7818608E-02  0.8185659E-01
         -1   -1    0    0    0  501 -0.00000000000E+00  0.00000000000E+00  0.61981987627E+03  0.61981987627E+03  0.00000000000E+00 0.  1.
          1   -1    0    0  501    0  0.00000000000E+00 -0.00000000000E+00 -0.41612327255E+04  0.41612327255E+04  0.00000000000E+00 0. -1.
         23    2    1    2    0    0 -0.58372489856E+03  0.14796041611E+04 -0.14564617984E+04  0.21586521528E+04  0.92384607640E+02 0.  0.
         11    1    3    3    0    0 -0.34248030571E+03  0.83610998095E+03 -0.88687010663E+03  0.12660613121E+04  0.00000000000E+00 0. -1.
        -11    1    3    3    0    0 -0.24124459285E+03  0.64349418014E+03 -0.56959169182E+03  0.89259084066E+03  0.00000000000E+00 0.  1.
         22    1    1    2    0    0  0.58372489856E+03 -0.14796041611E+04 -0.20849510508E+04  0.26224004490E+04  0.00000000000E+00 0.  1.
<mgrwt>
<rscale>  0 0.32119868E+04</rscale>
<asrwt>0</asrwt>
<pdfrwt beam="1">  1        1 0.64018965E+00 0.32119868E+04</pdfrwt>
<pdfrwt beam="2">  1       -1 0.95356904E-01 0.32119868E+04</pdfrwt>
<totfact> 0.60849775E-02</totfact>
</mgrwt>
</event>
<event>
 6    1  0.1614874E-005  0.3751790E+04  0.7818608E-02  0.8056580E-01
         -1   -1    0    0    0  501 -0.00000000000E+00  0.00000000000E+00  0.12650898737E+04  0.12650898737E+04  0.00000000000E+00 0.  1.
          1   -1    0    0  501    0  0.00000000000E+00 -0.00000000000E+00 -0.27816068246E+04  0.27816068246E+04  0.00000000000E+00 0. -1.
         23    2    1    2    0    0  0.18607803392E+04  0.22258567638E+03 -0.69810301493E+03  0.20017396757E+04  0.86983077647E+02 0.  0.
         11    1    3    3    0    0  0.16449749159E+04  0.17980938106E+03 -0.63968998634E+03  0.17741130646E+04  0.00000000000E+00 0. -1.
        -11    1    3    3    0    0  0.21580542327E+03  0.42776295317E+02 -0.58413028591E+02  0.22762661106E+03  0.00000000000E+00 0.  1.
         22    1    1    2    0    0 -0.18607803392E+04 -0.22258567638E+03 -0.81841393597E+03  0.20449570227E+04  0.00000000000E+00 0. -1.
<mgrwt>
<rscale>  0 0.37517903E+04</rscale>
<asrwt>0</asrwt>
<pdfrwt beam="1">  1        1 0.42793951E+00 0.37517903E+04</pdfrwt>
<pdfrwt beam="2">  1       -1 0.19462921E+00 0.37517903E+04</pdfrwt>
<totfact> 0.11249016E-01</totfact>
</mgrwt>
</event>
<event>
 6    1  0.1614874E-005  0.4819915E+04  0.7818608E-02  0.7856904E-01
         -2   -1    0    0    0  501 -0.00000000000E+00  0.00000000000E+00  0.22873662447E+04  0.22873662447E+04  0.00000000000E+00 0.  1.
          2   -1    0    0  501    0  0.00000000000E+00 -0.00000000000E+00 -0.25391187858E+04  0.25391187858E+04  0.00000000000E+00 0. -1.
         23    2    1    2    0    0  0.12026331853E+04 -0.15558304024E+04  0.12678031269E+04  0.23413322690E+04  0.87047146051E+02 0.  0.
         13    1    3    3    0    0  0.11017418178E+04 -0.14545260913E+04  0.11917083174E+04  0.21793691511E+04  0.00000000000E+00 0.  1.
        -13    1    3    3    0    0  0.10089136757E+03 -0.10130431112E+03  0.76094809555E+02  0.16196311785E+03  0.00000000000E+00 0. -1.
         22    1    1    2    0    0 -0.12026331853E+04  0.15558304024E+04 -0.15195556681E+04  0.24851527615E+04  0.00000000000E+00 0. -1.
<mgrwt>
<rscale>  0 0.48199148E+04</rscale>
<asrwt>0</asrwt>
<pdfrwt beam="1">  1        2 0.39063366E+00 0.48199148E+04</pdfrwt>
<pdfrwt beam="2">  1       -2 0.35190250E+00 0.48199148E+04</pdfrwt>
<totfact> 0.36922739E-02</totfact>
</mgrwt>
</event>
<event>
 6    1  0.1614874E-005  0.3263897E+04  0.7818608E-02  0.8172143E-01
          2   -1    0    0  501    0  0.00000000000E+00  0.00000000000E+00  0.17853922752E+04  0.17853922752E+04  0.00000000000E+00 0. -1.
         -2   -1    0    0    0  501 -0.00000000000E+00 -0.00000000000E+00 -0.14916922572E+04  0.14916922572E+04  0.00000000000E+00 0.  1.
         23    2    1    2    0    0  0.15329889354E+04 -0.52250241924E+03  0.33764835560E+03  0.16569008050E+04  0.90829574709E+02 0.  0.
         11    1    3    3    0    0  0.96787780386E+03 -0.28496767352E+03  0.19832756865E+03  0.10282644809E+04  0.00000000000E+00 0. -1.
        -11    1    3    3    0    0  0.56511113150E+03 -0.23753474572E+03  0.13932078696E+03  0.62863632416E+03  0.00000000000E+00 0.  1.
         22    1    1    2    0    0 -0.15329889354E+04  0.52250241924E+03 -0.43948337554E+02  0.16201837274E+04  0.00000000000E+00 0. -1.
<mgrwt>
<rscale>  0 0.32638970E+04</rscale>
<asrwt>0</asrwt>
<pdfrwt beam="1">  1        2 0.27467574E+00 0.32638970E+04</pdfrwt>
<pdfrwt beam="2">  1       -2 0.22949111E+00 0.32638970E+04</pdfrwt>
<totfact> 0.63432598E-01</totfact>
</mgrwt>
</event>
<event>
 6    1  0.1614874E-005  0.3108589E+04  0.7818608E-02  0.8213385E-01
          1   -1    0    0  501    0  0.00000000000E+00  0.00000000000E+00  0.13805007030E+04  0.13805007030E+04  0.00000000000E+00 0. -1.
         -1   -1    0    0    0  501 -0.00000000000E+00 -0.00000000000E+00 -0.17499675849E+04  0.17499675849E+04  0.00000000000E+00 0.  1.
         23    2    1    2    0    0 -0.11123160192E+04 -0.12690675967E+03  0.89899271032E+03  0.14386225534E+04  0.89970583166E+02 0.  0.
         13    1    3    3    0    0 -0.94058265354E+03 -0.92625368832E+02  0.71934675275E+03  0.11877436330E+04  0.00000000000E+00 0.  1.
        -13    1    3    3    0    0 -0.17173336566E+03 -0.34281390838E+02  0.17964595757E+03  0.25087892042E+03  0.00000000000E+00 0. -1.
         22    1    1    2    0    0  0.11123160192E+04  0.12690675967E+03 -0.12684595922E+04  0.16918457345E+04  0.00000000000E+00 0.  1.
<mgrwt>
<rscale>  0 0.31085891E+04</rscale>
<asrwt>0</asrwt>
<pdfrwt beam="1">  1        1 0.21238472E+00 0.31085891E+04</pdfrwt>
<pdfrwt beam="2">  1       -1 0.26922578E+00 0.31085891E+04</pdfrwt>
<totfact> 0.34947630E-01</totfact>
</mgrwt>
</event>
<event>
 6    1  0.1614874E-005  0.2790612E+04  0.7818608E-02  0.8306189E-01
         -2   -1    0    0    0  501 -0.00000000000E+00  0.00000000000E+00  0.65104250129E+03  0.65104250129E+03  0.00000000000E+00 0.  1.
          2   -1    0    0  501    0  0.00000000000E+00 -0.00000000000E+00 -0.29904011433E+04  0.29904011433E+04  0.00000000000E+00 0. -1.
         23    2    1    2    0    0  0.98052842197E+03  0.97719632802E+03 -0.95982110570E+03  0.16870965761E+04  0.93218305642E+02 0.  0.
         13    1    3    3    0    0  0.76480164581E+03  0.72758522340E+03 -0.76855567667E+03  0.13057486905E+04  0.00000000000E+00 0. -1.
        -13    1    3    3    0    0  0.21572677617E+03  0.24961110463E+03 -0.19126542903E+03  0.38134788560E+03  0.00000000000E+00 0.  1.
         22    1    1    2    0    0 -0.98052842197E+03 -0.97719632802E+03 -0.13795375363E+04  0.19543470684E+04  0.00000000000E+00 0. -1.
<mgrwt>
<rscale>  0 0.27906116E+04</rscale>
<asrwt>0</asrwt>
<pdfrwt beam="1">  1        2 0.46006172E+00 0.27906116E+04</pdfrwt>
<pdfrwt beam="2">  1       -2 0.10016038E+00 0.27906116E+04</pdfrwt>
<totfact> 0.12645772E+00</totfact>
</mgrwt>
</event>
<event>
 6    1  0.1614874E-005  0.1417327E+04  0.7818608E-02  0.8941371E-01
         -2   -1    0    0    0  501 -0.00000000000E+00  0.00000000000E+00  0.41477131075E+03  0.41477131075E+03  0.00000000000E+00 0.  1.
          2   -1    0    0  501    0  0.00000000000E+00 -0.00000000000E+00 -0.12107976733E+04  0.12107976733E+04  0.00000000000E+00 0. -1.
         23    2    1    2    0    0 -0.90011138426E+02 -0.24300607154E+03 -0.11527076618E+04  0.11846886090E+04  0.87167602811E+02 0.  0.
         13    1    3    3    0    0 -0.74617709892E+02 -0.11043953157E+03 -0.44598703399E+03  0.46547731121E+03  0.00000000000E+00 0.  1.
        -13    1    3    3    0    0 -0.15393428534E+02 -0.13256653997E+03 -0.70672062781E+03  0.71921129783E+03  0.00000000000E+00 0. -1.
         22    1    1    2    0    0  0.90011138426E+02  0.24300607154E+03  0.35668129924E+03  0.44088037502E+03  0.00000000000E+00 0.  1.
<mgrwt>
<rscale>  0 0.14173273E+04</rscale>
<asrwt>0</asrwt>
<pdfrwt beam="1">  1        2 0.18627656E+00 0.14173273E+04</pdfrwt>
<pdfrwt beam="2">  1       -2 0.63810972E-01 0.14173273E+04</pdfrwt>
<totfact> 0.41207280E+01</totfact>
</mgrwt>
</event>
<event>
 6    1  0.1614874E-005  0.3188689E+04  0.7818608E-02  0.8191811E-01
          2   -1    0    0  501    0  0.00000000000E+00  0.00000000000E+00  0.19129901735E+04  0.19129901735E+04  0.00000000000E+00 0. -1.
         -2   -1    0    0    0  501 -0.00000000000E+00 -0.00000000000E+00 -0.13287757913E+04  0.13287757913E+04  0.00000000000E+00 0.  1.
         23    2    1    2    0    0 -0.16290499255E+03  0.95662396176E+03  0.15767732030E+04  0.18536591772E+04  0.90394528268E+02 0.  0.
         11    1    3    3    0    0 -0.15401050866E+03  0.65583714683E+03  0.10889145682E+04  0.12804595022E+04  0.00000000000E+00 0. -1.
        -11    1    3    3    0    0 -0.88944838870E+01  0.30078681493E+03  0.48785863480E+03  0.57319967501E+03  0.00000000000E+00 0.  1.
         22    1    1    2    0    0  0.16290499255E+03 -0.95662396176E+03 -0.99255882080E+03  0.13881067875E+04  0.00000000000E+00 0.  1.
<mgrwt>
<rscale>  0 0.31886894E+04</rscale>
<asrwt>0</asrwt>
<pdfrwt beam="1">  1        2 0.29430618E+00 0.31886894E+04</pdfrwt>
<pdfrwt beam="2">  1       -2 0.20442704E+00 0.31886894E+04</pdfrwt>
<totfact> 0.78327338E-01</totfact>
</mgrwt>
</event>
<event>
 6    1  0.1614874E-005  0.2075404E+04  0.7818608E-02  0.8572156E-01
          1   -1    0    0  501    0  0.00000000000E+00  0.00000000000E+00  0.24748093183E+04  0.24748093183E+04  0.00000000000E+00 0. -1.
         -1   -1    0    0    0  501 -0.00000000000E+00 -0.00000000000E+00 -0.43511447020E+03  0.43511447020E+03  0.00000000000E+00 0.  1.
         23    2    1    2    0    0  0.31522237437E+03  0.89737188528E+03  0.44476465543E+03  0.10529251979E+04  0.78704688163E+02 0.  0.
         11    1    3    3    0    0  0.44624016015E+02  0.21902838047E+03  0.89560574469E+02  0.24080247249E+03  0.00000000000E+00 0.  1.
        -11    1    3    3    0    0  0.27059835835E+03  0.67834350481E+03  0.35520408097E+03  0.81212272545E+03  0.00000000000E+00 0. -1.
         22    1    1    2    0    0 -0.31522237437E+03 -0.89737188528E+03  0.15949301926E+04  0.18569985905E+04  0.00000000000E+00 0. -1.
<mgrwt>
<rscale>  0 0.20754039E+04</rscale>
<asrwt>0</asrwt>
<pdfrwt beam="1">  1        1 0.38073989E+00 0.20754039E+04</pdfrwt>
<pdfrwt beam="2">  1       -1 0.66940689E-01 0.20754039E+04</pdfrwt>
<totfact> 0.29393940E+00</totfact>
</mgrwt>
</event>
<event>
 6    1  0.1614874E-005  0.3725803E+04  0.7818608E-02  0.8062268E-01
         -1   -1    0    0    0  501 -0.00000000000E+00  0.00000000000E+00  0.14934499123E+04  0.14934499123E+04  0.00000000000E+00 0.  1.
          1   -1    0    0  501    0  0.00000000000E+00 -0.00000000000E+00 -0.23237481136E+04  0.23237481136E+04  0.00000000000E+00 0. -1.
         23    2    1    2    0    0  0.17746737281E+04  0.19529503653E+03  0.12551827520E+03  0.17920579988E+04  0.90055767599E+02 0.  0.
         11    1    3    3    0    0  0.12135164560E+04  0.15857124459E+03  0.52253804738E+02  0.12249479535E+04  0.00000000000E+00 0. -1.
        -11    1    3    3    0    0  0.56115727211E+03  0.36723791943E+02  0.73264470466E+02  0.56711004538E+03  0.00000000000E+00 0.  1.
         22    1    1    2    0    0 -0.17746737281E+04 -0.19529503653E+03 -0.95581647643E+03  0.20251400270E+04  0.00000000000E+00 0.  1.
<mgrwt>
<rscale>  0 0.37258027E+04</rscale>
<asrwt>0</asrwt>
<pdfrwt beam="1">  1        1 0.35749971E+00 0.37258027E+04</pdfrwt>
<pdfrwt beam="2">  1       -1 0.22976152E+00 0.37258027E+04</pdfrwt>
<totfact> 0.13597209E-01</totfact>
</mgrwt>
</event>
<event>
 6    1  0.1614874E-005  0.2400866E+04  0.7818608E-02  0.8439179E-01
         -2   -1    0    0    0  501 -0.00000000000E+00  0.00000000000E+00  0.80124803151E+03  0.80124803151E+03  0.00000000000E+00 0.  1.
          2   -1    0    0  501    0  0.00000000000E+00 -0.00000000000E+00 -0.17984931747E+04  0.17984931747E+04  0.00000000000E+00 0. -1.
         23    2    1    2    0    0  0.66006824309E+03  0.82116426358E+03  0.11979414639E+03  0.10642355541E+04  0.90806628123E+02 0.  0.
         11    1    3    3    0    0  0.56074584281E+03  0.65367719985E+03  0.75512218504E+02  0.86454142582E+03  0.00000000000E+00 0. -1.
        -11    1    3    3    0    0  0.99322400282E+02  0.16748706374E+03  0.44281927890E+02  0.19969412824E+03  0.00000000000E+00 0.  1.
         22    1    1    2    0    0 -0.66006824309E+03 -0.82116426358E+03 -0.11170392896E+04  0.15355056522E+04  0.00000000000E+00 0. -1.
<mgrwt>
<rscale>  0 0.24008658E+04</rscale>
<asrwt>0</asrwt>
<pdfrwt beam="1">  1        2 0.27669126E+00 0.24008658E+04</pdfrwt>
<pdfrwt beam="2">  1       -2 0.12326893E+00 0.24008658E+04</pdfrwt>
<totfact> 0.38603597E+00</totfact>
</mgrwt>
</event>
<event>
 6    1  0.1614874E-005  0.2191485E+04  0.7818608E-02  0.8521981E-01
          2   -1    0    0  501    0  0.00000000000E+00  0.00000000000E+00  0.14230425282E+04  0.14230425282E+04  0.00000000000E+00 0. -1.
         -2   -1    0    0    0  501 -0.00000000000E+00 -0.00000000000E+00 -0.84372135165E+03  0.84372135165E+03  0.00000000000E+00 0.  1.
         23    2    1    2    0    0  0.65780333148E+03 -0.15135947701E+03  0.11805045954E+04  0.13628632121E+04  0.90499286009E+02 0.  0.
         11    1    3    3    0    0  0.41637557047E+03 -0.13875242663E+03  0.73894406609E+03  0.85945284012E+03  0.00000000000E+00 0.  1.
        -11    1    3    3    0    0  0.24142776101E+03 -0.12607050378E+02  0.44156052935E+03  0.50341037195E+03  0.00000000000E+00 0. -1.
         22    1    1    2    0    0 -0.65780333148E+03  0.15135947701E+03 -0.60118341885E+03  0.90390066782E+03  0.00000000000E+00 0.  1.
<mgrwt>
<rscale>  0 0.21914848E+04</rscale>
<asrwt>0</asrwt>
<pdfrwt beam="1">  1        2 0.21892962E+00 0.21914848E+04</pdfrwt>
<pdfrwt beam="2">  1       -2 0.12980329E+00 0.21914848E+04</pdfrwt>
<totfact> 0.55990281E+00</totfact>
</mgrwt>
</event>
<event>
 6    1  0.1614874E-005  0.2972859E+04  0.7818608E-02  0.8251524E-01
          1   -1    0    0  501    0  0.00000000000E+00  0.00000000000E+00  0.15632762079E+04  0.15632762079E+04  0.00000000000E+00 0. -1.
         -1   -1    0    0    0  501 -0.00000000000E+00 -0.00000000000E+00 -0.14133605380E+04  0.14133605380E+04  0.00000000000E+00 0.  1.
         23    2    1    2    0    0 -0.63765537466E+03  0.10431233376E+04 -0.76914897001E+03  0.14471301305E+04  0.88796409060E+02 0.  0.
         11    1    3    3    0    0 -0.25464318314E+03  0.35577734289E+03 -0.24159779521E+03  0.49979011903E+03  0.00000000000E+00 0. -1.
        -11    1    3    3    0    0 -0.38301219152E+03  0.68734599473E+03 -0.52755117479E+03  0.94734001148E+03  0.00000000000E+00 0.  1.
         22    1    1    2    0    0  0.63765537466E+03 -0.10431233376E+04  0.91906463986E+03  0.15295066154E+04  0.00000000000E+00 0. -1.
<mgrwt>
<rscale>  0 0.29728592E+04</rscale>
<asrwt>0</asrwt>
<pdfrwt beam="1">  1        1 0.24050403E+00 0.29728592E+04</pdfrwt>
<pdfrwt beam="2">  1       -1 0.21744008E+00 0.29728592E+04</pdfrwt>
<totfact> 0.57769089E-01</totfact>
</mgrwt>
</event>
<event>
 6    1  0.1614874E-005  0.2684782E+04  0.7818608E-02  0.8339959E-01
         -1   -1    0    0    0  501 -0.00000000000E+00  0.00000000000E+00  0.79962273727E+03  0.79962273727E+03  0.00000000000E+00 0.  1.
          1   -1    0    0  501    0  0.00000000000E+00 -0.00000000000E+00 -0.22535804869E+04  0.22535804869E+04  0.00000000000E+00 0. -1.
         23    2    1    2    0    0 -0.12652381867E+04 -0.52974632439E+02 -0.22666576575E+03  0.12897181535E+04  0.91441594751E+02 0.  0.
         13    1    3    3    0    0 -0.24351640337E+03  0.20164459435E+02 -0.24000769126E+02  0.24552572381E+03  0.00000000000E+00 0.  1.
        -13    1    3    3    0    0 -0.10217217833E+04 -0.73139091873E+02 -0.20266499662E+03  0.10441924297E+04  0.00000000000E+00 0. -1.
         22    1    1    2    0    0  0.12652381867E+04  0.52974632439E+02 -0.12272919838E+04  0.17634850707E+04  0.00000000000E+00 0. -1.
<mgrwt>
<rscale>  0 0.26847824E+04</rscale>
<asrwt>0</asrwt>
<pdfrwt beam="1">  1        1 0.34670469E+00 0.26847824E+04</pdfrwt>
<pdfrwt beam="2">  1       -1 0.12301888E+00 0.26847824E+04</pdfrwt>
<totfact> 0.10191340E+00</totfact>
</mgrwt>
</event>
<event>
 6    1  0.1614874E-005  0.1791803E+04  0.7818608E-02  0.8710671E-01
          1   -1    0    0  501    0  0.00000000000E+00  0.00000000000E+00  0.13046513918E+04  0.13046513918E+04  0.00000000000E+00 0. -1.
         -1   -1    0    0    0  501 -0.00000000000E+00 -0.00000000000E+00 -0.61521370237E+03  0.61521370237E+03  0.00000000000E+00 0.  1.
         23    2    1    2    0    0  0.76346107337E+03 -0.45813914089E+03  0.26570976342E+03  0.93380746995E+03  0.92900105463E+02 0.  0.
         11    1    3    3    0    0  0.54589184122E+03 -0.35460524997E+03  0.15785228405E+03  0.66982096802E+03  0.00000000000E+00 0.  1.
        -11    1    3    3    0    0  0.21756923214E+03 -0.10353389092E+03  0.10785747937E+03  0.26398650193E+03  0.00000000000E+00 0. -1.
         22    1    1    2    0    0 -0.76346107337E+03  0.45813914089E+03  0.42372792599E+03  0.98605762419E+03  0.00000000000E+00 0. -1.
<mgrwt>
<rscale>  0 0.17918029E+04</rscale>
<asrwt>0</asrwt>
<pdfrwt beam="1">  1        1 0.20071560E+00 0.17918029E+04</pdfrwt>
<pdfrwt beam="2">  1       -1 0.94648263E-01 0.17918029E+04</pdfrwt>
<totfact> 0.91525271E+00</totfact>
</mgrwt>
</event>
<event>
 6    1  0.1614874E-005  0.1051355E+04  0.7818608E-02  0.9253946E-01
          2   -1    0    0  501    0  0.00000000000E+00  0.00000000000E+00  0.27117213097E+03  0.27117213097E+03  0.00000000000E+00 0.  1.
         -2   -1    0    0    0  501 -0.00000000000E+00 -0.00000000000E+00 -0.10190460161E+04  0.10190460161E+04  0.00000000000E+00 0. -1.
         23    2    1    2    0    0 -0.13705296012E+03 -0.50257661123E+03 -0.41012377545E+03  0.66937847324E+03  0.92191459524E+02 0.  0.
         11    1    3    3    0    0 -0.16973479487E+02 -0.14559130412E+03 -0.72332755846E+02  0.16345321780E+03  0.00000000000E+00 0. -1.
        -11    1    3    3    0    0 -0.12007948063E+03 -0.35698530711E+03 -0.33779101961E+03  0.50592525544E+03  0.00000000000E+00 0.  1.
         22    1    1    2    0    0  0.13705296012E+03  0.50257661123E+03 -0.33775010973E+03  0.62083967387E+03  0.00000000000E+00 0. -1.
<mgrwt>
<rscale>  0 0.10513551E+04</rscale>
<asrwt>0</asrwt>
<pdfrwt beam="1">  1        2 0.41718790E-01 0.10513551E+04</pdfrwt>
<pdfrwt beam="2">  1       -2 0.15677631E+00 0.10513551E+04</pdfrwt>
<totfact> 0.32539194E+01</totfact>
</mgrwt>
</event>
<event>
 6    1  0.1614874E-005  0.2640552E+04  0.7818608E-02  0.8354556E-01
         -2   -1    0    0    0  501 -0.00000000000E+00  0.00000000000E+00  0.11654217968E+04  0.11654217968E+04  0.00000000000E+00 0.  1.
          2   -1    0    0  501    0  0.00000000000E+00 -0.00000000000E+00 -0.14957057561E+04  0.14957057561E+04  0.00000000000E+00 0. -1.
         23    2    1    2    0    0 -0.49650556526E+03 -0.90462308594E+03 -0.99319187722E+03  0.14346253672E+04  0.82819897096E+02 0.  0.
         13    1    3    3    0    0 -0.13639085901E+03 -0.19820281333E+03 -0.26714046633E+03  0.35951474293E+03  0.00000000000E+00 0. -1.
        -13    1    3    3    0    0 -0.36011470625E+03 -0.70642027261E+03 -0.72605141089E+03  0.10751106243E+04  0.00000000000E+00 0.  1.
         22    1    1    2    0    0  0.49650556526E+03  0.90462308594E+03  0.66290791788E+03  0.12265021857E+04  0.00000000000E+00 0.  1.
<mgrwt>
<rscale>  0 0.26405515E+04</rscale>
<asrwt>0</asrwt>
<pdfrwt beam="1">  1        2 0.23010858E+00 0.26405515E+04</pdfrwt>
<pdfrwt beam="2">  1       -2 0.17929566E+00 0.26405515E+04</pdfrwt>
<totfact> 0.20639325E+00</totfact>
</mgrwt>
</event>
<event>
 6    1  0.1614874E-005  0.3263238E+04  0.7818608E-02  0.8172313E-01
         -1   -1    0    0    0  501 -0.00000000000E+00  0.00000000000E+00  0.99807954240E+03  0.99807954240E+03  0.00000000000E+00 0.  1.
          1   -1    0    0  501    0  0.00000000000E+00 -0.00000000000E+00 -0.26673022045E+04  0.26673022045E+04  0.00000000000E+00 0. -1.
         23    2    1    2    0    0 -0.14396998879E+04  0.29992643270E+03 -0.44737958865E+02  0.14741167736E+04  0.91253192417E+02 0.  0.
         13    1    3    3    0    0 -0.30708769561E+03  0.90876947757E+02  0.17160179890E+02  0.32071162156E+03  0.00000000000E+00 0.  1.
        -13    1    3    3    0    0 -0.11326121923E+04  0.20904948494E+03 -0.61898138755E+02  0.11534051521E+04  0.00000000000E+00 0. -1.
         22    1    1    2    0    0  0.14396998879E+04 -0.29992643270E+03 -0.16244847032E+04  0.21912649733E+04  0.00000000000E+00 0. -1.
<mgrwt>
<rscale>  0 0.32632375E+04</rscale>
<asrwt>0</asrwt>
<pdfrwt beam="1">  1        1 0.41035419E+00 0.32632375E+04</pdfrwt>
<pdfrwt beam="2">  1       -1 0.15355070E+00 0.32632375E+04</pdfrwt>
<totfact> 0.28186248E-01</totfact>
</mgrwt>
</event>
<event>
 6    1  0.1614874E-005  0.1480463E+04  0.7818608E-02  0.8897550E-01
          2   -1    0    0  501    0  0.00000000000E+00  0.00000000000E+00  0.20539235216E+04  0.20539235216E+04  0.00000000000E+00 0. -1.
         -2   -1    0    0    0  501 -0.00000000000E+00 -0.00000000000E+00 -0.26677841051E+03  0.26677841051E+03  0.00000000000E+00 0.  1.
         23    2    1    2    0    0 -0.48737366557E+03 -0.26482644747E+02  0.17634031558E+04  0.18320322064E+04  0.92287026129E+02 0.  0.
         11    1    3    3    0    0 -0.24704325908E+03 -0.45362457789E+02  0.77652683022E+03  0.81613849467E+03  0.00000000000E+00 0. -1.
        -11    1    3    3    0    0 -0.24033040649E+03  0.18879813041E+02  0.98687632556E+03  0.10158937117E+04  0.00000000000E+00 0.  1.
         22    1    1    2    0    0  0.48737366557E+03  0.26482644747E+02  0.23741955308E+02  0.48866972569E+03  0.00000000000E+00 0.  1.
<mgrwt>
<rscale>  0 0.14804627E+04</rscale>
<asrwt>0</asrwt>
<pdfrwt beam="1">  1        2 0.31598822E+00 0.14804627E+04</pdfrwt>
<pdfrwt beam="2">  1       -2 0.41042834E-01 0.14804627E+04</pdfrwt>
<totfact> 0.33938782E+01</totfact>
</mgrwt>
</event>
<event>
 6    1  0.1614874E-005  0.3008509E+04  0.7818608E-02  0.8241305E-01
         -2   -1    0    0    0  501 -0.00000000000E+00  0.00000000000E+00  0.15404285225E+04  0.15404285225E+04  0.00000000000E+00 0.  1.
          2   -1    0    0  501    0  0.00000000000E+00 -0.00000000000E+00 -0.14689300700E+04  0.14689300700E+04  0.00000000000E+00 0. -1.
         23    2    1    2    0    0 -0.14905434166E+04  0.12004152472E+03  0.18536166875E+03  0.15096604641E+04  0.92661340748E+02 0.  0.
         11    1    3    3    0    0 -0.73074127287E+03  0.64344435334E+02  0.44586936030E+02  0.73492245108E+03  0.00000000000E+00 0. -1.
        -11    1    3    3    0    0 -0.75980214375E+03  0.55697089385E+02  0.14077473272E+03  0.77473801300E+03  0.00000000000E+00 0.  1.
         22    1    1    2    0    0  0.14905434166E+04 -0.12004152472E+03 -0.11386321621E+03  0.14996981285E+04  0.00000000000E+00 0. -1.
<mgrwt>
<rscale>  0 0.30085091E+04</rscale>
<asrwt>0</asrwt>
<pdfrwt beam="1">  1        2 0.22598924E+00 0.30085091E+04</pdfrwt>
<pdfrwt beam="2">  1       -2 0.23698900E+00 0.30085091E+04</pdfrwt>
<totfact> 0.87446726E-01</totfact>
</mgrwt>
</event>
<event>
 6    1  0.1614874E-005  0.1531854E+04  0.7818608E-02  0.8863543E-01
          2   -1    0    0  501    0  0.00000000000E+00  0.00000000000E+00  0.38579811390E+04  0.38579811390E+04  0.00000000000E+00 0. -1.
         -2   -1    0    0    0  501 -0.00000000000E+00 -0.00000000000E+00 -0.15205984852E+03  0.15205984852E+03  0.00000000000E+00 0.  1.
         23    2    1    2    0    0  0.71445285713E+03  0.27037113797E+03  0.18065233019E+04  0.19627852252E+04  0.73864488902E+02 0.  0.
         13    1    3    3    0    0  0.49892582924E+03  0.15201293188E+03  0.12313432141E+04  0.13372512948E+04  0.00000000000E+00 0. -1.
        -13    1    3    3    0    0  0.21552702789E+03  0.11835820609E+03  0.57518008779E+03  0.62553393041E+03  0.00000000000E+00 0.  1.
         22    1    1    2    0    0 -0.71445285713E+03 -0.27037113797E+03  0.18993979886E+04  0.20472557623E+04  0.00000000000E+00 0. -1.
<mgrwt>
<rscale>  0 0.15318538E+04</rscale>
<asrwt>0</asrwt>
<pdfrwt beam="1">  1        2 0.59353549E+00 0.15318538E+04</pdfrwt>
<pdfrwt beam="2">  1       -2 0.23393826E-01 0.15318538E+04</pdfrwt>
<totfact> 0.70481466E+00</totfact>
</mgrwt>
</event>
<event>
 6    1  0.1614874E-005  0.2896132E+04  0.7818608E-02  0.8274029E-01
         -1   -1    0    0    0  501 -0.00000000000E+00  0.00000000000E+00  0.78599205609E+03  0.78599205609E+03  0.00000000000E+00 0.  1.
          1   -1    0    0  501    0  0.00000000000E+00 -0.00000000000E+00 -0.26678317132E+04  0.26678317132E+04  0.00000000000E+00 0. -1.
         23    2    1    2    0    0 -0.90946807492E+03  0.14048084654E+03  0.38939152480E+03  0.10032405470E+04  0.89435943822E+02 0.  0.
         11    1    3    3    0    0 -0.11764044212E+03 -0.11558538970E+02  0.54504669100E+02  0.13016770874E+03  0.00000000000E+00 0.  1.
        -11    1    3    3    0    0 -0.79182763280E+03  0.15203938551E+03  0.33488685570E+03  0.87307283827E+03  0.00000000000E+00 0. -1.
         22    1    1    2    0    0  0.90946807492E+03 -0.14048084654E+03 -0.22712311819E+04  0.24505832222E+04  0.00000000000E+00 0. -1.
<mgrwt>
<rscale>  0 0.28961316E+04</rscale>
<asrwt>0</asrwt>
<pdfrwt beam="1">  1        1 0.41043565E+00 0.28961316E+04</pdfrwt>
<pdfrwt beam="2">  1       -1 0.12092186E+00 0.28961316E+04</pdfrwt>
<totfact> 0.53912392E-01</totfact>
</mgrwt>
</event>
<event>
 6    1  0.1614874E-005  0.1128356E+04  0.7818608E-02  0.9177986E-01
         -1   -1    0    0    0  501 -0.00000000000E+00  0.00000000000E+00  0.48874813403E+03  0.48874813403E+03  0.00000000000E+00 0.  1.
          1   -1    0    0  501    0  0.00000000000E+00 -0.00000000000E+00 -0.65124926405E+03  0.65124926405E+03  0.00000000000E+00 0. -1.
         23    2    1    2    0    0 -0.47751800539E+03 -0.20675488405E+03  0.12812141541E+03  0.54398356312E+03  0.93445129931E+02 0.  0.
         13    1    3    3    0    0 -0.13770771797E+03 -0.10641589358E+03  0.51288511541E+02  0.18143392575E+03  0.00000000000E+00 0. -1.
        -13    1    3    3    0    0 -0.33981028742E+03 -0.10033899047E+03  0.76832903867E+02  0.36254963737E+03  0.00000000000E+00 0.  1.
         22    1    1    2    0    0  0.47751800539E+03  0.20675488405E+03 -0.29062254543E+03  0.59601383496E+03  0.00000000000E+00 0.  1.
<mgrwt>
<rscale>  0 0.11283561E+04</rscale>
<asrwt>0</asrwt>
<pdfrwt beam="1">  1        1 0.10019219E+00 0.11283561E+04</pdfrwt>
<pdfrwt beam="2">  1       -1 0.75192021E-01 0.11283561E+04</pdfrwt>
<totfact> 0.53743012E+01</totfact>
</mgrwt>
</event>
<event>
 6    1  0.1614874E-005  0.1406002E+04  0.7818608E-02  0.8949485E-01
          2   -1    0    0  501    0  0.00000000000E+00  0.00000000000E+00  0.13068111672E+04  0.13068111672E+04  0.00000000000E+00 0. -1.
         -2   -1    0    0    0  501 -0.00000000000E+00 -0.00000000000E+00 -0.37818043707E+03  0.37818043707E+03  0.00000000000E+00 0.  1.
         23    2    1    2    0    0  0.50011328421E+03  0.33565580120E+03  0.89360358594E+03  0.10816633232E+04  0.93220501548E+02 0.  0.
         11    1    3    3    0    0  0.18162335536E+03  0.74888751602E+02  0.32370083396E+03  0.37865234482E+03  0.00000000000E+00 0. -1.
        -11    1    3    3    0    0  0.31848992885E+03  0.26076704960E+03  0.56990275199E+03  0.70301097833E+03  0.00000000000E+00 0.  1.
         22    1    1    2    0    0 -0.50011328421E+03 -0.33565580120E+03  0.35027144139E+02  0.60332828108E+03  0.00000000000E+00 0.  1.
<mgrwt>
<rscale>  0 0.14060020E+04</rscale>
<asrwt>0</asrwt>
<pdfrwt beam="1">  1        2 0.20104787E+00 0.14060020E+04</pdfrwt>
<pdfrwt beam="2">  1       -2 0.58181607E-01 0.14060020E+04</pdfrwt>
<totfact> 0.44040977E+01</totfact>
</mgrwt>
</event>
<event>
 6    1  0.1614874E-005  0.2461591E+04  0.7818608E-02  0.8416798E-01
          2   -1    0    0  501    0  0.00000000000E+00  0.00000000000E+00  0.15141035932E+04  0.15141035932E+04  0.00000000000E+00 0. -1.
         -2   -1    0    0    0  501 -0.00000000000E+00 -0.00000000000E+00 -0.10004975807E+04  0.10004975807E+04  0.00000000000E+00 0.  1.
         23    2    1    2    0    0  0.37911033517E+03  0.11290443604E+04 -0.52793344085E+02  0.11957857792E+04  0.93009023927E+02 0.  0.
         11    1    3    3    0    0  0.36966161051E+03  0.10697488417E+04 -0.32089665301E+02  0.11322729517E+04  0.00000000000E+00 0. -1.
        -11    1    3    3    0    0  0.94487246557E+01  0.59295518721E+02 -0.20703678784E+02  0.63512827470E+02  0.00000000000E+00 0.  1.
         22    1    1    2    0    0 -0.37911033517E+03 -0.11290443604E+04  0.56639935655E+03  0.13188153946E+04  0.00000000000E+00 0. -1.
<mgrwt>
<rscale>  0 0.24615905E+04</rscale>
<asrwt>0</asrwt>
<pdfrwt beam="1">  1        2 0.23293901E+00 0.24615905E+04</pdfrwt>
<pdfrwt beam="2">  1       -2 0.15392270E+00 0.24615905E+04</pdfrwt>
<totfact> 0.31193965E+00</totfact>
</mgrwt>
</event>
<event>
 6    1  0.1614874E-005  0.2743698E+04  0.7818608E-02  0.8320964E-01
          1   -1    0    0  501    0  0.00000000000E+00  0.00000000000E+00  0.21059713427E+04  0.21059713427E+04  0.00000000000E+00 0. -1.
         -1   -1    0    0    0  501 -0.00000000000E+00 -0.00000000000E+00 -0.89363502721E+03  0.89363502721E+03  0.00000000000E+00 0.  1.
         23    2    1    2    0    0  0.13287554464E+04 -0.19346588777E+03  0.30788009472E+03  0.13806372098E+04  0.91372130408E+02 0.  0.
         13    1    3    3    0    0  0.46657841675E+03 -0.10390147664E+03  0.13556882285E+03  0.49685998184E+03  0.00000000000E+00 0.  1.
        -13    1    3    3    0    0  0.86217702966E+03 -0.89564411123E+02  0.17231127187E+03  0.88377722794E+03  0.00000000000E+00 0. -1.
         22    1    1    2    0    0 -0.13287554464E+04  0.19346588777E+03  0.90445622075E+03  0.16189691601E+04  0.00000000000E+00 0. -1.
<mgrwt>
<rscale>  0 0.27436981E+04</rscale>
<asrwt>0</asrwt>
<pdfrwt beam="1">  1        1 0.32399559E+00 0.27436981E+04</pdfrwt>
<pdfrwt beam="2">  1       -1 0.13748231E+00 0.27436981E+04</pdfrwt>
<totfact> 0.96504699E-01</totfact>
</mgrwt>
</event>
<event>
 6    1  0.1614874E-005  0.4070923E+04  0.7818608E-02  0.7990390E-01
          2   -1    0    0  501    0  0.00000000000E+00  0.00000000000E+00  0.28230472239E+04  0.28230472239E+04  0.00000000000E+00 0. -1.
         -2   -1    0    0    0  501 -0.00000000000E+00 -0.00000000000E+00 -0.14676001212E+04  0.14676001212E+04  0.00000000000E+00 0.  1.
         23    2    1    2    0    0  0.42785502104E+01 -0.10484765736E+04  0.25155668466E+04  0.27269340557E+04  0.93655502111E+02 0.  0.
         13    1    3    3    0    0 -0.29363936680E+02 -0.12332161407E+03  0.31683445525E+03  0.34125435280E+03  0.00000000000E+00 0. -1.
        -13    1    3    3    0    0  0.33642486890E+02 -0.92515495948E+03  0.21987323913E+04  0.23856797029E+04  0.00000000000E+00 0.  1.
         22    1    1    2    0    0 -0.42785502104E+01  0.10484765736E+04 -0.11601197439E+04  0.15637132894E+04  0.00000000000E+00 0.  1.
<mgrwt>
<rscale>  0 0.40709235E+04</rscale>
<asrwt>0</asrwt>
<pdfrwt beam="1">  1        2 0.43431496E+00 0.40709235E+04</pdfrwt>
<pdfrwt beam="2">  1       -2 0.22578463E+00 0.40709235E+04</pdfrwt>
<totfact> 0.15954369E-01</totfact>
</mgrwt>
</event>
<event>
 6    1  0.1614874E-005  0.2996983E+04  0.7818608E-02  0.8244593E-01
         -1   -1    0    0    0  501 -0.00000000000E+00  0.00000000000E+00  0.16773234326E+04  0.16773234326E+04  0.00000000000E+00 0.  1.
          1   -1    0    0  501    0  0.00000000000E+00 -0.00000000000E+00 -0.13387259029E+04  0.13387259029E+04  0.00000000000E+00 0. -1.
         23    2    1    2    0    0 -0.17940043706E+03  0.50217142428E+03 -0.12382459965E+04  0.13514784712E+04  0.94235099342E+02 0.  0.
         11    1    3    3    0    0 -0.12000701676E+03  0.31624741353E+03 -0.89245775286E+03  0.95440816807E+03  0.00000000000E+00 0.  1.
        -11    1    3    3    0    0 -0.59393420304E+02  0.18592401075E+03 -0.34578824365E+03  0.39707030309E+03  0.00000000000E+00 0. -1.
         22    1    1    2    0    0  0.17940043706E+03 -0.50217142428E+03  0.15768435263E+04  0.16645708644E+04  0.00000000000E+00 0.  1.
<mgrwt>
<rscale>  0 0.29969827E+04</rscale>
<asrwt>0</asrwt>
<pdfrwt beam="1">  1        1 0.20595783E+00 0.29969827E+04</pdfrwt>
<pdfrwt beam="2">  1       -1 0.25804976E+00 0.29969827E+04</pdfrwt>
<totfact> 0.44640743E-01</totfact>
</mgrwt>
</event>
<event>
 6    1  0.1614874E-005  0.2616488E+04  0.7818608E-02  0.8362622E-01
          1   -1    0    0  501    0  0.00000000000E+00  0.00000000000E+00  0.19355256781E+04  0.19355256781E+04  0.00000000000E+00 0. -1.
         -1   -1    0    0    0  501 -0.00000000000E+00 -0.00000000000E+00 -0.88425690641E+03  0.88425690641E+03  0.00000000000E+00 0.  1.
         23    2    1    2    0    0  0.48951017370E+03 -0.82841054489E+03  0.14789148597E+04  0.17668032791E+04  0.92306140102E+02 0.  0.
         11    1    3    3    0    0  0.15632529020E+03 -0.18596824676E+03  0.37107728600E+03  0.44353143896E+03  0.00000000000E+00 0. -1.
        -11    1    3    3    0    0  0.33318488350E+03 -0.64244229813E+03  0.11078375737E+04  0.13232718401E+04  0.00000000000E+00 0.  1.
         22    1    1    2    0    0 -0.48951017370E+03  0.82841054489E+03 -0.42764608806E+03  0.10529793054E+04  0.00000000000E+00 0.  1.
<mgrwt>
<rscale>  0 0.26164877E+04</rscale>
<asrwt>0</asrwt>
<pdfrwt beam="1">  1        1 0.29777318E+00 0.26164877E+04</pdfrwt>
<pdfrwt beam="2">  1       -1 0.13603952E+00 0.26164877E+04</pdfrwt>
<totfact> 0.13090387E+00</totfact>
</mgrwt>
</event>
<event>
 6    1  0.1614874E-005  0.1859448E+04  0.7818608E-02  0.8675309E-01
         -1   -1    0    0    0  501 -0.00000000000E+00  0.00000000000E+00  0.11643809309E+04  0.11643809309E+04  0.00000000000E+00 0. -1.
          1   -1    0    0  501    0  0.00000000000E+00 -0.00000000000E+00 -0.74235765203E+03  0.74235765203E+03  0.00000000000E+00 0.  1.
         23    2    1    2    0    0  0.90544727230E+02  0.38759542360E+03  0.10705828595E+04  0.11457799180E+04  0.90749111717E+02 0.  0.
         13    1    3    3    0    0  0.20968441362E+02  0.82393710051E+02  0.34931378591E+03  0.35951150192E+03  0.00000000000E+00 0. -1.
        -13    1    3    3    0    0  0.69576285868E+02  0.30520171355E+03  0.72126907360E+03  0.78626841603E+03  0.00000000000E+00 0.  1.
         22    1    1    2    0    0 -0.90544727230E+02 -0.38759542360E+03 -0.64855958069E+03  0.76095866493E+03  0.00000000000E+00 0.  1.
<mgrwt>
<rscale>  0 0.18594484E+04</rscale>
<asrwt>0</asrwt>
<pdfrwt beam="1">  1        1 0.11420887E+00 0.18594484E+04</pdfrwt>
<pdfrwt beam="2">  1       -1 0.17913553E+00 0.18594484E+04</pdfrwt>
<totfact> 0.49323235E+00</totfact>
</mgrwt>
</event>
<event>
 6    1  0.1614874E-005  0.3198836E+04  0.7818608E-02  0.8189125E-01
          1   -1    0    0  501    0  0.00000000000E+00  0.00000000000E+00  0.26778225356E+04  0.26778225356E+04  0.00000000000E+00 0. -1.
         -1   -1    0    0    0  501 -0.00000000000E+00 -0.00000000000E+00 -0.95530517821E+03  0.95530517821E+03  0.00000000000E+00 0.  1.
         23    2    1    2    0    0  0.88560714439E+03 -0.52032628918E+02  0.23716015657E+04  0.25338926533E+04  0.95449373782E+02 0.  0.
         13    1    3    3    0    0  0.34335015098E+03  0.89839590168E+01  0.10208999687E+04  0.10771289541E+04  0.00000000000E+00 0. -1.
        -13    1    3    3    0    0  0.54225699341E+03 -0.61016587935E+02  0.13507015971E+04  0.14567636992E+04  0.00000000000E+00 0.  1.
         22    1    1    2    0    0 -0.88560714439E+03  0.52032628918E+02 -0.64908420840E+03  0.10992350605E+04  0.00000000000E+00 0.  1.
<mgrwt>
<rscale>  0 0.31988359E+04</rscale>
<asrwt>0</asrwt>
<pdfrwt beam="1">  1        1 0.41197270E+00 0.31988359E+04</pdfrwt>
<pdfrwt beam="2">  1       -1 0.14697003E+00 0.31988359E+04</pdfrwt>
<totfact> 0.31360109E-01</totfact>
</mgrwt>
</event>
<event>
 6    1  0.1614874E-005  0.2115492E+04  0.7818608E-02  0.8554450E-01
          2   -1    0    0  501    0  0.00000000000E+00  0.00000000000E+00  0.16205172665E+04  0.16205172665E+04  0.00000000000E+00 0. -1.
         -2   -1    0    0    0  501 -0.00000000000E+00 -0.00000000000E+00 -0.69041329713E+03  0.69041329713E+03  0.00000000000E+00 0.  1.
         23    2    1    2    0    0 -0.65479350872E+03 -0.64002014749E+03  0.10404332355E+04  0.13886763279E+04  0.86834888549E+02 0.  0.
         11    1    3    3    0    0 -0.30036975676E+03 -0.27303902907E+03  0.40024165565E+03  0.57005761559E+03  0.00000000000E+00 0. -1.
        -11    1    3    3    0    0 -0.35442375196E+03 -0.36698111842E+03  0.64019157986E+03  0.81861871232E+03  0.00000000000E+00 0.  1.
         22    1    1    2    0    0  0.65479350872E+03  0.64002014749E+03 -0.11032926619E+03  0.92225423568E+03  0.00000000000E+00 0.  1.
<mgrwt>
<rscale>  0 0.21154921E+04</rscale>
<asrwt>0</asrwt>
<pdfrwt beam="1">  1        2 0.24931035E+00 0.21154921E+04</pdfrwt>
<pdfrwt beam="2">  1       -2 0.10621743E+00 0.21154921E+04</pdfrwt>
<totfact> 0.71478265E+00</totfact>
</mgrwt>
</event>
<event>
 6    1  0.1614874E-005  0.3449779E+04  0.7818608E-02  0.8125796E-01
         -1   -1    0    0    0  501 -0.00000000000E+00  0.00000000000E+00  0.26930870373E+04  0.26930870373E+04  0.00000000000E+00 0.  1.
          1   -1    0    0  501    0  0.00000000000E+00 -0.00000000000E+00 -0.11047707251E+04  0.11047707251E+04  0.00000000000E+00 0. -1.
         23    2    1    2    0    0  0.15430156938E+04  0.74746254022E+03  0.99018523740E+03  0.19819947547E+04  0.90767412055E+02 0.  0.
         13    1    3    3    0    0  0.10430431991E+04  0.52071255978E+03  0.62654978929E+03  0.13234973833E+04  0.00000000000E+00 0. -1.
        -13    1    3    3    0    0  0.49997249466E+03  0.22674998045E+03  0.36363544811E+03  0.65849737142E+03  0.00000000000E+00 0.  1.
         22    1    1    2    0    0 -0.15430156938E+04 -0.74746254022E+03  0.59813107480E+03  0.18158630077E+04  0.00000000000E+00 0. -1.
<mgrwt>
<rscale>  0 0.34497790E+04</rscale>
<asrwt>0</asrwt>
<pdfrwt beam="1">  1        1 0.16996473E+00 0.34497790E+04</pdfrwt>
<pdfrwt beam="2">  1       -1 0.41432108E+00 0.34497790E+04</pdfrwt>
<totfact> 0.58720588E-02</totfact>
</mgrwt>
</event>
<event>
 6    1  0.1614874E-005  0.2349498E+04  0.7818608E-02  0.8458657E-01
         -2   -1    0    0    0  501 -0.00000000000E+00  0.00000000000E+00  0.13703261852E+04  0.13703261852E+04  0.00000000000E+00 0.  1.
          2   -1    0    0  501    0  0.00000000000E+00 -0.00000000000E+00 -0.10070848021E+04  0.10070848021E+04  0.00000000000E+00 0. -1.
         23    2    1    2    0    0 -0.66590487522E+03  0.27131291707E+03  0.11196800964E+04  0.13337445996E+04  0.90283646257E+02 0.  0.
         11    1    3    3    0    0 -0.23580926896E+03  0.14050947518E+03  0.45228372379E+03  0.52906473210E+03  0.00000000000E+00 0. -1.
        -11    1    3    3    0    0 -0.43009560626E+03  0.13080344189E+03  0.66739637261E+03  0.80467986747E+03  0.00000000000E+00 0.  1.
         22    1    1    2    0    0  0.66590487522E+03 -0.27131291707E+03 -0.75643871339E+03  0.10436663878E+04  0.00000000000E+00 0. -1.
<mgrwt>
<rscale>  0 0.23494975E+04</rscale>
<asrwt>0</asrwt>
<pdfrwt beam="1">  1        2 0.15493612E+00 0.23494975E+04</pdfrwt>
<pdfrwt beam="2">  1       -2 0.21081941E+00 0.23494975E+04</pdfrwt>
<totfact> 0.25455822E+00</totfact>
</mgrwt>
</event>
<event>
 6    1  0.1614874E-005  0.1823521E+04  0.7818608E-02  0.8693891E-01
          2   -1    0    0  501    0  0.00000000000E+00  0.00000000000E+00  0.23567262348E+04  0.23567262348E+04  0.00000000000E+00 0. -1.
         -2   -1    0    0    0  501 -0.00000000000E+00 -0.00000000000E+00 -0.35273795385E+03  0.35273795385E+03  0.00000000000E+00 0.  1.
         23    2    1    2    0    0 -0.59886355012E+03 -0.22313147606E+03  0.19653345941E+04  0.20692147726E+04  0.10336586057E+03 0.  0.
         13    1    3    3    0    0 -0.51238895158E+03 -0.18621895503E+03  0.15412030690E+04  0.16347864805E+04  0.00000000000E+00 0.  1.
        -13    1    3    3    0    0 -0.86474598534E+02 -0.36912521028E+02  0.42413152512E+03  0.43442829213E+03  0.00000000000E+00 0. -1.
         22    1    1    2    0    0  0.59886355012E+03  0.22313147606E+03  0.38653686882E+02  0.64024941607E+03  0.00000000000E+00 0.  1.
<mgrwt>
<rscale>  0 0.18235205E+04</rscale>
<asrwt>0</asrwt>
<pdfrwt beam="1">  1        2 0.36257326E+00 0.18235205E+04</pdfrwt>
<pdfrwt beam="2">  1       -2 0.54267379E-01 0.18235205E+04</pdfrwt>
<totfact> 0.12686204E+01</totfact>
</mgrwt>
</event>
<event>
 6    1  0.1840622E-005  0.2579111E+04  0.7818608E-02  0.8375331E-01
         -1   -1    0    0    0  501 -0.00000000000E+00  0.00000000000E+00  0.97149702325E+03  0.97149702325E+03  0.00000000000E+00 0. -1.
          1   -1    0    0  501    0  0.00000000000E+00 -0.00000000000E+00 -0.17117432575E+04  0.17117432575E+04  0.00000000000E+00 0.  1.
         23    2    1    2    0    0  0.19354735738E+03  0.12059015920E+04  0.55246376456E+02  0.12256848880E+04  0.87132389816E+02 0.  0.
         13    1    3    3    0    0  0.15107023935E+03  0.69285657857E+03  0.14651204424E+02  0.70928634096E+03  0.00000000000E+00 0. -1.
        -13    1    3    3    0    0  0.42477118032E+02  0.51304501346E+03  0.40595172033E+02  0.51639854704E+03  0.00000000000E+00 0.  1.
         22    1    1    2    0    0 -0.19354735738E+03 -0.12059015920E+04 -0.79549261066E+03  0.14575553927E+04  0.00000000000E+00 0.  1.
<mgrwt>
<rscale>  0 0.25791111E+04</rscale>
<asrwt>0</asrwt>
<pdfrwt beam="1">  1        1 0.26334512E+00 0.25791111E+04</pdfrwt>
<pdfrwt beam="2">  1       -1 0.14946108E+00 0.25791111E+04</pdfrwt>
<totfact> 0.14544067E+00</totfact>
</mgrwt>
</event>
<event>
 6    1  0.1614874E-005  0.1856622E+04  0.7818608E-02  0.8676755E-01
         -1   -1    0    0    0  501 -0.00000000000E+00  0.00000000000E+00  0.52565318098E+03  0.52565318098E+03  0.00000000000E+00 0.  1.
          1   -1    0    0  501    0  0.00000000000E+00 -0.00000000000E+00 -0.16394099791E+04  0.16394099791E+04  0.00000000000E+00 0. -1.
         23    2    1    2    0    0  0.68461885590E+03  0.56957842603E+03 -0.26440957376E+03  0.93440753450E+03  0.10041143652E+03 0.  0.
         11    1    3    3    0    0  0.17238061462E+03  0.18358776392E+03 -0.40544801858E+02  0.25507533067E+03  0.00000000000E+00 0.  1.
        -11    1    3    3    0    0  0.51223824128E+03  0.38599066211E+03 -0.22386477191E+03  0.67933220383E+03  0.00000000000E+00 0. -1.
         22    1    1    2    0    0 -0.68461885590E+03 -0.56957842603E+03 -0.84934722433E+03  0.12306556256E+04  0.00000000000E+00 0. -1.
<mgrwt>
<rscale>  0 0.18566217E+04</rscale>
<asrwt>0</asrwt>
<pdfrwt beam="1">  1        1 0.25221692E+00 0.18566217E+04</pdfrwt>
<pdfrwt beam="2">  1       -1 0.80869721E-01 0.18566217E+04</pdfrwt>
<totfact> 0.75045048E+00</totfact>
</mgrwt>
</event>
<event>
 6    1  0.1614874E-005  0.8466830E+03  0.7818608E-02  0.9494800E-01
          1   -1    0    0  501    0  0.00000000000E+00  0.00000000000E+00  0.19192493591E+03  0.19192493591E+03  0.00000000000E+00 0. -1.
         -1   -1    0    0    0  501 -0.00000000000E+00 -0.00000000000E+00 -0.93379223992E+03  0.93379223992E+03  0.00000000000E+00 0.  1.
         23    2    1    2    0    0  0.34796576873E+03  0.16462581129E+03 -0.59325414288E+03  0.71308210024E+03  0.91398958896E+02 0.  0.
         13    1    3    3    0    0  0.23084499528E+03  0.61282941974E+02 -0.37783771990E+03  0.44699703959E+03  0.00000000000E+00 0. -1.
        -13    1    3    3    0    0  0.11712077345E+03  0.10334286931E+03 -0.21541642298E+03  0.26608506065E+03  0.00000000000E+00 0.  1.
         22    1    1    2    0    0 -0.34796576873E+03 -0.16462581129E+03 -0.14861316113E+03  0.41263507559E+03  0.00000000000E+00 0. -1.
<mgrwt>
<rscale>  0 0.84668298E+03</rscale>
<asrwt>0</asrwt>
<pdfrwt beam="1">  1        1 0.29526913E-01 0.84668298E+03</pdfrwt>
<pdfrwt beam="2">  1       -1 0.14366035E+00 0.84668298E+03</pdfrwt>
<totfact> 0.62201102E+01</totfact>
</mgrwt>
</event>
<event>
 6    1  0.1614874E-005  0.1648306E+04  0.7818608E-02  0.8791409E-01
          3   -1    0    0  501    0  0.00000000000E+00  0.00000000000E+00  0.81367641470E+03  0.81367641470E+03  0.00000000000E+00 0. -1.
         -3   -1    0    0    0  501 -0.00000000000E+00 -0.00000000000E+00 -0.83476414028E+03  0.83476414028E+03  0.00000000000E+00 0.  1.
         23    2    1    2    0    0  0.52811167576E+03 -0.43640518214E+03  0.44289724006E+03  0.82101474355E+03  0.92497669151E+02 0.  0.
         13    1    3    3    0    0  0.43118603460E+03 -0.32305405773E+03  0.37917178452E+03  0.65882969182E+03  0.00000000000E+00 0. -1.
        -13    1    3    3    0    0  0.96925641158E+02 -0.11335112441E+03  0.63725455539E+02  0.16218505173E+03  0.00000000000E+00 0.  1.
         22    1    1    2    0    0 -0.52811167576E+03  0.43640518214E+03 -0.46398496565E+03  0.82742581143E+03  0.00000000000E+00 0.  1.
<mgrwt>
<rscale>  0 0.16483057E+04</rscale>
<asrwt>0</asrwt>
<pdfrwt beam="1">  1        3 0.12518099E+00 0.16483057E+04</pdfrwt>
<pdfrwt beam="2">  1       -3 0.12842525E+00 0.16483057E+04</pdfrwt>
<totfact> 0.61090896E-01</totfact>
</mgrwt>
</event>
<event>
 6    1  0.1614874E-005  0.1566613E+04  0.7818608E-02  0.8841326E-01
         -2   -1    0    0    0  501 -0.00000000000E+00  0.00000000000E+00  0.84828617230E+03  0.84828617230E+03  0.00000000000E+00 0.  1.
          2   -1    0    0  501    0  0.00000000000E+00 -0.00000000000E+00 -0.72330423960E+03  0.72330423960E+03  0.00000000000E+00 0. -1.
         23    2    1    2    0    0 -0.75954329823E+03 -0.12847622174E+03 -0.64693633908E+02  0.77825001711E+03  0.89864684010E+02 0.  0.
         13    1    3    3    0    0 -0.15452043585E+03 -0.35084143661E+02 -0.49013544220E+02  0.16586075409E+03  0.00000000000E+00 0. -1.
        -13    1    3    3    0    0 -0.60502286237E+03 -0.93392078074E+02 -0.15680089689E+02  0.61238926301E+03  0.00000000000E+00 0.  1.
         22    1    1    2    0    0  0.75954329823E+03  0.12847622174E+03  0.18967556661E+03  0.79334039479E+03  0.00000000000E+00 0.  1.
<mgrwt>
<rscale>  0 0.15666129E+04</rscale>
<asrwt>0</asrwt>
<pdfrwt beam="1">  1        2 0.11127758E+00 0.15666129E+04</pdfrwt>
<pdfrwt beam="2">  1       -2 0.13050556E+00 0.15666129E+04</pdfrwt>
<totfact> 0.16242071E+01</totfact>
</mgrwt>
</event>
<event>
 6    1  0.1614874E-005  0.2756162E+04  0.7818608E-02  0.8317009E-01
          1   -1    0    0  501    0  0.00000000000E+00  0.00000000000E+00  0.21528900126E+04  0.21528900126E+04  0.00000000000E+00 0. -1.
         -1   -1    0    0    0  501 -0.00000000000E+00 -0.00000000000E+00 -0.88212007516E+03  0.88212007516E+03  0.00000000000E+00 0.  1.
         23    2    1    2    0    0  0.56313766193E+03 -0.82593303350E+03  0.16782480080E+04  0.19555066000E+04  0.90555419947E+02 0.  0.
         13    1    3    3    0    0  0.13183092160E+03 -0.16980311118E+03  0.43193137817E+03  0.48246989948E+03  0.00000000000E+00 0. -1.
        -13    1    3    3    0    0  0.43130674033E+03 -0.65612992232E+03  0.12463166299E+04  0.14730367005E+04  0.00000000000E+00 0.  1.
         22    1    1    2    0    0 -0.56313766193E+03  0.82593303350E+03 -0.40747807057E+03  0.10795034878E+04  0.00000000000E+00 0.  1.
<mgrwt>
<rscale>  0 0.27561622E+04</rscale>
<asrwt>0</asrwt>
<pdfrwt beam="1">  1        1 0.33121385E+00 0.27561622E+04</pdfrwt>
<pdfrwt beam="2">  1       -1 0.13571078E+00 0.27561622E+04</pdfrwt>
<totfact> 0.92618540E-01</totfact>
</mgrwt>
</event>
<event>
 6    1  0.1614874E-005  0.1039312E+04  0.7818608E-02  0.9266448E-01
         -1   -1    0    0    0  501 -0.00000000000E+00  0.00000000000E+00  0.48021646152E+03  0.48021646152E+03  0.00000000000E+00 0.  1.
          1   -1    0    0  501    0  0.00000000000E+00 -0.00000000000E+00 -0.56233517892E+03  0.56233517892E+03  0.00000000000E+00 0. -1.
         23    2    1    2    0    0  0.24121993571E+03 -0.36920704220E+03  0.22655327962E+03  0.50424011434E+03  0.91819426097E+02 0.  0.
         13    1    3    3    0    0  0.11384740443E+03 -0.18795011813E+03  0.16353427523E+03  0.27391593159E+03  0.00000000000E+00 0. -1.
        -13    1    3    3    0    0  0.12737253127E+03 -0.18125692407E+03  0.63019004388E+02  0.23032418275E+03  0.00000000000E+00 0.  1.
         22    1    1    2    0    0 -0.24121993571E+03  0.36920704220E+03 -0.30867199702E+03  0.53831152610E+03  0.00000000000E+00 0. -1.
<mgrwt>
<rscale>  0 0.10393125E+04</rscale>
<asrwt>0</asrwt>
<pdfrwt beam="1">  1        1 0.86513104E-01 0.10393125E+04</pdfrwt>
<pdfrwt beam="2">  1       -1 0.73879456E-01 0.10393125E+04</pdfrwt>
<totfact> 0.69409499E+01</totfact>
</mgrwt>
</event>
<event>
 6    1  0.1657099E-005  0.2423286E+04  0.7818608E-02  0.8430837E-01
          2   -1    0    0  501    0  0.00000000000E+00  0.00000000000E+00  0.19780289491E+04  0.19780289491E+04  0.00000000000E+00 0. -1.
         -2   -1    0    0    0  501 -0.00000000000E+00 -0.00000000000E+00 -0.74219263980E+03  0.74219263980E+03  0.00000000000E+00 0.  1.
         23    2    1    2    0    0  0.11447890690E+04 -0.75812341811E+02  0.10511622478E+04  0.15581570328E+04  0.81374100287E+02 0.  0.
         13    1    3    3    0    0  0.32511209514E+03 -0.34192125356E+02  0.34716368430E+03  0.47685385553E+03  0.00000000000E+00 0.  1.
        -13    1    3    3    0    0  0.81967697382E+03 -0.41620216454E+02  0.70399856345E+03  0.10813031773E+04  0.00000000000E+00 0. -1.
         22    1    1    2    0    0 -0.11447890690E+04  0.75812341811E+02  0.18467406157E+03  0.11620645561E+04  0.00000000000E+00 0.  1.
<mgrwt>
<rscale>  0 0.24232858E+04</rscale>
<asrwt>0</asrwt>
<pdfrwt beam="1">  1        2 0.30431214E+00 0.24232858E+04</pdfrwt>
<pdfrwt beam="2">  1       -2 0.11418348E+00 0.24232858E+04</pdfrwt>
<totfact> 0.37005768E+00</totfact>
</mgrwt>
</event>
<event>
 6    1  0.1614874E-005  0.2021998E+04  0.7818608E-02  0.8596405E-01
          2   -1    0    0  501    0  0.00000000000E+00  0.00000000000E+00  0.25145238285E+04  0.25145238285E+04  0.00000000000E+00 0. -1.
         -2   -1    0    0    0  501 -0.00000000000E+00 -0.00000000000E+00 -0.40648593128E+03  0.40648593128E+03  0.00000000000E+00 0.  1.
         23    2    1    2    0    0  0.14075246622E+03  0.78012590398E+03  0.15471917463E+03  0.81296286399E+03  0.92536006021E+02 0.  0.
         13    1    3    3    0    0  0.65845562520E+02  0.27406509539E+03  0.13192691870E+02  0.28217257438E+03  0.00000000000E+00 0.  1.
        -13    1    3    3    0    0  0.74906903703E+02  0.50606080859E+03  0.14152648276E+03  0.53079028961E+03  0.00000000000E+00 0. -1.
         22    1    1    2    0    0 -0.14075246622E+03 -0.78012590398E+03  0.19533187226E+04  0.21080468958E+04  0.00000000000E+00 0. -1.
<mgrwt>
<rscale>  0 0.20219976E+04</rscale>
<asrwt>0</asrwt>
<pdfrwt beam="1">  1        2 0.38684981E+00 0.20219976E+04</pdfrwt>
<pdfrwt beam="2">  1       -2 0.62536299E-01 0.20219976E+04</pdfrwt>
<totfact> 0.75135626E+00</totfact>
</mgrwt>
</event>
<event>
 6    1  0.1614874E-005  0.5072188E+04  0.7818608E-02  0.7817467E-01
         -1   -1    0    0    0  501 -0.00000000000E+00  0.00000000000E+00  0.16585285459E+04  0.16585285459E+04  0.00000000000E+00 0.  1.
          1   -1    0    0  501    0  0.00000000000E+00 -0.00000000000E+00 -0.38780000339E+04  0.38780000339E+04  0.00000000000E+00 0. -1.
         23    2    1    2    0    0  0.68099470504E+03 -0.13907436322E+03  0.15511967967E+04  0.17023357338E+04  0.92951502072E+02 0.  0.
         11    1    3    3    0    0  0.22264827760E+03 -0.53894320349E+01  0.53829930139E+03  0.58255252069E+03  0.00000000000E+00 0.  1.
        -11    1    3    3    0    0  0.45834642745E+03 -0.13368493119E+03  0.10128974953E+04  0.11197832131E+04  0.00000000000E+00 0. -1.
         22    1    1    2    0    0 -0.68099470504E+03  0.13907436322E+03 -0.37706682847E+04  0.38341928460E+04  0.00000000000E+00 0. -1.
<mgrwt>
<rscale>  0 0.50721884E+04</rscale>
<asrwt>0</asrwt>
<pdfrwt beam="1">  1        1 0.59661538E+00 0.50721884E+04</pdfrwt>
<pdfrwt beam="2">  1       -1 0.25515824E+00 0.50721884E+04</pdfrwt>
<totfact> 0.56543686E-03</totfact>
</mgrwt>
</event>
<event>
 6    1  0.1614874E-005  0.3695893E+04  0.7818608E-02  0.8068873E-01
         -1   -1    0    0    0  501 -0.00000000000E+00  0.00000000000E+00  0.22604821998E+04  0.22604821998E+04  0.00000000000E+00 0.  1.
          1   -1    0    0  501    0  0.00000000000E+00 -0.00000000000E+00 -0.15106983345E+04  0.15106983345E+04  0.00000000000E+00 0. -1.
         23    2    1    2    0    0 -0.14709126409E+04  0.45829458247E+02 -0.76347562377E+03  0.16603421659E+04  0.90314690603E+02 0.  0.
         11    1    3    3    0    0 -0.51246303644E+03 -0.20952571039E+02 -0.24093715598E+03  0.56666399840E+03  0.00000000000E+00 0.  1.
        -11    1    3    3    0    0 -0.95844960450E+03  0.66782029286E+02 -0.52253846780E+03  0.10936781675E+04  0.00000000000E+00 0. -1.
         22    1    1    2    0    0  0.14709126409E+04 -0.45829458247E+02  0.15132594890E+04  0.21108383684E+04  0.00000000000E+00 0.  1.
<mgrwt>
<rscale>  0 0.36958932E+04</rscale>
<asrwt>0</asrwt>
<pdfrwt beam="1">  1        1 0.23241513E+00 0.36958932E+04</pdfrwt>
<pdfrwt beam="2">  1       -1 0.34776649E+00 0.36958932E+04</pdfrwt>
<totfact> 0.82942158E-02</totfact>
</mgrwt>
</event>
<event>
 6    1  0.1614874E-005  0.1882358E+04  0.7818608E-02  0.8663688E-01
         -2   -1    0    0    0  501 -0.00000000000E+00  0.00000000000E+00  0.85612609942E+03  0.85612609942E+03  0.00000000000E+00 0.  1.
          2   -1    0    0  501    0  0.00000000000E+00 -0.00000000000E+00 -0.10346816385E+04  0.10346816385E+04  0.00000000000E+00 0. -1.
         23    2    1    2    0    0  0.13493723883E+03 -0.83632527059E+03  0.31749563978E+03  0.90911797599E+03  0.89688328941E+02 0.  0.
         11    1    3    3    0    0  0.38209600697E+02 -0.48730951987E+03  0.20296486994E+03  0.52926862761E+03  0.00000000000E+00 0. -1.
        -11    1    3    3    0    0  0.96727638132E+02 -0.34901575071E+03  0.11453076984E+03  0.37984934838E+03  0.00000000000E+00 0.  1.
         22    1    1    2    0    0 -0.13493723883E+03  0.83632527059E+03 -0.49605117889E+03  0.98168976195E+03  0.00000000000E+00 0. -1.
<mgrwt>
<rscale>  0 0.18823580E+04</rscale>
<asrwt>0</asrwt>
<pdfrwt beam="1">  1        2 0.15918179E+00 0.18823580E+04</pdfrwt>
<pdfrwt beam="2">  1       -2 0.13171171E+00 0.18823580E+04</pdfrwt>
<totfact> 0.94315339E+00</totfact>
</mgrwt>
</event>
<event>
 6    1  0.1614874E-005  0.2781743E+04  0.7818608E-02  0.8308959E-01
         -1   -1    0    0    0  501 -0.00000000000E+00  0.00000000000E+00  0.11652225262E+04  0.11652225262E+04  0.00000000000E+00 0. -1.
          1   -1    0    0  501    0  0.00000000000E+00 -0.00000000000E+00 -0.16602185001E+04  0.16602185001E+04  0.00000000000E+00 0.  1.
         23    2    1    2    0    0  0.87313312083E+03 -0.95538299670E+03  0.26547140487E+03  0.13242985443E+04  0.90407137785E+02 0.  0.
         13    1    3    3    0    0  0.30955236794E+03 -0.30664254970E+03  0.51870142114E+02  0.43879702987E+03  0.00000000000E+00 0.  1.
        -13    1    3    3    0    0  0.56358075289E+03 -0.64874044700E+03  0.21360126276E+03  0.88550151443E+03  0.00000000000E+00 0. -1.
         22    1    1    2    0    0 -0.87313312083E+03  0.95538299670E+03 -0.76046737880E+03  0.15011424820E+04  0.00000000000E+00 0.  1.
<mgrwt>
<rscale>  0 0.27817433E+04</rscale>
<asrwt>0</asrwt>
<pdfrwt beam="1">  1        1 0.25541823E+00 0.27817433E+04</pdfrwt>
<pdfrwt beam="2">  1       -1 0.17926501E+00 0.27817433E+04</pdfrwt>
<totfact> 0.92684440E-01</totfact>
</mgrwt>
</event>
<event>
 6    1  0.1614874E-005  0.2157656E+04  0.7818608E-02  0.8536262E-01
          2   -1    0    0  501    0  0.00000000000E+00  0.00000000000E+00  0.18283627614E+04  0.18283627614E+04  0.00000000000E+00 0. -1.
         -2   -1    0    0    0  501 -0.00000000000E+00 -0.00000000000E+00 -0.63656420435E+03  0.63656420435E+03  0.00000000000E+00 0.  1.
         23    2    1    2    0    0 -0.40865870398E+03 -0.64734762237E+03  0.14619839686E+04  0.16531012226E+04  0.96362064107E+02 0.  0.
         11    1    3    3    0    0 -0.24768951534E+03 -0.42149981309E+03  0.10235195619E+04  0.11342858908E+04  0.00000000000E+00 0. -1.
        -11    1    3    3    0    0 -0.16096918863E+03 -0.22584780928E+03  0.43846440669E+03  0.51881533187E+03  0.00000000000E+00 0.  1.
         22    1    1    2    0    0  0.40865870398E+03  0.64734762237E+03 -0.27018541155E+03  0.81182574309E+03  0.00000000000E+00 0.  1.
<mgrwt>
<rscale>  0 0.21576564E+04</rscale>
<asrwt>0</asrwt>
<pdfrwt beam="1">  1        2 0.28128658E+00 0.21576564E+04</pdfrwt>
<pdfrwt beam="2">  1       -2 0.97932955E-01 0.21576564E+04</pdfrwt>
<totfact> 0.66235459E+00</totfact>
</mgrwt>
</event>
<event>
 6    1  0.1614874E-005  0.1068405E+04  0.7818608E-02  0.9236545E-01
         -2   -1    0    0    0  501 -0.00000000000E+00  0.00000000000E+00  0.28540907942E+03  0.28540907942E+03  0.00000000000E+00 0. -1.
          2   -1    0    0  501    0  0.00000000000E+00 -0.00000000000E+00 -0.99987195859E+03  0.99987195859E+03  0.00000000000E+00 0.  1.
         23    2    1    2    0    0  0.10285083121E+03 -0.40505800140E+03  0.31545230721E+02  0.43019134798E+03  0.97052647114E+02 0.  0.
         11    1    3    3    0    0  0.99579388761E+02 -0.26003212810E+03 -0.12085423814E+02  0.27870920290E+03  0.00000000000E+00 0. -1.
        -11    1    3    3    0    0  0.32714424464E+01 -0.14502587330E+03  0.43630654535E+02  0.15148214508E+03  0.00000000000E+00 0.  1.
         22    1    1    2    0    0 -0.10285083121E+03  0.40505800140E+03 -0.74600810989E+03  0.85508969003E+03  0.00000000000E+00 0.  1.
<mgrwt>
<rscale>  0 0.10684054E+04</rscale>
<asrwt>0</asrwt>
<pdfrwt beam="1">  1        2 0.15382646E+00 0.10684054E+04</pdfrwt>
<pdfrwt beam="2">  1       -2 0.43909088E-01 0.10684054E+04</pdfrwt>
<totfact> 0.12318906E+02</totfact>
</mgrwt>
</event>
<event>
 6    1  0.1614874E-005  0.4349597E+04  0.7818608E-02  0.7937510E-01
         -2   -1    0    0    0  501 -0.00000000000E+00  0.00000000000E+00  0.19325202444E+04  0.19325202444E+04  0.00000000000E+00 0.  1.
          2   -1    0    0  501    0  0.00000000000E+00 -0.00000000000E+00 -0.24474510493E+04  0.24474510493E+04  0.00000000000E+00 0. -1.
         23    2    1    2    0    0 -0.18768198409E+04 -0.10904526924E+04 -0.37768306970E+03  0.22050283679E+04  0.89251400884E+02 0.  0.
         11    1    3    3    0    0 -0.12588252262E+04 -0.68248111774E+03 -0.24992592611E+03  0.14535764152E+04  0.00000000000E+00 0. -1.
        -11    1    3    3    0    0 -0.61799461469E+03 -0.40797157468E+03 -0.12775714359E+03  0.75145195274E+03  0.00000000000E+00 0.  1.
         22    1    1    2    0    0  0.18768198409E+04  0.10904526924E+04 -0.13724773516E+03  0.21749429258E+04  0.00000000000E+00 0.  1.
<mgrwt>
<rscale>  0 0.43495971E+04</rscale>
<asrwt>0</asrwt>
<pdfrwt beam="1">  1        2 0.37653093E+00 0.43495971E+04</pdfrwt>
<pdfrwt beam="2">  1       -2 0.29731081E+00 0.43495971E+04</pdfrwt>
<totfact> 0.94525999E-02</totfact>
</mgrwt>
</event>
<event>
 6    1  0.1614874E-005  0.4987988E+04  0.7818608E-02  0.7830363E-01
         -2   -1    0    0    0  501 -0.00000000000E+00  0.00000000000E+00  0.21481734665E+04  0.21481734665E+04  0.00000000000E+00 0.  1.
          2   -1    0    0  501    0  0.00000000000E+00 -0.00000000000E+00 -0.28954858976E+04  0.28954858976E+04  0.00000000000E+00 0. -1.
         23    2    1    2    0    0 -0.71517212785E+03 -0.13440602090E+04  0.16225907424E+04  0.22268508741E+04  0.89972662979E+02 0.  0.
         13    1    3    3    0    0 -0.36282484468E+03 -0.60418533523E+03  0.71221174297E+03  0.10019617528E+04  0.00000000000E+00 0.  1.
        -13    1    3    3    0    0 -0.35234728317E+03 -0.73987487376E+03  0.91037899946E+03  0.12248891213E+04  0.00000000000E+00 0. -1.
         22    1    1    2    0    0  0.71517212785E+03  0.13440602090E+04 -0.23699031735E+04  0.28168084901E+04  0.00000000000E+00 0. -1.
<mgrwt>
<rscale>  0 0.49879880E+04</rscale>
<asrwt>0</asrwt>
<pdfrwt beam="1">  1        2 0.44545937E+00 0.49879880E+04</pdfrwt>
<pdfrwt beam="2">  1       -2 0.33048823E+00 0.49879880E+04</pdfrwt>
<totfact> 0.30364667E-02</totfact>
</mgrwt>
</event>
<event>
 6    1  0.1614874E-005  0.1628909E+04  0.7818608E-02  0.8802982E-01
          2   -1    0    0  501    0  0.00000000000E+00  0.00000000000E+00  0.15207536841E+04  0.15207536841E+04  0.00000000000E+00 0. -1.
         -2   -1    0    0    0  501 -0.00000000000E+00 -0.00000000000E+00 -0.43618932010E+03  0.43618932010E+03  0.00000000000E+00 0.  1.
         23    2    1    2    0    0  0.42856899009E+03 -0.54369260644E+03  0.10534795662E+04  0.12639500069E+04  0.92072765240E+02 0.  0.
         11    1    3    3    0    0  0.14822663913E+03 -0.18044002432E+03  0.43665232186E+03  0.49517167640E+03  0.00000000000E+00 0. -1.
        -11    1    3    3    0    0  0.28034235096E+03 -0.36325258211E+03  0.61682724432E+03  0.76877833053E+03  0.00000000000E+00 0.  1.
         22    1    1    2    0    0 -0.42856899009E+03  0.54369260644E+03  0.31084797789E+02  0.69299299724E+03  0.00000000000E+00 0.  1.
<mgrwt>
<rscale>  0 0.16289095E+04</rscale>
<asrwt>0</asrwt>
<pdfrwt beam="1">  1        2 0.23396210E+00 0.16289095E+04</pdfrwt>
<pdfrwt beam="2">  1       -2 0.67106050E-01 0.16289095E+04</pdfrwt>
<totfact> 0.24090005E+01</totfact>
</mgrwt>
</event>
<event>
 6    1  0.1614874E-005  0.1188233E+04  0.7818608E-02  0.9123219E-01
         -2   -1    0    0    0  501 -0.00000000000E+00  0.00000000000E+00  0.84418566898E+03  0.84418566898E+03  0.00000000000E+00 0.  1.
          2   -1    0    0  501    0  0.00000000000E+00 -0.00000000000E+00 -0.41812404810E+03  0.41812404810E+03  0.00000000000E+00 0. -1.
         23    2    1    2    0    0  0.27796737102E+03 -0.35445907825E+03 -0.19138208694E+03  0.49801669092E+03  0.92121787510E+02 0.  0.
         11    1    3    3    0    0  0.12355813149E+03 -0.12362947801E+03 -0.11760856191E+03  0.21067186220E+03  0.00000000000E+00 0. -1.
        -11    1    3    3    0    0  0.15440923953E+03 -0.23082960023E+03 -0.73773525038E+02  0.28734482872E+03  0.00000000000E+00 0.  1.
         22    1    1    2    0    0 -0.27796737102E+03  0.35445907825E+03  0.61744370782E+03  0.76429302616E+03  0.00000000000E+00 0.  1.
<mgrwt>
<rscale>  0 0.11882329E+04</rscale>
<asrwt>0</asrwt>
<pdfrwt beam="1">  1        2 0.64326777E-01 0.11882329E+04</pdfrwt>
<pdfrwt beam="2">  1       -2 0.12987472E+00 0.11882329E+04</pdfrwt>
<totfact> 0.32492466E+01</totfact>
</mgrwt>
</event>
<event>
 6    1  0.1614874E-005  0.3270805E+03  0.7818608E-02  0.1072436E+00
          1   -1    0    0  501    0  0.00000000000E+00  0.00000000000E+00  0.12298652818E+04  0.12298652818E+04  0.00000000000E+00 0. -1.
         -1   -1    0    0    0  501 -0.00000000000E+00 -0.00000000000E+00 -0.21746621640E+02  0.21746621640E+02  0.00000000000E+00 0.  1.
         23    2    1    2    0    0 -0.83155148157E+01 -0.12983893352E+03  0.92828990620E+03  0.94301600589E+03  0.10310063507E+03 0.  0.
         11    1    3    3    0    0 -0.23940021611E+01 -0.82845493636E+02  0.25648456894E+03  0.26954302285E+03  0.00000000000E+00 0.  1.
        -11    1    3    3    0    0 -0.59215126546E+01 -0.46993439888E+02  0.67180533726E+03  0.67347298304E+03  0.00000000000E+00 0. -1.
         22    1    1    2    0    0  0.83155148157E+01  0.12983893352E+03  0.27982875393E+03  0.30859589753E+03  0.00000000000E+00 0.  1.
<mgrwt>
<rscale>  0 0.32708051E+03</rscale>
<asrwt>0</asrwt>
<pdfrwt beam="1">  1        1 0.18920999E+00 0.32708051E+03</pdfrwt>
<pdfrwt beam="2">  1       -1 0.33456351E-02 0.32708051E+03</pdfrwt>
<totfact> 0.35089263E+03</totfact>
</mgrwt>
</event>
<event>
 6    1  0.1614874E-005  0.2068681E+04  0.7818608E-02  0.8575167E-01
          2   -1    0    0  501    0  0.00000000000E+00  0.00000000000E+00  0.11977410765E+04  0.11977410765E+04  0.00000000000E+00 0. -1.
         -2   -1    0    0    0  501 -0.00000000000E+00 -0.00000000000E+00 -0.89323154601E+03  0.89323154601E+03  0.00000000000E+00 0.  1.
         23    2    1    2    0    0  0.39104612596E+03  0.52383799637E+03  0.96019314507E+03  0.11650977273E+04  0.90324521885E+02 0.  0.
         13    1    3    3    0    0  0.18173729682E+03  0.22079498328E+03  0.49611754158E+03  0.57263556016E+03  0.00000000000E+00 0. -1.
        -13    1    3    3    0    0  0.20930882914E+03  0.30304301309E+03  0.46407560350E+03  0.59246216714E+03  0.00000000000E+00 0.  1.
         22    1    1    2    0    0 -0.39104612596E+03 -0.52383799637E+03 -0.65568361460E+03  0.92587489518E+03  0.00000000000E+00 0.  1.
<mgrwt>
<rscale>  0 0.20686808E+04</rscale>
<asrwt>0</asrwt>
<pdfrwt beam="1">  1        2 0.18426786E+00 0.20686808E+04</pdfrwt>
<pdfrwt beam="2">  1       -2 0.13742024E+00 0.20686808E+04</pdfrwt>
<totfact> 0.66171253E+00</totfact>
</mgrwt>
</event>
<event>
 6    1  0.1614874E-005  0.2435070E+04  0.7818608E-02  0.8426489E-01
          2   -1    0    0  501    0  0.00000000000E+00  0.00000000000E+00  0.20661740487E+04  0.20661740487E+04  0.00000000000E+00 0. -1.
         -2   -1    0    0    0  501 -0.00000000000E+00 -0.00000000000E+00 -0.71745704162E+03  0.71745704162E+03  0.00000000000E+00 0.  1.
         23    2    1    2    0    0  0.62289062521E+03 -0.85496061837E+03  0.13619674765E+04  0.17257435893E+04  0.65460974592E+02 0.  0.
         13    1    3    3    0    0  0.25386605610E+03 -0.30028482539E+03  0.48286118338E+03  0.62271492130E+03  0.00000000000E+00 0. -1.
        -13    1    3    3    0    0  0.36902456910E+03 -0.55467579298E+03  0.87910629308E+03  0.11030286680E+04  0.00000000000E+00 0.  1.
         22    1    1    2    0    0 -0.62289062521E+03  0.85496061837E+03 -0.13250469330E+02  0.10578875010E+04  0.00000000000E+00 0.  1.
<mgrwt>
<rscale>  0 0.24350697E+04</rscale>
<asrwt>0</asrwt>
<pdfrwt beam="1">  1        2 0.31787293E+00 0.24350697E+04</pdfrwt>
<pdfrwt beam="2">  1       -2 0.11037801E+00 0.24350697E+04</pdfrwt>
<totfact> 0.35853545E+00</totfact>
</mgrwt>
</event>
<event>
 6    1  0.1614874E-005  0.1187757E+04  0.7818608E-02  0.9123641E-01
          2   -1    0    0  501    0  0.00000000000E+00  0.00000000000E+00  0.36809414177E+04  0.36809414177E+04  0.00000000000E+00 0. -1.
         -2   -1    0    0    0  501 -0.00000000000E+00 -0.00000000000E+00 -0.95815625071E+02  0.95815625071E+02  0.00000000000E+00 0.  1.
         23    2    1    2    0    0 -0.11732864699E+03  0.62909387009E+02  0.36320631458E+04  0.36355950170E+04  0.89133779497E+02 0.  0.
         13    1    3    3    0    0 -0.72566542963E+02  0.14539257044E+02  0.27807677443E+04  0.27817524226E+04  0.00000000000E+00 0.  1.
        -13    1    3    3    0    0 -0.44762104030E+02  0.48370129965E+02  0.85129540152E+03  0.85384259444E+03  0.00000000000E+00 0. -1.
         22    1    1    2    0    0  0.11732864699E+03 -0.62909387009E+02 -0.46937353171E+02  0.14116202571E+03  0.00000000000E+00 0.  1.
<mgrwt>
<rscale>  0 0.11877571E+04</rscale>
<asrwt>0</asrwt>
<pdfrwt beam="1">  1        2 0.56629857E+00 0.11877571E+04</pdfrwt>
<pdfrwt beam="2">  1       -2 0.14740868E-01 0.11877571E+04</pdfrwt>
<totfact> 0.22218341E+01</totfact>
</mgrwt>
</event>
<event>
 6    1  0.1614874E-005  0.1250899E+04  0.7818608E-02  0.9069435E-01
         -1   -1    0    0    0  501 -0.00000000000E+00  0.00000000000E+00  0.16948889967E+04  0.16948889967E+04  0.00000000000E+00 0.  1.
          1   -1    0    0  501    0  0.00000000000E+00 -0.00000000000E+00 -0.23080389496E+03  0.23080389496E+03  0.00000000000E+00 0. -1.
         23    2    1    2    0    0 -0.42402926076E+03 -0.70041687531E+01  0.14366435219E+04  0.15007188775E+04  0.91447624512E+02 0.  0.
         13    1    3    3    0    0 -0.39053283744E+03 -0.33955765566E+01  0.13853727077E+04  0.14393696420E+04  0.00000000000E+00 0.  1.
        -13    1    3    3    0    0 -0.33496423322E+02 -0.36085921965E+01  0.51270814183E+02  0.61349235529E+02  0.00000000000E+00 0. -1.
         22    1    1    2    0    0  0.42402926076E+03  0.70041687531E+01  0.27441579837E+02  0.42497401411E+03  0.00000000000E+00 0. -1.
<mgrwt>
<rscale>  0 0.12508988E+04</rscale>
<asrwt>0</asrwt>
<pdfrwt beam="1">  1        1 0.35508293E-01 0.12508988E+04</pdfrwt>
<pdfrwt beam="2">  1       -1 0.26075215E+00 0.12508988E+04</pdfrwt>
<totfact> 0.72390798E+00</totfact>
</mgrwt>
</event>
<event>
 6    1  0.1614874E-005  0.2175209E+04  0.7818608E-02  0.8528818E-01
         -1   -1    0    0    0  501 -0.00000000000E+00  0.00000000000E+00  0.28095271009E+04  0.28095271009E+04  0.00000000000E+00 0.  1.
          1   -1    0    0  501    0  0.00000000000E+00 -0.00000000000E+00 -0.42102600551E+03  0.42102600551E+03  0.00000000000E+00 0. -1.
         23    2    1    2    0    0 -0.61261712963E+03  0.41627220678E+03  0.23751740737E+04  0.24897697999E+04  0.94442990152E+02 0.  0.
         13    1    3    3    0    0 -0.45939245132E+03  0.34892180475E+03  0.19203706832E+04  0.20051462318E+04  0.00000000000E+00 0. -1.
        -13    1    3    3    0    0 -0.15322467831E+03  0.67350402029E+02  0.45480339053E+03  0.48462356807E+03  0.00000000000E+00 0.  1.
         22    1    1    2    0    0  0.61261712963E+03 -0.41627220678E+03  0.13327021642E+02  0.74078330648E+03  0.00000000000E+00 0. -1.
<mgrwt>
<rscale>  0 0.21752094E+04</rscale>
<asrwt>0</asrwt>
<pdfrwt beam="1">  1        1 0.64773233E-01 0.21752094E+04</pdfrwt>
<pdfrwt beam="2">  1       -1 0.43223493E+00 0.21752094E+04</pdfrwt>
<totfact> 0.21980511E-01</totfact>
</mgrwt>
</event>
<event>
 6    1  0.1614874E-005  0.2685826E+04  0.7818608E-02  0.8339619E-01
          2   -1    0    0  501    0  0.00000000000E+00  0.00000000000E+00  0.25818538642E+04  0.25818538642E+04  0.00000000000E+00 0. -1.
         -2   -1    0    0    0  501 -0.00000000000E+00 -0.00000000000E+00 -0.69849622216E+03  0.69849622216E+03  0.00000000000E+00 0.  1.
         23    2    1    2    0    0  0.84514356617E+03  0.57793975100E+03 -0.11559226674E+03  0.10344465397E+04  0.91848070596E+02 0.  0.
         13    1    3    3    0    0  0.47996015541E+03  0.27279976188E+03 -0.64334858721E+02  0.55580611270E+03  0.00000000000E+00 0. -1.
        -13    1    3    3    0    0  0.36518341076E+03  0.30513998911E+03 -0.51257408014E+02  0.47864042697E+03  0.00000000000E+00 0.  1.
         22    1    1    2    0    0 -0.84514356617E+03 -0.57793975100E+03  0.19989499087E+04  0.22459035467E+04  0.00000000000E+00 0. -1.
<mgrwt>
<rscale>  0 0.26858259E+04</rscale>
<asrwt>0</asrwt>
<pdfrwt beam="1">  1        2 0.39720828E+00 0.26858259E+04</pdfrwt>
<pdfrwt beam="2">  1       -2 0.10746096E+00 0.26858259E+04</pdfrwt>
<totfact> 0.19038147E+00</totfact>
</mgrwt>
</event>
<event>
 6    1  0.1614874E-005  0.1546982E+04  0.7818608E-02  0.8853798E-01
         -3   -1    0    0    0  501 -0.00000000000E+00  0.00000000000E+00  0.58161655335E+03  0.58161655335E+03  0.00000000000E+00 0.  1.
          3   -1    0    0  501    0  0.00000000000E+00 -0.00000000000E+00 -0.10286641576E+04  0.10286641576E+04  0.00000000000E+00 0. -1.
         23    2    1    2    0    0  0.53562584117E+03 -0.39173876242E+03 -0.63249475688E+03  0.92126333373E+03  0.91226163362E+02 0.  0.
         13    1    3    3    0    0  0.12461049978E+03 -0.14186546069E+03 -0.17930595364E+03  0.26039241656E+03  0.00000000000E+00 0. -1.
        -13    1    3    3    0    0  0.41101534139E+03 -0.24987330173E+03 -0.45318880323E+03  0.66087091716E+03  0.00000000000E+00 0.  1.
         22    1    1    2    0    0 -0.53562584117E+03  0.39173876242E+03  0.18544715261E+03  0.68901737723E+03  0.00000000000E+00 0.  1.
<mgrwt>
<rscale>  0 0.15469817E+04</rscale>
<asrwt>0</asrwt>
<pdfrwt beam="1">  1        3 0.15825602E+00 0.15469817E+04</pdfrwt>
<pdfrwt beam="2">  1       -3 0.89479471E-01 0.15469817E+04</pdfrwt>
<totfact> 0.80107602E-01</totfact>
</mgrwt>
</event>
<event>
 6    1  0.1614874E-005  0.1378824E+04  0.7818608E-02  0.8969291E-01
          1   -1    0    0  501    0  0.00000000000E+00  0.00000000000E+00  0.52349581328E+03  0.52349581328E+03  0.00000000000E+00 0. -1.
         -1   -1    0    0    0  501 -0.00000000000E+00 -0.00000000000E+00 -0.90791370228E+03  0.90791370228E+03  0.00000000000E+00 0.  1.
         23    2    1    2    0    0  0.17995367305E+03  0.61072321856E+03  0.73143256726E+02  0.64736335862E+03  0.91450576493E+02 0.  0.
         13    1    3    3    0    0  0.39573178006E+02  0.28871883699E+03  0.20145232224E+02  0.29211373407E+03  0.00000000000E+00 0.  1.
        -13    1    3    3    0    0  0.14038049505E+03  0.32200438158E+03  0.52998024502E+02  0.35524962455E+03  0.00000000000E+00 0. -1.
         22    1    1    2    0    0 -0.17995367305E+03 -0.61072321856E+03 -0.45756114572E+03  0.78404615694E+03  0.00000000000E+00 0.  1.
<mgrwt>
<rscale>  0 0.13788242E+04</rscale>
<asrwt>0</asrwt>
<pdfrwt beam="1">  1        1 0.80537819E-01 0.13788242E+04</pdfrwt>
<pdfrwt beam="2">  1       -1 0.13967903E+00 0.13788242E+04</pdfrwt>
<totfact> 0.17127790E+01</totfact>
</mgrwt>
</event>
<event>
 6    1  0.1614874E-005  0.1493122E+04  0.7818608E-02  0.8889040E-01
          2   -1    0    0  501    0  0.00000000000E+00  0.00000000000E+00  0.23234060444E+04  0.23234060444E+04  0.00000000000E+00 0.  1.
         -2   -1    0    0    0  501 -0.00000000000E+00 -0.00000000000E+00 -0.23988624444E+03  0.23988624444E+03  0.00000000000E+00 0. -1.
         23    2    1    2    0    0  0.23617605294E+03  0.40481030179E+03  0.20368615387E+04  0.20923066184E+04  0.96392682462E+02 0.  0.
         13    1    3    3    0    0  0.45330737973E+02  0.13023757257E+03  0.75863216091E+03  0.77106384735E+03  0.00000000000E+00 0.  1.
        -13    1    3    3    0    0  0.19084531496E+03  0.27457272922E+03  0.12782293778E+04  0.13212427711E+04  0.00000000000E+00 0. -1.
         22    1    1    2    0    0 -0.23617605294E+03 -0.40481030179E+03  0.46658261279E+02  0.47098567044E+03  0.00000000000E+00 0. -1.
<mgrwt>
<rscale>  0 0.14931218E+04</rscale>
<asrwt>0</asrwt>
<pdfrwt beam="1">  1        2 0.35744707E+00 0.14931218E+04</pdfrwt>
<pdfrwt beam="2">  1       -2 0.36905578E-01 0.14931218E+04</pdfrwt>
<totfact> 0.29454391E+01</totfact>
</mgrwt>
</event>
<event>
 6    1  0.1614874E-005  0.1901873E+04  0.7818608E-02  0.8653924E-01
         -1   -1    0    0    0  501 -0.00000000000E+00  0.00000000000E+00  0.90652130219E+03  0.90652130219E+03  0.00000000000E+00 0.  1.
          1   -1    0    0  501    0  0.00000000000E+00 -0.00000000000E+00 -0.99752810828E+03  0.99752810828E+03  0.00000000000E+00 0. -1.
         23    2    1    2    0    0  0.62097263717E+03 -0.10974778509E+02  0.67238206642E+03  0.91993049868E+03  0.91907656220E+02 0.  0.
         13    1    3    3    0    0  0.25310960882E+03 -0.40409053929E+02  0.23589366586E+03  0.34834349040E+03  0.00000000000E+00 0. -1.
        -13    1    3    3    0    0  0.36786302835E+03  0.29434275420E+02  0.43648840057E+03  0.57158700827E+03  0.00000000000E+00 0.  1.
         22    1    1    2    0    0 -0.62097263717E+03  0.10974778509E+02 -0.76338887251E+03  0.98411891179E+03  0.00000000000E+00 0. -1.
<mgrwt>
<rscale>  0 0.19018733E+04</rscale>
<asrwt>0</asrwt>
<pdfrwt beam="1">  1        1 0.15346586E+00 0.19018733E+04</pdfrwt>
<pdfrwt beam="2">  1       -1 0.13946482E+00 0.19018733E+04</pdfrwt>
<totfact> 0.60202710E+00</totfact>
</mgrwt>
</event>
<event>
 6    1  0.1796006E-005  0.4142322E+04  0.7818608E-02  0.7976435E-01
         -1   -1    0    0    0  501 -0.00000000000E+00  0.00000000000E+00  0.12057248042E+04  0.12057248042E+04  0.00000000000E+00 0.  1.
          1   -1    0    0  501    0  0.00000000000E+00 -0.00000000000E+00 -0.35577838985E+04  0.35577838985E+04  0.00000000000E+00 0. -1.
         23    2    1    2    0    0  0.13013214002E+04  0.33128426191E+03 -0.29884242476E+04  0.32775251035E+04  0.91129971671E+02 0.  0.
         11    1    3    3    0    0  0.70604442664E+03  0.18099256879E+03 -0.17320124718E+04  0.18791285866E+04  0.00000000000E+00 0. -1.
        -11    1    3    3    0    0  0.59527697358E+03  0.15029169312E+03 -0.12564117757E+04  0.13983965169E+04  0.00000000000E+00 0.  1.
         22    1    1    2    0    0 -0.13013214002E+04 -0.33128426191E+03  0.63636515326E+03  0.14859835992E+04  0.00000000000E+00 0.  1.
<mgrwt>
<rscale>  0 0.41423222E+04</rscale>
<asrwt>0</asrwt>
<pdfrwt beam="1">  1        1 0.54735136E+00 0.41423222E+04</pdfrwt>
<pdfrwt beam="2">  1       -1 0.18549613E+00 0.41423222E+04</pdfrwt>
<totfact> 0.33017080E-02</totfact>
</mgrwt>
</event>
<event>
 6    1  0.1614874E-005  0.1730370E+04  0.7818608E-02  0.8744230E-01
          1   -1    0    0  501    0  0.00000000000E+00  0.00000000000E+00  0.36659891319E+03  0.36659891319E+03  0.00000000000E+00 0. -1.
         -1   -1    0    0    0  501 -0.00000000000E+00 -0.00000000000E+00 -0.20418643674E+04  0.20418643674E+04  0.00000000000E+00 0.  1.
         23    2    1    2    0    0 -0.71342245333E+03  0.26333253254E+03 -0.14072023537E+04  0.16021299466E+04  0.91029017198E+02 0.  0.
         13    1    3    3    0    0 -0.55448344484E+03  0.21334852238E+03 -0.11708002855E+04  0.13129138552E+04  0.00000000000E+00 0. -1.
        -13    1    3    3    0    0 -0.15893900850E+03  0.49984010155E+02 -0.23640206814E+03  0.28921609138E+03  0.00000000000E+00 0.  1.
         22    1    1    2    0    0  0.71342245333E+03 -0.26333253254E+03 -0.26806310049E+03  0.80633333396E+03  0.00000000000E+00 0. -1.
<mgrwt>
<rscale>  0 0.17303702E+04</rscale>
<asrwt>0</asrwt>
<pdfrwt beam="1">  1        1 0.56399835E-01 0.17303702E+04</pdfrwt>
<pdfrwt beam="2">  1       -1 0.31413297E+00 0.17303702E+04</pdfrwt>
<totfact> 0.17123005E+00</totfact>
</mgrwt>
</event>
<event>
 6    1  0.1614874E-005  0.2012534E+04  0.7818608E-02  0.8600783E-01
          2   -1    0    0  501    0  0.00000000000E+00  0.00000000000E+00  0.95724918114E+03  0.95724918114E+03  0.00000000000E+00 0.  1.
         -2   -1    0    0    0  501 -0.00000000000E+00 -0.00000000000E+00 -0.10577947512E+04  0.10577947512E+04  0.00000000000E+00 0. -1.
         23    2    1    2    0    0  0.51276269952E+01 -0.44331404425E+03 -0.95247619911E+03  0.10546588892E+04  0.92416602114E+02 0.  0.
         11    1    3    3    0    0 -0.91082391866E+01 -0.20013069165E+03 -0.32788024171E+03  0.38424042820E+03  0.00000000000E+00 0. -1.
        -11    1    3    3    0    0  0.14235866182E+02 -0.24318335259E+03 -0.62459595741E+03  0.67041846102E+03  0.00000000000E+00 0.  1.
         22    1    1    2    0    0 -0.51276269952E+01  0.44331404425E+03  0.85193062904E+03  0.96038504313E+03  0.00000000000E+00 0.  1.
<mgrwt>
<rscale>  0 0.20125339E+04</rscale>
<asrwt>0</asrwt>
<pdfrwt beam="1">  1        2 0.14726911E+00 0.20125339E+04</pdfrwt>
<pdfrwt beam="2">  1       -2 0.16273765E+00 0.20125339E+04</pdfrwt>
<totfact> 0.59920458E+00</totfact>
</mgrwt>
</event>
<event>
 6    1  0.1614874E-005  0.2118798E+04  0.7818608E-02  0.8553008E-01
         -2   -1    0    0    0  501 -0.00000000000E+00  0.00000000000E+00  0.25156618027E+03  0.25156618027E+03  0.00000000000E+00 0.  1.
          2   -1    0    0  501    0  0.00000000000E+00 -0.00000000000E+00 -0.44613559478E+04  0.44613559478E+04  0.00000000000E+00 0. -1.
         23    2    1    2    0    0 -0.33881425411E+03 -0.99674106526E+03 -0.23303351451E+04  0.25587082279E+04  0.90763742737E+02 0.  0.
         11    1    3    3    0    0 -0.15382288421E+03 -0.51047941889E+03 -0.10791648150E+04  0.12036807778E+04  0.00000000000E+00 0. -1.
        -11    1    3    3    0    0 -0.18499136990E+03 -0.48626164637E+03 -0.12511703301E+04  0.13550274501E+04  0.00000000000E+00 0.  1.
         22    1    1    2    0    0  0.33881425411E+03  0.99674106526E+03 -0.18794546224E+04  0.21542139002E+04  0.00000000000E+00 0.  1.
<mgrwt>
<rscale>  0 0.21187980E+04</rscale>
<asrwt>0</asrwt>
<pdfrwt beam="1">  1        2 0.68636243E+00 0.21187980E+04</pdfrwt>
<pdfrwt beam="2">  1       -2 0.38702491E-01 0.21187980E+04</pdfrwt>
<totfact> 0.78914575E-01</totfact>
</mgrwt>
</event>
<event>
 6    1  0.1614874E-005  0.1496061E+04  0.7818608E-02  0.8887077E-01
          2   -1    0    0  501    0  0.00000000000E+00  0.00000000000E+00  0.10846863840E+04  0.10846863840E+04  0.00000000000E+00 0. -1.
         -2   -1    0    0    0  501 -0.00000000000E+00 -0.00000000000E+00 -0.51586307620E+03  0.51586307620E+03  0.00000000000E+00 0.  1.
         23    2    1    2    0    0 -0.44083678918E+03 -0.29857032977E+02  0.92732722383E+03  0.10315559849E+04  0.94569830505E+02 0.  0.
         13    1    3    3    0    0 -0.18377560673E+03  0.32977243998E+02  0.40802164152E+03  0.44871219306E+03  0.00000000000E+00 0. -1.
        -13    1    3    3    0    0 -0.25706118245E+03 -0.62834276975E+02  0.51930558231E+03  0.58284379185E+03  0.00000000000E+00 0.  1.
         22    1    1    2    0    0  0.44083678918E+03  0.29857032977E+02 -0.35850391602E+03  0.56899347529E+03  0.00000000000E+00 0.  1.
<mgrwt>
<rscale>  0 0.14960610E+04</rscale>
<asrwt>0</asrwt>
<pdfrwt beam="1">  1        2 0.16687483E+00 0.14960610E+04</pdfrwt>
<pdfrwt beam="2">  1       -2 0.79363550E-01 0.14960610E+04</pdfrwt>
<totfact> 0.30293731E+01</totfact>
</mgrwt>
</event>
<event>
 6    1  0.1614874E-005  0.2344247E+04  0.7818608E-02  0.8460677E-01
          1   -1    0    0  501    0  0.00000000000E+00  0.00000000000E+00  0.24513949538E+04  0.24513949538E+04  0.00000000000E+00 0. -1.
         -1   -1    0    0    0  501 -0.00000000000E+00 -0.00000000000E+00 -0.56044571905E+03  0.56044571905E+03  0.00000000000E+00 0.  1.
         23    2    1    2    0    0  0.41479206021E+03  0.99084128652E+03  0.35028659151E+03  0.11336872477E+04  0.93419328957E+02 0.  0.
         11    1    3    3    0    0  0.41121993038E+03  0.93404685143E+03  0.34102837876E+03  0.10760323912E+04  0.00000000000E+00 0.  1.
        -11    1    3    3    0    0  0.35721298248E+01  0.56794435092E+02  0.92582127512E+01  0.57654856450E+02  0.00000000000E+00 0. -1.
         22    1    1    2    0    0 -0.41479206021E+03 -0.99084128652E+03  0.15406626433E+04  0.18781534252E+04  0.00000000000E+00 0. -1.
<mgrwt>
<rscale>  0 0.23442473E+04</rscale>
<asrwt>0</asrwt>
<pdfrwt beam="1">  1        1 0.37713768E+00 0.23442473E+04</pdfrwt>
<pdfrwt beam="2">  1       -1 0.86222420E-01 0.23442473E+04</pdfrwt>
<totfact> 0.17492619E+00</totfact>
</mgrwt>
</event>
<event>
 6    1  0.1614874E-005  0.3181369E+04  0.7818608E-02  0.8193755E-01
         -2   -1    0    0    0  501 -0.00000000000E+00  0.00000000000E+00  0.10234663002E+04  0.10234663002E+04  0.00000000000E+00 0.  1.
          2   -1    0    0  501    0  0.00000000000E+00 -0.00000000000E+00 -0.24722627099E+04  0.24722627099E+04  0.00000000000E+00 0. -1.
         23    2    1    2    0    0 -0.48524686295E+03 -0.75897336445E+02 -0.23859630826E+04  0.24376617643E+04  0.90278024327E+02 0.  0.
         13    1    3    3    0    0 -0.30481155830E+03 -0.13406482906E+02 -0.13273250992E+04  0.13619404315E+04  0.00000000000E+00 0.  1.
        -13    1    3    3    0    0 -0.18043530465E+03 -0.62490853539E+02 -0.10586379834E+04  0.10757213328E+04  0.00000000000E+00 0. -1.
         22    1    1    2    0    0  0.48524686295E+03  0.75897336445E+02  0.93716667301E+03  0.10580672458E+04  0.00000000000E+00 0.  1.
<mgrwt>
<rscale>  0 0.31813692E+04</rscale>
<asrwt>0</asrwt>
<pdfrwt beam="1">  1        2 0.38034811E+00 0.31813692E+04</pdfrwt>
<pdfrwt beam="2">  1       -2 0.15745635E+00 0.31813692E+04</pdfrwt>
<totfact> 0.80139917E-01</totfact>
</mgrwt>
</event>
<event>
 6    1  0.1614874E-005  0.2607507E+04  0.7818608E-02  0.8365656E-01
         -1   -1    0    0    0  501 -0.00000000000E+00  0.00000000000E+00  0.81528022824E+03  0.81528022824E+03  0.00000000000E+00 0.  1.
          1   -1    0    0  501    0  0.00000000000E+00 -0.00000000000E+00 -0.20848949376E+04  0.20848949376E+04  0.00000000000E+00 0. -1.
         23    2    1    2    0    0  0.60775306039E+03 -0.38513098766E+03 -0.18426802402E+04  0.19803416142E+04  0.92697254927E+02 0.  0.
         11    1    3    3    0    0  0.43101923006E+03 -0.27099953752E+03 -0.14128472037E+04  0.15017841213E+04  0.00000000000E+00 0.  1.
        -11    1    3    3    0    0  0.17673383033E+03 -0.11413145014E+03 -0.42983303654E+03  0.47855749288E+03  0.00000000000E+00 0. -1.
         22    1    1    2    0    0 -0.60775306039E+03  0.38513098766E+03  0.57306553087E+03  0.91983355165E+03  0.00000000000E+00 0.  1.
<mgrwt>
<rscale>  0 0.26075073E+04</rscale>
<asrwt>0</asrwt>
<pdfrwt beam="1">  1        1 0.32075307E+00 0.26075073E+04</pdfrwt>
<pdfrwt beam="2">  1       -1 0.12542773E+00 0.26075073E+04</pdfrwt>
<totfact> 0.12741582E+00</totfact>
</mgrwt>
</event>
<event>
 6    1  0.1614874E-005  0.6385894E+03  0.7818608E-02  0.9828429E-01
         -2   -1    0    0    0  501 -0.00000000000E+00  0.00000000000E+00  0.82511926379E+02  0.82511926379E+02  0.00000000000E+00 0. -1.
          2   -1    0    0  501    0  0.00000000000E+00 -0.00000000000E+00 -0.12355681287E+04  0.12355681287E+04  0.00000000000E+00 0.  1.
         23    2    1    2    0    0  0.22402289569E+03  0.48247378692E+02 -0.10271561971E+04  0.10566132720E+04  0.94168391778E+02 0.  0.
         13    1    3    3    0    0  0.13526607440E+03  0.13551841353E+02 -0.40514249066E+03  0.42734178479E+03  0.00000000000E+00 0. -1.
        -13    1    3    3    0    0  0.88756821288E+02  0.34695537339E+02 -0.62201370639E+03  0.62927148718E+03  0.00000000000E+00 0.  1.
         22    1    1    2    0    0 -0.22402289569E+03 -0.48247378692E+02 -0.12590000526E+03  0.26146678311E+03  0.00000000000E+00 0. -1.
<mgrwt>
<rscale>  0 0.63858940E+03</rscale>
<asrwt>0</asrwt>
<pdfrwt beam="1">  1        2 0.19008741E+00 0.63858940E+03</pdfrwt>
<pdfrwt beam="2">  1       -2 0.12694142E-01 0.63858940E+03</pdfrwt>
<totfact> 0.84615162E+02</totfact>
</mgrwt>
</event>
<event>
 6    1  0.1614874E-005  0.2099603E+04  0.7818608E-02  0.8561418E-01
          2   -1    0    0  501    0  0.00000000000E+00  0.00000000000E+00  0.15538828207E+04  0.15538828207E+04  0.00000000000E+00 0. -1.
         -2   -1    0    0    0  501 -0.00000000000E+00 -0.00000000000E+00 -0.70924467530E+03  0.70924467530E+03  0.00000000000E+00 0.  1.
         23    2    1    2    0    0  0.65211791343E+03 -0.81931013129E+03  0.39221810004E+03  0.11224212404E+04  0.97301277255E+02 0.  0.
         11    1    3    3    0    0  0.14736630068E+03 -0.22687445676E+03  0.65671437081E+02  0.27839106192E+03  0.00000000000E+00 0. -1.
        -11    1    3    3    0    0  0.50475161276E+03 -0.59243567453E+03  0.32654666295E+03  0.84403017844E+03  0.00000000000E+00 0.  1.
         22    1    1    2    0    0 -0.65211791343E+03  0.81931013129E+03  0.45242004541E+03  0.11407062557E+04  0.00000000000E+00 0.  1.
<mgrwt>
<rscale>  0 0.20996029E+04</rscale>
<asrwt>0</asrwt>
<pdfrwt beam="1">  1        2 0.23905889E+00 0.20996029E+04</pdfrwt>
<pdfrwt beam="2">  1       -2 0.10911457E+00 0.20996029E+04</pdfrwt>
<totfact> 0.73095047E+00</totfact>
</mgrwt>
</event>
<event>
 6    1  0.1614874E-005  0.2238187E+04  0.7818608E-02  0.8502700E-01
          2   -1    0    0  501    0  0.00000000000E+00  0.00000000000E+00  0.26673005340E+04  0.26673005340E+04  0.00000000000E+00 0. -1.
         -2   -1    0    0    0  501 -0.00000000000E+00 -0.00000000000E+00 -0.46952707054E+03  0.46952707054E+03  0.00000000000E+00 0.  1.
         23    2    1    2    0    0  0.93625283763E+03 -0.32598670269E+03  0.18226598457E+04  0.20768526367E+04  0.91603792963E+02 0.  0.
         13    1    3    3    0    0  0.33132976825E+03 -0.16147717574E+03  0.65891251943E+03  0.75499668998E+03  0.00000000000E+00 0.  1.
        -13    1    3    3    0    0  0.60492306937E+03 -0.16450952694E+03  0.11637473263E+04  0.13218559467E+04  0.00000000000E+00 0. -1.
         22    1    1    2    0    0 -0.93625283763E+03  0.32598670269E+03  0.37511361771E+03  0.10599749679E+04  0.00000000000E+00 0.  1.
<mgrwt>
<rscale>  0 0.22381866E+04</rscale>
<asrwt>0</asrwt>
<pdfrwt beam="1">  1        2 0.41035392E+00 0.22381866E+04</pdfrwt>
<pdfrwt beam="2">  1       -2 0.72234935E-01 0.22381866E+04</pdfrwt>
<totfact> 0.43917318E+00</totfact>
</mgrwt>
</event>
<event>
 6    1  0.1614874E-005  0.3336881E+04  0.7818608E-02  0.8153574E-01
          1   -1    0    0  501    0  0.00000000000E+00  0.00000000000E+00  0.20171965555E+04  0.20171965555E+04  0.00000000000E+00 0. -1.
         -1   -1    0    0    0  501 -0.00000000000E+00 -0.00000000000E+00 -0.13799811729E+04  0.13799811729E+04  0.00000000000E+00 0.  1.
         23    2    1    2    0    0  0.10934978113E+04  0.54322052768E+03 -0.83710751075E+03  0.14829013641E+04  0.86147930572E+02 0.  0.
         11    1    3    3    0    0  0.17174397708E+03  0.62116381541E+02 -0.15326213099E+03  0.23841920920E+03  0.00000000000E+00 0.  1.
        -11    1    3    3    0    0  0.92175383422E+03  0.48110414614E+03 -0.68384537977E+03  0.12444821549E+04  0.00000000000E+00 0. -1.
         22    1    1    2    0    0 -0.10934978113E+04 -0.54322052768E+03  0.14743228933E+04  0.19142763643E+04  0.00000000000E+00 0. -1.
<mgrwt>
<rscale>  0 0.33368807E+04</rscale>
<asrwt>0</asrwt>
<pdfrwt beam="1">  1        1 0.31033793E+00 0.33368807E+04</pdfrwt>
<pdfrwt beam="2">  1       -1 0.21230480E+00 0.33368807E+04</pdfrwt>
<totfact> 0.29755370E-01</totfact>
</mgrwt>
</event>
<event>
 6    1  0.1614874E-005  0.1499153E+04  0.7818608E-02  0.8885016E-01
         -2   -1    0    0    0  501 -0.00000000000E+00  0.00000000000E+00  0.18881981327E+03  0.18881981327E+03  0.00000000000E+00 0.  1.
          2   -1    0    0  501    0  0.00000000000E+00 -0.00000000000E+00 -0.29756681050E+04  0.29756681050E+04  0.00000000000E+00 0. -1.
         23    2    1    2    0    0 -0.51910544743E+03 -0.24460390076E+03 -0.38971481410E+03  0.69962474898E+03  0.91080290059E+02 0.  0.
         11    1    3    3    0    0 -0.25073578985E+03 -0.13443494104E+03 -0.24488320962E+03  0.37537844376E+03  0.00000000000E+00 0.  1.
        -11    1    3    3    0    0 -0.26836965757E+03 -0.11016895973E+03 -0.14483160449E+03  0.32424630522E+03  0.00000000000E+00 0. -1.
         22    1    1    2    0    0  0.51910544743E+03  0.24460390076E+03 -0.23971334776E+04  0.24648631693E+04  0.00000000000E+00 0. -1.
<mgrwt>
<rscale>  0 0.14991532E+04</rscale>
<asrwt>0</asrwt>
<pdfrwt beam="1">  1        2 0.45779508E+00 0.14991532E+04</pdfrwt>
<pdfrwt beam="2">  1       -2 0.29049203E-01 0.14991532E+04</pdfrwt>
<totfact> 0.19107872E+01</totfact>
</mgrwt>
</event>
<event>
 6    1  0.1614874E-005  0.2617610E+04  0.7818608E-02  0.8362244E-01
         -2   -1    0    0    0  501 -0.00000000000E+00  0.00000000000E+00  0.55773387420E+03  0.55773387420E+03  0.00000000000E+00 0.  1.
          2   -1    0    0  501    0  0.00000000000E+00 -0.00000000000E+00 -0.30713055662E+04  0.30713055662E+04  0.00000000000E+00 0. -1.
         23    2    1    2    0    0 -0.84777658081E+03  0.58388241433E+03 -0.23753398783E+04  0.25904096512E+04  0.91317132337E+02 0.  0.
         13    1    3    3    0    0 -0.81816819243E+03  0.57507730571E+03 -0.23299709473E+04  0.25355231638E+04  0.00000000000E+00 0.  1.
        -13    1    3    3    0    0 -0.29608388380E+02  0.88051086152E+01 -0.45368930987E+02  0.54886487400E+02  0.00000000000E+00 0. -1.
         22    1    1    2    0    0  0.84777658081E+03 -0.58388241433E+03 -0.13823181368E+03  0.10386297892E+04  0.00000000000E+00 0. -1.
<mgrwt>
<rscale>  0 0.26176105E+04</rscale>
<asrwt>0</asrwt>
<pdfrwt beam="1">  1        2 0.47250854E+00 0.26176105E+04</pdfrwt>
<pdfrwt beam="2">  1       -2 0.85805212E-01 0.26176105E+04</pdfrwt>
<totfact> 0.16348443E+00</totfact>
</mgrwt>
</event>
<event>
 6    1  0.1614874E-005  0.9316301E+03  0.7818608E-02  0.9386884E-01
          1   -1    0    0  501    0  0.00000000000E+00  0.00000000000E+00  0.40305491585E+03  0.40305491585E+03  0.00000000000E+00 0. -1.
         -1   -1    0    0    0  501 -0.00000000000E+00 -0.00000000000E+00 -0.53834764232E+03  0.53834764232E+03  0.00000000000E+00 0.  1.
         23    2    1    2    0    0 -0.16854561689E+03 -0.19690620658E+03 -0.45411579604E+03  0.53051592070E+03  0.89701208161E+02 0.  0.
         13    1    3    3    0    0 -0.79978573527E+02 -0.10944431263E+03 -0.15144310421E+03  0.20324773948E+03  0.00000000000E+00 0. -1.
        -13    1    3    3    0    0 -0.88567043359E+02 -0.87461893950E+02 -0.30267269183E+03  0.32726818122E+03  0.00000000000E+00 0.  1.
         22    1    1    2    0    0  0.16854561689E+03  0.19690620658E+03  0.31882306957E+03  0.41088663747E+03  0.00000000000E+00 0. -1.
<mgrwt>
<rscale>  0 0.93163011E+03</rscale>
<asrwt>0</asrwt>
<pdfrwt beam="1">  1        1 0.62008449E-01 0.93163011E+03</pdfrwt>
<pdfrwt beam="2">  1       -1 0.82822714E-01 0.93163011E+03</pdfrwt>
<totfact> 0.86605186E+01</totfact>
</mgrwt>
</event>
<event>
 6    1  0.1614874E-005  0.1524849E+04  0.7818608E-02  0.8868095E-01
         -2   -1    0    0    0  501 -0.00000000000E+00  0.00000000000E+00  0.24573541473E+03  0.24573541473E+03  0.00000000000E+00 0. -1.
          2   -1    0    0  501    0  0.00000000000E+00 -0.00000000000E+00 -0.23655156223E+04  0.23655156223E+04  0.00000000000E+00 0.  1.
         23    2    1    2    0    0  0.49255489654E+03 -0.43850257176E+03 -0.17092172929E+04  0.18344262573E+04  0.93814218477E+02 0.  0.
         11    1    3    3    0    0  0.37382248859E+03 -0.32442692367E+03 -0.11634415602E+04  0.12643545174E+04  0.00000000000E+00 0. -1.
        -11    1    3    3    0    0  0.11873240795E+03 -0.11407564810E+03 -0.54577573265E+03  0.57007173981E+03  0.00000000000E+00 0.  1.
         22    1    1    2    0    0 -0.49255489654E+03  0.43850257176E+03 -0.41056291475E+03  0.77682477980E+03  0.00000000000E+00 0.  1.
<mgrwt>
<rscale>  0 0.15248488E+04</rscale>
<asrwt>0</asrwt>
<pdfrwt beam="1">  1        2 0.36392547E+00 0.15248488E+04</pdfrwt>
<pdfrwt beam="2">  1       -2 0.37805449E-01 0.15248488E+04</pdfrwt>
<totfact> 0.26537733E+01</totfact>
</mgrwt>
</event>
<event>
 6    1  0.1614874E-005  0.1794687E+04  0.7818608E-02  0.8709130E-01
          2   -1    0    0  501    0  0.00000000000E+00  0.00000000000E+00  0.39339250244E+04  0.39339250244E+04  0.00000000000E+00 0.  1.
         -2   -1    0    0    0  501 -0.00000000000E+00 -0.00000000000E+00 -0.20468746955E+03  0.20468746955E+03  0.00000000000E+00 0. -1.
         23    2    1    2    0    0  0.63230977401E+03  0.44627210589E+03  0.29050709850E+04  0.30080263726E+04  0.99049422036E+02 0.  0.
         13    1    3    3    0    0  0.59259480067E+03  0.38315520921E+03  0.26279409175E+04  0.27210384007E+04  0.00000000000E+00 0. -1.
        -13    1    3    3    0    0  0.39714973338E+02  0.63116896681E+02  0.27713006742E+03  0.28698797191E+03  0.00000000000E+00 0.  1.
         22    1    1    2    0    0 -0.63230977401E+03 -0.44627210589E+03  0.82416656993E+03  0.11305861214E+04  0.00000000000E+00 0. -1.
<mgrwt>
<rscale>  0 0.17946868E+04</rscale>
<asrwt>0</asrwt>
<pdfrwt beam="1">  1        2 0.60521918E+00 0.17946868E+04</pdfrwt>
<pdfrwt beam="2">  1       -2 0.31490383E-01 0.17946868E+04</pdfrwt>
<totfact> 0.34654721E+00</totfact>
</mgrwt>
</event>
<event>
 6    1  0.1614874E-005  0.2249940E+04  0.7818608E-02  0.8497925E-01
         -2   -1    0    0    0  501 -0.00000000000E+00  0.00000000000E+00  0.18026998468E+04  0.18026998468E+04  0.00000000000E+00 0.  1.
          2   -1    0    0  501    0  0.00000000000E+00 -0.00000000000E+00 -0.70203426865E+03  0.70203426865E+03  0.00000000000E+00 0. -1.
         23    2    1    2    0    0 -0.10264768064E+04  0.45575412421E+03  0.53651739406E+03  0.12479009405E+04  0.89662630797E+02 0.  0.
         13    1    3    3    0    0 -0.46066047203E+03  0.16153122117E+03  0.20971064874E+03  0.53129931498E+03  0.00000000000E+00 0.  1.
        -13    1    3    3    0    0 -0.56581633442E+03  0.29422290305E+03  0.32680674532E+03  0.71660162556E+03  0.00000000000E+00 0. -1.
         22    1    1    2    0    0  0.10264768064E+04 -0.45575412421E+03  0.56414818406E+03  0.12568331749E+04  0.00000000000E+00 0.  1.
<mgrwt>
<rscale>  0 0.22499396E+04</rscale>
<asrwt>0</asrwt>
<pdfrwt beam="1">  1        2 0.10800527E+00 0.22499396E+04</pdfrwt>
<pdfrwt beam="2">  1       -2 0.27733844E+00 0.22499396E+04</pdfrwt>
<totfact> 0.16247673E+00</totfact>
</mgrwt>
</event>
<event>
 6    1  0.1850501E-005  0.2316100E+04  0.7818608E-02  0.8471600E-01
         -1   -1    0    0    0  501 -0.00000000000E+00  0.00000000000E+00  0.72467351994E+03  0.72467351994E+03  0.00000000000E+00 0.  1.
          1   -1    0    0  501    0  0.00000000000E+00 -0.00000000000E+00 -0.18505983047E+04  0.18505983047E+04  0.00000000000E+00 0. -1.
         23    2    1    2    0    0  0.11329065598E+04  0.58668546076E+01 -0.30893681335E+03  0.11784965962E+04  0.99501654824E+02 0.  0.
         13    1    3    3    0    0  0.70873512763E+03 -0.12173139027E+02 -0.24008725494E+03  0.74839532096E+03  0.00000000000E+00 0. -1.
        -13    1    3    3    0    0  0.42417143222E+03  0.18039993634E+02 -0.68849558405E+02  0.43010127525E+03  0.00000000000E+00 0.  1.
         22    1    1    2    0    0 -0.11329065598E+04 -0.58668546076E+01 -0.81698797139E+03  0.13967752284E+04  0.00000000000E+00 0.  1.
<mgrwt>
<rscale>  0 0.23160998E+04</rscale>
<asrwt>0</asrwt>
<pdfrwt beam="1">  1        1 0.28470743E+00 0.23160998E+04</pdfrwt>
<pdfrwt beam="2">  1       -1 0.11148824E+00 0.23160998E+04</pdfrwt>
<totfact> 0.25110885E+00</totfact>
</mgrwt>
</event>
<event>
 6    1  0.1614874E-005  0.6633166E+03  0.7818608E-02  0.9782107E-01
          2   -1    0    0  501    0  0.00000000000E+00  0.00000000000E+00  0.22941459683E+04  0.22941459683E+04  0.00000000000E+00 0.  1.
         -2   -1    0    0    0  501 -0.00000000000E+00 -0.00000000000E+00 -0.47946917139E+02  0.47946917139E+02  0.00000000000E+00 0. -1.
         23    2    1    2    0    0  0.74950001206E+02  0.61513320255E+02  0.22410656018E+04  0.22449963172E+04  0.90730597995E+02 0.  0.
         13    1    3    3    0    0  0.84302612358E+02  0.23824323129E+02  0.18314972637E+04  0.18335912183E+04  0.00000000000E+00 0.  1.
        -13    1    3    3    0    0 -0.93526111520E+01  0.37688997126E+02  0.40956833815E+03  0.41140509896E+03  0.00000000000E+00 0. -1.
         22    1    1    2    0    0 -0.74950001206E+02 -0.61513320255E+02  0.51334492943E+01  0.97096568175E+02  0.00000000000E+00 0. -1.
<mgrwt>
<rscale>  0 0.66331660E+03</rscale>
<asrwt>0</asrwt>
<pdfrwt beam="1">  1        2 0.35294545E+00 0.66331660E+03</pdfrwt>
<pdfrwt beam="2">  1       -2 0.73764506E-02 0.66331660E+03</pdfrwt>
<totfact> 0.53152781E+02</totfact>
</mgrwt>
</event>
<event>
 6    1  0.1614874E-005  0.9295858E+03  0.7818608E-02  0.9389335E-01
         -1   -1    0    0    0  501 -0.00000000000E+00  0.00000000000E+00  0.49770929244E+03  0.49770929244E+03  0.00000000000E+00 0.  1.
          1   -1    0    0  501    0  0.00000000000E+00 -0.00000000000E+00 -0.43405341433E+03  0.43405341433E+03  0.00000000000E+00 0. -1.
         23    2    1    2    0    0 -0.15140774353E+03  0.36636310531E+03 -0.20269385224E+03  0.45417668457E+03  0.89696339595E+02 0.  0.
         11    1    3    3    0    0 -0.58407394132E+02  0.25249112242E+03 -0.12154922792E+03  0.28624710548E+03  0.00000000000E+00 0. -1.
        -11    1    3    3    0    0 -0.93000349402E+02  0.11387198289E+03 -0.81144624320E+02  0.16792957909E+03  0.00000000000E+00 0.  1.
         22    1    1    2    0    0  0.15140774353E+03 -0.36636310531E+03  0.26634973035E+03  0.47758602219E+03  0.00000000000E+00 0.  1.
<mgrwt>
<rscale>  0 0.92958575E+03</rscale>
<asrwt>0</asrwt>
<pdfrwt beam="1">  1        1 0.66777449E-01 0.92958575E+03</pdfrwt>
<pdfrwt beam="2">  1       -1 0.76570660E-01 0.92958575E+03</pdfrwt>
<totfact> 0.92680019E+01</totfact>
</mgrwt>
</event>
<event>
 6    1  0.1614874E-005  0.3587736E+04  0.7818608E-02  0.8093307E-01
          2   -1    0    0  501    0  0.00000000000E+00  0.00000000000E+00  0.56554193513E+03  0.56554193513E+03  0.00000000000E+00 0. -1.
         -2   -1    0    0    0  501 -0.00000000000E+00 -0.00000000000E+00 -0.56900503323E+04  0.56900503323E+04  0.00000000000E+00 0.  1.
         23    2    1    2    0    0 -0.14646387798E+04 -0.34224236500E+03 -0.86312979803E+03  0.17365609380E+04  0.91401594174E+02 0.  0.
         13    1    3    3    0    0 -0.58312369167E+03 -0.17767511191E+03 -0.32671263809E+03  0.69162333179E+03  0.00000000000E+00 0. -1.
        -13    1    3    3    0    0 -0.88151508808E+03 -0.16456725308E+03 -0.53641715994E+03  0.10449376062E+04  0.00000000000E+00 0.  1.
         22    1    1    2    0    0  0.14646387798E+04  0.34224236500E+03 -0.42613785992E+04  0.45190313295E+04  0.00000000000E+00 0.  1.
<mgrwt>
<rscale>  0 0.35877358E+04</rscale>
<asrwt>0</asrwt>
<pdfrwt beam="1">  1        2 0.87006453E-01 0.35877358E+04</pdfrwt>
<pdfrwt beam="2">  1       -2 0.87539235E+00 0.35877358E+04</pdfrwt>
<totfact> 0.79039122E-04</totfact>
</mgrwt>
</event>
<event>
 6    1  0.1614874E-005  0.1615297E+04  0.7818608E-02  0.8811205E-01
          2   -1    0    0  501    0  0.00000000000E+00  0.00000000000E+00  0.13562360714E+04  0.13562360714E+04  0.00000000000E+00 0. -1.
         -2   -1    0    0    0  501 -0.00000000000E+00 -0.00000000000E+00 -0.48096076159E+03  0.48096076159E+03  0.00000000000E+00 0.  1.
         23    2    1    2    0    0  0.97484249677E+02  0.79844780279E+03  0.47726111397E+03  0.93973520551E+03  0.91115382152E+02 0.  0.
         13    1    3    3    0    0  0.41529300098E+01  0.23203141128E+03  0.17722393773E+03  0.29200025129E+03  0.00000000000E+00 0. -1.
        -13    1    3    3    0    0  0.93331319667E+02  0.56641639151E+03  0.30003717624E+03  0.64773495423E+03  0.00000000000E+00 0.  1.
         22    1    1    2    0    0 -0.97484249677E+02 -0.79844780279E+03  0.39801419585E+03  0.89746162749E+03  0.00000000000E+00 0. -1.
<mgrwt>
<rscale>  0 0.16152973E+04</rscale>
<asrwt>0</asrwt>
<pdfrwt beam="1">  1        2 0.20865170E+00 0.16152973E+04</pdfrwt>
<pdfrwt beam="2">  1       -2 0.73993964E-01 0.16152973E+04</pdfrwt>
<totfact> 0.24165635E+01</totfact>
</mgrwt>
</event>
<event>
 6    1  0.1614874E-005  0.1148562E+04  0.7818608E-02  0.9159111E-01
          1   -1    0    0  501    0  0.00000000000E+00  0.00000000000E+00  0.12171068277E+04  0.12171068277E+04  0.00000000000E+00 0. -1.
         -1   -1    0    0    0  501 -0.00000000000E+00 -0.00000000000E+00 -0.27096930541E+03  0.27096930541E+03  0.00000000000E+00 0.  1.
         23    2    1    2    0    0 -0.80213587466E+02 -0.52165861208E+03  0.75725703602E+03  0.92750698905E+03  0.90934421275E+02 0.  0.
         11    1    3    3    0    0 -0.47705658264E+02 -0.25574841975E+03  0.29582488310E+03  0.39394853153E+03  0.00000000000E+00 0. -1.
        -11    1    3    3    0    0 -0.32507929202E+02 -0.26591019233E+03  0.46143215292E+03  0.53355845752E+03  0.00000000000E+00 0.  1.
         22    1    1    2    0    0  0.80213587466E+02  0.52165861208E+03  0.18888048625E+03  0.56056914404E+03  0.00000000000E+00 0.  1.
<mgrwt>
<rscale>  0 0.11485619E+04</rscale>
<asrwt>0</asrwt>
<pdfrwt beam="1">  1        1 0.18724720E+00 0.11485619E+04</pdfrwt>
<pdfrwt beam="2">  1       -1 0.41687586E-01 0.11485619E+04</pdfrwt>
<totfact> 0.58182471E+01</totfact>
</mgrwt>
</event>
<event>
 6    1  0.1614874E-005  0.3182199E+04  0.7818608E-02  0.8193534E-01
         -2   -1    0    0    0  501 -0.00000000000E+00  0.00000000000E+00  0.85436169041E+03  0.85436169041E+03  0.00000000000E+00 0.  1.
          2   -1    0    0  501    0  0.00000000000E+00 -0.00000000000E+00 -0.29631449168E+04  0.29631449168E+04  0.00000000000E+00 0. -1.
         23    2    1    2    0    0 -0.10680342612E+04  0.11716326013E+04 -0.11962580071E+04  0.19882656686E+04  0.93525471310E+02 0.  0.
         13    1    3    3    0    0 -0.58404198940E+03  0.57799204265E+03 -0.64415405494E+03  0.10440853860E+04  0.00000000000E+00 0.  1.
        -13    1    3    3    0    0 -0.48399227179E+03  0.59364055869E+03 -0.55210395221E+03  0.94418028264E+03  0.00000000000E+00 0. -1.
         22    1    1    2    0    0  0.10680342612E+04 -0.11716326013E+04 -0.91252521925E+03  0.18292409386E+04  0.00000000000E+00 0.  1.
<mgrwt>
<rscale>  0 0.31821989E+04</rscale>
<asrwt>0</asrwt>
<pdfrwt beam="1">  1        2 0.45586844E+00 0.31821989E+04</pdfrwt>
<pdfrwt beam="2">  1       -2 0.13144026E+00 0.31821989E+04</pdfrwt>
<totfact> 0.65345613E-01</totfact>
</mgrwt>
</event>
<event>
 6    1  0.1614874E-005  0.1611352E+04  0.7818608E-02  0.8813604E-01
          3   -1    0    0  501    0  0.00000000000E+00  0.00000000000E+00  0.84083311957E+03  0.84083311957E+03  0.00000000000E+00 0. -1.
         -3   -1    0    0    0  501 -0.00000000000E+00 -0.00000000000E+00 -0.77198851138E+03  0.77198851138E+03  0.00000000000E+00 0.  1.
         23    2    1    2    0    0  0.51486340361E+03 -0.42485503188E+03 -0.41243091210E+03  0.78989256419E+03  0.90801339249E+02 0.  0.
         13    1    3    3    0    0  0.31856425447E+03 -0.25052190717E+03 -0.30033767297E+03  0.50442752502E+03  0.00000000000E+00 0. -1.
        -13    1    3    3    0    0  0.19629914915E+03 -0.17433312471E+03 -0.11209323913E+03  0.28546503917E+03  0.00000000000E+00 0.  1.
         22    1    1    2    0    0 -0.51486340361E+03  0.42485503188E+03  0.48127552030E+03  0.82292906677E+03  0.00000000000E+00 0. -1.
<mgrwt>
<rscale>  0 0.16113516E+04</rscale>
<asrwt>0</asrwt>
<pdfrwt beam="1">  1        3 0.12935894E+00 0.16113516E+04</pdfrwt>
<pdfrwt beam="2">  1       -3 0.11876746E+00 0.16113516E+04</pdfrwt>
<totfact> 0.68491779E-01</totfact>
</mgrwt>
</event>
<event>
 6    1  0.1614874E-005  0.3646632E+04  0.7818608E-02  0.8079893E-01
          1   -1    0    0  501    0  0.00000000000E+00  0.00000000000E+00  0.14712016636E+04  0.14712016636E+04  0.00000000000E+00 0. -1.
         -1   -1    0    0    0  501 -0.00000000000E+00 -0.00000000000E+00 -0.22597043520E+04  0.22597043520E+04  0.00000000000E+00 0.  1.
         23    2    1    2    0    0 -0.16491900881E+04 -0.44918299127E+03 -0.10406640088E+04  0.20031390644E+04  0.89393654974E+02 0.  0.
         13    1    3    3    0    0 -0.75697448694E+03 -0.16666094444E+03 -0.49833270709E+03  0.92147801452E+03  0.00000000000E+00 0. -1.
        -13    1    3    3    0    0 -0.89221560117E+03 -0.28252204683E+03 -0.54233130172E+03  0.10816610498E+04  0.00000000000E+00 0.  1.
         22    1    1    2    0    0  0.16491900881E+04  0.44918299127E+03  0.25216132039E+03  0.17277669513E+04  0.00000000000E+00 0.  1.
<mgrwt>
<rscale>  0 0.36466318E+04</rscale>
<asrwt>0</asrwt>
<pdfrwt beam="1">  1        1 0.22633872E+00 0.36466318E+04</pdfrwt>
<pdfrwt beam="2">  1       -1 0.34764682E+00 0.36466318E+04</pdfrwt>
<totfact> 0.88876927E-02</totfact>
</mgrwt>
</event>
<event>
 6    1  0.1614874E-005  0.3275331E+04  0.7818608E-02  0.8169201E-01
         -2   -1    0    0    0  501 -0.00000000000E+00  0.00000000000E+00  0.16414503170E+04  0.16414503170E+04  0.00000000000E+00 0.  1.
          2   -1    0    0  501    0  0.00000000000E+00 -0.00000000000E+00 -0.16338889473E+04  0.16338889473E+04  0.00000000000E+00 0. -1.
         23    2    1    2    0    0  0.12597200214E+04 -0.66418966463E+03  0.80990209308E+03  0.16407772191E+04  0.90366140314E+02 0.  0.
         11    1    3    3    0    0  0.91792511052E+03 -0.43846011244E+03  0.58540922095E+03  0.11736855348E+04  0.00000000000E+00 0.  1.
        -11    1    3    3    0    0  0.34179491090E+03 -0.22572955219E+03  0.22449287213E+03  0.46709168424E+03  0.00000000000E+00 0. -1.
         22    1    1    2    0    0 -0.12597200214E+04  0.66418966463E+03 -0.80234072340E+03  0.16345620451E+04  0.00000000000E+00 0. -1.
<mgrwt>
<rscale>  0 0.32753305E+04</rscale>
<asrwt>0</asrwt>
<pdfrwt beam="1">  1        2 0.25136753E+00 0.32753305E+04</pdfrwt>
<pdfrwt beam="2">  1       -2 0.25253082E+00 0.32753305E+04</pdfrwt>
<totfact> 0.55393951E-01</totfact>
</mgrwt>
</event>
<event>
 6    1  0.1831542E-005  0.3195301E+04  0.7818608E-02  0.8190059E-01
          2   -1    0    0  501    0  0.00000000000E+00  0.00000000000E+00  0.25135154526E+04  0.25135154526E+04  0.00000000000E+00 0. -1.
         -2   -1    0    0    0  501 -0.00000000000E+00 -0.00000000000E+00 -0.10155048803E+04  0.10155048803E+04  0.00000000000E+00 0.  1.
         23    2    1    2    0    0 -0.31816786535E+03  0.41326863506E+03 -0.91674572607E+03  0.10585811541E+04  0.90275014715E+02 0.  0.
         13    1    3    3    0    0 -0.20010828351E+03  0.29581269198E+03 -0.54979763112E+03  0.65561109589E+03  0.00000000000E+00 0. -1.
        -13    1    3    3    0    0 -0.11805958185E+03  0.11745594309E+03 -0.36694809494E+03  0.40297005821E+03  0.00000000000E+00 0.  1.
         22    1    1    2    0    0  0.31816786535E+03 -0.41326863506E+03  0.24147562984E+04  0.24704391787E+04  0.00000000000E+00 0. -1.
<mgrwt>
<rscale>  0 0.31953011E+04</rscale>
<asrwt>0</asrwt>
<pdfrwt beam="1">  1        2 0.38669468E+00 0.31953011E+04</pdfrwt>
<pdfrwt beam="2">  1       -2 0.15623152E+00 0.31953011E+04</pdfrwt>
<totfact> 0.77375753E-01</totfact>
</mgrwt>
</event>
<event>
 6    1  0.1614874E-005  0.2736442E+04  0.7818608E-02  0.8323277E-01
          1   -1    0    0  501    0  0.00000000000E+00  0.00000000000E+00  0.14037730587E+04  0.14037730587E+04  0.00000000000E+00 0. -1.
         -1   -1    0    0    0  501 -0.00000000000E+00 -0.00000000000E+00 -0.13335691560E+04  0.13335691560E+04  0.00000000000E+00 0.  1.
         23    2    1    2    0    0 -0.25639475876E+03 -0.12657631914E+04  0.48245841242E+03  0.13816694999E+04  0.91377012580E+02 0.  0.
         13    1    3    3    0    0 -0.23816184293E+02 -0.31228509034E+03  0.11047237373E+03  0.33210440171E+03  0.00000000000E+00 0. -1.
        -13    1    3    3    0    0 -0.23257857446E+03 -0.95347810102E+03  0.37198603869E+03  0.10495650982E+04  0.00000000000E+00 0.  1.
         22    1    1    2    0    0  0.25639475876E+03  0.12657631914E+04 -0.41225450974E+03  0.13556727148E+04  0.00000000000E+00 0. -1.
<mgrwt>
<rscale>  0 0.27364418E+04</rscale>
<asrwt>0</asrwt>
<pdfrwt beam="1">  1        1 0.21596509E+00 0.27364418E+04</pdfrwt>
<pdfrwt beam="2">  1       -1 0.20516449E+00 0.27364418E+04</pdfrwt>
<totfact> 0.92189650E-01</totfact>
</mgrwt>
</event>
<event>
 6    1  0.1614874E-005  0.2136587E+04  0.7818608E-02  0.8545296E-01
         -2   -1    0    0    0  501 -0.00000000000E+00  0.00000000000E+00  0.76473026135E+03  0.76473026135E+03  0.00000000000E+00 0. -1.
          2   -1    0    0  501    0  0.00000000000E+00 -0.00000000000E+00 -0.14923573777E+04  0.14923573777E+04  0.00000000000E+00 0.  1.
         23    2    1    2    0    0  0.85338213267E+03 -0.56575905857E+03 -0.52075573652E+02  0.10304196874E+04  0.10348183466E+03 0.  0.
         13    1    3    3    0    0  0.47769949481E+03 -0.35291953841E+03  0.11143972995E+02  0.59403130900E+03  0.00000000000E+00 0. -1.
        -13    1    3    3    0    0  0.37568263786E+03 -0.21283952016E+03 -0.63219546648E+02  0.43638837841E+03  0.00000000000E+00 0.  1.
         22    1    1    2    0    0 -0.85338213267E+03  0.56575905857E+03 -0.67555154265E+03  0.12266679516E+04  0.00000000000E+00 0.  1.
<mgrwt>
<rscale>  0 0.21365869E+04</rscale>
<asrwt>0</asrwt>
<pdfrwt beam="1">  1        2 0.22959344E+00 0.21365869E+04</pdfrwt>
<pdfrwt beam="2">  1       -2 0.11765081E+00 0.21365869E+04</pdfrwt>
<totfact> 0.65698902E+00</totfact>
</mgrwt>
</event>
<event>
 6    1  0.1614874E-005  0.9934741E+03  0.7818608E-02  0.9315731E-01
         -1   -1    0    0    0  501 -0.00000000000E+00  0.00000000000E+00  0.27338479798E+03  0.27338479798E+03  0.00000000000E+00 0.  1.
          1   -1    0    0  501    0  0.00000000000E+00 -0.00000000000E+00 -0.90256561056E+03  0.90256561056E+03  0.00000000000E+00 0. -1.
         23    2    1    2    0    0  0.31924173387E+03 -0.30911989148E+03 -0.66104334164E+02  0.45864607111E+03  0.92282412205E+02 0.  0.
         13    1    3    3    0    0  0.13446046059E+03 -0.12198984441E+03  0.18238662437E+02  0.18246584998E+03  0.00000000000E+00 0. -1.
        -13    1    3    3    0    0  0.18478127328E+03 -0.18713004707E+03 -0.84342996602E+02  0.27618022113E+03  0.00000000000E+00 0.  1.
         22    1    1    2    0    0 -0.31924173387E+03  0.30911989148E+03 -0.56307647841E+03  0.71730433743E+03  0.00000000000E+00 0. -1.
<mgrwt>
<rscale>  0 0.99347414E+03</rscale>
<asrwt>0</asrwt>
<pdfrwt beam="1">  1        1 0.13885625E+00 0.99347414E+03</pdfrwt>
<pdfrwt beam="2">  1       -1 0.42059200E-01 0.99347414E+03</pdfrwt>
<totfact> 0.10077646E+02</totfact>
</mgrwt>
</event>
<event>
 6    1  0.1614874E-005  0.5265203E+04  0.7818608E-02  0.7788850E-01
         -2   -1    0    0    0  501 -0.00000000000E+00  0.00000000000E+00  0.19707370118E+04  0.19707370118E+04  0.00000000000E+00 0.  1.
          2   -1    0    0  501    0  0.00000000000E+00 -0.00000000000E+00 -0.35167508497E+04  0.35167508497E+04  0.00000000000E+00 0. -1.
         23    2    1    2    0    0  0.55955557578E+03  0.30223863896E+03  0.18883347665E+04  0.19947524043E+04  0.93692724132E+02 0.  0.
         13    1    3    3    0    0  0.28755466217E+03  0.10421113537E+03  0.93941069952E+03  0.98794742109E+03  0.00000000000E+00 0.  1.
        -13    1    3    3    0    0  0.27200091361E+03  0.19802750359E+03  0.94892406701E+03  0.10068049832E+04  0.00000000000E+00 0. -1.
         22    1    1    2    0    0 -0.55955557578E+03 -0.30223863896E+03 -0.34343486045E+04  0.34927354572E+04  0.00000000000E+00 0. -1.
<mgrwt>
<rscale>  0 0.52652032E+04</rscale>
<asrwt>0</asrwt>
<pdfrwt beam="1">  1        2 0.54103859E+00 0.52652032E+04</pdfrwt>
<pdfrwt beam="2">  1       -2 0.30319031E+00 0.52652032E+04</pdfrwt>
<totfact> 0.17103632E-02</totfact>
</mgrwt>
</event>
<event>
 6    1  0.1614874E-005  0.8704211E+03  0.7818608E-02  0.9463331E-01
          2   -1    0    0  501    0  0.00000000000E+00  0.00000000000E+00  0.83867992049E+03  0.83867992049E+03  0.00000000000E+00 0. -1.
         -2   -1    0    0    0  501 -0.00000000000E+00 -0.00000000000E+00 -0.22584090735E+03  0.22584090735E+03  0.00000000000E+00 0.  1.
         23    2    1    2    0    0 -0.13432241576E+03 -0.27158265881E+03 -0.65937278283E+02  0.32119256540E+03  0.83769251251E+02 0.  0.
         11    1    3    3    0    0 -0.44937995370E+02 -0.70945377006E+02  0.18291888606E+02  0.85949189264E+02  0.00000000000E+00 0.  1.
        -11    1    3    3    0    0 -0.89384420391E+02 -0.20063728181E+03 -0.84229166890E+02  0.23524337613E+03  0.00000000000E+00 0. -1.
         22    1    1    2    0    0  0.13432241576E+03  0.27158265881E+03  0.67877629143E+03  0.74332826244E+03  0.00000000000E+00 0. -1.
<mgrwt>
<rscale>  0 0.87042113E+03</rscale>
<asrwt>0</asrwt>
<pdfrwt beam="1">  1        2 0.12902768E+00 0.87042113E+03</pdfrwt>
<pdfrwt beam="2">  1       -2 0.34744756E-01 0.87042113E+03</pdfrwt>
<totfact> 0.25181996E+02</totfact>
</mgrwt>
</event>
<event>
 6    1  0.1614874E-005  0.4065913E+04  0.7818608E-02  0.7991380E-01
          1   -1    0    0  501    0  0.00000000000E+00  0.00000000000E+00  0.21576252329E+04  0.21576252329E+04  0.00000000000E+00 0. -1.
         -1   -1    0    0    0  501 -0.00000000000E+00 -0.00000000000E+00 -0.19154913564E+04  0.19154913564E+04  0.00000000000E+00 0.  1.
         23    2    1    2    0    0  0.20306978568E+04  0.37976539864E+02  0.18430944185E+03  0.20412406904E+04  0.86703993548E+02 0.  0.
         11    1    3    3    0    0  0.12373386024E+04  0.27401255965E+02  0.15453529954E+03  0.12472525024E+04  0.00000000000E+00 0. -1.
        -11    1    3    3    0    0  0.79335925439E+03  0.10575283899E+02  0.29774142310E+02  0.79398818801E+03  0.00000000000E+00 0.  1.
         22    1    1    2    0    0 -0.20306978568E+04 -0.37976539864E+02  0.57824434628E+02  0.20318758989E+04  0.00000000000E+00 0.  1.
<mgrwt>
<rscale>  0 0.40659132E+04</rscale>
<asrwt>0</asrwt>
<pdfrwt beam="1">  1        1 0.33194234E+00 0.40659132E+04</pdfrwt>
<pdfrwt beam="2">  1       -1 0.29469098E+00 0.40659132E+04</pdfrwt>
<totfact> 0.64796788E-02</totfact>
</mgrwt>
</event>
<event>
 6    1  0.1614874E-005  0.2904282E+04  0.7818608E-02  0.8271605E-01
         -1   -1    0    0    0  501 -0.00000000000E+00  0.00000000000E+00  0.16778198054E+04  0.16778198054E+04  0.00000000000E+00 0.  1.
          1   -1    0    0  501    0  0.00000000000E+00 -0.00000000000E+00 -0.12568176728E+04  0.12568176728E+04  0.00000000000E+00 0. -1.
         23    2    1    2    0    0 -0.12028762851E+03 -0.12559230200E+04  0.93573933829E+03  0.15720054161E+04  0.61491246659E+02 0.  0.
         11    1    3    3    0    0 -0.81191509460E+02 -0.75443140540E+03  0.52670666331E+03  0.92367673774E+03  0.00000000000E+00 0. -1.
        -11    1    3    3    0    0 -0.39096119051E+02 -0.50149161458E+03  0.40903267498E+03  0.64832867839E+03  0.00000000000E+00 0.  1.
         22    1    1    2    0    0  0.12028762851E+03  0.12559230200E+04 -0.51473720571E+03  0.13626320621E+04  0.00000000000E+00 0. -1.
<mgrwt>
<rscale>  0 0.29042821E+04</rscale>
<asrwt>0</asrwt>
<pdfrwt beam="1">  1        1 0.19335656E+00 0.29042821E+04</pdfrwt>
<pdfrwt beam="2">  1       -1 0.25812612E+00 0.29042821E+04</pdfrwt>
<totfact> 0.51443347E-01</totfact>
</mgrwt>
</event>
<event>
 6    1  0.1614874E-005  0.2051098E+04  0.7818608E-02  0.8583097E-01
          2   -1    0    0  501    0  0.00000000000E+00  0.00000000000E+00  0.18004010384E+04  0.18004010384E+04  0.00000000000E+00 0. -1.
         -2   -1    0    0    0  501 -0.00000000000E+00 -0.00000000000E+00 -0.58417562768E+03  0.58417562768E+03  0.00000000000E+00 0.  1.
         23    2    1    2    0    0 -0.71673286413E+03  0.54274185411E+03  0.40467549801E+02  0.90448164675E+03  0.90414091777E+02 0.  0.
         13    1    3    3    0    0 -0.24189839036E+03  0.19478073555E+03  0.56082671945E+02  0.31559409420E+03  0.00000000000E+00 0.  1.
        -13    1    3    3    0    0 -0.47483447377E+03  0.34796111856E+03 -0.15615122143E+02  0.58888755255E+03  0.00000000000E+00 0. -1.
         22    1    1    2    0    0  0.71673286413E+03 -0.54274185411E+03  0.11757578609E+04  0.14800950193E+04  0.00000000000E+00 0. -1.
<mgrwt>
<rscale>  0 0.20510977E+04</rscale>
<asrwt>0</asrwt>
<pdfrwt beam="1">  1        2 0.27698477E+00 0.20510977E+04</pdfrwt>
<pdfrwt beam="2">  1       -2 0.89873174E-01 0.20510977E+04</pdfrwt>
<totfact> 0.84599822E+00</totfact>
</mgrwt>
</event>
<event>
 6    1  0.1614874E-005  0.3822597E+04  0.7818608E-02  0.8041323E-01
          1   -1    0    0  501    0  0.00000000000E+00  0.00000000000E+00  0.20076748682E+04  0.20076748682E+04  0.00000000000E+00 0. -1.
         -1   -1    0    0    0  501 -0.00000000000E+00 -0.00000000000E+00 -0.18195489725E+04  0.18195489725E+04  0.00000000000E+00 0.  1.
         23    2    1    2    0    0 -0.39288642702E+03  0.15268548158E+04  0.11739655076E+04  0.19677816895E+04  0.91238102249E+02 0.  0.
         11    1    3    3    0    0 -0.21652527464E+03  0.79465792358E+03  0.66803725700E+03  0.10604895977E+04  0.00000000000E+00 0. -1.
        -11    1    3    3    0    0 -0.17636115238E+03  0.73219689226E+03  0.50592825058E+03  0.90729209179E+03  0.00000000000E+00 0.  1.
         22    1    1    2    0    0  0.39288642702E+03 -0.15268548158E+04 -0.98583961190E+03  0.18594421512E+04  0.00000000000E+00 0.  1.
<mgrwt>
<rscale>  0 0.38225974E+04</rscale>
<asrwt>0</asrwt>
<pdfrwt beam="1">  1        1 0.30887306E+00 0.38225974E+04</pdfrwt>
<pdfrwt beam="2">  1       -1 0.27993061E+00 0.38225974E+04</pdfrwt>
<totfact> 0.10418664E-01</totfact>
</mgrwt>
</event>
<event>
 6    1  0.1614874E-005  0.2263207E+04  0.7818608E-02  0.8492571E-01
         -2   -1    0    0    0  501 -0.00000000000E+00  0.00000000000E+00  0.55270129940E+03  0.55270129940E+03  0.00000000000E+00 0.  1.
          2   -1    0    0  501    0  0.00000000000E+00 -0.00000000000E+00 -0.23168508446E+04  0.23168508446E+04  0.00000000000E+00 0. -1.
         23    2    1    2    0    0 -0.33602329995E+03  0.93300300136E+02 -0.22459611841E+04  0.22747756654E+04  0.92984317288E+02 0.  0.
         11    1    3    3    0    0 -0.97638304104E+02 -0.11320681996E+02 -0.73642212907E+03  0.74295285749E+03  0.00000000000E+00 0. -1.
        -11    1    3    3    0    0 -0.23838499585E+03  0.10462098213E+03 -0.15095390550E+04  0.15318228079E+04  0.00000000000E+00 0.  1.
         22    1    1    2    0    0  0.33602329995E+03 -0.93300300136E+02  0.48181163890E+03  0.59477647860E+03  0.00000000000E+00 0.  1.
<mgrwt>
<rscale>  0 0.22632070E+04</rscale>
<asrwt>0</asrwt>
<pdfrwt beam="1">  1        2 0.35643860E+00 0.22632070E+04</pdfrwt>
<pdfrwt beam="2">  1       -2 0.85030968E-01 0.22632070E+04</pdfrwt>
<totfact> 0.48544450E+00</totfact>
</mgrwt>
</event>
<event>
 6    1  0.1614874E-005  0.2168859E+04  0.7818608E-02  0.8531503E-01
         -1   -1    0    0    0  501 -0.00000000000E+00  0.00000000000E+00  0.26344858513E+04  0.26344858513E+04  0.00000000000E+00 0.  1.
          1   -1    0    0  501    0  0.00000000000E+00 -0.00000000000E+00 -0.44638216386E+03  0.44638216386E+03  0.00000000000E+00 0. -1.
         23    2    1    2    0    0 -0.39970886007E+03  0.29466524828E+03  0.24622245566E+04  0.25136493340E+04  0.96376479017E+02 0.  0.
         11    1    3    3    0    0 -0.29603599451E+03  0.22471282163E+03  0.16130022614E+04  0.16552671861E+04  0.00000000000E+00 0.  1.
        -11    1    3    3    0    0 -0.10367286556E+03  0.69952426653E+02  0.84922229519E+03  0.85838214782E+03  0.00000000000E+00 0. -1.
         22    1    1    2    0    0  0.39970886007E+03 -0.29466524828E+03 -0.27412086917E+03  0.56721868118E+03  0.00000000000E+00 0. -1.
<mgrwt>
<rscale>  0 0.21688591E+04</rscale>
<asrwt>0</asrwt>
<pdfrwt beam="1">  1        1 0.68674181E-01 0.21688591E+04</pdfrwt>
<pdfrwt beam="2">  1       -1 0.40530551E+00 0.21688591E+04</pdfrwt>
<totfact> 0.31169422E-01</totfact>
</mgrwt>
</event>
<event>
 6    1  0.1614874E-005  0.1438146E+04  0.7818608E-02  0.8926660E-01
          1   -1    0    0  501    0  0.00000000000E+00  0.00000000000E+00  0.59185952582E+03  0.59185952582E+03  0.00000000000E+00 0. -1.
         -1   -1    0    0    0  501 -0.00000000000E+00 -0.00000000000E+00 -0.87362998998E+03  0.87362998998E+03  0.00000000000E+00 0.  1.
         23    2    1    2    0    0 -0.22978790700E+03  0.52700155876E+03  0.29364442416E+03  0.65207976738E+03  0.91912186603E+02 0.  0.
         13    1    3    3    0    0 -0.95558522950E+02  0.12301330655E+03  0.64195231528E+02  0.16847769184E+03  0.00000000000E+00 0.  1.
        -13    1    3    3    0    0 -0.13422938405E+03  0.40398825221E+03  0.22944919264E+03  0.48360207554E+03  0.00000000000E+00 0. -1.
         22    1    1    2    0    0  0.22978790700E+03 -0.52700155876E+03 -0.57541488832E+03  0.81340974843E+03  0.00000000000E+00 0.  1.
<mgrwt>
<rscale>  0 0.14381464E+04</rscale>
<asrwt>0</asrwt>
<pdfrwt beam="1">  1        1 0.91055312E-01 0.14381464E+04</pdfrwt>
<pdfrwt beam="2">  1       -1 0.13440461E+00 0.14381464E+04</pdfrwt>
<totfact> 0.15824554E+01</totfact>
</mgrwt>
</event>
<event>
 6    1  0.1614874E-005  0.2661721E+04  0.7818608E-02  0.8347533E-01
          1   -1    0    0  501    0  0.00000000000E+00  0.00000000000E+00  0.24529410672E+04  0.24529410672E+04  0.00000000000E+00 0. -1.
         -1   -1    0    0    0  501 -0.00000000000E+00 -0.00000000000E+00 -0.72206762922E+03  0.72206762922E+03  0.00000000000E+00 0.  1.
         23    2    1    2    0    0 -0.23064477200E+03  0.11633573891E+04  0.15826538798E+04  0.19797821643E+04  0.90259010934E+02 0.  0.
         11    1    3    3    0    0 -0.45345398549E+02  0.45435897677E+03  0.60896121814E+03  0.76113865369E+03  0.00000000000E+00 0. -1.
        -11    1    3    3    0    0 -0.18529937346E+03  0.70899841234E+03  0.97369266165E+03  0.12186435106E+04  0.00000000000E+00 0.  1.
         22    1    1    2    0    0  0.23064477200E+03 -0.11633573891E+04  0.14821955814E+03  0.11952265321E+04  0.00000000000E+00 0.  1.
<mgrwt>
<rscale>  0 0.26617208E+04</rscale>
<asrwt>0</asrwt>
<pdfrwt beam="1">  1        1 0.37737555E+00 0.26617208E+04</pdfrwt>
<pdfrwt beam="2">  1       -1 0.11108733E+00 0.26617208E+04</pdfrwt>
<totfact> 0.95348667E-01</totfact>
</mgrwt>
</event>
<event>
 6    1  0.1614874E-005  0.1159586E+04  0.7818608E-02  0.9148985E-01
          2   -1    0    0  501    0  0.00000000000E+00  0.00000000000E+00  0.69085086813E+03  0.69085086813E+03  0.00000000000E+00 0. -1.
         -2   -1    0    0    0  501 -0.00000000000E+00 -0.00000000000E+00 -0.48658821523E+03  0.48658821523E+03  0.00000000000E+00 0.  1.
         23    2    1    2    0    0 -0.19390891508E+03  0.35969113660E+03 -0.31124030272E+03  0.51962324412E+03  0.78481900486E+02 0.  0.
         11    1    3    3    0    0 -0.14894666856E+03  0.21073454496E+03 -0.16645680016E+03  0.30708634752E+03  0.00000000000E+00 0. -1.
        -11    1    3    3    0    0 -0.44962246520E+02  0.14895659164E+03 -0.14478350256E+03  0.21253689661E+03  0.00000000000E+00 0.  1.
         22    1    1    2    0    0  0.19390891508E+03 -0.35969113660E+03  0.51550295561E+03  0.65781583923E+03  0.00000000000E+00 0. -1.
<mgrwt>
<rscale>  0 0.11595859E+04</rscale>
<asrwt>0</asrwt>
<pdfrwt beam="1">  1        2 0.10628475E+00 0.11595859E+04</pdfrwt>
<pdfrwt beam="2">  1       -2 0.74859726E-01 0.11595859E+04</pdfrwt>
<totfact> 0.66122672E+01</totfact>
</mgrwt>
</event>
<event>
 6    1  0.1614874E-005  0.2158120E+04  0.7818608E-02  0.8536065E-01
         -2   -1    0    0    0  501 -0.00000000000E+00  0.00000000000E+00  0.43456446509E+03  0.43456446509E+03  0.00000000000E+00 0.  1.
          2   -1    0    0  501    0  0.00000000000E+00 -0.00000000000E+00 -0.26793959664E+04  0.26793959664E+04  0.00000000000E+00 0. -1.
         23    2    1    2    0    0  0.15903141294E+03  0.10363524077E+04 -0.14804614444E+04  0.18164324406E+04  0.91342320493E+02 0.  0.
         13    1    3    3    0    0  0.10149160152E+03  0.43912713391E+03 -0.68739153295E+03  0.82197342079E+03  0.00000000000E+00 0.  1.
        -13    1    3    3    0    0  0.57539811420E+02  0.59722527380E+03 -0.79306991148E+03  0.99445901980E+03  0.00000000000E+00 0. -1.
         22    1    1    2    0    0 -0.15903141294E+03 -0.10363524077E+04 -0.76437005684E+03  0.12975279909E+04  0.00000000000E+00 0. -1.
<mgrwt>
<rscale>  0 0.21581198E+04</rscale>
<asrwt>0</asrwt>
<pdfrwt beam="1">  1        2 0.41221476E+00 0.21581198E+04</pdfrwt>
<pdfrwt beam="2">  1       -2 0.66856071E-01 0.21581198E+04</pdfrwt>
<totfact> 0.51496651E+00</totfact>
</mgrwt>
</event>
<event>
 6    1  0.1614874E-005  0.3859212E+04  0.7818608E-02  0.8033566E-01
          2   -1    0    0  501    0  0.00000000000E+00  0.00000000000E+00  0.30185602299E+04  0.30185602299E+04  0.00000000000E+00 0. -1.
         -2   -1    0    0    0  501 -0.00000000000E+00 -0.00000000000E+00 -0.12334951006E+04  0.12334951006E+04  0.00000000000E+00 0.  1.
         23    2    1    2    0    0 -0.23093971541E+03  0.18348389664E+04  0.29048637916E+03  0.18742973897E+04  0.92957966502E+02 0.  0.
         11    1    3    3    0    0 -0.20791909743E+03  0.16402976230E+04  0.23044772921E+03  0.16694049236E+04  0.00000000000E+00 0. -1.
        -11    1    3    3    0    0 -0.23020617980E+02  0.19454134346E+03  0.60038649944E+02  0.20489246608E+03  0.00000000000E+00 0.  1.
         22    1    1    2    0    0  0.23093971541E+03 -0.18348389664E+04  0.14945787501E+04  0.23777579408E+04  0.00000000000E+00 0.  1.
<mgrwt>
<rscale>  0 0.38592120E+04</rscale>
<asrwt>0</asrwt>
<pdfrwt beam="1">  1        2 0.46439388E+00 0.38592120E+04</pdfrwt>
<pdfrwt beam="2">  1       -2 0.18976848E+00 0.38592120E+04</pdfrwt>
<totfact> 0.21025247E-01</totfact>
</mgrwt>
</event>
<event>
 6    1  0.1614874E-005  0.1891010E+04  0.7818608E-02  0.8659344E-01
          2   -1    0    0  501    0  0.00000000000E+00  0.00000000000E+00  0.15293717878E+04  0.15293717878E+04  0.00000000000E+00 0. -1.
         -2   -1    0    0    0  501 -0.00000000000E+00 -0.00000000000E+00 -0.58454052343E+03  0.58454052343E+03  0.00000000000E+00 0.  1.
         23    2    1    2    0    0 -0.77849927327E+03 -0.48709017371E+03  0.71479573446E+03  0.11672157913E+04  0.90231954731E+02 0.  0.
         13    1    3    3    0    0 -0.27685698831E+03 -0.12689813039E+03  0.25652560384E+03  0.39819381324E+03  0.00000000000E+00 0. -1.
        -13    1    3    3    0    0 -0.50164228495E+03 -0.36019204332E+03  0.45827013061E+03  0.76902197806E+03  0.00000000000E+00 0.  1.
         22    1    1    2    0    0  0.77849927327E+03  0.48709017371E+03  0.23003552988E+03  0.94669651991E+03  0.00000000000E+00 0. -1.
<mgrwt>
<rscale>  0 0.18910101E+04</rscale>
<asrwt>0</asrwt>
<pdfrwt beam="1">  1        2 0.23528797E+00 0.18910101E+04</pdfrwt>
<pdfrwt beam="2">  1       -2 0.89929312E-01 0.18910101E+04</pdfrwt>
<totfact> 0.12124641E+01</totfact>
</mgrwt>
</event>
<event>
 6    1  0.1614874E-005  0.3202224E+04  0.7818608E-02  0.8188230E-01
          1   -1    0    0  501    0  0.00000000000E+00  0.00000000000E+00  0.35528729399E+04  0.35528729399E+04  0.00000000000E+00 0. -1.
         -1   -1    0    0    0  501 -0.00000000000E+00 -0.00000000000E+00 -0.72154553987E+03  0.72154553987E+03  0.00000000000E+00 0.  1.
         23    2    1    2    0    0 -0.10132895966E+04  0.71348188295E+03  0.27674411106E+04  0.30334939607E+04  0.86851051875E+02 0.  0.
         13    1    3    3    0    0 -0.35623791415E+03  0.20509575493E+03  0.95662110612E+03  0.10411981852E+04  0.00000000000E+00 0.  1.
        -13    1    3    3    0    0 -0.65705168249E+03  0.50838612801E+03  0.18108200045E+04  0.19922957755E+04  0.00000000000E+00 0. -1.
         22    1    1    2    0    0  0.10132895966E+04 -0.71348188295E+03  0.63886289418E+02  0.12409245190E+04  0.00000000000E+00 0.  1.
<mgrwt>
<rscale>  0 0.32022240E+04</rscale>
<asrwt>0</asrwt>
<pdfrwt beam="1">  1        1 0.54659583E+00 0.32022240E+04</pdfrwt>
<pdfrwt beam="2">  1       -1 0.11100701E+00 0.32022240E+04</pdfrwt>
<totfact> 0.14156611E-01</totfact>
</mgrwt>
</event>
<event>
 6    1  0.1614874E-005  0.2562867E+04  0.7818608E-02  0.8380925E-01
          2   -1    0    0  501    0  0.00000000000E+00  0.00000000000E+00  0.33215747702E+04  0.33215747702E+04  0.00000000000E+00 0. -1.
         -2   -1    0    0    0  501 -0.00000000000E+00 -0.00000000000E+00 -0.49436544354E+03  0.49436544354E+03  0.00000000000E+00 0.  1.
         23    2    1    2    0    0  0.79866422146E+03  0.94967411025E+03  0.18820503377E+04  0.22561097842E+04  0.90401497389E+02 0.  0.
         13    1    3    3    0    0  0.48679360060E+03  0.61327280066E+03  0.12539640862E+04  0.14783428111E+04  0.00000000000E+00 0.  1.
        -13    1    3    3    0    0  0.31187062086E+03  0.33640130959E+03  0.62808625144E+03  0.77776697313E+03  0.00000000000E+00 0. -1.
         22    1    1    2    0    0 -0.79866422146E+03 -0.94967411025E+03  0.94515898901E+03  0.15598304295E+04  0.00000000000E+00 0.  1.
<mgrwt>
<rscale>  0 0.25628670E+04</rscale>
<asrwt>0</asrwt>
<pdfrwt beam="1">  1        2 0.51101149E+00 0.25628670E+04</pdfrwt>
<pdfrwt beam="2">  1       -2 0.76056224E-01 0.25628670E+04</pdfrwt>
<totfact> 0.14805201E+00</totfact>
</mgrwt>
</event>
<event>
 6    1  0.1614874E-005  0.1001102E+04  0.7818608E-02  0.9307337E-01
         -2   -1    0    0    0  501 -0.00000000000E+00  0.00000000000E+00  0.34902727689E+03  0.34902727689E+03  0.00000000000E+00 0.  1.
          2   -1    0    0  501    0  0.00000000000E+00 -0.00000000000E+00 -0.71785597641E+03  0.71785597641E+03  0.00000000000E+00 0. -1.
         23    2    1    2    0    0  0.14848959196E+03 -0.17479947245E+03  0.28293934095E+03  0.37593781907E+03  0.93115834636E+02 0.  0.
         13    1    3    3    0    0  0.67961761177E+02 -0.44440233504E+02  0.16023402250E+03  0.17963484435E+03  0.00000000000E+00 0. -1.
        -13    1    3    3    0    0  0.80527830780E+02 -0.13035923895E+03  0.12270531845E+03  0.19630297472E+03  0.00000000000E+00 0.  1.
         22    1    1    2    0    0 -0.14848959196E+03  0.17479947245E+03 -0.65176804048E+03  0.69094543423E+03  0.00000000000E+00 0. -1.
<mgrwt>
<rscale>  0 0.10011020E+04</rscale>
<asrwt>0</asrwt>
<pdfrwt beam="1">  1        2 0.11043938E+00 0.10011020E+04</pdfrwt>
<pdfrwt beam="2">  1       -2 0.53696505E-01 0.10011020E+04</pdfrwt>
<totfact> 0.12948033E+02</totfact>
</mgrwt>
</event>
<event>
 6    1  0.1614874E-005  0.4032803E+04  0.7818608E-02  0.7997962E-01
          2   -1    0    0  501    0  0.00000000000E+00  0.00000000000E+00  0.25690454645E+04  0.25690454645E+04  0.00000000000E+00 0. -1.
         -2   -1    0    0    0  501 -0.00000000000E+00 -0.00000000000E+00 -0.15826399808E+04  0.15826399808E+04  0.00000000000E+00 0.  1.
         23    2    1    2    0    0 -0.15485629759E+04  0.34641419114E+03  0.17725606942E+04  0.23807845173E+04  0.90074530338E+02 0.  0.
         11    1    3    3    0    0 -0.13273909180E+04  0.28305346525E+03  0.15569872298E+04  0.20655011854E+04  0.00000000000E+00 0. -1.
        -11    1    3    3    0    0 -0.22117205787E+03  0.63360725894E+02  0.21557346443E+03  0.31528333184E+03  0.00000000000E+00 0.  1.
         22    1    1    2    0    0  0.15485629759E+04 -0.34641419114E+03 -0.78615521052E+03  0.17709009281E+04  0.00000000000E+00 0.  1.
<mgrwt>
<rscale>  0 0.40328025E+04</rscale>
<asrwt>0</asrwt>
<pdfrwt beam="1">  1        2 0.39523776E+00 0.40328025E+04</pdfrwt>
<pdfrwt beam="2">  1       -2 0.24348307E+00 0.40328025E+04</pdfrwt>
<totfact> 0.17598030E-01</totfact>
</mgrwt>
</event>
<event>
 6    1  0.1614874E-005  0.7709543E+03  0.7818608E-02  0.9603038E-01
          2   -1    0    0  501    0  0.00000000000E+00  0.00000000000E+00  0.33086686288E+03  0.33086686288E+03  0.00000000000E+00 0. -1.
         -2   -1    0    0    0  501 -0.00000000000E+00 -0.00000000000E+00 -0.44910095177E+03  0.44910095177E+03  0.00000000000E+00 0.  1.
         23    2    1    2    0    0 -0.88174685210E+02  0.23070529131E+03 -0.35222215467E+03  0.43974711940E+03  0.91199650393E+02 0.  0.
         11    1    3    3    0    0 -0.76538011118E+02  0.82013698013E+02 -0.17804975033E+03  0.21044245627E+03  0.00000000000E+00 0.  1.
        -11    1    3    3    0    0 -0.11636674092E+02  0.14869159330E+03 -0.17417240433E+03  0.22930466313E+03  0.00000000000E+00 0. -1.
         22    1    1    2    0    0  0.88174685210E+02 -0.23070529131E+03  0.23398806578E+03  0.34022069525E+03  0.00000000000E+00 0. -1.
<mgrwt>
<rscale>  0 0.77095427E+03</rscale>
<asrwt>0</asrwt>
<pdfrwt beam="1">  1        2 0.50902594E-01 0.77095427E+03</pdfrwt>
<pdfrwt beam="2">  1       -2 0.69092454E-01 0.77095427E+03</pdfrwt>
<totfact> 0.18983863E+02</totfact>
</mgrwt>
</event>
<event>
 6    1  0.1614874E-005  0.2722060E+04  0.7818608E-02  0.8327883E-01
         -2   -1    0    0    0  501 -0.00000000000E+00  0.00000000000E+00  0.11199521458E+04  0.11199521458E+04  0.00000000000E+00 0.  1.
          2   -1    0    0  501    0  0.00000000000E+00 -0.00000000000E+00 -0.16540014245E+04  0.16540014245E+04  0.00000000000E+00 0. -1.
         23    2    1    2    0    0 -0.59929639291E+02  0.59059862006E+03  0.97909340291E+03  0.11485308356E+04  0.90004983226E+02 0.  0.
         11    1    3    3    0    0 -0.64264873828E+00  0.31694866786E+03  0.45798520853E+03  0.55696258608E+03  0.00000000000E+00 0. -1.
        -11    1    3    3    0    0 -0.59286990552E+02  0.27364995219E+03  0.52110819438E+03  0.59156824951E+03  0.00000000000E+00 0.  1.
         22    1    1    2    0    0  0.59929639291E+02 -0.59059862006E+03 -0.15131426816E+04  0.16254227347E+04  0.00000000000E+00 0. -1.
<mgrwt>
<rscale>  0 0.27220598E+04</rscale>
<asrwt>0</asrwt>
<pdfrwt beam="1">  1        2 0.25446176E+00 0.27220598E+04</pdfrwt>
<pdfrwt beam="2">  1       -2 0.17230033E+00 0.27220598E+04</pdfrwt>
<totfact> 0.18704226E+00</totfact>
</mgrwt>
</event>
<event>
 6    1  0.1614874E-005  0.2064398E+04  0.7818608E-02  0.8577090E-01
         -1   -1    0    0    0  501 -0.00000000000E+00  0.00000000000E+00  0.43782735902E+03  0.43782735902E+03  0.00000000000E+00 0. -1.
          1   -1    0    0  501    0  0.00000000000E+00 -0.00000000000E+00 -0.24334593887E+04  0.24334593887E+04  0.00000000000E+00 0.  1.
         23    2    1    2    0    0  0.39797934502E+03  0.52766656360E+01 -0.23214065277E+04  0.23569479238E+04  0.88655772357E+02 0.  0.
         11    1    3    3    0    0  0.59718492545E+02 -0.25139074353E+02 -0.49617567161E+03  0.50038841764E+03  0.00000000000E+00 0. -1.
        -11    1    3    3    0    0  0.33826085247E+03  0.30415739989E+02 -0.18252308561E+04  0.18565595061E+04  0.00000000000E+00 0.  1.
         22    1    1    2    0    0 -0.39797934502E+03 -0.52766656360E+01  0.32577449806E+03  0.51433882397E+03  0.00000000000E+00 0. -1.
<mgrwt>
<rscale>  0 0.20643983E+04</rscale>
<asrwt>0</asrwt>
<pdfrwt beam="1">  1        1 0.37437836E+00 0.20643983E+04</pdfrwt>
<pdfrwt beam="2">  1       -1 0.67358057E-01 0.20643983E+04</pdfrwt>
<totfact> 0.31029515E+00</totfact>
</mgrwt>
</event>
<event>
 6    1  0.1614874E-005  0.1829806E+04  0.7818608E-02  0.8690608E-01
         -2   -1    0    0    0  501 -0.00000000000E+00  0.00000000000E+00  0.82735098847E+03  0.82735098847E+03  0.00000000000E+00 0.  1.
          2   -1    0    0  501    0  0.00000000000E+00 -0.00000000000E+00 -0.10117198764E+04  0.10117198764E+04  0.00000000000E+00 0. -1.
         23    2    1    2    0    0  0.14477577518E+03 -0.79613972165E+03  0.33172484851E+03  0.87930462964E+03  0.91305942389E+02 0.  0.
         11    1    3    3    0    0 -0.55295741881E+01 -0.32554685962E+02 -0.73336473264E+00  0.33029102207E+02  0.00000000000E+00 0. -1.
        -11    1    3    3    0    0  0.15030534936E+03 -0.76358503569E+03  0.33245821325E+03  0.84627552744E+03  0.00000000000E+00 0.  1.
         22    1    1    2    0    0 -0.14477577518E+03  0.79613972165E+03 -0.51609373644E+03  0.95976623522E+03  0.00000000000E+00 0. -1.
<mgrwt>
<rscale>  0 0.18298059E+04</rscale>
<asrwt>0</asrwt>
<pdfrwt beam="1">  1        2 0.15564921E+00 0.18298059E+04</pdfrwt>
<pdfrwt beam="2">  1       -2 0.12728477E+00 0.18298059E+04</pdfrwt>
<totfact> 0.10681506E+01</totfact>
</mgrwt>
</event>
<event>
 6    1  0.1617239E-005  0.3011607E+04  0.7818608E-02  0.8240424E-01
         -2   -1    0    0    0  501 -0.00000000000E+00  0.00000000000E+00  0.19240691443E+04  0.19240691443E+04  0.00000000000E+00 0.  1.
          2   -1    0    0  501    0  0.00000000000E+00 -0.00000000000E+00 -0.11784629381E+04  0.11784629381E+04  0.00000000000E+00 0. -1.
         23    2    1    2    0    0  0.81734929534E+03  0.11224185870E+04  0.97024404947E+03  0.16959953727E+04  0.84518834680E+02 0.  0.
         13    1    3    3    0    0  0.33692385043E+03  0.43838866904E+03  0.43393157618E+03  0.70285056658E+03  0.00000000000E+00 0. -1.
        -13    1    3    3    0    0  0.48042544490E+03  0.68402991800E+03  0.53631247328E+03  0.99314480607E+03  0.00000000000E+00 0.  1.
         22    1    1    2    0    0 -0.81734929534E+03 -0.11224185870E+04 -0.22463784322E+03  0.14065367097E+04  0.00000000000E+00 0. -1.
<mgrwt>
<rscale>  0 0.30116070E+04</rscale>
<asrwt>0</asrwt>
<pdfrwt beam="1">  1        2 0.18130199E+00 0.30116070E+04</pdfrwt>
<pdfrwt beam="2">  1       -2 0.29601064E+00 0.30116070E+04</pdfrwt>
<totfact> 0.56103100E-01</totfact>
</mgrwt>
</event>
<event>
 6    1  0.1614874E-005  0.1357878E+04  0.7818608E-02  0.8984886E-01
          2   -1    0    0  501    0  0.00000000000E+00  0.00000000000E+00  0.47031869464E+03  0.47031869464E+03  0.00000000000E+00 0. -1.
         -2   -1    0    0    0  501 -0.00000000000E+00 -0.00000000000E+00 -0.98009749505E+03  0.98009749505E+03  0.00000000000E+00 0.  1.
         23    2    1    2    0    0  0.55147587468E+03 -0.36442250138E+03 -0.10454552513E+03  0.67508180553E+03  0.88748394125E+02 0.  0.
         13    1    3    3    0    0  0.43942253596E+03 -0.28001089453E+03 -0.11767897963E+03  0.53417844248E+03  0.00000000000E+00 0.  1.
        -13    1    3    3    0    0  0.11205333872E+03 -0.84411606849E+02  0.13133454508E+02  0.14090336304E+03  0.00000000000E+00 0. -1.
         22    1    1    2    0    0 -0.55147587468E+03  0.36442250138E+03 -0.40523327528E+03  0.77533438416E+03  0.00000000000E+00 0. -1.
<mgrwt>
<rscale>  0 0.13578780E+04</rscale>
<asrwt>0</asrwt>
<pdfrwt beam="1">  1        2 0.72356723E-01 0.13578780E+04</pdfrwt>
<pdfrwt beam="2">  1       -2 0.15078423E+00 0.13578780E+04</pdfrwt>
<totfact> 0.19051747E+01</totfact>
</mgrwt>
</event>
<event>
 6    1  0.1614874E-005  0.1915822E+04  0.7818608E-02  0.8647021E-01
          2   -1    0    0  501    0  0.00000000000E+00  0.00000000000E+00  0.12492431696E+04  0.12492431696E+04  0.00000000000E+00 0. -1.
         -2   -1    0    0    0  501 -0.00000000000E+00 -0.00000000000E+00 -0.73451926180E+03  0.73451926180E+03  0.00000000000E+00 0.  1.
         23    2    1    2    0    0 -0.73232515188E+03 -0.59569364947E+03  0.10387324604E+03  0.95422403081E+03  0.92751267527E+02 0.  0.
         13    1    3    3    0    0 -0.45861268562E+03 -0.37634001795E+03  0.11018008016E+03  0.60340455300E+03  0.00000000000E+00 0. -1.
        -13    1    3    3    0    0 -0.27371246626E+03 -0.21935363152E+03 -0.63068341240E+01  0.35081947780E+03  0.00000000000E+00 0.  1.
         22    1    1    2    0    0  0.73232515188E+03  0.59569364947E+03  0.41085066180E+03  0.10295384006E+04  0.00000000000E+00 0.  1.
<mgrwt>
<rscale>  0 0.19158217E+04</rscale>
<asrwt>0</asrwt>
<pdfrwt beam="1">  1        2 0.19219126E+00 0.19158217E+04</pdfrwt>
<pdfrwt beam="2">  1       -2 0.11300296E+00 0.19158217E+04</pdfrwt>
<totfact> 0.10193848E+01</totfact>
</mgrwt>
</event>
<event>
 6    1  0.1614874E-005  0.1232010E+04  0.7818608E-02  0.9085291E-01
          1   -1    0    0  501    0  0.00000000000E+00  0.00000000000E+00  0.85088485485E+03  0.85088485485E+03  0.00000000000E+00 0. -1.
         -1   -1    0    0    0  501 -0.00000000000E+00 -0.00000000000E+00 -0.44596186284E+03  0.44596186284E+03  0.00000000000E+00 0.  1.
         23    2    1    2    0    0 -0.95302858835E+02  0.49474439717E+03  0.57030638969E+03  0.76655781373E+03  0.92232587652E+02 0.  0.
         11    1    3    3    0    0  0.86372703200E+00  0.23836332683E+03  0.26170882579E+03  0.35399058052E+03  0.00000000000E+00 0. -1.
        -11    1    3    3    0    0 -0.96166585867E+02  0.25638107034E+03  0.30859756390E+03  0.41256723320E+03  0.00000000000E+00 0.  1.
         22    1    1    2    0    0  0.95302858835E+02 -0.49474439717E+03 -0.16538339769E+03  0.53028890397E+03  0.00000000000E+00 0.  1.
<mgrwt>
<rscale>  0 0.12320101E+04</rscale>
<asrwt>0</asrwt>
<pdfrwt beam="1">  1        1 0.13090536E+00 0.12320101E+04</pdfrwt>
<pdfrwt beam="2">  1       -1 0.68609517E-01 0.12320101E+04</pdfrwt>
<totfact> 0.42456150E+01</totfact>
</mgrwt>
</event>
<event>
 6    1  0.1614874E-005  0.2479932E+04  0.7818608E-02  0.8410170E-01
          2   -1    0    0  501    0  0.00000000000E+00  0.00000000000E+00  0.14279653797E+04  0.14279653797E+04  0.00000000000E+00 0. -1.
         -2   -1    0    0    0  501 -0.00000000000E+00 -0.00000000000E+00 -0.10767175731E+04  0.10767175731E+04  0.00000000000E+00 0.  1.
         23    2    1    2    0    0 -0.10957561451E+04 -0.45611448181E+03 -0.18067853831E+03  0.12040417316E+04  0.91377280195E+02 0.  0.
         11    1    3    3    0    0 -0.13651112303E+03 -0.64049436777E+02  0.68047911825E+01  0.15094344055E+03  0.00000000000E+00 0.  1.
        -11    1    3    3    0    0 -0.95924502204E+03 -0.39206504503E+03 -0.18748332949E+03  0.10530982911E+04  0.00000000000E+00 0. -1.
         22    1    1    2    0    0  0.10957561451E+04  0.45611448181E+03  0.53192634493E+03  0.13006412212E+04  0.00000000000E+00 0. -1.
<mgrwt>
<rscale>  0 0.24799318E+04</rscale>
<asrwt>0</asrwt>
<pdfrwt beam="1">  1        2 0.21968698E+00 0.24799318E+04</pdfrwt>
<pdfrwt beam="2">  1       -2 0.16564886E+00 0.24799318E+04</pdfrwt>
<totfact> 0.28540623E+00</totfact>
</mgrwt>
</event>
<event>
 6    1  0.1614874E-005  0.2169514E+04  0.7818608E-02  0.8531225E-01
          1   -1    0    0  501    0  0.00000000000E+00  0.00000000000E+00  0.16044539754E+04  0.16044539754E+04  0.00000000000E+00 0. -1.
         -1   -1    0    0    0  501 -0.00000000000E+00 -0.00000000000E+00 -0.73339433582E+03  0.73339433582E+03  0.00000000000E+00 0.  1.
         23    2    1    2    0    0 -0.14268683537E+03 -0.98986884053E+03 -0.11214403105E+02  0.10042039280E+04  0.89999509947E+02 0.  0.
         11    1    3    3    0    0 -0.10644413106E+03 -0.79814009388E+03  0.25708350821E+02  0.80561708137E+03  0.00000000000E+00 0. -1.
        -11    1    3    3    0    0 -0.36242704307E+02 -0.19172874666E+03 -0.36922753926E+02  0.19858684666E+03  0.00000000000E+00 0.  1.
         22    1    1    2    0    0  0.14268683537E+03  0.98986884053E+03  0.88227404272E+03  0.13336443832E+04  0.00000000000E+00 0. -1.
<mgrwt>
<rscale>  0 0.21695137E+04</rscale>
<asrwt>0</asrwt>
<pdfrwt beam="1">  1        1 0.24683907E+00 0.21695137E+04</pdfrwt>
<pdfrwt beam="2">  1       -1 0.11282990E+00 0.21695137E+04</pdfrwt>
<totfact> 0.36389007E+00</totfact>
</mgrwt>
</event>
<event>
 6    1  0.1614874E-005  0.2845501E+04  0.7818608E-02  0.8289280E-01
         -2   -1    0    0    0  501 -0.00000000000E+00  0.00000000000E+00  0.20978375171E+04  0.20978375171E+04  0.00000000000E+00 0.  1.
          2   -1    0    0  501    0  0.00000000000E+00 -0.00000000000E+00 -0.96490712708E+03  0.96490712708E+03  0.00000000000E+00 0. -1.
         23    2    1    2    0    0 -0.10237955374E+04  0.73902023149E+03  0.12693928022E+04  0.17927327565E+04  0.90688726276E+02 0.  0.
         13    1    3    3    0    0 -0.21090918485E+03  0.15463333314E+03  0.31686035620E+03  0.41084624533E+03  0.00000000000E+00 0. -1.
        -13    1    3    3    0    0 -0.81288635252E+03  0.58438689835E+03  0.95253244599E+03  0.13818865112E+04  0.00000000000E+00 0.  1.
         22    1    1    2    0    0  0.10237955374E+04 -0.73902023149E+03 -0.13646241217E+03  0.12700118877E+04  0.00000000000E+00 0. -1.
<mgrwt>
<rscale>  0 0.28455006E+04</rscale>
<asrwt>0</asrwt>
<pdfrwt beam="1">  1        2 0.14844725E+00 0.28455006E+04</pdfrwt>
<pdfrwt beam="2">  1       -2 0.32274423E+00 0.28455006E+04</pdfrwt>
<totfact> 0.52986020E-01</totfact>
</mgrwt>
</event>
<event>
 6    1  0.1614874E-005  0.2672639E+04  0.7818608E-02  0.8343938E-01
         -1   -1    0    0    0  501 -0.00000000000E+00  0.00000000000E+00  0.44189288260E+03  0.44189288260E+03  0.00000000000E+00 0.  1.
          1   -1    0    0  501    0  0.00000000000E+00 -0.00000000000E+00 -0.40411362254E+04  0.40411362254E+04  0.00000000000E+00 0. -1.
         23    2    1    2    0    0  0.77462995538E+03 -0.44368297604E+03 -0.34662471995E+04  0.35804804250E+04  0.89801308074E+02 0.  0.
         13    1    3    3    0    0  0.58251491588E+03 -0.37659886577E+03 -0.26624537683E+04  0.27513288428E+04  0.00000000000E+00 0. -1.
        -13    1    3    3    0    0  0.19211503949E+03 -0.67084110270E+02 -0.80379343117E+03  0.82915158218E+03  0.00000000000E+00 0.  1.
         22    1    1    2    0    0 -0.77462995538E+03  0.44368297604E+03 -0.13299614328E+03  0.90254868296E+03  0.00000000000E+00 0.  1.
<mgrwt>
<rscale>  0 0.26726386E+04</rscale>
<asrwt>0</asrwt>
<pdfrwt beam="1">  1        1 0.62171327E+00 0.26726386E+04</pdfrwt>
<pdfrwt beam="2">  1       -1 0.67983519E-01 0.26726386E+04</pdfrwt>
<totfact> 0.16937909E-01</totfact>
</mgrwt>
</event>
<event>
 6    1  0.1614874E-005  0.1511282E+04  0.7818608E-02  0.8876985E-01
         -3   -1    0    0    0  501 -0.00000000000E+00  0.00000000000E+00  0.13060678457E+04  0.13060678457E+04  0.00000000000E+00 0.  1.
          3   -1    0    0  501    0  0.00000000000E+00 -0.00000000000E+00 -0.43718475872E+03  0.43718475872E+03  0.00000000000E+00 0. -1.
         23    2    1    2    0    0  0.43298174456E+03 -0.40928810384E+03  0.96687190779E+03  0.11394382687E+04  0.92132182164E+02 0.  0.
         13    1    3    3    0    0  0.23402980807E+03 -0.23033981442E+03  0.44590290825E+03  0.55376509889E+03  0.00000000000E+00 0. -1.
        -13    1    3    3    0    0  0.19895193649E+03 -0.17894828943E+03  0.52096899954E+03  0.58567316979E+03  0.00000000000E+00 0.  1.
         22    1    1    2    0    0 -0.43298174456E+03  0.40928810384E+03 -0.97988820797E+02  0.60381433576E+03  0.00000000000E+00 0. -1.
<mgrwt>
<rscale>  0 0.15112815E+04</rscale>
<asrwt>0</asrwt>
<pdfrwt beam="1">  1        3 0.67259194E-01 0.15112815E+04</pdfrwt>
<pdfrwt beam="2">  1       -3 0.20093351E+00 0.15112815E+04</pdfrwt>
<totfact> 0.77747483E-01</totfact>
</mgrwt>
</event>
<event>
 6    1  0.1614874E-005  0.1567730E+04  0.7818608E-02  0.8840622E-01
         -2   -1    0    0    0  501 -0.00000000000E+00  0.00000000000E+00  0.45161099935E+03  0.45161099935E+03  0.00000000000E+00 0. -1.
          2   -1    0    0  501    0  0.00000000000E+00 -0.00000000000E+00 -0.13605610149E+04  0.13605610149E+04  0.00000000000E+00 0.  1.
         23    2    1    2    0    0  0.53554453841E+03  0.52679023963E+03 -0.70399487316E+03  0.10335048713E+04  0.90595961958E+02 0.  0.
         11    1    3    3    0    0  0.35235820083E+03  0.29311675908E+03 -0.39629361845E+03  0.60590623711E+03  0.00000000000E+00 0. -1.
        -11    1    3    3    0    0  0.18318633758E+03  0.23367348055E+03 -0.30770125471E+03  0.42759863416E+03  0.00000000000E+00 0.  1.
         22    1    1    2    0    0 -0.53554453841E+03 -0.52679023963E+03 -0.20495514241E+03  0.77866714300E+03  0.00000000000E+00 0. -1.
<mgrwt>
<rscale>  0 0.15677300E+04</rscale>
<asrwt>0</asrwt>
<pdfrwt beam="1">  1        2 0.20931708E+00 0.15677300E+04</pdfrwt>
<pdfrwt beam="2">  1       -2 0.69478615E-01 0.15677300E+04</pdfrwt>
<totfact> 0.27692716E+01</totfact>
</mgrwt>
</event>
<event>
 6    1  0.1614874E-005  0.3455685E+04  0.7818608E-02  0.8124373E-01
          2   -1    0    0  501    0  0.00000000000E+00  0.00000000000E+00  0.19254681089E+04  0.19254681089E+04  0.00000000000E+00 0. -1.
         -2   -1    0    0    0  501 -0.00000000000E+00 -0.00000000000E+00 -0.15505006581E+04  0.15505006581E+04  0.00000000000E+00 0.  1.
         23    2    1    2    0    0 -0.83573629935E+03 -0.99541893994E+02  0.17040857994E+04  0.19027811318E+04  0.91125589927E+02 0.  0.
         11    1    3    3    0    0 -0.48191178006E+03 -0.98517853446E+02  0.10330852640E+04  0.11442071027E+04  0.00000000000E+00 0. -1.
        -11    1    3    3    0    0 -0.35382451929E+03 -0.10240405478E+01  0.67100053543E+03  0.75857402912E+03  0.00000000000E+00 0.  1.
         22    1    1    2    0    0  0.83573629935E+03  0.99541893994E+02 -0.13291183486E+04  0.15731876352E+04  0.00000000000E+00 0.  1.
<mgrwt>
<rscale>  0 0.34556849E+04</rscale>
<asrwt>0</asrwt>
<pdfrwt beam="1">  1        2 0.29622586E+00 0.34556849E+04</pdfrwt>
<pdfrwt beam="2">  1       -2 0.23853856E+00 0.34556849E+04</pdfrwt>
<totfact> 0.45850979E-01</totfact>
</mgrwt>
</event>
<event>
 6    1  0.1614874E-005  0.1658163E+04  0.7818608E-02  0.8785592E-01
          1   -1    0    0  501    0  0.00000000000E+00  0.00000000000E+00  0.13869445354E+04  0.13869445354E+04  0.00000000000E+00 0. -1.
         -1   -1    0    0    0  501 -0.00000000000E+00 -0.00000000000E+00 -0.49560491687E+03  0.49560491687E+03  0.00000000000E+00 0.  1.
         23    2    1    2    0    0  0.38562342019E+03  0.16102229555E+03  0.12567422936E+04  0.13274344041E+04  0.89706759942E+02 0.  0.
         13    1    3    3    0    0  0.22645227445E+03  0.13790906507E+03  0.72857656698E+03  0.77532145384E+03  0.00000000000E+00 0. -1.
        -13    1    3    3    0    0  0.15917114575E+03  0.23113230478E+02  0.52816572660E+03  0.55211295023E+03  0.00000000000E+00 0.  1.
         22    1    1    2    0    0 -0.38562342019E+03 -0.16102229555E+03 -0.36540267502E+03  0.55511504823E+03  0.00000000000E+00 0.  1.
<mgrwt>
<rscale>  0 0.16581635E+04</rscale>
<asrwt>0</asrwt>
<pdfrwt beam="1">  1        1 0.21337608E+00 0.16581635E+04</pdfrwt>
<pdfrwt beam="2">  1       -1 0.76246911E-01 0.16581635E+04</pdfrwt>
<totfact> 0.12941739E+01</totfact>
</mgrwt>
</event>
<event>
 6    1  0.1614874E-005  0.1841434E+04  0.7818608E-02  0.8684570E-01
          1   -1    0    0  501    0  0.00000000000E+00  0.00000000000E+00  0.22631266727E+04  0.22631266727E+04  0.00000000000E+00 0. -1.
         -1   -1    0    0    0  501 -0.00000000000E+00 -0.00000000000E+00 -0.37457907173E+03  0.37457907173E+03  0.00000000000E+00 0.  1.
         23    2    1    2    0    0  0.50622152035E+03  0.71178629389E+02  0.20396451225E+04  0.21046418777E+04  0.89658144749E+02 0.  0.
         13    1    3    3    0    0  0.36701269653E+03  0.71573195139E+02  0.13350800986E+04  0.13864558815E+04  0.00000000000E+00 0.  1.
        -13    1    3    3    0    0  0.13920882382E+03 -0.39456575031E+00  0.70456502388E+03  0.71818599624E+03  0.00000000000E+00 0. -1.
         22    1    1    2    0    0 -0.50622152035E+03 -0.71178629389E+02 -0.15109752152E+03  0.53306386668E+03  0.00000000000E+00 0.  1.
<mgrwt>
<rscale>  0 0.18414341E+04</rscale>
<asrwt>0</asrwt>
<pdfrwt beam="1">  1        1 0.34817333E+00 0.18414341E+04</pdfrwt>
<pdfrwt beam="2">  1       -1 0.57627551E-01 0.18414341E+04</pdfrwt>
<totfact> 0.56592786E+00</totfact>
</mgrwt>
</event>
<event>
 6    1  0.1614874E-005  0.7078876E+03  0.7818608E-02  0.9703838E-01
         -1   -1    0    0    0  501 -0.00000000000E+00  0.00000000000E+00  0.18446171931E+03  0.18446171931E+03  0.00000000000E+00 0.  1.
          1   -1    0    0  501    0  0.00000000000E+00 -0.00000000000E+00 -0.67914483099E+03  0.67914483099E+03  0.00000000000E+00 0. -1.
         23    2    1    2    0    0 -0.25175155308E+02  0.21561142184E+03  0.80414327521E+02  0.24890407085E+03  0.91458726999E+02 0.  0.
         11    1    3    3    0    0 -0.24665033787E+02  0.11170068506E+03 -0.48406400718E+01  0.11449383708E+03  0.00000000000E+00 0. -1.
        -11    1    3    3    0    0 -0.51012152079E+00  0.10391073678E+03  0.85254967592E+02  0.13441023377E+03  0.00000000000E+00 0.  1.
         22    1    1    2    0    0  0.25175155308E+02 -0.21561142184E+03 -0.57509743920E+03  0.61470247945E+03  0.00000000000E+00 0. -1.
<mgrwt>
<rscale>  0 0.70788763E+03</rscale>
<asrwt>0</asrwt>
<pdfrwt beam="1">  1        1 0.10448382E+00 0.70788763E+03</pdfrwt>
<pdfrwt beam="2">  1       -1 0.28378726E-01 0.70788763E+03</pdfrwt>
<totfact> 0.32436664E+02</totfact>
</mgrwt>
</event>
<event>
 6    1  0.1614874E-005  0.1596218E+04  0.7818608E-02  0.8822875E-01
         -1   -1    0    0    0  501 -0.00000000000E+00  0.00000000000E+00  0.57191024151E+03  0.57191024151E+03  0.00000000000E+00 0.  1.
          1   -1    0    0  501    0  0.00000000000E+00 -0.00000000000E+00 -0.11137728221E+04  0.11137728221E+04  0.00000000000E+00 0. -1.
         23    2    1    2    0    0  0.52114448615E+03  0.28811859156E+03  0.28528266049E+03  0.66648085203E+03  0.90590460355E+02 0.  0.
         13    1    3    3    0    0  0.43588475428E+03  0.24192797414E+03  0.27399881191E+03  0.56885851722E+03  0.00000000000E+00 0. -1.
        -13    1    3    3    0    0  0.85259731868E+02  0.46190617411E+02  0.11283848578E+02  0.97622334810E+02  0.00000000000E+00 0.  1.
         22    1    1    2    0    0 -0.52114448615E+03 -0.28811859156E+03 -0.82714524104E+03  0.10192022115E+04  0.00000000000E+00 0. -1.
<mgrwt>
<rscale>  0 0.15962181E+04</rscale>
<asrwt>0</asrwt>
<pdfrwt beam="1">  1        1 0.17134966E+00 0.15962181E+04</pdfrwt>
<pdfrwt beam="2">  1       -1 0.87986191E-01 0.15962181E+04</pdfrwt>
<totfact> 0.15089299E+01</totfact>
</mgrwt>
</event>
<event>
 6    1  0.1614874E-005  0.2371580E+04  0.7818608E-02  0.8450221E-01
         -1   -1    0    0    0  501 -0.00000000000E+00  0.00000000000E+00  0.65636926877E+03  0.65636926877E+03  0.00000000000E+00 0. -1.
          1   -1    0    0  501    0  0.00000000000E+00 -0.00000000000E+00 -0.21422369058E+04  0.21422369058E+04  0.00000000000E+00 0.  1.
         23    2    1    2    0    0 -0.56061238388E+03 -0.10278283122E+04 -0.53624668790E+03  0.12911257497E+04  0.93423268051E+02 0.  0.
         11    1    3    3    0    0 -0.45831532141E+03 -0.89938589196E+03 -0.47815390246E+03  0.11169507916E+04  0.00000000000E+00 0.  1.
        -11    1    3    3    0    0 -0.10229706247E+03 -0.12844242023E+03 -0.58092785442E+02  0.17417495809E+03  0.00000000000E+00 0. -1.
         22    1    1    2    0    0  0.56061238388E+03  0.10278283122E+04 -0.94962094915E+03  0.15074804249E+04  0.00000000000E+00 0.  1.
<mgrwt>
<rscale>  0 0.23715805E+04</rscale>
<asrwt>0</asrwt>
<pdfrwt beam="1">  1        1 0.32957491E+00 0.23715805E+04</pdfrwt>
<pdfrwt beam="2">  1       -1 0.10097989E+00 0.23715805E+04</pdfrwt>
<totfact> 0.19965667E+00</totfact>
</mgrwt>
</event>
<event>
 6    1  0.1614874E-005  0.2186739E+04  0.7818608E-02  0.8523968E-01
         -1   -1    0    0    0  501 -0.00000000000E+00  0.00000000000E+00  0.38722938971E+03  0.38722938971E+03  0.00000000000E+00 0.  1.
          1   -1    0    0  501    0  0.00000000000E+00 -0.00000000000E+00 -0.30872062997E+04  0.30872062997E+04  0.00000000000E+00 0. -1.
         23    2    1    2    0    0 -0.50246302920E+03 -0.35645377665E+03  0.79143661722E+02  0.62785185213E+03  0.91683359587E+02 0.  0.
         13    1    3    3    0    0 -0.23347949180E+03 -0.19659877471E+03  0.52754935635E+00  0.30522783231E+03  0.00000000000E+00 0.  1.
        -13    1    3    3    0    0 -0.26898353740E+03 -0.15985500194E+03  0.78616112366E+02  0.32262401982E+03  0.00000000000E+00 0. -1.
         22    1    1    2    0    0  0.50246302920E+03  0.35645377665E+03 -0.27791205717E+04  0.28465838373E+04  0.00000000000E+00 0. -1.
<mgrwt>
<rscale>  0 0.21867391E+04</rscale>
<asrwt>0</asrwt>
<pdfrwt beam="1">  1        1 0.47495483E+00 0.21867391E+04</pdfrwt>
<pdfrwt beam="2">  1       -1 0.59573750E-01 0.21867391E+04</pdfrwt>
<totfact> 0.13464903E+00</totfact>
</mgrwt>
</event>
<event>
 6    1  0.1614874E-005  0.2157212E+04  0.7818608E-02  0.8536451E-01
          1   -1    0    0  501    0  0.00000000000E+00  0.00000000000E+00  0.22667000418E+04  0.22667000418E+04  0.00000000000E+00 0. -1.
         -1   -1    0    0    0  501 -0.00000000000E+00 -0.00000000000E+00 -0.51325322955E+03  0.51325322955E+03  0.00000000000E+00 0.  1.
         23    2    1    2    0    0 -0.38609584078E+03 -0.52257684428E+02 -0.41467182864E+03  0.57710527278E+03  0.96420467479E+02 0.  0.
         11    1    3    3    0    0 -0.16886492642E+03 -0.61875662484E+02 -0.22897798418E+03  0.29116125810E+03  0.00000000000E+00 0. -1.
        -11    1    3    3    0    0 -0.21723091436E+03  0.96179780558E+01 -0.18569384446E+03  0.28594401467E+03  0.00000000000E+00 0.  1.
         22    1    1    2    0    0  0.38609584078E+03  0.52257684428E+02  0.21681186409E+04  0.22028479986E+04  0.00000000000E+00 0. -1.
<mgrwt>
<rscale>  0 0.21572122E+04</rscale>
<asrwt>0</asrwt>
<pdfrwt beam="1">  1        1 0.34872308E+00 0.21572122E+04</pdfrwt>
<pdfrwt beam="2">  1       -1 0.78962037E-01 0.21572122E+04</pdfrwt>
<totfact> 0.28787632E+00</totfact>
</mgrwt>
</event>
<event>
 6    1  0.1614874E-005  0.3395187E+04  0.7818608E-02  0.8139089E-01
         -2   -1    0    0    0  501 -0.00000000000E+00  0.00000000000E+00  0.89447188653E+03  0.89447188653E+03  0.00000000000E+00 0.  1.
          2   -1    0    0  501    0  0.00000000000E+00 -0.00000000000E+00 -0.32218150575E+04  0.32218150575E+04  0.00000000000E+00 0. -1.
         23    2    1    2    0    0  0.10636467589E+03 -0.16928760528E+04 -0.11380572383E+04  0.20446827820E+04  0.91709469306E+02 0.  0.
         13    1    3    3    0    0  0.10741355284E+02 -0.71423860130E+03 -0.44308891424E+03  0.84058309656E+03  0.00000000000E+00 0.  1.
        -13    1    3    3    0    0  0.95623320611E+02 -0.97863745152E+03 -0.69496832410E+03  0.12040996854E+04  0.00000000000E+00 0. -1.
         22    1    1    2    0    0 -0.10636467589E+03  0.16928760528E+04 -0.11892859326E+04  0.20716041620E+04  0.00000000000E+00 0. -1.
<mgrwt>
<rscale>  0 0.33951866E+04</rscale>
<asrwt>0</asrwt>
<pdfrwt beam="1">  1        2 0.49566385E+00 0.33951866E+04</pdfrwt>
<pdfrwt beam="2">  1       -2 0.13761106E+00 0.33951866E+04</pdfrwt>
<totfact> 0.39015107E-01</totfact>
</mgrwt>
</event>
<event>
 6    1  0.1614874E-005  0.2462140E+04  0.7818608E-02  0.8416599E-01
         -1   -1    0    0    0  501 -0.00000000000E+00  0.00000000000E+00  0.62191654439E+03  0.62191654439E+03  0.00000000000E+00 0.  1.
          1   -1    0    0  501    0  0.00000000000E+00 -0.00000000000E+00 -0.24368760714E+04  0.24368760714E+04  0.00000000000E+00 0. -1.
         23    2    1    2    0    0 -0.32279227039E+03 -0.11498602666E+04 -0.54637930373E+03  0.13164754043E+04  0.90574080253E+02 0.  0.
         11    1    3    3    0    0 -0.21581477139E+03 -0.67557003581E+03 -0.36426429270E+03  0.79728248681E+03  0.00000000000E+00 0.  1.
        -11    1    3    3    0    0 -0.10697749899E+03 -0.47429023080E+03 -0.18211501103E+03  0.51919291748E+03  0.00000000000E+00 0. -1.
         22    1    1    2    0    0  0.32279227039E+03  0.11498602666E+04 -0.12685802233E+04  0.17423172115E+04  0.00000000000E+00 0.  1.
<mgrwt>
<rscale>  0 0.24621402E+04</rscale>
<asrwt>0</asrwt>
<pdfrwt beam="1">  1        1 0.37490402E+00 0.24621402E+04</pdfrwt>
<pdfrwt beam="2">  1       -1 0.95679467E-01 0.24621402E+04</pdfrwt>
<totfact> 0.14067382E+00</totfact>
</mgrwt>
</event>
<event>
 6    1  0.1614874E-005  0.1599294E+04  0.7818608E-02  0.8820982E-01
         -2   -1    0    0    0  501 -0.00000000000E+00  0.00000000000E+00  0.43075884809E+03  0.43075884809E+03  0.00000000000E+00 0.  1.
          2   -1    0    0  501    0  0.00000000000E+00 -0.00000000000E+00 -0.14844389678E+04  0.14844389678E+04  0.00000000000E+00 0. -1.
         23    2    1    2    0    0  0.62091963190E+03  0.47721442705E+03 -0.35034430255E+03  0.86260289362E+03  0.89821061508E+02 0.  0.
         11    1    3    3    0    0  0.30052247215E+03  0.20441607338E+03 -0.20575654016E+03  0.41765469127E+03  0.00000000000E+00 0. -1.
        -11    1    3    3    0    0  0.32039715975E+03  0.27279835367E+03 -0.14458776239E+03  0.44494820235E+03  0.00000000000E+00 0.  1.
         22    1    1    2    0    0 -0.62091963190E+03 -0.47721442705E+03 -0.70333581714E+03  0.10525949222E+04  0.00000000000E+00 0. -1.
<mgrwt>
<rscale>  0 0.15992939E+04</rscale>
<asrwt>0</asrwt>
<pdfrwt beam="1">  1        2 0.22837523E+00 0.15992939E+04</pdfrwt>
<pdfrwt beam="2">  1       -2 0.66270591E-01 0.15992939E+04</pdfrwt>
<totfact> 0.26008812E+01</totfact>
</mgrwt>
</event>
<event>
 6    1  0.1614874E-005  0.2956633E+04  0.7818608E-02  0.8256224E-01
         -1   -1    0    0    0  501 -0.00000000000E+00  0.00000000000E+00  0.32903287979E+04  0.32903287979E+04  0.00000000000E+00 0.  1.
          1   -1    0    0  501    0  0.00000000000E+00 -0.00000000000E+00 -0.66419513258E+03  0.66419513258E+03  0.00000000000E+00 0. -1.
         23    2    1    2    0    0 -0.40857920284E+03 -0.69278743012E+03 -0.34243265721E+03  0.87893010171E+03  0.91469178667E+02 0.  0.
         11    1    3    3    0    0 -0.12105796958E+03 -0.15544801629E+03 -0.51642731397E+02  0.20368134297E+03  0.00000000000E+00 0. -1.
        -11    1    3    3    0    0 -0.28752123326E+03 -0.53733941383E+03 -0.29078992581E+03  0.67524875874E+03  0.00000000000E+00 0.  1.
         22    1    1    2    0    0  0.40857920284E+03  0.69278743012E+03  0.29685663225E+04  0.30755938288E+04  0.00000000000E+00 0.  1.
<mgrwt>
<rscale>  0 0.29566335E+04</rscale>
<asrwt>0</asrwt>
<pdfrwt beam="1">  1        1 0.10218387E+00 0.29566335E+04</pdfrwt>
<pdfrwt beam="2">  1       -1 0.50620442E+00 0.29566335E+04</pdfrwt>
<totfact> 0.34141163E-02</totfact>
</mgrwt>
</event>
<event>
 6    1  0.1614874E-005  0.2708318E+03  0.7818608E-02  0.1100804E+00
          2   -1    0    0  501    0  0.00000000000E+00  0.00000000000E+00  0.10365718878E+04  0.10365718878E+04  0.00000000000E+00 0. -1.
         -2   -1    0    0    0  501 -0.00000000000E+00 -0.00000000000E+00 -0.17690494786E+02  0.17690494786E+02  0.00000000000E+00 0.  1.
         23    2    1    2    0    0 -0.10106649547E+03  0.13866284561E+02  0.81429258564E+03  0.82565072397E+03  0.90664174889E+02 0.  0.
         13    1    3    3    0    0 -0.58345642752E+02 -0.36852557492E+02  0.36149974631E+03  0.36802770494E+03  0.00000000000E+00 0.  1.
        -13    1    3    3    0    0 -0.42720852722E+02  0.50718842053E+02  0.45279283934E+03  0.45762301903E+03  0.00000000000E+00 0. -1.
         22    1    1    2    0    0  0.10106649547E+03 -0.13866284561E+02  0.20458880742E+03  0.22861165866E+03  0.00000000000E+00 0.  1.
<mgrwt>
<rscale>  0 0.27083183E+03</rscale>
<asrwt>0</asrwt>
<pdfrwt beam="1">  1        2 0.15947255E+00 0.27083183E+03</pdfrwt>
<pdfrwt beam="2">  1       -2 0.27216154E-02 0.27083183E+03</pdfrwt>
<totfact> 0.12177793E+04</totfact>
</mgrwt>
</event>
<event>
 6    1  0.1614874E-005  0.1518289E+04  0.7818608E-02  0.8872381E-01
         -2   -1    0    0    0  501 -0.00000000000E+00  0.00000000000E+00  0.11025278689E+03  0.11025278689E+03  0.00000000000E+00 0.  1.
          2   -1    0    0  501    0  0.00000000000E+00 -0.00000000000E+00 -0.52270794260E+04  0.52270794260E+04  0.00000000000E+00 0. -1.
         23    2    1    2    0    0  0.67250674908E+03  0.32451028806E+03 -0.21420609419E+04  0.22702809893E+04  0.90434711758E+02 0.  0.
         11    1    3    3    0    0  0.17344646099E+03  0.96829573961E+02 -0.46069961065E+03  0.50170087948E+03  0.00000000000E+00 0.  1.
        -11    1    3    3    0    0  0.49906028810E+03  0.22768071410E+03 -0.16813613312E+04  0.17685801098E+04  0.00000000000E+00 0. -1.
         22    1    1    2    0    0 -0.67250674908E+03 -0.32451028806E+03 -0.29747656973E+04  0.30670512236E+04  0.00000000000E+00 0. -1.
<mgrwt>
<rscale>  0 0.15182886E+04</rscale>
<asrwt>0</asrwt>
<pdfrwt beam="1">  1        2 0.80416594E+00 0.15182886E+04</pdfrwt>
<pdfrwt beam="2">  1       -2 0.16961970E-01 0.15182886E+04</pdfrwt>
<totfact> 0.49076089E-01</totfact>
</mgrwt>
</event>
<event>
 6    1  0.1614874E-005  0.3144219E+04  0.7818608E-02  0.8203706E-01
          2   -1    0    0  501    0  0.00000000000E+00  0.00000000000E+00  0.14608246227E+04  0.14608246227E+04  0.00000000000E+00 0. -1.
         -2   -1    0    0    0  501 -0.00000000000E+00 -0.00000000000E+00 -0.16918720944E+04  0.16918720944E+04  0.00000000000E+00 0.  1.
         23    2    1    2    0    0 -0.76498537944E+03  0.80801652213E+03 -0.12272857236E+04  0.16591827448E+04  0.92540816151E+02 0.  0.
         13    1    3    3    0    0 -0.38158072134E+03  0.42111940004E+03 -0.56035104081E+03  0.79808438459E+03  0.00000000000E+00 0.  1.
        -13    1    3    3    0    0 -0.38340465811E+03  0.38689712209E+03 -0.66693468274E+03  0.86109836022E+03  0.00000000000E+00 0. -1.
         22    1    1    2    0    0  0.76498537944E+03 -0.80801652213E+03  0.99623825193E+03  0.14935139723E+04  0.00000000000E+00 0.  1.
<mgrwt>
<rscale>  0 0.31442191E+04</rscale>
<asrwt>0</asrwt>
<pdfrwt beam="1">  1        2 0.22474225E+00 0.31442191E+04</pdfrwt>
<pdfrwt beam="2">  1       -2 0.26028802E+00 0.31442191E+04</pdfrwt>
<totfact> 0.62797799E-01</totfact>
</mgrwt>
</event>
<event>
 6    1  0.1614874E-005  0.1268995E+04  0.7818608E-02  0.9054520E-01
          2   -1    0    0  501    0  0.00000000000E+00  0.00000000000E+00  0.45676522878E+03  0.45676522878E+03  0.00000000000E+00 0. -1.
         -2   -1    0    0    0  501 -0.00000000000E+00 -0.00000000000E+00 -0.88138795716E+03  0.88138795716E+03  0.00000000000E+00 0.  1.
         23    2    1    2    0    0 -0.40041388319E+03 -0.27768786479E+03 -0.63661394835E+03  0.80675681275E+03  0.90207580446E+02 0.  0.
         13    1    3    3    0    0 -0.21142471854E+03 -0.10162442446E+03 -0.26126318017E+03  0.35112160937E+03  0.00000000000E+00 0.  1.
        -13    1    3    3    0    0 -0.18898916466E+03 -0.17606344033E+03 -0.37535076819E+03  0.45563520338E+03  0.00000000000E+00 0. -1.
         22    1    1    2    0    0  0.40041388319E+03  0.27768786479E+03  0.21199121997E+03  0.53139637320E+03  0.00000000000E+00 0. -1.
<mgrwt>
<rscale>  0 0.12689955E+04</rscale>
<asrwt>0</asrwt>
<pdfrwt beam="1">  1        2 0.70271575E-01 0.12689955E+04</pdfrwt>
<pdfrwt beam="2">  1       -2 0.13559815E+00 0.12689955E+04</pdfrwt>
<totfact> 0.26176456E+01</totfact>
</mgrwt>
</event>
<event>
 6    1  0.1614874E-005  0.3380166E+04  0.7818608E-02  0.8142792E-01
         -2   -1    0    0    0  501 -0.00000000000E+00  0.00000000000E+00  0.34199713905E+04  0.34199713905E+04  0.00000000000E+00 0. -1.
          2   -1    0    0  501    0  0.00000000000E+00 -0.00000000000E+00 -0.83520575183E+03  0.83520575183E+03  0.00000000000E+00 0.  1.
         23    2    1    2    0    0  0.16160732037E+03  0.84562208375E+03  0.31222673722E+04  0.32402378594E+04  0.96923719786E+02 0.  0.
         11    1    3    3    0    0  0.74548734497E+02  0.26319637411E+03  0.11388167267E+04  0.11712102212E+04  0.00000000000E+00 0. -1.
        -11    1    3    3    0    0  0.87058585872E+02  0.58242570964E+03  0.19834506455E+04  0.20690276382E+04  0.00000000000E+00 0.  1.
         22    1    1    2    0    0 -0.16160732037E+03 -0.84562208375E+03 -0.53750173352E+03  0.10149392829E+04  0.00000000000E+00 0.  1.
<mgrwt>
<rscale>  0 0.33801655E+04</rscale>
<asrwt>0</asrwt>
<pdfrwt beam="1">  1        2 0.12849319E+00 0.33801655E+04</pdfrwt>
<pdfrwt beam="2">  1       -2 0.52614944E+00 0.33801655E+04</pdfrwt>
<totfact> 0.30955051E-02</totfact>
</mgrwt>
</event>
<event>
 6    1  0.1614874E-005  0.1258222E+04  0.7818608E-02  0.9063368E-01
          2   -1    0    0  501    0  0.00000000000E+00  0.00000000000E+00  0.85029450572E+03  0.85029450572E+03  0.00000000000E+00 0. -1.
         -2   -1    0    0    0  501 -0.00000000000E+00 -0.00000000000E+00 -0.46546302498E+03  0.46546302498E+03  0.00000000000E+00 0.  1.
         23    2    1    2    0    0  0.40983931000E+03 -0.41591372329E+03 -0.42094728675E+02  0.59241910816E+03  0.90752125566E+02 0.  0.
         13    1    3    3    0    0  0.12265688697E+03 -0.72500337773E+02  0.27716653437E+01  0.14250857177E+03  0.00000000000E+00 0. -1.
        -13    1    3    3    0    0  0.28718242303E+03 -0.34341338552E+03 -0.44866394018E+02  0.44991053640E+03  0.00000000000E+00 0.  1.
         22    1    1    2    0    0 -0.40983931000E+03  0.41591372329E+03  0.42692620941E+03  0.72333842254E+03  0.00000000000E+00 0. -1.
<mgrwt>
<rscale>  0 0.12582220E+04</rscale>
<asrwt>0</asrwt>
<pdfrwt beam="1">  1        2 0.13081454E+00 0.12582220E+04</pdfrwt>
<pdfrwt beam="2">  1       -2 0.71609696E-01 0.12582220E+04</pdfrwt>
<totfact> 0.55170457E+01</totfact>
</mgrwt>
</event>
<event>
 6    1  0.1614874E-005  0.3625034E+04  0.7818608E-02  0.8084781E-01
          2   -1    0    0  501    0  0.00000000000E+00  0.00000000000E+00  0.21902206479E+04  0.21902206479E+04  0.00000000000E+00 0. -1.
         -2   -1    0    0    0  501 -0.00000000000E+00 -0.00000000000E+00 -0.14999480654E+04  0.14999480654E+04  0.00000000000E+00 0.  1.
         23    2    1    2    0    0 -0.14280973500E+04  0.97197434596E+03  0.89999514230E+03  0.19500021344E+04  0.91218954861E+02 0.  0.
         13    1    3    3    0    0 -0.43938178370E+03  0.33917905172E+03  0.31921050155E+03  0.64030783634E+03  0.00000000000E+00 0. -1.
        -13    1    3    3    0    0 -0.98871556629E+03  0.63279529424E+03  0.58078464074E+03  0.13096942981E+04  0.00000000000E+00 0.  1.
         22    1    1    2    0    0  0.14280973500E+04 -0.97197434596E+03 -0.20972255988E+03  0.17401665789E+04  0.00000000000E+00 0.  1.
<mgrwt>
<rscale>  0 0.36250336E+04</rscale>
<asrwt>0</asrwt>
<pdfrwt beam="1">  1        2 0.33695702E+00 0.36250336E+04</pdfrwt>
<pdfrwt beam="2">  1       -2 0.23076124E+00 0.36250336E+04</pdfrwt>
<totfact> 0.35973041E-01</totfact>
</mgrwt>
</event>
<event>
 6    1  0.1614874E-005  0.3467198E+04  0.7818608E-02  0.8121608E-01
         -1   -1    0    0    0  501 -0.00000000000E+00  0.00000000000E+00  0.24615422974E+04  0.24615422974E+04  0.00000000000E+00 0.  1.
          1   -1    0    0  501    0  0.00000000000E+00 -0.00000000000E+00 -0.12209275404E+04  0.12209275404E+04  0.00000000000E+00 0. -1.
         23    2    1    2    0    0 -0.72778406974E+03  0.97541792632E+03  0.19301466047E+04  0.22836975361E+04  0.93267022861E+02 0.  0.
         13    1    3    3    0    0 -0.13537453310E+03  0.13840834674E+03  0.34998859930E+03  0.39996894167E+03  0.00000000000E+00 0.  1.
        -13    1    3    3    0    0 -0.59240953664E+03  0.83700957958E+03  0.15801580054E+04  0.18837285944E+04  0.00000000000E+00 0. -1.
         22    1    1    2    0    0  0.72778406974E+03 -0.97541792632E+03 -0.68953184765E+03  0.13987723017E+04  0.00000000000E+00 0. -1.
<mgrwt>
<rscale>  0 0.34671976E+04</rscale>
<asrwt>0</asrwt>
<pdfrwt beam="1">  1        1 0.18783501E+00 0.34671976E+04</pdfrwt>
<pdfrwt beam="2">  1       -1 0.37869881E+00 0.34671976E+04</pdfrwt>
<totfact> 0.84202533E-02</totfact>
</mgrwt>
</event>
<event>
 6    1  0.1614874E-005  0.3152236E+04  0.7818608E-02  0.8201547E-01
          1   -1    0    0  501    0  0.00000000000E+00  0.00000000000E+00  0.17415052949E+04  0.17415052949E+04  0.00000000000E+00 0. -1.
         -1   -1    0    0    0  501 -0.00000000000E+00 -0.00000000000E+00 -0.14264368558E+04  0.14264368558E+04  0.00000000000E+00 0.  1.
         23    2    1    2    0    0 -0.12144975518E+04  0.75115868197E+03  0.82491728812E+03  0.16516342936E+04  0.90352855902E+02 0.  0.
         13    1    3    3    0    0 -0.69484153896E+03  0.39571164458E+03  0.50095956451E+03  0.94358516054E+03  0.00000000000E+00 0.  1.
        -13    1    3    3    0    0 -0.51965601287E+03  0.35544703739E+03  0.32395772361E+03  0.70804913303E+03  0.00000000000E+00 0. -1.
         22    1    1    2    0    0  0.12144975518E+04 -0.75115868197E+03 -0.50984884896E+03  0.15163078572E+04  0.00000000000E+00 0.  1.
<mgrwt>
<rscale>  0 0.31522356E+04</rscale>
<asrwt>0</asrwt>
<pdfrwt beam="1">  1        1 0.26792389E+00 0.31522356E+04</pdfrwt>
<pdfrwt beam="2">  1       -1 0.21945182E+00 0.31522356E+04</pdfrwt>
<totfact> 0.41634446E-01</totfact>
</mgrwt>
</event>
<event>
 6    1  0.1614874E-005  0.9499927E+03  0.7818608E-02  0.9365159E-01
          2   -1    0    0  501    0  0.00000000000E+00  0.00000000000E+00  0.36103364993E+03  0.36103364993E+03  0.00000000000E+00 0. -1.
         -2   -1    0    0    0  501 -0.00000000000E+00 -0.00000000000E+00 -0.62493213411E+03  0.62493213411E+03  0.00000000000E+00 0.  1.
         23    2    1    2    0    0  0.23266227873E+03  0.37237851003E+03  0.42375765995E+02  0.45061411739E+03  0.91977641702E+02 0.  0.
         11    1    3    3    0    0  0.10263960462E+03  0.13644365257E+03 -0.25935921215E+02  0.17269751235E+03  0.00000000000E+00 0. -1.
        -11    1    3    3    0    0  0.13002267411E+03  0.23593485746E+03  0.68311687210E+02  0.27791660504E+03  0.00000000000E+00 0.  1.
         22    1    1    2    0    0 -0.23266227873E+03 -0.37237851003E+03 -0.30627425017E+03  0.53535166665E+03  0.00000000000E+00 0.  1.
<mgrwt>
<rscale>  0 0.94999269E+03</rscale>
<asrwt>0</asrwt>
<pdfrwt beam="1">  1        2 0.55543639E-01 0.94999269E+03</pdfrwt>
<pdfrwt beam="2">  1       -2 0.96143404E-01 0.94999269E+03</pdfrwt>
<totfact> 0.80980780E+01</totfact>
</mgrwt>
</event>
<event>
 6    1  0.1614874E-005  0.1989448E+04  0.7818608E-02  0.8611570E-01
          1   -1    0    0  501    0  0.00000000000E+00  0.00000000000E+00  0.17593016580E+04  0.17593016580E+04  0.00000000000E+00 0. -1.
         -1   -1    0    0    0  501 -0.00000000000E+00 -0.00000000000E+00 -0.56242538594E+03  0.56242538594E+03  0.00000000000E+00 0.  1.
         23    2    1    2    0    0  0.29662189525E+02  0.59910354624E+03 -0.32314392406E+03  0.68763209529E+03  0.92795464411E+02 0.  0.
         11    1    3    3    0    0  0.27485352983E+02  0.22779522436E+03 -0.76494993042E+02  0.24186275619E+03  0.00000000000E+00 0.  1.
        -11    1    3    3    0    0  0.21768365420E+01  0.37130832187E+03 -0.24664893101E+03  0.44576933910E+03  0.00000000000E+00 0. -1.
         22    1    1    2    0    0 -0.29662189525E+02 -0.59910354624E+03  0.15200201961E+04  0.16340949486E+04  0.00000000000E+00 0. -1.
<mgrwt>
<rscale>  0 0.19894481E+04</rscale>
<asrwt>0</asrwt>
<pdfrwt beam="1">  1        1 0.27066179E+00 0.19894481E+04</pdfrwt>
<pdfrwt beam="2">  1       -1 0.86526983E-01 0.19894481E+04</pdfrwt>
<totfact> 0.53093663E+00</totfact>
</mgrwt>
</event>
<event>
 6    1  0.1614874E-005  0.3909653E+04  0.7818608E-02  0.8023025E-01
         -1   -1    0    0    0  501 -0.00000000000E+00  0.00000000000E+00  0.33643510518E+04  0.33643510518E+04  0.00000000000E+00 0.  1.
          1   -1    0    0  501    0  0.00000000000E+00 -0.00000000000E+00 -0.11358347462E+04  0.11358347462E+04  0.00000000000E+00 0. -1.
         23    2    1    2    0    0 -0.63172581970E+02  0.10797666085E+04 -0.75778799849E+03  0.13240403196E+04  0.94622478032E+02 0.  0.
         11    1    3    3    0    0 -0.53664467670E+02  0.91128451666E+03 -0.67959274840E+03  0.11380534474E+04  0.00000000000E+00 0.  1.
        -11    1    3    3    0    0 -0.95081142999E+01  0.16848209182E+03 -0.78195250085E+02  0.18598687222E+03  0.00000000000E+00 0. -1.
         22    1    1    2    0    0  0.63172581970E+02 -0.10797666085E+04  0.29863043040E+04  0.31761454784E+04  0.00000000000E+00 0.  1.
<mgrwt>
<rscale>  0 0.39096531E+04</rscale>
<asrwt>0</asrwt>
<pdfrwt beam="1">  1        1 0.17474381E+00 0.39096531E+04</pdfrwt>
<pdfrwt beam="2">  1       -1 0.51759247E+00 0.39096531E+04</pdfrwt>
<totfact> 0.10852571E-02</totfact>
</mgrwt>
</event>
<event>
 6    1  0.1614874E-005  0.1027957E+04  0.7818608E-02  0.9278403E-01
          1   -1    0    0  501    0  0.00000000000E+00  0.00000000000E+00  0.27787295555E+03  0.27787295555E+03  0.00000000000E+00 0. -1.
         -1   -1    0    0    0  501 -0.00000000000E+00 -0.00000000000E+00 -0.95069969358E+03  0.95069969358E+03  0.00000000000E+00 0.  1.
         23    2    1    2    0    0 -0.39573447947E+01  0.19163304509E+03  0.22572704001E+03  0.30980294099E+03  0.91029012422E+02 0.  0.
         13    1    3    3    0    0 -0.30928027903E+02  0.14464624002E+03  0.11798964867E+03  0.18921055694E+03  0.00000000000E+00 0.  1.
        -13    1    3    3    0    0  0.26970683108E+02  0.46986805070E+02  0.10773739134E+03  0.12059238405E+03  0.00000000000E+00 0. -1.
         22    1    1    2    0    0  0.39573447947E+01 -0.19163304509E+03 -0.89855377805E+03  0.91876970814E+03  0.00000000000E+00 0.  1.
<mgrwt>
<rscale>  0 0.10279567E+04</rscale>
<asrwt>0</asrwt>
<pdfrwt beam="1">  1        1 0.42749684E-01 0.10279567E+04</pdfrwt>
<pdfrwt beam="2">  1       -1 0.14626150E+00 0.10279567E+04</pdfrwt>
<totfact> 0.36221722E+01</totfact>
</mgrwt>
</event>
<event>
 6    1  0.1614874E-005  0.2626015E+04  0.7818608E-02  0.8359418E-01
          1   -1    0    0  501    0  0.00000000000E+00  0.00000000000E+00  0.10572703825E+04  0.10572703825E+04  0.00000000000E+00 0. -1.
         -1   -1    0    0    0  501 -0.00000000000E+00 -0.00000000000E+00 -0.16306029649E+04  0.16306029649E+04  0.00000000000E+00 0.  1.
         23    2    1    2    0    0 -0.52976003806E+03  0.11503917830E+04  0.60965167846E+02  0.12714057028E+04  0.93320720876E+02 0.  0.
         13    1    3    3    0    0 -0.12006012682E+03  0.23278105174E+03 -0.23336055556E+02  0.26295631498E+03  0.00000000000E+00 0.  1.
        -13    1    3    3    0    0 -0.40969991124E+03  0.91761073128E+03  0.84301223402E+02  0.10084493878E+04  0.00000000000E+00 0. -1.
         22    1    1    2    0    0  0.52976003806E+03 -0.11503917830E+04 -0.63429775019E+03  0.14164676446E+04  0.00000000000E+00 0.  1.
<mgrwt>
<rscale>  0 0.26260146E+04</rscale>
<asrwt>0</asrwt>
<pdfrwt beam="1">  1        1 0.16265698E+00 0.26260146E+04</pdfrwt>
<pdfrwt beam="2">  1       -1 0.25086199E+00 0.26260146E+04</pdfrwt>
<totfact> 0.82623575E-01</totfact>
</mgrwt>
</event>
<event>
 6    1  0.1614874E-005  0.1078644E+04  0.7818608E-02  0.9226261E-01
          1   -1    0    0  501    0  0.00000000000E+00  0.00000000000E+00  0.18890729566E+04  0.18890729566E+04  0.00000000000E+00 0.  1.
         -1   -1    0    0    0  501 -0.00000000000E+00 -0.00000000000E+00 -0.15397394833E+03  0.15397394833E+03  0.00000000000E+00 0. -1.
         23    2    1    2    0    0  0.28806675012E+03 -0.43076990165E+03  0.62122604498E+03  0.81452822821E+03  0.94811786703E+02 0.  0.
         13    1    3    3    0    0  0.17419304559E+03 -0.30928709059E+03  0.47461035652E+03  0.59266914214E+03  0.00000000000E+00 0.  1.
        -13    1    3    3    0    0  0.11387370453E+03 -0.12148281106E+03  0.14661568847E+03  0.22185908607E+03  0.00000000000E+00 0. -1.
         22    1    1    2    0    0 -0.28806675012E+03  0.43076990165E+03  0.11138729633E+04  0.12285186767E+04  0.00000000000E+00 0.  1.
<mgrwt>
<rscale>  0 0.10786436E+04</rscale>
<asrwt>0</asrwt>
<pdfrwt beam="1">  1        1 0.29062659E+00 0.10786436E+04</pdfrwt>
<pdfrwt beam="2">  1       -1 0.23688301E-01 0.10786436E+04</pdfrwt>
<totfact> 0.54446601E+01</totfact>
</mgrwt>
</event>
<event>
 6    1  0.1614874E-005  0.2691924E+04  0.7818608E-02  0.8337630E-01
         -2   -1    0    0    0  501 -0.00000000000E+00  0.00000000000E+00  0.55650468324E+03  0.55650468324E+03  0.00000000000E+00 0.  1.
          2   -1    0    0  501    0  0.00000000000E+00 -0.00000000000E+00 -0.32553436013E+04  0.32553436013E+04  0.00000000000E+00 0. -1.
         23    2    1    2    0    0 -0.15020303571E+02  0.11974927651E+04 -0.48633393300E+03  0.12960198244E+04  0.94510099847E+02 0.  0.
         11    1    3    3    0    0 -0.92061012911E+01  0.66868615956E+03 -0.32202565010E+03  0.74224419945E+03  0.00000000000E+00 0.  1.
        -11    1    3    3    0    0 -0.58142022801E+01  0.52880660551E+03 -0.16430828289E+03  0.55377562497E+03  0.00000000000E+00 0. -1.
         22    1    1    2    0    0  0.15020303571E+02 -0.11974927651E+04 -0.22125049851E+04  0.25158284602E+04  0.00000000000E+00 0. -1.
<mgrwt>
<rscale>  0 0.26919242E+04</rscale>
<asrwt>0</asrwt>
<pdfrwt beam="1">  1        2 0.50082209E+00 0.26919242E+04</pdfrwt>
<pdfrwt beam="2">  1       -2 0.85616105E-01 0.26919242E+04</pdfrwt>
<totfact> 0.12407590E+00</totfact>
</mgrwt>
</event>
<event>
 6    1  0.1614874E-005  0.3851310E+04  0.7818608E-02  0.8035233E-01
          2   -1    0    0  501    0  0.00000000000E+00  0.00000000000E+00  0.24329526261E+04  0.24329526261E+04  0.00000000000E+00 0. -1.
         -2   -1    0    0    0  501 -0.00000000000E+00 -0.00000000000E+00 -0.15241343126E+04  0.15241343126E+04  0.00000000000E+00 0.  1.
         23    2    1    2    0    0  0.20174209231E+03 -0.92173625002E+03  0.21783940116E+04  0.23752778352E+04  0.79036308912E+02 0.  0.
         13    1    3    3    0    0  0.84758756261E+02 -0.56348196442E+03  0.13330759601E+04  0.14497542848E+04  0.00000000000E+00 0. -1.
        -13    1    3    3    0    0  0.11698333605E+03 -0.35825428560E+03  0.84531805150E+03  0.92552355035E+03  0.00000000000E+00 0.  1.
         22    1    1    2    0    0 -0.20174209231E+03  0.92173625002E+03 -0.12695756981E+04  0.15818091034E+04  0.00000000000E+00 0.  1.
<mgrwt>
<rscale>  0 0.38513097E+04</rscale>
<asrwt>0</asrwt>
<pdfrwt beam="1">  1        2 0.37430041E+00 0.38513097E+04</pdfrwt>
<pdfrwt beam="2">  1       -2 0.23448220E+00 0.38513097E+04</pdfrwt>
<totfact> 0.24359723E-01</totfact>
</mgrwt>
</event>
<event>
 6    1  0.1614874E-005  0.2382573E+04  0.7818608E-02  0.8446057E-01
          2   -1    0    0  501    0  0.00000000000E+00  0.00000000000E+00  0.12149641864E+04  0.12149641864E+04  0.00000000000E+00 0. -1.
         -2   -1    0    0    0  501 -0.00000000000E+00 -0.00000000000E+00 -0.11680698366E+04  0.11680698366E+04  0.00000000000E+00 0.  1.
         23    2    1    2    0    0 -0.83912100889E+02  0.11734665663E+04 -0.15262229622E+03  0.11897729807E+04  0.90560241971E+02 0.  0.
         11    1    3    3    0    0 -0.57435414704E+02  0.53283131730E+03 -0.11062774673E+03  0.54721708481E+03  0.00000000000E+00 0. -1.
        -11    1    3    3    0    0 -0.26476686185E+02  0.64063524903E+03 -0.41994549486E+02  0.64255589594E+03  0.00000000000E+00 0.  1.
         22    1    1    2    0    0  0.83912100889E+02 -0.11734665663E+04  0.19951664605E+03  0.11932610423E+04  0.00000000000E+00 0.  1.
<mgrwt>
<rscale>  0 0.23825726E+04</rscale>
<asrwt>0</asrwt>
<pdfrwt beam="1">  1        2 0.18691757E+00 0.23825726E+04</pdfrwt>
<pdfrwt beam="2">  1       -2 0.17970305E+00 0.23825726E+04</pdfrwt>
<totfact> 0.30442196E+00</totfact>
</mgrwt>
</event>
<event>
 6    1  0.1614874E-005  0.2666526E+04  0.7818608E-02  0.8345949E-01
         -2   -1    0    0    0  501 -0.00000000000E+00  0.00000000000E+00  0.97281586336E+03  0.97281586336E+03  0.00000000000E+00 0.  1.
          2   -1    0    0  501    0  0.00000000000E+00 -0.00000000000E+00 -0.18272627981E+04  0.18272627981E+04  0.00000000000E+00 0. -1.
         23    2    1    2    0    0  0.34851331847E+03 -0.75167220627E+03  0.66698145702E+03  0.10676765747E+04  0.92716586327E+02 0.  0.
         11    1    3    3    0    0  0.33951527315E+03 -0.66813737772E+03  0.60727868435E+03  0.96460643615E+03  0.00000000000E+00 0.  1.
        -11    1    3    3    0    0  0.89980453258E+01 -0.83534828552E+02  0.59702772669E+02  0.10307013857E+03  0.00000000000E+00 0. -1.
         22    1    1    2    0    0 -0.34851331847E+03  0.75167220627E+03 -0.15214283918E+04  0.17324020867E+04  0.00000000000E+00 0. -1.
<mgrwt>
<rscale>  0 0.26665260E+04</rscale>
<asrwt>0</asrwt>
<pdfrwt beam="1">  1        2 0.28111735E+00 0.26665260E+04</pdfrwt>
<pdfrwt beam="2">  1       -2 0.14966398E+00 0.26665260E+04</pdfrwt>
<totfact> 0.22098655E+00</totfact>
</mgrwt>
</event>
<event>
 6    1  0.1614874E-005  0.1869626E+04  0.7818608E-02  0.8670125E-01
          1   -1    0    0  501    0  0.00000000000E+00  0.00000000000E+00  0.55387328321E+03  0.55387328321E+03  0.00000000000E+00 0. -1.
         -1   -1    0    0    0  501 -0.00000000000E+00 -0.00000000000E+00 -0.15777526712E+04  0.15777526712E+04  0.00000000000E+00 0.  1.
         23    2    1    2    0    0 -0.41127513879E+03 -0.75572679574E+03 -0.92345700442E+03  0.12653956821E+04  0.90460840485E+02 0.  0.
         11    1    3    3    0    0 -0.15114130677E+03 -0.19364819957E+03 -0.25252402964E+03  0.35229491247E+03  0.00000000000E+00 0. -1.
        -11    1    3    3    0    0 -0.26013383202E+03 -0.56207859617E+03 -0.67093297478E+03  0.91310076962E+03  0.00000000000E+00 0.  1.
         22    1    1    2    0    0  0.41127513879E+03  0.75572679574E+03 -0.10042238358E+03  0.86623027233E+03  0.00000000000E+00 0. -1.
<mgrwt>
<rscale>  0 0.18696257E+04</rscale>
<asrwt>0</asrwt>
<pdfrwt beam="1">  1        1 0.85211275E-01 0.18696257E+04</pdfrwt>
<pdfrwt beam="2">  1       -1 0.24273118E+00 0.18696257E+04</pdfrwt>
<totfact> 0.28026373E+00</totfact>
</mgrwt>
</event>
<event>
 6    1  0.1614874E-005  0.2981832E+04  0.7818608E-02  0.8248938E-01
         -1   -1    0    0    0  501 -0.00000000000E+00  0.00000000000E+00  0.80860669602E+03  0.80860669602E+03  0.00000000000E+00 0.  1.
          1   -1    0    0  501    0  0.00000000000E+00 -0.00000000000E+00 -0.27489632366E+04  0.27489632366E+04  0.00000000000E+00 0. -1.
         23    2    1    2    0    0 -0.69049433915E+03  0.12742375738E+04 -0.56110474614E+03  0.15568702202E+04  0.92425752174E+02 0.  0.
         13    1    3    3    0    0 -0.11473200015E+03  0.17684381109E+03 -0.11224449387E+03  0.23882209233E+03  0.00000000000E+00 0. -1.
        -13    1    3    3    0    0 -0.57576233900E+03  0.10973937627E+04 -0.44886025227E+03  0.13180481279E+04  0.00000000000E+00 0.  1.
         22    1    1    2    0    0  0.69049433915E+03 -0.12742375738E+04 -0.13792517944E+04  0.20006997124E+04  0.00000000000E+00 0. -1.
<mgrwt>
<rscale>  0 0.29818317E+04</rscale>
<asrwt>0</asrwt>
<pdfrwt beam="1">  1        1 0.42291741E+00 0.29818317E+04</pdfrwt>
<pdfrwt beam="2">  1       -1 0.12440103E+00 0.29818317E+04</pdfrwt>
<totfact> 0.43715935E-01</totfact>
</mgrwt>
</event>
<event>
 6    1  0.1614874E-005  0.3454779E+03  0.7818608E-02  0.1064487E+00
          2   -1    0    0  501    0  0.00000000000E+00  0.00000000000E+00  0.77240378979E+03  0.77240378979E+03  0.00000000000E+00 0.  1.
         -2   -1    0    0    0  501 -0.00000000000E+00 -0.00000000000E+00 -0.38631028455E+02  0.38631028455E+02  0.00000000000E+00 0. -1.
         23    2    1    2    0    0  0.12982051838E+03  0.32543921564E+02  0.18485359063E+03  0.24603505737E+03  0.91923477208E+02 0.  0.
         11    1    3    3    0    0  0.76156706253E+02  0.31718458936E+02  0.40250602670E+02  0.91793330694E+02  0.00000000000E+00 0. -1.
        -11    1    3    3    0    0  0.53663812129E+02  0.82546262766E+00  0.14460298796E+03  0.15424172667E+03  0.00000000000E+00 0.  1.
         22    1    1    2    0    0 -0.12982051838E+03 -0.32543921564E+02  0.54891917071E+03  0.56499976088E+03  0.00000000000E+00 0. -1.
<mgrwt>
<rscale>  0 0.34547795E+03</rscale>
<asrwt>0</asrwt>
<pdfrwt beam="1">  1        2 0.11883134E+00 0.34547795E+03</pdfrwt>
<pdfrwt beam="2">  1       -2 0.59432357E-02 0.34547795E+03</pdfrwt>
<totfact> 0.55943568E+03</totfact>
</mgrwt>
</event>
<event>
 6    1  0.1614874E-005  0.3292949E+04  0.7818608E-02  0.8164692E-01
         -2   -1    0    0    0  501 -0.00000000000E+00  0.00000000000E+00  0.71255250437E+03  0.71255250437E+03  0.00000000000E+00 0.  1.
          2   -1    0    0  501    0  0.00000000000E+00 -0.00000000000E+00 -0.38044612187E+04  0.38044612187E+04  0.00000000000E+00 0. -1.
         23    2    1    2    0    0  0.91205078676E+03 -0.94521640610E+03 -0.18611901249E+03  0.13281448824E+04  0.63701253925E+02 0.  0.
         11    1    3    3    0    0  0.27664185559E+03 -0.32949307290E+03 -0.64102102410E+02  0.43497756366E+03  0.00000000000E+00 0.  1.
        -11    1    3    3    0    0  0.63540893117E+03 -0.61572333319E+03 -0.12201691008E+03  0.89316731870E+03  0.00000000000E+00 0. -1.
         22    1    1    2    0    0 -0.91205078676E+03  0.94521640610E+03 -0.29057897018E+04  0.31888688407E+04  0.00000000000E+00 0. -1.
<mgrwt>
<rscale>  0 0.32929491E+04</rscale>
<asrwt>0</asrwt>
<pdfrwt beam="1">  1        2 0.58530174E+00 0.32929491E+04</pdfrwt>
<pdfrwt beam="2">  1       -2 0.10962346E+00 0.32929491E+04</pdfrwt>
<totfact> 0.26929877E-01</totfact>
</mgrwt>
</event>
<event>
 6    1  0.1614874E-005  0.1831006E+04  0.7818608E-02  0.8689983E-01
          1   -1    0    0  501    0  0.00000000000E+00  0.00000000000E+00  0.13160884383E+04  0.13160884383E+04  0.00000000000E+00 0. -1.
         -1   -1    0    0    0  501 -0.00000000000E+00 -0.00000000000E+00 -0.63684595676E+03  0.63684595676E+03  0.00000000000E+00 0.  1.
         23    2    1    2    0    0  0.24164854524E+03  0.55604187048E+03  0.10689760167E+04  0.12321925483E+04  0.89510729610E+02 0.  0.
         13    1    3    3    0    0  0.20716814721E+03  0.37698202290E+03  0.73150909556E+03  0.84861041927E+03  0.00000000000E+00 0.  1.
        -13    1    3    3    0    0  0.34480398035E+02  0.17905984757E+03  0.33746692114E+03  0.38358212905E+03  0.00000000000E+00 0. -1.
         22    1    1    2    0    0 -0.24164854524E+03 -0.55604187048E+03 -0.38973353520E+03  0.72074184671E+03  0.00000000000E+00 0.  1.
<mgrwt>
<rscale>  0 0.18310058E+04</rscale>
<asrwt>0</asrwt>
<pdfrwt beam="1">  1        1 0.20247514E+00 0.18310058E+04</pdfrwt>
<pdfrwt beam="2">  1       -1 0.97976302E-01 0.18310058E+04</pdfrwt>
<totfact> 0.82795360E+00</totfact>
</mgrwt>
</event>
<event>
 6    1  0.1614874E-005  0.3247316E+04  0.7818608E-02  0.8176432E-01
         -2   -1    0    0    0  501 -0.00000000000E+00  0.00000000000E+00  0.65499638902E+03  0.65499638902E+03  0.00000000000E+00 0.  1.
          2   -1    0    0  501    0  0.00000000000E+00 -0.00000000000E+00 -0.40248554807E+04  0.40248554807E+04  0.00000000000E+00 0. -1.
         23    2    1    2    0    0  0.45860682180E+02 -0.14568262696E+04 -0.27130206421E+04  0.30811390341E+04  0.92145326010E+02 0.  0.
         11    1    3    3    0    0  0.67096215947E+02 -0.11901403709E+04 -0.22564856856E+04  0.25519920952E+04  0.00000000000E+00 0.  1.
        -11    1    3    3    0    0 -0.21235533767E+02 -0.26668589861E+03 -0.45653495656E+03  0.52914693893E+03  0.00000000000E+00 0. -1.
         22    1    1    2    0    0 -0.45860682180E+02  0.14568262696E+04 -0.65683844951E+03  0.15987128356E+04  0.00000000000E+00 0.  1.
<mgrwt>
<rscale>  0 0.32473163E+04</rscale>
<asrwt>0</asrwt>
<pdfrwt beam="1">  1        2 0.61920853E+00 0.32473163E+04</pdfrwt>
<pdfrwt beam="2">  1       -2 0.10076868E+00 0.32473163E+04</pdfrwt>
<totfact> 0.22174408E-01</totfact>
</mgrwt>
</event>
<event>
 6    1  0.1614874E-005  0.2148116E+04  0.7818608E-02  0.8540339E-01
          4   -1    0    0  501    0  0.00000000000E+00  0.00000000000E+00  0.10977348746E+04  0.10977348746E+04  0.00000000000E+00 0. -1.
         -4   -1    0    0    0  501 -0.00000000000E+00 -0.00000000000E+00 -0.10508920334E+04  0.10508920334E+04  0.00000000000E+00 0.  1.
         23    2    1    2    0    0 -0.95930179324E+03 -0.47851706337E+03  0.35744005509E+02  0.10765440312E+04  0.91819969627E+02 0.  0.
         13    1    3    3    0    0 -0.58991564171E+03 -0.30022371461E+03  0.66378461982E+02  0.66523743383E+03  0.00000000000E+00 0. -1.
        -13    1    3    3    0    0 -0.36938615152E+03 -0.17829334876E+03 -0.30634456473E+02  0.41130659741E+03  0.00000000000E+00 0.  1.
         22    1    1    2    0    0  0.95930179324E+03  0.47851706337E+03  0.11098835729E+02  0.10720828767E+04  0.00000000000E+00 0.  1.
<mgrwt>
<rscale>  0 0.21481162E+04</rscale>
<asrwt>0</asrwt>
<pdfrwt beam="1">  1        4 0.16888229E+00 0.21481162E+04</pdfrwt>
<pdfrwt beam="2">  1       -4 0.16167570E+00 0.21481162E+04</pdfrwt>
<totfact> 0.96132041E-02</totfact>
</mgrwt>
</event>
<event>
 6    1  0.1614874E-005  0.1445262E+04  0.7818608E-02  0.8921692E-01
          3   -1    0    0  501    0  0.00000000000E+00  0.00000000000E+00  0.15960536132E+04  0.15960536132E+04  0.00000000000E+00 0. -1.
         -3   -1    0    0    0  501 -0.00000000000E+00 -0.00000000000E+00 -0.32717924154E+03  0.32717924154E+03  0.00000000000E+00 0.  1.
         23    2    1    2    0    0  0.29255155627E+03  0.22238074287E+03  0.14606115725E+04  0.15087418874E+04  0.88748571880E+02 0.  0.
         11    1    3    3    0    0  0.16800835583E+03  0.15431258583E+03  0.10435083693E+04  0.10681520952E+04  0.00000000000E+00 0.  1.
        -11    1    3    3    0    0  0.12454320045E+03  0.68068157033E+02  0.41710320328E+03  0.44058979217E+03  0.00000000000E+00 0. -1.
         22    1    1    2    0    0 -0.29255155627E+03 -0.22238074287E+03 -0.19173720084E+03  0.41449096741E+03  0.00000000000E+00 0.  1.
<mgrwt>
<rscale>  0 0.14452621E+04</rscale>
<asrwt>0</asrwt>
<pdfrwt beam="1">  1        3 0.24554670E+00 0.14452621E+04</pdfrwt>
<pdfrwt beam="2">  1       -3 0.50335269E-01 0.14452621E+04</pdfrwt>
<totfact> 0.78142668E-01</totfact>
</mgrwt>
</event>
<event>
 6    1  0.1614874E-005  0.3552478E+04  0.7818608E-02  0.8101465E-01
          2   -1    0    0  501    0  0.00000000000E+00  0.00000000000E+00  0.20701987400E+04  0.20701987400E+04  0.00000000000E+00 0. -1.
         -2   -1    0    0    0  501 -0.00000000000E+00 -0.00000000000E+00 -0.15240204096E+04  0.15240204096E+04  0.00000000000E+00 0.  1.
         23    2    1    2    0    0 -0.82182691973E+03 -0.10724062714E+04  0.14381709085E+04  0.19752363034E+04  0.88137364047E+02 0.  0.
         13    1    3    3    0    0 -0.41848705691E+03 -0.55052238113E+03  0.67186410036E+03  0.96416164531E+03  0.00000000000E+00 0. -1.
        -13    1    3    3    0    0 -0.40333986282E+03 -0.52188389030E+03  0.76630680818E+03  0.10110746580E+04  0.00000000000E+00 0.  1.
         22    1    1    2    0    0  0.82182691973E+03  0.10724062714E+04 -0.89199257815E+03  0.16189828463E+04  0.00000000000E+00 0.  1.
<mgrwt>
<rscale>  0 0.35524781E+04</rscale>
<asrwt>0</asrwt>
<pdfrwt beam="1">  1        2 0.31849212E+00 0.35524781E+04</pdfrwt>
<pdfrwt beam="2">  1       -2 0.23446468E+00 0.35524781E+04</pdfrwt>
<totfact> 0.40057041E-01</totfact>
</mgrwt>
</event>
<event>
 6    1  0.1614874E-005  0.6904375E+03  0.7818608E-02  0.9733726E-01
         -1   -1    0    0    0  501 -0.00000000000E+00  0.00000000000E+00  0.84537266126E+02  0.84537266126E+02  0.00000000000E+00 0.  1.
          1   -1    0    0  501    0  0.00000000000E+00 -0.00000000000E+00 -0.14097451552E+04  0.14097451552E+04  0.00000000000E+00 0. -1.
         23    2    1    2    0    0  0.26150598945E+02  0.31019367317E+03 -0.38248598399E+03  0.50149414630E+03  0.91087222622E+02 0.  0.
         13    1    3    3    0    0  0.12170879862E+02  0.15636391730E+03 -0.26298488599E+03  0.30620067800E+03  0.00000000000E+00 0. -1.
        -13    1    3    3    0    0  0.13979719082E+02  0.15382975587E+03 -0.11950109800E+03  0.19529346830E+03  0.00000000000E+00 0.  1.
         22    1    1    2    0    0 -0.26150598945E+02 -0.31019367317E+03 -0.94272190507E+03  0.99278827501E+03  0.00000000000E+00 0.  1.
<mgrwt>
<rscale>  0 0.69043755E+03</rscale>
<asrwt>0</asrwt>
<pdfrwt beam="1">  1        1 0.21688386E+00 0.69043755E+03</pdfrwt>
<pdfrwt beam="2">  1       -1 0.13005734E-01 0.69043755E+03</pdfrwt>
<totfact> 0.31980116E+02</totfact>
</mgrwt>
</event>
<event>
 6    1  0.1614874E-005  0.2388455E+04  0.7818608E-02  0.8443838E-01
          1   -1    0    0  501    0  0.00000000000E+00  0.00000000000E+00  0.16118257218E+04  0.16118257218E+04  0.00000000000E+00 0. -1.
         -1   -1    0    0    0  501 -0.00000000000E+00 -0.00000000000E+00 -0.88482265209E+03  0.88482265209E+03  0.00000000000E+00 0.  1.
         23    2    1    2    0    0 -0.86290709783E+03 -0.74244895398E+01  0.12227287983E+04  0.15014560404E+04  0.12099894487E+03 0.  0.
         11    1    3    3    0    0 -0.63234689381E+03 -0.40878657179E+01  0.98299622079E+03  0.11688288475E+04  0.00000000000E+00 0.  1.
        -11    1    3    3    0    0 -0.23056020402E+03 -0.33366238219E+01  0.23973257748E+03  0.33262719288E+03  0.00000000000E+00 0. -1.
         22    1    1    2    0    0  0.86290709783E+03  0.74244895398E+01 -0.49572572860E+03  0.99519233343E+03  0.00000000000E+00 0.  1.
<mgrwt>
<rscale>  0 0.23884555E+04</rscale>
<asrwt>0</asrwt>
<pdfrwt beam="1">  1        1 0.24797319E+00 0.23884555E+04</pdfrwt>
<pdfrwt beam="2">  1       -1 0.13612656E+00 0.23884555E+04</pdfrwt>
<totfact> 0.22151152E+00</totfact>
</mgrwt>
</event>
<event>
 6    1  0.1614874E-005  0.2188864E+04  0.7818608E-02  0.8523077E-01
         -1   -1    0    0    0  501 -0.00000000000E+00  0.00000000000E+00  0.97324015865E+03  0.97324015865E+03  0.00000000000E+00 0.  1.
          1   -1    0    0  501    0  0.00000000000E+00 -0.00000000000E+00 -0.12307152869E+04  0.12307152869E+04  0.00000000000E+00 0. -1.
         23    2    1    2    0    0  0.76218972085E+03 -0.44454446170E+03  0.51982488299E+03  0.10280522793E+04  0.90114543466E+02 0.  0.
         11    1    3    3    0    0  0.15246906754E+03 -0.11070201879E+03  0.75120129706E+02  0.20284177924E+03  0.00000000000E+00 0.  1.
        -11    1    3    3    0    0  0.60972065332E+03 -0.33384244291E+03  0.44470475328E+03  0.82521050003E+03  0.00000000000E+00 0. -1.
         22    1    1    2    0    0 -0.76218972085E+03  0.44454446170E+03 -0.77730001128E+03  0.11759031663E+04  0.00000000000E+00 0. -1.
<mgrwt>
<rscale>  0 0.21888641E+04</rscale>
<asrwt>0</asrwt>
<pdfrwt beam="1">  1        1 0.18934081E+00 0.21888641E+04</pdfrwt>
<pdfrwt beam="2">  1       -1 0.14972925E+00 0.21888641E+04</pdfrwt>
<totfact> 0.32473890E+00</totfact>
</mgrwt>
</event>
<event>
 6    1  0.1614874E-005  0.3480637E+04  0.7818608E-02  0.8118394E-01
         -2   -1    0    0    0  501 -0.00000000000E+00  0.00000000000E+00  0.21508576591E+04  0.21508576591E+04  0.00000000000E+00 0.  1.
          2   -1    0    0  501    0  0.00000000000E+00 -0.00000000000E+00 -0.14081395554E+04  0.14081395554E+04  0.00000000000E+00 0. -1.
         23    2    1    2    0    0 -0.32550063454E+03 -0.16862764314E+04  0.91514922290E+02  0.17222761007E+04  0.91548456288E+02 0.  0.
         13    1    3    3    0    0 -0.21665972011E+03 -0.96200769025E+03  0.86094930285E+02  0.98985482139E+03  0.00000000000E+00 0. -1.
        -13    1    3    3    0    0 -0.10884091444E+03 -0.72426874117E+03  0.54199920058E+01  0.73242127932E+03  0.00000000000E+00 0.  1.
         22    1    1    2    0    0  0.32550063454E+03  0.16862764314E+04  0.65120318138E+03  0.18367211137E+04  0.00000000000E+00 0.  1.
<mgrwt>
<rscale>  0 0.34806366E+04</rscale>
<asrwt>0</asrwt>
<pdfrwt beam="1">  1        2 0.21663685E+00 0.34806366E+04</pdfrwt>
<pdfrwt beam="2">  1       -2 0.33090118E+00 0.34806366E+04</pdfrwt>
<totfact> 0.24137991E-01</totfact>
</mgrwt>
</event>
<event>
 6    1  0.1614874E-005  0.2331903E+04  0.7818608E-02  0.8465447E-01
         -2   -1    0    0    0  501 -0.00000000000E+00  0.00000000000E+00  0.32468913329E+03  0.32468913329E+03  0.00000000000E+00 0. -1.
          2   -1    0    0  501    0  0.00000000000E+00 -0.00000000000E+00 -0.41869070921E+04  0.41869070921E+04  0.00000000000E+00 0.  1.
         23    2    1    2    0    0  0.69931988590E+03  0.11182330287E+02 -0.37346639843E+04  0.38006508240E+04  0.89767827364E+02 0.  0.
         11    1    3    3    0    0  0.23132626674E+03 -0.19762428878E+02 -0.14331292601E+04  0.14518133046E+04  0.00000000000E+00 0. -1.
        -11    1    3    3    0    0  0.46799361916E+03  0.30944759165E+02 -0.23015347242E+04  0.23488375194E+04  0.00000000000E+00 0.  1.
         22    1    1    2    0    0 -0.69931988590E+03 -0.11182330287E+02 -0.12755397446E+03  0.71094540137E+03  0.00000000000E+00 0. -1.
<mgrwt>
<rscale>  0 0.23319033E+04</rscale>
<asrwt>0</asrwt>
<pdfrwt beam="1">  1        2 0.64413952E+00 0.23319033E+04</pdfrwt>
<pdfrwt beam="2">  1       -2 0.49952177E-01 0.23319033E+04</pdfrwt>
<totfact> 0.82384476E-01</totfact>
</mgrwt>
</event>
<event>
 6    1  0.1614874E-005  0.1233763E+04  0.7818608E-02  0.9083807E-01
          2   -1    0    0  501    0  0.00000000000E+00  0.00000000000E+00  0.43559054137E+03  0.43559054137E+03  0.00000000000E+00 0.  1.
         -2   -1    0    0    0  501 -0.00000000000E+00 -0.00000000000E+00 -0.87362484207E+03  0.87362484207E+03  0.00000000000E+00 0. -1.
         23    2    1    2    0    0  0.13754253678E+03  0.58288547516E+03 -0.36101114736E+03  0.70538925555E+03  0.92582540203E+02 0.  0.
         13    1    3    3    0    0  0.82627636385E+02  0.19651956804E+03 -0.15904914399E+03  0.26597724925E+03  0.00000000000E+00 0. -1.
        -13    1    3    3    0    0  0.54914900397E+02  0.38636590712E+03 -0.20196200337E+03  0.43941200629E+03  0.00000000000E+00 0.  1.
         22    1    1    2    0    0 -0.13754253678E+03 -0.58288547516E+03 -0.77023153347E+02  0.60382612789E+03  0.00000000000E+00 0.  1.
<mgrwt>
<rscale>  0 0.12337629E+04</rscale>
<asrwt>0</asrwt>
<pdfrwt beam="1">  1        2 0.67013930E-01 0.12337629E+04</pdfrwt>
<pdfrwt beam="2">  1       -2 0.13440382E+00 0.12337629E+04</pdfrwt>
<totfact> 0.28336973E+01</totfact>
</mgrwt>
</event>
<event>
 6    1  0.1614874E-005  0.2232690E+04  0.7818608E-02  0.8504944E-01
          2   -1    0    0  501    0  0.00000000000E+00  0.00000000000E+00  0.58152090912E+03  0.58152090912E+03  0.00000000000E+00 0. -1.
         -2   -1    0    0    0  501 -0.00000000000E+00 -0.00000000000E+00 -0.21430468291E+04  0.21430468291E+04  0.00000000000E+00 0.  1.
         23    2    1    2    0    0 -0.31236776529E+03  0.10227009072E+04 -0.11649930065E+04  0.15840726186E+04  0.92663852231E+02 0.  0.
         11    1    3    3    0    0 -0.25305305133E+03  0.68946379998E+03 -0.81831945088E+03  0.10995648694E+04  0.00000000000E+00 0. -1.
        -11    1    3    3    0    0 -0.59314713964E+02  0.33323710723E+03 -0.34667355559E+03  0.48450774924E+03  0.00000000000E+00 0.  1.
         22    1    1    2    0    0  0.31236776529E+03 -0.10227009072E+04 -0.39653291351E+03  0.11404951196E+04  0.00000000000E+00 0. -1.
<mgrwt>
<rscale>  0 0.22326903E+04</rscale>
<asrwt>0</asrwt>
<pdfrwt beam="1">  1        2 0.89464753E-01 0.22326903E+04</pdfrwt>
<pdfrwt beam="2">  1       -2 0.32969952E+00 0.22326903E+04</pdfrwt>
<totfact> 0.97983964E-01</totfact>
</mgrwt>
</event>
<event>
 6    1  0.1657258E-005  0.3497108E+04  0.7818608E-02  0.8114476E-01
         -1   -1    0    0    0  501 -0.00000000000E+00  0.00000000000E+00  0.18691284955E+04  0.18691284955E+04  0.00000000000E+00 0.  1.
          1   -1    0    0  501    0  0.00000000000E+00 -0.00000000000E+00 -0.16357574259E+04  0.16357574259E+04  0.00000000000E+00 0. -1.
         23    2    1    2    0    0  0.91351698504E+03 -0.65296295065E+03 -0.12249877023E+04  0.16643196486E+04  0.92147301499E+02 0.  0.
         13    1    3    3    0    0  0.29298221252E+03 -0.25792919832E+03 -0.45312726097E+03  0.59807220536E+03  0.00000000000E+00 0. -1.
        -13    1    3    3    0    0  0.62053477252E+03 -0.39503375233E+03 -0.77186044131E+03  0.10662474433E+04  0.00000000000E+00 0.  1.
         22    1    1    2    0    0 -0.91351698504E+03  0.65296295065E+03  0.14583587719E+04  0.18405662728E+04  0.00000000000E+00 0.  1.
<mgrwt>
<rscale>  0 0.34971078E+04</rscale>
<asrwt>0</asrwt>
<pdfrwt beam="1">  1        1 0.25165499E+00 0.34971078E+04</pdfrwt>
<pdfrwt beam="2">  1       -1 0.28755823E+00 0.34971078E+04</pdfrwt>
<totfact> 0.17110352E-01</totfact>
</mgrwt>
</event>
<event>
 6    1  0.1614874E-005  0.1897452E+04  0.7818608E-02  0.8656126E-01
          1   -1    0    0  501    0  0.00000000000E+00  0.00000000000E+00  0.78430695000E+03  0.78430695000E+03  0.00000000000E+00 0. -1.
         -1   -1    0    0    0  501 -0.00000000000E+00 -0.00000000000E+00 -0.11476132982E+04  0.11476132982E+04  0.00000000000E+00 0.  1.
         23    2    1    2    0    0 -0.85005456551E+03  0.31898018242E+03 -0.45423922871E+03  0.10194456404E+04  0.92709307011E+02 0.  0.
         13    1    3    3    0    0 -0.43493450208E+03  0.19707774297E+03 -0.27593180771E+03  0.55149435209E+03  0.00000000000E+00 0. -1.
        -13    1    3    3    0    0 -0.41512006343E+03  0.12190243945E+03 -0.17830742100E+03  0.46795128826E+03  0.00000000000E+00 0.  1.
         22    1    1    2    0    0  0.85005456551E+03 -0.31898018242E+03  0.90932880562E+02  0.91247460780E+03  0.00000000000E+00 0. -1.
<mgrwt>
<rscale>  0 0.18974521E+04</rscale>
<asrwt>0</asrwt>
<pdfrwt beam="1">  1        1 0.12066261E+00 0.18974521E+04</pdfrwt>
<pdfrwt beam="2">  1       -1 0.17655589E+00 0.18974521E+04</pdfrwt>
<totfact> 0.47064611E+00</totfact>
</mgrwt>
</event>
<event>
 6    1  0.1614874E-005  0.3744047E+04  0.7818608E-02  0.8058270E-01
          2   -1    0    0  501    0  0.00000000000E+00  0.00000000000E+00  0.29084183852E+04  0.29084183852E+04  0.00000000000E+00 0. -1.
         -2   -1    0    0    0  501 -0.00000000000E+00 -0.00000000000E+00 -0.12049406657E+04  0.12049406657E+04  0.00000000000E+00 0.  1.
         23    2    1    2    0    0  0.15555166452E+04 -0.89873437680E+03  0.27825198480E+03  0.18201900845E+04  0.91171613284E+02 0.  0.
         13    1    3    3    0    0  0.80281319437E+03 -0.47478908751E+03  0.18952775634E+03  0.95176387465E+03  0.00000000000E+00 0.  1.
        -13    1    3    3    0    0  0.75270345082E+03 -0.42394528929E+03  0.88724228461E+02  0.86842620983E+03  0.00000000000E+00 0. -1.
         22    1    1    2    0    0 -0.15555166452E+04  0.89873437680E+03  0.14252257348E+04  0.22931689664E+04  0.00000000000E+00 0.  1.
<mgrwt>
<rscale>  0 0.37440468E+04</rscale>
<asrwt>0</asrwt>
<pdfrwt beam="1">  1        2 0.44744898E+00 0.37440468E+04</pdfrwt>
<pdfrwt beam="2">  1       -2 0.18537549E+00 0.37440468E+04</pdfrwt>
<totfact> 0.26621851E-01</totfact>
</mgrwt>
</event>
<event>
 6    1  0.1614874E-005  0.4008829E+04  0.7818608E-02  0.8002768E-01
         -1   -1    0    0    0  501 -0.00000000000E+00  0.00000000000E+00  0.20672231532E+04  0.20672231532E+04  0.00000000000E+00 0.  1.
          1   -1    0    0  501    0  0.00000000000E+00 -0.00000000000E+00 -0.19435141501E+04  0.19435141501E+04  0.00000000000E+00 0. -1.
         23    2    1    2    0    0 -0.14844704879E+04 -0.67388303327E+03  0.12266922080E+04  0.20424022398E+04  0.94139067275E+02 0.  0.
         11    1    3    3    0    0 -0.59365307576E+03 -0.25465055127E+03  0.43131751715E+03  0.77672754439E+03  0.00000000000E+00 0. -1.
        -11    1    3    3    0    0 -0.89081741214E+03 -0.41923248200E+03  0.79537469088E+03  0.12656746954E+04  0.00000000000E+00 0.  1.
         22    1    1    2    0    0  0.14844704879E+04  0.67388303327E+03 -0.11029832049E+04  0.19683350635E+04  0.00000000000E+00 0. -1.
<mgrwt>
<rscale>  0 0.40088290E+04</rscale>
<asrwt>0</asrwt>
<pdfrwt beam="1">  1        1 0.29900218E+00 0.40088290E+04</pdfrwt>
<pdfrwt beam="2">  1       -1 0.31803433E+00 0.40088290E+04</pdfrwt>
<totfact> 0.64167016E-02</totfact>
</mgrwt>
</event>
<event>
 6    1  0.1614874E-005  0.3766480E+04  0.7818608E-02  0.8053387E-01
          1   -1    0    0  501    0  0.00000000000E+00  0.00000000000E+00  0.29770049365E+04  0.29770049365E+04  0.00000000000E+00 0. -1.
         -1   -1    0    0    0  501 -0.00000000000E+00 -0.00000000000E+00 -0.11913293905E+04  0.11913293905E+04  0.00000000000E+00 0.  1.
         23    2    1    2    0    0 -0.12483483122E+04  0.97314260293E+03 -0.23341867633E+03  0.16027697668E+04  0.94903175453E+02 0.  0.
         11    1    3    3    0    0 -0.10789301289E+04  0.82748794227E+03 -0.23185358502E+03  0.13793413655E+04  0.00000000000E+00 0. -1.
        -11    1    3    3    0    0 -0.16941818324E+03  0.14565466066E+03 -0.15650913105E+01  0.22342840127E+03  0.00000000000E+00 0.  1.
         22    1    1    2    0    0  0.12483483122E+04 -0.97314260293E+03  0.20190942223E+04  0.25655645602E+04  0.00000000000E+00 0. -1.
<mgrwt>
<rscale>  0 0.37664803E+04</rscale>
<asrwt>0</asrwt>
<pdfrwt beam="1">  1        1 0.45800076E+00 0.37664803E+04</pdfrwt>
<pdfrwt beam="2">  1       -1 0.18328145E+00 0.37664803E+04</pdfrwt>
<totfact> 0.97670024E-02</totfact>
</mgrwt>
</event>
<event>
 6    1  0.1614874E-005  0.1330440E+04  0.7818608E-02  0.9005768E-01
         -2   -1    0    0    0  501 -0.00000000000E+00  0.00000000000E+00  0.65566770478E+03  0.65566770478E+03  0.00000000000E+00 0.  1.
          2   -1    0    0  501    0  0.00000000000E+00 -0.00000000000E+00 -0.67491174117E+03  0.67491174117E+03  0.00000000000E+00 0. -1.
         23    2    1    2    0    0 -0.59565108513E+03  0.91309662057E+02 -0.28136517037E+03  0.67343017944E+03  0.10584978926E+03 0.  0.
         13    1    3    3    0    0 -0.54110165242E+03  0.10381528853E+03 -0.22859546980E+03  0.59651026914E+03  0.00000000000E+00 0. -1.
        -13    1    3    3    0    0 -0.54549432712E+02 -0.12505626469E+02 -0.52769700562E+02  0.76919910296E+02  0.00000000000E+00 0.  1.
         22    1    1    2    0    0  0.59565108513E+03 -0.91309662057E+02  0.26212113397E+03  0.65714926651E+03  0.00000000000E+00 0.  1.
<mgrwt>
<rscale>  0 0.13304403E+04</rscale>
<asrwt>0</asrwt>
<pdfrwt beam="1">  1        2 0.10383258E+00 0.13304403E+04</pdfrwt>
<pdfrwt beam="2">  1       -2 0.10087195E+00 0.13304403E+04</pdfrwt>
<totfact> 0.33961806E+01</totfact>
</mgrwt>
</event>
<event>
 6    1  0.1614874E-005  0.3858560E+04  0.7818608E-02  0.8033704E-01
         -1   -1    0    0    0  501 -0.00000000000E+00  0.00000000000E+00  0.14867349867E+04  0.14867349867E+04  0.00000000000E+00 0.  1.
          1   -1    0    0  501    0  0.00000000000E+00 -0.00000000000E+00 -0.25035537166E+04  0.25035537166E+04  0.00000000000E+00 0. -1.
         23    2    1    2    0    0  0.15866981818E+04 -0.53365640371E+03  0.48072895207E+03  0.17441699761E+04  0.92888658332E+02 0.  0.
         11    1    3    3    0    0  0.55071050902E+02 -0.21233144326E+02 -0.16772926705E+00  0.59022836246E+02  0.00000000000E+00 0. -1.
        -11    1    3    3    0    0  0.15316271309E+04 -0.51242325938E+03  0.48089668134E+03  0.16851471399E+04  0.00000000000E+00 0.  1.
         22    1    1    2    0    0 -0.15866981818E+04  0.53365640371E+03 -0.14975476820E+04  0.22461187273E+04  0.00000000000E+00 0. -1.
<mgrwt>
<rscale>  0 0.38585598E+04</rscale>
<asrwt>0</asrwt>
<pdfrwt beam="1">  1        1 0.38516211E+00 0.38585598E+04</pdfrwt>
<pdfrwt beam="2">  1       -1 0.22872846E+00 0.38585598E+04</pdfrwt>
<totfact> 0.10265409E-01</totfact>
</mgrwt>
</event>
<event>
 6    1  0.1614874E-005  0.2209390E+04  0.7818608E-02  0.8514530E-01
          2   -1    0    0  501    0  0.00000000000E+00  0.00000000000E+00  0.28405798661E+04  0.28405798661E+04  0.00000000000E+00 0. -1.
         -2   -1    0    0    0  501 -0.00000000000E+00 -0.00000000000E+00 -0.42961320613E+03  0.42961320613E+03  0.00000000000E+00 0.  1.
         23    2    1    2    0    0 -0.11969831685E+03 -0.10673464701E+04  0.83634340491E+03  0.13641514752E+04  0.88785033219E+02 0.  0.
         13    1    3    3    0    0 -0.37455588331E+02 -0.54469574286E+03  0.47239175363E+03  0.72197669095E+03  0.00000000000E+00 0. -1.
        -13    1    3    3    0    0 -0.82242728515E+02 -0.52265072722E+03  0.36395165128E+03  0.64217478425E+03  0.00000000000E+00 0.  1.
         22    1    1    2    0    0  0.11969831685E+03  0.10673464701E+04  0.15746232551E+04  0.19060415971E+04  0.00000000000E+00 0. -1.
<mgrwt>
<rscale>  0 0.22093896E+04</rscale>
<asrwt>0</asrwt>
<pdfrwt beam="1">  1        2 0.43701228E+00 0.22093896E+04</pdfrwt>
<pdfrwt beam="2">  1       -2 0.66094341E-01 0.22093896E+04</pdfrwt>
<totfact> 0.42053252E+00</totfact>
</mgrwt>
</event>
<event>
 6    1  0.1614874E-005  0.3656764E+04  0.7818608E-02  0.8077612E-01
         -2   -1    0    0    0  501 -0.00000000000E+00  0.00000000000E+00  0.27110504594E+04  0.27110504594E+04  0.00000000000E+00 0.  1.
          2   -1    0    0  501    0  0.00000000000E+00 -0.00000000000E+00 -0.12330940669E+04  0.12330940669E+04  0.00000000000E+00 0. -1.
         23    2    1    2    0    0 -0.97816529287E+03 -0.12654991955E+03 -0.91963250710E+03  0.13516062423E+04  0.91067359066E+02 0.  0.
         11    1    3    3    0    0 -0.42773737321E+03 -0.35450350426E+02 -0.34485488550E+03  0.55058230978E+03  0.00000000000E+00 0.  1.
        -11    1    3    3    0    0 -0.55042791966E+03 -0.91099569129E+02 -0.57477762161E+03  0.80102393256E+03  0.00000000000E+00 0. -1.
         22    1    1    2    0    0  0.97816529287E+03  0.12654991955E+03  0.23975888996E+04  0.25925382840E+04  0.00000000000E+00 0.  1.
<mgrwt>
<rscale>  0 0.36567637E+04</rscale>
<asrwt>0</asrwt>
<pdfrwt beam="1">  1        2 0.18970678E+00 0.36567637E+04</pdfrwt>
<pdfrwt beam="2">  1       -2 0.41708469E+00 0.36567637E+04</pdfrwt>
<totfact> 0.84089003E-02</totfact>
</mgrwt>
</event>
<event>
 6    1  0.1614874E-005  0.1168128E+04  0.7818608E-02  0.9141221E-01
          1   -1    0    0  501    0  0.00000000000E+00  0.00000000000E+00  0.98885908899E+03  0.98885908899E+03  0.00000000000E+00 0. -1.
         -1   -1    0    0    0  501 -0.00000000000E+00 -0.00000000000E+00 -0.34497385410E+03  0.34497385410E+03  0.00000000000E+00 0.  1.
         23    2    1    2    0    0 -0.53626579431E+03 -0.90596545768E+02  0.92480651751E+02  0.55934230366E+03  0.92316875235E+02 0.  0.
         11    1    3    3    0    0 -0.39428785990E+03 -0.99299033943E+02  0.92987629951E+02  0.41709700782E+03  0.00000000000E+00 0. -1.
        -11    1    3    3    0    0 -0.14197793441E+03  0.87024881750E+01 -0.50697819989E+00  0.14224529584E+03  0.00000000000E+00 0.  1.
         22    1    1    2    0    0  0.53626579431E+03  0.90596545768E+02  0.55140458314E+03  0.77449063943E+03  0.00000000000E+00 0. -1.
<mgrwt>
<rscale>  0 0.11681276E+04</rscale>
<asrwt>0</asrwt>
<pdfrwt beam="1">  1        1 0.15213217E+00 0.11681276E+04</pdfrwt>
<pdfrwt beam="2">  1       -1 0.53072901E-01 0.11681276E+04</pdfrwt>
<totfact> 0.54813475E+01</totfact>
</mgrwt>
</event>
<event>
 6    1  0.1614874E-005  0.2646133E+04  0.7818608E-02  0.8352698E-01
          2   -1    0    0  501    0  0.00000000000E+00  0.00000000000E+00  0.91501047750E+03  0.91501047750E+03  0.00000000000E+00 0.  1.
         -2   -1    0    0    0  501 -0.00000000000E+00 -0.00000000000E+00 -0.19130975889E+04  0.19130975889E+04  0.00000000000E+00 0. -1.
         23    2    1    2    0    0  0.13850154080E+03 -0.60122467655E+03 -0.17485658972E+04  0.18565772143E+04  0.93501160948E+02 0.  0.
         13    1    3    3    0    0  0.44846827099E+02 -0.30004930669E+03 -0.97752911317E+03  0.10235252764E+04  0.00000000000E+00 0. -1.
        -13    1    3    3    0    0  0.93654713698E+02 -0.30117536986E+03 -0.77103678407E+03  0.83305193788E+03  0.00000000000E+00 0.  1.
         22    1    1    2    0    0 -0.13850154080E+03  0.60122467655E+03  0.75047878588E+03  0.97153085208E+03  0.00000000000E+00 0.  1.
<mgrwt>
<rscale>  0 0.26461325E+04</rscale>
<asrwt>0</asrwt>
<pdfrwt beam="1">  1        2 0.14077084E+00 0.26461325E+04</pdfrwt>
<pdfrwt beam="2">  1       -2 0.29432270E+00 0.26461325E+04</pdfrwt>
<totfact> 0.86913260E-01</totfact>
</mgrwt>
</event>
<event>
 6    1  0.1614874E-005  0.2332884E+04  0.7818608E-02  0.8465067E-01
         -1   -1    0    0    0  501 -0.00000000000E+00  0.00000000000E+00  0.75169056601E+03  0.75169056601E+03  0.00000000000E+00 0.  1.
          1   -1    0    0  501    0  0.00000000000E+00 -0.00000000000E+00 -0.18100358334E+04  0.18100358334E+04  0.00000000000E+00 0. -1.
         23    2    1    2    0    0 -0.66059067865E+03 -0.93490903136E+03 -0.76490230309E+03  0.13799718924E+04  0.93871981251E+02 0.  0.
         13    1    3    3    0    0 -0.16508314067E+03 -0.27530924180E+03 -0.25663099090E+03  0.41098307441E+03  0.00000000000E+00 0. -1.
        -13    1    3    3    0    0 -0.49550753798E+03 -0.65959978955E+03 -0.50827131219E+03  0.96898881798E+03  0.00000000000E+00 0.  1.
         22    1    1    2    0    0  0.66059067865E+03  0.93490903136E+03 -0.29344296433E+03  0.11817545071E+04  0.00000000000E+00 0.  1.
<mgrwt>
<rscale>  0 0.23328839E+04</rscale>
<asrwt>0</asrwt>
<pdfrwt beam="1">  1        1 0.27846705E+00 0.23328839E+04</pdfrwt>
<pdfrwt beam="2">  1       -1 0.11564470E+00 0.23328839E+04</pdfrwt>
<totfact> 0.24477779E+00</totfact>
</mgrwt>
</event>
<event>
 6    1  0.1614874E-005  0.1391470E+04  0.7818608E-02  0.8960016E-01
          2   -1    0    0  501    0  0.00000000000E+00  0.00000000000E+00  0.17963210737E+04  0.17963210737E+04  0.00000000000E+00 0.  1.
         -2   -1    0    0    0  501 -0.00000000000E+00 -0.00000000000E+00 -0.26946586666E+03  0.26946586666E+03  0.00000000000E+00 0. -1.
         23    2    1    2    0    0 -0.14476273626E+03 -0.67696508722E+03  0.72690268204E+03  0.10078823977E+04  0.90561798192E+02 0.  0.
         11    1    3    3    0    0 -0.90449613106E+02 -0.22256804407E+03  0.26418347362E+03  0.35708622837E+03  0.00000000000E+00 0.  1.
        -11    1    3    3    0    0 -0.54313123150E+02 -0.45439704315E+03  0.46271920842E+03  0.65079616932E+03  0.00000000000E+00 0. -1.
         22    1    1    2    0    0  0.14476273626E+03  0.67696508722E+03  0.79995252500E+03  0.10579045427E+04  0.00000000000E+00 0.  1.
<mgrwt>
<rscale>  0 0.13914700E+04</rscale>
<asrwt>0</asrwt>
<pdfrwt beam="1">  1        2 0.27635708E+00 0.13914700E+04</pdfrwt>
<pdfrwt beam="2">  1       -2 0.41456288E-01 0.13914700E+04</pdfrwt>
<totfact> 0.46545499E+01</totfact>
</mgrwt>
</event>
<event>
 6    1  0.1614874E-005  0.3007340E+04  0.7818608E-02  0.8241638E-01
          2   -1    0    0  501    0  0.00000000000E+00  0.00000000000E+00  0.17887749934E+04  0.17887749934E+04  0.00000000000E+00 0. -1.
         -2   -1    0    0    0  501 -0.00000000000E+00 -0.00000000000E+00 -0.12640069519E+04  0.12640069519E+04  0.00000000000E+00 0.  1.
         23    2    1    2    0    0  0.42561494650E+03 -0.40902061269E+03 -0.11394884629E+04  0.12869405999E+04  0.96624045838E+02 0.  0.
         13    1    3    3    0    0  0.80782598914E+02 -0.11256297620E+03 -0.34041657416E+03  0.36753189775E+03  0.00000000000E+00 0. -1.
        -13    1    3    3    0    0  0.34483234759E+03 -0.29645763649E+03 -0.79907188877E+03  0.91940870215E+03  0.00000000000E+00 0.  1.
         22    1    1    2    0    0 -0.42561494650E+03  0.40902061269E+03  0.16642565044E+04  0.17658413453E+04  0.00000000000E+00 0. -1.
<mgrwt>
<rscale>  0 0.30073404E+04</rscale>
<asrwt>0</asrwt>
<pdfrwt beam="1">  1        2 0.27519615E+00 0.30073404E+04</pdfrwt>
<pdfrwt beam="2">  1       -2 0.19446261E+00 0.30073404E+04</pdfrwt>
<totfact> 0.10837732E+00</totfact>
</mgrwt>
</event>
<event>
 6    1  0.1614874E-005  0.1592543E+04  0.7818608E-02  0.8825142E-01
         -1   -1    0    0    0  501 -0.00000000000E+00  0.00000000000E+00  0.42474847014E+03  0.42474847014E+03  0.00000000000E+00 0.  1.
          1   -1    0    0  501    0  0.00000000000E+00 -0.00000000000E+00 -0.14927624131E+04  0.14927624131E+04  0.00000000000E+00 0. -1.
         23    2    1    2    0    0  0.78549560484E+02 -0.54274829021E+03  0.15473792676E+03  0.57741093366E+03  0.93347846035E+02 0.  0.
         11    1    3    3    0    0  0.31798891674E+02 -0.43492658368E+03  0.14467685350E+03  0.45946022095E+03  0.00000000000E+00 0.  1.
        -11    1    3    3    0    0  0.46750668811E+02 -0.10782170653E+03  0.10061073264E+02  0.11795071271E+03  0.00000000000E+00 0. -1.
         22    1    1    2    0    0 -0.78549560484E+02  0.54274829021E+03 -0.12227518697E+04  0.13400999496E+04  0.00000000000E+00 0. -1.
<mgrwt>
<rscale>  0 0.15925433E+04</rscale>
<asrwt>0</asrwt>
<pdfrwt beam="1">  1        1 0.22965575E+00 0.15925433E+04</pdfrwt>
<pdfrwt beam="2">  1       -1 0.65345920E-01 0.15925433E+04</pdfrwt>
<totfact> 0.15083849E+01</totfact>
</mgrwt>
</event>
<event>
 6    1  0.1614874E-005  0.5577796E+04  0.7818608E-02  0.7745074E-01
          1   -1    0    0  501    0  0.00000000000E+00  0.00000000000E+00  0.27316738013E+04  0.27316738013E+04  0.00000000000E+00 0.  1.
         -1   -1    0    0    0  501 -0.00000000000E+00 -0.00000000000E+00 -0.28473210474E+04  0.28473210474E+04  0.00000000000E+00 0. -1.
         23    2    1    2    0    0  0.15923204939E+04 -0.22698667950E+04 -0.35122113884E+03  0.27963207963E+04  0.90960899739E+02 0.  0.
         13    1    3    3    0    0  0.12998667555E+04 -0.17974221884E+04 -0.26317159813E+03  0.22337500745E+04  0.00000000000E+00 0.  1.
        -13    1    3    3    0    0  0.29245373846E+03 -0.47244460660E+03 -0.88049540708E+02  0.56257072183E+03  0.00000000000E+00 0. -1.
         22    1    1    2    0    0 -0.15923204939E+04  0.22698667950E+04  0.23557389273E+03  0.27826740523E+04  0.00000000000E+00 0. -1.
<mgrwt>
<rscale>  0 0.55777961E+04</rscale>
<asrwt>0</asrwt>
<pdfrwt beam="1">  1        1 0.42025751E+00 0.55777961E+04</pdfrwt>
<pdfrwt beam="2">  1       -1 0.43804939E+00 0.55777961E+04</pdfrwt>
<totfact> 0.25227553E-03</totfact>
</mgrwt>
</event>
<event>
 6    1  0.1915038E-005  0.4186268E+04  0.7818608E-02  0.7967990E-01
         -1   -1    0    0    0  501 -0.00000000000E+00  0.00000000000E+00  0.15197669469E+04  0.15197669469E+04  0.00000000000E+00 0.  1.
          1   -1    0    0  501    0  0.00000000000E+00 -0.00000000000E+00 -0.28828163053E+04  0.28828163053E+04  0.00000000000E+00 0. -1.
         23    2    1    2    0    0  0.40685621561E+03 -0.17057238788E+04 -0.18818813340E+04  0.25738644247E+04  0.90965876066E+02 0.  0.
         13    1    3    3    0    0  0.14123799824E+03 -0.52804033318E+03 -0.52953643049E+03  0.76104112690E+03  0.00000000000E+00 0.  1.
        -13    1    3    3    0    0  0.26561821737E+03 -0.11776835456E+04 -0.13523449035E+04  0.18128232978E+04  0.00000000000E+00 0. -1.
         22    1    1    2    0    0 -0.40685621561E+03  0.17057238788E+04  0.51883197570E+03  0.18287188275E+04  0.00000000000E+00 0.  1.
<mgrwt>
<rscale>  0 0.41862675E+04</rscale>
<asrwt>0</asrwt>
<pdfrwt beam="1">  1        1 0.44351019E+00 0.41862675E+04</pdfrwt>
<pdfrwt beam="2">  1       -1 0.23381030E+00 0.41862675E+04</pdfrwt>
<totfact> 0.49893266E-02</totfact>
</mgrwt>
</event>
<event>
 6    1  0.1614874E-005  0.3103597E+04  0.7818608E-02  0.8214751E-01
          1   -1    0    0  501    0  0.00000000000E+00  0.00000000000E+00  0.13096201308E+04  0.13096201308E+04  0.00000000000E+00 0. -1.
         -1   -1    0    0    0  501 -0.00000000000E+00 -0.00000000000E+00 -0.18387615886E+04  0.18387615886E+04  0.00000000000E+00 0.  1.
         23    2    1    2    0    0  0.12540725677E+04 -0.71599086576E+03  0.30780126500E+03  0.14793059134E+04  0.90903474044E+02 0.  0.
         11    1    3    3    0    0  0.32385868013E+03 -0.15146400756E+03  0.10321160641E+03  0.37212689499E+03  0.00000000000E+00 0.  1.
        -11    1    3    3    0    0  0.93021388762E+03 -0.56452685820E+03  0.20458965859E+03  0.11071790184E+04  0.00000000000E+00 0. -1.
         22    1    1    2    0    0 -0.12540725677E+04  0.71599086576E+03 -0.83694272273E+03  0.16690758060E+04  0.00000000000E+00 0.  1.
<mgrwt>
<rscale>  0 0.31035974E+04</rscale>
<asrwt>0</asrwt>
<pdfrwt beam="1">  1        1 0.20148002E+00 0.31035974E+04</pdfrwt>
<pdfrwt beam="2">  1       -1 0.28288640E+00 0.31035974E+04</pdfrwt>
<totfact> 0.32017132E-01</totfact>
</mgrwt>
</event>
<event>
 6    1  0.1614874E-005  0.5576617E+03  0.7818608E-02  0.9997359E-01
         -1   -1    0    0    0  501 -0.00000000000E+00  0.00000000000E+00  0.23304218345E+03  0.23304218345E+03  0.00000000000E+00 0.  1.
          1   -1    0    0  501    0  0.00000000000E+00 -0.00000000000E+00 -0.33361620518E+03  0.33361620518E+03  0.00000000000E+00 0. -1.
         23    2    1    2    0    0 -0.13075820493E+03  0.60662796347E+02 -0.28539193715E+03  0.33227548636E+03  0.90447542956E+02 0.  0.
         11    1    3    3    0    0 -0.95373628897E+02  0.92198534793E+01 -0.22861586277E+03  0.24788373786E+03  0.00000000000E+00 0.  1.
        -11    1    3    3    0    0 -0.35384576038E+02  0.51442942867E+02 -0.56776074380E+02  0.84391748496E+02  0.00000000000E+00 0. -1.
         22    1    1    2    0    0  0.13075820493E+03 -0.60662796347E+02  0.18481791541E+03  0.23438290227E+03  0.00000000000E+00 0.  1.
<mgrwt>
<rscale>  0 0.55766172E+03</rscale>
<asrwt>0</asrwt>
<pdfrwt beam="1">  1        1 0.51325570E-01 0.55766172E+03</pdfrwt>
<pdfrwt beam="2">  1       -1 0.35852644E-01 0.55766172E+03</pdfrwt>
<totfact> 0.57241383E+02</totfact>
</mgrwt>
</event>
<event>
 6    1  0.1614874E-005  0.1267516E+04  0.7818608E-02  0.9055729E-01
          2   -1    0    0  501    0  0.00000000000E+00  0.00000000000E+00  0.25489209112E+04  0.25489209112E+04  0.00000000000E+00 0. -1.
         -2   -1    0    0    0  501 -0.00000000000E+00 -0.00000000000E+00 -0.15757617722E+03  0.15757617722E+03  0.00000000000E+00 0.  1.
         23    2    1    2    0    0 -0.11865891084E+03  0.35776906825E+03  0.12248778542E+03  0.40654263314E+03  0.90526303732E+02 0.  0.
         11    1    3    3    0    0  0.88264660132E+01  0.68490754064E+02  0.40113927785E+02  0.79862488672E+02  0.00000000000E+00 0. -1.
        -11    1    3    3    0    0 -0.12748537685E+03  0.28927831419E+03  0.82373857631E+02  0.32668014447E+03  0.00000000000E+00 0.  1.
         22    1    1    2    0    0  0.11865891084E+03 -0.35776906825E+03  0.22688569486E+04  0.22999544553E+04  0.00000000000E+00 0. -1.
<mgrwt>
<rscale>  0 0.12675160E+04</rscale>
<asrwt>0</asrwt>
<pdfrwt beam="1">  1        2 0.39214165E+00 0.12675160E+04</pdfrwt>
<pdfrwt beam="2">  1       -2 0.24242491E-01 0.12675160E+04</pdfrwt>
<totfact> 0.48861762E+01</totfact>
</mgrwt>
</event>
<event>
 6    1  0.1614874E-005  0.2014886E+04  0.7818608E-02  0.8599692E-01
          1   -1    0    0  501    0  0.00000000000E+00  0.00000000000E+00  0.24543526147E+04  0.24543526147E+04  0.00000000000E+00 0. -1.
         -1   -1    0    0    0  501 -0.00000000000E+00 -0.00000000000E+00 -0.41352717927E+03  0.41352717927E+03  0.00000000000E+00 0.  1.
         23    2    1    2    0    0 -0.95971314515E+03  0.28489142042E+03  0.11539887085E+04  0.15304599562E+04  0.91680399022E+02 0.  0.
         13    1    3    3    0    0 -0.81186157769E+03  0.23152456976E+03  0.92078593036E+03  0.12492275923E+04  0.00000000000E+00 0.  1.
        -13    1    3    3    0    0 -0.14785156746E+03  0.53366850665E+02  0.23320277817E+03  0.28123236389E+03  0.00000000000E+00 0. -1.
         22    1    1    2    0    0  0.95971314515E+03 -0.28489142042E+03  0.88683672687E+03  0.13374198378E+04  0.00000000000E+00 0.  1.
<mgrwt>
<rscale>  0 0.20148861E+04</rscale>
<asrwt>0</asrwt>
<pdfrwt beam="1">  1        1 0.37759270E+00 0.20148861E+04</pdfrwt>
<pdfrwt beam="2">  1       -1 0.63619568E-01 0.20148861E+04</pdfrwt>
<totfact> 0.33839310E+00</totfact>
</mgrwt>
</event>
<event>
 6    1  0.1614874E-005  0.2371911E+04  0.7818608E-02  0.8450095E-01
         -1   -1    0    0    0  501 -0.00000000000E+00  0.00000000000E+00  0.38487083858E+03  0.38487083858E+03  0.00000000000E+00 0.  1.
          1   -1    0    0  501    0  0.00000000000E+00 -0.00000000000E+00 -0.36544464510E+04  0.36544464510E+04  0.00000000000E+00 0. -1.
         23    2    1    2    0    0  0.73922465484E+03  0.91750420317E+02 -0.32049651991E+04  0.32916236789E+04  0.90073781468E+02 0.  0.
         13    1    3    3    0    0  0.34256615858E+03  0.78062956940E+02 -0.16277248757E+04  0.16652127999E+04  0.00000000000E+00 0.  1.
        -13    1    3    3    0    0  0.39665849626E+03  0.13687463377E+02 -0.15772403235E+04  0.16264108790E+04  0.00000000000E+00 0. -1.
         22    1    1    2    0    0 -0.73922465484E+03 -0.91750420317E+02 -0.64610413325E+02  0.74769361069E+03  0.00000000000E+00 0.  1.
<mgrwt>
<rscale>  0 0.23719105E+04</rscale>
<asrwt>0</asrwt>
<pdfrwt beam="1">  1        1 0.56222253E+00 0.23719105E+04</pdfrwt>
<pdfrwt beam="2">  1       -1 0.59210898E-01 0.23719105E+04</pdfrwt>
<totfact> 0.48927028E-01</totfact>
</mgrwt>
</event>
<event>
 6    1  0.1614874E-005  0.2234695E+04  0.7818608E-02  0.8504125E-01
         -1   -1    0    0    0  501 -0.00000000000E+00  0.00000000000E+00  0.90682853662E+03  0.90682853662E+03  0.00000000000E+00 0.  1.
          1   -1    0    0  501    0  0.00000000000E+00 -0.00000000000E+00 -0.13767376691E+04  0.13767376691E+04  0.00000000000E+00 0. -1.
         23    2    1    2    0    0  0.72666199252E+03  0.24569349510E+03 -0.10629953723E+04  0.13139506980E+04  0.90024053495E+02 0.  0.
         11    1    3    3    0    0  0.35933496206E+03  0.92458727548E+02 -0.57357346981E+03  0.68312279755E+03  0.00000000000E+00 0.  1.
        -11    1    3    3    0    0  0.36732703046E+03  0.15323476755E+03 -0.48942190253E+03  0.63082790044E+03  0.00000000000E+00 0. -1.
         22    1    1    2    0    0 -0.72666199252E+03 -0.24569349510E+03  0.59308623987E+03  0.96961550773E+03  0.00000000000E+00 0.  1.
<mgrwt>
<rscale>  0 0.22346946E+04</rscale>
<asrwt>0</asrwt>
<pdfrwt beam="1">  1        1 0.21180579E+00 0.22346946E+04</pdfrwt>
<pdfrwt beam="2">  1       -1 0.13951208E+00 0.22346946E+04</pdfrwt>
<totfact> 0.30678890E+00</totfact>
</mgrwt>
</event>
<event>
 6    1  0.1614874E-005  0.3277978E+04  0.7818608E-02  0.8168522E-01
         -1   -1    0    0    0  501 -0.00000000000E+00  0.00000000000E+00  0.72614563115E+03  0.72614563115E+03  0.00000000000E+00 0.  1.
          1   -1    0    0  501    0  0.00000000000E+00 -0.00000000000E+00 -0.36993751107E+04  0.36993751107E+04  0.00000000000E+00 0. -1.
         23    2    1    2    0    0  0.10969743988E+04 -0.55735599996E+02 -0.31277961271E+04  0.33163092485E+04  0.91318837911E+02 0.  0.
         11    1    3    3    0    0  0.85683351298E+03 -0.38901058166E+02 -0.23234004995E+04  0.24766644590E+04  0.00000000000E+00 0. -1.
        -11    1    3    3    0    0  0.24014088578E+03 -0.16834541830E+02 -0.80439562758E+03  0.83964478947E+03  0.00000000000E+00 0.  1.
         22    1    1    2    0    0 -0.10969743988E+04  0.55735599996E+02  0.15456664750E+03  0.11092114934E+04  0.00000000000E+00 0.  1.
<mgrwt>
<rscale>  0 0.32779781E+04</rscale>
<asrwt>0</asrwt>
<pdfrwt beam="1">  1        1 0.56913462E+00 0.32779781E+04</pdfrwt>
<pdfrwt beam="2">  1       -1 0.11171471E+00 0.32779781E+04</pdfrwt>
<totfact> 0.10544985E-01</totfact>
</mgrwt>
</event>
<event>
 6    1  0.1614874E-005  0.9378895E+03  0.7818608E-02  0.9379419E-01
         -1   -1    0    0    0  501 -0.00000000000E+00  0.00000000000E+00  0.37958846785E+03  0.37958846785E+03  0.00000000000E+00 0.  1.
          1   -1    0    0  501    0  0.00000000000E+00 -0.00000000000E+00 -0.57933574080E+03  0.57933574080E+03  0.00000000000E+00 0. -1.
         23    2    1    2    0    0  0.10840060969E+03  0.43798251769E+03 -0.21296523104E+03  0.50753292340E+03  0.93038168052E+02 0.  0.
         13    1    3    3    0    0 -0.15833489218E+01  0.87076601299E+02 -0.10441315753E+02  0.87714665605E+02  0.00000000000E+00 0. -1.
        -13    1    3    3    0    0  0.10998395861E+03  0.35090591640E+03 -0.20252391529E+03  0.41981825780E+03  0.00000000000E+00 0.  1.
         22    1    1    2    0    0 -0.10840060969E+03 -0.43798251769E+03  0.13217958094E+02  0.45139128525E+03  0.00000000000E+00 0. -1.
<mgrwt>
<rscale>  0 0.93788947E+03</rscale>
<asrwt>0</asrwt>
<pdfrwt beam="1">  1        1 0.89128575E-01 0.93788947E+03</pdfrwt>
<pdfrwt beam="2">  1       -1 0.58398226E-01 0.93788947E+03</pdfrwt>
<totfact> 0.10768904E+02</totfact>
</mgrwt>
</event>
<event>
 6    1  0.1614874E-005  0.2703869E+04  0.7818608E-02  0.8333751E-01
          1   -1    0    0  501    0  0.00000000000E+00  0.00000000000E+00  0.12310864347E+04  0.12310864347E+04  0.00000000000E+00 0. -1.
         -1   -1    0    0    0  501 -0.00000000000E+00 -0.00000000000E+00 -0.14846458362E+04  0.14846458362E+04  0.00000000000E+00 0.  1.
         23    2    1    2    0    0 -0.50399806145E+03 -0.45874172011E+03  0.10439019648E+04  0.12501729890E+04  0.93504966133E+02 0.  0.
         13    1    3    3    0    0 -0.19408120663E+03 -0.17968082935E+03  0.32451759226E+03  0.41864589200E+03  0.00000000000E+00 0.  1.
        -13    1    3    3    0    0 -0.30991685481E+03 -0.27906089076E+03  0.71938437251E+03  0.83152709701E+03  0.00000000000E+00 0. -1.
         22    1    1    2    0    0  0.50399806145E+03  0.45874172011E+03 -0.12974613663E+04  0.14655592819E+04  0.00000000000E+00 0.  1.
<mgrwt>
<rscale>  0 0.27038693E+04</rscale>
<asrwt>0</asrwt>
<pdfrwt beam="1">  1        1 0.18939791E+00 0.27038693E+04</pdfrwt>
<pdfrwt beam="2">  1       -1 0.22840705E+00 0.27038693E+04</pdfrwt>
<totfact> 0.85622563E-01</totfact>
</mgrwt>
</event>
<event>
 6    1  0.1614874E-005  0.1272423E+04  0.7818608E-02  0.9051724E-01
         -2   -1    0    0    0  501 -0.00000000000E+00  0.00000000000E+00  0.21966314012E+03  0.21966314012E+03  0.00000000000E+00 0. -1.
          2   -1    0    0  501    0  0.00000000000E+00 -0.00000000000E+00 -0.18426635028E+04  0.18426635028E+04  0.00000000000E+00 0.  1.
         23    2    1    2    0    0  0.22018250156E+03 -0.50207835191E+03 -0.30406360321E+03  0.63398593393E+03  0.94448314835E+02 0.  0.
         11    1    3    3    0    0  0.19378354329E+02 -0.10441097472E+03 -0.27742756560E+02  0.10975806485E+03  0.00000000000E+00 0. -1.
        -11    1    3    3    0    0  0.20080414723E+03 -0.39766737719E+03 -0.27632084665E+03  0.52422786908E+03  0.00000000000E+00 0.  1.
         22    1    1    2    0    0 -0.22018250156E+03  0.50207835191E+03 -0.13189367594E+04  0.14283407089E+04  0.00000000000E+00 0.  1.
<mgrwt>
<rscale>  0 0.12724233E+04</rscale>
<asrwt>0</asrwt>
<pdfrwt beam="1">  1        2 0.28348669E+00 0.12724233E+04</pdfrwt>
<pdfrwt beam="2">  1       -2 0.33794330E-01 0.12724233E+04</pdfrwt>
<totfact> 0.65743546E+01</totfact>
</mgrwt>
</event>
<event>
 6    1  0.1614874E-005  0.8493820E+03  0.7818608E-02  0.9491167E-01
          2   -1    0    0  501    0  0.00000000000E+00  0.00000000000E+00  0.21439542984E+04  0.21439542984E+04  0.00000000000E+00 0. -1.
         -2   -1    0    0    0  501 -0.00000000000E+00 -0.00000000000E+00 -0.84126060504E+02  0.84126060504E+02  0.00000000000E+00 0.  1.
         23    2    1    2    0    0 -0.37931771697E+03  0.92753836178E+01  0.56633928598E+03  0.68714648211E+03  0.86383666775E+02 0.  0.
         11    1    3    3    0    0 -0.13190528329E+03  0.31972899250E+02  0.14983092348E+03  0.20216472412E+03  0.00000000000E+00 0. -1.
        -11    1    3    3    0    0 -0.24741243368E+03 -0.22697515632E+02  0.41650836250E+03  0.48498175800E+03  0.00000000000E+00 0.  1.
         22    1    1    2    0    0  0.37931771697E+03 -0.92753836178E+01  0.14934889519E+04  0.15409338768E+04  0.00000000000E+00 0. -1.
<mgrwt>
<rscale>  0 0.84938196E+03</rscale>
<asrwt>0</asrwt>
<pdfrwt beam="1">  1        2 0.32983908E+00 0.84938196E+03</pdfrwt>
<pdfrwt beam="2">  1       -2 0.12942472E-01 0.84938196E+03</pdfrwt>
<totfact> 0.25397561E+02</totfact>
</mgrwt>
</event>
<event>
 6    1  0.1614874E-005  0.7950206E+03  0.7818608E-02  0.9567253E-01
          2   -1    0    0  501    0  0.00000000000E+00  0.00000000000E+00  0.40200233188E+03  0.40200233188E+03  0.00000000000E+00 0. -1.
         -2   -1    0    0    0  501 -0.00000000000E+00 -0.00000000000E+00 -0.39306841510E+03  0.39306841510E+03  0.00000000000E+00 0.  1.
         23    2    1    2    0    0  0.13994984852E+03  0.76885563449E+02  0.36282652615E+03  0.40682169168E+03  0.91451904170E+02 0.  0.
         13    1    3    3    0    0  0.12868736693E+02  0.56635097190E+01  0.13934032378E+03  0.14004786881E+03  0.00000000000E+00 0.  1.
        -13    1    3    3    0    0  0.12708111183E+03  0.71222053730E+02  0.22348620237E+03  0.26677382287E+03  0.00000000000E+00 0. -1.
         22    1    1    2    0    0 -0.13994984852E+03 -0.76885563449E+02 -0.35389260937E+03  0.38824905529E+03  0.00000000000E+00 0.  1.
<mgrwt>
<rscale>  0 0.79502055E+03</rscale>
<asrwt>0</asrwt>
<pdfrwt beam="1">  1        2 0.61846513E-01 0.79502055E+03</pdfrwt>
<pdfrwt beam="2">  1       -2 0.60472064E-01 0.79502055E+03</pdfrwt>
<totfact> 0.20298739E+02</totfact>
</mgrwt>
</event>
<event>
 6    1  0.1614874E-005  0.9684729E+03  0.7818608E-02  0.9343815E-01
         -3   -1    0    0    0  501 -0.00000000000E+00  0.00000000000E+00  0.96740726884E+03  0.96740726884E+03  0.00000000000E+00 0.  1.
          3   -1    0    0  501    0  0.00000000000E+00 -0.00000000000E+00 -0.24238492281E+03  0.24238492281E+03  0.00000000000E+00 0. -1.
         23    2    1    2    0    0 -0.13079256458E+03 -0.38743125750E+03  0.67966445291E+03  0.79837146696E+03  0.90794033223E+02 0.  0.
         13    1    3    3    0    0 -0.76885569547E+02 -0.26529013966E+03  0.53111709766E+03  0.59864481993E+03  0.00000000000E+00 0. -1.
        -13    1    3    3    0    0 -0.53906995037E+02 -0.12214111784E+03  0.14854735525E+03  0.19972664703E+03  0.00000000000E+00 0.  1.
         22    1    1    2    0    0  0.13079256458E+03  0.38743125750E+03  0.45357893125E+02  0.41142072469E+03  0.00000000000E+00 0. -1.
<mgrwt>
<rscale>  0 0.96847289E+03</rscale>
<asrwt>0</asrwt>
<pdfrwt beam="1">  1        3 0.37289989E-01 0.96847289E+03</pdfrwt>
<pdfrwt beam="2">  1       -3 0.14883189E+00 0.96847289E+03</pdfrwt>
<totfact> 0.61532143E+00</totfact>
</mgrwt>
</event>
<event>
 6    1  0.1614874E-005  0.2309181E+04  0.7818608E-02  0.8474310E-01
         -2   -1    0    0    0  501 -0.00000000000E+00  0.00000000000E+00  0.12140233410E+04  0.12140233410E+04  0.00000000000E+00 0.  1.
          2   -1    0    0  501    0  0.00000000000E+00 -0.00000000000E+00 -0.10980674637E+04  0.10980674637E+04  0.00000000000E+00 0. -1.
         23    2    1    2    0    0  0.10175993514E+04 -0.52069378366E+03  0.20766816349E+03  0.11653381724E+04  0.90865469404E+02 0.  0.
         11    1    3    3    0    0  0.59884066463E+03 -0.26074303927E+03  0.98785325755E+02  0.66057218737E+03  0.00000000000E+00 0. -1.
        -11    1    3    3    0    0  0.41875868678E+03 -0.25995074440E+03  0.10888283773E+03  0.50476598501E+03  0.00000000000E+00 0.  1.
         22    1    1    2    0    0 -0.10175993514E+04  0.52069378366E+03 -0.91712286098E+02  0.11467526323E+04  0.00000000000E+00 0. -1.
<mgrwt>
<rscale>  0 0.23091813E+04</rscale>
<asrwt>0</asrwt>
<pdfrwt beam="1">  1        2 0.16893346E+00 0.23091813E+04</pdfrwt>
<pdfrwt beam="2">  1       -2 0.18677282E+00 0.23091813E+04</pdfrwt>
<totfact> 0.32250134E+00</totfact>
</mgrwt>
</event>
<event>
 6    1  0.1614874E-005  0.7264779E+03  0.7818608E-02  0.9672993E-01
         -3   -1    0    0    0  501 -0.00000000000E+00  0.00000000000E+00  0.19898894126E+04  0.19898894126E+04  0.00000000000E+00 0.  1.
          3   -1    0    0  501    0  0.00000000000E+00 -0.00000000000E+00 -0.66306461040E+02  0.66306461040E+02  0.00000000000E+00 0. -1.
         23    2    1    2    0    0  0.33231882645E+03  0.20526591398E+02  0.60801852729E+03  0.69915243374E+03  0.90942029427E+02 0.  0.
         13    1    3    3    0    0  0.90531344472E+02 -0.34579642654E+02  0.15906745902E+03  0.18626361034E+03  0.00000000000E+00 0.  1.
        -13    1    3    3    0    0  0.24178748198E+03  0.55106234052E+02  0.44895106827E+03  0.51288882340E+03  0.00000000000E+00 0. -1.
         22    1    1    2    0    0 -0.33231882645E+03 -0.20526591398E+02  0.13155644243E+04  0.13570434399E+04  0.00000000000E+00 0.  1.
<mgrwt>
<rscale>  0 0.72647787E+03</rscale>
<asrwt>0</asrwt>
<pdfrwt beam="1">  1        3 0.10200996E-01 0.72647787E+03</pdfrwt>
<pdfrwt beam="2">  1       -3 0.30613679E+00 0.72647787E+03</pdfrwt>
<totfact> 0.71007419E+00</totfact>
</mgrwt>
</event>
<event>
 6    1  0.1614874E-005  0.8060788E+04  0.7818608E-02  0.7476944E-01
          2   -1    0    0  501    0  0.00000000000E+00  0.00000000000E+00  0.36736261865E+04  0.36736261865E+04  0.00000000000E+00 0. -1.
         -2   -1    0    0    0  501 -0.00000000000E+00 -0.00000000000E+00 -0.44218091432E+04  0.44218091432E+04  0.00000000000E+00 0.  1.
         23    2    1    2    0    0 -0.22770753563E+04 -0.28846980210E+04 -0.20345677647E+04  0.42016786956E+04  0.89905623302E+02 0.  0.
         11    1    3    3    0    0 -0.17688895425E+04 -0.22070880344E+04 -0.16015241662E+04  0.32503980464E+04  0.00000000000E+00 0. -1.
        -11    1    3    3    0    0 -0.50818581385E+03 -0.67760998665E+03 -0.43304359848E+03  0.95128064922E+03  0.00000000000E+00 0.  1.
         22    1    1    2    0    0  0.22770753563E+04  0.28846980210E+04  0.12863848079E+04  0.38937566340E+04  0.00000000000E+00 0. -1.
<mgrwt>
<rscale>  0 0.80607875E+04</rscale>
<asrwt>0</asrwt>
<pdfrwt beam="1">  1        2 0.56517326E+00 0.80607875E+04</pdfrwt>
<pdfrwt beam="2">  1       -2 0.68027833E+00 0.80607875E+04</pdfrwt>
<totfact> 0.96648540E-05</totfact>
</mgrwt>
</event>
<event>
 6    1  0.1614874E-005  0.4278399E+04  0.7818608E-02  0.7950624E-01
          1   -1    0    0  501    0  0.00000000000E+00  0.00000000000E+00  0.25081810528E+04  0.25081810528E+04  0.00000000000E+00 0. -1.
         -1   -1    0    0    0  501 -0.00000000000E+00 -0.00000000000E+00 -0.18244993330E+04  0.18244993330E+04  0.00000000000E+00 0.  1.
         23    2    1    2    0    0  0.55368292684E+03 -0.18784670897E+04  0.12112578143E+04  0.23044940221E+04  0.91344483734E+02 0.  0.
         11    1    3    3    0    0  0.58819270406E+02 -0.26410029594E+03  0.19814107186E+03  0.33536332125E+03  0.00000000000E+00 0. -1.
        -11    1    3    3    0    0  0.49486365643E+03 -0.16143667937E+04  0.10131167424E+04  0.19691307008E+04  0.00000000000E+00 0.  1.
         22    1    1    2    0    0 -0.55368292684E+03  0.18784670897E+04 -0.52757609441E+03  0.20281863637E+04  0.00000000000E+00 0.  1.
<mgrwt>
<rscale>  0 0.42783991E+04</rscale>
<asrwt>0</asrwt>
<pdfrwt beam="1">  1        1 0.38587401E+00 0.42783991E+04</pdfrwt>
<pdfrwt beam="2">  1       -1 0.28069221E+00 0.42783991E+04</pdfrwt>
<totfact> 0.45066405E-02</totfact>
</mgrwt>
</event>
<event>
 6    1  0.1614874E-005  0.9477060E+03  0.7818608E-02  0.9367836E-01
         -1   -1    0    0    0  501 -0.00000000000E+00  0.00000000000E+00  0.51650530593E+03  0.51650530593E+03  0.00000000000E+00 0.  1.
          1   -1    0    0  501    0  0.00000000000E+00 -0.00000000000E+00 -0.43472286209E+03  0.43472286209E+03  0.00000000000E+00 0. -1.
         23    2    1    2    0    0 -0.12499726615E+03  0.47871017951E+02  0.49272948990E+03  0.51903211809E+03  0.93252552200E+02 0.  0.
         13    1    3    3    0    0 -0.85851904065E+02  0.49742224432E+01  0.40354878190E+03  0.41260987832E+03  0.00000000000E+00 0.  1.
        -13    1    3    3    0    0 -0.39145362087E+02  0.42896795508E+02  0.89180708003E+02  0.10642223977E+03  0.00000000000E+00 0. -1.
         22    1    1    2    0    0  0.12499726615E+03 -0.47871017951E+02 -0.41094704606E+03  0.43219604993E+03  0.00000000000E+00 0. -1.
<mgrwt>
<rscale>  0 0.94770600E+03</rscale>
<asrwt>0</asrwt>
<pdfrwt beam="1">  1        1 0.66880440E-01 0.94770600E+03</pdfrwt>
<pdfrwt beam="2">  1       -1 0.79462355E-01 0.94770600E+03</pdfrwt>
<totfact> 0.85426636E+01</totfact>
</mgrwt>
</event>
<event>
 6    1  0.1614874E-005  0.2431177E+04  0.7818608E-02  0.8427923E-01
         -1   -1    0    0    0  501 -0.00000000000E+00  0.00000000000E+00  0.69210833510E+03  0.69210833510E+03  0.00000000000E+00 0.  1.
          1   -1    0    0  501    0  0.00000000000E+00 -0.00000000000E+00 -0.21350059884E+04  0.21350059884E+04  0.00000000000E+00 0. -1.
         23    2    1    2    0    0 -0.13974042431E+03 -0.56240541827E+03  0.51791131993E+03  0.78246299132E+03  0.90492854876E+02 0.  0.
         13    1    3    3    0    0 -0.15475630077E+02 -0.12680965256E+03  0.71097523836E+02  0.14620205540E+03  0.00000000000E+00 0. -1.
        -13    1    3    3    0    0 -0.12426479424E+03 -0.43559576571E+03  0.44681379610E+03  0.63626093592E+03  0.00000000000E+00 0.  1.
         22    1    1    2    0    0  0.13974042431E+03  0.56240541827E+03 -0.19608089732E+04  0.20446513322E+04  0.00000000000E+00 0. -1.
<mgrwt>
<rscale>  0 0.24311770E+04</rscale>
<asrwt>0</asrwt>
<pdfrwt beam="1">  1        1 0.32846246E+00 0.24311770E+04</pdfrwt>
<pdfrwt beam="2">  1       -1 0.10647821E+00 0.24311770E+04</pdfrwt>
<totfact> 0.17761035E+00</totfact>
</mgrwt>
</event>
<event>
 6    1  0.1614874E-005  0.4869840E+04  0.7818608E-02  0.7848905E-01
          2   -1    0    0  501    0  0.00000000000E+00  0.00000000000E+00  0.24058144142E+04  0.24058144142E+04  0.00000000000E+00 0. -1.
         -2   -1    0    0    0  501 -0.00000000000E+00 -0.00000000000E+00 -0.24643780287E+04  0.24643780287E+04  0.00000000000E+00 0.  1.
         23    2    1    2    0    0  0.91098580550E+03  0.20443281278E+04  0.92763813419E+03  0.24244274254E+04  0.90350437142E+02 0.  0.
         11    1    3    3    0    0  0.64890538561E+03  0.13517881825E+04  0.62110741867E+03  0.16230169177E+04  0.00000000000E+00 0. -1.
        -11    1    3    3    0    0  0.26208041990E+03  0.69253994528E+03  0.30653071552E+03  0.80141050771E+03  0.00000000000E+00 0.  1.
         22    1    1    2    0    0 -0.91098580550E+03 -0.20443281278E+04 -0.98620174865E+03  0.24457650175E+04  0.00000000000E+00 0.  1.
<mgrwt>
<rscale>  0 0.48698403E+04</rscale>
<asrwt>0</asrwt>
<pdfrwt beam="1">  1        2 0.37012529E+00 0.48698403E+04</pdfrwt>
<pdfrwt beam="2">  1       -2 0.37913508E+00 0.48698403E+04</pdfrwt>
<totfact> 0.29438608E-02</totfact>
</mgrwt>
</event>
<event>
 6    1  0.1614874E-005  0.1440868E+04  0.7818608E-02  0.8924756E-01
          1   -1    0    0  501    0  0.00000000000E+00  0.00000000000E+00  0.81721070258E+03  0.81721070258E+03  0.00000000000E+00 0. -1.
         -1   -1    0    0    0  501 -0.00000000000E+00 -0.00000000000E+00 -0.63511810696E+03  0.63511810696E+03  0.00000000000E+00 0.  1.
         23    2    1    2    0    0 -0.43657107284E+03 -0.38148416479E+03  0.51739911551E+03  0.78258637255E+03  0.92817649977E+02 0.  0.
         11    1    3    3    0    0 -0.23661165930E+03 -0.26534971554E+03  0.32728560724E+03  0.48323019107E+03  0.00000000000E+00 0. -1.
        -11    1    3    3    0    0 -0.19995941354E+03 -0.11613444925E+03  0.19011350827E+03  0.29935618149E+03  0.00000000000E+00 0.  1.
         22    1    1    2    0    0  0.43657107284E+03  0.38148416479E+03 -0.33530651988E+03  0.66974243699E+03  0.00000000000E+00 0.  1.
<mgrwt>
<rscale>  0 0.14408682E+04</rscale>
<asrwt>0</asrwt>
<pdfrwt beam="1">  1        1 0.12572472E+00 0.14408682E+04</pdfrwt>
<pdfrwt beam="2">  1       -1 0.97710478E-01 0.14408682E+04</pdfrwt>
<totfact> 0.20869982E+01</totfact>
</mgrwt>
</event>
<event>
 6    1  0.1614874E-005  0.3049206E+04  0.7818608E-02  0.8229818E-01
         -2   -1    0    0    0  501 -0.00000000000E+00  0.00000000000E+00  0.22081861364E+04  0.22081861364E+04  0.00000000000E+00 0.  1.
          2   -1    0    0  501    0  0.00000000000E+00 -0.00000000000E+00 -0.10526351140E+04  0.10526351140E+04  0.00000000000E+00 0. -1.
         23    2    1    2    0    0  0.12654830018E+04  0.30495627736E+03 -0.26760286582E+03  0.13321396934E+04  0.92408387814E+02 0.  0.
         13    1    3    3    0    0  0.11085972167E+04  0.23577806414E+03 -0.22603746488E+03  0.11557127757E+04  0.00000000000E+00 0.  1.
        -13    1    3    3    0    0  0.15688578509E+03  0.69178213213E+02 -0.41565400948E+02  0.17642691773E+03  0.00000000000E+00 0. -1.
         22    1    1    2    0    0 -0.12654830018E+04 -0.30495627736E+03  0.14231538882E+04  0.19286815570E+04  0.00000000000E+00 0.  1.
<mgrwt>
<rscale>  0 0.30492060E+04</rscale>
<asrwt>0</asrwt>
<pdfrwt beam="1">  1        2 0.16194386E+00 0.30492060E+04</pdfrwt>
<pdfrwt beam="2">  1       -2 0.33972094E+00 0.30492060E+04</pdfrwt>
<totfact> 0.35883525E-01</totfact>
</mgrwt>
</event>
<event>
 6    1  0.1614874E-005  0.3020662E+04  0.7818608E-02  0.8237855E-01
          1   -1    0    0  501    0  0.00000000000E+00  0.00000000000E+00  0.22241095219E+04  0.22241095219E+04  0.00000000000E+00 0. -1.
         -1   -1    0    0    0  501 -0.00000000000E+00 -0.00000000000E+00 -0.10256240054E+04  0.10256240054E+04  0.00000000000E+00 0.  1.
         23    2    1    2    0    0 -0.13855498016E+04 -0.53309792942E+02  0.12402670243E+04  0.18625291872E+04  0.90346526888E+02 0.  0.
         11    1    3    3    0    0 -0.57044087204E+03  0.21834658007E+02  0.52009520563E+03  0.77225550416E+03  0.00000000000E+00 0. -1.
        -11    1    3    3    0    0 -0.81510892955E+03 -0.75144450950E+02  0.72017181870E+03  0.10902736831E+04  0.00000000000E+00 0.  1.
         22    1    1    2    0    0  0.13855498016E+04  0.53309792942E+02 -0.41781507929E+02  0.13872043401E+04  0.00000000000E+00 0.  1.
<mgrwt>
<rscale>  0 0.30206623E+04</rscale>
<asrwt>0</asrwt>
<pdfrwt beam="1">  1        1 0.34217069E+00 0.30206623E+04</pdfrwt>
<pdfrwt beam="2">  1       -1 0.15778831E+00 0.30206623E+04</pdfrwt>
<totfact> 0.54125708E-01</totfact>
</mgrwt>
</event>
<event>
 6    1  0.1614874E-005  0.2979090E+04  0.7818608E-02  0.8249727E-01
         -2   -1    0    0    0  501 -0.00000000000E+00  0.00000000000E+00  0.70146172537E+03  0.70146172537E+03  0.00000000000E+00 0.  1.
          2   -1    0    0  501    0  0.00000000000E+00 -0.00000000000E+00 -0.31630305401E+04  0.31630305401E+04  0.00000000000E+00 0. -1.
         23    2    1    2    0    0 -0.96279587783E+02  0.55016941048E+03 -0.30212698467E+04  0.30737828470E+04  0.90074215929E+02 0.  0.
         13    1    3    3    0    0 -0.42642522185E+01  0.26068028017E+03 -0.14986025189E+04  0.15211120609E+04  0.00000000000E+00 0.  1.
        -13    1    3    3    0    0 -0.92015335565E+02  0.28948913031E+03 -0.15226673278E+04  0.15526707860E+04  0.00000000000E+00 0. -1.
         22    1    1    2    0    0  0.96279587783E+02 -0.55016941048E+03  0.55970103200E+03  0.79070941848E+03  0.00000000000E+00 0.  1.
<mgrwt>
<rscale>  0 0.29790904E+04</rscale>
<asrwt>0</asrwt>
<pdfrwt beam="1">  1        2 0.48662008E+00 0.29790904E+04</pdfrwt>
<pdfrwt beam="2">  1       -2 0.10791719E+00 0.29790904E+04</pdfrwt>
<totfact> 0.80818454E-01</totfact>
</mgrwt>
</event>
<event>
 6    1  0.1614874E-005  0.2057841E+04  0.7818608E-02  0.8580046E-01
          2   -1    0    0  501    0  0.00000000000E+00  0.00000000000E+00  0.16019612782E+04  0.16019612782E+04  0.00000000000E+00 0. -1.
         -2   -1    0    0    0  501 -0.00000000000E+00 -0.00000000000E+00 -0.66086327625E+03  0.66086327625E+03  0.00000000000E+00 0.  1.
         23    2    1    2    0    0  0.59770563975E+03 -0.28772113685E+03 -0.39028322627E+03  0.77533961024E+03  0.93781821945E+02 0.  0.
         11    1    3    3    0    0  0.25541253728E+03 -0.10980990513E+03 -0.21582270955E+03  0.35195627772E+03  0.00000000000E+00 0.  1.
        -11    1    3    3    0    0  0.34229310247E+03 -0.17791123172E+03 -0.17446051672E+03  0.42338333253E+03  0.00000000000E+00 0. -1.
         22    1    1    2    0    0 -0.59770563975E+03  0.28772113685E+03  0.13313812283E+04  0.14874849442E+04  0.00000000000E+00 0. -1.
<mgrwt>
<rscale>  0 0.20578410E+04</rscale>
<asrwt>0</asrwt>
<pdfrwt beam="1">  1        2 0.24645558E+00 0.20578410E+04</pdfrwt>
<pdfrwt beam="2">  1       -2 0.10167127E+00 0.20578410E+04</pdfrwt>
<totfact> 0.81684117E+00</totfact>
</mgrwt>
</event>
<event>
 6    1  0.1614874E-005  0.8721192E+03  0.7818608E-02  0.9461121E-01
          2   -1    0    0  501    0  0.00000000000E+00  0.00000000000E+00  0.14558760249E+04  0.14558760249E+04  0.00000000000E+00 0. -1.
         -2   -1    0    0    0  501 -0.00000000000E+00 -0.00000000000E+00 -0.13060726029E+03  0.13060726029E+03  0.00000000000E+00 0.  1.
         23    2    1    2    0    0  0.63598344230E+02  0.42575235865E+03  0.61951701788E+03  0.75980599125E+03  0.90520652945E+02 0.  0.
         11    1    3    3    0    0  0.57460150246E+02  0.11491556544E+03  0.16476948364E+03  0.20894075425E+03  0.00000000000E+00 0. -1.
        -11    1    3    3    0    0  0.61381939845E+01  0.31083679321E+03  0.45474753425E+03  0.55086523701E+03  0.00000000000E+00 0.  1.
         22    1    1    2    0    0 -0.63598344230E+02 -0.42575235865E+03  0.70575174669E+03  0.82667729390E+03  0.00000000000E+00 0.  1.
<mgrwt>
<rscale>  0 0.87211921E+03</rscale>
<asrwt>0</asrwt>
<pdfrwt beam="1">  1        2 0.22398092E+00 0.87211921E+03</pdfrwt>
<pdfrwt beam="2">  1       -2 0.20093426E-01 0.87211921E+03</pdfrwt>
<totfact> 0.28608453E+02</totfact>
</mgrwt>
</event>
<event>
 6    1  0.1614874E-005  0.2572808E+04  0.7818608E-02  0.8377497E-01
         -1   -1    0    0    0  501 -0.00000000000E+00  0.00000000000E+00  0.11115607028E+04  0.11115607028E+04  0.00000000000E+00 0.  1.
          1   -1    0    0  501    0  0.00000000000E+00 -0.00000000000E+00 -0.14887490157E+04  0.14887490157E+04  0.00000000000E+00 0. -1.
         23    2    1    2    0    0  0.82316486661E+03 -0.84622049028E+03 -0.70124842394E+03  0.13760938587E+04  0.90528669776E+02 0.  0.
         13    1    3    3    0    0  0.53807616628E+03 -0.51289519532E+03 -0.47969864302E+03  0.88470233990E+03  0.00000000000E+00 0.  1.
        -13    1    3    3    0    0  0.28508870033E+03 -0.33332529496E+03 -0.22154978092E+03  0.49139151879E+03  0.00000000000E+00 0. -1.
         22    1    1    2    0    0 -0.82316486661E+03  0.84622049028E+03  0.32406011111E+03  0.12242158598E+04  0.00000000000E+00 0.  1.
<mgrwt>
<rscale>  0 0.25728077E+04</rscale>
<asrwt>0</asrwt>
<pdfrwt beam="1">  1        1 0.22903831E+00 0.25728077E+04</pdfrwt>
<pdfrwt beam="2">  1       -1 0.17100934E+00 0.25728077E+04</pdfrwt>
<totfact> 0.14224144E+00</totfact>
</mgrwt>
</event>
<event>
 6    1  0.1614874E-005  0.2237265E+04  0.7818608E-02  0.8503076E-01
          2   -1    0    0  501    0  0.00000000000E+00  0.00000000000E+00  0.14734271961E+04  0.14734271961E+04  0.00000000000E+00 0. -1.
         -2   -1    0    0    0  501 -0.00000000000E+00 -0.00000000000E+00 -0.84927043868E+03  0.84927043868E+03  0.00000000000E+00 0.  1.
         23    2    1    2    0    0  0.98398063232E+03 -0.52216678996E+03  0.22966019014E+03  0.11409601077E+04  0.90388733573E+02 0.  0.
         13    1    3    3    0    0  0.26707927496E+03 -0.97372050122E+02  0.55022810611E+02  0.28955166196E+03  0.00000000000E+00 0. -1.
        -13    1    3    3    0    0  0.71690135736E+03 -0.42479473984E+03  0.17463737952E+03  0.85140844576E+03  0.00000000000E+00 0.  1.
         22    1    1    2    0    0 -0.98398063232E+03  0.52216678996E+03  0.39449656732E+03  0.11817375271E+04  0.00000000000E+00 0.  1.
<mgrwt>
<rscale>  0 0.22372645E+04</rscale>
<asrwt>0</asrwt>
<pdfrwt beam="1">  1        2 0.22668111E+00 0.22372645E+04</pdfrwt>
<pdfrwt beam="2">  1       -2 0.13065699E+00 0.22372645E+04</pdfrwt>
<totfact> 0.51356518E+00</totfact>
</mgrwt>
</event>
<event>
 6    1  0.1614874E-005  0.2932987E+04  0.7818608E-02  0.8263130E-01
         -2   -1    0    0    0  501 -0.00000000000E+00  0.00000000000E+00  0.98400458520E+03  0.98400458520E+03  0.00000000000E+00 0.  1.
          2   -1    0    0  501    0  0.00000000000E+00 -0.00000000000E+00 -0.21855619472E+04  0.21855619472E+04  0.00000000000E+00 0. -1.
         23    2    1    2    0    0 -0.59762245499E+03  0.40029748661E+03  0.77797440372E+03  0.10634001838E+04  0.90471551295E+02 0.  0.
         13    1    3    3    0    0 -0.16022334487E+03  0.12516554786E+03  0.16623562841E+03  0.26262562473E+03  0.00000000000E+00 0. -1.
        -13    1    3    3    0    0 -0.43739911012E+03  0.27513193875E+03  0.61173877531E+03  0.80077455908E+03  0.00000000000E+00 0.  1.
         22    1    1    2    0    0  0.59762245499E+03 -0.40029748661E+03 -0.19795317658E+04  0.21061663486E+04  0.00000000000E+00 0. -1.
<mgrwt>
<rscale>  0 0.29329869E+04</rscale>
<asrwt>0</asrwt>
<pdfrwt beam="1">  1        2 0.33624029E+00 0.29329869E+04</pdfrwt>
<pdfrwt beam="2">  1       -2 0.15138532E+00 0.29329869E+04</pdfrwt>
<totfact> 0.13240771E+00</totfact>
</mgrwt>
</event>
<event>
 6    1  0.1614874E-005  0.4781739E+04  0.7818608E-02  0.7863087E-01
         -2   -1    0    0    0  501 -0.00000000000E+00  0.00000000000E+00  0.25523991684E+04  0.25523991684E+04  0.00000000000E+00 0.  1.
          2   -1    0    0  501    0  0.00000000000E+00 -0.00000000000E+00 -0.22395624894E+04  0.22395624894E+04  0.00000000000E+00 0. -1.
         23    2    1    2    0    0 -0.18379685388E+04  0.17414481379E+03  0.16774794084E+04  0.24961601541E+04  0.91780081239E+02 0.  0.
         13    1    3    3    0    0 -0.13975495264E+04  0.16433689948E+03  0.13079382891E+04  0.19211595101E+04  0.00000000000E+00 0.  1.
        -13    1    3    3    0    0 -0.44041901239E+03  0.98079143063E+01  0.36954111938E+03  0.57500064398E+03  0.00000000000E+00 0. -1.
         22    1    1    2    0    0  0.18379685388E+04 -0.17414481379E+03 -0.13646427294E+04  0.22958015038E+04  0.00000000000E+00 0. -1.
<mgrwt>
<rscale>  0 0.47817392E+04</rscale>
<asrwt>0</asrwt>
<pdfrwt beam="1">  1        2 0.34454807E+00 0.47817392E+04</pdfrwt>
<pdfrwt beam="2">  1       -2 0.39267680E+00 0.47817392E+04</pdfrwt>
<totfact> 0.30118632E-02</totfact>
</mgrwt>
</event>
<event>
 6    1  0.1614874E-005  0.3881453E+04  0.7818608E-02  0.8028898E-01
         -2   -1    0    0    0  501 -0.00000000000E+00  0.00000000000E+00  0.25364354910E+04  0.25364354910E+04  0.00000000000E+00 0.  1.
          2   -1    0    0  501    0  0.00000000000E+00 -0.00000000000E+00 -0.14849258985E+04  0.14849258985E+04  0.00000000000E+00 0. -1.
         23    2    1    2    0    0 -0.11206038435E+04  0.52603027890E+03  0.20731106671E+04  0.24163288091E+04  0.91631038038E+02 0.  0.
         13    1    3    3    0    0 -0.43244661469E+03  0.20167846664E+03  0.88717308664E+03  0.10073531477E+04  0.00000000000E+00 0. -1.
        -13    1    3    3    0    0 -0.68815722882E+03  0.32435181226E+03  0.11859375804E+04  0.14089756614E+04  0.00000000000E+00 0.  1.
         22    1    1    2    0    0  0.11206038435E+04 -0.52603027890E+03 -0.10216010746E+04  0.16050325804E+04  0.00000000000E+00 0. -1.
<mgrwt>
<rscale>  0 0.38814527E+04</rscale>
<asrwt>0</asrwt>
<pdfrwt beam="1">  1        2 0.22845014E+00 0.38814527E+04</pdfrwt>
<pdfrwt beam="2">  1       -2 0.39022084E+00 0.38814527E+04</pdfrwt>
<totfact> 0.88587559E-02</totfact>
</mgrwt>
</event>
<event>
 6    1  0.1614874E-005  0.3506042E+03  0.7818608E-02  0.1062367E+00
          1   -1    0    0  501    0  0.00000000000E+00  0.00000000000E+00  0.10816345232E+04  0.10816345232E+04  0.00000000000E+00 0. -1.
         -1   -1    0    0    0  501 -0.00000000000E+00 -0.00000000000E+00 -0.28411466532E+02  0.28411466532E+02  0.00000000000E+00 0.  1.
         23    2    1    2    0    0 -0.14463350265E+03 -0.23899582907E+02  0.32455052668E+03  0.36677370039E+03  0.87748861962E+02 0.  0.
         11    1    3    3    0    0 -0.34276033296E+02  0.31362863836E+02  0.10701606970E+03  0.11666582559E+03  0.00000000000E+00 0. -1.
        -11    1    3    3    0    0 -0.11035746935E+03 -0.55262446742E+02  0.21753445698E+03  0.25010787479E+03  0.00000000000E+00 0.  1.
         22    1    1    2    0    0  0.14463350265E+03  0.23899582907E+02  0.72867253001E+03  0.74327228937E+03  0.00000000000E+00 0. -1.
<mgrwt>
<rscale>  0 0.35060418E+03</rscale>
<asrwt>0</asrwt>
<pdfrwt beam="1">  1        1 0.16640528E+00 0.35060418E+03</pdfrwt>
<pdfrwt beam="2">  1       -1 0.43709957E-02 0.35060418E+03</pdfrwt>
<totfact> 0.30036993E+03</totfact>
</mgrwt>
</event>
<event>
 6    1  0.1614874E-005  0.2261473E+04  0.7818608E-02  0.8493269E-01
          2   -1    0    0  501    0  0.00000000000E+00  0.00000000000E+00  0.13143037538E+04  0.13143037538E+04  0.00000000000E+00 0. -1.
         -2   -1    0    0    0  501 -0.00000000000E+00 -0.00000000000E+00 -0.97280794920E+03  0.97280794920E+03  0.00000000000E+00 0.  1.
         23    2    1    2    0    0  0.63831274158E+03 -0.69391933192E+03  0.79882411202E+03  0.12392012220E+04  0.92371594214E+02 0.  0.
         13    1    3    3    0    0  0.11773627317E+03 -0.13190732382E+03  0.19933349680E+03  0.26644927293E+03  0.00000000000E+00 0. -1.
        -13    1    3    3    0    0  0.52057646841E+03 -0.56201200810E+03  0.59949061522E+03  0.97275194908E+03  0.00000000000E+00 0.  1.
         22    1    1    2    0    0 -0.63831274158E+03  0.69391933192E+03 -0.45732830746E+03  0.10479104809E+04  0.00000000000E+00 0.  1.
<mgrwt>
<rscale>  0 0.22614731E+04</rscale>
<asrwt>0</asrwt>
<pdfrwt beam="1">  1        2 0.20220058E+00 0.22614731E+04</pdfrwt>
<pdfrwt beam="2">  1       -2 0.14966276E+00 0.22614731E+04</pdfrwt>
<totfact> 0.44460908E+00</totfact>
</mgrwt>
</event>
<event>
 6    1  0.1614874E-005  0.1136971E+04  0.7818608E-02  0.9169888E-01
         -2   -1    0    0    0  501 -0.00000000000E+00  0.00000000000E+00  0.18641130507E+03  0.18641130507E+03  0.00000000000E+00 0.  1.
          2   -1    0    0  501    0  0.00000000000E+00 -0.00000000000E+00 -0.17336695855E+04  0.17336695855E+04  0.00000000000E+00 0. -1.
         23    2    1    2    0    0 -0.26785076647E+03 -0.38734164212E+03 -0.13051830554E+04  0.13905735768E+04  0.91730493463E+02 0.  0.
         11    1    3    3    0    0 -0.18409571554E+03 -0.23566288180E+03 -0.70306133096E+03  0.76401797193E+03  0.00000000000E+00 0.  1.
        -11    1    3    3    0    0 -0.83755050925E+02 -0.15167876032E+03 -0.60212172446E+03  0.62655560484E+03  0.00000000000E+00 0. -1.
         22    1    1    2    0    0  0.26785076647E+03  0.38734164212E+03 -0.24207522503E+03  0.52950731382E+03  0.00000000000E+00 0.  1.
<mgrwt>
<rscale>  0 0.11369707E+04</rscale>
<asrwt>0</asrwt>
<pdfrwt beam="1">  1        2 0.26671839E+00 0.11369707E+04</pdfrwt>
<pdfrwt beam="2">  1       -2 0.28678663E-01 0.11369707E+04</pdfrwt>
<totfact> 0.10377253E+02</totfact>
</mgrwt>
</event>
<event>
 6    1  0.1614874E-005  0.1722775E+04  0.7818608E-02  0.8748481E-01
         -2   -1    0    0    0  501 -0.00000000000E+00  0.00000000000E+00  0.55734931628E+03  0.55734931628E+03  0.00000000000E+00 0. -1.
          2   -1    0    0  501    0  0.00000000000E+00 -0.00000000000E+00 -0.13312802853E+04  0.13312802853E+04  0.00000000000E+00 0.  1.
         23    2    1    2    0    0 -0.67644042673E+03 -0.16146706025E+03 -0.94087281437E+03  0.11734283417E+04  0.89717098571E+02 0.  0.
         13    1    3    3    0    0 -0.55988163660E+02 -0.14244230082E+02 -0.12674982915E+03  0.13929498106E+03  0.00000000000E+00 0.  1.
        -13    1    3    3    0    0 -0.62045226307E+03 -0.14722283017E+03 -0.81412298523E+03  0.10341333606E+04  0.00000000000E+00 0. -1.
         22    1    1    2    0    0  0.67644042673E+03  0.16146706025E+03  0.16694184534E+03  0.71520125991E+03  0.00000000000E+00 0.  1.
<mgrwt>
<rscale>  0 0.17227747E+04</rscale>
<asrwt>0</asrwt>
<pdfrwt beam="1">  1        2 0.20481235E+00 0.17227747E+04</pdfrwt>
<pdfrwt beam="2">  1       -2 0.85746050E-01 0.17227747E+04</pdfrwt>
<totfact> 0.17786685E+01</totfact>
</mgrwt>
</event>
<event>
 6    1  0.1614874E-005  0.5860660E+04  0.7818608E-02  0.7707922E-01
          2   -1    0    0  501    0  0.00000000000E+00  0.00000000000E+00  0.40071713285E+04  0.40071713285E+04  0.00000000000E+00 0. -1.
         -2   -1    0    0    0  501 -0.00000000000E+00 -0.00000000000E+00 -0.21428670156E+04  0.21428670156E+04  0.00000000000E+00 0.  1.
         23    2    1    2    0    0  0.22236432576E+04  0.20730541088E+03 -0.10573751348E+04  0.24725696948E+04  0.89408330927E+02 0.  0.
         11    1    3    3    0    0  0.14162536319E+04  0.10417908408E+03 -0.70838734824E+03  0.15869594407E+04  0.00000000000E+00 0. -1.
        -11    1    3    3    0    0  0.80738962571E+03  0.10312632680E+03 -0.34898778659E+03  0.88561025410E+03  0.00000000000E+00 0.  1.
         22    1    1    2    0    0 -0.22236432576E+04 -0.20730541088E+03  0.29216794478E+04  0.36774686492E+04  0.00000000000E+00 0. -1.
<mgrwt>
<rscale>  0 0.58606605E+04</rscale>
<asrwt>0</asrwt>
<pdfrwt beam="1">  1        2 0.61648790E+00 0.58606605E+04</pdfrwt>
<pdfrwt beam="2">  1       -2 0.32967185E+00 0.58606605E+04</pdfrwt>
<totfact> 0.47643646E-03</totfact>
</mgrwt>
</event>
<event>
 6    1  0.1614874E-005  0.3333803E+04  0.7818608E-02  0.8154347E-01
         -1   -1    0    0    0  501 -0.00000000000E+00  0.00000000000E+00  0.13429088965E+04  0.13429088965E+04  0.00000000000E+00 0.  1.
          1   -1    0    0  501    0  0.00000000000E+00 -0.00000000000E+00 -0.20690611135E+04  0.20690611135E+04  0.00000000000E+00 0. -1.
         23    2    1    2    0    0 -0.13082272036E+04  0.10215552971E+04 -0.22015941338E+03  0.16767287131E+04  0.88968358107E+02 0.  0.
         11    1    3    3    0    0 -0.10874168656E+03  0.56231017257E+02 -0.11158063471E+02  0.12292755622E+03  0.00000000000E+00 0. -1.
        -11    1    3    3    0    0 -0.11994855171E+04  0.96532427986E+03 -0.20900134991E+03  0.15538011569E+04  0.00000000000E+00 0.  1.
         22    1    1    2    0    0  0.13082272036E+04 -0.10215552971E+04 -0.50599280360E+03  0.17352412970E+04  0.00000000000E+00 0.  1.
<mgrwt>
<rscale>  0 0.33338030E+04</rscale>
<asrwt>0</asrwt>
<pdfrwt beam="1">  1        1 0.31831709E+00 0.33338030E+04</pdfrwt>
<pdfrwt beam="2">  1       -1 0.20660137E+00 0.33338030E+04</pdfrwt>
<totfact> 0.30006485E-01</totfact>
</mgrwt>
</event>
<event>
 6    1  0.1614874E-005  0.1689666E+04  0.7818608E-02  0.8767280E-01
          2   -1    0    0  501    0  0.00000000000E+00  0.00000000000E+00  0.10477295968E+04  0.10477295968E+04  0.00000000000E+00 0. -1.
         -2   -1    0    0    0  501 -0.00000000000E+00 -0.00000000000E+00 -0.68122820505E+03  0.68122820505E+03  0.00000000000E+00 0.  1.
         23    2    1    2    0    0  0.17038083023E+03  0.32295612475E+03 -0.59295107112E+03  0.70237155883E+03  0.91676322348E+02 0.  0.
         11    1    3    3    0    0  0.26064684820E+02  0.10722359830E+03 -0.24103726973E+03  0.26509476273E+03  0.00000000000E+00 0.  1.
        -11    1    3    3    0    0  0.14431614541E+03  0.21573252646E+03 -0.35191380139E+03  0.43727679610E+03  0.00000000000E+00 0. -1.
         22    1    1    2    0    0 -0.17038083023E+03 -0.32295612475E+03  0.95945246286E+03  0.10265862430E+04  0.00000000000E+00 0. -1.
<mgrwt>
<rscale>  0 0.16896662E+04</rscale>
<asrwt>0</asrwt>
<pdfrwt beam="1">  1        2 0.16118917E+00 0.16896662E+04</pdfrwt>
<pdfrwt beam="2">  1       -2 0.10480434E+00 0.16896662E+04</pdfrwt>
<totfact> 0.16517338E+01</totfact>
</mgrwt>
</event>
<event>
 6    1  0.1614874E-005  0.3553447E+04  0.7818608E-02  0.8101239E-01
          2   -1    0    0  501    0  0.00000000000E+00  0.00000000000E+00  0.27334703949E+04  0.27334703949E+04  0.00000000000E+00 0. -1.
         -2   -1    0    0    0  501 -0.00000000000E+00 -0.00000000000E+00 -0.11548492713E+04  0.11548492713E+04  0.00000000000E+00 0.  1.
         23    2    1    2    0    0  0.81470261957E+03 -0.14410541763E+04  0.14922765608E+04  0.22306608107E+04  0.92632721490E+02 0.  0.
         11    1    3    3    0    0  0.37577707842E+03 -0.74801578820E+03  0.78262177090E+03  0.11459637291E+04  0.00000000000E+00 0. -1.
        -11    1    3    3    0    0  0.43892554114E+03 -0.69303838812E+03  0.70965478991E+03  0.10846970816E+04  0.00000000000E+00 0.  1.
         22    1    1    2    0    0 -0.81470261957E+03  0.14410541763E+04  0.86344562768E+02  0.16576588554E+04  0.00000000000E+00 0.  1.
<mgrwt>
<rscale>  0 0.35534469E+04</rscale>
<asrwt>0</asrwt>
<pdfrwt beam="1">  1        2 0.42053391E+00 0.35534469E+04</pdfrwt>
<pdfrwt beam="2">  1       -2 0.17766912E+00 0.35534469E+04</pdfrwt>
<totfact> 0.39036310E-01</totfact>
</mgrwt>
</event>
<event>
 6    1  0.1614874E-005  0.2048332E+04  0.7818608E-02  0.8584351E-01
         -1   -1    0    0    0  501 -0.00000000000E+00  0.00000000000E+00  0.38823757084E+03  0.38823757084E+03  0.00000000000E+00 0.  1.
          1   -1    0    0  501    0  0.00000000000E+00 -0.00000000000E+00 -0.27017374042E+04  0.27017374042E+04  0.00000000000E+00 0. -1.
         23    2    1    2    0    0  0.84614160535E+03  0.42579166537E+03 -0.17386040998E+04  0.19819319871E+04  0.89755373745E+02 0.  0.
         11    1    3    3    0    0  0.73612639641E+03  0.33656582247E+03 -0.14584235086E+04  0.16679801422E+04  0.00000000000E+00 0.  1.
        -11    1    3    3    0    0  0.11001520893E+03  0.89225842906E+02 -0.28018059122E+03  0.31395184493E+03  0.00000000000E+00 0. -1.
         22    1    1    2    0    0 -0.84614160535E+03 -0.42579166537E+03 -0.57489573352E+03  0.11080429879E+04  0.00000000000E+00 0.  1.
<mgrwt>
<rscale>  0 0.20483320E+04</rscale>
<asrwt>0</asrwt>
<pdfrwt beam="1">  1        1 0.41565191E+00 0.20483320E+04</pdfrwt>
<pdfrwt beam="2">  1       -1 0.59728857E-01 0.20483320E+04</pdfrwt>
<totfact> 0.25711830E+00</totfact>
</mgrwt>
</event>
<event>
 6    1  0.1614874E-005  0.4087176E+04  0.7818608E-02  0.7987188E-01
          2   -1    0    0  501    0  0.00000000000E+00  0.00000000000E+00  0.48626956016E+04  0.48626956016E+04  0.00000000000E+00 0. -1.
         -2   -1    0    0    0  501 -0.00000000000E+00 -0.00000000000E+00 -0.85883472057E+03  0.85883472057E+03  0.00000000000E+00 0.  1.
         23    2    1    2    0    0 -0.84927685156E+03 -0.60154449954E+03  0.44632641255E+04  0.45839107475E+04  0.91564904981E+02 0.  0.
         13    1    3    3    0    0 -0.23604396469E+03 -0.17995371999E+03  0.14551758195E+04  0.14851386333E+04  0.00000000000E+00 0. -1.
        -13    1    3    3    0    0 -0.61323288688E+03 -0.42159077955E+03  0.30080883060E+04  0.30987721142E+04  0.00000000000E+00 0.  1.
         22    1    1    2    0    0  0.84927685156E+03  0.60154449954E+03 -0.45940324448E+03  0.11376195746E+04  0.00000000000E+00 0.  1.
<mgrwt>
<rscale>  0 0.40871760E+04</rscale>
<asrwt>0</asrwt>
<pdfrwt beam="1">  1        2 0.74810700E+00 0.40871760E+04</pdfrwt>
<pdfrwt beam="2">  1       -2 0.13212842E+00 0.40871760E+04</pdfrwt>
<totfact> 0.16281179E-02</totfact>
</mgrwt>
</event>
<event>
 6    1  0.1614874E-005  0.3613887E+04  0.7818608E-02  0.8087318E-01
          2   -1    0    0  501    0  0.00000000000E+00  0.00000000000E+00  0.14014547652E+04  0.14014547652E+04  0.00000000000E+00 0. -1.
         -2   -1    0    0    0  501 -0.00000000000E+00 -0.00000000000E+00 -0.23297543753E+04  0.23297543753E+04  0.00000000000E+00 0.  1.
         23    2    1    2    0    0 -0.19563499828E+03  0.15382346240E+04  0.49087970441E+03  0.16291842268E+04  0.94018878758E+02 0.  0.
         13    1    3    3    0    0 -0.17277272069E+03  0.12769528240E+04  0.44271676873E+03  0.13625186476E+04  0.00000000000E+00 0.  1.
        -13    1    3    3    0    0 -0.22862277595E+02  0.26128180001E+03  0.48162935684E+02  0.26666557919E+03  0.00000000000E+00 0. -1.
         22    1    1    2    0    0  0.19563499828E+03 -0.15382346240E+04 -0.14191793144E+04  0.21020249137E+04  0.00000000000E+00 0.  1.
<mgrwt>
<rscale>  0 0.36138873E+04</rscale>
<asrwt>0</asrwt>
<pdfrwt beam="1">  1        2 0.21560843E+00 0.36138873E+04</pdfrwt>
<pdfrwt beam="2">  1       -2 0.35842375E+00 0.36138873E+04</pdfrwt>
<totfact> 0.16172869E-01</totfact>
</mgrwt>
</event>
<event>
 6    1  0.1614874E-005  0.2434327E+04  0.7818608E-02  0.8426763E-01
         -1   -1    0    0    0  501 -0.00000000000E+00  0.00000000000E+00  0.47821253015E+03  0.47821253015E+03  0.00000000000E+00 0.  1.
          1   -1    0    0  501    0  0.00000000000E+00 -0.00000000000E+00 -0.30979680927E+04  0.30979680927E+04  0.00000000000E+00 0. -1.
         23    2    1    2    0    0  0.45471138807E+03  0.38720118874E+03 -0.28668226734E+04  0.29298607607E+04  0.93405724168E+02 0.  0.
         13    1    3    3    0    0  0.25615859503E+03  0.16956690598E+03 -0.13249342595E+04  0.13600812304E+04  0.00000000000E+00 0. -1.
        -13    1    3    3    0    0  0.19855279304E+03  0.21763428276E+03 -0.15418884139E+04  0.15697795302E+04  0.00000000000E+00 0.  1.
         22    1    1    2    0    0 -0.45471138807E+03 -0.38720118874E+03  0.24706711083E+03  0.64631986219E+03  0.00000000000E+00 0.  1.
<mgrwt>
<rscale>  0 0.24343271E+04</rscale>
<asrwt>0</asrwt>
<pdfrwt beam="1">  1        1 0.47661048E+00 0.24343271E+04</pdfrwt>
<pdfrwt beam="2">  1       -1 0.73571157E-01 0.24343271E+04</pdfrwt>
<totfact> 0.84239807E-01</totfact>
</mgrwt>
</event>
<event>
 6    1  0.1614874E-005  0.8617090E+03  0.7818608E-02  0.9474755E-01
          2   -1    0    0  501    0  0.00000000000E+00  0.00000000000E+00  0.11069813128E+04  0.11069813128E+04  0.00000000000E+00 0. -1.
         -2   -1    0    0    0  501 -0.00000000000E+00 -0.00000000000E+00 -0.16769531426E+03  0.16769531426E+03  0.00000000000E+00 0.  1.
         23    2    1    2    0    0 -0.39324057824E+03  0.14625333411E+03  0.36625350390E+03  0.56446931224E+03  0.91955343670E+02 0.  0.
         13    1    3    3    0    0 -0.52755155230E+02  0.55699804107E+02  0.55550423365E+02  0.94717601938E+02  0.00000000000E+00 0. -1.
        -13    1    3    3    0    0 -0.34048542301E+03  0.90553530005E+02  0.31070308053E+03  0.46975171030E+03  0.00000000000E+00 0.  1.
         22    1    1    2    0    0  0.39324057824E+03 -0.14625333411E+03  0.57303249464E+03  0.71020731482E+03  0.00000000000E+00 0. -1.
<mgrwt>
<rscale>  0 0.86170895E+03</rscale>
<asrwt>0</asrwt>
<pdfrwt beam="1">  1        2 0.17030481E+00 0.86170895E+03</pdfrwt>
<pdfrwt beam="2">  1       -2 0.25799280E-01 0.86170895E+03</pdfrwt>
<totfact> 0.29289463E+02</totfact>
</mgrwt>
</event>
<event>
 6    1  0.1614874E-005  0.1374406E+04  0.7818608E-02  0.8972556E-01
         -2   -1    0    0    0  501 -0.00000000000E+00  0.00000000000E+00  0.89694363202E+03  0.89694363202E+03  0.00000000000E+00 0.  1.
          2   -1    0    0  501    0  0.00000000000E+00 -0.00000000000E+00 -0.52650806716E+03  0.52650806716E+03  0.00000000000E+00 0. -1.
         23    2    1    2    0    0  0.23963597753E+03 -0.59517949078E+03  0.43163378164E+03  0.77892920174E+03  0.93589272355E+02 0.  0.
         11    1    3    3    0    0  0.13861216407E+03 -0.45461254591E+03  0.31354369549E+03  0.56938172425E+03  0.00000000000E+00 0.  1.
        -11    1    3    3    0    0  0.10102381346E+03 -0.14056694487E+03  0.11809008614E+03  0.20954747749E+03  0.00000000000E+00 0. -1.
         22    1    1    2    0    0 -0.23963597753E+03  0.59517949078E+03 -0.61198216771E+02  0.64452249744E+03  0.00000000000E+00 0. -1.
<mgrwt>
<rscale>  0 0.13744061E+04</rscale>
<asrwt>0</asrwt>
<pdfrwt beam="1">  1        2 0.81001241E-01 0.13744061E+04</pdfrwt>
<pdfrwt beam="2">  1       -2 0.13799133E+00 0.13744061E+04</pdfrwt>
<totfact> 0.21062515E+01</totfact>
</mgrwt>
</event>
<event>
 6    1  0.1614874E-005  0.1220135E+04  0.7818608E-02  0.9095413E-01
          1   -1    0    0  501    0  0.00000000000E+00  0.00000000000E+00  0.99788108351E+03  0.99788108351E+03  0.00000000000E+00 0. -1.
         -1   -1    0    0    0  501 -0.00000000000E+00 -0.00000000000E+00 -0.37297236985E+03  0.37297236985E+03  0.00000000000E+00 0.  1.
         23    2    1    2    0    0 -0.37393326157E+03  0.19175154322E+03 -0.17711179916E+03  0.46540790480E+03  0.92958001313E+02 0.  0.
         13    1    3    3    0    0 -0.73559090505E+02  0.64723567398E+02 -0.75883297251E+02  0.12392882947E+03  0.00000000000E+00 0. -1.
        -13    1    3    3    0    0 -0.30037417107E+03  0.12702797582E+03 -0.10122850191E+03  0.34147907533E+03  0.00000000000E+00 0.  1.
         22    1    1    2    0    0  0.37393326157E+03 -0.19175154322E+03  0.80202051282E+03  0.90544554856E+03  0.00000000000E+00 0. -1.
<mgrwt>
<rscale>  0 0.12201345E+04</rscale>
<asrwt>0</asrwt>
<pdfrwt beam="1">  1        1 0.15352017E+00 0.12201345E+04</pdfrwt>
<pdfrwt beam="2">  1       -1 0.57380365E-01 0.12201345E+04</pdfrwt>
<totfact> 0.46168968E+01</totfact>
</mgrwt>
</event>
<event>
 6    1  0.1614874E-005  0.3501357E+04  0.7818608E-02  0.8113468E-01
          1   -1    0    0  501    0  0.00000000000E+00  0.00000000000E+00  0.26587775456E+04  0.26587775456E+04  0.00000000000E+00 0. -1.
         -1   -1    0    0    0  501 -0.00000000000E+00 -0.00000000000E+00 -0.11527386391E+04  0.11527386391E+04  0.00000000000E+00 0.  1.
         23    2    1    2    0    0  0.99204372341E+03  0.13900758035E+04  0.11665951701E+04  0.20703431493E+04  0.94419152019E+02 0.  0.
         13    1    3    3    0    0  0.55609800024E+03  0.84703585808E+03  0.72097483887E+03  0.12435913513E+04  0.00000000000E+00 0. -1.
        -13    1    3    3    0    0  0.43594572317E+03  0.54303994545E+03  0.44562033125E+03  0.82675179802E+03  0.00000000000E+00 0.  1.
         22    1    1    2    0    0 -0.99204372341E+03 -0.13900758035E+04  0.33944373640E+03  0.17411730353E+04  0.00000000000E+00 0. -1.
<mgrwt>
<rscale>  0 0.35013572E+04</rscale>
<asrwt>0</asrwt>
<pdfrwt beam="1">  1        1 0.40904270E+00 0.35013572E+04</pdfrwt>
<pdfrwt beam="2">  1       -1 0.17734441E+00 0.35013572E+04</pdfrwt>
<totfact> 0.18610855E-01</totfact>
</mgrwt>
</event>
<event>
 6    1  0.1614874E-005  0.1568560E+04  0.7818608E-02  0.8840099E-01
         -2   -1    0    0    0  501 -0.00000000000E+00  0.00000000000E+00  0.26353736032E+03  0.26353736032E+03  0.00000000000E+00 0.  1.
          2   -1    0    0  501    0  0.00000000000E+00 -0.00000000000E+00 -0.23339968141E+04  0.23339968141E+04  0.00000000000E+00 0. -1.
         23    2    1    2    0    0 -0.67063477433E+03 -0.14929171833E+03 -0.16562723214E+04  0.17952935631E+04  0.88328690627E+02 0.  0.
         13    1    3    3    0    0 -0.35484932076E+03 -0.12326124289E+03 -0.87685062295E+03  0.95392787433E+03  0.00000000000E+00 0. -1.
        -13    1    3    3    0    0 -0.31578545357E+03 -0.26030475435E+02 -0.77942169842E+03  0.84136568881E+03  0.00000000000E+00 0.  1.
         22    1    1    2    0    0  0.67063477433E+03  0.14929171833E+03 -0.41418713235E+03  0.80224061123E+03  0.00000000000E+00 0.  1.
<mgrwt>
<rscale>  0 0.15685603E+04</rscale>
<asrwt>0</asrwt>
<pdfrwt beam="1">  1        2 0.35907643E+00 0.15685603E+04</pdfrwt>
<pdfrwt beam="2">  1       -2 0.40544210E-01 0.15685603E+04</pdfrwt>
<totfact> 0.24040185E+01</totfact>
</mgrwt>
</event>
<event>
 6    1  0.1614874E-005  0.2014842E+04  0.7818608E-02  0.8599713E-01
          1   -1    0    0  501    0  0.00000000000E+00  0.00000000000E+00  0.99828274092E+03  0.99828274092E+03  0.00000000000E+00 0. -1.
         -1   -1    0    0    0  501 -0.00000000000E+00 -0.00000000000E+00 -0.10166432103E+04  0.10166432103E+04  0.00000000000E+00 0.  1.
         23    2    1    2    0    0 -0.92171595904E+03 -0.40146175571E+03 -0.23749039194E+02  0.10095599049E+04  0.88968164472E+02 0.  0.
         13    1    3    3    0    0 -0.25257850338E+03 -0.72216160095E+02 -0.24143997121E+02  0.26380676024E+03  0.00000000000E+00 0. -1.
        -13    1    3    3    0    0 -0.66913745565E+03 -0.32924559561E+03  0.39495792665E+00  0.74575314467E+03  0.00000000000E+00 0.  1.
         22    1    1    2    0    0  0.92171595904E+03  0.40146175571E+03  0.53885698003E+01  0.10053660463E+04  0.00000000000E+00 0.  1.
<mgrwt>
<rscale>  0 0.20148423E+04</rscale>
<asrwt>0</asrwt>
<pdfrwt beam="1">  1        1 0.15358196E+00 0.20148423E+04</pdfrwt>
<pdfrwt beam="2">  1       -1 0.15640665E+00 0.20148423E+04</pdfrwt>
<totfact> 0.43774248E+00</totfact>
</mgrwt>
</event>
<event>
 6    1  0.1614874E-005  0.1725152E+04  0.7818608E-02  0.8747148E-01
         -2   -1    0    0    0  501 -0.00000000000E+00  0.00000000000E+00  0.21962529899E+03  0.21962529899E+03  0.00000000000E+00 0. -1.
          2   -1    0    0  501    0  0.00000000000E+00 -0.00000000000E+00 -0.33877575862E+04  0.33877575862E+04  0.00000000000E+00 0.  1.
         23    2    1    2    0    0  0.18665409526E+03 -0.71616888720E+03 -0.67211983248E+03  0.10039590241E+04  0.91929465345E+02 0.  0.
         11    1    3    3    0    0  0.91632197850E+02 -0.37690741297E+03 -0.41317348831E+03  0.56671685089E+03  0.00000000000E+00 0.  1.
        -11    1    3    3    0    0  0.95021897413E+02 -0.33926147422E+03 -0.25894634417E+03  0.43724217322E+03  0.00000000000E+00 0. -1.
         22    1    1    2    0    0 -0.18665409526E+03  0.71616888720E+03 -0.24960124548E+04  0.26034238611E+04  0.00000000000E+00 0.  1.
<mgrwt>
<rscale>  0 0.17251519E+04</rscale>
<asrwt>0</asrwt>
<pdfrwt beam="1">  1        2 0.52119344E+00 0.17251519E+04</pdfrwt>
<pdfrwt beam="2">  1       -2 0.33788510E-01 0.17251519E+04</pdfrwt>
<totfact> 0.76256683E+00</totfact>
</mgrwt>
</event>
<event>
 6    1  0.1614874E-005  0.1609342E+04  0.7818608E-02  0.8814829E-01
          2   -1    0    0  501    0  0.00000000000E+00  0.00000000000E+00  0.10086517638E+04  0.10086517638E+04  0.00000000000E+00 0. -1.
         -2   -1    0    0    0  501 -0.00000000000E+00 -0.00000000000E+00 -0.64194164800E+03  0.64194164800E+03  0.00000000000E+00 0.  1.
         23    2    1    2    0    0  0.22677491792E+03  0.22854088540E+03 -0.56956602378E+03  0.66050714826E+03  0.90589391018E+02 0.  0.
         13    1    3    3    0    0  0.40757947863E+01  0.16803382571E+02 -0.84845004672E+02  0.86588917229E+02  0.00000000000E+00 0.  1.
        -13    1    3    3    0    0  0.22269912314E+03  0.21173750283E+03 -0.48472101911E+03  0.57391823103E+03  0.00000000000E+00 0. -1.
         22    1    1    2    0    0 -0.22677491792E+03 -0.22854088540E+03  0.93627613962E+03  0.99008626358E+03  0.00000000000E+00 0. -1.
<mgrwt>
<rscale>  0 0.16093422E+04</rscale>
<asrwt>0</asrwt>
<pdfrwt beam="1">  1        2 0.15517719E+00 0.16093422E+04</pdfrwt>
<pdfrwt beam="2">  1       -2 0.98760254E-01 0.16093422E+04</pdfrwt>
<totfact> 0.20277172E+01</totfact>
</mgrwt>
</event>
<event>
 6    1  0.1614874E-005  0.1065491E+04  0.7818608E-02  0.9239495E-01
          4   -1    0    0  501    0  0.00000000000E+00  0.00000000000E+00  0.90297808570E+03  0.90297808570E+03  0.00000000000E+00 0. -1.
         -4   -1    0    0    0  501 -0.00000000000E+00 -0.00000000000E+00 -0.31431281757E+03  0.31431281757E+03  0.00000000000E+00 0.  1.
         23    2    1    2    0    0 -0.19325547502E+03 -0.45017546756E+03  0.52211156225E+03  0.72288719578E+03  0.99798718250E+02 0.  0.
         13    1    3    3    0    0 -0.11387581542E+03 -0.28655110971E+03  0.25707776053E+03  0.40145761267E+03  0.00000000000E+00 0. -1.
        -13    1    3    3    0    0 -0.79379659598E+02 -0.16362435785E+03  0.26503380172E+03  0.32142958310E+03  0.00000000000E+00 0.  1.
         22    1    1    2    0    0  0.19325547502E+03  0.45017546756E+03  0.66553705873E+02  0.49440370749E+03  0.00000000000E+00 0.  1.
<mgrwt>
<rscale>  0 0.10654907E+04</rscale>
<asrwt>0</asrwt>
<pdfrwt beam="1">  1        4 0.13891970E+00 0.10654907E+04</pdfrwt>
<pdfrwt beam="2">  1       -4 0.48355818E-01 0.10654907E+04</pdfrwt>
<totfact> 0.29876922E+00</totfact>
</mgrwt>
</event>
<event>
 6    1  0.1614874E-005  0.4639822E+04  0.7818608E-02  0.7886605E-01
          2   -1    0    0  501    0  0.00000000000E+00  0.00000000000E+00  0.36484268290E+04  0.36484268290E+04  0.00000000000E+00 0. -1.
         -2   -1    0    0    0  501 -0.00000000000E+00 -0.00000000000E+00 -0.14751530999E+04  0.14751530999E+04  0.00000000000E+00 0.  1.
         23    2    1    2    0    0 -0.55069823783E+03  0.22523475852E+04  0.11349881468E+04  0.25830336994E+04  0.86757161616E+02 0.  0.
         11    1    3    3    0    0 -0.29032308553E+02  0.17101994291E+03  0.10670855515E+03  0.20366003917E+03  0.00000000000E+00 0. -1.
        -11    1    3    3    0    0 -0.52166592928E+03  0.20813276423E+04  0.10282795916E+04  0.23793736602E+04  0.00000000000E+00 0.  1.
         22    1    1    2    0    0  0.55069823783E+03 -0.22523475852E+04  0.10382855823E+04  0.25405462295E+04  0.00000000000E+00 0. -1.
<mgrwt>
<rscale>  0 0.46398225E+04</rscale>
<asrwt>0</asrwt>
<pdfrwt beam="1">  1        2 0.56129643E+00 0.46398225E+04</pdfrwt>
<pdfrwt beam="2">  1       -2 0.22694663E+00 0.46398225E+04</pdfrwt>
<totfact> 0.42524908E-02</totfact>
</mgrwt>
</event>
<event>
 6    1  0.1614874E-005  0.2235755E+04  0.7818608E-02  0.8503692E-01
          1   -1    0    0  501    0  0.00000000000E+00  0.00000000000E+00  0.22401668422E+04  0.22401668422E+04  0.00000000000E+00 0. -1.
         -1   -1    0    0    0  501 -0.00000000000E+00 -0.00000000000E+00 -0.55783809632E+03  0.55783809632E+03  0.00000000000E+00 0.  1.
         23    2    1    2    0    0  0.71530662685E+02  0.10748327784E+04  0.47739286685E+03  0.11817584815E+04  0.90923165473E+02 0.  0.
         13    1    3    3    0    0  0.37696188947E+02  0.45246227577E+03  0.24983399944E+03  0.51822788513E+03  0.00000000000E+00 0.  1.
        -13    1    3    3    0    0  0.33834473738E+02  0.62237050265E+03  0.22755886741E+03  0.66353059637E+03  0.00000000000E+00 0. -1.
         22    1    1    2    0    0 -0.71530662685E+02 -0.10748327784E+04  0.12049358790E+04  0.16162464570E+04  0.00000000000E+00 0.  1.
<mgrwt>
<rscale>  0 0.22357553E+04</rscale>
<asrwt>0</asrwt>
<pdfrwt beam="1">  1        1 0.34464105E+00 0.22357553E+04</pdfrwt>
<pdfrwt beam="2">  1       -1 0.85821247E-01 0.22357553E+04</pdfrwt>
<totfact> 0.24918754E+00</totfact>
</mgrwt>
</event>
<event>
 6    1  0.1614874E-005  0.2014398E+04  0.7818608E-02  0.8599919E-01
         -2   -1    0    0    0  501 -0.00000000000E+00  0.00000000000E+00  0.66940551295E+03  0.66940551295E+03  0.00000000000E+00 0.  1.
          2   -1    0    0  501    0  0.00000000000E+00 -0.00000000000E+00 -0.15154482790E+04  0.15154482790E+04  0.00000000000E+00 0. -1.
         23    2    1    2    0    0  0.71386032425E+01 -0.80845806918E+03  0.22367163775E+03  0.84397933288E+03  0.92826200544E+02 0.  0.
         13    1    3    3    0    0 -0.24312826091E+02 -0.20895233956E+03  0.26105832296E+02  0.21197572549E+03  0.00000000000E+00 0. -1.
        -13    1    3    3    0    0  0.31451429333E+02 -0.59950572963E+03  0.19756580545E+03  0.63200360739E+03  0.00000000000E+00 0.  1.
         22    1    1    2    0    0 -0.71386032425E+01  0.80845806918E+03 -0.10697144038E+04  0.13408744591E+04  0.00000000000E+00 0. -1.
<mgrwt>
<rscale>  0 0.20143976E+04</rscale>
<asrwt>0</asrwt>
<pdfrwt beam="1">  1        2 0.23314588E+00 0.20143976E+04</pdfrwt>
<pdfrwt beam="2">  1       -2 0.10298547E+00 0.20143976E+04</pdfrwt>
<totfact> 0.88913539E+00</totfact>
</mgrwt>
</event>
<event>
 6    1  0.1614874E-005  0.3082950E+04  0.7818608E-02  0.8220433E-01
         -1   -1    0    0    0  501 -0.00000000000E+00  0.00000000000E+00  0.32083713956E+04  0.32083713956E+04  0.00000000000E+00 0.  1.
          1   -1    0    0  501    0  0.00000000000E+00 -0.00000000000E+00 -0.74060792827E+03  0.74060792827E+03  0.00000000000E+00 0. -1.
         23    2    1    2    0    0 -0.61571280774E+03 -0.82982529063E+02  0.30400744917E+04  0.31042732979E+04  0.92040376500E+02 0.  0.
         11    1    3    3    0    0 -0.15116046915E+03 -0.31240040106E+02  0.58010721091E+03  0.60029143229E+03  0.00000000000E+00 0. -1.
        -11    1    3    3    0    0 -0.46455233859E+03 -0.51742488957E+02  0.24599672808E+04  0.25039818656E+04  0.00000000000E+00 0.  1.
         22    1    1    2    0    0  0.61571280774E+03  0.82982529063E+02 -0.57231102438E+03  0.84470602601E+03  0.00000000000E+00 0. -1.
<mgrwt>
<rscale>  0 0.30829501E+04</rscale>
<asrwt>0</asrwt>
<pdfrwt beam="1">  1        1 0.11393968E+00 0.30829501E+04</pdfrwt>
<pdfrwt beam="2">  1       -1 0.49359559E+00 0.30829501E+04</pdfrwt>
<totfact> 0.34547924E-02</totfact>
</mgrwt>
</event>
<event>
 6    1  0.1614874E-005  0.4233640E+04  0.7818608E-02  0.7959004E-01
          2   -1    0    0  501    0  0.00000000000E+00  0.00000000000E+00  0.26979053497E+04  0.26979053497E+04  0.00000000000E+00 0.  1.
         -2   -1    0    0    0  501 -0.00000000000E+00 -0.00000000000E+00 -0.16608909064E+04  0.16608909064E+04  0.00000000000E+00 0. -1.
         23    2    1    2    0    0  0.78724258890E+03  0.15639921016E+04 -0.70423916250E+03  0.18894266387E+04  0.90321853822E+02 0.  0.
         11    1    3    3    0    0  0.14004406849E+03  0.26688754086E+03 -0.85453040681E+02  0.31327866628E+03  0.00000000000E+00 0. -1.
        -11    1    3    3    0    0  0.64719852041E+03  0.12971045607E+04 -0.61878612182E+03  0.15761479724E+04  0.00000000000E+00 0.  1.
         22    1    1    2    0    0 -0.78724258890E+03 -0.15639921016E+04  0.17412536059E+04  0.24693696175E+04  0.00000000000E+00 0. -1.
<mgrwt>
<rscale>  0 0.42336398E+04</rscale>
<asrwt>0</asrwt>
<pdfrwt beam="1">  1        2 0.41506236E+00 0.42336398E+04</pdfrwt>
<pdfrwt beam="2">  1       -2 0.25552168E+00 0.42336398E+04</pdfrwt>
<totfact> 0.12251620E-01</totfact>
</mgrwt>
</event>
<event>
 6    1  0.1614874E-005  0.6055993E+03  0.7818608E-02  0.9893857E-01
          1   -1    0    0  501    0  0.00000000000E+00  0.00000000000E+00  0.19989666614E+04  0.19989666614E+04  0.00000000000E+00 0. -1.
         -1   -1    0    0    0  501 -0.00000000000E+00 -0.00000000000E+00 -0.45867518916E+02  0.45867518916E+02  0.00000000000E+00 0.  1.
         23    2    1    2    0    0 -0.11569866805E+03 -0.49509762761E+02  0.19030441465E+04  0.19093982138E+04  0.91581204329E+02 0.  0.
         13    1    3    3    0    0 -0.47290482506E+02 -0.66928321869E+02  0.83045153046E+03  0.83448519127E+03  0.00000000000E+00 0.  1.
        -13    1    3    3    0    0 -0.68408185545E+02  0.17418559108E+02  0.10725926160E+04  0.10749130225E+04  0.00000000000E+00 0. -1.
         22    1    1    2    0    0  0.11569866805E+03  0.49509762761E+02  0.50054995970E+02  0.13543596649E+03  0.00000000000E+00 0.  1.
<mgrwt>
<rscale>  0 0.60559934E+03</rscale>
<asrwt>0</asrwt>
<pdfrwt beam="1">  1        1 0.30753327E+00 0.60559934E+03</pdfrwt>
<pdfrwt beam="2">  1       -1 0.70565429E-02 0.60559934E+03</pdfrwt>
<totfact> 0.33888112E+02</totfact>
</mgrwt>
</event>
<event>
 6    1  0.1614874E-005  0.8095157E+03  0.7818608E-02  0.9546345E-01
         -1   -1    0    0    0  501 -0.00000000000E+00  0.00000000000E+00  0.11818810386E+03  0.11818810386E+03  0.00000000000E+00 0.  1.
          1   -1    0    0  501    0  0.00000000000E+00 -0.00000000000E+00 -0.13861708547E+04  0.13861708547E+04  0.00000000000E+00 0. -1.
         23    2    1    2    0    0  0.22327374388E+02  0.16727882715E+03 -0.13152152812E+04  0.13291116203E+04  0.90916145744E+02 0.  0.
         11    1    3    3    0    0  0.53296040121E+01  0.16870378897E+03 -0.10626873679E+04  0.10760082783E+04  0.00000000000E+00 0. -1.
        -11    1    3    3    0    0  0.16997770376E+02 -0.14249618112E+01 -0.25252791336E+03  0.25310334201E+03  0.00000000000E+00 0.  1.
         22    1    1    2    0    0 -0.22327374388E+02 -0.16727882715E+03  0.47232530344E+02  0.17524733831E+03  0.00000000000E+00 0.  1.
<mgrwt>
<rscale>  0 0.80951567E+03</rscale>
<asrwt>0</asrwt>
<pdfrwt beam="1">  1        1 0.21325705E+00 0.80951567E+03</pdfrwt>
<pdfrwt beam="2">  1       -1 0.18182785E-01 0.80951567E+03</pdfrwt>
<totfact> 0.19078784E+02</totfact>
</mgrwt>
</event>
<event>
 6    1  0.1614874E-005  0.3320101E+04  0.7818608E-02  0.8157800E-01
         -2   -1    0    0    0  501 -0.00000000000E+00  0.00000000000E+00  0.12321511232E+04  0.12321511232E+04  0.00000000000E+00 0.  1.
          2   -1    0    0  501    0  0.00000000000E+00 -0.00000000000E+00 -0.22365497543E+04  0.22365497543E+04  0.00000000000E+00 0. -1.
         23    2    1    2    0    0  0.15932304382E+04 -0.32107265587E+03 -0.84791259601E+03  0.18359244818E+04  0.10095569722E+03 0.  0.
         11    1    3    3    0    0  0.10231148980E+04 -0.25098109480E+03 -0.52613974690E+03  0.11775307375E+04  0.00000000000E+00 0. -1.
        -11    1    3    3    0    0  0.57011554014E+03 -0.70091561067E+02 -0.32177284911E+03  0.65839374424E+03  0.00000000000E+00 0.  1.
         22    1    1    2    0    0 -0.15932304382E+04  0.32107265587E+03 -0.15648603509E+03  0.16327763958E+04  0.00000000000E+00 0. -1.
<mgrwt>
<rscale>  0 0.33201008E+04</rscale>
<asrwt>0</asrwt>
<pdfrwt beam="1">  1        2 0.34408457E+00 0.33201008E+04</pdfrwt>
<pdfrwt beam="2">  1       -2 0.18956171E+00 0.33201008E+04</pdfrwt>
<totfact> 0.64080908E-01</totfact>
</mgrwt>
</event>
<event>
 6    1  0.1614874E-005  0.8177182E+03  0.7818608E-02  0.9534719E-01
          2   -1    0    0  501    0  0.00000000000E+00  0.00000000000E+00  0.14148056944E+04  0.14148056944E+04  0.00000000000E+00 0. -1.
         -2   -1    0    0    0  501 -0.00000000000E+00 -0.00000000000E+00 -0.11815456353E+03  0.11815456353E+03  0.00000000000E+00 0.  1.
         23    2    1    2    0    0  0.12165601527E+02  0.25743354426E+03  0.12391304300E+04  0.12688984042E+04  0.90768419962E+02 0.  0.
         11    1    3    3    0    0  0.31726165571E+02  0.73898734562E+02  0.24754273897E+03  0.26027865868E+03  0.00000000000E+00 0.  1.
        -11    1    3    3    0    0 -0.19560564044E+02  0.18353480970E+03  0.99158769107E+03  0.10086197455E+04  0.00000000000E+00 0. -1.
         22    1    1    2    0    0 -0.12165601527E+02 -0.25743354426E+03  0.57520700876E+02  0.26406185374E+03  0.00000000000E+00 0.  1.
<mgrwt>
<rscale>  0 0.81771816E+03</rscale>
<asrwt>0</asrwt>
<pdfrwt beam="1">  1        2 0.21766240E+00 0.81771816E+03</pdfrwt>
<pdfrwt beam="2">  1       -2 0.18177626E-01 0.81771816E+03</pdfrwt>
<totfact> 0.36047239E+02</totfact>
</mgrwt>
</event>
<event>
 6    1  0.1614874E-005  0.2828933E+04  0.7818608E-02  0.8294342E-01
         -2   -1    0    0    0  501 -0.00000000000E+00  0.00000000000E+00  0.16925680810E+04  0.16925680810E+04  0.00000000000E+00 0.  1.
          2   -1    0    0  501    0  0.00000000000E+00 -0.00000000000E+00 -0.11820587962E+04  0.11820587962E+04  0.00000000000E+00 0. -1.
         23    2    1    2    0    0  0.26089511299E+03  0.78468048287E+03 -0.90875159041E+03  0.12320401513E+04  0.91124975637E+02 0.  0.
         11    1    3    3    0    0  0.31950465738E+02  0.22148336248E+03 -0.25635584068E+03  0.34028521738E+03  0.00000000000E+00 0.  1.
        -11    1    3    3    0    0  0.22894464725E+03  0.56319712038E+03 -0.65239574972E+03  0.89175493392E+03  0.00000000000E+00 0. -1.
         22    1    1    2    0    0 -0.26089511299E+03 -0.78468048287E+03  0.14192608752E+04  0.16425867259E+04  0.00000000000E+00 0.  1.
<mgrwt>
<rscale>  0 0.28289327E+04</rscale>
<asrwt>0</asrwt>
<pdfrwt beam="1">  1        2 0.18185520E+00 0.28289327E+04</pdfrwt>
<pdfrwt beam="2">  1       -2 0.26039509E+00 0.28289327E+04</pdfrwt>
<totfact> 0.93515926E-01</totfact>
</mgrwt>
</event>
<event>
 6    1  0.1614874E-005  0.1406850E+04  0.7818608E-02  0.8948875E-01
         -2   -1    0    0    0  501 -0.00000000000E+00  0.00000000000E+00  0.31899752216E+03  0.31899752216E+03  0.00000000000E+00 0. -1.
          2   -1    0    0  501    0  0.00000000000E+00 -0.00000000000E+00 -0.15511299772E+04  0.15511299772E+04  0.00000000000E+00 0.  1.
         23    2    1    2    0    0  0.45379124497E+03 -0.34654512540E+03 -0.79114033556E+02  0.58347622641E+03  0.90362926756E+02 0.  0.
         11    1    3    3    0    0  0.27797158030E+03 -0.17044260741E+03 -0.14549603488E+02  0.32639021560E+03  0.00000000000E+00 0.  1.
        -11    1    3    3    0    0  0.17581966467E+03 -0.17610251799E+03 -0.64564430068E+02  0.25708601081E+03  0.00000000000E+00 0. -1.
         22    1    1    2    0    0 -0.45379124497E+03  0.34654512540E+03 -0.11530184215E+04  0.12866512730E+04  0.00000000000E+00 0.  1.
<mgrwt>
<rscale>  0 0.14068498E+04</rscale>
<asrwt>0</asrwt>
<pdfrwt beam="1">  1        2 0.23863538E+00 0.14068498E+04</pdfrwt>
<pdfrwt beam="2">  1       -2 0.49076543E-01 0.14068498E+04</pdfrwt>
<totfact> 0.45415224E+01</totfact>
</mgrwt>
</event>
<event>
 6    1  0.1614874E-005  0.1514836E+04  0.7818608E-02  0.8874647E-01
          3   -1    0    0  501    0  0.00000000000E+00  0.00000000000E+00  0.31892102105E+03  0.31892102105E+03  0.00000000000E+00 0. -1.
         -3   -1    0    0    0  501 -0.00000000000E+00 -0.00000000000E+00 -0.17988213307E+04  0.17988213307E+04  0.00000000000E+00 0.  1.
         23    2    1    2    0    0 -0.36611467055E+03 -0.47588975800E+03 -0.10357431093E+03  0.61614844243E+03  0.91652885712E+02 0.  0.
         11    1    3    3    0    0 -0.22606263773E+03 -0.33165530663E+03 -0.31613926412E+02  0.40261519958E+03  0.00000000000E+00 0.  1.
        -11    1    3    3    0    0 -0.14005203282E+03 -0.14423445137E+03 -0.71960384515E+02  0.21353324284E+03  0.00000000000E+00 0. -1.
         22    1    1    2    0    0  0.36611467055E+03  0.47588975800E+03 -0.13763259987E+04  0.15015939093E+04  0.00000000000E+00 0.  1.
<mgrwt>
<rscale>  0 0.15148359E+04</rscale>
<asrwt>0</asrwt>
<pdfrwt beam="1">  1        3 0.49064772E-01 0.15148359E+04</pdfrwt>
<pdfrwt beam="2">  1       -3 0.27674174E+00 0.15148359E+04</pdfrwt>
<totfact> 0.53726499E-01</totfact>
</mgrwt>
</event>
<event>
 6    1  0.1614874E-005  0.3742870E+04  0.7818608E-02  0.8058527E-01
         -1   -1    0    0    0  501 -0.00000000000E+00  0.00000000000E+00  0.10882666528E+04  0.10882666528E+04  0.00000000000E+00 0.  1.
          1   -1    0    0  501    0  0.00000000000E+00 -0.00000000000E+00 -0.32182081609E+04  0.32182081609E+04  0.00000000000E+00 0. -1.
         23    2    1    2    0    0 -0.11001048823E+04  0.13977717470E+04 -0.17307551412E+04  0.24834700511E+04  0.90075120648E+02 0.  0.
         13    1    3    3    0    0 -0.66860067329E+03  0.91807196619E+03 -0.11158652269E+04  0.15921803290E+04  0.00000000000E+00 0.  1.
        -13    1    3    3    0    0 -0.43150420899E+03  0.47969978079E+03 -0.61488991433E+03  0.89128972215E+03  0.00000000000E+00 0. -1.
         22    1    1    2    0    0  0.11001048823E+04 -0.13977717470E+04 -0.39918636695E+03  0.18230047625E+04  0.00000000000E+00 0.  1.
<mgrwt>
<rscale>  0 0.37428698E+04</rscale>
<asrwt>0</asrwt>
<pdfrwt beam="1">  1        1 0.49510893E+00 0.37428698E+04</pdfrwt>
<pdfrwt beam="2">  1       -1 0.16742564E+00 0.37428698E+04</pdfrwt>
<totfact> 0.84566319E-02</totfact>
</mgrwt>
</event>
<event>
 6    1  0.1614874E-005  0.1198802E+04  0.7818608E-02  0.9113906E-01
         -1   -1    0    0    0  501 -0.00000000000E+00  0.00000000000E+00  0.83930284078E+03  0.83930284078E+03  0.00000000000E+00 0.  1.
          1   -1    0    0  501    0  0.00000000000E+00 -0.00000000000E+00 -0.42807150636E+03  0.42807150636E+03  0.00000000000E+00 0. -1.
         23    2    1    2    0    0  0.20662710484E+03  0.51895473387E+03 -0.12570276979E+02  0.56622059647E+03  0.91863897938E+02 0.  0.
         13    1    3    3    0    0  0.11333462457E+03  0.39251259269E+03 -0.18605600555E+02  0.40897070913E+03  0.00000000000E+00 0. -1.
        -13    1    3    3    0    0  0.93292480267E+02  0.12644214117E+03  0.60353235756E+01  0.15724988734E+03  0.00000000000E+00 0.  1.
         22    1    1    2    0    0 -0.20662710484E+03 -0.51895473387E+03  0.42380161140E+03  0.70115375067E+03  0.00000000000E+00 0.  1.
<mgrwt>
<rscale>  0 0.11988021E+04</rscale>
<asrwt>0</asrwt>
<pdfrwt beam="1">  1        1 0.65857155E-01 0.11988021E+04</pdfrwt>
<pdfrwt beam="2">  1       -1 0.12912351E+00 0.11988021E+04</pdfrwt>
<totfact> 0.27981015E+01</totfact>
</mgrwt>
</event>
<event>
 6    1  0.1614874E-005  0.5624990E+04  0.7818608E-02  0.7738721E-01
         -2   -1    0    0    0  501 -0.00000000000E+00  0.00000000000E+00  0.17534330122E+04  0.17534330122E+04  0.00000000000E+00 0.  1.
          2   -1    0    0  501    0  0.00000000000E+00 -0.00000000000E+00 -0.45112232132E+04  0.45112232132E+04  0.00000000000E+00 0. -1.
         23    2    1    2    0    0  0.45648014021E+03  0.12550517653E+04  0.13765342292E+04  0.19199850589E+04  0.89258558753E+02 0.  0.
         13    1    3    3    0    0  0.21522899266E+03  0.71740728600E+03  0.78600411948E+03  0.10857251996E+04  0.00000000000E+00 0. -1.
        -13    1    3    3    0    0  0.24125114755E+03  0.53764447927E+03  0.59053010967E+03  0.83425985923E+03  0.00000000000E+00 0.  1.
         22    1    1    2    0    0 -0.45648014021E+03 -0.12550517653E+04 -0.41343244302E+04  0.43446711666E+04  0.00000000000E+00 0. -1.
<mgrwt>
<rscale>  0 0.56249899E+04</rscale>
<asrwt>0</asrwt>
<pdfrwt beam="1">  1        2 0.69403433E+00 0.56249899E+04</pdfrwt>
<pdfrwt beam="2">  1       -2 0.26975893E+00 0.56249899E+04</pdfrwt>
<totfact> 0.39982919E-03</totfact>
</mgrwt>
</event>
<event>
 6    1  0.1614874E-005  0.9672419E+03  0.7818608E-02  0.9345221E-01
         -2   -1    0    0    0  501 -0.00000000000E+00  0.00000000000E+00  0.12105081527E+03  0.12105081527E+03  0.00000000000E+00 0.  1.
          2   -1    0    0  501    0  0.00000000000E+00 -0.00000000000E+00 -0.19321573514E+04  0.19321573514E+04  0.00000000000E+00 0. -1.
         23    2    1    2    0    0  0.28680084863E+03 -0.54111904142E+02 -0.10696004905E+03  0.32424949904E+03  0.92273834778E+02 0.  0.
         13    1    3    3    0    0  0.16612945183E+03 -0.62041970841E+02 -0.27266951365E+02  0.17942042121E+03  0.00000000000E+00 0. -1.
        -13    1    3    3    0    0  0.12067139680E+03  0.79300666984E+01 -0.79693097684E+02  0.14482907782E+03  0.00000000000E+00 0.  1.
         22    1    1    2    0    0 -0.28680084863E+03  0.54111904142E+02 -0.17041464871E+04  0.17289586677E+04  0.00000000000E+00 0. -1.
<mgrwt>
<rscale>  0 0.96724190E+03</rscale>
<asrwt>0</asrwt>
<pdfrwt beam="1">  1        2 0.29725497E+00 0.96724190E+03</pdfrwt>
<pdfrwt beam="2">  1       -2 0.18623203E-01 0.96724190E+03</pdfrwt>
<totfact> 0.17710176E+02</totfact>
</mgrwt>
</event>
<event>
 6    1  0.1614874E-005  0.2071418E+04  0.7818608E-02  0.8573940E-01
         -1   -1    0    0    0  501 -0.00000000000E+00  0.00000000000E+00  0.52151314473E+03  0.52151314473E+03  0.00000000000E+00 0.  1.
          1   -1    0    0  501    0  0.00000000000E+00 -0.00000000000E+00 -0.20568853102E+04  0.20568853102E+04  0.00000000000E+00 0. -1.
         23    2    1    2    0    0 -0.91931770845E+02  0.56905429172E+03  0.29875418835E+03  0.65582369196E+03  0.92608922202E+02 0.  0.
         11    1    3    3    0    0 -0.10475963927E+03  0.41235958518E+03  0.19962887176E+03  0.46996456882E+03  0.00000000000E+00 0.  1.
        -11    1    3    3    0    0  0.12827868424E+02  0.15669470654E+03  0.99125316591E+02  0.18585912314E+03  0.00000000000E+00 0. -1.
         22    1    1    2    0    0  0.91931770845E+02 -0.56905429172E+03 -0.18341263538E+04  0.19225747630E+04  0.00000000000E+00 0. -1.
<mgrwt>
<rscale>  0 0.20714176E+04</rscale>
<asrwt>0</asrwt>
<pdfrwt beam="1">  1        1 0.31644390E+00 0.20714176E+04</pdfrwt>
<pdfrwt beam="2">  1       -1 0.80232789E-01 0.20714176E+04</pdfrwt>
<totfact> 0.38963268E+00</totfact>
</mgrwt>
</event>
<event>
 6    1  0.1614874E-005  0.5517002E+03  0.7818608E-02  0.1001101E+00
         -2   -1    0    0    0  501 -0.00000000000E+00  0.00000000000E+00  0.85777796846E+02  0.85777796846E+02  0.00000000000E+00 0.  1.
          2   -1    0    0  501    0  0.00000000000E+00 -0.00000000000E+00 -0.88709749256E+03  0.88709749256E+03  0.00000000000E+00 0. -1.
         23    2    1    2    0    0 -0.49637564798E+02 -0.11862566104E+03 -0.82688640228E+03  0.84176620588E+03  0.91067490363E+02 0.  0.
         13    1    3    3    0    0  0.40817690771E+01 -0.85018183726E+02 -0.32767676856E+03  0.33855105531E+03  0.00000000000E+00 0. -1.
        -13    1    3    3    0    0 -0.53719333875E+02 -0.33607477317E+02 -0.49920963372E+03  0.50321515057E+03  0.00000000000E+00 0.  1.
         22    1    1    2    0    0  0.49637564798E+02  0.11862566104E+03  0.25566706564E+02  0.13110908352E+03  0.00000000000E+00 0.  1.
<mgrwt>
<rscale>  0 0.55170017E+03</rscale>
<asrwt>0</asrwt>
<pdfrwt beam="1">  1        2 0.13647654E+00 0.55170017E+03</pdfrwt>
<pdfrwt beam="2">  1       -2 0.13196584E-01 0.55170017E+03</pdfrwt>
<totfact> 0.13076075E+03</totfact>
</mgrwt>
</event>
<event>
 6    1  0.1614874E-005  0.3062528E+04  0.7818608E-02  0.8226098E-01
          1   -1    0    0  501    0  0.00000000000E+00  0.00000000000E+00  0.21566771665E+04  0.21566771665E+04  0.00000000000E+00 0. -1.
         -1   -1    0    0    0  501 -0.00000000000E+00 -0.00000000000E+00 -0.10872137500E+04  0.10872137500E+04  0.00000000000E+00 0.  1.
         23    2    1    2    0    0  0.14040994536E+04  0.13385022473E+03  0.11629768658E+04  0.18303294841E+04  0.90441536716E+02 0.  0.
         13    1    3    3    0    0  0.29541500755E+03  0.32747655998E+02  0.29386673413E+03  0.41797140224E+03  0.00000000000E+00 0. -1.
        -13    1    3    3    0    0  0.11086844460E+04  0.10110256874E+03  0.86911013170E+03  0.14123580818E+04  0.00000000000E+00 0.  1.
         22    1    1    2    0    0 -0.14040994536E+04 -0.13385022473E+03 -0.93513449364E+02  0.14135614325E+04  0.00000000000E+00 0.  1.
<mgrwt>
<rscale>  0 0.30625278E+04</rscale>
<asrwt>0</asrwt>
<pdfrwt beam="1">  1        1 0.33179648E+00 0.30625278E+04</pdfrwt>
<pdfrwt beam="2">  1       -1 0.16726365E+00 0.30625278E+04</pdfrwt>
<totfact> 0.50882108E-01</totfact>
</mgrwt>
</event>
<event>
 6    1  0.1614874E-005  0.3306174E+04  0.7818608E-02  0.8161326E-01
         -1   -1    0    0    0  501 -0.00000000000E+00  0.00000000000E+00  0.93240042531E+03  0.93240042531E+03  0.00000000000E+00 0.  1.
          1   -1    0    0  501    0  0.00000000000E+00 -0.00000000000E+00 -0.29308184427E+04  0.29308184427E+04  0.00000000000E+00 0. -1.
         23    2    1    2    0    0  0.98757036827E+03 -0.13232300543E+04 -0.10507679295E+04  0.19594663373E+04  0.95718735617E+02 0.  0.
         13    1    3    3    0    0  0.23558609433E+03 -0.28102179925E+03 -0.27422854122E+03  0.45790321282E+03  0.00000000000E+00 0.  1.
        -13    1    3    3    0    0  0.75198427394E+03 -0.10422082551E+04 -0.77653938829E+03  0.15015631245E+04  0.00000000000E+00 0. -1.
         22    1    1    2    0    0 -0.98757036827E+03  0.13232300543E+04 -0.94765008786E+03  0.19037525307E+04  0.00000000000E+00 0.  1.
<mgrwt>
<rscale>  0 0.33061738E+04</rscale>
<asrwt>0</asrwt>
<pdfrwt beam="1">  1        1 0.45089513E+00 0.33061738E+04</pdfrwt>
<pdfrwt beam="2">  1       -1 0.14344622E+00 0.33061738E+04</pdfrwt>
<totfact> 0.21863845E-01</totfact>
</mgrwt>
</event>
<event>
 6    1  0.1614874E-005  0.6416429E+04  0.7818608E-02  0.7640810E-01
          1   -1    0    0  501    0  0.00000000000E+00  0.00000000000E+00  0.26284153287E+04  0.26284153287E+04  0.00000000000E+00 0. -1.
         -1   -1    0    0    0  501 -0.00000000000E+00 -0.00000000000E+00 -0.39159110824E+04  0.39159110824E+04  0.00000000000E+00 0.  1.
         23    2    1    2    0    0 -0.48133614043E+03  0.79243215306E+03  0.24880164625E+04  0.26566374198E+04  0.88675054964E+02 0.  0.
         13    1    3    3    0    0 -0.40545305438E+03  0.71238156302E+03  0.22374147957E+04  0.23828354200E+04  0.00000000000E+00 0.  1.
        -13    1    3    3    0    0 -0.75883086052E+02  0.80050590036E+02  0.25060166681E+03  0.27380199985E+03  0.00000000000E+00 0. -1.
         22    1    1    2    0    0  0.48133614043E+03 -0.79243215306E+03 -0.37755122163E+04  0.38876889913E+04  0.00000000000E+00 0.  1.
<mgrwt>
<rscale>  0 0.64164291E+04</rscale>
<asrwt>0</asrwt>
<pdfrwt beam="1">  1        1 0.40437159E+00 0.64164291E+04</pdfrwt>
<pdfrwt beam="2">  1       -1 0.60244786E+00 0.64164291E+04</pdfrwt>
<totfact> 0.31532718E-04</totfact>
</mgrwt>
</event>
<event>
 6    1  0.1614874E-005  0.1109230E+04  0.7818608E-02  0.9196242E-01
          2   -1    0    0  501    0  0.00000000000E+00  0.00000000000E+00  0.19326995487E+04  0.19326995487E+04  0.00000000000E+00 0. -1.
         -2   -1    0    0    0  501 -0.00000000000E+00 -0.00000000000E+00 -0.15915443236E+03  0.15915443236E+03  0.00000000000E+00 0.  1.
         23    2    1    2    0    0 -0.35805594741E+03  0.23230151150E+03  0.15493963136E+04  0.16097640107E+04  0.92429324047E+02 0.  0.
         11    1    3    3    0    0 -0.27952255938E+03  0.14084590323E+03  0.10269407719E+04  0.10735817522E+04  0.00000000000E+00 0. -1.
        -11    1    3    3    0    0 -0.78533388029E+02  0.91455608264E+02  0.52245554171E+03  0.53618225854E+03  0.00000000000E+00 0.  1.
         22    1    1    2    0    0  0.35805594741E+03 -0.23230151150E+03  0.22414880275E+03  0.48208997033E+03  0.00000000000E+00 0.  1.
<mgrwt>
<rscale>  0 0.11092298E+04</rscale>
<asrwt>0</asrwt>
<pdfrwt beam="1">  1        2 0.29733838E+00 0.11092298E+04</pdfrwt>
<pdfrwt beam="2">  1       -2 0.24485299E-01 0.11092298E+04</pdfrwt>
<totfact> 0.10781851E+02</totfact>
</mgrwt>
</event>
<event>
 6    1  0.1614874E-005  0.1786819E+04  0.7818608E-02  0.8713341E-01
         -1   -1    0    0    0  501 -0.00000000000E+00  0.00000000000E+00  0.67286579806E+03  0.67286579806E+03  0.00000000000E+00 0.  1.
          1   -1    0    0  501    0  0.00000000000E+00 -0.00000000000E+00 -0.11862398955E+04  0.11862398955E+04  0.00000000000E+00 0. -1.
         23    2    1    2    0    0 -0.20191837652E+02 -0.22706974873E+03 -0.11537026158E+04  0.11794079721E+04  0.89470989158E+02 0.  0.
         13    1    3    3    0    0  0.27388069192E+02 -0.50780615903E+02 -0.38604738985E+03  0.39033493886E+03  0.00000000000E+00 0. -1.
        -13    1    3    3    0    0 -0.47579906844E+02 -0.17628913283E+03 -0.76765522592E+03  0.78907303323E+03  0.00000000000E+00 0.  1.
         22    1    1    2    0    0  0.20191837652E+02  0.22706974873E+03  0.64032851836E+03  0.67969772143E+03  0.00000000000E+00 0.  1.
<mgrwt>
<rscale>  0 0.17868187E+04</rscale>
<asrwt>0</asrwt>
<pdfrwt beam="1">  1        1 0.18249844E+00 0.17868187E+04</pdfrwt>
<pdfrwt beam="2">  1       -1 0.10351782E+00 0.17868187E+04</pdfrwt>
<totfact> 0.90930449E+00</totfact>
</mgrwt>
</event>
<event>
 6    1  0.1614874E-005  0.1393813E+04  0.7818608E-02  0.8958309E-01
         -2   -1    0    0    0  501 -0.00000000000E+00  0.00000000000E+00  0.69749692497E+03  0.69749692497E+03  0.00000000000E+00 0.  1.
          2   -1    0    0  501    0  0.00000000000E+00 -0.00000000000E+00 -0.69631652818E+03  0.69631652818E+03  0.00000000000E+00 0. -1.
         23    2    1    2    0    0 -0.33003606046E+03  0.46558167453E+03  0.39540460967E+03  0.70019769001E+03  0.90784926490E+02 0.  0.
         11    1    3    3    0    0 -0.27193021037E+03  0.42648061583E+03  0.32698945946E+03  0.60229051261E+03  0.00000000000E+00 0. -1.
        -11    1    3    3    0    0 -0.58105850090E+02  0.39101058709E+02  0.68415150214E+02  0.97907177396E+02  0.00000000000E+00 0.  1.
         22    1    1    2    0    0  0.33003606046E+03 -0.46558167453E+03 -0.39422421288E+03  0.69361576314E+03  0.00000000000E+00 0. -1.
<mgrwt>
<rscale>  0 0.13938130E+04</rscale>
<asrwt>0</asrwt>
<pdfrwt beam="1">  1        2 0.10712562E+00 0.13938130E+04</pdfrwt>
<pdfrwt beam="2">  1       -2 0.10730722E+00 0.13938130E+04</pdfrwt>
<totfact> 0.28022179E+01</totfact>
</mgrwt>
</event>
<event>
 6    1  0.1614874E-005  0.3520418E+04  0.7818608E-02  0.8108968E-01
         -2   -1    0    0    0  501 -0.00000000000E+00  0.00000000000E+00  0.18670018073E+04  0.18670018073E+04  0.00000000000E+00 0.  1.
          2   -1    0    0  501    0  0.00000000000E+00 -0.00000000000E+00 -0.16595245039E+04  0.16595245039E+04  0.00000000000E+00 0. -1.
         23    2    1    2    0    0  0.42613297332E+03  0.48262394159E+03 -0.15359723483E+04  0.16679968205E+04  0.92125775945E+02 0.  0.
         11    1    3    3    0    0  0.31389674646E+03  0.38090095862E+03 -0.12593054184E+04  0.13525778516E+04  0.00000000000E+00 0.  1.
        -11    1    3    3    0    0  0.11223622686E+03  0.10172298297E+03 -0.27666692991E+03  0.31541896898E+03  0.00000000000E+00 0. -1.
         22    1    1    2    0    0 -0.42613297332E+03 -0.48262394159E+03  0.17434496517E+04  0.18585294907E+04  0.00000000000E+00 0.  1.
<mgrwt>
<rscale>  0 0.35204177E+04</rscale>
<asrwt>0</asrwt>
<pdfrwt beam="1">  1        2 0.25531146E+00 0.35204177E+04</pdfrwt>
<pdfrwt beam="2">  1       -2 0.28723105E+00 0.35204177E+04</pdfrwt>
<totfact> 0.32236116E-01</totfact>
</mgrwt>
</event>
<event>
 6    1  0.1943285E-005  0.3201770E+04  0.7818608E-02  0.8188350E-01
         -1   -1    0    0    0  501 -0.00000000000E+00  0.00000000000E+00  0.11106655635E+04  0.11106655635E+04  0.00000000000E+00 0.  1.
          1   -1    0    0  501    0  0.00000000000E+00 -0.00000000000E+00 -0.23074752639E+04  0.23074752639E+04  0.00000000000E+00 0. -1.
         23    2    1    2    0    0 -0.11461628619E+04  0.68416465458E+02 -0.17880215466E+04  0.21266681929E+04  0.85594584613E+02 0.  0.
         13    1    3    3    0    0 -0.66942012174E+03  0.29228447095E+02 -0.11178710955E+04  0.13033086310E+04  0.00000000000E+00 0.  1.
        -13    1    3    3    0    0 -0.47674274012E+03  0.39188018363E+02 -0.67015045110E+03  0.82335956189E+03  0.00000000000E+00 0. -1.
         22    1    1    2    0    0  0.11461628619E+04 -0.68416465458E+02  0.59121184614E+03  0.12914726345E+04  0.00000000000E+00 0.  1.
<mgrwt>
<rscale>  0 0.32017703E+04</rscale>
<asrwt>0</asrwt>
<pdfrwt beam="1">  1        1 0.35499620E+00 0.32017703E+04</pdfrwt>
<pdfrwt beam="2">  1       -1 0.17087162E+00 0.32017703E+04</pdfrwt>
<totfact> 0.37300369E-01</totfact>
</mgrwt>
</event>
<event>
 6    1  0.1614874E-005  0.8832279E+03  0.7818608E-02  0.9446794E-01
         -1   -1    0    0    0  501 -0.00000000000E+00  0.00000000000E+00  0.98605065650E+03  0.98605065650E+03  0.00000000000E+00 0.  1.
          1   -1    0    0  501    0  0.00000000000E+00 -0.00000000000E+00 -0.19778179619E+03  0.19778179619E+03  0.00000000000E+00 0. -1.
         23    2    1    2    0    0  0.17060964621E+03  0.22080501567E+03  0.84919817080E+03  0.89821927512E+03  0.88305303228E+02 0.  0.
         11    1    3    3    0    0  0.83689072520E+02  0.10650737258E+03  0.54874837574E+03  0.56521894974E+03  0.00000000000E+00 0. -1.
        -11    1    3    3    0    0  0.86920573693E+02  0.11429764310E+03  0.30044979506E+03  0.33300032538E+03  0.00000000000E+00 0.  1.
         22    1    1    2    0    0 -0.17060964621E+03 -0.22080501567E+03 -0.60929310490E+02  0.28561317757E+03  0.00000000000E+00 0. -1.
<mgrwt>
<rscale>  0 0.88322788E+03</rscale>
<asrwt>0</asrwt>
<pdfrwt beam="1">  1        1 0.30427969E-01 0.88322788E+03</pdfrwt>
<pdfrwt beam="2">  1       -1 0.15170010E+00 0.88322788E+03</pdfrwt>
<totfact> 0.51593024E+01</totfact>
</mgrwt>
</event>
<event>
 6    1  0.1614874E-005  0.2394667E+04  0.7818608E-02  0.8441503E-01
         -2   -1    0    0    0  501 -0.00000000000E+00  0.00000000000E+00  0.74326199341E+03  0.74326199341E+03  0.00000000000E+00 0.  1.
          2   -1    0    0  501    0  0.00000000000E+00 -0.00000000000E+00 -0.19288047603E+04  0.19288047603E+04  0.00000000000E+00 0. -1.
         23    2    1    2    0    0  0.43726295779E+03  0.19504097123E+03 -0.18160444880E+04  0.18803772344E+04  0.92526140068E+02 0.  0.
         13    1    3    3    0    0  0.52255859529E+02  0.23659466954E+02 -0.12375155882E+03  0.13639975638E+03  0.00000000000E+00 0.  1.
        -13    1    3    3    0    0  0.38500709826E+03  0.17138150428E+03 -0.16922929292E+04  0.17439774780E+04  0.00000000000E+00 0. -1.
         22    1    1    2    0    0 -0.43726295779E+03 -0.19504097123E+03  0.63050172109E+03  0.79168951933E+03  0.00000000000E+00 0.  1.
<mgrwt>
<rscale>  0 0.23946668E+04</rscale>
<asrwt>0</asrwt>
<pdfrwt beam="1">  1        2 0.29673919E+00 0.23946668E+04</pdfrwt>
<pdfrwt beam="2">  1       -2 0.11434800E+00 0.23946668E+04</pdfrwt>
<totfact> 0.39366982E+00</totfact>
</mgrwt>
</event>
<event>
 6    1  0.1614874E-005  0.3825656E+04  0.7818608E-02  0.8040672E-01
         -2   -1    0    0    0  501 -0.00000000000E+00  0.00000000000E+00  0.29717754871E+04  0.29717754871E+04  0.00000000000E+00 0.  1.
          2   -1    0    0  501    0  0.00000000000E+00 -0.00000000000E+00 -0.12312202628E+04  0.12312202628E+04  0.00000000000E+00 0. -1.
         23    2    1    2    0    0 -0.46077186310E+02 -0.12597667898E+04  0.24496251985E+04  0.27566501135E+04  0.96544101707E+02 0.  0.
         11    1    3    3    0    0 -0.51183252198E+02 -0.66007551386E+03  0.11980286323E+04  0.13687921731E+04  0.00000000000E+00 0. -1.
        -11    1    3    3    0    0  0.51060658878E+01 -0.59969127593E+03  0.12515965662E+04  0.13878579404E+04  0.00000000000E+00 0.  1.
         22    1    1    2    0    0  0.46077186310E+02  0.12597667898E+04 -0.70906997414E+03  0.14463456364E+04  0.00000000000E+00 0. -1.
<mgrwt>
<rscale>  0 0.38256556E+04</rscale>
<asrwt>0</asrwt>
<pdfrwt beam="1">  1        2 0.18941850E+00 0.38256556E+04</pdfrwt>
<pdfrwt beam="2">  1       -2 0.45719623E+00 0.38256556E+04</pdfrwt>
<totfact> 0.45156316E-02</totfact>
</mgrwt>
</event>
<event>
 6    1  0.1614874E-005  0.1672440E+04  0.7818608E-02  0.8777241E-01
          2   -1    0    0  501    0  0.00000000000E+00  0.00000000000E+00  0.11340406390E+04  0.11340406390E+04  0.00000000000E+00 0. -1.
         -2   -1    0    0    0  501 -0.00000000000E+00 -0.00000000000E+00 -0.61661269775E+03  0.61661269775E+03  0.00000000000E+00 0.  1.
         23    2    1    2    0    0 -0.51073758085E+02  0.82961336968E+03  0.19551149038E+03  0.85930768367E+03  0.96530204740E+02 0.  0.
         13    1    3    3    0    0 -0.61193827605E+02  0.47698750446E+03  0.14919798437E+03  0.50350948599E+03  0.00000000000E+00 0.  1.
        -13    1    3    3    0    0  0.10120069520E+02  0.35262586523E+03  0.46313506012E+02  0.35579819768E+03  0.00000000000E+00 0. -1.
         22    1    1    2    0    0  0.51073758085E+02 -0.82961336968E+03  0.32191645088E+03  0.89134565308E+03  0.00000000000E+00 0.  1.
<mgrwt>
<rscale>  0 0.16724400E+04</rscale>
<asrwt>0</asrwt>
<pdfrwt beam="1">  1        2 0.17446779E+00 0.16724400E+04</pdfrwt>
<pdfrwt beam="2">  1       -2 0.94863492E-01 0.16724400E+04</pdfrwt>
<totfact> 0.18517957E+01</totfact>
</mgrwt>
</event>
<event>
 6    1  0.1614874E-005  0.1757307E+04  0.7818608E-02  0.8729338E-01
         -1   -1    0    0    0  501 -0.00000000000E+00  0.00000000000E+00  0.57308140876E+03  0.57308140876E+03  0.00000000000E+00 0.  1.
          1   -1    0    0  501    0  0.00000000000E+00 -0.00000000000E+00 -0.13471595292E+04  0.13471595292E+04  0.00000000000E+00 0. -1.
         23    2    1    2    0    0  0.15936117317E+03  0.26390163961E+03 -0.12843483209E+04  0.13240733974E+04  0.92626633352E+02 0.  0.
         11    1    3    3    0    0  0.65015429049E+02  0.15156274925E+03 -0.51164773485E+03  0.53757016059E+03  0.00000000000E+00 0. -1.
        -11    1    3    3    0    0  0.94345744126E+02  0.11233889036E+03 -0.77270058610E+03  0.78650323679E+03  0.00000000000E+00 0.  1.
         22    1    1    2    0    0 -0.15936117317E+03 -0.26390163961E+03  0.51027020052E+03  0.59616754058E+03  0.00000000000E+00 0.  1.
<mgrwt>
<rscale>  0 0.17573071E+04</rscale>
<asrwt>0</asrwt>
<pdfrwt beam="1">  1        1 0.20725531E+00 0.17573071E+04</pdfrwt>
<pdfrwt beam="2">  1       -1 0.88166371E-01 0.17573071E+04</pdfrwt>
<totfact> 0.10022075E+01</totfact>
</mgrwt>
</event>
<event>
 6    1  0.1614874E-005  0.2351536E+04  0.7818608E-02  0.8457874E-01
          2   -1    0    0  501    0  0.00000000000E+00  0.00000000000E+00  0.29960289437E+04  0.29960289437E+04  0.00000000000E+00 0. -1.
         -2   -1    0    0    0  501 -0.00000000000E+00 -0.00000000000E+00 -0.46142105412E+03  0.46142105412E+03  0.00000000000E+00 0.  1.
         23    2    1    2    0    0  0.11323428114E+04  0.27943548983E+03  0.14579193756E+04  0.18701432878E+04  0.10780805053E+03 0.  0.
         11    1    3    3    0    0  0.60202598321E+03  0.11620820297E+03  0.69531605045E+03  0.92704047425E+03  0.00000000000E+00 0.  1.
        -11    1    3    3    0    0  0.53031682818E+03  0.16322728686E+03  0.76260332518E+03  0.94310281359E+03  0.00000000000E+00 0. -1.
         22    1    1    2    0    0 -0.11323428114E+04 -0.27943548983E+03  0.10766885140E+04  0.15873067100E+04  0.00000000000E+00 0.  1.
<mgrwt>
<rscale>  0 0.23515364E+04</rscale>
<asrwt>0</asrwt>
<pdfrwt beam="1">  1        2 0.46092752E+00 0.23515364E+04</pdfrwt>
<pdfrwt beam="2">  1       -2 0.70987856E-01 0.23515364E+04</pdfrwt>
<totfact> 0.28518170E+00</totfact>
</mgrwt>
</event>
<event>
 6    1  0.1614874E-005  0.4042307E+04  0.7818608E-02  0.7996066E-01
         -2   -1    0    0    0  501 -0.00000000000E+00  0.00000000000E+00  0.12236544273E+04  0.12236544273E+04  0.00000000000E+00 0.  1.
          2   -1    0    0  501    0  0.00000000000E+00 -0.00000000000E+00 -0.33384114508E+04  0.33384114508E+04  0.00000000000E+00 0. -1.
         23    2    1    2    0    0 -0.15928255352E+02 -0.15314198879E+04  0.42939063292E+03  0.15925224991E+04  0.79063344427E+02 0.  0.
         11    1    3    3    0    0  0.21296510018E+02 -0.10286808505E+04  0.26855278327E+03  0.10633712573E+04  0.00000000000E+00 0. -1.
        -11    1    3    3    0    0 -0.37224765369E+02 -0.50273903737E+03  0.16083784965E+03  0.52915124183E+03  0.00000000000E+00 0.  1.
         22    1    1    2    0    0  0.15928255352E+02  0.15314198879E+04 -0.25441476564E+04  0.29695433790E+04  0.00000000000E+00 0. -1.
<mgrwt>
<rscale>  0 0.40423072E+04</rscale>
<asrwt>0</asrwt>
<pdfrwt beam="1">  1        2 0.51360175E+00 0.40423072E+04</pdfrwt>
<pdfrwt beam="2">  1       -2 0.18825453E+00 0.40423072E+04</pdfrwt>
<totfact> 0.13124810E-01</totfact>
</mgrwt>
</event>
<event>
 6    1  0.1614874E-005  0.2283840E+04  0.7818608E-02  0.8484320E-01
          1   -1    0    0  501    0  0.00000000000E+00  0.00000000000E+00  0.11828423469E+04  0.11828423469E+04  0.00000000000E+00 0. -1.
         -1   -1    0    0    0  501 -0.00000000000E+00 -0.00000000000E+00 -0.11024137140E+04  0.11024137140E+04  0.00000000000E+00 0.  1.
         23    2    1    2    0    0  0.30371293874E+03  0.39028339210E+03  0.10681525705E+04  0.11806469662E+04  0.91731508288E+02 0.  0.
         11    1    3    3    0    0  0.12594684359E+03  0.19511707948E+03  0.40466182951E+03  0.46656669231E+03  0.00000000000E+00 0. -1.
        -11    1    3    3    0    0  0.17776609515E+03  0.19516631262E+03  0.66349074097E+03  0.71408027386E+03  0.00000000000E+00 0.  1.
         22    1    1    2    0    0 -0.30371293874E+03 -0.39028339210E+03 -0.98772393752E+03  0.11046090947E+04  0.00000000000E+00 0.  1.
<mgrwt>
<rscale>  0 0.22838403E+04</rscale>
<asrwt>0</asrwt>
<pdfrwt beam="1">  1        1 0.18197575E+00 0.22838403E+04</pdfrwt>
<pdfrwt beam="2">  1       -1 0.16960211E+00 0.22838403E+04</pdfrwt>
<totfact> 0.24667078E+00</totfact>
</mgrwt>
</event>
<event>
 6    1  0.1614874E-005  0.2057388E+04  0.7818608E-02  0.8580250E-01
          1   -1    0    0  501    0  0.00000000000E+00  0.00000000000E+00  0.99314535380E+03  0.99314535380E+03  0.00000000000E+00 0. -1.
         -1   -1    0    0    0  501 -0.00000000000E+00 -0.00000000000E+00 -0.10655148384E+04  0.10655148384E+04  0.00000000000E+00 0.  1.
         23    2    1    2    0    0 -0.31134161843E+03 -0.94036345529E+03  0.23373706764E+03  0.10218775473E+04  0.91562402665E+02 0.  0.
         13    1    3    3    0    0 -0.31986045281E+01 -0.17754777696E+02 -0.77622498933E+01  0.19639646773E+02  0.00000000000E+00 0.  1.
        -13    1    3    3    0    0 -0.30814301390E+03 -0.92260867759E+03  0.24149931753E+03  0.10022379006E+04  0.00000000000E+00 0. -1.
         22    1    1    2    0    0  0.31134161843E+03  0.94036345529E+03 -0.30610655228E+03  0.10367826449E+04  0.00000000000E+00 0.  1.
<mgrwt>
<rscale>  0 0.20573878E+04</rscale>
<asrwt>0</asrwt>
<pdfrwt beam="1">  1        1 0.15279159E+00 0.20573878E+04</pdfrwt>
<pdfrwt beam="2">  1       -1 0.16392536E+00 0.20573878E+04</pdfrwt>
<totfact> 0.38605423E+00</totfact>
</mgrwt>
</event>
<event>
 6    1  0.1614874E-005  0.1405303E+04  0.7818608E-02  0.8949989E-01
          1   -1    0    0  501    0  0.00000000000E+00  0.00000000000E+00  0.73808296782E+03  0.73808296782E+03  0.00000000000E+00 0. -1.
         -1   -1    0    0    0  501 -0.00000000000E+00 -0.00000000000E+00 -0.66892050216E+03  0.66892050216E+03  0.00000000000E+00 0.  1.
         23    2    1    2    0    0  0.15477091796E+03 -0.20323110247E+03 -0.61744699321E+03  0.67441254247E+03  0.91293865964E+02 0.  0.
         11    1    3    3    0    0  0.59905908504E+02 -0.75122545867E+02 -0.35106682047E+03  0.36397805868E+03  0.00000000000E+00 0. -1.
        -11    1    3    3    0    0  0.94865009459E+02 -0.12810855660E+03 -0.26638017274E+03  0.31043448379E+03  0.00000000000E+00 0.  1.
         22    1    1    2    0    0 -0.15477091796E+03  0.20323110247E+03  0.68660945887E+03  0.73259092751E+03  0.00000000000E+00 0. -1.
<mgrwt>
<rscale>  0 0.14053026E+04</rscale>
<asrwt>0</asrwt>
<pdfrwt beam="1">  1        1 0.11355123E+00 0.14053026E+04</pdfrwt>
<pdfrwt beam="2">  1       -1 0.10291085E+00 0.14053026E+04</pdfrwt>
<totfact> 0.21843606E+01</totfact>
</mgrwt>
</event>
<event>
 6    1  0.1614874E-005  0.1131008E+04  0.7818608E-02  0.9175486E-01
         -2   -1    0    0    0  501 -0.00000000000E+00  0.00000000000E+00  0.31499347134E+03  0.31499347134E+03  0.00000000000E+00 0.  1.
          2   -1    0    0  501    0  0.00000000000E+00 -0.00000000000E+00 -0.10152420409E+04  0.10152420409E+04  0.00000000000E+00 0. -1.
         23    2    1    2    0    0 -0.51655801365E+03  0.87638175304E+02 -0.11386486525E+03  0.54387778201E+03  0.91242550290E+02 0.  0.
         13    1    3    3    0    0 -0.18566402005E+03  0.62909565091E+02 -0.74594690201E+02  0.20974534447E+03  0.00000000000E+00 0. -1.
        -13    1    3    3    0    0 -0.33089399360E+03  0.24728610213E+02 -0.39270175046E+02  0.33413243754E+03  0.00000000000E+00 0.  1.
         22    1    1    2    0    0  0.51655801365E+03 -0.87638175304E+02 -0.58638370434E+03  0.78635773027E+03  0.00000000000E+00 0. -1.
<mgrwt>
<rscale>  0 0.11310077E+04</rscale>
<asrwt>0</asrwt>
<pdfrwt beam="1">  1        2 0.15619109E+00 0.11310077E+04</pdfrwt>
<pdfrwt beam="2">  1       -2 0.48460533E-01 0.11310077E+04</pdfrwt>
<totfact> 0.98409446E+01</totfact>
</mgrwt>
</event>
<event>
 6    1  0.2737890E-005  0.3832245E+04  0.7818608E-02  0.8039270E-01
          1   -1    0    0  501    0  0.00000000000E+00  0.00000000000E+00  0.16518183326E+04  0.16518183326E+04  0.00000000000E+00 0. -1.
         -1   -1    0    0    0  501 -0.00000000000E+00 -0.00000000000E+00 -0.22227174008E+04  0.22227174008E+04  0.00000000000E+00 0.  1.
         23    2    1    2    0    0  0.68211418723E+03 -0.16718884545E+03 -0.20867682358E+04  0.22038798121E+04  0.96190861229E+02 0.  0.
         11    1    3    3    0    0  0.48878282929E+03 -0.76459759335E+02 -0.14162585562E+04  0.15001810047E+04  0.00000000000E+00 0.  1.
        -11    1    3    3    0    0  0.19333135794E+03 -0.90729086112E+02 -0.67050967959E+03  0.70369880734E+03  0.00000000000E+00 0. -1.
         22    1    1    2    0    0 -0.68211418723E+03  0.16718884545E+03  0.15158691675E+04  0.16706559214E+04  0.00000000000E+00 0. -1.
<mgrwt>
<rscale>  0 0.38322450E+04</rscale>
<asrwt>0</asrwt>
<pdfrwt beam="1">  1        1 0.25412590E+00 0.38322450E+04</pdfrwt>
<pdfrwt beam="2">  1       -1 0.34195652E+00 0.38322450E+04</pdfrwt>
<totfact> 0.71635652E-02</totfact>
</mgrwt>
</event>
<event>
 6    1  0.1614874E-005  0.1295726E+04  0.7818608E-02  0.9032961E-01
          2   -1    0    0  501    0  0.00000000000E+00  0.00000000000E+00  0.19607050725E+04  0.19607050725E+04  0.00000000000E+00 0.  1.
         -2   -1    0    0    0  501 -0.00000000000E+00 -0.00000000000E+00 -0.21406920843E+03  0.21406920843E+03  0.00000000000E+00 0. -1.
         23    2    1    2    0    0  0.22800979654E+02 -0.37317204632E+02  0.19570636322E+04  0.19598503316E+04  0.94883102266E+02 0.  0.
         13    1    3    3    0    0  0.25938000660E+02 -0.63283177098E+02  0.95518815782E+03  0.95763351927E+03  0.00000000000E+00 0. -1.
        -13    1    3    3    0    0 -0.31370210064E+01  0.25965972466E+02  0.10018754744E+04  0.10022168123E+04  0.00000000000E+00 0.  1.
         22    1    1    2    0    0 -0.22800979654E+02  0.37317204632E+02 -0.21042776811E+03  0.21492394940E+03  0.00000000000E+00 0. -1.
<mgrwt>
<rscale>  0 0.12957262E+04</rscale>
<asrwt>0</asrwt>
<pdfrwt beam="1">  1        2 0.30164692E+00 0.12957262E+04</pdfrwt>
<pdfrwt beam="2">  1       -2 0.32933726E-01 0.12957262E+04</pdfrwt>
<totfact> 0.59306247E+01</totfact>
</mgrwt>
</event>
<event>
 6    1  0.1614874E-005  0.3056980E+03  0.7818608E-02  0.1082426E+00
         -1   -1    0    0    0  501 -0.00000000000E+00  0.00000000000E+00  0.44224753811E+02  0.44224753811E+02  0.00000000000E+00 0.  1.
          1   -1    0    0  501    0  0.00000000000E+00 -0.00000000000E+00 -0.52827480432E+03  0.52827480432E+03  0.00000000000E+00 0. -1.
         23    2    1    2    0    0  0.11864809036E+03  0.76157415643E+02 -0.28279270741E+03  0.32677239346E+03  0.83253591278E+02 0.  0.
         13    1    3    3    0    0  0.10137385355E+03  0.18674223913E+02 -0.19226013762E+03  0.21814982315E+03  0.00000000000E+00 0. -1.
        -13    1    3    3    0    0  0.17274236816E+02  0.57483191729E+02 -0.90532569792E+02  0.10862257032E+03  0.00000000000E+00 0.  1.
         22    1    1    2    0    0 -0.11864809036E+03 -0.76157415643E+02 -0.20125734310E+03  0.24572716467E+03  0.00000000000E+00 0.  1.
<mgrwt>
<rscale>  0 0.30569804E+03</rscale>
<asrwt>0</asrwt>
<pdfrwt beam="1">  1        1 0.81273049E-01 0.30569804E+03</pdfrwt>
<pdfrwt beam="2">  1       -1 0.68038081E-02 0.30569804E+03</pdfrwt>
<totfact> 0.46245875E+03</totfact>
</mgrwt>
</event>
<event>
 6    1  0.1614874E-005  0.2443958E+04  0.7818608E-02  0.8423227E-01
         -2   -1    0    0    0  501 -0.00000000000E+00  0.00000000000E+00  0.72486415350E+03  0.72486415350E+03  0.00000000000E+00 0.  1.
          2   -1    0    0  501    0  0.00000000000E+00 -0.00000000000E+00 -0.20600175552E+04  0.20600175552E+04  0.00000000000E+00 0. -1.
         23    2    1    2    0    0  0.80094777233E+03  0.22951169961E+03 -0.16844317567E+04  0.18814502927E+04  0.91388767847E+02 0.  0.
         11    1    3    3    0    0  0.37458978724E+03  0.15477122022E+03 -0.80877371291E+03  0.90464720085E+03  0.00000000000E+00 0.  1.
        -11    1    3    3    0    0  0.42635798508E+03  0.74740479391E+02 -0.87565804375E+03  0.97680309187E+03  0.00000000000E+00 0. -1.
         22    1    1    2    0    0 -0.80094777233E+03 -0.22951169961E+03  0.34927835491E+03  0.90343141603E+03  0.00000000000E+00 0.  1.
<mgrwt>
<rscale>  0 0.24439582E+04</rscale>
<asrwt>0</asrwt>
<pdfrwt beam="1">  1        2 0.31692578E+00 0.24439582E+04</pdfrwt>
<pdfrwt beam="2">  1       -2 0.11151756E+00 0.24439582E+04</pdfrwt>
<totfact> 0.35222919E+00</totfact>
</mgrwt>
</event>
<event>
 6    1  0.1614874E-005  0.3353282E+04  0.7818608E-02  0.8149469E-01
          2   -1    0    0  501    0  0.00000000000E+00  0.00000000000E+00  0.27956591343E+04  0.27956591343E+04  0.00000000000E+00 0. -1.
         -2   -1    0    0    0  501 -0.00000000000E+00 -0.00000000000E+00 -0.10055321288E+04  0.10055321288E+04  0.00000000000E+00 0.  1.
         23    2    1    2    0    0 -0.12442069999E+04 -0.27062595294E+03  0.21300016270E+04  0.24833125800E+04  0.92978350039E+02 0.  0.
         13    1    3    3    0    0 -0.81491003438E+03 -0.19200611710E+03  0.13173983104E+04  0.15609237718E+04  0.00000000000E+00 0. -1.
        -13    1    3    3    0    0 -0.42929696551E+03 -0.78619835836E+02  0.81260331663E+03  0.92238880814E+03  0.00000000000E+00 0.  1.
         22    1    1    2    0    0  0.12442069999E+04  0.27062595294E+03 -0.33987462153E+03  0.13178786831E+04  0.00000000000E+00 0.  1.
<mgrwt>
<rscale>  0 0.33532820E+04</rscale>
<asrwt>0</asrwt>
<pdfrwt beam="1">  1        2 0.43010140E+00 0.33532820E+04</pdfrwt>
<pdfrwt beam="2">  1       -2 0.15469725E+00 0.33532820E+04</pdfrwt>
<totfact> 0.53365891E-01</totfact>
</mgrwt>
</event>
<event>
 6    1  0.1614874E-005  0.2715011E+04  0.7818608E-02  0.8330151E-01
         -2   -1    0    0    0  501 -0.00000000000E+00  0.00000000000E+00  0.69022764863E+03  0.69022764863E+03  0.00000000000E+00 0.  1.
          2   -1    0    0  501    0  0.00000000000E+00 -0.00000000000E+00 -0.26698750011E+04  0.26698750011E+04  0.00000000000E+00 0. -1.
         23    2    1    2    0    0 -0.95834348447E+02  0.10306250053E+04  0.93162377651E+02  0.10432271025E+04  0.90947429250E+02 0.  0.
         13    1    3    3    0    0 -0.12651976896E+02  0.59782379483E+03  0.67551762644E+02  0.60176125068E+03  0.00000000000E+00 0. -1.
        -13    1    3    3    0    0 -0.83182371551E+02  0.43280121051E+03  0.25610615007E+02  0.44146585185E+03  0.00000000000E+00 0.  1.
         22    1    1    2    0    0  0.95834348447E+02 -0.10306250053E+04 -0.20728097302E+04  0.23168755472E+04  0.00000000000E+00 0. -1.
<mgrwt>
<rscale>  0 0.27150113E+04</rscale>
<asrwt>0</asrwt>
<pdfrwt beam="1">  1        2 0.41075000E+00 0.27150113E+04</pdfrwt>
<pdfrwt beam="2">  1       -2 0.10618887E+00 0.27150113E+04</pdfrwt>
<totfact> 0.17343021E+00</totfact>
</mgrwt>
</event>
<event>
 6    1  0.1614874E-005  0.2687256E+04  0.7818608E-02  0.8339152E-01
          2   -1    0    0  501    0  0.00000000000E+00  0.00000000000E+00  0.49312451587E+04  0.49312451587E+04  0.00000000000E+00 0. -1.
         -2   -1    0    0    0  501 -0.00000000000E+00 -0.00000000000E+00 -0.36610157077E+03  0.36610157077E+03  0.00000000000E+00 0.  1.
         23    2    1    2    0    0  0.61457792661E+03 -0.57962256710E+03  0.43409221715E+04  0.44233080623E+04  0.91545437206E+02 0.  0.
         11    1    3    3    0    0  0.40460415602E+03 -0.37502325432E+03  0.30525658983E+04  0.31020163648E+04  0.00000000000E+00 0.  1.
        -11    1    3    3    0    0  0.20997377058E+03 -0.20459931278E+03  0.12883562732E+04  0.13212916975E+04  0.00000000000E+00 0. -1.
         22    1    1    2    0    0 -0.61457792661E+03  0.57962256710E+03  0.22422141648E+03  0.87403866720E+03  0.00000000000E+00 0.  1.
<mgrwt>
<rscale>  0 0.26872563E+04</rscale>
<asrwt>0</asrwt>
<pdfrwt beam="1">  1        2 0.75865305E+00 0.26872563E+04</pdfrwt>
<pdfrwt beam="2">  1       -2 0.56323322E-01 0.26872563E+04</pdfrwt>
<totfact> 0.10906499E-01</totfact>
</mgrwt>
</event>
<event>
 6    1  0.1614874E-005  0.2979576E+04  0.7818608E-02  0.8249587E-01
          2   -1    0    0  501    0  0.00000000000E+00  0.00000000000E+00  0.28830880230E+04  0.28830880230E+04  0.00000000000E+00 0. -1.
         -2   -1    0    0    0  501 -0.00000000000E+00 -0.00000000000E+00 -0.76982331694E+03  0.76982331694E+03  0.00000000000E+00 0.  1.
         23    2    1    2    0    0 -0.12485146799E+04 -0.78200111477E+03  0.13197438692E+04  0.19795942845E+04  0.82188815991E+02 0.  0.
         13    1    3    3    0    0 -0.93172307129E+03 -0.54237180182E+03  0.97830829794E+03  0.14558029327E+04  0.00000000000E+00 0.  1.
        -13    1    3    3    0    0 -0.31679160863E+03 -0.23962931295E+03  0.34143557122E+03  0.52379135180E+03  0.00000000000E+00 0. -1.
         22    1    1    2    0    0  0.12485146799E+04  0.78200111477E+03  0.79352083690E+03  0.16733170555E+04  0.00000000000E+00 0.  1.
<mgrwt>
<rscale>  0 0.29795761E+04</rscale>
<asrwt>0</asrwt>
<pdfrwt beam="1">  1        2 0.44355200E+00 0.29795761E+04</pdfrwt>
<pdfrwt beam="2">  1       -2 0.11843436E+00 0.29795761E+04</pdfrwt>
<totfact> 0.96750455E-01</totfact>
</mgrwt>
</event>
<event>
 6    1  0.1614874E-005  0.3320269E+04  0.7818608E-02  0.8157757E-01
          2   -1    0    0  501    0  0.00000000000E+00  0.00000000000E+00  0.19158455111E+04  0.19158455111E+04  0.00000000000E+00 0. -1.
         -2   -1    0    0    0  501 -0.00000000000E+00 -0.00000000000E+00 -0.14385536810E+04  0.14385536810E+04  0.00000000000E+00 0.  1.
         23    2    1    2    0    0 -0.87781192442E+03  0.40512138875E+03 -0.11231792748E+04  0.14845904126E+04  0.88317017737E+02 0.  0.
         13    1    3    3    0    0 -0.14635912807E+03  0.74220127607E+02 -0.14359153499E+03  0.21805538432E+03  0.00000000000E+00 0. -1.
        -13    1    3    3    0    0 -0.73145279635E+03  0.33090126115E+03 -0.97958773982E+03  0.12665350283E+04  0.00000000000E+00 0.  1.
         22    1    1    2    0    0  0.87781192442E+03 -0.40512138875E+03  0.16004711049E+04  0.18698087795E+04  0.00000000000E+00 0. -1.
<mgrwt>
<rscale>  0 0.33202690E+04</rscale>
<asrwt>0</asrwt>
<pdfrwt beam="1">  1        2 0.29474546E+00 0.33202690E+04</pdfrwt>
<pdfrwt beam="2">  1       -2 0.22131595E+00 0.33202690E+04</pdfrwt>
<totfact> 0.60162988E-01</totfact>
</mgrwt>
</event>
<event>
 6    1  0.1614874E-005  0.3212422E+04  0.7818608E-02  0.8185544E-01
          1   -1    0    0  501    0  0.00000000000E+00  0.00000000000E+00  0.21180485524E+04  0.21180485524E+04  0.00000000000E+00 0. -1.
         -1   -1    0    0    0  501 -0.00000000000E+00 -0.00000000000E+00 -0.12180619212E+04  0.12180619212E+04  0.00000000000E+00 0.  1.
         23    2    1    2    0    0  0.13000063251E+04  0.92850788189E+03  0.29063467462E+03  0.16262996247E+04  0.90766861615E+02 0.  0.
         11    1    3    3    0    0  0.49368072979E+03  0.38631869979E+03  0.78664022043E+02  0.63178384684E+03  0.00000000000E+00 0.  1.
        -11    1    3    3    0    0  0.80632559533E+03  0.54218918210E+03  0.21197065258E+03  0.99451577786E+03  0.00000000000E+00 0. -1.
         22    1    1    2    0    0 -0.13000063251E+04 -0.92850788189E+03  0.60935195656E+03  0.17098108489E+04  0.00000000000E+00 0.  1.
<mgrwt>
<rscale>  0 0.32124223E+04</rscale>
<asrwt>0</asrwt>
<pdfrwt beam="1">  1        1 0.32585362E+00 0.32124223E+04</pdfrwt>
<pdfrwt beam="2">  1       -1 0.18739414E+00 0.32124223E+04</pdfrwt>
<totfact> 0.38165768E-01</totfact>
</mgrwt>
</event>
<event>
 6    1  0.1614874E-005  0.4494954E+04  0.7818608E-02  0.7911521E-01
         -2   -1    0    0    0  501 -0.00000000000E+00  0.00000000000E+00  0.14461582092E+04  0.14461582092E+04  0.00000000000E+00 0.  1.
          2   -1    0    0  501    0  0.00000000000E+00 -0.00000000000E+00 -0.34928083604E+04  0.34928083604E+04  0.00000000000E+00 0. -1.
         23    2    1    2    0    0  0.20072218165E+03 -0.21370565120E+04 -0.29580235554E+03  0.21689904085E+04  0.98592234773E+02 0.  0.
         13    1    3    3    0    0  0.17680304173E+03 -0.14990502956E+04 -0.23538629657E+03  0.15276838066E+04  0.00000000000E+00 0.  1.
        -13    1    3    3    0    0  0.23919139923E+02 -0.63800621646E+03 -0.60416058970E+02  0.64130660193E+03  0.00000000000E+00 0. -1.
         22    1    1    2    0    0 -0.20072218165E+03  0.21370565120E+04 -0.17508477956E+04  0.27699761611E+04  0.00000000000E+00 0.  1.
<mgrwt>
<rscale>  0 0.44949543E+04</rscale>
<asrwt>0</asrwt>
<pdfrwt beam="1">  1        2 0.53735513E+00 0.44949543E+04</pdfrwt>
<pdfrwt beam="2">  1       -2 0.22248588E+00 0.44949543E+04</pdfrwt>
<totfact> 0.59313949E-02</totfact>
</mgrwt>
</event>
<event>
 6    1  0.1614874E-005  0.5474280E+04  0.7818608E-02  0.7759238E-01
          2   -1    0    0  501    0  0.00000000000E+00  0.00000000000E+00  0.27638555360E+04  0.27638555360E+04  0.00000000000E+00 0.  1.
         -2   -1    0    0    0  501 -0.00000000000E+00 -0.00000000000E+00 -0.27106828614E+04  0.27106828614E+04  0.00000000000E+00 0. -1.
         23    2    1    2    0    0 -0.12092568373E+04 -0.12577245590E+03 -0.24249816100E+04  0.27142178603E+04  0.91224859707E+02 0.  0.
         13    1    3    3    0    0 -0.70862880535E+03 -0.72131101284E+02 -0.15195407971E+04  0.16782019883E+04  0.00000000000E+00 0. -1.
        -13    1    3    3    0    0 -0.50062803199E+03 -0.53641354615E+02 -0.90544081293E+03  0.10360158720E+04  0.00000000000E+00 0.  1.
         22    1    1    2    0    0  0.12092568373E+04  0.12577245590E+03  0.24781542846E+04  0.27603205371E+04  0.00000000000E+00 0.  1.
<mgrwt>
<rscale>  0 0.54742802E+04</rscale>
<asrwt>0</asrwt>
<pdfrwt beam="1">  1        2 0.42520854E+00 0.54742802E+04</pdfrwt>
<pdfrwt beam="2">  1       -2 0.41702813E+00 0.54742802E+04</pdfrwt>
<totfact> 0.97967352E-03</totfact>
</mgrwt>
</event>
<event>
 6    1  0.1614874E-005  0.1937081E+04  0.7818608E-02  0.8636616E-01
         -2   -1    0    0    0  501 -0.00000000000E+00  0.00000000000E+00  0.81325916007E+03  0.81325916007E+03  0.00000000000E+00 0.  1.
          2   -1    0    0  501    0  0.00000000000E+00 -0.00000000000E+00 -0.11534705033E+04  0.11534705033E+04  0.00000000000E+00 0. -1.
         23    2    1    2    0    0  0.74361165489E+02 -0.78178396834E+03  0.40131529304E+03  0.88664748670E+03  0.91509809174E+02 0.  0.
         13    1    3    3    0    0 -0.14361333167E+02 -0.25095670760E+03  0.10649377593E+03  0.27299531368E+03  0.00000000000E+00 0.  1.
        -13    1    3    3    0    0  0.88722498656E+02 -0.53082726073E+03  0.29482151711E+03  0.61365217302E+03  0.00000000000E+00 0. -1.
         22    1    1    2    0    0 -0.74361165489E+02  0.78178396834E+03 -0.74152663632E+03  0.10800821767E+04  0.00000000000E+00 0. -1.
<mgrwt>
<rscale>  0 0.19370807E+04</rscale>
<asrwt>0</asrwt>
<pdfrwt beam="1">  1        2 0.17745700E+00 0.19370807E+04</pdfrwt>
<pdfrwt beam="2">  1       -2 0.12511680E+00 0.19370807E+04</pdfrwt>
<totfact> 0.90260077E+00</totfact>
</mgrwt>
</event>
<event>
 6    1  0.1614874E-005  0.1738764E+04  0.7818608E-02  0.8739559E-01
          2   -1    0    0  501    0  0.00000000000E+00  0.00000000000E+00  0.13636317940E+04  0.13636317940E+04  0.00000000000E+00 0. -1.
         -2   -1    0    0    0  501 -0.00000000000E+00 -0.00000000000E+00 -0.55427363825E+03  0.55427363825E+03  0.00000000000E+00 0.  1.
         23    2    1    2    0    0 -0.81159313531E+03  0.29763595047E+03  0.33079885996E+03  0.92983176298E+03  0.88818046606E+02 0.  0.
         13    1    3    3    0    0 -0.53010027628E+03  0.23423463162E+03  0.24076733890E+03  0.62756758763E+03  0.00000000000E+00 0. -1.
        -13    1    3    3    0    0 -0.28149285903E+03  0.63401318852E+02  0.90031521066E+02  0.30226417536E+03  0.00000000000E+00 0.  1.
         22    1    1    2    0    0  0.81159313531E+03 -0.29763595047E+03  0.47855929577E+03  0.98807366925E+03  0.00000000000E+00 0.  1.
<mgrwt>
<rscale>  0 0.17387641E+04</rscale>
<asrwt>0</asrwt>
<pdfrwt beam="1">  1        2 0.20978951E+00 0.17387641E+04</pdfrwt>
<pdfrwt beam="2">  1       -2 0.85272868E-01 0.17387641E+04</pdfrwt>
<totfact> 0.17231205E+01</totfact>
</mgrwt>
</event>
<event>
 6    1  0.1614874E-005  0.2320471E+04  0.7818608E-02  0.8469893E-01
          1   -1    0    0  501    0  0.00000000000E+00  0.00000000000E+00  0.13552574154E+04  0.13552574154E+04  0.00000000000E+00 0. -1.
         -1   -1    0    0    0  501 -0.00000000000E+00 -0.00000000000E+00 -0.99327690936E+03  0.99327690936E+03  0.00000000000E+00 0.  1.
         23    2    1    2    0    0 -0.75640138677E+03  0.87539867786E+03  0.12202899671E+03  0.11669918457E+04  0.92265859206E+02 0.  0.
         11    1    3    3    0    0 -0.42119695414E+03  0.44186781258E+03  0.28976117201E+02  0.61114127118E+03  0.00000000000E+00 0.  1.
        -11    1    3    3    0    0 -0.33520443263E+03  0.43353086528E+03  0.93052879507E+02  0.55585057452E+03  0.00000000000E+00 0. -1.
         22    1    1    2    0    0  0.75640138677E+03 -0.87539867786E+03  0.23995150938E+03  0.11815424791E+04  0.00000000000E+00 0. -1.
<mgrwt>
<rscale>  0 0.23204706E+04</rscale>
<asrwt>0</asrwt>
<pdfrwt beam="1">  1        1 0.20850114E+00 0.23204706E+04</pdfrwt>
<pdfrwt beam="2">  1       -1 0.15281183E+00 0.23204706E+04</pdfrwt>
<totfact> 0.24734768E+00</totfact>
</mgrwt>
</event>
<event>
 6    1  0.1614874E-005  0.3832998E+04  0.7818608E-02  0.8039111E-01
         -2   -1    0    0    0  501 -0.00000000000E+00  0.00000000000E+00  0.22676548182E+04  0.22676548182E+04  0.00000000000E+00 0.  1.
          2   -1    0    0  501    0  0.00000000000E+00 -0.00000000000E+00 -0.16197208026E+04  0.16197208026E+04  0.00000000000E+00 0. -1.
         23    2    1    2    0    0  0.10604252381E+04  0.14629380738E+04 -0.32128347799E+03  0.18369922315E+04  0.81411866460E+02 0.  0.
         13    1    3    3    0    0  0.46516268672E+03  0.57446523776E+03 -0.12462791791E+03  0.74961240146E+03  0.00000000000E+00 0.  1.
        -13    1    3    3    0    0  0.59526255137E+03  0.88847283606E+03 -0.19665556009E+03  0.10873798301E+04  0.00000000000E+00 0. -1.
         22    1    1    2    0    0 -0.10604252381E+04 -0.14629380738E+04  0.96921749355E+03  0.20503833893E+04  0.00000000000E+00 0.  1.
<mgrwt>
<rscale>  0 0.38329976E+04</rscale>
<asrwt>0</asrwt>
<pdfrwt beam="1">  1        2 0.24918782E+00 0.38329976E+04</pdfrwt>
<pdfrwt beam="2">  1       -2 0.34886997E+00 0.38329976E+04</pdfrwt>
<totfact> 0.13745385E-01</totfact>
</mgrwt>
</event>
<event>
 6    1  0.1614874E-005  0.1894241E+04  0.7818608E-02  0.8657728E-01
         -2   -1    0    0    0  501 -0.00000000000E+00  0.00000000000E+00  0.31788938176E+03  0.31788938176E+03  0.00000000000E+00 0. -1.
          2   -1    0    0  501    0  0.00000000000E+00 -0.00000000000E+00 -0.28218530741E+04  0.28218530741E+04  0.00000000000E+00 0.  1.
         23    2    1    2    0    0 -0.57094163325E+03  0.56559857649E+03 -0.43132135149E+03  0.91674394678E+03  0.92223952435E+02 0.  0.
         13    1    3    3    0    0 -0.23889568059E+03  0.29622182835E+03 -0.18259518623E+03  0.42208946899E+03  0.00000000000E+00 0.  1.
        -13    1    3    3    0    0 -0.33204595266E+03  0.26937674814E+03 -0.24872616525E+03  0.49465447779E+03  0.00000000000E+00 0. -1.
         22    1    1    2    0    0  0.57094163325E+03 -0.56559857649E+03 -0.20726423408E+04  0.22229985090E+04  0.00000000000E+00 0.  1.
<mgrwt>
<rscale>  0 0.18942409E+04</rscale>
<asrwt>0</asrwt>
<pdfrwt beam="1">  1        2 0.43413122E+00 0.18942409E+04</pdfrwt>
<pdfrwt beam="2">  1       -2 0.48906061E-01 0.18942409E+04</pdfrwt>
<totfact> 0.83375904E+00</totfact>
</mgrwt>
</event>
<event>
 6    1  0.1614874E-005  0.4422308E+04  0.7818608E-02  0.7924381E-01
         -2   -1    0    0    0  501 -0.00000000000E+00  0.00000000000E+00  0.16066309611E+04  0.16066309611E+04  0.00000000000E+00 0.  1.
          2   -1    0    0  501    0  0.00000000000E+00 -0.00000000000E+00 -0.30431394691E+04  0.30431394691E+04  0.00000000000E+00 0. -1.
         23    2    1    2    0    0 -0.11569537683E+04  0.13948452010E+04 -0.20489728216E+04  0.27368544121E+04  0.89147590180E+02 0.  0.
         13    1    3    3    0    0 -0.54794053272E+03  0.60709916002E+03 -0.88140023190E+03  0.12023620862E+04  0.00000000000E+00 0.  1.
        -13    1    3    3    0    0 -0.60901323556E+03  0.78774604098E+03 -0.11675725897E+04  0.15344923259E+04  0.00000000000E+00 0. -1.
         22    1    1    2    0    0  0.11569537683E+04 -0.13948452010E+04  0.61246431365E+03  0.19129160181E+04  0.00000000000E+00 0.  1.
<mgrwt>
<rscale>  0 0.44223080E+04</rscale>
<asrwt>0</asrwt>
<pdfrwt beam="1">  1        2 0.46817530E+00 0.44223080E+04</pdfrwt>
<pdfrwt beam="2">  1       -2 0.24717400E+00 0.44223080E+04</pdfrwt>
<totfact> 0.83364131E-02</totfact>
</mgrwt>
</event>
<event>
 6    1  0.1614874E-005  0.2595057E+04  0.7818608E-02  0.8369882E-01
         -1   -1    0    0    0  501 -0.00000000000E+00  0.00000000000E+00  0.14035249224E+04  0.14035249224E+04  0.00000000000E+00 0.  1.
          1   -1    0    0  501    0  0.00000000000E+00 -0.00000000000E+00 -0.11995370743E+04  0.11995370743E+04  0.00000000000E+00 0. -1.
         23    2    1    2    0    0  0.32648220186E+03  0.41461772787E+03 -0.10851815565E+04  0.12100593971E+04  0.90145690754E+02 0.  0.
         13    1    3    3    0    0  0.16012235253E+03  0.14305616340E+03 -0.38427272271E+03  0.44019286578E+03  0.00000000000E+00 0.  1.
        -13    1    3    3    0    0  0.16635984933E+03  0.27156156447E+03 -0.70090883381E+03  0.76986653134E+03  0.00000000000E+00 0. -1.
         22    1    1    2    0    0 -0.32648220186E+03 -0.41461772787E+03  0.12891694046E+04  0.13930025995E+04  0.00000000000E+00 0.  1.
<mgrwt>
<rscale>  0 0.25950570E+04</rscale>
<asrwt>0</asrwt>
<pdfrwt beam="1">  1        1 0.18454417E+00 0.25950570E+04</pdfrwt>
<pdfrwt beam="2">  1       -1 0.21592691E+00 0.25950570E+04</pdfrwt>
<totfact> 0.11044706E+00</totfact>
</mgrwt>
</event>
<event>
 6    1  0.1614874E-005  0.3555628E+04  0.7818608E-02  0.8100732E-01
          2   -1    0    0  501    0  0.00000000000E+00  0.00000000000E+00  0.25227561297E+04  0.25227561297E+04  0.00000000000E+00 0. -1.
         -2   -1    0    0    0  501 -0.00000000000E+00 -0.00000000000E+00 -0.12528449485E+04  0.12528449485E+04  0.00000000000E+00 0.  1.
         23    2    1    2    0    0 -0.15136755454E+03  0.17687382145E+04  0.71189786818E+03  0.19147609816E+04  0.90355043919E+02 0.  0.
         11    1    3    3    0    0 -0.10895899521E+03  0.13654727100E+04  0.58881063521E+03  0.14910015924E+04  0.00000000000E+00 0. -1.
        -11    1    3    3    0    0 -0.42408559331E+02  0.40326550447E+03  0.12308723297E+03  0.42375938918E+03  0.00000000000E+00 0.  1.
         22    1    1    2    0    0  0.15136755454E+03 -0.17687382145E+04  0.55801331306E+03  0.18608400967E+04  0.00000000000E+00 0. -1.
<mgrwt>
<rscale>  0 0.35556278E+04</rscale>
<asrwt>0</asrwt>
<pdfrwt beam="1">  1        2 0.38811633E+00 0.35556278E+04</pdfrwt>
<pdfrwt beam="2">  1       -2 0.19274538E+00 0.35556278E+04</pdfrwt>
<totfact> 0.41033629E-01</totfact>
</mgrwt>
</event>
<event>
 6    1  0.1614874E-005  0.4645938E+04  0.7818608E-02  0.7885574E-01
         -2   -1    0    0    0  501 -0.00000000000E+00  0.00000000000E+00  0.21010807193E+04  0.21010807193E+04  0.00000000000E+00 0.  1.
          2   -1    0    0  501    0  0.00000000000E+00 -0.00000000000E+00 -0.25682896890E+04  0.25682896890E+04  0.00000000000E+00 0. -1.
         23    2    1    2    0    0  0.75991442838E+02 -0.13050442584E+04 -0.21624703193E+04  0.25286167421E+04  0.93324866138E+02 0.  0.
         11    1    3    3    0    0  0.26017338622E+02 -0.34600864774E+03 -0.49772302229E+03  0.60673477990E+03  0.00000000000E+00 0. -1.
        -11    1    3    3    0    0  0.49974104216E+02 -0.95903561064E+03 -0.16647472971E+04  0.19218819622E+04  0.00000000000E+00 0.  1.
         22    1    1    2    0    0 -0.75991442838E+02  0.13050442584E+04  0.16952613497E+04  0.21407536662E+04  0.00000000000E+00 0.  1.
<mgrwt>
<rscale>  0 0.46459376E+04</rscale>
<asrwt>0</asrwt>
<pdfrwt beam="1">  1        2 0.39512149E+00 0.46459376E+04</pdfrwt>
<pdfrwt beam="2">  1       -2 0.32324319E+00 0.46459376E+04</pdfrwt>
<totfact> 0.54380356E-02</totfact>
</mgrwt>
</event>
<event>
 6    1  0.1614874E-005  0.2352488E+04  0.7818608E-02  0.8457509E-01
         -2   -1    0    0    0  501 -0.00000000000E+00  0.00000000000E+00  0.90819761797E+03  0.90819761797E+03  0.00000000000E+00 0.  1.
          2   -1    0    0  501    0  0.00000000000E+00 -0.00000000000E+00 -0.15234015374E+04  0.15234015374E+04  0.00000000000E+00 0. -1.
         23    2    1    2    0    0 -0.11680648013E+04  0.11718823841E+03 -0.33100975492E+03  0.12237602644E+04  0.99565373733E+02 0.  0.
         11    1    3    3    0    0 -0.12074736489E+03  0.21552707256E+02 -0.65667821934E+02  0.13912838731E+03  0.00000000000E+00 0.  1.
        -11    1    3    3    0    0 -0.10473174364E+04  0.95635531150E+02 -0.26534193299E+03  0.10846318771E+04  0.00000000000E+00 0. -1.
         22    1    1    2    0    0  0.11680648013E+04 -0.11718823841E+03 -0.28419416448E+03  0.12078388909E+04  0.00000000000E+00 0.  1.
<mgrwt>
<rscale>  0 0.23524877E+04</rscale>
<asrwt>0</asrwt>
<pdfrwt beam="1">  1        2 0.23436947E+00 0.23524877E+04</pdfrwt>
<pdfrwt beam="2">  1       -2 0.13972271E+00 0.23524877E+04</pdfrwt>
<totfact> 0.40137053E+00</totfact>
</mgrwt>
</event>
<event>
 6    1  0.1614874E-005  0.2021129E+04  0.7818608E-02  0.8596805E-01
         -1   -1    0    0    0  501 -0.00000000000E+00  0.00000000000E+00  0.61628175764E+03  0.61628175764E+03  0.00000000000E+00 0.  1.
          1   -1    0    0  501    0  0.00000000000E+00 -0.00000000000E+00 -0.16571004582E+04  0.16571004582E+04  0.00000000000E+00 0. -1.
         23    2    1    2    0    0  0.78579643976E+03  0.60354874712E+02  0.18714486941E+03  0.81426834612E+03  0.83011937109E+02 0.  0.
         11    1    3    3    0    0  0.66527066007E+03  0.75727706127E+02  0.17565387544E+03  0.69222396706E+03  0.00000000000E+00 0.  1.
        -11    1    3    3    0    0  0.12052577969E+03 -0.15372831415E+02  0.11490993972E+02  0.12204437905E+03  0.00000000000E+00 0. -1.
         22    1    1    2    0    0 -0.78579643976E+03 -0.60354874712E+02 -0.12279635700E+04  0.14591138697E+04  0.00000000000E+00 0. -1.
<mgrwt>
<rscale>  0 0.20211292E+04</rscale>
<asrwt>0</asrwt>
<pdfrwt beam="1">  1        1 0.25493853E+00 0.20211292E+04</pdfrwt>
<pdfrwt beam="2">  1       -1 0.94812581E-01 0.20211292E+04</pdfrwt>
<totfact> 0.50775795E+00</totfact>
</mgrwt>
</event>
<event>
 6    1  0.1614874E-005  0.3677538E+04  0.7818608E-02  0.8072958E-01
         -2   -1    0    0    0  501 -0.00000000000E+00  0.00000000000E+00  0.12164533769E+04  0.12164533769E+04  0.00000000000E+00 0.  1.
          2   -1    0    0  501    0  0.00000000000E+00 -0.00000000000E+00 -0.27794500775E+04  0.27794500775E+04  0.00000000000E+00 0. -1.
         23    2    1    2    0    0 -0.63097275236E+03  0.43779233319E+03  0.10319060585E+04  0.12897421380E+04  0.93893172226E+02 0.  0.
         11    1    3    3    0    0 -0.37625449584E+03  0.24770786482E+03  0.52889482757E+03  0.69473474835E+03  0.00000000000E+00 0. -1.
        -11    1    3    3    0    0 -0.25471825653E+03  0.19008446837E+03  0.50301123093E+03  0.59500738968E+03  0.00000000000E+00 0.  1.
         22    1    1    2    0    0  0.63097275236E+03 -0.43779233319E+03 -0.25949027591E+04  0.27061613164E+04  0.00000000000E+00 0. -1.
<mgrwt>
<rscale>  0 0.36775380E+04</rscale>
<asrwt>0</asrwt>
<pdfrwt beam="1">  1        2 0.42760770E+00 0.36775380E+04</pdfrwt>
<pdfrwt beam="2">  1       -2 0.18714667E+00 0.36775380E+04</pdfrwt>
<totfact> 0.31213077E-01</totfact>
</mgrwt>
</event>
<event>
 6    1  0.1614874E-005  0.1312840E+04  0.7818608E-02  0.9019445E-01
         -2   -1    0    0    0  501 -0.00000000000E+00  0.00000000000E+00  0.60458352310E+03  0.60458352310E+03  0.00000000000E+00 0.  1.
          2   -1    0    0  501    0  0.00000000000E+00 -0.00000000000E+00 -0.71270039420E+03  0.71270039420E+03  0.00000000000E+00 0. -1.
         23    2    1    2    0    0 -0.46699302577E+03  0.17219729193E+03  0.37034326448E+03  0.62687932954E+03  0.89939795334E+02 0.  0.
         13    1    3    3    0    0 -0.12021087960E+03  0.45004672011E+01  0.97341067880E+02  0.15474557595E+03  0.00000000000E+00 0. -1.
        -13    1    3    3    0    0 -0.34678214617E+03  0.16769682473E+03  0.27300219660E+03  0.47213375359E+03  0.00000000000E+00 0.  1.
         22    1    1    2    0    0  0.46699302577E+03 -0.17219729193E+03 -0.47846013558E+03  0.69040458777E+03  0.00000000000E+00 0. -1.
<mgrwt>
<rscale>  0 0.13128395E+04</rscale>
<asrwt>0</asrwt>
<pdfrwt beam="1">  1        2 0.10964621E+00 0.13128395E+04</pdfrwt>
<pdfrwt beam="2">  1       -2 0.93012850E-01 0.13128395E+04</pdfrwt>
<totfact> 0.38412447E+01</totfact>
</mgrwt>
</event>
<event>
 6    1  0.1614874E-005  0.2491567E+04  0.7818608E-02  0.8405996E-01
         -2   -1    0    0    0  501 -0.00000000000E+00  0.00000000000E+00  0.56372772231E+03  0.56372772231E+03  0.00000000000E+00 0.  1.
          2   -1    0    0  501    0  0.00000000000E+00 -0.00000000000E+00 -0.27530601139E+04  0.27530601139E+04  0.00000000000E+00 0. -1.
         23    2    1    2    0    0  0.36368894509E+03 -0.74117426806E+03  0.14261247747E+03  0.84301019527E+03  0.93375190408E+02 0.  0.
         13    1    3    3    0    0  0.21347558639E+03 -0.33956446560E+03  0.48437845530E+02  0.40400752117E+03  0.00000000000E+00 0.  1.
        -13    1    3    3    0    0  0.15021335869E+03 -0.40160980247E+03  0.94174631945E+02  0.43900267410E+03  0.00000000000E+00 0. -1.
         22    1    1    2    0    0 -0.36368894509E+03  0.74117426806E+03 -0.23319448690E+04  0.24737776409E+04  0.00000000000E+00 0. -1.
<mgrwt>
<rscale>  0 0.24915668E+04</rscale>
<asrwt>0</asrwt>
<pdfrwt beam="1">  1        2 0.42354771E+00 0.24915668E+04</pdfrwt>
<pdfrwt beam="2">  1       -2 0.86727342E-01 0.24915668E+04</pdfrwt>
<totfact> 0.25348641E+00</totfact>
</mgrwt>
</event>
<event>
 6    1  0.1614874E-005  0.5165408E+04  0.7818608E-02  0.7803486E-01
         -2   -1    0    0    0  501 -0.00000000000E+00  0.00000000000E+00  0.31217497054E+04  0.31217497054E+04  0.00000000000E+00 0.  1.
          2   -1    0    0  501    0  0.00000000000E+00 -0.00000000000E+00 -0.21367377091E+04  0.21367377091E+04  0.00000000000E+00 0. -1.
         23    2    1    2    0    0  0.25096069261E+04  0.45727166749E+02 -0.12302552299E+03  0.25147736829E+04  0.93453194938E+02 0.  0.
         11    1    3    3    0    0  0.18050538415E+04  0.16355208073E+02 -0.12709816268E+03  0.18095968629E+04  0.00000000000E+00 0. -1.
        -11    1    3    3    0    0  0.70455308461E+03  0.29371958676E+02  0.40726396845E+01  0.70517681994E+03  0.00000000000E+00 0.  1.
         22    1    1    2    0    0 -0.25096069261E+04 -0.45727166749E+02  0.11080375193E+04  0.27437137317E+04  0.00000000000E+00 0. -1.
<mgrwt>
<rscale>  0 0.51654081E+04</rscale>
<asrwt>0</asrwt>
<pdfrwt beam="1">  1        2 0.32872888E+00 0.51654081E+04</pdfrwt>
<pdfrwt beam="2">  1       -2 0.48026918E+00 0.51654081E+04</pdfrwt>
<totfact> 0.89073115E-03</totfact>
</mgrwt>
</event>
<event>
 6    1  0.1614874E-005  0.1098115E+04  0.7818608E-02  0.9207031E-01
          1   -1    0    0  501    0  0.00000000000E+00  0.00000000000E+00  0.22121501111E+04  0.22121501111E+04  0.00000000000E+00 0. -1.
         -1   -1    0    0    0  501 -0.00000000000E+00 -0.00000000000E+00 -0.13627653884E+03  0.13627653884E+03  0.00000000000E+00 0.  1.
         23    2    1    2    0    0  0.51924164563E+03 -0.16173597595E+03  0.11288473321E+04  0.12563510518E+04  0.91385194148E+02 0.  0.
         11    1    3    3    0    0  0.44595858938E+03 -0.17096460352E+03  0.97926170816E+03  0.10895234978E+04  0.00000000000E+00 0. -1.
        -11    1    3    3    0    0  0.73283056250E+02  0.92286275648E+01  0.14958562397E+03  0.16682755408E+03  0.00000000000E+00 0.  1.
         22    1    1    2    0    0 -0.51924164563E+03  0.16173597595E+03  0.94702624009E+03  0.10920755981E+04  0.00000000000E+00 0. -1.
<mgrwt>
<rscale>  0 0.10981150E+04</rscale>
<asrwt>0</asrwt>
<pdfrwt beam="1">  1        1 0.34033076E+00 0.10981150E+04</pdfrwt>
<pdfrwt beam="2">  1       -1 0.20965623E-01 0.10981150E+04</pdfrwt>
<totfact> 0.40459393E+01</totfact>
</mgrwt>
</event>
<event>
 6    1  0.1614874E-005  0.3639476E+04  0.7818608E-02  0.8081509E-01
          1   -1    0    0  501    0  0.00000000000E+00  0.00000000000E+00  0.32807002374E+04  0.32807002374E+04  0.00000000000E+00 0. -1.
         -1   -1    0    0    0  501 -0.00000000000E+00 -0.00000000000E+00 -0.10093716169E+04  0.10093716169E+04  0.00000000000E+00 0.  1.
         23    2    1    2    0    0 -0.66146047415E+03  0.16868450297E+04  0.95291665013E+03  0.20492714980E+04  0.92127180888E+02 0.  0.
         11    1    3    3    0    0 -0.50248199471E+03  0.12778559399E+04  0.76608609420E+03  0.15723523339E+04  0.00000000000E+00 0. -1.
        -11    1    3    3    0    0 -0.15897847944E+03  0.40898908979E+03  0.18683055593E+03  0.47691916413E+03  0.00000000000E+00 0.  1.
         22    1    1    2    0    0  0.66146047415E+03 -0.16868450297E+04  0.13184119705E+04  0.22408003563E+04  0.00000000000E+00 0. -1.
<mgrwt>
<rscale>  0 0.36394756E+04</rscale>
<asrwt>0</asrwt>
<pdfrwt beam="1">  1        1 0.50472311E+00 0.36394756E+04</pdfrwt>
<pdfrwt beam="2">  1       -1 0.15528794E+00 0.36394756E+04</pdfrwt>
<totfact> 0.94472110E-02</totfact>
</mgrwt>
</event>
<event>
 6    1  0.1614874E-005  0.3194084E+04  0.7818608E-02  0.8190381E-01
          1   -1    0    0  501    0  0.00000000000E+00  0.00000000000E+00  0.14537716845E+04  0.14537716845E+04  0.00000000000E+00 0.  1.
         -1   -1    0    0    0  501 -0.00000000000E+00 -0.00000000000E+00 -0.17544314934E+04  0.17544314934E+04  0.00000000000E+00 0. -1.
         23    2    1    2    0    0  0.57200587534E+03 -0.12695955828E+04 -0.93397321078E+03  0.16784484492E+04  0.76286123441E+02 0.  0.
         13    1    3    3    0    0  0.29704589339E+03 -0.60272318385E+03 -0.41410252028E+03  0.78929867378E+03  0.00000000000E+00 0. -1.
        -13    1    3    3    0    0  0.27495998195E+03 -0.66687239899E+03 -0.51987069050E+03  0.88914977537E+03  0.00000000000E+00 0.  1.
         22    1    1    2    0    0 -0.57200587534E+03  0.12695955828E+04  0.63331340185E+03  0.15297547288E+04  0.00000000000E+00 0.  1.
<mgrwt>
<rscale>  0 0.31940838E+04</rscale>
<asrwt>0</asrwt>
<pdfrwt beam="1">  1        1 0.22365718E+00 0.31940838E+04</pdfrwt>
<pdfrwt beam="2">  1       -1 0.26991254E+00 0.31940838E+04</pdfrwt>
<totfact> 0.30506813E-01</totfact>
</mgrwt>
</event>
<event>
 6    1  0.1614874E-005  0.3969532E+04  0.7818608E-02  0.8010721E-01
          1   -1    0    0  501    0  0.00000000000E+00  0.00000000000E+00  0.22139381137E+04  0.22139381137E+04  0.00000000000E+00 0. -1.
         -1   -1    0    0    0  501 -0.00000000000E+00 -0.00000000000E+00 -0.17793160230E+04  0.17793160230E+04  0.00000000000E+00 0.  1.
         23    2    1    2    0    0 -0.15561840428E+04 -0.11122100541E+04 -0.31096559672E+03  0.19402999290E+04  0.96665570784E+02 0.  0.
         11    1    3    3    0    0 -0.57412056855E+03 -0.35710193153E+03 -0.12611166246E+03  0.68777930192E+03  0.00000000000E+00 0.  1.
        -11    1    3    3    0    0 -0.98206347422E+03 -0.75510812256E+03 -0.18485393427E+03  0.12525206270E+04  0.00000000000E+00 0. -1.
         22    1    1    2    0    0  0.15561840428E+04  0.11122100541E+04  0.74558768742E+03  0.20529542077E+04  0.00000000000E+00 0. -1.
<mgrwt>
<rscale>  0 0.39695317E+04</rscale>
<asrwt>0</asrwt>
<pdfrwt beam="1">  1        1 0.34060586E+00 0.39695317E+04</pdfrwt>
<pdfrwt beam="2">  1       -1 0.27374093E+00 0.39695317E+04</pdfrwt>
<totfact> 0.81713925E-02</totfact>
</mgrwt>
</event>
<event>
 6    1  0.1614874E-005  0.1640463E+04  0.7818608E-02  0.8796069E-01
         -1   -1    0    0    0  501 -0.00000000000E+00  0.00000000000E+00  0.42383289907E+03  0.42383289907E+03  0.00000000000E+00 0.  1.
          1   -1    0    0  501    0  0.00000000000E+00 -0.00000000000E+00 -0.15873696678E+04  0.15873696678E+04  0.00000000000E+00 0. -1.
         23    2    1    2    0    0 -0.24767064835E+03  0.77227308675E+03 -0.45499181487E+03  0.93427061813E+03  0.89986475201E+02 0.  0.
         13    1    3    3    0    0 -0.12019163153E+03  0.29632440991E+03 -0.22169426142E+03  0.38910477991E+03  0.00000000000E+00 0.  1.
        -13    1    3    3    0    0 -0.12747901681E+03  0.47594867684E+03 -0.23329755345E+03  0.54516583822E+03  0.00000000000E+00 0. -1.
         22    1    1    2    0    0  0.24767064835E+03 -0.77227308675E+03 -0.70854495383E+03  0.10769319487E+04  0.00000000000E+00 0. -1.
<mgrwt>
<rscale>  0 0.16404627E+04</rscale>
<asrwt>0</asrwt>
<pdfrwt beam="1">  1        1 0.24421071E+00 0.16404627E+04</pdfrwt>
<pdfrwt beam="2">  1       -1 0.65205062E-01 0.16404627E+04</pdfrwt>
<totfact> 0.12981169E+01</totfact>
</mgrwt>
</event>
<event>
 6    1  0.1614874E-005  0.1929588E+04  0.7818608E-02  0.8640267E-01
          2   -1    0    0  501    0  0.00000000000E+00  0.00000000000E+00  0.71587967676E+03  0.71587967676E+03  0.00000000000E+00 0. -1.
         -2   -1    0    0    0  501 -0.00000000000E+00 -0.00000000000E+00 -0.13002572753E+04  0.13002572753E+04  0.00000000000E+00 0.  1.
         23    2    1    2    0    0 -0.74978705103E+03  0.15702230442E+03 -0.90195657563E+03  0.11868643596E+04  0.91020425498E+02 0.  0.
         13    1    3    3    0    0 -0.39745098952E+03  0.12720698453E+03 -0.46619453408E+03  0.62568862031E+03  0.00000000000E+00 0. -1.
        -13    1    3    3    0    0 -0.35233606151E+03  0.29815319892E+02 -0.43576204155E+03  0.56117573931E+03  0.00000000000E+00 0.  1.
         22    1    1    2    0    0  0.74978705103E+03 -0.15702230442E+03  0.31757897704E+03  0.82927259248E+03  0.00000000000E+00 0. -1.
<mgrwt>
<rscale>  0 0.19295883E+04</rscale>
<asrwt>0</asrwt>
<pdfrwt beam="1">  1        2 0.11013534E+00 0.19295883E+04</pdfrwt>
<pdfrwt beam="2">  1       -2 0.20003958E+00 0.19295883E+04</pdfrwt>
<totfact> 0.49420664E+00</totfact>
</mgrwt>
</event>
<event>
 6    1  0.1614874E-005  0.3306878E+04  0.7818608E-02  0.8161147E-01
          2   -1    0    0  501    0  0.00000000000E+00  0.00000000000E+00  0.29132181773E+04  0.29132181773E+04  0.00000000000E+00 0. -1.
         -2   -1    0    0    0  501 -0.00000000000E+00 -0.00000000000E+00 -0.93843333302E+03  0.93843333302E+03  0.00000000000E+00 0.  1.
         23    2    1    2    0    0  0.49906537923E+03 -0.10296889273E+04  0.23762494486E+04  0.26390100265E+04  0.92124581036E+02 0.  0.
         13    1    3    3    0    0  0.43301322150E+03 -0.84051466089E+03  0.20184374640E+04  0.22289134441E+04  0.00000000000E+00 0. -1.
        -13    1    3    3    0    0  0.66052157725E+02 -0.18917426638E+03  0.35781198464E+03  0.41009658247E+03  0.00000000000E+00 0.  1.
         22    1    1    2    0    0 -0.49906537923E+03  0.10296889273E+04 -0.40146460432E+03  0.12126414838E+04  0.00000000000E+00 0.  1.
<mgrwt>
<rscale>  0 0.33068783E+04</rscale>
<asrwt>0</asrwt>
<pdfrwt beam="1">  1        2 0.44818741E+00 0.33068783E+04</pdfrwt>
<pdfrwt beam="2">  1       -2 0.14437436E+00 0.33068783E+04</pdfrwt>
<totfact> 0.54513473E-01</totfact>
</mgrwt>
</event>
<event>
 6    1  0.1614874E-005  0.1504203E+04  0.7818608E-02  0.8881662E-01
         -2   -1    0    0    0  501 -0.00000000000E+00  0.00000000000E+00  0.87036841179E+03  0.87036841179E+03  0.00000000000E+00 0.  1.
          2   -1    0    0  501    0  0.00000000000E+00 -0.00000000000E+00 -0.64990526465E+03  0.64990526465E+03  0.00000000000E+00 0. -1.
         23    2    1    2    0    0 -0.17685988366E+02  0.74805103648E+03  0.62233677152E+02  0.75546669914E+03  0.83449119687E+02 0.  0.
         11    1    3    3    0    0 -0.34643155691E+02  0.36012787507E+03 -0.25882233531E+01  0.36179957647E+03  0.00000000000E+00 0.  1.
        -11    1    3    3    0    0  0.16957167325E+02  0.38792316141E+03  0.64821900505E+02  0.39366712267E+03  0.00000000000E+00 0. -1.
         22    1    1    2    0    0  0.17685988366E+02 -0.74805103648E+03  0.15822946999E+03  0.76480697731E+03  0.00000000000E+00 0.  1.
<mgrwt>
<rscale>  0 0.15042035E+04</rscale>
<asrwt>0</asrwt>
<pdfrwt beam="1">  1        2 0.99985426E-01 0.15042035E+04</pdfrwt>
<pdfrwt beam="2">  1       -2 0.13390283E+00 0.15042035E+04</pdfrwt>
<totfact> 0.17490100E+01</totfact>
</mgrwt>
</event>
<event>
 6    1  0.1614874E-005  0.3973037E+04  0.7818608E-02  0.8010008E-01
          1   -1    0    0  501    0  0.00000000000E+00  0.00000000000E+00  0.42040040827E+04  0.42040040827E+04  0.00000000000E+00 0. -1.
         -1   -1    0    0    0  501 -0.00000000000E+00 -0.00000000000E+00 -0.93868977106E+03  0.93868977106E+03  0.00000000000E+00 0.  1.
         23    2    1    2    0    0 -0.19574078578E+04 -0.32823532808E+03  0.15841641489E+04  0.25416460222E+04  0.10585130804E+03 0.  0.
         11    1    3    3    0    0 -0.14264761145E+04 -0.28262414200E+03  0.11835592729E+04  0.18749728167E+04  0.00000000000E+00 0. -1.
        -11    1    3    3    0    0 -0.53093174325E+03 -0.45611186081E+02  0.40060487600E+03  0.66667320552E+03  0.00000000000E+00 0.  1.
         22    1    1    2    0    0  0.19574078578E+04  0.32823532808E+03  0.16811501628E+04  0.26010478316E+04  0.00000000000E+00 0. -1.
<mgrwt>
<rscale>  0 0.39730369E+04</rscale>
<asrwt>0</asrwt>
<pdfrwt beam="1">  1        1 0.64676985E+00 0.39730369E+04</pdfrwt>
<pdfrwt beam="2">  1       -1 0.14441381E+00 0.39730369E+04</pdfrwt>
<totfact> 0.18916525E-02</totfact>
</mgrwt>
</event>
<event>
 6    1  0.1614874E-005  0.1677679E+04  0.7818608E-02  0.8774198E-01
          2   -1    0    0  501    0  0.00000000000E+00  0.00000000000E+00  0.84443965935E+03  0.84443965935E+03  0.00000000000E+00 0. -1.
         -2   -1    0    0    0  501 -0.00000000000E+00 -0.00000000000E+00 -0.83327645830E+03  0.83327645830E+03  0.00000000000E+00 0.  1.
         23    2    1    2    0    0 -0.64800254935E+03  0.51837222213E+03  0.10996544561E+03  0.84202541640E+03  0.91089724958E+02 0.  0.
         11    1    3    3    0    0 -0.46197498639E+03  0.38705025070E+03  0.40894104514E+02  0.60407045318E+03  0.00000000000E+00 0.  1.
        -11    1    3    3    0    0 -0.18602756295E+03  0.13132197143E+03  0.69071341100E+02  0.23795496322E+03  0.00000000000E+00 0. -1.
         22    1    1    2    0    0  0.64800254935E+03 -0.51837222213E+03 -0.98802244564E+02  0.83569070126E+03  0.00000000000E+00 0. -1.
<mgrwt>
<rscale>  0 0.16776790E+04</rscale>
<asrwt>0</asrwt>
<pdfrwt beam="1">  1        2 0.12991379E+00 0.16776790E+04</pdfrwt>
<pdfrwt beam="2">  1       -2 0.12819638E+00 0.16776790E+04</pdfrwt>
<totfact> 0.13732927E+01</totfact>
</mgrwt>
</event>
<event>
 6    1  0.1614874E-005  0.2450975E+04  0.7818608E-02  0.8420662E-01
         -2   -1    0    0    0  501 -0.00000000000E+00  0.00000000000E+00  0.13495331579E+04  0.13495331579E+04  0.00000000000E+00 0.  1.
          2   -1    0    0  501    0  0.00000000000E+00 -0.00000000000E+00 -0.11128436088E+04  0.11128436088E+04  0.00000000000E+00 0. -1.
         23    2    1    2    0    0 -0.19033943919E+03  0.11325876415E+04 -0.30620229353E+03  0.11920557756E+04  0.90847452603E+02 0.  0.
         13    1    3    3    0    0  0.43379002932E+01  0.81618294244E+02 -0.37641305045E+02  0.89984616351E+02  0.00000000000E+00 0. -1.
        -13    1    3    3    0    0 -0.19467733949E+03  0.10509693473E+04 -0.26856098848E+03  0.11020711592E+04  0.00000000000E+00 0.  1.
         22    1    1    2    0    0  0.19033943919E+03 -0.11325876415E+04  0.54289184255E+03  0.12703209911E+04  0.00000000000E+00 0.  1.
<mgrwt>
<rscale>  0 0.24509748E+04</rscale>
<asrwt>0</asrwt>
<pdfrwt beam="1">  1        2 0.17120671E+00 0.24509748E+04</pdfrwt>
<pdfrwt beam="2">  1       -2 0.20762048E+00 0.24509748E+04</pdfrwt>
<totfact> 0.22722650E+00</totfact>
</mgrwt>
</event>
<event>
 6    1  0.1614874E-005  0.1316645E+04  0.7818608E-02  0.9016469E-01
          1   -1    0    0  501    0  0.00000000000E+00  0.00000000000E+00  0.10886014195E+04  0.10886014195E+04  0.00000000000E+00 0. -1.
         -1   -1    0    0    0  501 -0.00000000000E+00 -0.00000000000E+00 -0.39811494606E+03  0.39811494606E+03  0.00000000000E+00 0.  1.
         23    2    1    2    0    0  0.49043448281E+03 -0.42283076919E+03  0.45923963289E+03  0.79912132301E+03  0.91553302327E+02 0.  0.
         13    1    3    3    0    0  0.27528569008E+03 -0.27274238998E+03  0.22925406375E+03  0.45025331559E+03  0.00000000000E+00 0. -1.
        -13    1    3    3    0    0  0.21514879273E+03 -0.15008837921E+03  0.22998556914E+03  0.34886800742E+03  0.00000000000E+00 0.  1.
         22    1    1    2    0    0 -0.49043448281E+03  0.42283076919E+03  0.23124684058E+03  0.68759504258E+03  0.00000000000E+00 0.  1.
<mgrwt>
<rscale>  0 0.13166450E+04</rscale>
<asrwt>0</asrwt>
<pdfrwt beam="1">  1        1 0.16747714E+00 0.13166450E+04</pdfrwt>
<pdfrwt beam="2">  1       -1 0.61248454E-01 0.13166450E+04</pdfrwt>
<totfact> 0.34311017E+01</totfact>
</mgrwt>
</event>
<event>
 6    1  0.1614874E-005  0.2206496E+04  0.7818608E-02  0.8515729E-01
          2   -1    0    0  501    0  0.00000000000E+00  0.00000000000E+00  0.19558057479E+04  0.19558057479E+04  0.00000000000E+00 0. -1.
         -2   -1    0    0    0  501 -0.00000000000E+00 -0.00000000000E+00 -0.62232999745E+03  0.62232999745E+03  0.00000000000E+00 0.  1.
         23    2    1    2    0    0 -0.88953799956E+03  0.56615319707E+03  0.29615672098E+03  0.10990015175E+04  0.91039754036E+02 0.  0.
         13    1    3    3    0    0 -0.22721569693E+03  0.10185306519E+03  0.55576709745E+02  0.25512700854E+03  0.00000000000E+00 0. -1.
        -13    1    3    3    0    0 -0.66232230263E+03  0.46430013188E+03  0.24058001124E+03  0.84387450893E+03  0.00000000000E+00 0.  1.
         22    1    1    2    0    0  0.88953799956E+03 -0.56615319707E+03  0.10373190295E+04  0.14791342279E+04  0.00000000000E+00 0. -1.
<mgrwt>
<rscale>  0 0.22064964E+04</rscale>
<asrwt>0</asrwt>
<pdfrwt beam="1">  1        2 0.30089319E+00 0.22064964E+04</pdfrwt>
<pdfrwt beam="2">  1       -2 0.95743078E-01 0.22064964E+04</pdfrwt>
<totfact> 0.59107105E+00</totfact>
</mgrwt>
</event>
<event>
 6    1  0.1614874E-005  0.5586217E+04  0.7818608E-02  0.7743936E-01
         -2   -1    0    0    0  501 -0.00000000000E+00  0.00000000000E+00  0.31331764801E+04  0.31331764801E+04  0.00000000000E+00 0.  1.
          2   -1    0    0  501    0  0.00000000000E+00 -0.00000000000E+00 -0.24899509876E+04  0.24899509876E+04  0.00000000000E+00 0. -1.
         23    2    1    2    0    0 -0.10005188593E+03  0.23115670478E+04 -0.12520663782E+04  0.26322272903E+04  0.87164764132E+02 0.  0.
         11    1    3    3    0    0 -0.80729906392E+02  0.13445639966E+04 -0.77030723780E+03  0.15516903362E+04  0.00000000000E+00 0. -1.
        -11    1    3    3    0    0 -0.19321979537E+02  0.96700305121E+03 -0.48175914036E+03  0.10805369541E+04  0.00000000000E+00 0.  1.
         22    1    1    2    0    0  0.10005188593E+03 -0.23115670478E+04  0.18952918706E+04  0.29909001774E+04  0.00000000000E+00 0.  1.
<mgrwt>
<rscale>  0 0.55862173E+04</rscale>
<asrwt>0</asrwt>
<pdfrwt beam="1">  1        2 0.38306938E+00 0.55862173E+04</pdfrwt>
<pdfrwt beam="2">  1       -2 0.48202715E+00 0.55862173E+04</pdfrwt>
<totfact> 0.52944949E-03</totfact>
</mgrwt>
</event>
<event>
 6    1  0.1614874E-005  0.1028442E+04  0.7818608E-02  0.9277889E-01
         -2   -1    0    0    0  501 -0.00000000000E+00  0.00000000000E+00  0.73927916884E+02  0.73927916884E+02  0.00000000000E+00 0. -1.
          2   -1    0    0  501    0  0.00000000000E+00 -0.00000000000E+00 -0.35767716759E+04  0.35767716759E+04  0.00000000000E+00 0.  1.
         23    2    1    2    0    0 -0.19445994259E+03 -0.32311978680E+03 -0.29853429992E+04  0.30103652252E+04  0.88345347046E+02 0.  0.
         13    1    3    3    0    0 -0.32764713657E+02 -0.13177015125E+03 -0.11564444436E+04  0.11643885306E+04  0.00000000000E+00 0. -1.
        -13    1    3    3    0    0 -0.16169522893E+03 -0.19134963555E+03 -0.18288985556E+04  0.18459766946E+04  0.00000000000E+00 0.  1.
         22    1    1    2    0    0  0.19445994259E+03  0.32311978680E+03 -0.51750075980E+03  0.64033436757E+03  0.00000000000E+00 0. -1.
<mgrwt>
<rscale>  0 0.10284421E+04</rscale>
<asrwt>0</asrwt>
<pdfrwt beam="1">  1        2 0.55027265E+00 0.10284421E+04</pdfrwt>
<pdfrwt beam="2">  1       -2 0.11373524E-01 0.10284421E+04</pdfrwt>
<totfact> 0.41461019E+01</totfact>
</mgrwt>
</event>
<event>
 6    1  0.1614874E-005  0.2049269E+04  0.7818608E-02  0.8583926E-01
          2   -1    0    0  501    0  0.00000000000E+00  0.00000000000E+00  0.17766949009E+04  0.17766949009E+04  0.00000000000E+00 0. -1.
         -2   -1    0    0    0  501 -0.00000000000E+00 -0.00000000000E+00 -0.59091505790E+03  0.59091505790E+03  0.00000000000E+00 0.  1.
         23    2    1    2    0    0 -0.40522287241E+03  0.93391294742E+03  0.70545523576E+03  0.12419498422E+04  0.91506017616E+02 0.  0.
         11    1    3    3    0    0 -0.64277305448E+02  0.13013382030E+03  0.64444101875E+02  0.15880625129E+03  0.00000000000E+00 0. -1.
        -11    1    3    3    0    0 -0.34094556696E+03  0.80377912711E+03  0.64101113388E+03  0.10831435909E+04  0.00000000000E+00 0.  1.
         22    1    1    2    0    0  0.40522287241E+03 -0.93391294742E+03  0.48032460721E+03  0.11256601165E+04  0.00000000000E+00 0. -1.
<mgrwt>
<rscale>  0 0.20492689E+04</rscale>
<asrwt>0</asrwt>
<pdfrwt beam="1">  1        2 0.27333767E+00 0.20492689E+04</pdfrwt>
<pdfrwt beam="2">  1       -2 0.90910010E-01 0.20492689E+04</pdfrwt>
<totfact> 0.84934814E+00</totfact>
</mgrwt>
</event>
<event>
 6    1  0.1614874E-005  0.2921159E+04  0.7818608E-02  0.8266610E-01
          1   -1    0    0  501    0  0.00000000000E+00  0.00000000000E+00  0.32198326653E+04  0.32198326653E+04  0.00000000000E+00 0. -1.
         -1   -1    0    0    0  501 -0.00000000000E+00 -0.00000000000E+00 -0.66254760192E+03  0.66254760192E+03  0.00000000000E+00 0.  1.
         23    2    1    2    0    0  0.70468745730E+03  0.12236046428E+04  0.17689912390E+04  0.22652223009E+04  0.90051843693E+02 0.  0.
         13    1    3    3    0    0  0.41006403044E+03  0.64347897927E+03  0.90817098546E+03  0.11861670391E+04  0.00000000000E+00 0.  1.
        -13    1    3    3    0    0  0.29462342685E+03  0.58012566354E+03  0.86082025356E+03  0.10790552618E+04  0.00000000000E+00 0. -1.
         22    1    1    2    0    0 -0.70468745730E+03 -0.12236046428E+04  0.78829382434E+03  0.16171579663E+04  0.00000000000E+00 0.  1.
<mgrwt>
<rscale>  0 0.29211590E+04</rscale>
<asrwt>0</asrwt>
<pdfrwt beam="1">  1        1 0.49535886E+00 0.29211590E+04</pdfrwt>
<pdfrwt beam="2">  1       -1 0.10193040E+00 0.29211590E+04</pdfrwt>
<totfact> 0.32073819E-01</totfact>
</mgrwt>
</event>
<event>
 6    1  0.1614874E-005  0.1455268E+04  0.7818608E-02  0.8914756E-01
          2   -1    0    0  501    0  0.00000000000E+00  0.00000000000E+00  0.38781476971E+04  0.38781476971E+04  0.00000000000E+00 0. -1.
         -2   -1    0    0    0  501 -0.00000000000E+00 -0.00000000000E+00 -0.13652174047E+03  0.13652174047E+03  0.00000000000E+00 0.  1.
         23    2    1    2    0    0  0.69224529729E+03  0.19347084071E+03  0.16183743925E+04  0.17730557950E+04  0.89200112932E+02 0.  0.
         13    1    3    3    0    0  0.47995594463E+03  0.93091314601E+02  0.11254967476E+04  0.12270968301E+04  0.00000000000E+00 0. -1.
        -13    1    3    3    0    0  0.21228935266E+03  0.10037952611E+03  0.49287764489E+03  0.54595896490E+03  0.00000000000E+00 0.  1.
         22    1    1    2    0    0 -0.69224529729E+03 -0.19347084071E+03  0.21232515642E+04  0.22416136426E+04  0.00000000000E+00 0. -1.
<mgrwt>
<rscale>  0 0.14552683E+04</rscale>
<asrwt>0</asrwt>
<pdfrwt beam="1">  1        2 0.59663803E+00 0.14552683E+04</pdfrwt>
<pdfrwt beam="2">  1       -2 0.21003348E-01 0.14552683E+04</pdfrwt>
<totfact> 0.83147212E+00</totfact>
</mgrwt>
</event>
<event>
 6    1  0.1614874E-005  0.5149962E+03  0.7818608E-02  0.1009937E+00
         -2   -1    0    0    0  501 -0.00000000000E+00  0.00000000000E+00  0.90112971432E+02  0.90112971432E+02  0.00000000000E+00 0.  1.
          2   -1    0    0  501    0  0.00000000000E+00 -0.00000000000E+00 -0.73580171462E+03  0.73580171462E+03  0.00000000000E+00 0. -1.
         23    2    1    2    0    0 -0.88268618923E+02  0.10679684450E+03 -0.35280973065E+01  0.16897693390E+03  0.96663548660E+02 0.  0.
         13    1    3    3    0    0 -0.31127845024E+02  0.10734919487E+03 -0.37232597927E+01  0.11183315715E+03  0.00000000000E+00 0.  1.
        -13    1    3    3    0    0 -0.57140773899E+02 -0.55235037510E+00  0.19516248628E+00  0.57143776749E+02  0.00000000000E+00 0. -1.
         22    1    1    2    0    0  0.88268618923E+02 -0.10679684450E+03 -0.64216064588E+03  0.65693775215E+03  0.00000000000E+00 0. -1.
<mgrwt>
<rscale>  0 0.51499623E+03</rscale>
<asrwt>0</asrwt>
<pdfrwt beam="1">  1        2 0.11320026E+00 0.51499623E+03</pdfrwt>
<pdfrwt beam="2">  1       -2 0.13863534E-01 0.51499623E+03</pdfrwt>
<totfact> 0.15414108E+03</totfact>
</mgrwt>
</event>
<event>
 6    1  0.1614874E-005  0.1559638E+04  0.7818608E-02  0.8845735E-01
          2   -1    0    0  501    0  0.00000000000E+00  0.00000000000E+00  0.46366850164E+03  0.46366850164E+03  0.00000000000E+00 0.  1.
         -2   -1    0    0    0  501 -0.00000000000E+00 -0.00000000000E+00 -0.13115361344E+04  0.13115361344E+04  0.00000000000E+00 0. -1.
         23    2    1    2    0    0  0.62691178942E+03 -0.18388872725E+03  0.53421927965E+02  0.66203064785E+03  0.92721198137E+02 0.  0.
         13    1    3    3    0    0  0.47819456686E+03 -0.13354409858E+03  0.79672508422E+02  0.50284369206E+03  0.00000000000E+00 0.  1.
        -13    1    3    3    0    0  0.14871722256E+03 -0.50344628670E+02 -0.26250580457E+02  0.15918695579E+03  0.00000000000E+00 0. -1.
         22    1    1    2    0    0 -0.62691178942E+03  0.18388872725E+03 -0.90128956073E+03  0.11131739882E+04  0.00000000000E+00 0. -1.
<mgrwt>
<rscale>  0 0.15596384E+04</rscale>
<asrwt>0</asrwt>
<pdfrwt beam="1">  1        2 0.71333615E-01 0.15596384E+04</pdfrwt>
<pdfrwt beam="2">  1       -2 0.20177479E+00 0.15596384E+04</pdfrwt>
<totfact> 0.83611540E+00</totfact>
</mgrwt>
</event>
<event>
 6    1  0.1614874E-005  0.4657890E+04  0.7818608E-02  0.7883563E-01
          2   -1    0    0  501    0  0.00000000000E+00  0.00000000000E+00  0.23094698341E+04  0.23094698341E+04  0.00000000000E+00 0. -1.
         -2   -1    0    0    0  501 -0.00000000000E+00 -0.00000000000E+00 -0.23485847705E+04  0.23485847705E+04  0.00000000000E+00 0.  1.
         23    2    1    2    0    0  0.22821605563E+04 -0.45430979734E+03  0.53287163080E+02  0.23292797454E+04  0.89724098185E+02 0.  0.
         13    1    3    3    0    0  0.12959961784E+04 -0.21295922344E+03  0.35417556945E+02  0.13138539221E+04  0.00000000000E+00 0. -1.
        -13    1    3    3    0    0  0.98616437791E+03 -0.24135057390E+03  0.17869606135E+02  0.10154258233E+04  0.00000000000E+00 0.  1.
         22    1    1    2    0    0 -0.22821605563E+04  0.45430979734E+03 -0.92402099435E+02  0.23287748592E+04  0.00000000000E+00 0. -1.
<mgrwt>
<rscale>  0 0.46578904E+04</rscale>
<asrwt>0</asrwt>
<pdfrwt beam="1">  1        2 0.35530305E+00 0.46578904E+04</pdfrwt>
<pdfrwt beam="2">  1       -2 0.36132073E+00 0.46578904E+04</pdfrwt>
<totfact> 0.44187535E-02</totfact>
</mgrwt>
</event>
<event>
 6    1  0.1614874E-005  0.4885548E+04  0.7818608E-02  0.7846409E-01
         -2   -1    0    0    0  501 -0.00000000000E+00  0.00000000000E+00  0.21974381790E+04  0.21974381790E+04  0.00000000000E+00 0.  1.
          2   -1    0    0  501    0  0.00000000000E+00 -0.00000000000E+00 -0.27155011605E+04  0.27155011605E+04  0.00000000000E+00 0. -1.
         23    2    1    2    0    0  0.70411400094E+03  0.14275138867E+03 -0.26060432604E+04  0.27048143135E+04  0.91676115397E+02 0.  0.
         11    1    3    3    0    0  0.36940040590E+03  0.10472061926E+03 -0.15187167424E+04  0.15665004346E+04  0.00000000000E+00 0. -1.
        -11    1    3    3    0    0  0.33471359504E+03  0.38030769401E+02 -0.10873265180E+04  0.11383138789E+04  0.00000000000E+00 0.  1.
         22    1    1    2    0    0 -0.70411400094E+03 -0.14275138867E+03  0.20879802789E+04  0.22081250260E+04  0.00000000000E+00 0.  1.
<mgrwt>
<rscale>  0 0.48855485E+04</rscale>
<asrwt>0</asrwt>
<pdfrwt beam="1">  1        2 0.41776941E+00 0.48855485E+04</pdfrwt>
<pdfrwt beam="2">  1       -2 0.33806741E+00 0.48855485E+04</pdfrwt>
<totfact> 0.35306536E-02</totfact>
</mgrwt>
</event>
<event>
 6    1  0.1614874E-005  0.4335574E+04  0.7818608E-02  0.7940073E-01
         -1   -1    0    0    0  501 -0.00000000000E+00  0.00000000000E+00  0.32287960910E+04  0.32287960910E+04  0.00000000000E+00 0.  1.
          1   -1    0    0  501    0  0.00000000000E+00 -0.00000000000E+00 -0.14554339372E+04  0.14554339372E+04  0.00000000000E+00 0. -1.
         23    2    1    2    0    0  0.57337635138E+03 -0.20833994310E+04  0.71383987915E+03  0.22775931465E+04  0.92463713929E+02 0.  0.
         11    1    3    3    0    0  0.40365698145E+03 -0.12985634024E+04  0.44654311678E+03  0.14312954356E+04  0.00000000000E+00 0.  1.
        -11    1    3    3    0    0  0.16971936993E+03 -0.78483602863E+03  0.26729676237E+03  0.84629771093E+03  0.00000000000E+00 0. -1.
         22    1    1    2    0    0 -0.57337635138E+03  0.20833994310E+04  0.10595222747E+04  0.24066368816E+04  0.00000000000E+00 0.  1.
<mgrwt>
<rscale>  0 0.43355735E+04</rscale>
<asrwt>0</asrwt>
<pdfrwt beam="1">  1        1 0.22391291E+00 0.43355735E+04</pdfrwt>
<pdfrwt beam="2">  1       -1 0.49673786E+00 0.43355735E+04</pdfrwt>
<totfact> 0.83917024E-03</totfact>
</mgrwt>
</event>
<event>
 6    1  0.1614874E-005  0.2286897E+04  0.7818608E-02  0.8483105E-01
          2   -1    0    0  501    0  0.00000000000E+00  0.00000000000E+00  0.25013673487E+04  0.25013673487E+04  0.00000000000E+00 0. -1.
         -2   -1    0    0    0  501 -0.00000000000E+00 -0.00000000000E+00 -0.52270399018E+03  0.52270399018E+03  0.00000000000E+00 0.  1.
         23    2    1    2    0    0 -0.57515538801E+03 -0.76738725471E+03  0.18099339755E+04  0.20503380470E+04  0.91313700624E+02 0.  0.
         13    1    3    3    0    0 -0.48569615212E+03 -0.65148915920E+03  0.15980469514E+04  0.17927891498E+04  0.00000000000E+00 0. -1.
        -13    1    3    3    0    0 -0.89459235897E+02 -0.11589809551E+03  0.21188702414E+03  0.25754889716E+03  0.00000000000E+00 0.  1.
         22    1    1    2    0    0  0.57515538801E+03  0.76738725471E+03  0.16872938293E+03  0.97373329188E+03  0.00000000000E+00 0.  1.
<mgrwt>
<rscale>  0 0.22868972E+04</rscale>
<asrwt>0</asrwt>
<pdfrwt beam="1">  1        2 0.38482574E+00 0.22868972E+04</pdfrwt>
<pdfrwt beam="2">  1       -2 0.80416000E-01 0.22868972E+04</pdfrwt>
<totfact> 0.43085900E+00</totfact>
</mgrwt>
</event>
<event>
 6    1  0.1614874E-005  0.1049382E+04  0.7818608E-02  0.9255982E-01
          1   -1    0    0  501    0  0.00000000000E+00  0.00000000000E+00  0.10110117290E+04  0.10110117290E+04  0.00000000000E+00 0. -1.
         -1   -1    0    0    0  501 -0.00000000000E+00 -0.00000000000E+00 -0.27230207515E+03  0.27230207515E+03  0.00000000000E+00 0.  1.
         23    2    1    2    0    0  0.21807203286E+02 -0.42073310329E+03  0.74634135688E+03  0.86194681298E+03  0.91842196773E+02 0.  0.
         13    1    3    3    0    0  0.12105608332E+02 -0.53531231807E+02  0.16869552262E+03  0.17739875390E+03  0.00000000000E+00 0.  1.
        -13    1    3    3    0    0  0.97015949541E+01 -0.36720187148E+03  0.57764583425E+03  0.68454805908E+03  0.00000000000E+00 0. -1.
         22    1    1    2    0    0 -0.21807203286E+02  0.42073310329E+03 -0.76317030773E+01  0.42136699112E+03  0.00000000000E+00 0.  1.
<mgrwt>
<rscale>  0 0.10493819E+04</rscale>
<asrwt>0</asrwt>
<pdfrwt beam="1">  1        1 0.15554026E+00 0.10493819E+04</pdfrwt>
<pdfrwt beam="2">  1       -1 0.41892627E-01 0.10493819E+04</pdfrwt>
<totfact> 0.82893075E+01</totfact>
</mgrwt>
</event>
<event>
 6    1  0.1614874E-005  0.2481532E+03  0.7818608E-02  0.1114478E+00
          1   -1    0    0  501    0  0.00000000000E+00  0.00000000000E+00  0.67421357755E+03  0.67421357755E+03  0.00000000000E+00 0. -1.
         -1   -1    0    0    0  501 -0.00000000000E+00 -0.00000000000E+00 -0.22834018765E+02  0.22834018765E+02  0.00000000000E+00 0.  1.
         23    2    1    2    0    0  0.39442326524E+01  0.10857891182E+03  0.35689312790E+03  0.38315717748E+03  0.87360064378E+02 0.  0.
         13    1    3    3    0    0  0.41540853134E+02  0.32264067103E+02  0.16677486863E+03  0.17487272318E+03  0.00000000000E+00 0. -1.
        -13    1    3    3    0    0 -0.37596620481E+02  0.76314844713E+02  0.19011825927E+03  0.20828445430E+03  0.00000000000E+00 0.  1.
         22    1    1    2    0    0 -0.39442326524E+01 -0.10857891182E+03  0.29448643088E+03  0.31389041884E+03  0.00000000000E+00 0.  1.
<mgrwt>
<rscale>  0 0.24815322E+03</rscale>
<asrwt>0</asrwt>
<pdfrwt beam="1">  1        1 0.10372515E+00 0.24815322E+03</pdfrwt>
<pdfrwt beam="2">  1       -1 0.35129265E-02 0.24815322E+03</pdfrwt>
<totfact> 0.88177477E+03</totfact>
</mgrwt>
</event>
<event>
 6    1  0.1614874E-005  0.3290463E+04  0.7818608E-02  0.8165326E-01
          2   -1    0    0  501    0  0.00000000000E+00  0.00000000000E+00  0.22646781222E+04  0.22646781222E+04  0.00000000000E+00 0. -1.
         -2   -1    0    0    0  501 -0.00000000000E+00 -0.00000000000E+00 -0.11952193164E+04  0.11952193164E+04  0.00000000000E+00 0.  1.
         23    2    1    2    0    0  0.59774787643E+03 -0.14554291314E+04  0.10359979567E+04  0.18861451999E+04  0.93142195665E+02 0.  0.
         13    1    3    3    0    0  0.30592711146E+03 -0.69939297753E+03  0.45084370479E+03  0.88656752743E+03  0.00000000000E+00 0. -1.
        -13    1    3    3    0    0  0.29182076497E+03 -0.75603615389E+03  0.58515425190E+03  0.99957767251E+03  0.00000000000E+00 0.  1.
         22    1    1    2    0    0 -0.59774787643E+03  0.14554291314E+04  0.33460849093E+02  0.15737522387E+04  0.00000000000E+00 0.  1.
<mgrwt>
<rscale>  0 0.32904632E+04</rscale>
<asrwt>0</asrwt>
<pdfrwt beam="1">  1        2 0.34841202E+00 0.32904632E+04</pdfrwt>
<pdfrwt beam="2">  1       -2 0.18387990E+00 0.32904632E+04</pdfrwt>
<totfact> 0.67667613E-01</totfact>
</mgrwt>
</event>
<event>
 6    1  0.1614874E-005  0.2282071E+04  0.7818608E-02  0.8485024E-01
          2   -1    0    0  501    0  0.00000000000E+00  0.00000000000E+00  0.11049656302E+04  0.11049656302E+04  0.00000000000E+00 0. -1.
         -2   -1    0    0    0  501 -0.00000000000E+00 -0.00000000000E+00 -0.11782823137E+04  0.11782823137E+04  0.00000000000E+00 0.  1.
         23    2    1    2    0    0 -0.76488476245E+03  0.52453686766E+03  0.62572756819E+03  0.11218477152E+04  0.82581360948E+02 0.  0.
         13    1    3    3    0    0 -0.34469912830E+03  0.23807692030E+03  0.33235894210E+03  0.53475281712E+03  0.00000000000E+00 0.  1.
        -13    1    3    3    0    0 -0.42018563415E+03  0.28645994736E+03  0.29336862609E+03  0.58709489809E+03  0.00000000000E+00 0. -1.
         22    1    1    2    0    0  0.76488476245E+03 -0.52453686766E+03 -0.69904425165E+03  0.11614002287E+04  0.00000000000E+00 0.  1.
<mgrwt>
<rscale>  0 0.22820705E+04</rscale>
<asrwt>0</asrwt>
<pdfrwt beam="1">  1        2 0.16999471E+00 0.22820705E+04</pdfrwt>
<pdfrwt beam="2">  1       -2 0.18127420E+00 0.22820705E+04</pdfrwt>
<totfact> 0.34898277E+00</totfact>
</mgrwt>
</event>
<event>
 6    1  0.1614874E-005  0.1073593E+04  0.7818608E-02  0.9231319E-01
         -1   -1    0    0    0  501 -0.00000000000E+00  0.00000000000E+00  0.62000050772E+03  0.62000050772E+03  0.00000000000E+00 0.  1.
          1   -1    0    0  501    0  0.00000000000E+00 -0.00000000000E+00 -0.46475878614E+03  0.46475878614E+03  0.00000000000E+00 0. -1.
         23    2    1    2    0    0  0.81877338857E+02 -0.49469441066E+03  0.26046703294E+03  0.57241290253E+03  0.91580550190E+02 0.  0.
         13    1    3    3    0    0  0.29304264540E+01 -0.21361477017E+03  0.74465013184E+02  0.22624079125E+03  0.00000000000E+00 0. -1.
        -13    1    3    3    0    0  0.78946912403E+02 -0.28107964049E+03  0.18600201976E+03  0.34617211128E+03  0.00000000000E+00 0.  1.
         22    1    1    2    0    0 -0.81877338857E+02  0.49469441066E+03 -0.10522531136E+03  0.51234639133E+03  0.00000000000E+00 0. -1.
<mgrwt>
<rscale>  0 0.10735934E+04</rscale>
<asrwt>0</asrwt>
<pdfrwt beam="1">  1        1 0.71501352E-01 0.10735934E+04</pdfrwt>
<pdfrwt beam="2">  1       -1 0.95384693E-01 0.10735934E+04</pdfrwt>
<totfact> 0.51932401E+01</totfact>
</mgrwt>
</event>
<event>
 6    1  0.1614874E-005  0.3279864E+04  0.7818608E-02  0.8168038E-01
          1   -1    0    0  501    0  0.00000000000E+00  0.00000000000E+00  0.25898714601E+04  0.25898714601E+04  0.00000000000E+00 0. -1.
         -1   -1    0    0    0  501 -0.00000000000E+00 -0.00000000000E+00 -0.10384212126E+04  0.10384212126E+04  0.00000000000E+00 0.  1.
         23    2    1    2    0    0  0.51612152710E+03  0.83518120383E+03  0.22276249066E+04  0.24361847734E+04  0.93672042350E+02 0.  0.
         11    1    3    3    0    0  0.34330381573E+03  0.58964697652E+03  0.16406729922E+04  0.17768930565E+04  0.00000000000E+00 0. -1.
        -11    1    3    3    0    0  0.17281771137E+03  0.24553422731E+03  0.58695191435E+03  0.65929171684E+03  0.00000000000E+00 0.  1.
         22    1    1    2    0    0 -0.51612152710E+03 -0.83518120383E+03 -0.67617465912E+03  0.11921078993E+04  0.00000000000E+00 0.  1.
<mgrwt>
<rscale>  0 0.32798643E+04</rscale>
<asrwt>0</asrwt>
<pdfrwt beam="1">  1        1 0.39844176E+00 0.32798643E+04</pdfrwt>
<pdfrwt beam="2">  1       -1 0.15975711E+00 0.32798643E+04</pdfrwt>
<totfact> 0.28593422E-01</totfact>
</mgrwt>
</event>
<event>
 6    1  0.1614874E-005  0.2127882E+04  0.7818608E-02  0.8549060E-01
         -2   -1    0    0    0  501 -0.00000000000E+00  0.00000000000E+00  0.38127114503E+03  0.38127114503E+03  0.00000000000E+00 0.  1.
          2   -1    0    0  501    0  0.00000000000E+00 -0.00000000000E+00 -0.29689383782E+04  0.29689383782E+04  0.00000000000E+00 0. -1.
         23    2    1    2    0    0  0.72487396551E+03  0.59099720335E+03 -0.20880540980E+04  0.22898637093E+04  0.93733296159E+02 0.  0.
         13    1    3    3    0    0  0.40443131004E+03  0.31864698107E+03 -0.10366507568E+04  0.11574737037E+04  0.00000000000E+00 0.  1.
        -13    1    3    3    0    0  0.32044265547E+03  0.27235022228E+03 -0.10514033412E+04  0.11323900056E+04  0.00000000000E+00 0. -1.
         22    1    1    2    0    0 -0.72487396551E+03 -0.59099720335E+03 -0.49961313517E+03  0.10603458139E+04  0.00000000000E+00 0.  1.
<mgrwt>
<rscale>  0 0.21278821E+04</rscale>
<asrwt>0</asrwt>
<pdfrwt beam="1">  1        2 0.45675974E+00 0.21278821E+04</pdfrwt>
<pdfrwt beam="2">  1       -2 0.58657101E-01 0.21278821E+04</pdfrwt>
<totfact> 0.45551938E+00</totfact>
</mgrwt>
</event>
<event>
 6    1  0.1614874E-005  0.2362627E+04  0.7818608E-02  0.8453629E-01
          1   -1    0    0  501    0  0.00000000000E+00  0.00000000000E+00  0.24822230592E+04  0.24822230592E+04  0.00000000000E+00 0. -1.
         -1   -1    0    0    0  501 -0.00000000000E+00 -0.00000000000E+00 -0.56219840492E+03  0.56219840492E+03  0.00000000000E+00 0.  1.
         23    2    1    2    0    0  0.88081688271E+03  0.19618829627E+02  0.19722727063E+04  0.21618382453E+04  0.86381082424E+02 0.  0.
         13    1    3    3    0    0  0.28895456752E+03 -0.33642624149E+02  0.66347710206E+03  0.72445043530E+03  0.00000000000E+00 0. -1.
        -13    1    3    3    0    0  0.59186231518E+03  0.53261453777E+02  0.13087956042E+04  0.14373878100E+04  0.00000000000E+00 0.  1.
         22    1    1    2    0    0 -0.88081688271E+03 -0.19618829627E+02 -0.52248051961E+02  0.88258321889E+03  0.00000000000E+00 0.  1.
<mgrwt>
<rscale>  0 0.23626272E+04</rscale>
<asrwt>0</asrwt>
<pdfrwt beam="1">  1        1 0.38188046E+00 0.23626272E+04</pdfrwt>
<pdfrwt beam="2">  1       -1 0.86492064E-01 0.23626272E+04</pdfrwt>
<totfact> 0.16513957E+00</totfact>
</mgrwt>
</event>
<event>
 6    1  0.1614874E-005  0.2088430E+04  0.7818608E-02  0.8566357E-01
          2   -1    0    0  501    0  0.00000000000E+00  0.00000000000E+00  0.51357700652E+03  0.51357700652E+03  0.00000000000E+00 0. -1.
         -2   -1    0    0    0  501 -0.00000000000E+00 -0.00000000000E+00 -0.21231188891E+04  0.21231188891E+04  0.00000000000E+00 0.  1.
         23    2    1    2    0    0 -0.36826270707E+03  0.34776706279E+03 -0.19562230817E+04  0.20228985307E+04  0.93543406236E+02 0.  0.
         13    1    3    3    0    0 -0.14775834364E+03  0.13351412455E+03 -0.95458627673E+03  0.97513768735E+03  0.00000000000E+00 0. -1.
        -13    1    3    3    0    0 -0.22050436343E+03  0.21425293824E+03 -0.10016368049E+04  0.10477608433E+04  0.00000000000E+00 0.  1.
         22    1    1    2    0    0  0.36826270707E+03 -0.34776706279E+03  0.34668119909E+03  0.61379736492E+03  0.00000000000E+00 0. -1.
<mgrwt>
<rscale>  0 0.20884301E+04</rscale>
<asrwt>0</asrwt>
<pdfrwt beam="1">  1        2 0.79011846E-01 0.20884301E+04</pdfrwt>
<pdfrwt beam="2">  1       -2 0.32663368E+00 0.20884301E+04</pdfrwt>
<totfact> 0.12009196E+00</totfact>
</mgrwt>
</event>
<event>
 6    1  0.1614874E-005  0.9652995E+03  0.7818608E-02  0.9347444E-01
          1   -1    0    0  501    0  0.00000000000E+00  0.00000000000E+00  0.46734958654E+03  0.46734958654E+03  0.00000000000E+00 0. -1.
         -1   -1    0    0    0  501 -0.00000000000E+00 -0.00000000000E+00 -0.49845079896E+03  0.49845079896E+03  0.00000000000E+00 0.  1.
         23    2    1    2    0    0 -0.16411209959E+02 -0.42918899612E+03 -0.22624455048E+03  0.49404468115E+03  0.91766160170E+02 0.  0.
         11    1    3    3    0    0 -0.22251828844E+02 -0.17107779075E+03 -0.13892248898E+03  0.22149991494E+03  0.00000000000E+00 0.  1.
        -11    1    3    3    0    0  0.58406188843E+01 -0.25811120536E+03 -0.87322061506E+02  0.27254476621E+03  0.00000000000E+00 0. -1.
         22    1    1    2    0    0  0.16411209959E+02  0.42918899612E+03  0.19514333807E+03  0.47175570435E+03  0.00000000000E+00 0. -1.
<mgrwt>
<rscale>  0 0.96529949E+03</rscale>
<asrwt>0</asrwt>
<pdfrwt beam="1">  1        1 0.71899937E-01 0.96529949E+03</pdfrwt>
<pdfrwt beam="2">  1       -1 0.76684738E-01 0.96529949E+03</pdfrwt>
<totfact> 0.83413631E+01</totfact>
</mgrwt>
</event>
<event>
 6    1  0.1614874E-005  0.8926553E+03  0.7818608E-02  0.9434809E-01
         -2   -1    0    0    0  501 -0.00000000000E+00  0.00000000000E+00  0.25051591124E+03  0.25051591124E+03  0.00000000000E+00 0.  1.
          2   -1    0    0  501    0  0.00000000000E+00 -0.00000000000E+00 -0.79519255129E+03  0.79519255129E+03  0.00000000000E+00 0. -1.
         23    2    1    2    0    0 -0.88271740182E+02  0.43121024644E+03 -0.31777619177E+03  0.55051356133E+03  0.91374484461E+02 0.  0.
         13    1    3    3    0    0 -0.38796219046E+01  0.64873242237E+02 -0.12359410006E+02  0.66153941985E+02  0.00000000000E+00 0.  1.
        -13    1    3    3    0    0 -0.84392118277E+02  0.36633700420E+03 -0.30541678176E+03  0.48435961935E+03  0.00000000000E+00 0. -1.
         22    1    1    2    0    0  0.88271740182E+02 -0.43121024644E+03 -0.22690044828E+03  0.49519490120E+03  0.00000000000E+00 0. -1.
<mgrwt>
<rscale>  0 0.89265533E+03</rscale>
<asrwt>0</asrwt>
<pdfrwt beam="1">  1        2 0.12233732E+00 0.89265533E+03</pdfrwt>
<pdfrwt beam="2">  1       -2 0.38540909E-01 0.89265533E+03</pdfrwt>
<totfact> 0.22136002E+02</totfact>
</mgrwt>
</event>
<event>
 6    1  0.1614874E-005  0.1741295E+04  0.7818608E-02  0.8738157E-01
          2   -1    0    0  501    0  0.00000000000E+00  0.00000000000E+00  0.29163866062E+04  0.29163866062E+04  0.00000000000E+00 0. -1.
         -2   -1    0    0    0  501 -0.00000000000E+00 -0.00000000000E+00 -0.25991995724E+03  0.25991995724E+03  0.00000000000E+00 0.  1.
         23    2    1    2    0    0 -0.92654478266E+02 -0.22993331967E+03  0.28497608840E+04  0.28619550959E+04  0.90530055603E+02 0.  0.
         13    1    3    3    0    0 -0.29689387544E+02 -0.10480233085E+03  0.17369792051E+04  0.17403912627E+04  0.00000000000E+00 0. -1.
        -13    1    3    3    0    0 -0.62965090722E+02 -0.12513098882E+03  0.11127816789E+04  0.11215638332E+04  0.00000000000E+00 0.  1.
         22    1    1    2    0    0  0.92654478266E+02  0.22993331967E+03 -0.19329423507E+03  0.31435146754E+03  0.00000000000E+00 0.  1.
<mgrwt>
<rscale>  0 0.17412950E+04</rscale>
<asrwt>0</asrwt>
<pdfrwt beam="1">  1        2 0.44867484E+00 0.17412950E+04</pdfrwt>
<pdfrwt beam="2">  1       -2 0.39987688E-01 0.17412950E+04</pdfrwt>
<totfact> 0.11059253E+01</totfact>
</mgrwt>
</event>
<event>
 6    1  0.2054973E-005  0.2765672E+04  0.7818608E-02  0.8314006E-01
          1   -1    0    0  501    0  0.00000000000E+00  0.00000000000E+00  0.25284947796E+04  0.25284947796E+04  0.00000000000E+00 0. -1.
         -1   -1    0    0    0  501 -0.00000000000E+00 -0.00000000000E+00 -0.75627440774E+03  0.75627440774E+03  0.00000000000E+00 0.  1.
         23    2    1    2    0    0  0.11567013765E+04 -0.41355767194E+03  0.16373225734E+04  0.20489757424E+04  0.92132301602E+02 0.  0.
         11    1    3    3    0    0  0.62535861928E+03 -0.19581266870E+03  0.80956013574E+03  0.10415390618E+04  0.00000000000E+00 0. -1.
        -11    1    3    3    0    0  0.53134275725E+03 -0.21774500324E+03  0.82776243767E+03  0.10074366806E+04  0.00000000000E+00 0.  1.
         22    1    1    2    0    0 -0.11567013765E+04  0.41355767194E+03  0.13489779842E+03  0.12357934449E+04  0.00000000000E+00 0.  1.
<mgrwt>
<rscale>  0 0.27656724E+04</rscale>
<asrwt>0</asrwt>
<pdfrwt beam="1">  1        1 0.38899919E+00 0.27656724E+04</pdfrwt>
<pdfrwt beam="2">  1       -1 0.11634991E+00 0.27656724E+04</pdfrwt>
<totfact> 0.74969678E-01</totfact>
</mgrwt>
</event>
<event>
 6    1  0.1614874E-005  0.9928892E+03  0.7818608E-02  0.9316378E-01
          4   -1    0    0  501    0  0.00000000000E+00  0.00000000000E+00  0.12514403461E+04  0.12514403461E+04  0.00000000000E+00 0. -1.
         -4   -1    0    0    0  501 -0.00000000000E+00 -0.00000000000E+00 -0.19693888360E+03  0.19693888360E+03  0.00000000000E+00 0.  1.
         23    2    1    2    0    0  0.27116404581E+03 -0.36607364900E+03  0.80494932457E+03  0.92894095063E+03  0.86301902617E+02 0.  0.
         11    1    3    3    0    0  0.75305598945E+02 -0.47764510366E+02  0.17674714283E+03  0.19796952842E+03  0.00000000000E+00 0. -1.
        -11    1    3    3    0    0  0.19585844686E+03 -0.31830913863E+03  0.62820218174E+03  0.73097142221E+03  0.00000000000E+00 0.  1.
         22    1    1    2    0    0 -0.27116404581E+03  0.36607364900E+03  0.24955213795E+03  0.51943827909E+03  0.00000000000E+00 0.  1.
<mgrwt>
<rscale>  0 0.99288925E+03</rscale>
<asrwt>0</asrwt>
<pdfrwt beam="1">  1        4 0.19252928E+00 0.99288925E+03</pdfrwt>
<pdfrwt beam="2">  1       -4 0.30298291E-01 0.99288925E+03</pdfrwt>
<totfact> 0.31041059E+00</totfact>
</mgrwt>
</event>
<event>
 6    1  0.1614874E-005  0.4223862E+04  0.7818608E-02  0.7960849E-01
         -2   -1    0    0    0  501 -0.00000000000E+00  0.00000000000E+00  0.17727982051E+04  0.17727982051E+04  0.00000000000E+00 0. -1.
          2   -1    0    0  501    0  0.00000000000E+00 -0.00000000000E+00 -0.25159387502E+04  0.25159387502E+04  0.00000000000E+00 0.  1.
         23    2    1    2    0    0  0.13256270430E+04  0.46075601706E+03  0.12294459066E+04  0.18678527214E+04  0.88053320859E+02 0.  0.
         13    1    3    3    0    0  0.64028434717E+03  0.24912948729E+03  0.55350354449E+03  0.88226737469E+03  0.00000000000E+00 0. -1.
        -13    1    3    3    0    0  0.68534269582E+03  0.21162652977E+03  0.67594236209E+03  0.98558534672E+03  0.00000000000E+00 0.  1.
         22    1    1    2    0    0 -0.13256270430E+04 -0.46075601706E+03 -0.19725864517E+04  0.24208842339E+04  0.00000000000E+00 0.  1.
<mgrwt>
<rscale>  0 0.42238616E+04</rscale>
<asrwt>0</asrwt>
<pdfrwt beam="1">  1        2 0.38706750E+00 0.42238616E+04</pdfrwt>
<pdfrwt beam="2">  1       -2 0.27273818E+00 0.42238616E+04</pdfrwt>
<totfact> 0.12312994E-01</totfact>
</mgrwt>
</event>
<event>
 6    1  0.1614874E-005  0.1062542E+04  0.7818608E-02  0.9242491E-01
         -1   -1    0    0    0  501 -0.00000000000E+00  0.00000000000E+00  0.31756533118E+03  0.31756533118E+03  0.00000000000E+00 0.  1.
          1   -1    0    0  501    0  0.00000000000E+00 -0.00000000000E+00 -0.88878937971E+03  0.88878937971E+03  0.00000000000E+00 0. -1.
         23    2    1    2    0    0 -0.33631873961E+03  0.38961322662E+03 -0.42021486341E+03  0.66996629289E+03  0.85822731331E+02 0.  0.
         13    1    3    3    0    0 -0.22923557235E+03  0.30715958277E+03 -0.27588395707E+03  0.47223713819E+03  0.00000000000E+00 0.  1.
        -13    1    3    3    0    0 -0.10708316726E+03  0.82453643850E+02 -0.14433090634E+03  0.19772915470E+03  0.00000000000E+00 0. -1.
         22    1    1    2    0    0  0.33631873961E+03 -0.38961322662E+03 -0.15100918512E+03  0.53638841800E+03  0.00000000000E+00 0.  1.
<mgrwt>
<rscale>  0 0.10625417E+04</rscale>
<asrwt>0</asrwt>
<pdfrwt beam="1">  1        1 0.13673683E+00 0.10625417E+04</pdfrwt>
<pdfrwt beam="2">  1       -1 0.48856205E-01 0.10625417E+04</pdfrwt>
<totfact> 0.77846855E+01</totfact>
</mgrwt>
</event>
<event>
 6    1  0.1786476E-005  0.4898363E+04  0.7818608E-02  0.7844380E-01
          2   -1    0    0  501    0  0.00000000000E+00  0.00000000000E+00  0.19788861999E+04  0.19788861999E+04  0.00000000000E+00 0.  1.
         -2   -1    0    0    0  501 -0.00000000000E+00 -0.00000000000E+00 -0.30312453138E+04  0.30312453138E+04  0.00000000000E+00 0. -1.
         23    2    1    2    0    0 -0.22604390039E+03  0.84018791508E+03 -0.28671043871E+04  0.29975928224E+04  0.90904260583E+02 0.  0.
         13    1    3    3    0    0 -0.15624567302E+03  0.51914463105E+03 -0.16412311582E+04  0.17284569919E+04  0.00000000000E+00 0.  1.
        -13    1    3    3    0    0 -0.69798227369E+02  0.32104328403E+03 -0.12258732289E+04  0.12691358304E+04  0.00000000000E+00 0. -1.
         22    1    1    2    0    0  0.22604390039E+03 -0.84018791508E+03  0.18147452732E+04  0.20125386914E+04  0.00000000000E+00 0.  1.
<mgrwt>
<rscale>  0 0.48983628E+04</rscale>
<asrwt>0</asrwt>
<pdfrwt beam="1">  1        2 0.30444403E+00 0.48983628E+04</pdfrwt>
<pdfrwt beam="2">  1       -2 0.46634543E+00 0.48983628E+04</pdfrwt>
<totfact> 0.13695944E-02</totfact>
</mgrwt>
</event>
<event>
 6    1  0.1614874E-005  0.2612634E+04  0.7818608E-02  0.8363922E-01
         -1   -1    0    0    0  501 -0.00000000000E+00  0.00000000000E+00  0.74397921466E+03  0.74397921466E+03  0.00000000000E+00 0.  1.
          1   -1    0    0  501    0  0.00000000000E+00 -0.00000000000E+00 -0.22936988277E+04  0.22936988277E+04  0.00000000000E+00 0. -1.
         23    2    1    2    0    0 -0.72659911456E+03  0.12224936011E+03  0.47596820435E+03  0.88214972828E+03  0.93548020990E+02 0.  0.
         11    1    3    3    0    0 -0.53107679131E+03  0.47759805925E+02  0.33095453508E+03  0.62757825139E+03  0.00000000000E+00 0.  1.
        -11    1    3    3    0    0 -0.19552232325E+03  0.74489554181E+02  0.14501366927E+03  0.25457147689E+03  0.00000000000E+00 0. -1.
         22    1    1    2    0    0  0.72659911456E+03 -0.12224936011E+03 -0.20256878174E+04  0.21555283141E+04  0.00000000000E+00 0. -1.
<mgrwt>
<rscale>  0 0.26126341E+04</rscale>
<asrwt>0</asrwt>
<pdfrwt beam="1">  1        1 0.35287673E+00 0.26126341E+04</pdfrwt>
<pdfrwt beam="2">  1       -1 0.11445834E+00 0.26126341E+04</pdfrwt>
<totfact> 0.11477206E+00</totfact>
</mgrwt>
</event>
<event>
 6    1  0.1614874E-005  0.2309617E+04  0.7818608E-02  0.8474139E-01
         -2   -1    0    0    0  501 -0.00000000000E+00  0.00000000000E+00  0.49034963307E+03  0.49034963307E+03  0.00000000000E+00 0. -1.
          2   -1    0    0  501    0  0.00000000000E+00 -0.00000000000E+00 -0.27196567985E+04  0.27196567985E+04  0.00000000000E+00 0.  1.
         23    2    1    2    0    0 -0.84009898575E+02  0.62644335465E+03  0.22391798447E+03  0.67666820390E+03  0.90838619294E+02 0.  0.
         11    1    3    3    0    0 -0.47830412156E+02  0.19168559036E+03  0.10850985953E+03  0.22540076197E+03  0.00000000000E+00 0. -1.
        -11    1    3    3    0    0 -0.36179486419E+02  0.43475776429E+03  0.11540812493E+03  0.45126744193E+03  0.00000000000E+00 0.  1.
         22    1    1    2    0    0  0.84009898575E+02 -0.62644335465E+03 -0.24532251499E+04  0.25333382277E+04  0.00000000000E+00 0.  1.
<mgrwt>
<rscale>  0 0.23096170E+04</rscale>
<asrwt>0</asrwt>
<pdfrwt beam="1">  1        2 0.41840874E+00 0.23096170E+04</pdfrwt>
<pdfrwt beam="2">  1       -2 0.75438405E-01 0.23096170E+04</pdfrwt>
<totfact> 0.36916044E+00</totfact>
</mgrwt>
</event>
<event>
 6    1  0.2257750E-005  0.3327540E+04  0.7818608E-02  0.8155923E-01
         -2   -1    0    0    0  501 -0.00000000000E+00  0.00000000000E+00  0.10335849171E+04  0.10335849171E+04  0.00000000000E+00 0.  1.
          2   -1    0    0  501    0  0.00000000000E+00 -0.00000000000E+00 -0.26781838491E+04  0.26781838491E+04  0.00000000000E+00 0. -1.
         23    2    1    2    0    0 -0.16030109850E+04 -0.34128245950E+03 -0.11340233751E+04  0.19951426174E+04  0.92016919820E+02 0.  0.
         11    1    3    3    0    0 -0.11843949377E+04 -0.29312525126E+03 -0.83936408702E+03  0.14809611244E+04  0.00000000000E+00 0.  1.
        -11    1    3    3    0    0 -0.41861604726E+03 -0.48157208236E+02 -0.29465928810E+03  0.51418149304E+03  0.00000000000E+00 0. -1.
         22    1    1    2    0    0  0.16030109850E+04  0.34128245950E+03 -0.51057555688E+03  0.17166261487E+04  0.00000000000E+00 0.  1.
<mgrwt>
<rscale>  0 0.33275399E+04</rscale>
<asrwt>0</asrwt>
<pdfrwt beam="1">  1        2 0.41202828E+00 0.33275399E+04</pdfrwt>
<pdfrwt beam="2">  1       -2 0.15901307E+00 0.33275399E+04</pdfrwt>
<totfact> 0.58390453E-01</totfact>
</mgrwt>
</event>
<event>
 6    1  0.1614874E-005  0.1275142E+04  0.7818608E-02  0.9049514E-01
          3   -1    0    0  501    0  0.00000000000E+00  0.00000000000E+00  0.33955854723E+03  0.33955854723E+03  0.00000000000E+00 0. -1.
         -3   -1    0    0    0  501 -0.00000000000E+00 -0.00000000000E+00 -0.11971323514E+04  0.11971323514E+04  0.00000000000E+00 0.  1.
         23    2    1    2    0    0 -0.42575066881E+03  0.34987974824E+01  0.13528605459E+03  0.45639160087E+03  0.93354717095E+02 0.  0.
         11    1    3    3    0    0 -0.14284122777E+03  0.27809576107E+02  0.83432586358E+02  0.16774380865E+03  0.00000000000E+00 0.  1.
        -11    1    3    3    0    0 -0.28290944104E+03 -0.24310778625E+02  0.51853468235E+02  0.28864779222E+03  0.00000000000E+00 0. -1.
         22    1    1    2    0    0  0.42575066881E+03 -0.34987974824E+01 -0.99285985874E+03  0.10802992977E+04  0.00000000000E+00 0.  1.
<mgrwt>
<rscale>  0 0.12751416E+04</rscale>
<asrwt>0</asrwt>
<pdfrwt beam="1">  1        3 0.52239777E-01 0.12751416E+04</pdfrwt>
<pdfrwt beam="2">  1       -3 0.18417421E+00 0.12751416E+04</pdfrwt>
<totfact> 0.17303183E+00</totfact>
</mgrwt>
</event>
<event>
 6    1  0.1614874E-005  0.1175200E+04  0.7818608E-02  0.9134845E-01
          2   -1    0    0  501    0  0.00000000000E+00  0.00000000000E+00  0.13723956390E+04  0.13723956390E+04  0.00000000000E+00 0. -1.
         -2   -1    0    0    0  501 -0.00000000000E+00 -0.00000000000E+00 -0.25158470940E+03  0.25158470940E+03  0.00000000000E+00 0.  1.
         23    2    1    2    0    0  0.29111883817E+03  0.22278583668E+03  0.11920688776E+04  0.12505350350E+04  0.91793016872E+02 0.  0.
         13    1    3    3    0    0  0.19562617045E+03  0.19596547714E+03  0.82092899315E+03  0.86636971242E+03  0.00000000000E+00 0. -1.
        -13    1    3    3    0    0  0.95492667721E+02  0.26820359534E+02  0.37113988445E+03  0.38416532262E+03  0.00000000000E+00 0.  1.
         22    1    1    2    0    0 -0.29111883817E+03 -0.22278583668E+03 -0.71257947953E+02  0.37344531341E+03  0.00000000000E+00 0.  1.
<mgrwt>
<rscale>  0 0.11752000E+04</rscale>
<asrwt>0</asrwt>
<pdfrwt beam="1">  1        2 0.21113779E+00 0.11752000E+04</pdfrwt>
<pdfrwt beam="2">  1       -2 0.38705341E-01 0.11752000E+04</pdfrwt>
<totfact> 0.93491410E+01</totfact>
</mgrwt>
</event>
<event>
 6    1  0.1614874E-005  0.1963740E+04  0.7818608E-02  0.8623764E-01
          1   -1    0    0  501    0  0.00000000000E+00  0.00000000000E+00  0.58040244896E+03  0.58040244896E+03  0.00000000000E+00 0. -1.
         -1   -1    0    0    0  501 -0.00000000000E+00 -0.00000000000E+00 -0.16610342392E+04  0.16610342392E+04  0.00000000000E+00 0.  1.
         23    2    1    2    0    0  0.29740612270E+03 -0.47138998325E+03  0.37797210357E+03  0.67996807267E+03  0.93993354279E+02 0.  0.
         11    1    3    3    0    0  0.11024168957E+03 -0.12405962130E+03  0.15331808357E+03  0.22594347635E+03  0.00000000000E+00 0. -1.
        -11    1    3    3    0    0  0.18716443312E+03 -0.34733036195E+03  0.22465402000E+03  0.45402459632E+03  0.00000000000E+00 0.  1.
         22    1    1    2    0    0 -0.29740612270E+03  0.47138998325E+03 -0.14586038938E+04  0.15614686155E+04  0.00000000000E+00 0.  1.
<mgrwt>
<rscale>  0 0.19637396E+04</rscale>
<asrwt>0</asrwt>
<pdfrwt beam="1">  1        1 0.89292685E-01 0.19637396E+04</pdfrwt>
<pdfrwt beam="2">  1       -1 0.25554373E+00 0.19637396E+04</pdfrwt>
<totfact> 0.21446951E+00</totfact>
</mgrwt>
</event>
<event>
 6    1  0.1614874E-005  0.1593167E+04  0.7818608E-02  0.8824757E-01
          1   -1    0    0  501    0  0.00000000000E+00  0.00000000000E+00  0.14568966389E+04  0.14568966389E+04  0.00000000000E+00 0. -1.
         -1   -1    0    0    0  501 -0.00000000000E+00 -0.00000000000E+00 -0.43554605820E+03  0.43554605820E+03  0.00000000000E+00 0.  1.
         23    2    1    2    0    0  0.67577952848E+03 -0.35368334405E+03  0.77425297590E+03  0.10906777033E+04  0.91325258557E+02 0.  0.
         11    1    3    3    0    0  0.30726562378E+03 -0.12855500740E+03  0.38743213238E+03  0.51092290092E+03  0.00000000000E+00 0. -1.
        -11    1    3    3    0    0  0.36851390469E+03 -0.22512833665E+03  0.38682084352E+03  0.57975480239E+03  0.00000000000E+00 0.  1.
         22    1    1    2    0    0 -0.67577952848E+03  0.35368334405E+03  0.24709760480E+03  0.80176499379E+03  0.00000000000E+00 0. -1.
<mgrwt>
<rscale>  0 0.15931674E+04</rscale>
<asrwt>0</asrwt>
<pdfrwt beam="1">  1        1 0.22413794E+00 0.15931674E+04</pdfrwt>
<pdfrwt beam="2">  1       -1 0.67007087E-01 0.15931674E+04</pdfrwt>
<totfact> 0.15182328E+01</totfact>
</mgrwt>
</event>
<event>
 6    1  0.1614874E-005  0.1306626E+04  0.7818608E-02  0.9024327E-01
         -2   -1    0    0    0  501 -0.00000000000E+00  0.00000000000E+00  0.26017712111E+03  0.26017712111E+03  0.00000000000E+00 0.  1.
          2   -1    0    0  501    0  0.00000000000E+00 -0.00000000000E+00 -0.16404904429E+04  0.16404904429E+04  0.00000000000E+00 0. -1.
         23    2    1    2    0    0 -0.32349808727E+03  0.20164440922E+03  0.72411789228E+02  0.39876153218E+03  0.91955489705E+02 0.  0.
         13    1    3    3    0    0 -0.21962629930E+03  0.13799869243E+03  0.92326506405E+02  0.27532441636E+03  0.00000000000E+00 0. -1.
        -13    1    3    3    0    0 -0.10387178798E+03  0.63645716789E+02 -0.19914717176E+02  0.12343711583E+03  0.00000000000E+00 0.  1.
         22    1    1    2    0    0  0.32349808727E+03 -0.20164440922E+03 -0.14527251110E+04  0.15019060318E+04  0.00000000000E+00 0. -1.
<mgrwt>
<rscale>  0 0.13066263E+04</rscale>
<asrwt>0</asrwt>
<pdfrwt beam="1">  1        2 0.25238315E+00 0.13066263E+04</pdfrwt>
<pdfrwt beam="2">  1       -2 0.40027249E-01 0.13066263E+04</pdfrwt>
<totfact> 0.61238649E+01</totfact>
</mgrwt>
</event>
<event>
 6    1  0.1614874E-005  0.2352963E+04  0.7818608E-02  0.8457327E-01
         -1   -1    0    0    0  501 -0.00000000000E+00  0.00000000000E+00  0.10951522548E+04  0.10951522548E+04  0.00000000000E+00 0.  1.
          1   -1    0    0  501    0  0.00000000000E+00 -0.00000000000E+00 -0.12638502910E+04  0.12638502910E+04  0.00000000000E+00 0. -1.
         23    2    1    2    0    0  0.11540256403E+04 -0.75984688438E+02 -0.29092482375E+03  0.11960372672E+04  0.91208771994E+02 0.  0.
         13    1    3    3    0    0  0.59244165227E+03 -0.48330067730E+01 -0.11756776534E+03  0.60401378192E+03  0.00000000000E+00 0.  1.
        -13    1    3    3    0    0  0.56158398807E+03 -0.71151681665E+02 -0.17335705841E+03  0.59202348531E+03  0.00000000000E+00 0. -1.
         22    1    1    2    0    0 -0.11540256403E+04  0.75984688438E+02  0.12222678755E+03  0.11629652785E+04  0.00000000000E+00 0.  1.
<mgrwt>
<rscale>  0 0.23529628E+04</rscale>
<asrwt>0</asrwt>
<pdfrwt beam="1">  1        1 0.19443851E+00 0.23529628E+04</pdfrwt>
<pdfrwt beam="2">  1       -1 0.16848496E+00 0.23529628E+04</pdfrwt>
<totfact> 0.21816730E+00</totfact>
</mgrwt>
</event>
<event>
 6    1  0.1614874E-005  0.3162696E+04  0.7818608E-02  0.8198739E-01
         -1   -1    0    0    0  501 -0.00000000000E+00  0.00000000000E+00  0.10755726828E+04  0.10755726828E+04  0.00000000000E+00 0.  1.
          1   -1    0    0  501    0  0.00000000000E+00 -0.00000000000E+00 -0.23249583227E+04  0.23249583227E+04  0.00000000000E+00 0. -1.
         23    2    1    2    0    0  0.38705530354E+03 -0.11678035878E+04  0.44043430217E+03  0.13102993284E+04  0.96565666141E+02 0.  0.
         11    1    3    3    0    0  0.29688140191E+03 -0.86952158794E+03  0.28448924865E+03  0.96184223826E+03  0.00000000000E+00 0.  1.
        -11    1    3    3    0    0  0.90173901630E+02 -0.29828199985E+03  0.15594505351E+03  0.34845709016E+03  0.00000000000E+00 0. -1.
         22    1    1    2    0    0 -0.38705530354E+03  0.11678035878E+04 -0.16898199421E+04  0.20902316772E+04  0.00000000000E+00 0. -1.
<mgrwt>
<rscale>  0 0.31626961E+04</rscale>
<asrwt>0</asrwt>
<pdfrwt beam="1">  1        1 0.35768589E+00 0.31626961E+04</pdfrwt>
<pdfrwt beam="2">  1       -1 0.16547272E+00 0.31626961E+04</pdfrwt>
<totfact> 0.39911341E-01</totfact>
</mgrwt>
</event>
<event>
 6    1  0.1614874E-005  0.2630619E+04  0.7818608E-02  0.8357874E-01
         -2   -1    0    0    0  501 -0.00000000000E+00  0.00000000000E+00  0.66556618139E+03  0.66556618139E+03  0.00000000000E+00 0.  1.
          2   -1    0    0  501    0  0.00000000000E+00 -0.00000000000E+00 -0.25993496443E+04  0.25993496443E+04  0.00000000000E+00 0. -1.
         23    2    1    2    0    0 -0.96564766087E+03  0.16976440094E+03  0.11727816235E+03  0.99155946396E+03  0.90225530943E+02 0.  0.
         11    1    3    3    0    0 -0.55392935845E+03  0.10137833703E+03  0.22528557131E+02  0.56358037338E+03  0.00000000000E+00 0.  1.
        -11    1    3    3    0    0 -0.41171830242E+03  0.68386063912E+02  0.94749605223E+02  0.42797909058E+03  0.00000000000E+00 0. -1.
         22    1    1    2    0    0  0.96564766087E+03 -0.16976440094E+03 -0.20510616253E+04  0.22733563617E+04  0.00000000000E+00 0.  1.
<mgrwt>
<rscale>  0 0.26306191E+04</rscale>
<asrwt>0</asrwt>
<pdfrwt beam="1">  1        2 0.39989995E+00 0.26306191E+04</pdfrwt>
<pdfrwt beam="2">  1       -2 0.10239480E+00 0.26306191E+04</pdfrwt>
<totfact> 0.20976179E+00</totfact>
</mgrwt>
</event>
<event>
 6    1  0.1614874E-005  0.1316293E+04  0.7818608E-02  0.9016743E-01
         -2   -1    0    0    0  501 -0.00000000000E+00  0.00000000000E+00  0.29058163228E+03  0.29058163228E+03  0.00000000000E+00 0.  1.
          2   -1    0    0  501    0  0.00000000000E+00 -0.00000000000E+00 -0.14906550128E+04  0.14906550128E+04  0.00000000000E+00 0. -1.
         23    2    1    2    0    0  0.13550868825E+03 -0.63651098891E+03 -0.70367191923E+03  0.96274824909E+03  0.90670709880E+02 0.  0.
         13    1    3    3    0    0  0.14513414080E+01 -0.19810454954E+03 -0.22990259115E+03  0.30348430002E+03  0.00000000000E+00 0. -1.
        -13    1    3    3    0    0  0.13405734685E+03 -0.43840643937E+03 -0.47376932808E+03  0.65926394908E+03  0.00000000000E+00 0.  1.
         22    1    1    2    0    0 -0.13550868825E+03  0.63651098891E+03 -0.49640146131E+03  0.81848839600E+03  0.00000000000E+00 0. -1.
<mgrwt>
<rscale>  0 0.13162932E+04</rscale>
<asrwt>0</asrwt>
<pdfrwt beam="1">  1        2 0.22933154E+00 0.13162932E+04</pdfrwt>
<pdfrwt beam="2">  1       -2 0.44704867E-01 0.13162932E+04</pdfrwt>
<totfact> 0.59676699E+01</totfact>
</mgrwt>
</event>
<event>
 6    1  0.1614874E-005  0.4357456E+04  0.7818608E-02  0.7936078E-01
         -2   -1    0    0    0  501 -0.00000000000E+00  0.00000000000E+00  0.20969056980E+04  0.20969056980E+04  0.00000000000E+00 0.  1.
          2   -1    0    0  501    0  0.00000000000E+00 -0.00000000000E+00 -0.22637435367E+04  0.22637435367E+04  0.00000000000E+00 0. -1.
         23    2    1    2    0    0  0.78618995378E+03 -0.20240746800E+04  0.83131747058E+02  0.21749096007E+04  0.91367007827E+02 0.  0.
         11    1    3    3    0    0  0.46437376075E+03 -0.13033764815E+04  0.32755378791E+02  0.13840181202E+04  0.00000000000E+00 0. -1.
        -11    1    3    3    0    0  0.32181619303E+03 -0.72069819852E+03  0.50376368267E+02  0.79089148050E+03  0.00000000000E+00 0.  1.
         22    1    1    2    0    0 -0.78618995378E+03  0.20240746800E+04 -0.24996958571E+03  0.21857396340E+04  0.00000000000E+00 0.  1.
<mgrwt>
<rscale>  0 0.43574565E+04</rscale>
<asrwt>0</asrwt>
<pdfrwt beam="1">  1        2 0.34826824E+00 0.43574565E+04</pdfrwt>
<pdfrwt beam="2">  1       -2 0.32260088E+00 0.43574565E+04</pdfrwt>
<totfact> 0.84062202E-02</totfact>
</mgrwt>
</event>
<event>
 6    1  0.1614874E-005  0.8094508E+03  0.7818608E-02  0.9546437E-01
         -1   -1    0    0    0  501 -0.00000000000E+00  0.00000000000E+00  0.23059056320E+03  0.23059056320E+03  0.00000000000E+00 0.  1.
          1   -1    0    0  501    0  0.00000000000E+00 -0.00000000000E+00 -0.71036148110E+03  0.71036148110E+03  0.00000000000E+00 0. -1.
         23    2    1    2    0    0 -0.29637836059E+02  0.39095800027E+03 -0.33150072086E+03  0.52177354934E+03  0.92888909766E+02 0.  0.
         11    1    3    3    0    0 -0.41345956037E+02  0.17151857250E+03 -0.10095252428E+03  0.20327203682E+03  0.00000000000E+00 0. -1.
        -11    1    3    3    0    0  0.11708119979E+02  0.21943942778E+03 -0.23054819658E+03  0.31850151253E+03  0.00000000000E+00 0.  1.
         22    1    1    2    0    0  0.29637836059E+02 -0.39095800027E+03 -0.14827019704E+03  0.41917849496E+03  0.00000000000E+00 0.  1.
<mgrwt>
<rscale>  0 0.80945081E+03</rscale>
<asrwt>0</asrwt>
<pdfrwt beam="1">  1        1 0.10928638E+00 0.80945081E+03</pdfrwt>
<pdfrwt beam="2">  1       -1 0.35475471E-01 0.80945081E+03</pdfrwt>
<totfact> 0.20375304E+02</totfact>
</mgrwt>
</event>
<event>
 6    1  0.1614874E-005  0.3529268E+04  0.7818608E-02  0.8106889E-01
         -2   -1    0    0    0  501 -0.00000000000E+00  0.00000000000E+00  0.95898977133E+03  0.95898977133E+03  0.00000000000E+00 0.  1.
          2   -1    0    0  501    0  0.00000000000E+00 -0.00000000000E+00 -0.32470965802E+04  0.32470965802E+04  0.00000000000E+00 0. -1.
         23    2    1    2    0    0  0.12936098436E+04  0.42357300446E+03 -0.24808871633E+04  0.28313119036E+04  0.93195820625E+02 0.  0.
         13    1    3    3    0    0  0.10259886745E+04  0.30598948922E+03 -0.20003476248E+04  0.22688483748E+04  0.00000000000E+00 0. -1.
        -13    1    3    3    0    0  0.26762116914E+03  0.11758351524E+03 -0.48053953847E+03  0.56246352883E+03  0.00000000000E+00 0.  1.
         22    1    1    2    0    0 -0.12936098436E+04 -0.42357300446E+03  0.19278035440E+03  0.13747744479E+04  0.00000000000E+00 0.  1.
<mgrwt>
<rscale>  0 0.35292676E+04</rscale>
<asrwt>0</asrwt>
<pdfrwt beam="1">  1        2 0.49955332E+00 0.35292676E+04</pdfrwt>
<pdfrwt beam="2">  1       -2 0.14753689E+00 0.35292676E+04</pdfrwt>
<totfact> 0.30955478E-01</totfact>
</mgrwt>
</event>
<event>
 6    1  0.1614874E-005  0.3617419E+04  0.7818608E-02  0.8086513E-01
          2   -1    0    0  501    0  0.00000000000E+00  0.00000000000E+00  0.18277124699E+04  0.18277124699E+04  0.00000000000E+00 0. -1.
         -2   -1    0    0    0  501 -0.00000000000E+00 -0.00000000000E+00 -0.17899045989E+04  0.17899045989E+04  0.00000000000E+00 0.  1.
         23    2    1    2    0    0  0.16528693491E+04  0.64494089175E+03  0.36439541724E+03  0.18135701558E+04  0.91251581059E+02 0.  0.
         11    1    3    3    0    0  0.80242443182E+03  0.26583622056E+03  0.18539103878E+03  0.86540377986E+03  0.00000000000E+00 0. -1.
        -11    1    3    3    0    0  0.85044491724E+03  0.37910467119E+03  0.17900437846E+03  0.94816637595E+03  0.00000000000E+00 0.  1.
         22    1    1    2    0    0 -0.16528693491E+04 -0.64494089175E+03 -0.32658754621E+03  0.18040469130E+04  0.00000000000E+00 0.  1.
<mgrwt>
<rscale>  0 0.36174195E+04</rscale>
<asrwt>0</asrwt>
<pdfrwt beam="1">  1        2 0.28118653E+00 0.36174195E+04</pdfrwt>
<pdfrwt beam="2">  1       -2 0.27536994E+00 0.36174195E+04</pdfrwt>
<totfact> 0.30464402E-01</totfact>
</mgrwt>
</event>
<event>
 6    1  0.1614874E-005  0.1001943E+04  0.7818608E-02  0.9306417E-01
         -1   -1    0    0    0  501 -0.00000000000E+00  0.00000000000E+00  0.18444612946E+03  0.18444612946E+03  0.00000000000E+00 0.  1.
          1   -1    0    0  501    0  0.00000000000E+00 -0.00000000000E+00 -0.13606804620E+04  0.13606804620E+04  0.00000000000E+00 0. -1.
         23    2    1    2    0    0  0.63941202896E+02  0.38868322447E+03 -0.12596367552E+03  0.42341736916E+03  0.90842140770E+02 0.  0.
         13    1    3    3    0    0 -0.19864931741E+02  0.50305815636E+02 -0.29999795292E+02  0.61848834406E+02  0.00000000000E+00 0.  1.
        -13    1    3    3    0    0  0.83806134636E+02  0.33837740884E+03 -0.95963880229E+02  0.36156853475E+03  0.00000000000E+00 0. -1.
         22    1    1    2    0    0 -0.63941202896E+02 -0.38868322447E+03 -0.10502706570E+04  0.11217092223E+04  0.00000000000E+00 0. -1.
<mgrwt>
<rscale>  0 0.10019426E+04</rscale>
<asrwt>0</asrwt>
<pdfrwt beam="1">  1        1 0.20933545E+00 0.10019426E+04</pdfrwt>
<pdfrwt beam="2">  1       -1 0.28376328E-01 0.10019426E+04</pdfrwt>
<totfact> 0.92287706E+01</totfact>
</mgrwt>
</event>
<event>
 6    1  0.1614874E-005  0.4993106E+04  0.7818608E-02  0.7829572E-01
          1   -1    0    0  501    0  0.00000000000E+00  0.00000000000E+00  0.29729104949E+04  0.29729104949E+04  0.00000000000E+00 0. -1.
         -1   -1    0    0    0  501 -0.00000000000E+00 -0.00000000000E+00 -0.20965234031E+04  0.20965234031E+04  0.00000000000E+00 0.  1.
         23    2    1    2    0    0  0.75976249726E+03  0.16852261716E+04 -0.12636671599E+04  0.22415268094E+04  0.10179118061E+03 0.  0.
         11    1    3    3    0    0  0.42606743533E+03  0.10604580043E+04 -0.79714305071E+03  0.13933921493E+04  0.00000000000E+00 0. -1.
        -11    1    3    3    0    0  0.33369506193E+03  0.62476816729E+03 -0.46652410921E+03  0.84813466011E+03  0.00000000000E+00 0.  1.
         22    1    1    2    0    0 -0.75976249726E+03 -0.16852261716E+04  0.21400542516E+04  0.28279070886E+04  0.00000000000E+00 0. -1.
<mgrwt>
<rscale>  0 0.49931058E+04</rscale>
<asrwt>0</asrwt>
<pdfrwt beam="1">  1        1 0.45737084E+00 0.49931058E+04</pdfrwt>
<pdfrwt beam="2">  1       -1 0.32254206E+00 0.49931058E+04</pdfrwt>
<totfact> 0.10644029E-02</totfact>
</mgrwt>
</event>
<event>
 6    1  0.1614874E-005  0.1533573E+04  0.7818608E-02  0.8862429E-01
         -1   -1    0    0    0  501 -0.00000000000E+00  0.00000000000E+00  0.37042939466E+03  0.37042939466E+03  0.00000000000E+00 0.  1.
          1   -1    0    0  501    0  0.00000000000E+00 -0.00000000000E+00 -0.15872435334E+04  0.15872435334E+04  0.00000000000E+00 0. -1.
         23    2    1    2    0    0 -0.42979889735E+03  0.50482948059E+03 -0.12592629894E+03  0.68110872064E+03  0.92042163865E+02 0.  0.
         13    1    3    3    0    0 -0.23266583894E+03  0.32919007685E+03 -0.48853909059E+02  0.40606182255E+03  0.00000000000E+00 0. -1.
        -13    1    3    3    0    0 -0.19713305841E+03  0.17563940375E+03 -0.77072389878E+02  0.27504689809E+03  0.00000000000E+00 0.  1.
         22    1    1    2    0    0  0.42979889735E+03 -0.50482948059E+03 -0.10908878398E+04  0.12765642074E+04  0.00000000000E+00 0.  1.
<mgrwt>
<rscale>  0 0.15335732E+04</rscale>
<asrwt>0</asrwt>
<pdfrwt beam="1">  1        1 0.24419131E+00 0.15335732E+04</pdfrwt>
<pdfrwt beam="2">  1       -1 0.56989138E-01 0.15335732E+04</pdfrwt>
<totfact> 0.17123425E+01</totfact>
</mgrwt>
</event>
<event>
 6    1  0.1614874E-005  0.1484364E+04  0.7818608E-02  0.8894918E-01
          2   -1    0    0  501    0  0.00000000000E+00  0.00000000000E+00  0.10800911247E+04  0.10800911247E+04  0.00000000000E+00 0. -1.
         -2   -1    0    0    0  501 -0.00000000000E+00 -0.00000000000E+00 -0.50998828886E+03  0.50998828886E+03  0.00000000000E+00 0.  1.
         23    2    1    2    0    0  0.21423519042E+03  0.66099911405E+03  0.55657520700E+03  0.89509772867E+03  0.92776275173E+02 0.  0.
         11    1    3    3    0    0  0.18737893935E+02  0.11188654905E+03  0.54773093123E+02  0.12597539545E+03  0.00000000000E+00 0. -1.
        -11    1    3    3    0    0  0.19549729649E+03  0.54911256500E+03  0.50180211387E+03  0.76912233322E+03  0.00000000000E+00 0.  1.
         22    1    1    2    0    0 -0.21423519042E+03 -0.66099911405E+03  0.13527628837E+02  0.69498168489E+03  0.00000000000E+00 0. -1.
<mgrwt>
<rscale>  0 0.14843636E+04</rscale>
<asrwt>0</asrwt>
<pdfrwt beam="1">  1        2 0.16616787E+00 0.14843636E+04</pdfrwt>
<pdfrwt beam="2">  1       -2 0.78459737E-01 0.14843636E+04</pdfrwt>
<totfact> 0.31315112E+01</totfact>
</mgrwt>
</event>
<event>
 6    1  0.1614874E-005  0.1581746E+04  0.7818608E-02  0.8831841E-01
         -1   -1    0    0    0  501 -0.00000000000E+00  0.00000000000E+00  0.63301154482E+03  0.63301154482E+03  0.00000000000E+00 0.  1.
          1   -1    0    0  501    0  0.00000000000E+00 -0.00000000000E+00 -0.98810231898E+03  0.98810231898E+03  0.00000000000E+00 0. -1.
         23    2    1    2    0    0 -0.50839598078E+03 -0.26395197448E+03  0.37671242612E+03  0.69177375272E+03  0.92203876574E+02 0.  0.
         11    1    3    3    0    0 -0.10097356382E+03 -0.15748891705E+02  0.81869355890E+02  0.13094380327E+03  0.00000000000E+00 0.  1.
        -11    1    3    3    0    0 -0.40742241695E+03 -0.24820308278E+03  0.29484307024E+03  0.56082994945E+03  0.00000000000E+00 0. -1.
         22    1    1    2    0    0  0.50839598078E+03  0.26395197448E+03 -0.73180320029E+03  0.92934011108E+03  0.00000000000E+00 0. -1.
<mgrwt>
<rscale>  0 0.15817461E+04</rscale>
<asrwt>0</asrwt>
<pdfrwt beam="1">  1        1 0.15201574E+00 0.15817461E+04</pdfrwt>
<pdfrwt beam="2">  1       -1 0.97386391E-01 0.15817461E+04</pdfrwt>
<totfact> 0.15044453E+01</totfact>
</mgrwt>
</event>
<event>
 6    1  0.1614874E-005  0.3114607E+03  0.7818608E-02  0.1079648E+00
         -1   -1    0    0    0  501 -0.00000000000E+00  0.00000000000E+00  0.68603070722E+03  0.68603070722E+03  0.00000000000E+00 0.  1.
          1   -1    0    0  501    0  0.00000000000E+00 -0.00000000000E+00 -0.35351095497E+02  0.35351095497E+02  0.00000000000E+00 0. -1.
         23    2    1    2    0    0  0.13956486019E+03 -0.21363459055E+02  0.39704957566E+03  0.43110100284E+03  0.90911833871E+02 0.  0.
         11    1    3    3    0    0  0.32019587372E+02  0.10325341722E+02  0.21263103873E+03  0.21527616052E+03  0.00000000000E+00 0.  1.
        -11    1    3    3    0    0  0.10754527282E+03 -0.31688800777E+02  0.18441853693E+03  0.21582484233E+03  0.00000000000E+00 0. -1.
         22    1    1    2    0    0 -0.13956486019E+03  0.21363459055E+02  0.25363003607E+03  0.29028079988E+03  0.00000000000E+00 0. -1.
<mgrwt>
<rscale>  0 0.31146067E+03</rscale>
<asrwt>0</asrwt>
<pdfrwt beam="1">  1        1 0.54386306E-02 0.31146067E+03</pdfrwt>
<pdfrwt beam="2">  1       -1 0.10554318E+00 0.31146067E+03</pdfrwt>
<totfact> 0.13236967E+03</totfact>
</mgrwt>
</event>
<event>
 6    1  0.1614874E-005  0.1704173E+04  0.7818608E-02  0.8758988E-01
          2   -1    0    0  501    0  0.00000000000E+00  0.00000000000E+00  0.15342049274E+04  0.15342049274E+04  0.00000000000E+00 0. -1.
         -2   -1    0    0    0  501 -0.00000000000E+00 -0.00000000000E+00 -0.47324292906E+03  0.47324292906E+03  0.00000000000E+00 0.  1.
         23    2    1    2    0    0  0.17074458868E+03 -0.27896795503E+03  0.14557356287E+04  0.14947851469E+04  0.90772133448E+02 0.  0.
         13    1    3    3    0    0  0.18131814084E+03 -0.27112660052E+03  0.14059801371E+04  0.14433177223E+04  0.00000000000E+00 0. -1.
        -13    1    3    3    0    0 -0.10573552156E+02 -0.78413545128E+01  0.49755491666E+02  0.51467424617E+02  0.00000000000E+00 0.  1.
         22    1    1    2    0    0 -0.17074458868E+03  0.27896795503E+03 -0.39477363039E+03  0.51266270954E+03  0.00000000000E+00 0.  1.
<mgrwt>
<rscale>  0 0.17041733E+04</rscale>
<asrwt>0</asrwt>
<pdfrwt beam="1">  1        2 0.23603152E+00 0.17041733E+04</pdfrwt>
<pdfrwt beam="2">  1       -2 0.72806605E-01 0.17041733E+04</pdfrwt>
<totfact> 0.19693725E+01</totfact>
</mgrwt>
</event>
<event>
 6    1  0.1614874E-005  0.1448485E+04  0.7818608E-02  0.8919451E-01
         -2   -1    0    0    0  501 -0.00000000000E+00  0.00000000000E+00  0.20858432077E+03  0.20858432077E+03  0.00000000000E+00 0.  1.
          2   -1    0    0  501    0  0.00000000000E+00 -0.00000000000E+00 -0.25147021849E+04  0.25147021849E+04  0.00000000000E+00 0. -1.
         23    2    1    2    0    0 -0.13603711966E+03 -0.64360367602E+03 -0.17140598048E+04  0.18382641696E+04  0.92099691278E+02 0.  0.
         13    1    3    3    0    0 -0.46747459279E+02 -0.38484906167E+03 -0.91986355604E+03  0.99821995920E+03  0.00000000000E+00 0. -1.
        -13    1    3    3    0    0 -0.89289660386E+02 -0.25875461435E+03 -0.79419624878E+03  0.84004421043E+03  0.00000000000E+00 0.  1.
         22    1    1    2    0    0  0.13603711966E+03  0.64360367602E+03 -0.59205805932E+03  0.88502233605E+03  0.00000000000E+00 0.  1.
<mgrwt>
<rscale>  0 0.14484853E+04</rscale>
<asrwt>0</asrwt>
<pdfrwt beam="1">  1        2 0.38687726E+00 0.14484853E+04</pdfrwt>
<pdfrwt beam="2">  1       -2 0.32089895E-01 0.14484853E+04</pdfrwt>
<totfact> 0.30014606E+01</totfact>
</mgrwt>
</event>
<event>
 6    1  0.1614874E-005  0.2679056E+04  0.7818608E-02  0.8341833E-01
          1   -1    0    0  501    0  0.00000000000E+00  0.00000000000E+00  0.16208979431E+04  0.16208979431E+04  0.00000000000E+00 0. -1.
         -1   -1    0    0    0  501 -0.00000000000E+00 -0.00000000000E+00 -0.11070005609E+04  0.11070005609E+04  0.00000000000E+00 0.  1.
         23    2    1    2    0    0  0.26911396994E+03  0.12605623401E+04 -0.10790132453E+03  0.12967893629E+04  0.92629444358E+02 0.  0.
         13    1    3    3    0    0  0.24375694182E+03  0.12016295410E+04 -0.86475414638E+02  0.12291497052E+04  0.00000000000E+00 0. -1.
        -13    1    3    3    0    0  0.25357028120E+02  0.58932799033E+02 -0.21425909890E+02  0.67639657684E+02  0.00000000000E+00 0.  1.
         22    1    1    2    0    0 -0.26911396994E+03 -0.12605623401E+04  0.62179870668E+03  0.14311091411E+04  0.00000000000E+00 0. -1.
<mgrwt>
<rscale>  0 0.26790558E+04</rscale>
<asrwt>0</asrwt>
<pdfrwt beam="1">  1        1 0.24936892E+00 0.26790558E+04</pdfrwt>
<pdfrwt beam="2">  1       -1 0.17030778E+00 0.26790558E+04</pdfrwt>
<totfact> 0.11560124E+00</totfact>
</mgrwt>
</event>
<event>
 6    1  0.1614874E-005  0.1749895E+04  0.7818608E-02  0.8733408E-01
          1   -1    0    0  501    0  0.00000000000E+00  0.00000000000E+00  0.17929968204E+04  0.17929968204E+04  0.00000000000E+00 0. -1.
         -1   -1    0    0    0  501 -0.00000000000E+00 -0.00000000000E+00 -0.42695726406E+03  0.42695726406E+03  0.00000000000E+00 0.  1.
         23    2    1    2    0    0  0.71201484543E+03 -0.47388940520E+03  0.90417155963E+03  0.12479158369E+04  0.90727163369E+02 0.  0.
         11    1    3    3    0    0  0.27229758705E+03 -0.22810706566E+03  0.40567785242E+03  0.53921547572E+03  0.00000000000E+00 0. -1.
        -11    1    3    3    0    0  0.43971725839E+03 -0.24578233954E+03  0.49849370721E+03  0.70870036114E+03  0.00000000000E+00 0.  1.
         22    1    1    2    0    0 -0.71201484543E+03  0.47388940520E+03  0.46186799675E+03  0.97203824765E+03  0.00000000000E+00 0.  1.
<mgrwt>
<rscale>  0 0.17498949E+04</rscale>
<asrwt>0</asrwt>
<pdfrwt beam="1">  1        1 0.27584566E+00 0.17498949E+04</pdfrwt>
<pdfrwt beam="2">  1       -1 0.65685734E-01 0.17498949E+04</pdfrwt>
<totfact> 0.91697687E+00</totfact>
</mgrwt>
</event>
<event>
 6    1  0.1614874E-005  0.2688911E+04  0.7818608E-02  0.8338612E-01
          2   -1    0    0  501    0  0.00000000000E+00  0.00000000000E+00  0.21441633171E+04  0.21441633171E+04  0.00000000000E+00 0. -1.
         -2   -1    0    0    0  501 -0.00000000000E+00 -0.00000000000E+00 -0.84301416845E+03  0.84301416845E+03  0.00000000000E+00 0.  1.
         23    2    1    2    0    0 -0.11346180803E+04  0.44829813505E+03  0.12743995215E+04  0.17669131911E+04  0.97768494677E+02 0.  0.
         13    1    3    3    0    0 -0.34086033748E+03  0.17485460594E+03  0.36272316871E+03  0.52756800510E+03  0.00000000000E+00 0. -1.
        -13    1    3    3    0    0 -0.79375774277E+03  0.27344352911E+03  0.91167635274E+03  0.12393451860E+04  0.00000000000E+00 0.  1.
         22    1    1    2    0    0  0.11346180803E+04 -0.44829813505E+03  0.26749627234E+02  0.12202642945E+04  0.00000000000E+00 0.  1.
<mgrwt>
<rscale>  0 0.26889106E+04</rscale>
<asrwt>0</asrwt>
<pdfrwt beam="1">  1        2 0.32987128E+00 0.26889106E+04</pdfrwt>
<pdfrwt beam="2">  1       -2 0.12969449E+00 0.26889106E+04</pdfrwt>
<totfact> 0.21293374E+00</totfact>
</mgrwt>
</event>
<event>
 6    1  0.1614874E-005  0.3120937E+04  0.7818608E-02  0.8210015E-01
          2   -1    0    0  501    0  0.00000000000E+00  0.00000000000E+00  0.17989593124E+04  0.17989593124E+04  0.00000000000E+00 0. -1.
         -2   -1    0    0    0  501 -0.00000000000E+00 -0.00000000000E+00 -0.13535948667E+04  0.13535948667E+04  0.00000000000E+00 0.  1.
         23    2    1    2    0    0  0.89211039654E+03  0.33755148608E+03 -0.10229556712E+04  0.14016213047E+04  0.91115372997E+02 0.  0.
         13    1    3    3    0    0  0.64172430803E+03  0.26645080195E+03 -0.79249909533E+03  0.10539738770E+04  0.00000000000E+00 0.  1.
        -13    1    3    3    0    0  0.25038608850E+03  0.71100684133E+02 -0.23045657585E+03  0.34764742765E+03  0.00000000000E+00 0. -1.
         22    1    1    2    0    0 -0.89211039654E+03 -0.33755148608E+03  0.14683201169E+04  0.17509328745E+04  0.00000000000E+00 0. -1.
<mgrwt>
<rscale>  0 0.31209371E+04</rscale>
<asrwt>0</asrwt>
<pdfrwt beam="1">  1        2 0.27676297E+00 0.31209371E+04</pdfrwt>
<pdfrwt beam="2">  1       -2 0.20824536E+00 0.31209371E+04</pdfrwt>
<totfact> 0.86077787E-01</totfact>
</mgrwt>
</event>
<event>
 6    1  0.1614874E-005  0.3072756E+04  0.7818608E-02  0.8223255E-01
          2   -1    0    0  501    0  0.00000000000E+00  0.00000000000E+00  0.27878364714E+04  0.27878364714E+04  0.00000000000E+00 0. -1.
         -2   -1    0    0    0  501 -0.00000000000E+00 -0.00000000000E+00 -0.84669852697E+03  0.84669852697E+03  0.00000000000E+00 0.  1.
         23    2    1    2    0    0  0.98980250890E+03  0.30673293314E+03 -0.36810845032E+03  0.11034457051E+04  0.91074112635E+02 0.  0.
         13    1    3    3    0    0  0.75622600922E+03  0.21739178611E+03 -0.31635611787E+03  0.84806730806E+03  0.00000000000E+00 0. -1.
        -13    1    3    3    0    0  0.23357649968E+03  0.89341147033E+02 -0.51752332443E+02  0.25537839703E+03  0.00000000000E+00 0.  1.
         22    1    1    2    0    0 -0.98980250890E+03 -0.30673293314E+03  0.23092463947E+04  0.25310892933E+04  0.00000000000E+00 0. -1.
<mgrwt>
<rscale>  0 0.30727558E+04</rscale>
<asrwt>0</asrwt>
<pdfrwt beam="1">  1        2 0.42889792E+00 0.30727558E+04</pdfrwt>
<pdfrwt beam="2">  1       -2 0.13026131E+00 0.30727558E+04</pdfrwt>
<totfact> 0.86436049E-01</totfact>
</mgrwt>
</event>
<event>
 6    1  0.1614874E-005  0.1313020E+04  0.7818608E-02  0.9019303E-01
         -1   -1    0    0    0  501 -0.00000000000E+00  0.00000000000E+00  0.80765043722E+03  0.80765043722E+03  0.00000000000E+00 0.  1.
          1   -1    0    0  501    0  0.00000000000E+00 -0.00000000000E+00 -0.53365358081E+03  0.53365358081E+03  0.00000000000E+00 0. -1.
         23    2    1    2    0    0  0.31870722018E+03  0.16736117751E+03  0.69482531556E+03  0.78751647034E+03  0.88407669218E+02 0.  0.
         11    1    3    3    0    0  0.18543250389E+03  0.10680075850E+03  0.31839460231E+03  0.38362317226E+03  0.00000000000E+00 0. -1.
        -11    1    3    3    0    0  0.13327471629E+03  0.60560419015E+02  0.37643071326E+03  0.40389329808E+03  0.00000000000E+00 0.  1.
         22    1    1    2    0    0 -0.31870722018E+03 -0.16736117751E+03 -0.42082845915E+03  0.55378754768E+03  0.00000000000E+00 0. -1.
<mgrwt>
<rscale>  0 0.13130203E+04</rscale>
<asrwt>0</asrwt>
<pdfrwt beam="1">  1        1 0.82100550E-01 0.13130203E+04</pdfrwt>
<pdfrwt beam="2">  1       -1 0.12425391E+00 0.13130203E+04</pdfrwt>
<totfact> 0.22575856E+01</totfact>
</mgrwt>
</event>
<event>
 6    1  0.1614874E-005  0.3043953E+04  0.7818608E-02  0.8231290E-01
          2   -1    0    0  501    0  0.00000000000E+00  0.00000000000E+00  0.27199912281E+04  0.27199912281E+04  0.00000000000E+00 0. -1.
         -2   -1    0    0    0  501 -0.00000000000E+00 -0.00000000000E+00 -0.85162509941E+03  0.85162509941E+03  0.00000000000E+00 0.  1.
         23    2    1    2    0    0  0.15108907545E+04 -0.92037662327E+02  0.76508977466E+03  0.16985224920E+04  0.91402894872E+02 0.  0.
         13    1    3    3    0    0  0.20985745861E+03 -0.39447641534E+02  0.12753004803E+03  0.24871707321E+03  0.00000000000E+00 0. -1.
        -13    1    3    3    0    0  0.13010332959E+04 -0.52590020793E+02  0.63755972663E+03  0.14498054188E+04  0.00000000000E+00 0.  1.
         22    1    1    2    0    0 -0.15108907545E+04  0.92037662327E+02  0.11032763540E+04  0.18730938355E+04  0.00000000000E+00 0.  1.
<mgrwt>
<rscale>  0 0.30439532E+04</rscale>
<asrwt>0</asrwt>
<pdfrwt beam="1">  1        2 0.41846018E+00 0.30439532E+04</pdfrwt>
<pdfrwt beam="2">  1       -2 0.13101925E+00 0.30439532E+04</pdfrwt>
<totfact> 0.93787279E-01</totfact>
</mgrwt>
</event>
<event>
 6    1  0.1614874E-005  0.2255846E+04  0.7818608E-02  0.8495537E-01
         -2   -1    0    0    0  501 -0.00000000000E+00  0.00000000000E+00  0.66186039581E+03  0.66186039581E+03  0.00000000000E+00 0. -1.
          2   -1    0    0  501    0  0.00000000000E+00 -0.00000000000E+00 -0.19221735252E+04  0.19221735252E+04  0.00000000000E+00 0.  1.
         23    2    1    2    0    0 -0.89965072198E+03 -0.10783522365E+03  0.13493711977E+03  0.92038638778E+03  0.88900053439E+02 0.  0.
         13    1    3    3    0    0 -0.86520945004E+03 -0.86154243850E+02  0.13338210792E+03  0.87965944142E+03  0.00000000000E+00 0.  1.
        -13    1    3    3    0    0 -0.34441271944E+02 -0.21680979796E+02  0.15550118496E+01  0.40726946361E+02  0.00000000000E+00 0. -1.
         22    1    1    2    0    0  0.89965072198E+03  0.10783522365E+03 -0.13952502492E+04  0.16636475332E+04  0.00000000000E+00 0.  1.
<mgrwt>
<rscale>  0 0.22558462E+04</rscale>
<asrwt>0</asrwt>
<pdfrwt beam="1">  1        2 0.29571900E+00 0.22558462E+04</pdfrwt>
<pdfrwt beam="2">  1       -2 0.10182468E+00 0.22558462E+04</pdfrwt>
<totfact> 0.53134259E+00</totfact>
</mgrwt>
</event>
<event>
 6    1  0.1614874E-005  0.1973517E+04  0.7818608E-02  0.8619104E-01
          2   -1    0    0  501    0  0.00000000000E+00  0.00000000000E+00  0.23372988568E+04  0.23372988568E+04  0.00000000000E+00 0. -1.
         -2   -1    0    0    0  501 -0.00000000000E+00 -0.00000000000E+00 -0.41658854012E+03  0.41658854012E+03  0.00000000000E+00 0.  1.
         23    2    1    2    0    0 -0.60795241110E+03 -0.75262752542E+03  0.70677390561E+03  0.12015678627E+04  0.90452467339E+02 0.  0.
         11    1    3    3    0    0 -0.26492824215E+03 -0.26656574616E+03  0.24750840007E+03  0.45000519843E+03  0.00000000000E+00 0. -1.
        -11    1    3    3    0    0 -0.34302416895E+03 -0.48606177926E+03  0.45926550554E+03  0.75156266427E+03  0.00000000000E+00 0.  1.
         22    1    1    2    0    0  0.60795241110E+03  0.75262752542E+03  0.12139364111E+04  0.15523195342E+04  0.00000000000E+00 0. -1.
<mgrwt>
<rscale>  0 0.19735166E+04</rscale>
<asrwt>0</asrwt>
<pdfrwt beam="1">  1        2 0.35958443E+00 0.19735166E+04</pdfrwt>
<pdfrwt beam="2">  1       -2 0.64090546E-01 0.19735166E+04</pdfrwt>
<totfact> 0.90479643E+00</totfact>
</mgrwt>
</event>
<event>
 6    1  0.1614874E-005  0.1351406E+04  0.7818608E-02  0.8989764E-01
         -1   -1    0    0    0  501 -0.00000000000E+00  0.00000000000E+00  0.10953463276E+04  0.10953463276E+04  0.00000000000E+00 0.  1.
          1   -1    0    0  501    0  0.00000000000E+00 -0.00000000000E+00 -0.41683132287E+03  0.41683132287E+03  0.00000000000E+00 0. -1.
         23    2    1    2    0    0  0.19351892258E+03  0.16763402214E+03  0.10367367916E+04  0.10718668655E+04  0.92329104507E+02 0.  0.
         13    1    3    3    0    0  0.28253387710E+02 -0.91570021366E+01  0.13417997968E+03  0.13742769572E+03  0.00000000000E+00 0.  1.
        -13    1    3    3    0    0  0.16526553487E+03  0.17679102427E+03  0.90255681189E+03  0.93443916975E+03  0.00000000000E+00 0. -1.
         22    1    1    2    0    0 -0.19351892258E+03 -0.16763402214E+03 -0.35822178687E+03  0.44031078497E+03  0.00000000000E+00 0. -1.
<mgrwt>
<rscale>  0 0.13514062E+04</rscale>
<asrwt>0</asrwt>
<pdfrwt beam="1">  1        1 0.64127896E-01 0.13514062E+04</pdfrwt>
<pdfrwt beam="2">  1       -1 0.16851482E+00 0.13514062E+04</pdfrwt>
<totfact> 0.14021662E+01</totfact>
</mgrwt>
</event>
<event>
 6    1  0.1614874E-005  0.1270606E+04  0.7818608E-02  0.9053205E-01
         -1   -1    0    0    0  501 -0.00000000000E+00  0.00000000000E+00  0.12814485713E+04  0.12814485713E+04  0.00000000000E+00 0.  1.
          1   -1    0    0  501    0  0.00000000000E+00 -0.00000000000E+00 -0.31496361293E+03  0.31496361293E+03  0.00000000000E+00 0. -1.
         23    2    1    2    0    0  0.23563541212E+03 -0.37078812921E+03 -0.84986710752E+02  0.45685062152E+03  0.92097042170E+02 0.  0.
         13    1    3    3    0    0  0.15157302706E+03 -0.16381416231E+03 -0.19368339345E+02  0.22401918417E+03  0.00000000000E+00 0. -1.
        -13    1    3    3    0    0  0.84062385056E+02 -0.20697396690E+03 -0.65618371408E+02  0.23283143736E+03  0.00000000000E+00 0.  1.
         22    1    1    2    0    0 -0.23563541212E+03  0.37078812921E+03  0.10514716691E+04  0.11395615627E+04  0.00000000000E+00 0.  1.
<mgrwt>
<rscale>  0 0.12706056E+04</rscale>
<asrwt>0</asrwt>
<pdfrwt beam="1">  1        1 0.48455941E-01 0.12706056E+04</pdfrwt>
<pdfrwt beam="2">  1       -1 0.19714593E+00 0.12706056E+04</pdfrwt>
<totfact> 0.12759769E+01</totfact>
</mgrwt>
</event>
<event>
 6    1  0.1614874E-005  0.4392793E+04  0.7818608E-02  0.7929679E-01
         -1   -1    0    0    0  501 -0.00000000000E+00  0.00000000000E+00  0.10983363364E+04  0.10983363364E+04  0.00000000000E+00 0.  1.
          1   -1    0    0  501    0  0.00000000000E+00 -0.00000000000E+00 -0.43922406997E+04  0.43922406997E+04  0.00000000000E+00 0. -1.
         23    2    1    2    0    0  0.88640568173E+03 -0.11703782306E+04 -0.36879424696E+04  0.39704565592E+04  0.90029966095E+02 0.  0.
         13    1    3    3    0    0  0.45162215907E+03 -0.65226639632E+03 -0.19107992838E+04  0.20689533415E+04  0.00000000000E+00 0.  1.
        -13    1    3    3    0    0  0.43478352266E+03 -0.51811183426E+03 -0.17771431858E+04  0.19015032178E+04  0.00000000000E+00 0. -1.
         22    1    1    2    0    0 -0.88640568173E+03  0.11703782306E+04  0.39403810626E+03  0.15201204769E+04  0.00000000000E+00 0.  1.
<mgrwt>
<rscale>  0 0.43927930E+04</rscale>
<asrwt>0</asrwt>
<pdfrwt beam="1">  1        1 0.67572933E+00 0.43927930E+04</pdfrwt>
<pdfrwt beam="2">  1       -1 0.16897482E+00 0.43927930E+04</pdfrwt>
<totfact> 0.78048397E-03</totfact>
</mgrwt>
</event>
<event>
 6    1  0.1614874E-005  0.4714744E+04  0.7818608E-02  0.7874083E-01
          2   -1    0    0  501    0  0.00000000000E+00  0.00000000000E+00  0.26990802066E+04  0.26990802066E+04  0.00000000000E+00 0. -1.
         -2   -1    0    0    0  501 -0.00000000000E+00 -0.00000000000E+00 -0.20589246165E+04  0.20589246165E+04  0.00000000000E+00 0.  1.
         23    2    1    2    0    0 -0.23527526967E+03 -0.31332332590E+03  0.26653110268E+04  0.26952928942E+04  0.84823092069E+02 0.  0.
         11    1    3    3    0    0 -0.44579603636E+02 -0.59944667665E+02  0.31797558481E+03  0.32663309198E+03  0.00000000000E+00 0.  1.
        -11    1    3    3    0    0 -0.19069566603E+03 -0.25337865824E+03  0.23473354420E+04  0.23686598022E+04  0.00000000000E+00 0. -1.
         22    1    1    2    0    0  0.23527526967E+03  0.31332332590E+03 -0.20251554366E+04  0.20627119289E+04  0.00000000000E+00 0.  1.
<mgrwt>
<rscale>  0 0.47147440E+04</rscale>
<asrwt>0</asrwt>
<pdfrwt beam="1">  1        2 0.41524311E+00 0.47147440E+04</pdfrwt>
<pdfrwt beam="2">  1       -2 0.31675763E+00 0.47147440E+04</pdfrwt>
<totfact> 0.49641410E-02</totfact>
</mgrwt>
</event>
<event>
 6    1  0.1614874E-005  0.2501704E+04  0.7818608E-02  0.8402379E-01
          2   -1    0    0  501    0  0.00000000000E+00  0.00000000000E+00  0.25866725992E+04  0.25866725992E+04  0.00000000000E+00 0. -1.
         -2   -1    0    0    0  501 -0.00000000000E+00 -0.00000000000E+00 -0.60488156559E+03  0.60488156559E+03  0.00000000000E+00 0.  1.
         23    2    1    2    0    0  0.79613725604E+03 -0.26788516136E+03 -0.18741742332E+03  0.86538514261E+03  0.90383429680E+02 0.  0.
         11    1    3    3    0    0  0.68016403705E+03 -0.22803197443E+03 -0.12643084196E+03  0.72842738585E+03  0.00000000000E+00 0. -1.
        -11    1    3    3    0    0  0.11597321898E+03 -0.39853186930E+02 -0.60986581360E+02  0.13695775676E+03  0.00000000000E+00 0.  1.
         22    1    1    2    0    0 -0.79613725604E+03  0.26788516136E+03  0.21692084569E+04  0.23261690222E+04  0.00000000000E+00 0. -1.
<mgrwt>
<rscale>  0 0.25017039E+04</rscale>
<asrwt>0</asrwt>
<pdfrwt beam="1">  1        2 0.39794962E+00 0.25017039E+04</pdfrwt>
<pdfrwt beam="2">  1       -2 0.93058704E-01 0.25017039E+04</pdfrwt>
<totfact> 0.27019605E+00</totfact>
</mgrwt>
</event>
<event>
 6    1  0.1614874E-005  0.2533383E+04  0.7818608E-02  0.8391188E-01
         -2   -1    0    0    0  501 -0.00000000000E+00  0.00000000000E+00  0.15017708210E+04  0.15017708210E+04  0.00000000000E+00 0.  1.
          2   -1    0    0  501    0  0.00000000000E+00 -0.00000000000E+00 -0.10684105410E+04  0.10684105410E+04  0.00000000000E+00 0. -1.
         23    2    1    2    0    0 -0.32849935038E+03 -0.49524074627E+03  0.13499844087E+04  0.14777643111E+04  0.90300804559E+02 0.  0.
         11    1    3    3    0    0 -0.19097097097E+03 -0.25701853295E+03  0.82759421020E+03  0.88737850706E+03  0.00000000000E+00 0. -1.
        -11    1    3    3    0    0 -0.13752837941E+03 -0.23822221332E+03  0.52239019853E+03  0.59038580401E+03  0.00000000000E+00 0.  1.
         22    1    1    2    0    0  0.32849935038E+03  0.49524074627E+03 -0.91662412873E+03  0.10924170510E+04  0.00000000000E+00 0. -1.
<mgrwt>
<rscale>  0 0.25333833E+04</rscale>
<asrwt>0</asrwt>
<pdfrwt beam="1">  1        2 0.16437085E+00 0.25333833E+04</pdfrwt>
<pdfrwt beam="2">  1       -2 0.23104166E+00 0.25333833E+04</pdfrwt>
<totfact> 0.17073356E+00</totfact>
</mgrwt>
</event>
<event>
 6    1  0.1614874E-005  0.3290561E+04  0.7818608E-02  0.8165301E-01
         -1   -1    0    0    0  501 -0.00000000000E+00  0.00000000000E+00  0.46249841744E+04  0.46249841744E+04  0.00000000000E+00 0.  1.
          1   -1    0    0  501    0  0.00000000000E+00 -0.00000000000E+00 -0.58528792779E+03  0.58528792779E+03  0.00000000000E+00 0. -1.
         23    2    1    2    0    0 -0.13975901007E+04  0.22465660790E+03  0.33452840086E+04  0.36335866430E+04  0.91093978669E+02 0.  0.
         11    1    3    3    0    0 -0.45850210030E+03  0.37903939079E+02  0.10253459006E+04  0.11238305480E+04  0.00000000000E+00 0. -1.
        -11    1    3    3    0    0 -0.93908800037E+03  0.18675266883E+03  0.23199381080E+04  0.25097560951E+04  0.00000000000E+00 0.  1.
         22    1    1    2    0    0  0.13975901007E+04 -0.22465660790E+03  0.69441223802E+03  0.15766854592E+04  0.00000000000E+00 0. -1.
<mgrwt>
<rscale>  0 0.32905607E+04</rscale>
<asrwt>0</asrwt>
<pdfrwt beam="1">  1        1 0.90044299E-01 0.32905607E+04</pdfrwt>
<pdfrwt beam="2">  1       -1 0.71153601E+00 0.32905607E+04</pdfrwt>
<totfact> 0.53431491E-03</totfact>
</mgrwt>
</event>
<event>
 6    1  0.1614874E-005  0.1654093E+04  0.7818608E-02  0.8787989E-01
          2   -1    0    0  501    0  0.00000000000E+00  0.00000000000E+00  0.21077918770E+04  0.21077918770E+04  0.00000000000E+00 0. -1.
         -2   -1    0    0    0  501 -0.00000000000E+00 -0.00000000000E+00 -0.32451291784E+03  0.32451291784E+03  0.00000000000E+00 0.  1.
         23    2    1    2    0    0 -0.29640283679E+03 -0.27994140426E+03  0.19478734372E+04  0.19926308547E+04  0.10072221328E+03 0.  0.
         11    1    3    3    0    0 -0.22627459915E+03 -0.19622946044E+03  0.11993001252E+04  0.12361338866E+04  0.00000000000E+00 0. -1.
        -11    1    3    3    0    0 -0.70128237644E+02 -0.83711943820E+02  0.74857331200E+03  0.75649696807E+03  0.00000000000E+00 0.  1.
         22    1    1    2    0    0  0.29640283679E+03  0.27994140426E+03 -0.16459447801E+03  0.43967394017E+03  0.00000000000E+00 0.  1.
<mgrwt>
<rscale>  0 0.16540927E+04</rscale>
<asrwt>0</asrwt>
<pdfrwt beam="1">  1        2 0.32427567E+00 0.16540927E+04</pdfrwt>
<pdfrwt beam="2">  1       -2 0.49925066E-01 0.16540927E+04</pdfrwt>
<totfact> 0.21094597E+01</totfact>
</mgrwt>
</event>
<event>
 6    1  0.1614874E-005  0.5472094E+03  0.7818608E-02  0.1002142E+00
          1   -1    0    0  501    0  0.00000000000E+00  0.00000000000E+00  0.66724381849E+03  0.66724381849E+03  0.00000000000E+00 0. -1.
         -1   -1    0    0    0  501 -0.00000000000E+00 -0.00000000000E+00 -0.11219218476E+03  0.11219218476E+03  0.00000000000E+00 0.  1.
         23    2    1    2    0    0  0.73737461721E+01  0.18017112256E+03  0.71323903854E+01  0.20260717008E+03  0.92102056638E+02 0.  0.
         13    1    3    3    0    0  0.43473253741E+02  0.12803506360E+03  0.23197666987E+02  0.13718977023E+03  0.00000000000E+00 0.  1.
        -13    1    3    3    0    0 -0.36099507569E+02  0.52136058961E+02 -0.16065276601E+02  0.65417399849E+02  0.00000000000E+00 0. -1.
         22    1    1    2    0    0 -0.73737461721E+01 -0.18017112256E+03  0.54791924335E+03  0.57682883316E+03  0.00000000000E+00 0. -1.
<mgrwt>
<rscale>  0 0.54720944E+03</rscale>
<asrwt>0</asrwt>
<pdfrwt beam="1">  1        1 0.10265289E+00 0.54720944E+03</pdfrwt>
<pdfrwt beam="2">  1       -1 0.17260336E-01 0.54720944E+03</pdfrwt>
<totfact> 0.77176370E+02</totfact>
</mgrwt>
</event>
<event>
 6    1  0.1614874E-005  0.9041963E+03  0.7818608E-02  0.9420351E-01
          1   -1    0    0  501    0  0.00000000000E+00  0.00000000000E+00  0.26050797792E+03  0.26050797792E+03  0.00000000000E+00 0. -1.
         -1   -1    0    0    0  501 -0.00000000000E+00 -0.00000000000E+00 -0.78459296193E+03  0.78459296193E+03  0.00000000000E+00 0.  1.
         23    2    1    2    0    0  0.24283220148E+03 -0.29362707410E+02 -0.69777875923E+03  0.74510231617E+03  0.91938120858E+02 0.  0.
         13    1    3    3    0    0  0.65967269965E+02 -0.71483658127E+01 -0.90605738275E+02  0.11230396097E+03  0.00000000000E+00 0. -1.
        -13    1    3    3    0    0  0.17686493152E+03 -0.22214341598E+02 -0.60717302095E+03  0.63279835520E+03  0.00000000000E+00 0.  1.
         22    1    1    2    0    0 -0.24283220148E+03  0.29362707410E+02  0.17369377521E+03  0.29999862368E+03  0.00000000000E+00 0. -1.
<mgrwt>
<rscale>  0 0.90419628E+03</rscale>
<asrwt>0</asrwt>
<pdfrwt beam="1">  1        1 0.40078151E-01 0.90419628E+03</pdfrwt>
<pdfrwt beam="2">  1       -1 0.12070661E+00 0.90419628E+03</pdfrwt>
<totfact> 0.64845374E+01</totfact>
</mgrwt>
</event>
<event>
 6    1  0.1614874E-005  0.1190720E+04  0.7818608E-02  0.9121018E-01
          1   -1    0    0  501    0  0.00000000000E+00  0.00000000000E+00  0.56327847343E+03  0.56327847343E+03  0.00000000000E+00 0. -1.
         -1   -1    0    0    0  501 -0.00000000000E+00 -0.00000000000E+00 -0.62926877825E+03  0.62926877825E+03  0.00000000000E+00 0.  1.
         23    2    1    2    0    0  0.13373080922E+03 -0.26223802234E+03  0.48070728260E+03  0.57163585560E+03  0.95054458928E+02 0.  0.
         13    1    3    3    0    0  0.47651399791E+02 -0.59856421770E+02  0.61194738202E+02  0.97970623723E+02  0.00000000000E+00 0. -1.
        -13    1    3    3    0    0  0.86079409433E+02 -0.20238160057E+03  0.41951254440E+03  0.47366523187E+03  0.00000000000E+00 0.  1.
         22    1    1    2    0    0 -0.13373080922E+03  0.26223802234E+03 -0.54669758743E+03  0.62091139609E+03  0.00000000000E+00 0.  1.
<mgrwt>
<rscale>  0 0.11907200E+04</rscale>
<asrwt>0</asrwt>
<pdfrwt beam="1">  1        1 0.86658227E-01 0.11907200E+04</pdfrwt>
<pdfrwt beam="2">  1       -1 0.96810581E-01 0.11907200E+04</pdfrwt>
<totfact> 0.38129214E+01</totfact>
</mgrwt>
</event>
<event>
 6    1  0.1614874E-005  0.2124799E+04  0.7818608E-02  0.8550397E-01
         -2   -1    0    0    0  501 -0.00000000000E+00  0.00000000000E+00  0.95214155394E+03  0.95214155394E+03  0.00000000000E+00 0. -1.
          2   -1    0    0  501    0  0.00000000000E+00 -0.00000000000E+00 -0.11854256254E+04  0.11854256254E+04  0.00000000000E+00 0.  1.
         23    2    1    2    0    0 -0.40279406532E+03 -0.97291043831E+03 -0.24315977665E+03  0.10845261974E+04  0.90953921370E+02 0.  0.
         13    1    3    3    0    0 -0.30673900115E+02 -0.15825219948E+03 -0.42318009412E+02  0.16665971532E+03  0.00000000000E+00 0.  1.
        -13    1    3    3    0    0 -0.37212016520E+03 -0.81465823883E+03 -0.20084176723E+03  0.91786648207E+03  0.00000000000E+00 0. -1.
         22    1    1    2    0    0  0.40279406532E+03  0.97291043831E+03  0.98757052309E+01  0.10530409819E+04  0.00000000000E+00 0.  1.
<mgrwt>
<rscale>  0 0.21247993E+04</rscale>
<asrwt>0</asrwt>
<pdfrwt beam="1">  1        2 0.18237317E+00 0.21247993E+04</pdfrwt>
<pdfrwt beam="2">  1       -2 0.14648332E+00 0.21247993E+04</pdfrwt>
<totfact> 0.56706315E+00</totfact>
</mgrwt>
</event>
<event>
 6    1  0.1614874E-005  0.1153954E+04  0.7818608E-02  0.9154143E-01
         -1   -1    0    0    0  501 -0.00000000000E+00  0.00000000000E+00  0.33564883620E+03  0.33564883620E+03  0.00000000000E+00 0.  1.
          1   -1    0    0  501    0  0.00000000000E+00 -0.00000000000E+00 -0.99181811544E+03  0.99181811544E+03  0.00000000000E+00 0. -1.
         23    2    1    2    0    0 -0.43716833104E+03  0.37193210801E+03 -0.37777048907E+03  0.68953629005E+03  0.57446586025E+02 0.  0.
         11    1    3    3    0    0 -0.42222902331E+03  0.34193819613E+03 -0.35693814390E+03  0.65007993098E+03  0.00000000000E+00 0. -1.
        -11    1    3    3    0    0 -0.14939307734E+02  0.29993911876E+02 -0.20832345171E+02  0.39456359063E+02  0.00000000000E+00 0.  1.
         22    1    1    2    0    0  0.43716833104E+03 -0.37193210801E+03 -0.27839879017E+03  0.63793066159E+03  0.00000000000E+00 0. -1.
<mgrwt>
<rscale>  0 0.11539542E+04</rscale>
<asrwt>0</asrwt>
<pdfrwt beam="1">  1        1 0.15258740E+00 0.11539542E+04</pdfrwt>
<pdfrwt beam="2">  1       -1 0.51638284E-01 0.11539542E+04</pdfrwt>
<totfact> 0.57525327E+01</totfact>
</mgrwt>
</event>
<event>
 6    1  0.1614874E-005  0.7222239E+03  0.7818608E-02  0.9679963E-01
         -1   -1    0    0    0  501 -0.00000000000E+00  0.00000000000E+00  0.15489146479E+03  0.15489146479E+03  0.00000000000E+00 0.  1.
          1   -1    0    0  501    0  0.00000000000E+00 -0.00000000000E+00 -0.84189163975E+03  0.84189163975E+03  0.00000000000E+00 0. -1.
         23    2    1    2    0    0 -0.20073742592E+03 -0.28978149738E+02 -0.75173854854E+03  0.78388335268E+03  0.90702910158E+02 0.  0.
         13    1    3    3    0    0 -0.20267858994E+03 -0.98814717921E+01 -0.69179797427E+03  0.72094430541E+03  0.00000000000E+00 0. -1.
        -13    1    3    3    0    0  0.19411640161E+01 -0.19096677946E+02 -0.59940574272E+02  0.62939047263E+02  0.00000000000E+00 0.  1.
         22    1    1    2    0    0  0.20073742592E+03  0.28978149738E+02  0.64738373580E+02  0.21289975186E+03  0.00000000000E+00 0.  1.
<mgrwt>
<rscale>  0 0.72222387E+03</rscale>
<asrwt>0</asrwt>
<pdfrwt beam="1">  1        1 0.12952179E+00 0.72222387E+03</pdfrwt>
<pdfrwt beam="2">  1       -1 0.23829456E-01 0.72222387E+03</pdfrwt>
<totfact> 0.31281789E+02</totfact>
</mgrwt>
</event>
<event>
 6    1  0.1614874E-005  0.1655063E+04  0.7818608E-02  0.8787417E-01
         -2   -1    0    0    0  501 -0.00000000000E+00  0.00000000000E+00  0.54227219483E+03  0.54227219483E+03  0.00000000000E+00 0.  1.
          2   -1    0    0  501    0  0.00000000000E+00 -0.00000000000E+00 -0.12628498960E+04  0.12628498960E+04  0.00000000000E+00 0. -1.
         23    2    1    2    0    0  0.19907742744E+03  0.76822581140E+03 -0.60688283713E+03  0.10034181295E+04  0.93479651323E+02 0.  0.
         11    1    3    3    0    0  0.15953488106E+01  0.15122506122E+03 -0.11208358018E+03  0.18823998838E+03  0.00000000000E+00 0. -1.
        -11    1    3    3    0    0  0.19748207863E+03  0.61700075019E+03 -0.49479925695E+03  0.81517814113E+03  0.00000000000E+00 0.  1.
         22    1    1    2    0    0 -0.19907742744E+03 -0.76822581140E+03 -0.11369486401E+03  0.80170396128E+03  0.00000000000E+00 0.  1.
<mgrwt>
<rscale>  0 0.16550630E+04</rscale>
<asrwt>0</asrwt>
<pdfrwt beam="1">  1        2 0.19428460E+00 0.16550630E+04</pdfrwt>
<pdfrwt beam="2">  1       -2 0.83426492E-01 0.16550630E+04</pdfrwt>
<totfact> 0.20869137E+01</totfact>
</mgrwt>
</event>
<event>
 6    1  0.1614874E-005  0.2645424E+04  0.7818608E-02  0.8352933E-01
         -2   -1    0    0    0  501 -0.00000000000E+00  0.00000000000E+00  0.74931718366E+03  0.74931718366E+03  0.00000000000E+00 0. -1.
          2   -1    0    0  501    0  0.00000000000E+00 -0.00000000000E+00 -0.23348822273E+04  0.23348822273E+04  0.00000000000E+00 0.  1.
         23    2    1    2    0    0 -0.11263870494E+04  0.50816845024E+03 -0.24813386155E+03  0.12632916358E+04  0.85746048646E+02 0.  0.
         13    1    3    3    0    0 -0.34192352269E+03  0.11266373115E+03 -0.81087563950E+02  0.36902575074E+03  0.00000000000E+00 0.  1.
        -13    1    3    3    0    0 -0.78446352673E+03  0.39550471909E+03 -0.16704629760E+03  0.89426588504E+03  0.00000000000E+00 0. -1.
         22    1    1    2    0    0  0.11263870494E+04 -0.50816845024E+03 -0.13374311821E+04  0.18209077752E+04  0.00000000000E+00 0.  1.
<mgrwt>
<rscale>  0 0.26454243E+04</rscale>
<asrwt>0</asrwt>
<pdfrwt beam="1">  1        2 0.35921265E+00 0.26454243E+04</pdfrwt>
<pdfrwt beam="2">  1       -2 0.11527957E+00 0.26454243E+04</pdfrwt>
<totfact> 0.22369201E+00</totfact>
</mgrwt>
</event>
<event>
 6    1  0.1614874E-005  0.2964027E+04  0.7818608E-02  0.8254079E-01
          1   -1    0    0  501    0  0.00000000000E+00  0.00000000000E+00  0.24866094386E+04  0.24866094386E+04  0.00000000000E+00 0. -1.
         -1   -1    0    0    0  501 -0.00000000000E+00 -0.00000000000E+00 -0.88327644810E+03  0.88327644810E+03  0.00000000000E+00 0.  1.
         23    2    1    2    0    0  0.36366867728E+02 -0.91301046001E+03  0.21269634057E+04  0.23167479750E+04  0.91854240848E+02 0.  0.
         11    1    3    3    0    0  0.30060477023E+02 -0.32956770665E+03  0.66939144879E+03  0.74672847626E+03  0.00000000000E+00 0. -1.
        -11    1    3    3    0    0  0.63063907048E+01 -0.58344275336E+03  0.14575719569E+04  0.15700194988E+04  0.00000000000E+00 0.  1.
         22    1    1    2    0    0 -0.36366867728E+02  0.91301046001E+03 -0.52363041522E+03  0.10531379116E+04  0.00000000000E+00 0.  1.
<mgrwt>
<rscale>  0 0.29640267E+04</rscale>
<asrwt>0</asrwt>
<pdfrwt beam="1">  1        1 0.38255530E+00 0.29640267E+04</pdfrwt>
<pdfrwt beam="2">  1       -1 0.13588869E+00 0.29640267E+04</pdfrwt>
<totfact> 0.53494576E-01</totfact>
</mgrwt>
</event>
<event>
 6    1  0.1614874E-005  0.1542347E+04  0.7818608E-02  0.8856771E-01
          2   -1    0    0  501    0  0.00000000000E+00  0.00000000000E+00  0.23302428264E+04  0.23302428264E+04  0.00000000000E+00 0. -1.
         -2   -1    0    0    0  501 -0.00000000000E+00 -0.00000000000E+00 -0.25521309722E+03  0.25521309722E+03  0.00000000000E+00 0.  1.
         23    2    1    2    0    0 -0.47729380212E+03 -0.55197983967E+03  0.14456239196E+04  0.16217947850E+04  0.88874579231E+02 0.  0.
         13    1    3    3    0    0 -0.14683152657E+03 -0.20149900365E+03  0.41461488829E+03  0.48380455895E+03  0.00000000000E+00 0. -1.
        -13    1    3    3    0    0 -0.33046227555E+03 -0.35048083602E+03  0.10310090313E+04  0.11379902261E+04  0.00000000000E+00 0.  1.
         22    1    1    2    0    0  0.47729380212E+03  0.55197983967E+03  0.62940580959E+03  0.96366113862E+03  0.00000000000E+00 0.  1.
<mgrwt>
<rscale>  0 0.15423469E+04</rscale>
<asrwt>0</asrwt>
<pdfrwt beam="1">  1        2 0.35849888E+00 0.15423469E+04</pdfrwt>
<pdfrwt beam="2">  1       -2 0.39263555E-01 0.15423469E+04</pdfrwt>
<totfact> 0.25780409E+01</totfact>
</mgrwt>
</event>
<event>
 6    1  0.1614874E-005  0.3720821E+04  0.7818608E-02  0.8063363E-01
         -2   -1    0    0    0  501 -0.00000000000E+00  0.00000000000E+00  0.21302673164E+04  0.21302673164E+04  0.00000000000E+00 0.  1.
          2   -1    0    0  501    0  0.00000000000E+00 -0.00000000000E+00 -0.16247388232E+04  0.16247388232E+04  0.00000000000E+00 0. -1.
         23    2    1    2    0    0 -0.18567728743E+04  0.32596600154E+02  0.34469605269E+03  0.18909956463E+04  0.91548459205E+02 0.  0.
         11    1    3    3    0    0 -0.11094646490E+04  0.30795173841E+02  0.16173311935E+03  0.11216139051E+04  0.00000000000E+00 0.  1.
        -11    1    3    3    0    0 -0.74730822531E+03  0.18014263127E+01  0.18296293334E+03  0.76938174123E+03  0.00000000000E+00 0. -1.
         22    1    1    2    0    0  0.18567728743E+04 -0.32596600154E+02  0.16083244051E+03  0.18640104933E+04  0.00000000000E+00 0.  1.
<mgrwt>
<rscale>  0 0.37208214E+04</rscale>
<asrwt>0</asrwt>
<pdfrwt beam="1">  1        2 0.24995982E+00 0.37208214E+04</pdfrwt>
<pdfrwt beam="2">  1       -2 0.32773343E+00 0.37208214E+04</pdfrwt>
<totfact> 0.18689088E-01</totfact>
</mgrwt>
</event>
<event>
 6    1  0.1614874E-005  0.2571833E+04  0.7818608E-02  0.8377832E-01
         -2   -1    0    0    0  501 -0.00000000000E+00  0.00000000000E+00  0.79914270212E+03  0.79914270212E+03  0.00000000000E+00 0.  1.
          2   -1    0    0  501    0  0.00000000000E+00 -0.00000000000E+00 -0.20691946916E+04  0.20691946916E+04  0.00000000000E+00 0. -1.
         23    2    1    2    0    0 -0.49249523708E+03 -0.23422351017E+03 -0.19326323377E+04  0.20101853506E+04  0.91461357837E+02 0.  0.
         13    1    3    3    0    0 -0.13204925190E+03 -0.41489231742E+02 -0.37203403834E+03  0.39694796505E+03  0.00000000000E+00 0.  1.
        -13    1    3    3    0    0 -0.36044598518E+03 -0.19273427842E+03 -0.15605982993E+04  0.16132373856E+04  0.00000000000E+00 0. -1.
         22    1    1    2    0    0  0.49249523708E+03  0.23422351017E+03  0.66258034820E+03  0.85815204310E+03  0.00000000000E+00 0.  1.
<mgrwt>
<rscale>  0 0.25718335E+04</rscale>
<asrwt>0</asrwt>
<pdfrwt beam="1">  1        2 0.31833763E+00 0.25718335E+04</pdfrwt>
<pdfrwt beam="2">  1       -2 0.12294504E+00 0.25718335E+04</pdfrwt>
<totfact> 0.27091562E+00</totfact>
</mgrwt>
</event>
<event>
 6    1  0.1614874E-005  0.4065184E+04  0.7818608E-02  0.7991525E-01
          2   -1    0    0  501    0  0.00000000000E+00  0.00000000000E+00  0.18642406461E+04  0.18642406461E+04  0.00000000000E+00 0. -1.
         -2   -1    0    0    0  501 -0.00000000000E+00 -0.00000000000E+00 -0.22161460505E+04  0.22161460505E+04  0.00000000000E+00 0.  1.
         23    2    1    2    0    0  0.11187560575E+04 -0.16418980468E+04  0.25111511977E+03  0.20040731209E+04  0.76196839200E+02 0.  0.
         13    1    3    3    0    0  0.92683748283E+03 -0.14045488238E+04  0.20098833715E+03  0.16947511409E+04  0.00000000000E+00 0. -1.
        -13    1    3    3    0    0  0.19191857472E+03 -0.23734922302E+03  0.50126782623E+02  0.30932198003E+03  0.00000000000E+00 0.  1.
         22    1    1    2    0    0 -0.11187560575E+04  0.16418980468E+04 -0.60302052417E+03  0.20763135758E+04  0.00000000000E+00 0.  1.
<mgrwt>
<rscale>  0 0.40651837E+04</rscale>
<asrwt>0</asrwt>
<pdfrwt beam="1">  1        2 0.28680625E+00 0.40651837E+04</pdfrwt>
<pdfrwt beam="2">  1       -2 0.34094554E+00 0.40651837E+04</pdfrwt>
<totfact> 0.11062058E-01</totfact>
</mgrwt>
</event>
<event>
 6    1  0.1614874E-005  0.3377111E+04  0.7818608E-02  0.8143547E-01
          1   -1    0    0  501    0  0.00000000000E+00  0.00000000000E+00  0.29090370112E+04  0.29090370112E+04  0.00000000000E+00 0. -1.
         -1   -1    0    0    0  501 -0.00000000000E+00 -0.00000000000E+00 -0.98012496822E+03  0.98012496822E+03  0.00000000000E+00 0.  1.
         23    2    1    2    0    0  0.12556111984E+04 -0.31431317391E+03  0.22116876921E+04  0.25642792221E+04  0.92807479041E+02 0.  0.
         11    1    3    3    0    0  0.57703108019E+03 -0.97073696146E+02  0.10062827060E+04  0.11640416893E+04  0.00000000000E+00 0.  1.
        -11    1    3    3    0    0  0.67858011825E+03 -0.21723947776E+03  0.12054049862E+04  0.14002375328E+04  0.00000000000E+00 0. -1.
         22    1    1    2    0    0 -0.12556111984E+04  0.31431317391E+03 -0.28277564919E+03  0.13248827573E+04  0.00000000000E+00 0.  1.
<mgrwt>
<rscale>  0 0.33771111E+04</rscale>
<asrwt>0</asrwt>
<pdfrwt beam="1">  1        1 0.44754415E+00 0.33771111E+04</pdfrwt>
<pdfrwt beam="2">  1       -1 0.15078846E+00 0.33771111E+04</pdfrwt>
<totfact> 0.19719612E-01</totfact>
</mgrwt>
</event>
<event>
 6    1  0.1614874E-005  0.2722820E+03  0.7818608E-02  0.1099981E+00
          2   -1    0    0  501    0  0.00000000000E+00  0.00000000000E+00  0.34028492512E+03  0.34028492512E+03  0.00000000000E+00 0. -1.
         -2   -1    0    0    0  501 -0.00000000000E+00 -0.00000000000E+00 -0.54467204975E+02  0.54467204975E+02  0.00000000000E+00 0.  1.
         23    2    1    2    0    0  0.49546186535E+02  0.10872989599E+03  0.13179550411E+03  0.19981660764E+03  0.90992345310E+02 0.  0.
         13    1    3    3    0    0  0.66155718937E+02  0.38233238310E+02  0.54255821502E+02  0.93712612953E+02  0.00000000000E+00 0.  1.
        -13    1    3    3    0    0 -0.16609532402E+02  0.70496657676E+02  0.77539682605E+02  0.10610399469E+03  0.00000000000E+00 0. -1.
         22    1    1    2    0    0 -0.49546186535E+02 -0.10872989599E+03  0.15402221604E+03  0.19493552245E+03  0.00000000000E+00 0.  1.
<mgrwt>
<rscale>  0 0.27228198E+03</rscale>
<asrwt>0</asrwt>
<pdfrwt beam="1">  1        2 0.52351526E-01 0.27228198E+03</pdfrwt>
<pdfrwt beam="2">  1       -2 0.83795702E-02 0.27228198E+03</pdfrwt>
<totfact> 0.83111918E+03</totfact>
</mgrwt>
</event>
<event>
 6    1  0.1614874E-005  0.1689149E+04  0.7818608E-02  0.8767577E-01
         -2   -1    0    0    0  501 -0.00000000000E+00  0.00000000000E+00  0.29496754052E+03  0.29496754052E+03  0.00000000000E+00 0.  1.
          2   -1    0    0  501    0  0.00000000000E+00 -0.00000000000E+00 -0.24182523024E+04  0.24182523024E+04  0.00000000000E+00 0. -1.
         23    2    1    2    0    0  0.62428501699E+02  0.65202736613E+03 -0.21260850793E+03  0.69338798076E+03  0.80916686878E+02 0.  0.
         13    1    3    3    0    0  0.39432262746E+02  0.10359985210E+03 -0.28949881061E+02  0.11456844380E+03  0.00000000000E+00 0.  1.
        -13    1    3    3    0    0  0.22996238953E+02  0.54842751403E+03 -0.18365862687E+03  0.57881953697E+03  0.00000000000E+00 0. -1.
         22    1    1    2    0    0 -0.62428501699E+02 -0.65202736613E+03 -0.19106762540E+04  0.20198318622E+04  0.00000000000E+00 0. -1.
<mgrwt>
<rscale>  0 0.16891488E+04</rscale>
<asrwt>0</asrwt>
<pdfrwt beam="1">  1        2 0.37203881E+00 0.16891488E+04</pdfrwt>
<pdfrwt beam="2">  1       -2 0.45379622E-01 0.16891488E+04</pdfrwt>
<totfact> 0.17041655E+01</totfact>
</mgrwt>
</event>
<event>
 6    1  0.1614874E-005  0.2437185E+04  0.7818608E-02  0.8425712E-01
         -2   -1    0    0    0  501 -0.00000000000E+00  0.00000000000E+00  0.72915525997E+03  0.72915525997E+03  0.00000000000E+00 0.  1.
          2   -1    0    0  501    0  0.00000000000E+00 -0.00000000000E+00 -0.20365595908E+04  0.20365595908E+04  0.00000000000E+00 0. -1.
         23    2    1    2    0    0 -0.78003561825E+03  0.52462609203E+03 -0.15315288483E+04  0.17993195374E+04  0.91005947621E+02 0.  0.
         11    1    3    3    0    0 -0.43935162526E+03  0.34477167386E+03 -0.87159767337E+03  0.10351714167E+04  0.00000000000E+00 0. -1.
        -11    1    3    3    0    0 -0.34068399299E+03  0.17985441818E+03 -0.65993117492E+03  0.76414812075E+03  0.00000000000E+00 0.  1.
         22    1    1    2    0    0  0.78003561825E+03 -0.52462609203E+03  0.22412451751E+03  0.96639531328E+03  0.00000000000E+00 0.  1.
<mgrwt>
<rscale>  0 0.24371854E+04</rscale>
<asrwt>0</asrwt>
<pdfrwt beam="1">  1        2 0.31331685E+00 0.24371854E+04</pdfrwt>
<pdfrwt beam="2">  1       -2 0.11217773E+00 0.24371854E+04</pdfrwt>
<totfact> 0.35803359E+00</totfact>
</mgrwt>
</event>
<event>
 6    1  0.1614874E-005  0.7580230E+03  0.7818608E-02  0.9622847E-01
          2   -1    0    0  501    0  0.00000000000E+00  0.00000000000E+00  0.12521269143E+04  0.12521269143E+04  0.00000000000E+00 0. -1.
         -2   -1    0    0    0  501 -0.00000000000E+00 -0.00000000000E+00 -0.11472455989E+03  0.11472455989E+03  0.00000000000E+00 0.  1.
         23    2    1    2    0    0  0.21523218393E+03 -0.13479350142E+03  0.10711982631E+04  0.11044068844E+04  0.88060582978E+02 0.  0.
         11    1    3    3    0    0  0.17913254621E+03 -0.80735850860E+02  0.67897589441E+03  0.70683450107E+03  0.00000000000E+00 0. -1.
        -11    1    3    3    0    0  0.36099637729E+02 -0.54057650562E+02  0.39222236873E+03  0.39757238330E+03  0.00000000000E+00 0.  1.
         22    1    1    2    0    0 -0.21523218393E+03  0.13479350142E+03  0.66204091280E+02  0.26244458983E+03  0.00000000000E+00 0.  1.
<mgrwt>
<rscale>  0 0.75802298E+03</rscale>
<asrwt>0</asrwt>
<pdfrwt beam="1">  1        2 0.19263490E+00 0.75802298E+03</pdfrwt>
<pdfrwt beam="2">  1       -2 0.17649933E-01 0.75802298E+03</pdfrwt>
<totfact> 0.47168913E+02</totfact>
</mgrwt>
</event>
<event>
 6    1  0.1614874E-005  0.2742722E+04  0.7818608E-02  0.8321275E-01
         -2   -1    0    0    0  501 -0.00000000000E+00  0.00000000000E+00  0.83623038797E+03  0.83623038797E+03  0.00000000000E+00 0.  1.
          2   -1    0    0  501    0  0.00000000000E+00 -0.00000000000E+00 -0.22489393233E+04  0.22489393233E+04  0.00000000000E+00 0. -1.
         23    2    1    2    0    0 -0.87464698051E+03 -0.68548893123E+03  0.19379072336E+03  0.11317768760E+04  0.91987158409E+02 0.  0.
         11    1    3    3    0    0 -0.76374264772E+03 -0.60624667790E+03  0.19968151116E+03  0.99534444907E+03  0.00000000000E+00 0. -1.
        -11    1    3    3    0    0 -0.11090433279E+03 -0.79242253337E+02 -0.58907878010E+01  0.13643242696E+03  0.00000000000E+00 0.  1.
         22    1    1    2    0    0  0.87464698051E+03  0.68548893123E+03 -0.16064996587E+04  0.19533928352E+04  0.00000000000E+00 0. -1.
<mgrwt>
<rscale>  0 0.27427223E+04</rscale>
<asrwt>0</asrwt>
<pdfrwt beam="1">  1        2 0.34599065E+00 0.27427223E+04</pdfrwt>
<pdfrwt beam="2">  1       -2 0.12865083E+00 0.27427223E+04</pdfrwt>
<totfact> 0.18889378E+00</totfact>
</mgrwt>
</event>
<event>
 6    1  0.1614874E-005  0.1343569E+04  0.7818608E-02  0.8995711E-01
          2   -1    0    0  501    0  0.00000000000E+00  0.00000000000E+00  0.13081704602E+04  0.13081704602E+04  0.00000000000E+00 0. -1.
         -2   -1    0    0    0  501 -0.00000000000E+00 -0.00000000000E+00 -0.34498136742E+03  0.34498136742E+03  0.00000000000E+00 0.  1.
         23    2    1    2    0    0 -0.17476508873E+03 -0.64521417621E+03  0.49187419141E+03  0.83523868698E+03  0.94017416604E+02 0.  0.
         11    1    3    3    0    0 -0.15394407931E+03 -0.39694940865E+03  0.31881239116E+03  0.53189186245E+03  0.00000000000E+00 0. -1.
        -11    1    3    3    0    0 -0.20821009420E+02 -0.24826476756E+03  0.17306180025E+03  0.30334682453E+03  0.00000000000E+00 0.  1.
         22    1    1    2    0    0  0.17476508873E+03  0.64521417621E+03  0.47131490140E+03  0.81791314068E+03  0.00000000000E+00 0. -1.
<mgrwt>
<rscale>  0 0.13435690E+04</rscale>
<asrwt>0</asrwt>
<pdfrwt beam="1">  1        2 0.20125699E+00 0.13435690E+04</pdfrwt>
<pdfrwt beam="2">  1       -2 0.53074057E-01 0.13435690E+04</pdfrwt>
<totfact> 0.53478810E+01</totfact>
</mgrwt>
</event>
<event>
 6    1  0.1614874E-005  0.1686358E+04  0.7818608E-02  0.8769184E-01
          2   -1    0    0  501    0  0.00000000000E+00  0.00000000000E+00  0.16301897240E+04  0.16301897240E+04  0.00000000000E+00 0. -1.
         -2   -1    0    0    0  501 -0.00000000000E+00 -0.00000000000E+00 -0.43611514478E+03  0.43611514478E+03  0.00000000000E+00 0.  1.
         23    2    1    2    0    0 -0.57945382894E+03 -0.18384103993E+03  0.13104437315E+04  0.14473492585E+04  0.89402654837E+02 0.  0.
         11    1    3    3    0    0 -0.36063809170E+03 -0.83593981730E+02  0.86868171272E+03  0.94427522735E+03  0.00000000000E+00 0.  1.
        -11    1    3    3    0    0 -0.21881573724E+03 -0.10024705820E+03  0.44176201881E+03  0.50307403114E+03  0.00000000000E+00 0. -1.
         22    1    1    2    0    0  0.57945382894E+03  0.18384103993E+03 -0.11636915235E+03  0.61895561025E+03  0.00000000000E+00 0.  1.
<mgrwt>
<rscale>  0 0.16863575E+04</rscale>
<asrwt>0</asrwt>
<pdfrwt beam="1">  1        2 0.25079842E+00 0.16863575E+04</pdfrwt>
<pdfrwt beam="2">  1       -2 0.67094638E-01 0.16863575E+04</pdfrwt>
<totfact> 0.20827924E+01</totfact>
</mgrwt>
</event>
<event>
 6    1  0.1614874E-005  0.2455199E+04  0.7818608E-02  0.8419122E-01
         -1   -1    0    0    0  501 -0.00000000000E+00  0.00000000000E+00  0.68650639802E+03  0.68650639802E+03  0.00000000000E+00 0. -1.
          1   -1    0    0  501    0  0.00000000000E+00 -0.00000000000E+00 -0.21951740502E+04  0.21951740502E+04  0.00000000000E+00 0.  1.
         23    2    1    2    0    0  0.64054345141E+03 -0.72592057459E+03 -0.16369587535E+04  0.19050970158E+04  0.11182166706E+03 0.  0.
         13    1    3    3    0    0  0.52220913208E+03 -0.53414658602E+03 -0.12014721342E+04  0.14147615496E+04  0.00000000000E+00 0.  1.
        -13    1    3    3    0    0  0.11833431932E+03 -0.19177398858E+03 -0.43548661937E+03  0.49033546626E+03  0.00000000000E+00 0. -1.
         22    1    1    2    0    0 -0.64054345141E+03  0.72592057459E+03  0.12829110134E+03  0.97658343240E+03  0.00000000000E+00 0. -1.
<mgrwt>
<rscale>  0 0.24551994E+04</rscale>
<asrwt>0</asrwt>
<pdfrwt beam="1">  1        1 0.33771909E+00 0.24551994E+04</pdfrwt>
<pdfrwt beam="2">  1       -1 0.10561637E+00 0.24551994E+04</pdfrwt>
<totfact> 0.16436750E+00</totfact>
</mgrwt>
</event>
<event>
 6    1  0.1614874E-005  0.7487210E+04  0.7818608E-02  0.7529175E-01
         -2   -1    0    0    0  501 -0.00000000000E+00  0.00000000000E+00  0.34507134131E+04  0.34507134131E+04  0.00000000000E+00 0. -1.
          2   -1    0    0  501    0  0.00000000000E+00 -0.00000000000E+00 -0.40613570656E+04  0.40613570656E+04  0.00000000000E+00 0.  1.
         23    2    1    2    0    0 -0.37337756016E+04  0.24460897785E+03 -0.20756109037E+03  0.37486426069E+04  0.91246877929E+02 0.  0.
         13    1    3    3    0    0 -0.24245744781E+04  0.20227623726E+03 -0.13884176531E+03  0.24369559109E+04  0.00000000000E+00 0.  1.
        -13    1    3    3    0    0 -0.13092011235E+04  0.42332740586E+02 -0.68719325067E+02  0.13116866959E+04  0.00000000000E+00 0. -1.
         22    1    1    2    0    0  0.37337756016E+04 -0.24460897785E+03 -0.40308256215E+03  0.37634278719E+04  0.00000000000E+00 0. -1.
<mgrwt>
<rscale>  0 0.74872102E+04</rscale>
<asrwt>0</asrwt>
<pdfrwt beam="1">  1        2 0.62482416E+00 0.74872102E+04</pdfrwt>
<pdfrwt beam="2">  1       -2 0.53087899E+00 0.74872102E+04</pdfrwt>
<totfact> 0.20161065E-04</totfact>
</mgrwt>
</event>
<event>
 6    1  0.1614874E-005  0.1292091E+04  0.7818608E-02  0.9035860E-01
         -1   -1    0    0    0  501 -0.00000000000E+00  0.00000000000E+00  0.67389407806E+03  0.67389407806E+03  0.00000000000E+00 0.  1.
          1   -1    0    0  501    0  0.00000000000E+00 -0.00000000000E+00 -0.61934808503E+03  0.61934808503E+03  0.00000000000E+00 0. -1.
         23    2    1    2    0    0  0.38100874005E+03 -0.21958698964E+01  0.54559714844E+03  0.67170880191E+03  0.91345412254E+02 0.  0.
         11    1    3    3    0    0  0.12827911017E+03  0.58006860666E+01  0.26187358779E+03  0.29166239738E+03  0.00000000000E+00 0.  1.
        -11    1    3    3    0    0  0.25272962988E+03 -0.79965559630E+01  0.28372356064E+03  0.38004640453E+03  0.00000000000E+00 0. -1.
         22    1    1    2    0    0 -0.38100874005E+03  0.21958698964E+01 -0.49105115540E+03  0.62153336118E+03  0.00000000000E+00 0. -1.
<mgrwt>
<rscale>  0 0.12920913E+04</rscale>
<asrwt>0</asrwt>
<pdfrwt beam="1">  1        1 0.95284320E-01 0.12920913E+04</pdfrwt>
<pdfrwt beam="2">  1       -1 0.10367601E+00 0.12920913E+04</pdfrwt>
<totfact> 0.28206417E+01</totfact>
</mgrwt>
</event>
<event>
 6    1  0.1614874E-005  0.6057185E+03  0.7818608E-02  0.9893612E-01
          1   -1    0    0  501    0  0.00000000000E+00  0.00000000000E+00  0.11342697598E+04  0.11342697598E+04  0.00000000000E+00 0. -1.
         -1   -1    0    0    0  501 -0.00000000000E+00 -0.00000000000E+00 -0.80865887223E+02  0.80865887223E+02  0.00000000000E+00 0.  1.
         23    2    1    2    0    0 -0.24040695278E+02  0.22443354111E+03  0.92314255484E+03  0.95452793360E+03  0.89347803906E+02 0.  0.
         11    1    3    3    0    0 -0.26814347312E+02  0.10963174342E+03  0.29257922646E+03  0.31359325908E+03  0.00000000000E+00 0. -1.
        -11    1    3    3    0    0  0.27736520346E+01  0.11480179768E+03  0.63056332838E+03  0.64093467452E+03  0.00000000000E+00 0.  1.
         22    1    1    2    0    0  0.24040695278E+02 -0.22443354111E+03  0.13026131776E+03  0.26060771344E+03  0.00000000000E+00 0.  1.
<mgrwt>
<rscale>  0 0.60571852E+03</rscale>
<asrwt>0</asrwt>
<pdfrwt beam="1">  1        1 0.17450303E+00 0.60571852E+03</pdfrwt>
<pdfrwt beam="2">  1       -1 0.12440907E-01 0.60571852E+03</pdfrwt>
<totfact> 0.54133019E+02</totfact>
</mgrwt>
</event>
<event>
 6    1  0.1614874E-005  0.4212025E+04  0.7818608E-02  0.7963089E-01
          1   -1    0    0  501    0  0.00000000000E+00  0.00000000000E+00  0.13264071173E+04  0.13264071173E+04  0.00000000000E+00 0.  1.
         -1   -1    0    0    0  501 -0.00000000000E+00 -0.00000000000E+00 -0.33438363594E+04  0.33438363594E+04  0.00000000000E+00 0. -1.
         23    2    1    2    0    0  0.51339869642E+03 -0.15896990462E+04 -0.24293512127E+04  0.29496618922E+04  0.89647559384E+02 0.  0.
         13    1    3    3    0    0  0.45448719301E+03 -0.13454647967E+04 -0.20170838386E+04  0.24668727854E+04  0.00000000000E+00 0. -1.
        -13    1    3    3    0    0  0.58911503411E+02 -0.24423424950E+03 -0.41226737413E+03  0.48278910679E+03  0.00000000000E+00 0.  1.
         22    1    1    2    0    0 -0.51339869642E+03  0.15896990462E+04  0.41192197055E+03  0.17205815844E+04  0.00000000000E+00 0.  1.
<mgrwt>
<rscale>  0 0.42120249E+04</rscale>
<asrwt>0</asrwt>
<pdfrwt beam="1">  1        1 0.20406263E+00 0.42120249E+04</pdfrwt>
<pdfrwt beam="2">  1       -1 0.51443637E+00 0.42120249E+04</pdfrwt>
<totfact> 0.80611614E-03</totfact>
</mgrwt>
</event>
<event>
 6    1  0.1614874E-005  0.3156547E+04  0.7818608E-02  0.8200388E-01
          2   -1    0    0  501    0  0.00000000000E+00  0.00000000000E+00  0.18197090521E+04  0.18197090521E+04  0.00000000000E+00 0. -1.
         -2   -1    0    0    0  501 -0.00000000000E+00 -0.00000000000E+00 -0.13688707689E+04  0.13688707689E+04  0.00000000000E+00 0.  1.
         23    2    1    2    0    0  0.13093579641E+03  0.14466288590E+04 -0.39444888533E+03  0.15079877719E+04  0.92509233930E+02 0.  0.
         13    1    3    3    0    0  0.33726897967E+02  0.87004170707E+03 -0.24300843441E+03  0.90397078210E+03  0.00000000000E+00 0. -1.
        -13    1    3    3    0    0  0.97208898444E+02  0.57658715197E+03 -0.15144045092E+03  0.60401698977E+03  0.00000000000E+00 0.  1.
         22    1    1    2    0    0 -0.13093579641E+03 -0.14466288590E+04  0.84528716848E+03  0.16805920492E+04  0.00000000000E+00 0.  1.
<mgrwt>
<rscale>  0 0.31565465E+04</rscale>
<asrwt>0</asrwt>
<pdfrwt beam="1">  1        2 0.27995524E+00 0.31565465E+04</pdfrwt>
<pdfrwt beam="2">  1       -2 0.21059550E+00 0.31565465E+04</pdfrwt>
<totfact> 0.80714712E-01</totfact>
</mgrwt>
</event>
<event>
 6    1  0.1614874E-005  0.1366716E+04  0.7818608E-02  0.8978270E-01
         -1   -1    0    0    0  501 -0.00000000000E+00  0.00000000000E+00  0.40831851030E+03  0.40831851030E+03  0.00000000000E+00 0.  1.
          1   -1    0    0  501    0  0.00000000000E+00 -0.00000000000E+00 -0.11436616676E+04  0.11436616676E+04  0.00000000000E+00 0. -1.
         23    2    1    2    0    0 -0.42761725880E+03  0.57755468360E+02 -0.96647606563E+03  0.10624756984E+04  0.92662884406E+02 0.  0.
         11    1    3    3    0    0 -0.24569289990E+03  0.69555951885E+01 -0.63579625584E+03  0.68165259503E+03  0.00000000000E+00 0.  1.
        -11    1    3    3    0    0 -0.18192435890E+03  0.50799873171E+02 -0.33067980979E+03  0.38082310339E+03  0.00000000000E+00 0. -1.
         22    1    1    2    0    0  0.42761725880E+03 -0.57755468360E+02  0.23113290831E+03  0.48950447950E+03  0.00000000000E+00 0.  1.
<mgrwt>
<rscale>  0 0.13667161E+04</rscale>
<asrwt>0</asrwt>
<pdfrwt beam="1">  1        1 0.17594795E+00 0.13667161E+04</pdfrwt>
<pdfrwt beam="2">  1       -1 0.62818232E-01 0.13667161E+04</pdfrwt>
<totfact> 0.29547153E+01</totfact>
</mgrwt>
</event>
<event>
 6    1  0.1614874E-005  0.3264926E+04  0.7818608E-02  0.8171878E-01
          2   -1    0    0  501    0  0.00000000000E+00  0.00000000000E+00  0.19794515797E+04  0.19794515797E+04  0.00000000000E+00 0. -1.
         -2   -1    0    0    0  501 -0.00000000000E+00 -0.00000000000E+00 -0.13462998025E+04  0.13462998025E+04  0.00000000000E+00 0.  1.
         23    2    1    2    0    0  0.15108593191E+03  0.15073827708E+04  0.93268249609E+03  0.17814883126E+04  0.93670662944E+02 0.  0.
         11    1    3    3    0    0  0.99354310269E+02  0.54159790764E+03  0.34315696894E+03  0.64881143475E+03  0.00000000000E+00 0. -1.
        -11    1    3    3    0    0  0.51731621640E+02  0.96578486315E+03  0.58952552714E+03  0.11326768779E+04  0.00000000000E+00 0.  1.
         22    1    1    2    0    0 -0.15108593191E+03 -0.15073827708E+04 -0.29953071888E+03  0.15442630696E+04  0.00000000000E+00 0.  1.
<mgrwt>
<rscale>  0 0.32649259E+04</rscale>
<asrwt>0</asrwt>
<pdfrwt beam="1">  1        2 0.30453101E+00 0.32649259E+04</pdfrwt>
<pdfrwt beam="2">  1       -2 0.20712305E+00 0.32649259E+04</pdfrwt>
<totfact> 0.68669235E-01</totfact>
</mgrwt>
</event>
<event>
 6    1  0.1614874E-005  0.3299607E+04  0.7818608E-02  0.8162995E-01
         -2   -1    0    0    0  501 -0.00000000000E+00  0.00000000000E+00  0.11283869708E+04  0.11283869708E+04  0.00000000000E+00 0. -1.
          2   -1    0    0  501    0  0.00000000000E+00 -0.00000000000E+00 -0.24121618096E+04  0.24121618096E+04  0.00000000000E+00 0.  1.
         23    2    1    2    0    0 -0.36551260281E+03 -0.15601872742E+04 -0.22907329383E+03  0.16221694794E+04  0.10571401361E+03 0.  0.
         13    1    3    3    0    0 -0.21102205017E+03 -0.10223930498E+04 -0.19152271384E+03  0.10613664795E+04  0.00000000000E+00 0.  1.
        -13    1    3    3    0    0 -0.15449055264E+03 -0.53779422439E+03 -0.37550579990E+02  0.56080299990E+03  0.00000000000E+00 0. -1.
         22    1    1    2    0    0  0.36551260281E+03  0.15601872742E+04 -0.10547015450E+04  0.19183793010E+04  0.00000000000E+00 0. -1.
<mgrwt>
<rscale>  0 0.32996072E+04</rscale>
<asrwt>0</asrwt>
<pdfrwt beam="1">  1        2 0.37110182E+00 0.32996072E+04</pdfrwt>
<pdfrwt beam="2">  1       -2 0.17359799E+00 0.32996072E+04</pdfrwt>
<totfact> 0.65669702E-01</totfact>
</mgrwt>
</event>
<event>
 6    1  0.1614874E-005  0.1723358E+04  0.7818608E-02  0.8748153E-01
          4   -1    0    0  501    0  0.00000000000E+00  0.00000000000E+00  0.11209296396E+04  0.11209296396E+04  0.00000000000E+00 0. -1.
         -4   -1    0    0    0  501 -0.00000000000E+00 -0.00000000000E+00 -0.66238842248E+03  0.66238842248E+03  0.00000000000E+00 0.  1.
         23    2    1    2    0    0 -0.50856496419E+03 -0.32203751592E+03  0.86449040990E+03  0.10572731381E+04  0.90201636432E+02 0.  0.
         13    1    3    3    0    0 -0.23117840098E+03 -0.19917133000E+03  0.42178783825E+03  0.52059355765E+03  0.00000000000E+00 0. -1.
        -13    1    3    3    0    0 -0.27738656322E+03 -0.12286618592E+03  0.44270257165E+03  0.53667958043E+03  0.00000000000E+00 0.  1.
         22    1    1    2    0    0  0.50856496419E+03  0.32203751592E+03 -0.40594919283E+03  0.72604492397E+03  0.00000000000E+00 0.  1.
<mgrwt>
<rscale>  0 0.17233581E+04</rscale>
<asrwt>0</asrwt>
<pdfrwt beam="1">  1        4 0.17245071E+00 0.17233581E+04</pdfrwt>
<pdfrwt beam="2">  1       -4 0.10190591E+00 0.17233581E+04</pdfrwt>
<totfact> 0.30463659E-01</totfact>
</mgrwt>
</event>
<event>
 6    1  0.1614874E-005  0.2998692E+04  0.7818608E-02  0.8244104E-01
          2   -1    0    0  501    0  0.00000000000E+00  0.00000000000E+00  0.22743092569E+04  0.22743092569E+04  0.00000000000E+00 0. -1.
         -2   -1    0    0    0  501 -0.00000000000E+00 -0.00000000000E+00 -0.98844914731E+03  0.98844914731E+03  0.00000000000E+00 0.  1.
         23    2    1    2    0    0  0.95498318508E+02 -0.14838155360E+04  0.84097701788E+03  0.17107437655E+04  0.92592725069E+02 0.  0.
         13    1    3    3    0    0  0.36703657576E+02 -0.24083736769E+03  0.16932543549E+03  0.29668316308E+03  0.00000000000E+00 0. -1.
        -13    1    3    3    0    0  0.58794660931E+02 -0.12429781683E+04  0.67165158239E+03  0.14140606024E+04  0.00000000000E+00 0.  1.
         22    1    1    2    0    0 -0.95498318508E+02  0.14838155360E+04  0.44488309176E+03  0.15520146388E+04  0.00000000000E+00 0.  1.
<mgrwt>
<rscale>  0 0.29986924E+04</rscale>
<asrwt>0</asrwt>
<pdfrwt beam="1">  1        2 0.34989373E+00 0.29986924E+04</pdfrwt>
<pdfrwt beam="2">  1       -2 0.15206910E+00 0.29986924E+04</pdfrwt>
<totfact> 0.11594697E+00</totfact>
</mgrwt>
</event>
<event>
 6    1  0.1614874E-005  0.1665701E+04  0.7818608E-02  0.8781172E-01
         -2   -1    0    0    0  501 -0.00000000000E+00  0.00000000000E+00  0.61613490217E+03  0.61613490217E+03  0.00000000000E+00 0.  1.
          2   -1    0    0  501    0  0.00000000000E+00 -0.00000000000E+00 -0.11257918868E+04  0.11257918868E+04  0.00000000000E+00 0. -1.
         23    2    1    2    0    0  0.30961024454E+03 -0.76819929183E+03 -0.20214309535E+03  0.85843742990E+03  0.10032115711E+03 0.  0.
         13    1    3    3    0    0  0.27953593088E+03 -0.58785306455E+03 -0.14508098022E+03  0.66690333106E+03  0.00000000000E+00 0.  1.
        -13    1    3    3    0    0  0.30074313660E+02 -0.18034622728E+03 -0.57062115126E+02  0.19153409884E+03  0.00000000000E+00 0. -1.
         22    1    1    2    0    0 -0.30961024454E+03  0.76819929183E+03 -0.30751388929E+03  0.88348935908E+03  0.00000000000E+00 0. -1.
<mgrwt>
<rscale>  0 0.16657007E+04</rscale>
<asrwt>0</asrwt>
<pdfrwt beam="1">  1        2 0.17319875E+00 0.16657007E+04</pdfrwt>
<pdfrwt beam="2">  1       -2 0.94789985E-01 0.16657007E+04</pdfrwt>
<totfact> 0.18778160E+01</totfact>
</mgrwt>
</event>
<event>
 6    1  0.1614874E-005  0.1094815E+04  0.7818608E-02  0.9210261E-01
          2   -1    0    0  501    0  0.00000000000E+00  0.00000000000E+00  0.35279070432E+04  0.35279070432E+04  0.00000000000E+00 0. -1.
         -2   -1    0    0    0  501 -0.00000000000E+00 -0.00000000000E+00 -0.84938391746E+02  0.84938391746E+02  0.00000000000E+00 0.  1.
         23    2    1    2    0    0  0.29809519589E+03  0.34130481878E+03  0.74256696741E+03  0.87468565504E+03  0.91211670865E+02 0.  0.
         11    1    3    3    0    0  0.71064636450E+02  0.11637248787E+03  0.16005215338E+03  0.21026038687E+03  0.00000000000E+00 0. -1.
        -11    1    3    3    0    0  0.22703055944E+03  0.22493233092E+03  0.58251481404E+03  0.66442526817E+03  0.00000000000E+00 0.  1.
         22    1    1    2    0    0 -0.29809519589E+03 -0.34130481878E+03  0.27004016841E+04  0.27381597799E+04  0.00000000000E+00 0. -1.
<mgrwt>
<rscale>  0 0.10948146E+04</rscale>
<asrwt>0</asrwt>
<pdfrwt beam="1">  1        2 0.54275482E+00 0.10948146E+04</pdfrwt>
<pdfrwt beam="2">  1       -2 0.13067448E-01 0.10948146E+04</pdfrwt>
<totfact> 0.35320880E+01</totfact>
</mgrwt>
</event>
<event>
 6    1  0.1912161E-005  0.2650407E+04  0.7818608E-02  0.8351278E-01
          1   -1    0    0  501    0  0.00000000000E+00  0.00000000000E+00  0.13991550345E+04  0.13991550345E+04  0.00000000000E+00 0. -1.
         -1   -1    0    0    0  501 -0.00000000000E+00 -0.00000000000E+00 -0.12551609140E+04  0.12551609140E+04  0.00000000000E+00 0.  1.
         23    2    1    2    0    0  0.11523581179E+04  0.17925052467E+03  0.69901389994E+03  0.13627638054E+04  0.91895454848E+02 0.  0.
         11    1    3    3    0    0  0.42826695006E+03  0.59102360428E+02  0.20866351012E+03  0.48004804965E+03  0.00000000000E+00 0. -1.
        -11    1    3    3    0    0  0.72409116784E+03  0.12014816425E+03  0.49035038982E+03  0.88271575578E+03  0.00000000000E+00 0.  1.
         22    1    1    2    0    0 -0.11523581179E+04 -0.17925052467E+03 -0.55501977946E+03  0.12915521430E+04  0.00000000000E+00 0.  1.
<mgrwt>
<rscale>  0 0.26504073E+04</rscale>
<asrwt>0</asrwt>
<pdfrwt beam="1">  1        1 0.21525462E+00 0.26504073E+04</pdfrwt>
<pdfrwt beam="2">  1       -1 0.19310168E+00 0.26504073E+04</pdfrwt>
<totfact> 0.11339192E+00</totfact>
</mgrwt>
</event>
<event>
 6    1  0.1614874E-005  0.2646909E+04  0.7818608E-02  0.8352440E-01
         -1   -1    0    0    0  501 -0.00000000000E+00  0.00000000000E+00  0.81908838293E+03  0.81908838293E+03  0.00000000000E+00 0.  1.
          1   -1    0    0  501    0  0.00000000000E+00 -0.00000000000E+00 -0.21383914203E+04  0.21383914203E+04  0.00000000000E+00 0. -1.
         23    2    1    2    0    0 -0.12928582311E+04 -0.13198992637E+03 -0.92507227439E+03  0.15994217629E+04  0.11613576631E+03 0.  0.
         11    1    3    3    0    0 -0.19353427054E+03 -0.50961929183E+02 -0.17771770691E+03  0.26764942640E+03  0.00000000000E+00 0. -1.
        -11    1    3    3    0    0 -0.10993239606E+04 -0.81027997183E+02 -0.74735456747E+03  0.13317723365E+04  0.00000000000E+00 0.  1.
         22    1    1    2    0    0  0.12928582311E+04  0.13198992637E+03 -0.39423076297E+03  0.13580580403E+04  0.00000000000E+00 0. -1.
<mgrwt>
<rscale>  0 0.26469088E+04</rscale>
<asrwt>0</asrwt>
<pdfrwt beam="1">  1        1 0.32898330E+00 0.26469088E+04</pdfrwt>
<pdfrwt beam="2">  1       -1 0.12601360E+00 0.26469088E+04</pdfrwt>
<totfact> 0.11541943E+00</totfact>
</mgrwt>
</event>
<event>
 6    1  0.1614874E-005  0.1160957E+04  0.7818608E-02  0.9147735E-01
          4   -1    0    0  501    0  0.00000000000E+00  0.00000000000E+00  0.66139535685E+03  0.66139535685E+03  0.00000000000E+00 0.  1.
         -4   -1    0    0    0  501 -0.00000000000E+00 -0.00000000000E+00 -0.50946079264E+03  0.50946079264E+03  0.00000000000E+00 0. -1.
         23    2    1    2    0    0 -0.75006689641E+02  0.48922718848E+03  0.37595263899E+03  0.62757597936E+03  0.86844560361E+02 0.  0.
         13    1    3    3    0    0 -0.60114732386E+02  0.14066455370E+03  0.10006226451E+03  0.18279156024E+03  0.00000000000E+00 0. -1.
        -13    1    3    3    0    0 -0.14891957255E+02  0.34856263478E+03  0.27589037449E+03  0.44478441912E+03  0.00000000000E+00 0.  1.
         22    1    1    2    0    0  0.75006689641E+02 -0.48922718848E+03 -0.22401807478E+03  0.54328017014E+03  0.00000000000E+00 0. -1.
<mgrwt>
<rscale>  0 0.11609565E+04</rscale>
<asrwt>0</asrwt>
<pdfrwt beam="1">  1        4 0.10175313E+00 0.11609565E+04</pdfrwt>
<pdfrwt beam="2">  1       -4 0.78378583E-01 0.11609565E+04</pdfrwt>
<totfact> 0.22695696E+00</totfact>
</mgrwt>
</event>
<event>
 6    1  0.1614874E-005  0.4436638E+03  0.7818608E-02  0.1029629E+00
         -1   -1    0    0    0  501 -0.00000000000E+00  0.00000000000E+00  0.10958345713E+03  0.10958345713E+03  0.00000000000E+00 0.  1.
          1   -1    0    0  501    0  0.00000000000E+00 -0.00000000000E+00 -0.44905863607E+03  0.44905863607E+03  0.00000000000E+00 0. -1.
         23    2    1    2    0    0  0.38469053662E+02  0.20779545208E+03 -0.14794693646E+03  0.27343710435E+03  0.90668274681E+02 0.  0.
         11    1    3    3    0    0  0.45639487345E+02  0.36397832131E+02 -0.39556440266E+02  0.70515792242E+02  0.00000000000E+00 0.  1.
        -11    1    3    3    0    0 -0.71704336826E+01  0.17139761995E+03 -0.10839049620E+03  0.20292131211E+03  0.00000000000E+00 0. -1.
         22    1    1    2    0    0 -0.38469053662E+02 -0.20779545208E+03 -0.19152824248E+03  0.28520498884E+03  0.00000000000E+00 0. -1.
<mgrwt>
<rscale>  0 0.44366383E+03</rscale>
<asrwt>0</asrwt>
<pdfrwt beam="1">  1        1 0.69085943E-01 0.44366383E+03</pdfrwt>
<pdfrwt beam="2">  1       -1 0.16858994E-01 0.44366383E+03</pdfrwt>
<totfact> 0.13925896E+03</totfact>
</mgrwt>
</event>
<event>
 6    1  0.1614874E-005  0.2463716E+04  0.7818608E-02  0.8416027E-01
          1   -1    0    0  501    0  0.00000000000E+00  0.00000000000E+00  0.32772158515E+04  0.32772158515E+04  0.00000000000E+00 0. -1.
         -1   -1    0    0    0  501 -0.00000000000E+00 -0.00000000000E+00 -0.46303770807E+03  0.46303770807E+03  0.00000000000E+00 0.  1.
         23    2    1    2    0    0  0.10868907463E+04 -0.35556894793E+03  0.72061026969E+03  0.13547164685E+04  0.90646445784E+02 0.  0.
         13    1    3    3    0    0  0.49342610775E+03 -0.11502291985E+03  0.32897396650E+03  0.60408895581E+03  0.00000000000E+00 0. -1.
        -13    1    3    3    0    0  0.59346463851E+03 -0.24054602808E+03  0.39163630319E+03  0.75062751267E+03  0.00000000000E+00 0.  1.
         22    1    1    2    0    0 -0.10868907463E+04  0.35556894793E+03  0.20935678737E+04  0.23855370911E+04  0.00000000000E+00 0.  1.
<mgrwt>
<rscale>  0 0.24637163E+04</rscale>
<asrwt>0</asrwt>
<pdfrwt beam="1">  1        1 0.50418704E+00 0.24637163E+04</pdfrwt>
<pdfrwt beam="2">  1       -1 0.71236572E-01 0.24637163E+04</pdfrwt>
<totfact> 0.65954582E-01</totfact>
</mgrwt>
</event>
<event>
 6    1  0.1614874E-005  0.6133415E+04  0.7818608E-02  0.7674077E-01
          1   -1    0    0  501    0  0.00000000000E+00  0.00000000000E+00  0.41251880314E+04  0.41251880314E+04  0.00000000000E+00 0. -1.
         -1   -1    0    0    0  501 -0.00000000000E+00 -0.00000000000E+00 -0.22798219727E+04  0.22798219727E+04  0.00000000000E+00 0.  1.
         23    2    1    2    0    0  0.22554996687E+04 -0.75056650103E+03  0.29451009812E+04  0.37858411040E+04  0.91346854685E+02 0.  0.
         11    1    3    3    0    0  0.12096244697E+04 -0.44906486107E+03  0.15799482850E+04  0.20398743075E+04  0.00000000000E+00 0. -1.
        -11    1    3    3    0    0  0.10458751990E+04 -0.30150163997E+03  0.13651526962E+04  0.17459667965E+04  0.00000000000E+00 0.  1.
         22    1    1    2    0    0 -0.22554996687E+04  0.75056650103E+03 -0.10997349224E+04  0.26191689001E+04  0.00000000000E+00 0.  1.
<mgrwt>
<rscale>  0 0.61334148E+04</rscale>
<asrwt>0</asrwt>
<pdfrwt beam="1">  1        1 0.63464431E+00 0.61334148E+04</pdfrwt>
<pdfrwt beam="2">  1       -1 0.35074184E+00 0.61334148E+04</pdfrwt>
<totfact> 0.74947692E-04</totfact>
</mgrwt>
</event>
<event>
 6    1  0.1614874E-005  0.1545631E+04  0.7818608E-02  0.8854664E-01
          1   -1    0    0  501    0  0.00000000000E+00  0.00000000000E+00  0.84585444112E+03  0.84585444112E+03  0.00000000000E+00 0. -1.
         -1   -1    0    0    0  501 -0.00000000000E+00 -0.00000000000E+00 -0.70608303672E+03  0.70608303672E+03  0.00000000000E+00 0.  1.
         23    2    1    2    0    0  0.19060907116E+03  0.14620234185E+03  0.80461896031E+03  0.84502219623E+03  0.94572184364E+02 0.  0.
         13    1    3    3    0    0  0.12073017471E+03  0.42870474318E+02  0.32220962089E+03  0.34674586147E+03  0.00000000000E+00 0.  1.
        -13    1    3    3    0    0  0.69878896448E+02  0.10333186753E+03  0.48240933942E+03  0.49827633476E+03  0.00000000000E+00 0. -1.
         22    1    1    2    0    0 -0.19060907116E+03 -0.14620234185E+03 -0.66484755591E+03  0.70691528161E+03  0.00000000000E+00 0.  1.
<mgrwt>
<rscale>  0 0.15456306E+04</rscale>
<asrwt>0</asrwt>
<pdfrwt beam="1">  1        1 0.13013145E+00 0.15456306E+04</pdfrwt>
<pdfrwt beam="2">  1       -1 0.10862816E+00 0.15456306E+04</pdfrwt>
<totfact> 0.15302707E+01</totfact>
</mgrwt>
</event>
<event>
 6    1  0.1614874E-005  0.1379786E+04  0.7818608E-02  0.8968582E-01
         -2   -1    0    0    0  501 -0.00000000000E+00  0.00000000000E+00  0.15058351050E+04  0.15058351050E+04  0.00000000000E+00 0.  1.
          2   -1    0    0  501    0  0.00000000000E+00 -0.00000000000E+00 -0.31607180011E+03  0.31607180011E+03  0.00000000000E+00 0. -1.
         23    2    1    2    0    0  0.33134720508E+03  0.12485459926E+03 -0.17987476495E+03  0.40723800970E+03  0.90045678475E+02 0.  0.
         13    1    3    3    0    0  0.18241848794E+03  0.54613991177E+02 -0.14394066774E+03  0.23870087684E+03  0.00000000000E+00 0. -1.
        -13    1    3    3    0    0  0.14892871713E+03  0.70240608082E+02 -0.35934097214E+02  0.16853713286E+03  0.00000000000E+00 0.  1.
         22    1    1    2    0    0 -0.33134720508E+03 -0.12485459926E+03  0.13696380698E+04  0.14146688954E+04  0.00000000000E+00 0.  1.
<mgrwt>
<rscale>  0 0.13797855E+04</rscale>
<asrwt>0</asrwt>
<pdfrwt beam="1">  1        2 0.48626432E-01 0.13797855E+04</pdfrwt>
<pdfrwt beam="2">  1       -2 0.23166693E+00 0.13797855E+04</pdfrwt>
<totfact> 0.84285079E+00</totfact>
</mgrwt>
</event>
<event>
 6    1  0.1614874E-005  0.1342620E+04  0.7818608E-02  0.8996434E-01
          2   -1    0    0  501    0  0.00000000000E+00  0.00000000000E+00  0.23845746921E+04  0.23845746921E+04  0.00000000000E+00 0. -1.
         -2   -1    0    0    0  501 -0.00000000000E+00 -0.00000000000E+00 -0.18898842153E+03  0.18898842153E+03  0.00000000000E+00 0.  1.
         23    2    1    2    0    0 -0.54467977370E+03 -0.33657280570E+03  0.14695612627E+04  0.16055395491E+04  0.90496571763E+02 0.  0.
         13    1    3    3    0    0 -0.29903795535E+03 -0.13621395395E+03  0.70219756290E+03  0.77528017989E+03  0.00000000000E+00 0. -1.
        -13    1    3    3    0    0 -0.24564181835E+03 -0.20035885175E+03  0.76736369981E+03  0.83025936922E+03  0.00000000000E+00 0.  1.
         22    1    1    2    0    0  0.54467977370E+03  0.33657280570E+03  0.72602500781E+03  0.96802356448E+03  0.00000000000E+00 0. -1.
<mgrwt>
<rscale>  0 0.13426198E+04</rscale>
<asrwt>0</asrwt>
<pdfrwt beam="1">  1        2 0.36685762E+00 0.13426198E+04</pdfrwt>
<pdfrwt beam="2">  1       -2 0.29075144E-01 0.13426198E+04</pdfrwt>
<totfact> 0.43242476E+01</totfact>
</mgrwt>
</event>
<event>
 6    1  0.1614874E-005  0.3000865E+03  0.7818608E-02  0.1085197E+00
         -1   -1    0    0    0  501 -0.00000000000E+00  0.00000000000E+00  0.14070680719E+03  0.14070680719E+03  0.00000000000E+00 0. -1.
          1   -1    0    0  501    0  0.00000000000E+00 -0.00000000000E+00 -0.15999916600E+03  0.15999916600E+03  0.00000000000E+00 0.  1.
         23    2    1    2    0    0 -0.16592862318E+02  0.12649655019E+03 -0.61747476839E+02  0.16624729056E+03  0.86883315035E+02 0.  0.
         13    1    3    3    0    0 -0.30834895556E+02  0.51421671789E+01 -0.55231524912E+01  0.31744887473E+02  0.00000000000E+00 0. -1.
        -13    1    3    3    0    0  0.14242033238E+02  0.12135438301E+03 -0.56224324348E+02  0.13450240308E+03  0.00000000000E+00 0.  1.
         22    1    1    2    0    0  0.16592862318E+02 -0.12649655019E+03  0.42455118026E+02  0.13445868264E+03  0.00000000000E+00 0. -1.
<mgrwt>
<rscale>  0 0.30008647E+03</rscale>
<asrwt>0</asrwt>
<pdfrwt beam="1">  1        1 0.24615256E-01 0.30008647E+03</pdfrwt>
<pdfrwt beam="2">  1       -1 0.21647201E-01 0.30008647E+03</pdfrwt>
<totfact> 0.34478920E+03</totfact>
</mgrwt>
</event>
<event>
 6    1  0.1614874E-005  0.9741385E+03  0.7818608E-02  0.9337373E-01
         -1   -1    0    0    0  501 -0.00000000000E+00  0.00000000000E+00  0.40423016112E+03  0.40423016112E+03  0.00000000000E+00 0.  1.
          1   -1    0    0  501    0  0.00000000000E+00 -0.00000000000E+00 -0.58688463851E+03  0.58688463851E+03  0.00000000000E+00 0. -1.
         23    2    1    2    0    0 -0.20339738722E+02  0.29330174415E+03 -0.48156924646E+03  0.57184202772E+03  0.93030895042E+02 0.  0.
         11    1    3    3    0    0  0.34027348883E+02  0.17353604647E+03 -0.27779602776E+03  0.32930723183E+03  0.00000000000E+00 0.  1.
        -11    1    3    3    0    0 -0.54367087605E+02  0.11976569768E+03 -0.20377321870E+03  0.24253479588E+03  0.00000000000E+00 0. -1.
         22    1    1    2    0    0  0.20339738722E+02 -0.29330174415E+03  0.29891476907E+03  0.41927277191E+03  0.00000000000E+00 0.  1.
<mgrwt>
<rscale>  0 0.97413854E+03</rscale>
<asrwt>0</asrwt>
<pdfrwt beam="1">  1        1 0.90289944E-01 0.97413854E+03</pdfrwt>
<pdfrwt beam="2">  1       -1 0.62189256E-01 0.97413854E+03</pdfrwt>
<totfact> 0.93133189E+01</totfact>
</mgrwt>
</event>
<event>
 6    1  0.1614874E-005  0.2150397E+04  0.7818608E-02  0.8539362E-01
          2   -1    0    0  501    0  0.00000000000E+00  0.00000000000E+00  0.34681819173E+04  0.34681819173E+04  0.00000000000E+00 0. -1.
         -2   -1    0    0    0  501 -0.00000000000E+00 -0.00000000000E+00 -0.33333092835E+03  0.33333092835E+03  0.00000000000E+00 0.  1.
         23    2    1    2    0    0  0.83705325911E+03 -0.22963504218E+03  0.26862141281E+04  0.28244430201E+04  0.91332472405E+02 0.  0.
         13    1    3    3    0    0  0.73404944813E+02 -0.27528241158E+02  0.17133940352E+03  0.18842314396E+03  0.00000000000E+00 0. -1.
        -13    1    3    3    0    0  0.76364831430E+03 -0.20210680102E+03  0.25148747246E+04  0.26360198761E+04  0.00000000000E+00 0.  1.
         22    1    1    2    0    0 -0.83705325911E+03  0.22963504218E+03  0.44863686091E+03  0.97706982563E+03  0.00000000000E+00 0.  1.
<mgrwt>
<rscale>  0 0.21503974E+04</rscale>
<asrwt>0</asrwt>
<pdfrwt beam="1">  1        2 0.53356643E+00 0.21503974E+04</pdfrwt>
<pdfrwt beam="2">  1       -2 0.51281683E-01 0.21503974E+04</pdfrwt>
<totfact> 0.28322797E+00</totfact>
</mgrwt>
</event>
<event>
 6    1  0.1614874E-005  0.3016415E+04  0.7818608E-02  0.8239059E-01
          2   -1    0    0  501    0  0.00000000000E+00  0.00000000000E+00  0.23755120421E+04  0.23755120421E+04  0.00000000000E+00 0. -1.
         -2   -1    0    0    0  501 -0.00000000000E+00 -0.00000000000E+00 -0.95755756565E+03  0.95755756565E+03  0.00000000000E+00 0.  1.
         23    2    1    2    0    0  0.43599951669E+03 -0.14151838806E+04  0.10177560753E+04  0.17991205360E+04  0.90367470861E+02 0.  0.
         13    1    3    3    0    0  0.27678132681E+03 -0.10116426509E+04  0.74884929157E+03  0.12887218542E+04  0.00000000000E+00 0.  1.
        -13    1    3    3    0    0  0.15921818987E+03 -0.40354122973E+03  0.26890678374E+03  0.51039868183E+03  0.00000000000E+00 0. -1.
         22    1    1    2    0    0 -0.43599951669E+03  0.14151838806E+04  0.40019840114E+03  0.15339490718E+04  0.00000000000E+00 0. -1.
<mgrwt>
<rscale>  0 0.30164148E+04</rscale>
<asrwt>0</asrwt>
<pdfrwt beam="1">  1        2 0.36546339E+00 0.30164148E+04</pdfrwt>
<pdfrwt beam="2">  1       -2 0.14731655E+00 0.30164148E+04</pdfrwt>
<totfact> 0.11030024E+00</totfact>
</mgrwt>
</event>
<event>
 6    1  0.1614874E-005  0.1945754E+04  0.7818608E-02  0.8632411E-01
          1   -1    0    0  501    0  0.00000000000E+00  0.00000000000E+00  0.11791332342E+04  0.11791332342E+04  0.00000000000E+00 0. -1.
         -1   -1    0    0    0  501 -0.00000000000E+00 -0.00000000000E+00 -0.80269975767E+03  0.80269975767E+03  0.00000000000E+00 0.  1.
         23    2    1    2    0    0  0.23550862032E+03  0.90051896865E+02 -0.76621454970E+03  0.81169703130E+03  0.90518948697E+02 0.  0.
         11    1    3    3    0    0 -0.69449045463E+00  0.18576362929E+02 -0.88971622631E+02  0.90892866663E+02  0.00000000000E+00 0.  1.
        -11    1    3    3    0    0  0.23620311078E+03  0.71475533937E+02 -0.67724292707E+03  0.72080416464E+03  0.00000000000E+00 0. -1.
         22    1    1    2    0    0 -0.23550862032E+03 -0.90051896865E+02  0.11426480262E+04  0.11701359606E+04  0.00000000000E+00 0. -1.
<mgrwt>
<rscale>  0 0.19457543E+04</rscale>
<asrwt>0</asrwt>
<pdfrwt beam="1">  1        1 0.18140511E+00 0.19457543E+04</pdfrwt>
<pdfrwt beam="2">  1       -1 0.12349227E+00 0.19457543E+04</pdfrwt>
<totfact> 0.59508414E+00</totfact>
</mgrwt>
</event>
<event>
 6    1  0.1614874E-005  0.1617872E+04  0.7818608E-02  0.8809643E-01
         -2   -1    0    0    0  501 -0.00000000000E+00  0.00000000000E+00  0.40375907622E+03  0.40375907622E+03  0.00000000000E+00 0.  1.
          2   -1    0    0  501    0  0.00000000000E+00 -0.00000000000E+00 -0.16207135819E+04  0.16207135819E+04  0.00000000000E+00 0. -1.
         23    2    1    2    0    0 -0.50843680323E+03  0.16306092988E+02  0.17262560952E+03  0.54470687661E+03  0.90178205895E+02 0.  0.
         13    1    3    3    0    0 -0.36804227946E+03  0.51136129466E+02  0.11455472450E+03  0.38883519402E+03  0.00000000000E+00 0.  1.
        -13    1    3    3    0    0 -0.14039452377E+03 -0.34830036477E+02  0.58070885017E+02  0.15587168259E+03  0.00000000000E+00 0. -1.
         22    1    1    2    0    0  0.50843680323E+03 -0.16306092988E+02 -0.13895801152E+04  0.14797657815E+04  0.00000000000E+00 0. -1.
<mgrwt>
<rscale>  0 0.16178725E+04</rscale>
<asrwt>0</asrwt>
<pdfrwt beam="1">  1        2 0.24934055E+00 0.16178725E+04</pdfrwt>
<pdfrwt beam="2">  1       -2 0.62116782E-01 0.16178725E+04</pdfrwt>
<totfact> 0.25014814E+01</totfact>
</mgrwt>
</event>
<event>
 6    1  0.1614874E-005  0.3642258E+04  0.7818608E-02  0.8080880E-01
         -2   -1    0    0    0  501 -0.00000000000E+00  0.00000000000E+00  0.20512567305E+04  0.20512567305E+04  0.00000000000E+00 0. -1.
          2   -1    0    0  501    0  0.00000000000E+00 -0.00000000000E+00 -0.16168189166E+04  0.16168189166E+04  0.00000000000E+00 0.  1.
         23    2    1    2    0    0  0.17604442849E+04  0.84699250893E+02 -0.23974070219E+03  0.17810529353E+04  0.91301206924E+02 0.  0.
         13    1    3    3    0    0  0.14011711605E+04  0.93672224435E+02 -0.16478029145E+03  0.14139333969E+04  0.00000000000E+00 0. -1.
        -13    1    3    3    0    0  0.35927312448E+03 -0.89729735423E+01 -0.74960410736E+02  0.36711953831E+03  0.00000000000E+00 0.  1.
         22    1    1    2    0    0 -0.17604442849E+04 -0.84699250893E+02  0.67417851608E+03  0.18870227119E+04  0.00000000000E+00 0. -1.
<mgrwt>
<rscale>  0 0.36422579E+04</rscale>
<asrwt>0</asrwt>
<pdfrwt beam="1">  1        2 0.24874137E+00 0.36422579E+04</pdfrwt>
<pdfrwt beam="2">  1       -2 0.31557796E+00 0.36422579E+04</pdfrwt>
<totfact> 0.22596295E-01</totfact>
</mgrwt>
</event>
<event>
 6    1  0.1614874E-005  0.1486525E+04  0.7818608E-02  0.8893464E-01
          2   -1    0    0  501    0  0.00000000000E+00  0.00000000000E+00  0.17230166728E+04  0.17230166728E+04  0.00000000000E+00 0.  1.
         -2   -1    0    0    0  501 -0.00000000000E+00 -0.00000000000E+00 -0.32062309616E+03  0.32062309616E+03  0.00000000000E+00 0. -1.
         23    2    1    2    0    0  0.16562170815E+02  0.46705346395E+03 -0.85879082360E+02  0.48371388892E+03  0.90502297534E+02 0.  0.
         13    1    3    3    0    0  0.42403131670E+02  0.12006867676E+03 -0.35076086447E+02  0.13207893304E+03  0.00000000000E+00 0.  1.
        -13    1    3    3    0    0 -0.25840960855E+02  0.34698478720E+03 -0.50802995913E+02  0.35163495588E+03  0.00000000000E+00 0. -1.
         22    1    1    2    0    0 -0.16562170815E+02 -0.46705346395E+03  0.14882726590E+04  0.15599258801E+04  0.00000000000E+00 0.  1.
<mgrwt>
<rscale>  0 0.14865247E+04</rscale>
<asrwt>0</asrwt>
<pdfrwt beam="1">  1        2 0.26507948E+00 0.14865247E+04</pdfrwt>
<pdfrwt beam="2">  1       -2 0.49326631E-01 0.14865247E+04</pdfrwt>
<totfact> 0.35824012E+01</totfact>
</mgrwt>
</event>
<event>
 6    1  0.1614874E-005  0.2796579E+04  0.7818608E-02  0.8304331E-01
         -2   -1    0    0    0  501 -0.00000000000E+00  0.00000000000E+00  0.64642446769E+03  0.64642446769E+03  0.00000000000E+00 0.  1.
          2   -1    0    0  501    0  0.00000000000E+00 -0.00000000000E+00 -0.30246587416E+04  0.30246587416E+04  0.00000000000E+00 0. -1.
         23    2    1    2    0    0  0.10384173118E+04 -0.52685922646E+02 -0.24146051592E+04  0.26306942623E+04  0.95644692564E+02 0.  0.
         13    1    3    3    0    0  0.12459876431E+03  0.27262948731E+01 -0.37163123324E+03  0.39197201210E+03  0.00000000000E+00 0.  1.
        -13    1    3    3    0    0  0.91381854747E+03 -0.55412217519E+02 -0.20429739259E+04  0.22387222502E+04  0.00000000000E+00 0. -1.
         22    1    1    2    0    0 -0.10384173118E+04  0.52685922646E+02  0.36370885195E+02  0.10403889470E+04  0.00000000000E+00 0.  1.
<mgrwt>
<rscale>  0 0.27965789E+04</rscale>
<asrwt>0</asrwt>
<pdfrwt beam="1">  1        2 0.46533211E+00 0.27965789E+04</pdfrwt>
<pdfrwt beam="2">  1       -2 0.99449920E-01 0.27965789E+04</pdfrwt>
<totfact> 0.12233002E+00</totfact>
</mgrwt>
</event>
<event>
 6    1  0.1614874E-005  0.3624262E+04  0.7818608E-02  0.8084957E-01
          2   -1    0    0  501    0  0.00000000000E+00  0.00000000000E+00  0.42816886863E+04  0.42816886863E+04  0.00000000000E+00 0. -1.
         -2   -1    0    0    0  501 -0.00000000000E+00 -0.00000000000E+00 -0.76694482426E+03  0.76694482426E+03  0.00000000000E+00 0.  1.
         23    2    1    2    0    0 -0.44782317749E+03 -0.11816970341E+04  0.35654750804E+04  0.37839093765E+04  0.91674110149E+02 0.  0.
         11    1    3    3    0    0 -0.47032483721E+02 -0.10362890384E+03  0.25241045984E+03  0.27687911527E+03  0.00000000000E+00 0.  1.
        -11    1    3    3    0    0 -0.40079069377E+03 -0.10780681303E+04  0.33130646205E+04  0.35070302613E+04  0.00000000000E+00 0. -1.
         22    1    1    2    0    0  0.44782317749E+03  0.11816970341E+04 -0.50731218314E+02  0.12647241340E+04  0.00000000000E+00 0.  1.
<mgrwt>
<rscale>  0 0.36242621E+04</rscale>
<asrwt>0</asrwt>
<pdfrwt beam="1">  1        2 0.65872132E+00 0.36242621E+04</pdfrwt>
<pdfrwt beam="2">  1       -2 0.11799151E+00 0.36242621E+04</pdfrwt>
<totfact> 0.88352351E-02</totfact>
</mgrwt>
</event>
<event>
 6    1  0.1614874E-005  0.1326187E+04  0.7818608E-02  0.9009052E-01
          2   -1    0    0  501    0  0.00000000000E+00  0.00000000000E+00  0.57087632903E+03  0.57087632903E+03  0.00000000000E+00 0. -1.
         -2   -1    0    0    0  501 -0.00000000000E+00 -0.00000000000E+00 -0.77020758300E+03  0.77020758300E+03  0.00000000000E+00 0.  1.
         23    2    1    2    0    0  0.18195585907E+03 -0.62205345446E+03 -0.22791124293E+03  0.69233492310E+03  0.85590164340E+02 0.  0.
         13    1    3    3    0    0  0.60022904353E+02 -0.17744695600E+03 -0.10695979561E+03  0.21570945532E+03  0.00000000000E+00 0. -1.
        -13    1    3    3    0    0  0.12193295472E+03 -0.44460649847E+03 -0.12095144732E+03  0.47662546778E+03  0.00000000000E+00 0.  1.
         22    1    1    2    0    0 -0.18195585907E+03  0.62205345446E+03  0.28579988961E+02  0.64874898892E+03  0.00000000000E+00 0. -1.
<mgrwt>
<rscale>  0 0.13261874E+04</rscale>
<asrwt>0</asrwt>
<pdfrwt beam="1">  1        2 0.87827128E-01 0.13261874E+04</pdfrwt>
<pdfrwt beam="2">  1       -2 0.11849347E+00 0.13261874E+04</pdfrwt>
<totfact> 0.28225175E+01</totfact>
</mgrwt>
</event>
<event>
 6    1  0.2492313E-005  0.4798719E+04  0.7818608E-02  0.7860330E-01
         -2   -1    0    0    0  501 -0.00000000000E+00  0.00000000000E+00  0.19136923510E+04  0.19136923510E+04  0.00000000000E+00 0.  1.
          2   -1    0    0  501    0  0.00000000000E+00 -0.00000000000E+00 -0.30082824884E+04  0.30082824884E+04  0.00000000000E+00 0. -1.
         23    2    1    2    0    0  0.13712094766E+04  0.26621324541E+03  0.14523850124E+04  0.20171224621E+04  0.90971875091E+02 0.  0.
         13    1    3    3    0    0  0.49528380765E+03  0.94779549292E+02  0.58812891933E+03  0.77471597301E+03  0.00000000000E+00 0.  1.
        -13    1    3    3    0    0  0.87592566895E+03  0.17143369612E+03  0.86425609308E+03  0.12424064891E+04  0.00000000000E+00 0. -1.
         22    1    1    2    0    0 -0.13712094766E+04 -0.26621324541E+03 -0.25469751498E+04  0.29048523774E+04  0.00000000000E+00 0. -1.
<mgrwt>
<rscale>  0 0.47987195E+04</rscale>
<asrwt>0</asrwt>
<pdfrwt beam="1">  1        2 0.46281269E+00 0.47987195E+04</pdfrwt>
<pdfrwt beam="2">  1       -2 0.29441421E+00 0.47987195E+04</pdfrwt>
<totfact> 0.43738808E-02</totfact>
</mgrwt>
</event>
<event>
 6    1  0.1614874E-005  0.1929667E+04  0.7818608E-02  0.8640229E-01
          2   -1    0    0  501    0  0.00000000000E+00  0.00000000000E+00  0.64523917120E+03  0.64523917120E+03  0.00000000000E+00 0. -1.
         -2   -1    0    0    0  501 -0.00000000000E+00 -0.00000000000E+00 -0.14427259795E+04  0.14427259795E+04  0.00000000000E+00 0.  1.
         23    2    1    2    0    0  0.62806906358E+03 -0.64845758834E+03 -0.76094509022E+03  0.11844701094E+04  0.94678494270E+02 0.  0.
         11    1    3    3    0    0  0.18858306647E+03 -0.15140941415E+03 -0.24219072796E+03  0.34226412661E+03  0.00000000000E+00 0. -1.
        -11    1    3    3    0    0  0.43948599711E+03 -0.49704817419E+03 -0.51875436226E+03  0.84220598281E+03  0.00000000000E+00 0.  1.
         22    1    1    2    0    0 -0.62806906358E+03  0.64845758834E+03 -0.36541718101E+02  0.90349504130E+03  0.00000000000E+00 0.  1.
<mgrwt>
<rscale>  0 0.19296666E+04</rscale>
<asrwt>0</asrwt>
<pdfrwt beam="1">  1        2 0.99267566E-01 0.19296666E+04</pdfrwt>
<pdfrwt beam="2">  1       -2 0.22195784E+00 0.19296666E+04</pdfrwt>
<totfact> 0.40698167E+00</totfact>
</mgrwt>
</event>
<event>
 6    1  0.1614874E-005  0.1170743E+04  0.7818608E-02  0.9138857E-01
          3   -1    0    0  501    0  0.00000000000E+00  0.00000000000E+00  0.77925361057E+03  0.77925361057E+03  0.00000000000E+00 0. -1.
         -3   -1    0    0    0  501 -0.00000000000E+00 -0.00000000000E+00 -0.43972842307E+03  0.43972842307E+03  0.00000000000E+00 0.  1.
         23    2    1    2    0    0  0.10883808589E+01 -0.53880351548E+03  0.39763801818E+03  0.67705259730E+03  0.99868979879E+02 0.  0.
         11    1    3    3    0    0  0.39280277813E+02 -0.44454321072E+03  0.32471852837E+03  0.55190916743E+03  0.00000000000E+00 0. -1.
        -11    1    3    3    0    0 -0.38191896955E+02 -0.94260304760E+02  0.72919489814E+02  0.12514342988E+03  0.00000000000E+00 0.  1.
         22    1    1    2    0    0 -0.10883808589E+01  0.53880351548E+03 -0.58112830685E+02  0.54192943633E+03  0.00000000000E+00 0.  1.
<mgrwt>
<rscale>  0 0.11707433E+04</rscale>
<asrwt>0</asrwt>
<pdfrwt beam="1">  1        3 0.11988517E+00 0.11707433E+04</pdfrwt>
<pdfrwt beam="2">  1       -3 0.67650526E-01 0.11707433E+04</pdfrwt>
<totfact> 0.30917999E+00</totfact>
</mgrwt>
</event>
<event>
 6    1  0.1614874E-005  0.1824980E+04  0.7818608E-02  0.8693127E-01
          2   -1    0    0  501    0  0.00000000000E+00  0.00000000000E+00  0.16644480366E+04  0.16644480366E+04  0.00000000000E+00 0. -1.
         -2   -1    0    0    0  501 -0.00000000000E+00 -0.00000000000E+00 -0.50024849400E+03  0.50024849400E+03  0.00000000000E+00 0.  1.
         23    2    1    2    0    0  0.62519555723E+03 -0.10414895700E+03 -0.19154385477E+03  0.66811487578E+03  0.89285771084E+02 0.  0.
         11    1    3    3    0    0  0.23860301361E+03 -0.65680848355E+02 -0.38031021471E+02  0.25038316744E+03  0.00000000000E+00 0. -1.
        -11    1    3    3    0    0  0.38659254362E+03 -0.38468108647E+02 -0.15351283330E+03  0.41773170834E+03  0.00000000000E+00 0.  1.
         22    1    1    2    0    0 -0.62519555723E+03  0.10414895700E+03  0.13557433974E+04  0.14965816549E+04  0.00000000000E+00 0. -1.
<mgrwt>
<rscale>  0 0.18249796E+04</rscale>
<asrwt>0</asrwt>
<pdfrwt beam="1">  1        2 0.25606893E+00 0.18249796E+04</pdfrwt>
<pdfrwt beam="2">  1       -2 0.76961307E-01 0.18249796E+04</pdfrwt>
<totfact> 0.14579541E+01</totfact>
</mgrwt>
</event>
<event>
 6    1  0.1614874E-005  0.1594744E+04  0.7818608E-02  0.8823783E-01
         -1   -1    0    0    0  501 -0.00000000000E+00  0.00000000000E+00  0.62648799150E+03  0.62648799150E+03  0.00000000000E+00 0.  1.
          1   -1    0    0  501    0  0.00000000000E+00 -0.00000000000E+00 -0.10148672272E+04  0.10148672272E+04  0.00000000000E+00 0. -1.
         23    2    1    2    0    0  0.46933788695E+03  0.18993346697E+03  0.43576440026E+03  0.67410886607E+03  0.90439907005E+02 0.  0.
         11    1    3    3    0    0  0.31303696217E+03  0.10032287540E+03  0.23333775494E+03  0.40311701390E+03  0.00000000000E+00 0.  1.
        -11    1    3    3    0    0  0.15630092478E+03  0.89610591567E+02  0.20242664532E+03  0.27099185217E+03  0.00000000000E+00 0. -1.
         22    1    1    2    0    0 -0.46933788695E+03 -0.18993346697E+03 -0.82414363596E+03  0.96724635264E+03  0.00000000000E+00 0. -1.
<mgrwt>
<rscale>  0 0.15947440E+04</rscale>
<asrwt>0</asrwt>
<pdfrwt beam="1">  1        1 0.15613342E+00 0.15947440E+04</pdfrwt>
<pdfrwt beam="2">  1       -1 0.96382770E-01 0.15947440E+04</pdfrwt>
<totfact> 0.14660563E+01</totfact>
</mgrwt>
</event>
<event>
 6    1  0.1614874E-005  0.9704523E+03  0.7818608E-02  0.9341559E-01
         -2   -1    0    0    0  501 -0.00000000000E+00  0.00000000000E+00  0.27726218259E+03  0.27726218259E+03  0.00000000000E+00 0. -1.
          2   -1    0    0  501    0  0.00000000000E+00 -0.00000000000E+00 -0.84917614411E+03  0.84917614411E+03  0.00000000000E+00 0.  1.
         23    2    1    2    0    0 -0.27666120889E+03 -0.27423236366E+03  0.38904303210E+02  0.40197730889E+03  0.91254579456E+02 0.  0.
         13    1    3    3    0    0 -0.13725748115E+03 -0.19494331446E+03  0.73648233420E+01  0.23853040185E+03  0.00000000000E+00 0. -1.
        -13    1    3    3    0    0 -0.13940372774E+03 -0.79289049202E+02  0.31539479868E+02  0.16344690704E+03  0.00000000000E+00 0.  1.
         22    1    1    2    0    0  0.27666120889E+03  0.27423236366E+03 -0.61081826474E+03  0.72446101781E+03  0.00000000000E+00 0.  1.
<mgrwt>
<rscale>  0 0.97045233E+03</rscale>
<asrwt>0</asrwt>
<pdfrwt beam="1">  1        2 0.13064248E+00 0.97045233E+03</pdfrwt>
<pdfrwt beam="2">  1       -2 0.42655721E-01 0.97045233E+03</pdfrwt>
<totfact> 0.16546581E+02</totfact>
</mgrwt>
</event>
<event>
 6    1  0.1614874E-005  0.7367872E+03  0.7818608E-02  0.9656310E-01
          2   -1    0    0  501    0  0.00000000000E+00  0.00000000000E+00  0.10587060139E+04  0.10587060139E+04  0.00000000000E+00 0. -1.
         -2   -1    0    0    0  501 -0.00000000000E+00 -0.00000000000E+00 -0.12818843055E+03  0.12818843055E+03  0.00000000000E+00 0.  1.
         23    2    1    2    0    0  0.37573323672E+02 -0.33795407058E+03  0.26518679125E+03  0.43970653543E+03  0.85983106346E+02 0.  0.
         11    1    3    3    0    0  0.45307370099E+02 -0.10199631020E+03  0.58906085036E+02  0.12619798705E+03  0.00000000000E+00 0. -1.
        -11    1    3    3    0    0 -0.77340464271E+01 -0.23595776038E+03  0.20628070621E+03  0.31350854838E+03  0.00000000000E+00 0.  1.
         22    1    1    2    0    0 -0.37573323672E+02  0.33795407058E+03  0.66533079212E+03  0.74718790904E+03  0.00000000000E+00 0. -1.
<mgrwt>
<rscale>  0 0.73678725E+03</rscale>
<asrwt>0</asrwt>
<pdfrwt beam="1">  1        2 0.16287784E+00 0.73678725E+03</pdfrwt>
<pdfrwt beam="2">  1       -2 0.19721298E-01 0.73678725E+03</pdfrwt>
<totfact> 0.50897975E+02</totfact>
</mgrwt>
</event>
<event>
 6    1  0.1614874E-005  0.4296395E+04  0.7818608E-02  0.7947285E-01
         -2   -1    0    0    0  501 -0.00000000000E+00  0.00000000000E+00  0.13034451324E+04  0.13034451324E+04  0.00000000000E+00 0.  1.
          2   -1    0    0  501    0  0.00000000000E+00 -0.00000000000E+00 -0.35404263127E+04  0.35404263127E+04  0.00000000000E+00 0. -1.
         23    2    1    2    0    0 -0.10067360690E+04 -0.18944188433E+04 -0.12205662994E+04  0.24699633852E+04  0.92718749200E+02 0.  0.
         11    1    3    3    0    0 -0.42080337509E+03 -0.88873198450E+03 -0.56835016063E+03  0.11357561031E+04  0.00000000000E+00 0. -1.
        -11    1    3    3    0    0 -0.58593269396E+03 -0.10056868588E+04 -0.65221613876E+03  0.13342072821E+04  0.00000000000E+00 0.  1.
         22    1    1    2    0    0  0.10067360690E+04  0.18944188433E+04 -0.10164148809E+04  0.23739080599E+04  0.00000000000E+00 0.  1.
<mgrwt>
<rscale>  0 0.42963945E+04</rscale>
<asrwt>0</asrwt>
<pdfrwt beam="1">  1        2 0.54468097E+00 0.42963945E+04</pdfrwt>
<pdfrwt beam="2">  1       -2 0.20053002E+00 0.42963945E+04</pdfrwt>
<totfact> 0.77221490E-02</totfact>
</mgrwt>
</event>
<event>
 6    1  0.1614874E-005  0.1987050E+04  0.7818608E-02  0.8612699E-01
         -2   -1    0    0    0  501 -0.00000000000E+00  0.00000000000E+00  0.64586235165E+03  0.64586235165E+03  0.00000000000E+00 0.  1.
          2   -1    0    0  501    0  0.00000000000E+00 -0.00000000000E+00 -0.15283315478E+04  0.15283315478E+04  0.00000000000E+00 0. -1.
         23    2    1    2    0    0 -0.70719054075E+03 -0.16632220328E+03 -0.11803703877E+04  0.13890017853E+04  0.90940481845E+02 0.  0.
         13    1    3    3    0    0 -0.21854417511E+03 -0.44147714997E+02 -0.28705989778E+03  0.36347484387E+03  0.00000000000E+00 0.  1.
        -13    1    3    3    0    0 -0.48864636564E+03 -0.12217448829E+03 -0.89331048989E+03  0.10255269414E+04  0.00000000000E+00 0. -1.
         22    1    1    2    0    0  0.70719054075E+03  0.16632220328E+03  0.29790119152E+03  0.78519211416E+03  0.00000000000E+00 0.  1.
<mgrwt>
<rscale>  0 0.19870499E+04</rscale>
<asrwt>0</asrwt>
<pdfrwt beam="1">  1        2 0.23512793E+00 0.19870499E+04</pdfrwt>
<pdfrwt beam="2">  1       -2 0.99363440E-01 0.19870499E+04</pdfrwt>
<totfact> 0.95432341E+00</totfact>
</mgrwt>
</event>
<event>
 6    1  0.1614874E-005  0.4035940E+04  0.7818608E-02  0.7997335E-01
         -2   -1    0    0    0  501 -0.00000000000E+00  0.00000000000E+00  0.16266101898E+04  0.16266101898E+04  0.00000000000E+00 0.  1.
          2   -1    0    0  501    0  0.00000000000E+00 -0.00000000000E+00 -0.25034900182E+04  0.25034900182E+04  0.00000000000E+00 0. -1.
         23    2    1    2    0    0 -0.16984945810E+04  0.10541926639E+04 -0.71315244719E+03  0.21243552917E+04  0.89960980371E+02 0.  0.
         13    1    3    3    0    0 -0.14719770563E+04  0.87727360942E+03 -0.61748118624E+03  0.18214303323E+04  0.00000000000E+00 0.  1.
        -13    1    3    3    0    0 -0.22651752469E+03  0.17691905450E+03 -0.95671260953E+02  0.30292495937E+03  0.00000000000E+00 0. -1.
         22    1    1    2    0    0  0.16984945810E+04 -0.10541926639E+04 -0.16372738122E+03  0.20057449164E+04  0.00000000000E+00 0. -1.
<mgrwt>
<rscale>  0 0.40359397E+04</rscale>
<asrwt>0</asrwt>
<pdfrwt beam="1">  1        2 0.38515231E+00 0.40359397E+04</pdfrwt>
<pdfrwt beam="2">  1       -2 0.25024772E+00 0.40359397E+04</pdfrwt>
<totfact> 0.17453264E-01</totfact>
</mgrwt>
</event>
<event>
 6    1  0.1614874E-005  0.1755938E+04  0.7818608E-02  0.8730089E-01
          2   -1    0    0  501    0  0.00000000000E+00  0.00000000000E+00  0.10763936911E+04  0.10763936911E+04  0.00000000000E+00 0.  1.
         -2   -1    0    0    0  501 -0.00000000000E+00 -0.00000000000E+00 -0.71612209740E+03  0.71612209740E+03  0.00000000000E+00 0. -1.
         23    2    1    2    0    0 -0.20729380108E+03  0.73246379146E+03 -0.26110525407E+03  0.80987490154E+03  0.90815619173E+02 0.  0.
         11    1    3    3    0    0 -0.13694272404E+03  0.35074401690E+03 -0.99706797662E+02  0.38950753595E+03  0.00000000000E+00 0. -1.
        -11    1    3    3    0    0 -0.70351077036E+02  0.38171977456E+03 -0.16139845640E+03  0.42036736560E+03  0.00000000000E+00 0.  1.
         22    1    1    2    0    0  0.20729380108E+03 -0.73246379146E+03  0.62137684776E+03  0.98264088694E+03  0.00000000000E+00 0.  1.
<mgrwt>
<rscale>  0 0.17559377E+04</rscale>
<asrwt>0</asrwt>
<pdfrwt beam="1">  1        2 0.16559903E+00 0.17559377E+04</pdfrwt>
<pdfrwt beam="2">  1       -2 0.11017263E+00 0.17559377E+04</pdfrwt>
<totfact> 0.13974860E+01</totfact>
</mgrwt>
</event>
<event>
 6    1  0.1614874E-005  0.1170592E+04  0.7818608E-02  0.9138994E-01
          4   -1    0    0  501    0  0.00000000000E+00  0.00000000000E+00  0.36250014564E+03  0.36250014564E+03  0.00000000000E+00 0. -1.
         -4   -1    0    0    0  501 -0.00000000000E+00 -0.00000000000E+00 -0.94502353705E+03  0.94502353705E+03  0.00000000000E+00 0.  1.
         23    2    1    2    0    0 -0.21245390933E+03 -0.53145771595E+03 -0.17655767492E+03  0.60581709843E+03  0.90872310076E+02 0.  0.
         11    1    3    3    0    0 -0.17560785021E+03 -0.32147453259E+03 -0.10944443507E+03  0.38231149150E+03  0.00000000000E+00 0.  1.
        -11    1    3    3    0    0 -0.36846059115E+02 -0.20998318336E+03 -0.67113239850E+02  0.22350560693E+03  0.00000000000E+00 0. -1.
         22    1    1    2    0    0  0.21245390933E+03  0.53145771595E+03 -0.40596571649E+03  0.70170658427E+03  0.00000000000E+00 0.  1.
<mgrwt>
<rscale>  0 0.11705916E+04</rscale>
<asrwt>0</asrwt>
<pdfrwt beam="1">  1        4 0.55769253E-01 0.11705916E+04</pdfrwt>
<pdfrwt beam="2">  1       -4 0.14538824E+00 0.11705916E+04</pdfrwt>
<totfact> 0.19554136E+00</totfact>
</mgrwt>
</event>
<event>
 6    1  0.1614874E-005  0.2393379E+04  0.7818608E-02  0.8441987E-01
          1   -1    0    0  501    0  0.00000000000E+00  0.00000000000E+00  0.19513795108E+04  0.19513795108E+04  0.00000000000E+00 0. -1.
         -1   -1    0    0    0  501 -0.00000000000E+00 -0.00000000000E+00 -0.73387345005E+03  0.73387345005E+03  0.00000000000E+00 0.  1.
         23    2    1    2    0    0  0.10681188860E+04  0.46513879529E+03  0.90843154382E+03  0.14799483892E+04  0.88132350226E+02 0.  0.
         13    1    3    3    0    0  0.61200987176E+02  0.28196575807E+02  0.28556096145E+02  0.73185096472E+02  0.00000000000E+00 0. -1.
        -13    1    3    3    0    0  0.10069178989E+04  0.43694221948E+03  0.87987544767E+03  0.14067632927E+04  0.00000000000E+00 0.  1.
         22    1    1    2    0    0 -0.10681188860E+04 -0.46513879529E+03  0.30907451698E+03  0.12053045717E+04  0.00000000000E+00 0.  1.
<mgrwt>
<rscale>  0 0.23933789E+04</rscale>
<asrwt>0</asrwt>
<pdfrwt beam="1">  1        1 0.30021223E+00 0.23933789E+04</pdfrwt>
<pdfrwt beam="2">  1       -1 0.11290361E+00 0.23933789E+04</pdfrwt>
<totfact> 0.20676541E+00</totfact>
</mgrwt>
</event>
<event>
 6    1  0.1614874E-005  0.3018718E+04  0.7818608E-02  0.8238406E-01
          2   -1    0    0  501    0  0.00000000000E+00  0.00000000000E+00  0.37334814733E+04  0.37334814733E+04  0.00000000000E+00 0. -1.
         -2   -1    0    0    0  501 -0.00000000000E+00 -0.00000000000E+00 -0.61019832058E+03  0.61019832058E+03  0.00000000000E+00 0.  1.
         23    2    1    2    0    0  0.39207085340E+03 -0.13721455626E+04  0.22640884017E+04  0.26779311276E+04  0.93358631805E+02 0.  0.
         11    1    3    3    0    0  0.33586138023E+03 -0.10300714860E+04  0.17186829204E+04  0.20316793826E+04  0.00000000000E+00 0.  1.
        -11    1    3    3    0    0  0.56209473169E+02 -0.34207407660E+03  0.54540548133E+03  0.64625174492E+03  0.00000000000E+00 0. -1.
         22    1    1    2    0    0 -0.39207085340E+03  0.13721455626E+04  0.85919475104E+03  0.16657486663E+04  0.00000000000E+00 0.  1.
<mgrwt>
<rscale>  0 0.30187177E+04</rscale>
<asrwt>0</asrwt>
<pdfrwt beam="1">  1        2 0.57438175E+00 0.30187177E+04</pdfrwt>
<pdfrwt beam="2">  1       -2 0.93876667E-01 0.30187177E+04</pdfrwt>
<totfact> 0.45109041E-01</totfact>
</mgrwt>
</event>
<event>
 6    1  0.1614874E-005  0.1810432E+04  0.7818608E-02  0.8700772E-01
         -2   -1    0    0    0  501 -0.00000000000E+00  0.00000000000E+00  0.10356372053E+04  0.10356372053E+04  0.00000000000E+00 0.  1.
          2   -1    0    0  501    0  0.00000000000E+00 -0.00000000000E+00 -0.79121887835E+03  0.79121887835E+03  0.00000000000E+00 0. -1.
         23    2    1    2    0    0  0.24675156233E+03  0.21890197313E+02  0.99868082492E+03  0.10329559450E+04  0.90934482390E+02 0.  0.
         13    1    3    3    0    0  0.87214464106E+02 -0.93931214048E+00  0.53506604971E+03  0.54212814224E+03  0.00000000000E+00 0. -1.
        -13    1    3    3    0    0  0.15953709823E+03  0.22829509454E+02  0.46361477521E+03  0.49082780281E+03  0.00000000000E+00 0.  1.
         22    1    1    2    0    0 -0.24675156233E+03 -0.21890197313E+02 -0.75426249796E+03  0.79390013861E+03  0.00000000000E+00 0. -1.
<mgrwt>
<rscale>  0 0.18104317E+04</rscale>
<asrwt>0</asrwt>
<pdfrwt beam="1">  1        2 0.12172598E+00 0.18104317E+04</pdfrwt>
<pdfrwt beam="2">  1       -2 0.15932880E+00 0.18104317E+04</pdfrwt>
<totfact> 0.83973726E+00</totfact>
</mgrwt>
</event>
<event>
 6    1  0.1614874E-005  0.2083161E+04  0.7818608E-02  0.8568698E-01
          2   -1    0    0  501    0  0.00000000000E+00  0.00000000000E+00  0.28263677120E+04  0.28263677120E+04  0.00000000000E+00 0.  1.
         -2   -1    0    0    0  501 -0.00000000000E+00 -0.00000000000E+00 -0.38384592002E+03  0.38384592002E+03  0.00000000000E+00 0. -1.
         23    2    1    2    0    0  0.84089142365E+02  0.66123233513E+03 -0.59352105601E+01  0.67264769628E+03  0.90113881855E+02 0.  0.
         11    1    3    3    0    0  0.34127026446E+02  0.24254116584E+03 -0.45548038935E+02  0.24912947419E+03  0.00000000000E+00 0.  1.
        -11    1    3    3    0    0  0.49962115919E+02  0.41869116929E+03  0.39612828375E+02  0.42351822209E+03  0.00000000000E+00 0. -1.
         22    1    1    2    0    0 -0.84089142365E+02 -0.66123233513E+03  0.24484570025E+04  0.25375659357E+04  0.00000000000E+00 0.  1.
<mgrwt>
<rscale>  0 0.20831608E+04</rscale>
<asrwt>0</asrwt>
<pdfrwt beam="1">  1        2 0.43482579E+00 0.20831608E+04</pdfrwt>
<pdfrwt beam="2">  1       -2 0.59053220E-01 0.20831608E+04</pdfrwt>
<totfact> 0.55156435E+00</totfact>
</mgrwt>
</event>
<event>
 6    1  0.1614874E-005  0.4173188E+04  0.7818608E-02  0.7970492E-01
          1   -1    0    0  501    0  0.00000000000E+00  0.00000000000E+00  0.15634510547E+04  0.15634510547E+04  0.00000000000E+00 0. -1.
         -1   -1    0    0    0  501 -0.00000000000E+00 -0.00000000000E+00 -0.27847845194E+04  0.27847845194E+04  0.00000000000E+00 0.  1.
         23    2    1    2    0    0  0.19710116892E+03  0.18708989199E+04 -0.15490296590E+04  0.24386554016E+04  0.91845761697E+02 0.  0.
         13    1    3    3    0    0  0.75287346279E+02  0.10340419920E+04 -0.89332348048E+03  0.13685532020E+04  0.00000000000E+00 0. -1.
        -13    1    3    3    0    0  0.12181382264E+03  0.83685692788E+03 -0.65570617848E+03  0.10701021996E+04  0.00000000000E+00 0.  1.
         22    1    1    2    0    0 -0.19710116892E+03 -0.18708989199E+04  0.32769619431E+03  0.19095801725E+04  0.00000000000E+00 0.  1.
<mgrwt>
<rscale>  0 0.41731879E+04</rscale>
<asrwt>0</asrwt>
<pdfrwt beam="1">  1        1 0.24053094E+00 0.41731879E+04</pdfrwt>
<pdfrwt beam="2">  1       -1 0.42842838E+00 0.41731879E+04</pdfrwt>
<totfact> 0.20802253E-02</totfact>
</mgrwt>
</event>
<event>
 6    1  0.1614874E-005  0.3155204E+04  0.7818608E-02  0.8200749E-01
          2   -1    0    0  501    0  0.00000000000E+00  0.00000000000E+00  0.15957426900E+04  0.15957426900E+04  0.00000000000E+00 0. -1.
         -2   -1    0    0    0  501 -0.00000000000E+00 -0.00000000000E+00 -0.15596672040E+04  0.15596672040E+04  0.00000000000E+00 0.  1.
         23    2    1    2    0    0  0.13849977923E+04  0.74585582654E+03  0.11838856694E+03  0.15801971331E+04  0.92126695286E+02 0.  0.
         13    1    3    3    0    0  0.28326083095E+03  0.15145744105E+03 -0.12970004573E+02  0.32147204516E+03  0.00000000000E+00 0.  1.
        -13    1    3    3    0    0  0.11017369613E+04  0.59439838549E+03  0.13135857151E+03  0.12587250879E+04  0.00000000000E+00 0. -1.
         22    1    1    2    0    0 -0.13849977923E+04 -0.74585582654E+03 -0.82313080936E+02  0.15752127608E+04  0.00000000000E+00 0. -1.
<mgrwt>
<rscale>  0 0.31552037E+04</rscale>
<asrwt>0</asrwt>
<pdfrwt beam="1">  1        2 0.24549887E+00 0.31552037E+04</pdfrwt>
<pdfrwt beam="2">  1       -2 0.23994880E+00 0.31552037E+04</pdfrwt>
<totfact> 0.70257323E-01</totfact>
</mgrwt>
</event>
<event>
 6    1  0.1614874E-005  0.2890078E+04  0.7818608E-02  0.8275836E-01
         -2   -1    0    0    0  501 -0.00000000000E+00  0.00000000000E+00  0.23771591355E+04  0.23771591355E+04  0.00000000000E+00 0.  1.
          2   -1    0    0  501    0  0.00000000000E+00 -0.00000000000E+00 -0.87841741414E+03  0.87841741414E+03  0.00000000000E+00 0. -1.
         23    2    1    2    0    0 -0.62561482940E+03  0.64263757448E+03  0.20243676976E+04  0.22160287471E+04  0.91333816458E+02 0.  0.
         13    1    3    3    0    0 -0.36101637522E+03  0.43170543888E+03  0.12336583328E+04  0.13559554901E+04  0.00000000000E+00 0. -1.
        -13    1    3    3    0    0 -0.26459845417E+03  0.21093213561E+03  0.79070936483E+03  0.86007325701E+03  0.00000000000E+00 0.  1.
         22    1    1    2    0    0  0.62561482940E+03 -0.64263757448E+03 -0.52562597623E+03  0.10395478025E+04  0.00000000000E+00 0. -1.
<mgrwt>
<rscale>  0 0.28900782E+04</rscale>
<asrwt>0</asrwt>
<pdfrwt beam="1">  1        2 0.13514114E+00 0.28900782E+04</pdfrwt>
<pdfrwt beam="2">  1       -2 0.36571679E+00 0.28900782E+04</pdfrwt>
<totfact> 0.32390567E-01</totfact>
</mgrwt>
</event>
<event>
 6    1  0.1614874E-005  0.3389422E+04  0.7818608E-02  0.8140507E-01
         -2   -1    0    0    0  501 -0.00000000000E+00  0.00000000000E+00  0.12406258063E+04  0.12406258063E+04  0.00000000000E+00 0.  1.
          2   -1    0    0  501    0  0.00000000000E+00 -0.00000000000E+00 -0.23149977896E+04  0.23149977896E+04  0.00000000000E+00 0. -1.
         23    2    1    2    0    0 -0.77977478234E+03 -0.39221632274E+03  0.98489210334E+03  0.13190076401E+04  0.88805091891E+02 0.  0.
         13    1    3    3    0    0 -0.10969210474E+03 -0.69849199638E+02  0.19294758456E+03  0.23268012145E+03  0.00000000000E+00 0.  1.
        -13    1    3    3    0    0 -0.67008267761E+03 -0.32236712310E+03  0.79194451878E+03  0.10863275186E+04  0.00000000000E+00 0. -1.
         22    1    1    2    0    0  0.77977478234E+03  0.39221632274E+03 -0.20592640867E+04  0.22366159558E+04  0.00000000000E+00 0. -1.
<mgrwt>
<rscale>  0 0.33894224E+04</rscale>
<asrwt>0</asrwt>
<pdfrwt beam="1">  1        2 0.35615350E+00 0.33894224E+04</pdfrwt>
<pdfrwt beam="2">  1       -2 0.19086551E+00 0.33894224E+04</pdfrwt>
<totfact> 0.56373081E-01</totfact>
</mgrwt>
</event>
<event>
 6    1  0.1614874E-005  0.4009088E+04  0.7818608E-02  0.8002716E-01
         -1   -1    0    0    0  501 -0.00000000000E+00  0.00000000000E+00  0.33685691771E+04  0.33685691771E+04  0.00000000000E+00 0.  1.
          1   -1    0    0  501    0  0.00000000000E+00 -0.00000000000E+00 -0.11928498348E+04  0.11928498348E+04  0.00000000000E+00 0. -1.
         23    2    1    2    0    0  0.19315631503E+04  0.50518325499E+03  0.12777903123E+04  0.23722587008E+04  0.93364535816E+02 0.  0.
         13    1    3    3    0    0  0.10839044682E+04  0.24516502020E+03  0.67758570804E+03  0.13015671996E+04  0.00000000000E+00 0.  1.
        -13    1    3    3    0    0  0.84765868212E+03  0.26001823479E+03  0.60020460429E+03  0.10706915012E+04  0.00000000000E+00 0. -1.
         22    1    1    2    0    0 -0.19315631503E+04 -0.50518325499E+03  0.89792902994E+03  0.21891603111E+04  0.00000000000E+00 0. -1.
<mgrwt>
<rscale>  0 0.40090883E+04</rscale>
<asrwt>0</asrwt>
<pdfrwt beam="1">  1        1 0.18351536E+00 0.40090883E+04</pdfrwt>
<pdfrwt beam="2">  1       -1 0.51824141E+00 0.40090883E+04</pdfrwt>
<totfact> 0.96852269E-03</totfact>
</mgrwt>
</event>
<event>
 6    1  0.1614874E-005  0.1317122E+04  0.7818608E-02  0.9016097E-01
          1   -1    0    0  501    0  0.00000000000E+00  0.00000000000E+00  0.19078049459E+04  0.19078049459E+04  0.00000000000E+00 0. -1.
         -1   -1    0    0    0  501 -0.00000000000E+00 -0.00000000000E+00 -0.22733052819E+03  0.22733052819E+03  0.00000000000E+00 0.  1.
         23    2    1    2    0    0 -0.17570919409E+03 -0.71429769969E+01  0.18665420140E+04  0.18791161517E+04  0.12717577778E+03 0.  0.
         11    1    3    3    0    0 -0.12923119292E+03 -0.60416396571E+02  0.10752293216E+04  0.10846515275E+04  0.00000000000E+00 0. -1.
        -11    1    3    3    0    0 -0.46478001165E+02  0.53273419575E+02  0.79131269244E+03  0.79446462416E+03  0.00000000000E+00 0.  1.
         22    1    1    2    0    0  0.17570919409E+03  0.71429769969E+01 -0.18606759635E+03  0.25601932236E+03  0.00000000000E+00 0.  1.
<mgrwt>
<rscale>  0 0.13171216E+04</rscale>
<asrwt>0</asrwt>
<pdfrwt beam="1">  1        1 0.29350844E+00 0.13171216E+04</pdfrwt>
<pdfrwt beam="2">  1       -1 0.34973929E-01 0.13171216E+04</pdfrwt>
<totfact> 0.26264720E+01</totfact>
</mgrwt>
</event>
<event>
 6    1  0.1614874E-005  0.2375307E+04  0.7818608E-02  0.8448806E-01
          1   -1    0    0  501    0  0.00000000000E+00  0.00000000000E+00  0.32059784952E+04  0.32059784952E+04  0.00000000000E+00 0. -1.
         -1   -1    0    0    0  501 -0.00000000000E+00 -0.00000000000E+00 -0.43996596596E+03  0.43996596596E+03  0.00000000000E+00 0.  1.
         23    2    1    2    0    0 -0.10819362223E+04 -0.33272313993E+03  0.19279562874E+04  0.22375308353E+04  0.90764066380E+02 0.  0.
         13    1    3    3    0    0 -0.24306327386E+03 -0.97285754598E+02  0.51006967456E+03  0.57333702659E+03  0.00000000000E+00 0.  1.
        -13    1    3    3    0    0 -0.83887294846E+03 -0.23543738533E+03  0.14178866129E+04  0.16641938087E+04  0.00000000000E+00 0. -1.
         22    1    1    2    0    0  0.10819362223E+04  0.33272313993E+03  0.83805624184E+03  0.14084136259E+04  0.00000000000E+00 0.  1.
<mgrwt>
<rscale>  0 0.23753075E+04</rscale>
<asrwt>0</asrwt>
<pdfrwt beam="1">  1        1 0.49322745E+00 0.23753075E+04</pdfrwt>
<pdfrwt beam="2">  1       -1 0.67687074E-01 0.23753075E+04</pdfrwt>
<totfact> 0.83567814E-01</totfact>
</mgrwt>
</event>
<event>
 6    1  0.1614874E-005  0.1584554E+04  0.7818608E-02  0.8830094E-01
         -1   -1    0    0    0  501 -0.00000000000E+00  0.00000000000E+00  0.88279494586E+03  0.88279494586E+03  0.00000000000E+00 0.  1.
          1   -1    0    0  501    0  0.00000000000E+00 -0.00000000000E+00 -0.71103994204E+03  0.71103994204E+03  0.00000000000E+00 0. -1.
         23    2    1    2    0    0 -0.59051593176E+03  0.27522633854E+03  0.53480390587E+03  0.84800440557E+03  0.92938964029E+02 0.  0.
         11    1    3    3    0    0 -0.15269760991E+03  0.28880623412E+02  0.13790594537E+03  0.20777078777E+03  0.00000000000E+00 0.  1.
        -11    1    3    3    0    0 -0.43781832186E+03  0.24634571513E+03  0.39689796049E+03  0.64023361780E+03  0.00000000000E+00 0. -1.
         22    1    1    2    0    0  0.59051593176E+03 -0.27522633854E+03 -0.36304890205E+03  0.74583048233E+03  0.00000000000E+00 0. -1.
<mgrwt>
<rscale>  0 0.15845535E+04</rscale>
<asrwt>0</asrwt>
<pdfrwt beam="1">  1        1 0.10939076E+00 0.15845535E+04</pdfrwt>
<pdfrwt beam="2">  1       -1 0.13581461E+00 0.15845535E+04</pdfrwt>
<totfact> 0.11593742E+01</totfact>
</mgrwt>
</event>
<event>
 6    1  0.1614874E-005  0.2833026E+04  0.7818608E-02  0.8293088E-01
          1   -1    0    0  501    0  0.00000000000E+00  0.00000000000E+00  0.27419993169E+04  0.27419993169E+04  0.00000000000E+00 0. -1.
         -1   -1    0    0    0  501 -0.00000000000E+00 -0.00000000000E+00 -0.73176859097E+03  0.73176859097E+03  0.00000000000E+00 0.  1.
         23    2    1    2    0    0  0.63548412211E+03  0.11848361342E+04  0.46528083752E+03  0.14257086089E+04  0.92098020299E+02 0.  0.
         13    1    3    3    0    0  0.21210070607E+03  0.37779017405E+03  0.19497518812E+03  0.47510782892E+03  0.00000000000E+00 0.  1.
        -13    1    3    3    0    0  0.42338341604E+03  0.80704596016E+03  0.27030564940E+03  0.95060077997E+03  0.00000000000E+00 0. -1.
         22    1    1    2    0    0 -0.63548412211E+03 -0.11848361342E+04  0.15449498884E+04  0.20480592990E+04  0.00000000000E+00 0. -1.
<mgrwt>
<rscale>  0 0.28330259E+04</rscale>
<asrwt>0</asrwt>
<pdfrwt beam="1">  1        1 0.42184604E+00 0.28330259E+04</pdfrwt>
<pdfrwt beam="2">  1       -1 0.11257978E+00 0.28330259E+04</pdfrwt>
<totfact> 0.57110544E-01</totfact>
</mgrwt>
</event>
<event>
 6    1  0.1614874E-005  0.2111985E+04  0.7818608E-02  0.8555982E-01
          2   -1    0    0  501    0  0.00000000000E+00  0.00000000000E+00  0.25220442999E+04  0.25220442999E+04  0.00000000000E+00 0.  1.
         -2   -1    0    0    0  501 -0.00000000000E+00 -0.00000000000E+00 -0.44214914671E+03  0.44214914671E+03  0.00000000000E+00 0. -1.
         23    2    1    2    0    0 -0.84227173655E+03 -0.38407243541E+02  0.19297211303E+04  0.21077770574E+04  0.89463337216E+02 0.  0.
         11    1    3    3    0    0 -0.41626184335E+03 -0.56021424728E+02  0.89515653746E+03  0.98879600971E+03  0.00000000000E+00 0.  1.
        -11    1    3    3    0    0 -0.42600989320E+03  0.17614181188E+02  0.10345645928E+04  0.11189810477E+04  0.00000000000E+00 0. -1.
         22    1    1    2    0    0  0.84227173655E+03  0.38407243541E+02  0.15017402295E+03  0.85641638922E+03  0.00000000000E+00 0. -1.
<mgrwt>
<rscale>  0 0.21119846E+04</rscale>
<asrwt>0</asrwt>
<pdfrwt beam="1">  1        2 0.38800681E+00 0.21119846E+04</pdfrwt>
<pdfrwt beam="2">  1       -2 0.68022947E-01 0.21119846E+04</pdfrwt>
<totfact> 0.61592834E+00</totfact>
</mgrwt>
</event>
<event>
 6    1  0.1614874E-005  0.1151116E+04  0.7818608E-02  0.9156755E-01
          2   -1    0    0  501    0  0.00000000000E+00  0.00000000000E+00  0.36296703464E+03  0.36296703464E+03  0.00000000000E+00 0. -1.
         -2   -1    0    0    0  501 -0.00000000000E+00 -0.00000000000E+00 -0.91266377025E+03  0.91266377025E+03  0.00000000000E+00 0.  1.
         23    2    1    2    0    0  0.19887509853E+03 -0.43824384435E+03  0.65969667541E+02  0.49418721006E+03  0.90884705128E+02 0.  0.
         11    1    3    3    0    0  0.92805244848E+02 -0.10546670247E+03  0.17773034818E+02  0.14160480065E+03  0.00000000000E+00 0. -1.
        -11    1    3    3    0    0  0.10606985368E+03 -0.33277714189E+03  0.48196632723E+02  0.35258240941E+03  0.00000000000E+00 0.  1.
         22    1    1    2    0    0 -0.19887509853E+03  0.43824384435E+03 -0.61566640315E+03  0.78144359482E+03  0.00000000000E+00 0.  1.
<mgrwt>
<rscale>  0 0.11511157E+04</rscale>
<asrwt>0</asrwt>
<pdfrwt beam="1">  1        2 0.55841082E-01 0.11511157E+04</pdfrwt>
<pdfrwt beam="2">  1       -2 0.14040981E+00 0.11511157E+04</pdfrwt>
<totfact> 0.31269283E+01</totfact>
</mgrwt>
</event>
<event>
 6    1  0.1614874E-005  0.3255313E+04  0.7818608E-02  0.8174360E-01
          2   -1    0    0  501    0  0.00000000000E+00  0.00000000000E+00  0.37910120665E+04  0.37910120665E+04  0.00000000000E+00 0. -1.
         -2   -1    0    0    0  501 -0.00000000000E+00 -0.00000000000E+00 -0.69882794629E+03  0.69882794629E+03  0.00000000000E+00 0.  1.
         23    2    1    2    0    0 -0.11524657913E+04 -0.36354992612E+03  0.30487665516E+04  0.32806125593E+04  0.84233777761E+02 0.  0.
         13    1    3    3    0    0 -0.10084533325E+04 -0.34669401062E+03  0.26846458556E+04  0.28886845156E+04  0.00000000000E+00 0. -1.
        -13    1    3    3    0    0 -0.14401245887E+03 -0.16855915497E+02  0.36412069602E+03  0.39192804373E+03  0.00000000000E+00 0.  1.
         22    1    1    2    0    0  0.11524657913E+04  0.36354992612E+03  0.43417568643E+02  0.12092274535E+04  0.00000000000E+00 0.  1.
<mgrwt>
<rscale>  0 0.32553127E+04</rscale>
<asrwt>0</asrwt>
<pdfrwt beam="1">  1        2 0.58323261E+00 0.32553127E+04</pdfrwt>
<pdfrwt beam="2">  1       -2 0.10751199E+00 0.32553127E+04</pdfrwt>
<totfact> 0.28990979E-01</totfact>
</mgrwt>
</event>
<event>
 6    1  0.1614874E-005  0.2315060E+04  0.7818608E-02  0.8472007E-01
          2   -1    0    0  501    0  0.00000000000E+00  0.00000000000E+00  0.44950179356E+04  0.44950179356E+04  0.00000000000E+00 0. -1.
         -2   -1    0    0    0  501 -0.00000000000E+00 -0.00000000000E+00 -0.29808006237E+03  0.29808006237E+03  0.00000000000E+00 0.  1.
         23    2    1    2    0    0 -0.62614979388E+03  0.45406069430E+03  0.38797542848E+04  0.39571314273E+04  0.90339051655E+02 0.  0.
         13    1    3    3    0    0 -0.26977098675E+03  0.23557590561E+03  0.19504862088E+04  0.19830957726E+04  0.00000000000E+00 0.  1.
        -13    1    3    3    0    0 -0.35637880713E+03  0.21848478869E+03  0.19292680760E+04  0.19740356547E+04  0.00000000000E+00 0. -1.
         22    1    1    2    0    0  0.62614979388E+03 -0.45406069430E+03  0.31718358844E+03  0.83596657066E+03  0.00000000000E+00 0.  1.
<mgrwt>
<rscale>  0 0.23150596E+04</rscale>
<asrwt>0</asrwt>
<pdfrwt beam="1">  1        2 0.69154117E+00 0.23150596E+04</pdfrwt>
<pdfrwt beam="2">  1       -2 0.45858474E-01 0.23150596E+04</pdfrwt>
<totfact> 0.51288395E-01</totfact>
</mgrwt>
</event>
<event>
 6    1  0.1614874E-005  0.3526209E+04  0.7818608E-02  0.8107607E-01
          2   -1    0    0  501    0  0.00000000000E+00  0.00000000000E+00  0.24249901983E+04  0.24249901983E+04  0.00000000000E+00 0. -1.
         -2   -1    0    0    0  501 -0.00000000000E+00 -0.00000000000E+00 -0.12818759452E+04  0.12818759452E+04  0.00000000000E+00 0.  1.
         23    2    1    2    0    0 -0.36529487178E+03  0.21544893201E+03  0.23696831991E+04  0.24090487585E+04  0.90878331145E+02 0.  0.
         11    1    3    3    0    0 -0.11213764478E+03  0.97815693759E+02  0.64675582945E+03  0.66365342178E+03  0.00000000000E+00 0. -1.
        -11    1    3    3    0    0 -0.25315722700E+03  0.11763323825E+03  0.17229273696E+04  0.17453953367E+04  0.00000000000E+00 0.  1.
         22    1    1    2    0    0  0.36529487178E+03 -0.21544893201E+03 -0.12265689460E+04  0.12978173850E+04  0.00000000000E+00 0.  1.
<mgrwt>
<rscale>  0 0.35262085E+04</rscale>
<asrwt>0</asrwt>
<pdfrwt beam="1">  1        2 0.37307542E+00 0.35262085E+04</pdfrwt>
<pdfrwt beam="2">  1       -2 0.19721168E+00 0.35262085E+04</pdfrwt>
<totfact> 0.43756441E-01</totfact>
</mgrwt>
</event>
<event>
 6    1  0.1614874E-005  0.1750094E+04  0.7818608E-02  0.8733298E-01
          3   -1    0    0  501    0  0.00000000000E+00  0.00000000000E+00  0.32435159584E+03  0.32435159584E+03  0.00000000000E+00 0. -1.
         -3   -1    0    0    0  501 -0.00000000000E+00 -0.00000000000E+00 -0.23607329268E+04  0.23607329268E+04  0.00000000000E+00 0.  1.
         23    2    1    2    0    0 -0.52352795687E+03 -0.60731839203E+03 -0.49265149014E+03  0.94553890025E+03  0.91766934342E+02 0.  0.
         11    1    3    3    0    0 -0.26585487297E+03 -0.29385874467E+03 -0.29603239094E+03  0.49463820291E+03  0.00000000000E+00 0.  1.
        -11    1    3    3    0    0 -0.25767308391E+03 -0.31345964736E+03 -0.19661909920E+03  0.45090069734E+03  0.00000000000E+00 0. -1.
         22    1    1    2    0    0  0.52352795687E+03  0.60731839203E+03 -0.15437298408E+04  0.17395456224E+04  0.00000000000E+00 0.  1.
<mgrwt>
<rscale>  0 0.17500943E+04</rscale>
<asrwt>0</asrwt>
<pdfrwt beam="1">  1        3 0.49900247E-01 0.17500943E+04</pdfrwt>
<pdfrwt beam="2">  1       -3 0.36318967E+00 0.17500943E+04</pdfrwt>
<totfact> 0.16786839E-01</totfact>
</mgrwt>
</event>
<event>
 6    1  0.1614874E-005  0.1722902E+04  0.7818608E-02  0.8748409E-01
         -1   -1    0    0    0  501 -0.00000000000E+00  0.00000000000E+00  0.84404189212E+03  0.84404189212E+03  0.00000000000E+00 0.  1.
          1   -1    0    0  501    0  0.00000000000E+00 -0.00000000000E+00 -0.87921875170E+03  0.87921875170E+03  0.00000000000E+00 0. -1.
         23    2    1    2    0    0  0.46316072462E+03 -0.68005433755E+03 -0.26441478427E+03  0.86912846145E+03  0.92072501413E+02 0.  0.
         11    1    3    3    0    0  0.98643230770E+02 -0.20069290940E+03 -0.99366703788E+02  0.24470772910E+03  0.00000000000E+00 0.  1.
        -11    1    3    3    0    0  0.36451749385E+03 -0.47936142816E+03 -0.16504808048E+03  0.62442073235E+03  0.00000000000E+00 0. -1.
         22    1    1    2    0    0 -0.46316072462E+03  0.68005433755E+03  0.22923792469E+03  0.85413218237E+03  0.00000000000E+00 0. -1.
<mgrwt>
<rscale>  0 0.17229016E+04</rscale>
<asrwt>0</asrwt>
<pdfrwt beam="1">  1        1 0.13526442E+00 0.17229016E+04</pdfrwt>
<pdfrwt beam="2">  1       -1 0.12985260E+00 0.17229016E+04</pdfrwt>
<totfact> 0.91461390E+00</totfact>
</mgrwt>
</event>
<event>
 6    1  0.1614874E-005  0.6815012E+03  0.7818608E-02  0.9749401E-01
          2   -1    0    0  501    0  0.00000000000E+00  0.00000000000E+00  0.69054754698E+03  0.69054754698E+03  0.00000000000E+00 0. -1.
         -2   -1    0    0    0  501 -0.00000000000E+00 -0.00000000000E+00 -0.16814335839E+03  0.16814335839E+03  0.00000000000E+00 0.  1.
         23    2    1    2    0    0  0.17518192472E+03  0.20540024459E+02  0.62572888703E+03  0.65427321371E+03  0.73662736533E+02 0.  0.
         13    1    3    3    0    0  0.84973727362E+02 -0.16841088387E+02  0.20868598601E+03  0.22595131634E+03  0.00000000000E+00 0.  1.
        -13    1    3    3    0    0  0.90208197357E+02  0.37381112846E+02  0.41704290103E+03  0.42832189737E+03  0.00000000000E+00 0. -1.
         22    1    1    2    0    0 -0.17518192472E+03 -0.20540024459E+02 -0.10332469845E+03  0.20441769166E+03  0.00000000000E+00 0.  1.
<mgrwt>
<rscale>  0 0.68150124E+03</rscale>
<asrwt>0</asrwt>
<pdfrwt beam="1">  1        2 0.10623808E+00 0.68150124E+03</pdfrwt>
<pdfrwt beam="2">  1       -2 0.25868209E-01 0.68150124E+03</pdfrwt>
<totfact> 0.56487659E+02</totfact>
</mgrwt>
</event>
<event>
 6    1  0.1614874E-005  0.3105767E+04  0.7818608E-02  0.8214157E-01
         -2   -1    0    0    0  501 -0.00000000000E+00  0.00000000000E+00  0.82287646617E+03  0.82287646617E+03  0.00000000000E+00 0. -1.
          2   -1    0    0  501    0  0.00000000000E+00 -0.00000000000E+00 -0.29305102177E+04  0.29305102177E+04  0.00000000000E+00 0.  1.
         23    2    1    2    0    0 -0.63959726655E+03  0.27381073928E+03  0.62139551368E+03  0.93706679530E+03  0.88908999070E+02 0.  0.
         11    1    3    3    0    0 -0.33298013653E+03  0.96957501564E+02  0.28774196199E+03  0.45063506868E+03  0.00000000000E+00 0. -1.
        -11    1    3    3    0    0 -0.30661713002E+03  0.17685323772E+03  0.33365355169E+03  0.48643172662E+03  0.00000000000E+00 0.  1.
         22    1    1    2    0    0  0.63959726655E+03 -0.27381073928E+03 -0.27290292652E+04  0.28163198885E+04  0.00000000000E+00 0.  1.
<mgrwt>
<rscale>  0 0.31057675E+04</rscale>
<asrwt>0</asrwt>
<pdfrwt beam="1">  1        2 0.45084771E+00 0.31057675E+04</pdfrwt>
<pdfrwt beam="2">  1       -2 0.12659638E+00 0.31057675E+04</pdfrwt>
<totfact> 0.75771348E-01</totfact>
</mgrwt>
</event>
<event>
 6    1  0.1614874E-005  0.2893905E+04  0.7818608E-02  0.8274693E-01
          1   -1    0    0  501    0  0.00000000000E+00  0.00000000000E+00  0.16416769621E+04  0.16416769621E+04  0.00000000000E+00 0. -1.
         -1   -1    0    0    0  501 -0.00000000000E+00 -0.00000000000E+00 -0.12753250780E+04  0.12753250780E+04  0.00000000000E+00 0.  1.
         23    2    1    2    0    0  0.10813837782E+04  0.33992599745E+02 -0.78294714151E+03  0.13385741442E+04  0.90709098009E+02 0.  0.
         13    1    3    3    0    0  0.73457549489E+03  0.57521640762E+02 -0.50126850710E+03  0.89116778053E+03  0.00000000000E+00 0.  1.
        -13    1    3    3    0    0  0.34680828330E+03 -0.23529041017E+02 -0.28167863441E+03  0.44740636364E+03  0.00000000000E+00 0. -1.
         22    1    1    2    0    0 -0.10813837782E+04 -0.33992599745E+02  0.11492990256E+04  0.15784278960E+04  0.00000000000E+00 0. -1.
<mgrwt>
<rscale>  0 0.28939052E+04</rscale>
<asrwt>0</asrwt>
<pdfrwt beam="1">  1        1 0.25256569E+00 0.28939052E+04</pdfrwt>
<pdfrwt beam="2">  1       -1 0.19620386E+00 0.28939052E+04</pdfrwt>
<totfact> 0.71749011E-01</totfact>
</mgrwt>
</event>
<event>
 6    1  0.1614874E-005  0.3806017E+04  0.7818608E-02  0.8044865E-01
         -1   -1    0    0    0  501 -0.00000000000E+00  0.00000000000E+00  0.11272382884E+04  0.11272382884E+04  0.00000000000E+00 0.  1.
          1   -1    0    0  501    0  0.00000000000E+00 -0.00000000000E+00 -0.32126670998E+04  0.32126670998E+04  0.00000000000E+00 0. -1.
         23    2    1    2    0    0  0.41130191647E+03  0.12448545059E+03 -0.31559425011E+04  0.31863606541E+04  0.90858426998E+02 0.  0.
         11    1    3    3    0    0  0.27167120889E+03  0.36629585876E+02 -0.19328331374E+04  0.19521759422E+04  0.00000000000E+00 0. -1.
        -11    1    3    3    0    0  0.13963070758E+03  0.87855864717E+02 -0.12231093637E+04  0.12341847119E+04  0.00000000000E+00 0.  1.
         22    1    1    2    0    0 -0.41130191647E+03 -0.12448545059E+03  0.10705136897E+04  0.11535447342E+04  0.00000000000E+00 0.  1.
<mgrwt>
<rscale>  0 0.38060170E+04</rscale>
<asrwt>0</asrwt>
<pdfrwt beam="1">  1        1 0.49425647E+00 0.38060170E+04</pdfrwt>
<pdfrwt beam="2">  1       -1 0.17342128E+00 0.38060170E+04</pdfrwt>
<totfact> 0.76739770E-02</totfact>
</mgrwt>
</event>
<event>
 6    1  0.1614874E-005  0.1976840E+04  0.7818608E-02  0.8617526E-01
          1   -1    0    0  501    0  0.00000000000E+00  0.00000000000E+00  0.11728993342E+04  0.11728993342E+04  0.00000000000E+00 0. -1.
         -1   -1    0    0    0  501 -0.00000000000E+00 -0.00000000000E+00 -0.83295633658E+03  0.83295633658E+03  0.00000000000E+00 0.  1.
         23    2    1    2    0    0  0.93158574039E+03 -0.21732934537E+03 -0.73231541744E+02  0.96383972273E+03  0.92412749974E+02 0.  0.
         11    1    3    3    0    0  0.53933123944E+03 -0.99744022369E+02 -0.37655465017E+01  0.54848995904E+03  0.00000000000E+00 0. -1.
        -11    1    3    3    0    0  0.39225450095E+03 -0.11758532300E+03 -0.69465995242E+02  0.41534976369E+03  0.00000000000E+00 0.  1.
         22    1    1    2    0    0 -0.93158574039E+03  0.21732934537E+03  0.41317453941E+03  0.10420159481E+04  0.00000000000E+00 0.  1.
<mgrwt>
<rscale>  0 0.19768398E+04</rscale>
<asrwt>0</asrwt>
<pdfrwt beam="1">  1        1 0.18044605E+00 0.19768398E+04</pdfrwt>
<pdfrwt beam="2">  1       -1 0.12814713E+00 0.19768398E+04</pdfrwt>
<totfact> 0.54685154E+00</totfact>
</mgrwt>
</event>
<event>
 6    1  0.1614874E-005  0.9138942E+03  0.7818608E-02  0.9408378E-01
         -2   -1    0    0    0  501 -0.00000000000E+00  0.00000000000E+00  0.20844977061E+03  0.20844977061E+03  0.00000000000E+00 0.  1.
          2   -1    0    0  501    0  0.00000000000E+00 -0.00000000000E+00 -0.10016832463E+04  0.10016832463E+04  0.00000000000E+00 0. -1.
         23    2    1    2    0    0  0.40036355993E+03 -0.40306968737E+01 -0.12351956793E+03  0.42986130469E+03  0.96002244594E+02 0.  0.
         11    1    3    3    0    0  0.26405021673E+03 -0.47231835231E+02 -0.70477827484E+02  0.27734542971E+03  0.00000000000E+00 0.  1.
        -11    1    3    3    0    0  0.13631334320E+03  0.43201138357E+02 -0.53041740448E+02  0.15251587498E+03  0.00000000000E+00 0. -1.
         22    1    1    2    0    0 -0.40036355993E+03  0.40306968737E+01 -0.66971390779E+03  0.78027171224E+03  0.00000000000E+00 0. -1.
<mgrwt>
<rscale>  0 0.91389418E+03</rscale>
<asrwt>0</asrwt>
<pdfrwt beam="1">  1        2 0.15410512E+00 0.91389418E+03</pdfrwt>
<pdfrwt beam="2">  1       -2 0.32069195E-01 0.91389418E+03</pdfrwt>
<totfact> 0.22748258E+02</totfact>
</mgrwt>
</event>
<event>
 6    1  0.1614874E-005  0.2224327E+04  0.7818608E-02  0.8508371E-01
         -1   -1    0    0    0  501 -0.00000000000E+00  0.00000000000E+00  0.11291528534E+04  0.11291528534E+04  0.00000000000E+00 0.  1.
          1   -1    0    0  501    0  0.00000000000E+00 -0.00000000000E+00 -0.10954293587E+04  0.10954293587E+04  0.00000000000E+00 0. -1.
         23    2    1    2    0    0  0.59225853651E+03  0.88559412373E+03  0.32959888622E+03  0.11188745774E+04  0.90541527049E+02 0.  0.
         13    1    3    3    0    0  0.29473288596E+03  0.44364002971E+03  0.21211840265E+03  0.57330460208E+03  0.00000000000E+00 0. -1.
        -13    1    3    3    0    0  0.29752565056E+03  0.44195409403E+03  0.11748048357E+03  0.54556997533E+03  0.00000000000E+00 0.  1.
         22    1    1    2    0    0 -0.59225853651E+03 -0.88559412373E+03 -0.29587539152E+03  0.11057076347E+04  0.00000000000E+00 0. -1.
<mgrwt>
<rscale>  0 0.22243266E+04</rscale>
<asrwt>0</asrwt>
<pdfrwt beam="1">  1        1 0.16852759E+00 0.22243266E+04</pdfrwt>
<pdfrwt beam="2">  1       -1 0.17371582E+00 0.22243266E+04</pdfrwt>
<totfact> 0.26873410E+00</totfact>
</mgrwt>
</event>
<event>
 6    1  0.1614874E-005  0.3032932E+04  0.7818608E-02  0.8234389E-01
          1   -1    0    0  501    0  0.00000000000E+00  0.00000000000E+00  0.13421541055E+04  0.13421541055E+04  0.00000000000E+00 0. -1.
         -1   -1    0    0    0  501 -0.00000000000E+00 -0.00000000000E+00 -0.17134169365E+04  0.17134169365E+04  0.00000000000E+00 0.  1.
         23    2    1    2    0    0 -0.49786505401E+03  0.13588632027E+04  0.26600953681E+03  0.14742757228E+04  0.91372957688E+02 0.  0.
         11    1    3    3    0    0 -0.23935002913E+03  0.76988243621E+03  0.16955618804E+03  0.82386692065E+03  0.00000000000E+00 0.  1.
        -11    1    3    3    0    0 -0.25851502488E+03  0.58898076649E+03  0.96453348776E+02  0.65040880212E+03  0.00000000000E+00 0. -1.
         22    1    1    2    0    0  0.49786505401E+03 -0.13588632027E+04 -0.63727236779E+03  0.15812953192E+04  0.00000000000E+00 0.  1.
<mgrwt>
<rscale>  0 0.30329323E+04</rscale>
<asrwt>0</asrwt>
<pdfrwt beam="1">  1        1 0.20648525E+00 0.30329323E+04</pdfrwt>
<pdfrwt beam="2">  1       -1 0.26360261E+00 0.30329323E+04</pdfrwt>
<totfact> 0.40725546E-01</totfact>
</mgrwt>
</event>
<event>
 6    1  0.1614874E-005  0.1615381E+04  0.7818608E-02  0.8811154E-01
          1   -1    0    0  501    0  0.00000000000E+00  0.00000000000E+00  0.21543010659E+04  0.21543010659E+04  0.00000000000E+00 0. -1.
         -1   -1    0    0    0  501 -0.00000000000E+00 -0.00000000000E+00 -0.30281927852E+03  0.30281927852E+03  0.00000000000E+00 0.  1.
         23    2    1    2    0    0 -0.33303706247E+03 -0.34831349695E+03 -0.56675278872E+02  0.48905038464E+03  0.61009952839E+02 0.  0.
         11    1    3    3    0    0 -0.27394138558E+03 -0.26133188465E+03 -0.25914955667E+02  0.37948626008E+03  0.00000000000E+00 0.  1.
        -11    1    3    3    0    0 -0.59095676894E+02 -0.86981612299E+02 -0.30760323205E+02  0.10956412455E+03  0.00000000000E+00 0. -1.
         22    1    1    2    0    0  0.33303706247E+03  0.34831349695E+03  0.19081570663E+04  0.19680699598E+04  0.00000000000E+00 0. -1.
<mgrwt>
<rscale>  0 0.16153809E+04</rscale>
<asrwt>0</asrwt>
<pdfrwt beam="1">  1        1 0.33143092E+00 0.16153809E+04</pdfrwt>
<pdfrwt beam="2">  1       -1 0.46587583E-01 0.16153809E+04</pdfrwt>
<totfact> 0.10300916E+01</totfact>
</mgrwt>
</event>
<event>
 6    1  0.1614874E-005  0.4882076E+04  0.7818608E-02  0.7846960E-01
         -2   -1    0    0    0  501 -0.00000000000E+00  0.00000000000E+00  0.12482688755E+04  0.12482688755E+04  0.00000000000E+00 0.  1.
          2   -1    0    0  501    0  0.00000000000E+00 -0.00000000000E+00 -0.47735446588E+04  0.47735446588E+04  0.00000000000E+00 0. -1.
         23    2    1    2    0    0  0.14525937344E+04 -0.13779707885E+04 -0.42655539656E+02  0.20046658132E+04  0.89629661607E+02 0.  0.
         13    1    3    3    0    0  0.35885243021E+03 -0.32312335474E+03 -0.46557235849E+02  0.48513023536E+03  0.00000000000E+00 0.  1.
        -13    1    3    3    0    0  0.10937413042E+04 -0.10548474338E+04  0.39016961936E+01  0.15195355778E+04  0.00000000000E+00 0. -1.
         22    1    1    2    0    0 -0.14525937344E+04  0.13779707885E+04 -0.34826202437E+04  0.40171477210E+04  0.00000000000E+00 0. -1.
<mgrwt>
<rscale>  0 0.48820763E+04</rscale>
<asrwt>0</asrwt>
<pdfrwt beam="1">  1        2 0.73439148E+00 0.48820763E+04</pdfrwt>
<pdfrwt beam="2">  1       -2 0.19204137E+00 0.48820763E+04</pdfrwt>
<totfact> 0.69433182E-03</totfact>
</mgrwt>
</event>
<event>
 6    1  0.1614874E-005  0.4272320E+04  0.7818608E-02  0.7951756E-01
         -1   -1    0    0    0  501 -0.00000000000E+00  0.00000000000E+00  0.21523530665E+04  0.21523530665E+04  0.00000000000E+00 0.  1.
          1   -1    0    0  501    0  0.00000000000E+00 -0.00000000000E+00 -0.21200886759E+04  0.21200886759E+04  0.00000000000E+00 0. -1.
         23    2    1    2    0    0 -0.16659669948E+04 -0.54548438131E+03  0.12351989610E+04  0.21464006283E+04  0.91213739581E+02 0.  0.
         11    1    3    3    0    0 -0.11303506580E+04 -0.35822488585E+03  0.78455165880E+03  0.14218083500E+04  0.00000000000E+00 0. -1.
        -11    1    3    3    0    0 -0.53561633679E+03 -0.18725949546E+03  0.45064730215E+03  0.72459227833E+03  0.00000000000E+00 0.  1.
         22    1    1    2    0    0  0.16659669948E+04  0.54548438131E+03 -0.12029345704E+04  0.21260411140E+04  0.00000000000E+00 0. -1.
<mgrwt>
<rscale>  0 0.42723199E+04</rscale>
<asrwt>0</asrwt>
<pdfrwt beam="1">  1        1 0.32616749E+00 0.42723199E+04</pdfrwt>
<pdfrwt beam="2">  1       -1 0.33113124E+00 0.42723199E+04</pdfrwt>
<totfact> 0.39116285E-02</totfact>
</mgrwt>
</event>
<event>
 6    1  0.1614874E-005  0.2167775E+04  0.7818608E-02  0.8531962E-01
          2   -1    0    0  501    0  0.00000000000E+00  0.00000000000E+00  0.12179437406E+04  0.12179437406E+04  0.00000000000E+00 0.  1.
         -2   -1    0    0    0  501 -0.00000000000E+00 -0.00000000000E+00 -0.96458685216E+03  0.96458685216E+03  0.00000000000E+00 0. -1.
         23    2    1    2    0    0 -0.79343851844E+03  0.16990599564E+03  0.84753446154E+03  0.11768170559E+04  0.90393527128E+02 0.  0.
         13    1    3    3    0    0 -0.18058440806E+03  0.64986244188E+02  0.24246410246E+03  0.30922933455E+03  0.00000000000E+00 0. -1.
        -13    1    3    3    0    0 -0.61285411038E+03  0.10491975146E+03  0.60507035908E+03  0.86758772138E+03  0.00000000000E+00 0.  1.
         22    1    1    2    0    0  0.79343851844E+03 -0.16990599564E+03 -0.59417757306E+03  0.10057135369E+04  0.00000000000E+00 0. -1.
<mgrwt>
<rscale>  0 0.21677754E+04</rscale>
<asrwt>0</asrwt>
<pdfrwt beam="1">  1        2 0.18737596E+00 0.21677754E+04</pdfrwt>
<pdfrwt beam="2">  1       -2 0.14839798E+00 0.21677754E+04</pdfrwt>
<totfact> 0.52211373E+00</totfact>
</mgrwt>
</event>
<event>
 6    1  0.1614874E-005  0.2540334E+04  0.7818608E-02  0.8388756E-01
          1   -1    0    0  501    0  0.00000000000E+00  0.00000000000E+00  0.96699863748E+03  0.96699863748E+03  0.00000000000E+00 0. -1.
         -1   -1    0    0    0  501 -0.00000000000E+00 -0.00000000000E+00 -0.16683829996E+04  0.16683829996E+04  0.00000000000E+00 0.  1.
         23    2    1    2    0    0  0.66621730375E+03 -0.51923195047E+03  0.63063677564E+03  0.10581284470E+04  0.92118148721E+02 0.  0.
         13    1    3    3    0    0  0.19357069392E+03 -0.10167215227E+03  0.14931504737E+03  0.26476748944E+03  0.00000000000E+00 0. -1.
        -13    1    3    3    0    0  0.47264660983E+03 -0.41755979820E+03  0.48132172827E+03  0.79336095755E+03  0.00000000000E+00 0.  1.
         22    1    1    2    0    0 -0.66621730375E+03  0.51923195047E+03 -0.13320211377E+04  0.15772531901E+04  0.00000000000E+00 0.  1.
<mgrwt>
<rscale>  0 0.25403339E+04</rscale>
<asrwt>0</asrwt>
<pdfrwt beam="1">  1        1 0.14876902E+00 0.25403339E+04</pdfrwt>
<pdfrwt beam="2">  1       -1 0.25667431E+00 0.25403339E+04</pdfrwt>
<totfact> 0.89694836E-01</totfact>
</mgrwt>
</event>
<event>
 6    1  0.1614874E-005  0.2078268E+04  0.7818608E-02  0.8570877E-01
         -2   -1    0    0    0  501 -0.00000000000E+00  0.00000000000E+00  0.70783639223E+03  0.70783639223E+03  0.00000000000E+00 0.  1.
          2   -1    0    0  501    0  0.00000000000E+00 -0.00000000000E+00 -0.15254927314E+04  0.15254927314E+04  0.00000000000E+00 0. -1.
         23    2    1    2    0    0 -0.72733177452E+03 -0.68315956764E+03 -0.10621550062E+03  0.10078224644E+04  0.93305316544E+02 0.  0.
         11    1    3    3    0    0 -0.43086581769E+03 -0.42979569079E+03 -0.10657375667E+03  0.61784112383E+03  0.00000000000E+00 0. -1.
        -11    1    3    3    0    0 -0.29646595683E+03 -0.25336387684E+03  0.35825605370E+00  0.38998134057E+03  0.00000000000E+00 0.  1.
         22    1    1    2    0    0  0.72733177452E+03  0.68315956764E+03 -0.71144083857E+03  0.12255066592E+04  0.00000000000E+00 0.  1.
<mgrwt>
<rscale>  0 0.20782678E+04</rscale>
<asrwt>0</asrwt>
<pdfrwt beam="1">  1        2 0.23469118E+00 0.20782678E+04</pdfrwt>
<pdfrwt beam="2">  1       -2 0.10889791E+00 0.20782678E+04</pdfrwt>
<totfact> 0.76333527E+00</totfact>
</mgrwt>
</event>
<event>
 6    1  0.1614874E-005  0.2714094E+04  0.7818608E-02  0.8330447E-01
         -2   -1    0    0    0  501 -0.00000000000E+00  0.00000000000E+00  0.62708589140E+03  0.62708589140E+03  0.00000000000E+00 0.  1.
          2   -1    0    0  501    0  0.00000000000E+00 -0.00000000000E+00 -0.29367208060E+04  0.29367208060E+04  0.00000000000E+00 0. -1.
         23    2    1    2    0    0 -0.13328906976E+04  0.19206052171E+03 -0.95340255588E+03  0.16525633674E+04  0.92219270737E+02 0.  0.
         13    1    3    3    0    0 -0.85985205166E+03  0.11169973039E+03 -0.66518921324E+03  0.10928399105E+04  0.00000000000E+00 0. -1.
        -13    1    3    3    0    0 -0.47303864594E+03  0.80360791324E+02 -0.28821334264E+03  0.55972345691E+03  0.00000000000E+00 0.  1.
         22    1    1    2    0    0  0.13328906976E+04 -0.19206052171E+03 -0.13562323587E+04  0.19112433300E+04  0.00000000000E+00 0.  1.
<mgrwt>
<rscale>  0 0.27140937E+04</rscale>
<asrwt>0</asrwt>
<pdfrwt beam="1">  1        2 0.45180320E+00 0.27140937E+04</pdfrwt>
<pdfrwt beam="2">  1       -2 0.96474754E-01 0.27140937E+04</pdfrwt>
<totfact> 0.15015881E+00</totfact>
</mgrwt>
</event>
<event>
 6    1  0.1614874E-005  0.1555355E+04  0.7818608E-02  0.8848455E-01
         -2   -1    0    0    0  501 -0.00000000000E+00  0.00000000000E+00  0.11408355790E+04  0.11408355790E+04  0.00000000000E+00 0. -1.
          2   -1    0    0  501    0  0.00000000000E+00 -0.00000000000E+00 -0.53012207795E+03  0.53012207795E+03  0.00000000000E+00 0.  1.
         23    2    1    2    0    0 -0.50800988537E+03  0.11982724763E+03 -0.30913579929E+03  0.61333988657E+03  0.90489011182E+02 0.  0.
         13    1    3    3    0    0 -0.32171618615E+03  0.10875068728E+03 -0.16514535632E+03  0.37762548262E+03  0.00000000000E+00 0.  1.
        -13    1    3    3    0    0 -0.18629369922E+03  0.11076560346E+02 -0.14399044297E+03  0.23571440394E+03  0.00000000000E+00 0. -1.
         22    1    1    2    0    0  0.50800988537E+03 -0.11982724763E+03  0.91984930033E+03  0.10576177704E+04  0.00000000000E+00 0. -1.
<mgrwt>
<rscale>  0 0.15553548E+04</rscale>
<asrwt>0</asrwt>
<pdfrwt beam="1">  1        2 0.81557243E-01 0.15553548E+04</pdfrwt>
<pdfrwt beam="2">  1       -2 0.17551317E+00 0.15553548E+04</pdfrwt>
<totfact> 0.10769584E+01</totfact>
</mgrwt>
</event>
<event>
 6    1  0.1614874E-005  0.1383307E+04  0.7818608E-02  0.8965991E-01
         -2   -1    0    0    0  501 -0.00000000000E+00  0.00000000000E+00  0.60923972592E+03  0.60923972592E+03  0.00000000000E+00 0.  1.
          2   -1    0    0  501    0  0.00000000000E+00 -0.00000000000E+00 -0.78521570883E+03  0.78521570883E+03  0.00000000000E+00 0. -1.
         23    2    1    2    0    0  0.52048232217E+03  0.44393521620E+03 -0.83880388029E+01  0.69013587454E+03  0.90757050789E+02 0.  0.
         13    1    3    3    0    0  0.42648287422E+03  0.33150805887E+03  0.21390438791E+02  0.54059484457E+03  0.00000000000E+00 0.  1.
        -13    1    3    3    0    0  0.93999447948E+02  0.11242715733E+03 -0.29778477594E+02  0.14954102998E+03  0.00000000000E+00 0. -1.
         22    1    1    2    0    0 -0.52048232217E+03 -0.44393521620E+03 -0.16758794411E+03  0.70431956020E+03  0.00000000000E+00 0. -1.
<mgrwt>
<rscale>  0 0.13833071E+04</rscale>
<asrwt>0</asrwt>
<pdfrwt beam="1">  1        2 0.12080242E+00 0.13833071E+04</pdfrwt>
<pdfrwt beam="2">  1       -2 0.93729189E-01 0.13833071E+04</pdfrwt>
<totfact> 0.33104037E+01</totfact>
</mgrwt>
</event>
<event>
 6    1  0.1614874E-005  0.1801869E+04  0.7818608E-02  0.8705306E-01
          2   -1    0    0  501    0  0.00000000000E+00  0.00000000000E+00  0.85349966478E+03  0.85349966478E+03  0.00000000000E+00 0. -1.
         -2   -1    0    0    0  501 -0.00000000000E+00 -0.00000000000E+00 -0.95100518610E+03  0.95100518610E+03  0.00000000000E+00 0.  1.
         23    2    1    2    0    0 -0.19759769691E+03  0.71497990489E+03 -0.55513759934E+03  0.93291536433E+03  0.10914306475E+03 0.  0.
         11    1    3    3    0    0 -0.93648074500E+02  0.25446803424E+03 -0.26295026225E+03  0.37771256628E+03  0.00000000000E+00 0. -1.
        -11    1    3    3    0    0 -0.10394962241E+03  0.46051187065E+03 -0.29218733708E+03  0.55520279805E+03  0.00000000000E+00 0.  1.
         22    1    1    2    0    0  0.19759769691E+03 -0.71497990489E+03  0.45763207801E+03  0.87158948654E+03  0.00000000000E+00 0. -1.
<mgrwt>
<rscale>  0 0.18018686E+04</rscale>
<asrwt>0</asrwt>
<pdfrwt beam="1">  1        2 0.13130764E+00 0.18018686E+04</pdfrwt>
<pdfrwt beam="2">  1       -2 0.14630849E+00 0.18018686E+04</pdfrwt>
<totfact> 0.95311718E+00</totfact>
</mgrwt>
</event>
<event>
 6    1  0.1614874E-005  0.2460183E+04  0.7818608E-02  0.8417309E-01
         -2   -1    0    0    0  501 -0.00000000000E+00  0.00000000000E+00  0.59959810265E+03  0.59959810265E+03  0.00000000000E+00 0.  1.
          2   -1    0    0  501    0  0.00000000000E+00 -0.00000000000E+00 -0.25235656727E+04  0.25235656727E+04  0.00000000000E+00 0. -1.
         23    2    1    2    0    0  0.10249293301E+04 -0.35893757743E+01 -0.18233576222E+04  0.20933019512E+04  0.82383402743E+02 0.  0.
         13    1    3    3    0    0  0.23675236593E+03  0.87312983526E+01 -0.35622632227E+03  0.42781434177E+03  0.00000000000E+00 0.  1.
        -13    1    3    3    0    0  0.78817696417E+03 -0.12320674127E+02 -0.14671312999E+04  0.16654876094E+04  0.00000000000E+00 0. -1.
         22    1    1    2    0    0 -0.10249293301E+04  0.35893757743E+01 -0.10060994786E+03  0.10298618242E+04  0.00000000000E+00 0.  1.
<mgrwt>
<rscale>  0 0.24601831E+04</rscale>
<asrwt>0</asrwt>
<pdfrwt beam="1">  1        2 0.38824087E+00 0.24601831E+04</pdfrwt>
<pdfrwt beam="2">  1       -2 0.92245862E-01 0.24601831E+04</pdfrwt>
<totfact> 0.30122736E+00</totfact>
</mgrwt>
</event>
<event>
 6    1  0.1614874E-005  0.3433164E+03  0.7818608E-02  0.1065392E+00
          3   -1    0    0  501    0  0.00000000000E+00  0.00000000000E+00  0.14384591235E+03  0.14384591235E+03  0.00000000000E+00 0. -1.
         -3   -1    0    0    0  501 -0.00000000000E+00 -0.00000000000E+00 -0.20484792750E+03  0.20484792750E+03  0.00000000000E+00 0.  1.
         23    2    1    2    0    0 -0.29174962584E+02 -0.63615635736E+02  0.11381987936E+03  0.16038339842E+03  0.88711566326E+02 0.  0.
         13    1    3    3    0    0  0.79784272243E+01  0.18151597589E+02  0.37936709732E+02  0.42805720895E+02  0.00000000000E+00 0.  1.
        -13    1    3    3    0    0 -0.37153389809E+02 -0.81767233325E+02  0.75883169630E+02  0.11757767753E+03  0.00000000000E+00 0. -1.
         22    1    1    2    0    0  0.29174962584E+02  0.63615635736E+02 -0.17482189450E+03  0.18831044143E+03  0.00000000000E+00 0.  1.
<mgrwt>
<rscale>  0 0.34331640E+03</rscale>
<asrwt>0</asrwt>
<pdfrwt beam="1">  1        3 0.22130140E-01 0.34331640E+03</pdfrwt>
<pdfrwt beam="2">  1       -3 0.31515066E-01 0.34331640E+03</pdfrwt>
<totfact> 0.47466092E+02</totfact>
</mgrwt>
</event>
<event>
 6    1  0.1614874E-005  0.2061513E+04  0.7818608E-02  0.8578389E-01
          1   -1    0    0  501    0  0.00000000000E+00  0.00000000000E+00  0.26937642314E+04  0.26937642314E+04  0.00000000000E+00 0. -1.
         -1   -1    0    0    0  501 -0.00000000000E+00 -0.00000000000E+00 -0.39441421183E+03  0.39441421183E+03  0.00000000000E+00 0.  1.
         23    2    1    2    0    0 -0.95040220458E+03 -0.30973798536E+03  0.15159744266E+04  0.18181865969E+04  0.91771831274E+02 0.  0.
         11    1    3    3    0    0 -0.33926666450E+03 -0.83175374098E+02  0.59387335905E+03  0.68898880911E+03  0.00000000000E+00 0. -1.
        -11    1    3    3    0    0 -0.61113554008E+03 -0.22656261127E+03  0.92210106752E+03  0.11291977878E+04  0.00000000000E+00 0.  1.
         22    1    1    2    0    0  0.95040220458E+03  0.30973798536E+03  0.78337559296E+03  0.12699918463E+04  0.00000000000E+00 0. -1.
<mgrwt>
<rscale>  0 0.20615129E+04</rscale>
<asrwt>0</asrwt>
<pdfrwt beam="1">  1        1 0.41442526E+00 0.20615129E+04</pdfrwt>
<pdfrwt beam="2">  1       -1 0.60679111E-01 0.20615129E+04</pdfrwt>
<totfact> 0.25213974E+00</totfact>
</mgrwt>
</event>
<event>
 6    1  0.1879142E-005  0.2086578E+04  0.7818608E-02  0.8567179E-01
         -2   -1    0    0    0  501 -0.00000000000E+00  0.00000000000E+00  0.15060773971E+04  0.15060773971E+04  0.00000000000E+00 0.  1.
          2   -1    0    0  501    0  0.00000000000E+00 -0.00000000000E+00 -0.72270633377E+03  0.72270633377E+03  0.00000000000E+00 0. -1.
         23    2    1    2    0    0  0.96735277897E+03  0.81612325099E+02  0.79410260004E+03  0.12579350628E+04  0.96797273344E+02 0.  0.
         11    1    3    3    0    0  0.53355097969E+03  0.93000479977E+02  0.44758187960E+03  0.70260606043E+03  0.00000000000E+00 0. -1.
        -11    1    3    3    0    0  0.43380179928E+03 -0.11388154878E+02  0.34652072044E+03  0.55532900232E+03  0.00000000000E+00 0.  1.
         22    1    1    2    0    0 -0.96735277897E+03 -0.81612325099E+02 -0.10731536679E+02  0.97084866816E+03  0.00000000000E+00 0.  1.
<mgrwt>
<rscale>  0 0.20865777E+04</rscale>
<asrwt>0</asrwt>
<pdfrwt beam="1">  1        2 0.11118559E+00 0.20865777E+04</pdfrwt>
<pdfrwt beam="2">  1       -2 0.23170421E+00 0.20865777E+04</pdfrwt>
<totfact> 0.30264342E+00</totfact>
</mgrwt>
</event>
<event>
 6    1  0.1614874E-005  0.2070841E+04  0.7818608E-02  0.8574198E-01
          1   -1    0    0  501    0  0.00000000000E+00  0.00000000000E+00  0.15341420780E+04  0.15341420780E+04  0.00000000000E+00 0. -1.
         -1   -1    0    0    0  501 -0.00000000000E+00 -0.00000000000E+00 -0.69882396126E+03  0.69882396126E+03  0.00000000000E+00 0.  1.
         23    2    1    2    0    0 -0.29069125615E+03 -0.95124704217E+03  0.72070923913E+03  0.12317130561E+04  0.91229948249E+02 0.  0.
         11    1    3    3    0    0 -0.17392439114E+03 -0.46059970699E+03  0.39644721099E+03  0.63211721620E+03  0.00000000000E+00 0.  1.
        -11    1    3    3    0    0 -0.11676686501E+03 -0.49064733518E+03  0.32426202814E+03  0.59959583986E+03  0.00000000000E+00 0. -1.
         22    1    1    2    0    0  0.29069125615E+03  0.95124704217E+03  0.11460887765E+03  0.10012529833E+04  0.00000000000E+00 0.  1.
<mgrwt>
<rscale>  0 0.20708406E+04</rscale>
<asrwt>0</asrwt>
<pdfrwt beam="1">  1        1 0.23602186E+00 0.20708406E+04</pdfrwt>
<pdfrwt beam="2">  1       -1 0.10751138E+00 0.20708406E+04</pdfrwt>
<totfact> 0.46007482E+00</totfact>
</mgrwt>
</event>
<event>
 6    1  0.1614874E-005  0.4453515E+04  0.7818608E-02  0.7918826E-01
         -1   -1    0    0    0  501 -0.00000000000E+00  0.00000000000E+00  0.15907215006E+04  0.15907215006E+04  0.00000000000E+00 0.  1.
          1   -1    0    0  501    0  0.00000000000E+00 -0.00000000000E+00 -0.31171072079E+04  0.31171072079E+04  0.00000000000E+00 0. -1.
         23    2    1    2    0    0  0.19687243641E+04  0.21533325362E+03 -0.18375390642E+04  0.27030692607E+04  0.88258620478E+02 0.  0.
         13    1    3    3    0    0  0.17080901057E+04  0.17255880321E+03 -0.15554181251E+04  0.23166082737E+04  0.00000000000E+00 0.  1.
        -13    1    3    3    0    0  0.26063425831E+03  0.42774450416E+02 -0.28212093907E+03  0.38646098700E+03  0.00000000000E+00 0. -1.
         22    1    1    2    0    0 -0.19687243641E+04 -0.21533325362E+03  0.31115335687E+03  0.20047594477E+04  0.00000000000E+00 0.  1.
<mgrwt>
<rscale>  0 0.44535152E+04</rscale>
<asrwt>0</asrwt>
<pdfrwt beam="1">  1        1 0.47955495E+00 0.44535152E+04</pdfrwt>
<pdfrwt beam="2">  1       -1 0.24472639E+00 0.44535152E+04</pdfrwt>
<totfact> 0.27894128E-02</totfact>
</mgrwt>
</event>
<event>
 6    1  0.1614874E-005  0.4663646E+04  0.7818608E-02  0.7882597E-01
         -1   -1    0    0    0  501 -0.00000000000E+00  0.00000000000E+00  0.20046330882E+04  0.20046330882E+04  0.00000000000E+00 0.  1.
          1   -1    0    0  501    0  0.00000000000E+00 -0.00000000000E+00 -0.27124163121E+04  0.27124163121E+04  0.00000000000E+00 0. -1.
         23    2    1    2    0    0  0.36656758915E+03 -0.20064763249E+04 -0.14952281105E+04  0.25306394458E+04  0.90054773611E+02 0.  0.
         11    1    3    3    0    0  0.18477948075E+03 -0.11376291657E+04 -0.79686946107E+03  0.14011939599E+04  0.00000000000E+00 0. -1.
        -11    1    3    3    0    0  0.18178810840E+03 -0.86884715917E+03 -0.69835864945E+03  0.11294454859E+04  0.00000000000E+00 0.  1.
         22    1    1    2    0    0 -0.36656758915E+03  0.20064763249E+04  0.78744488670E+03  0.21864099545E+04  0.00000000000E+00 0.  1.
<mgrwt>
<rscale>  0 0.46636464E+04</rscale>
<asrwt>0</asrwt>
<pdfrwt beam="1">  1        1 0.41729481E+00 0.46636464E+04</pdfrwt>
<pdfrwt beam="2">  1       -1 0.30840509E+00 0.46636464E+04</pdfrwt>
<totfact> 0.20771186E-02</totfact>
</mgrwt>
</event>
<event>
 6    1  0.1614874E-005  0.3317248E+04  0.7818608E-02  0.8158520E-01
          2   -1    0    0  501    0  0.00000000000E+00  0.00000000000E+00  0.30190154984E+04  0.30190154984E+04  0.00000000000E+00 0. -1.
         -2   -1    0    0    0  501 -0.00000000000E+00 -0.00000000000E+00 -0.91123556137E+03  0.91123556137E+03  0.00000000000E+00 0.  1.
         23    2    1    2    0    0  0.81059619457E+03  0.94721990585E+03 -0.23903081134E+03  0.12728439721E+04  0.93296880637E+02 0.  0.
         11    1    3    3    0    0  0.71985687745E+03  0.86600783179E+03 -0.23831197281E+03  0.11510673678E+04  0.00000000000E+00 0. -1.
        -11    1    3    3    0    0  0.90739317118E+02  0.81212074068E+02 -0.71883853040E+00  0.12177660438E+03  0.00000000000E+00 0.  1.
         22    1    1    2    0    0 -0.81059619457E+03 -0.94721990585E+03  0.23468107483E+04  0.26574070876E+04  0.00000000000E+00 0. -1.
<mgrwt>
<rscale>  0 0.33172484E+04</rscale>
<asrwt>0</asrwt>
<pdfrwt beam="1">  1        2 0.46446392E+00 0.33172484E+04</pdfrwt>
<pdfrwt beam="2">  1       -2 0.14019009E+00 0.33172484E+04</pdfrwt>
<totfact> 0.50524293E-01</totfact>
</mgrwt>
</event>
<event>
 6    1  0.1614874E-005  0.1300442E+04  0.7818608E-02  0.9029215E-01
          3   -1    0    0  501    0  0.00000000000E+00  0.00000000000E+00  0.69042442200E+03  0.69042442200E+03  0.00000000000E+00 0. -1.
         -3   -1    0    0    0  501 -0.00000000000E+00 -0.00000000000E+00 -0.61235883683E+03  0.61235883683E+03  0.00000000000E+00 0.  1.
         23    2    1    2    0    0  0.42456287842E+03 -0.48808973374E+03  0.27940907504E+02  0.65393989620E+03  0.91495724594E+02 0.  0.
         11    1    3    3    0    0  0.52232010715E+02 -0.30041312923E+02 -0.14997380039E+02  0.62093355792E+02  0.00000000000E+00 0.  1.
        -11    1    3    3    0    0  0.37233086770E+03 -0.45804842082E+03  0.42938287543E+02  0.59184654041E+03  0.00000000000E+00 0. -1.
         22    1    1    2    0    0 -0.42456287842E+03  0.48808973374E+03  0.50124677669E+02  0.64884336263E+03  0.00000000000E+00 0.  1.
<mgrwt>
<rscale>  0 0.13004422E+04</rscale>
<asrwt>0</asrwt>
<pdfrwt beam="1">  1        3 0.10621914E+00 0.13004422E+04</pdfrwt>
<pdfrwt beam="2">  1       -3 0.94209052E-01 0.13004422E+04</pdfrwt>
<totfact> 0.19568804E+00</totfact>
</mgrwt>
</event>
<event>
 6    1  0.1614874E-005  0.2633203E+04  0.7818608E-02  0.8357009E-01
         -2   -1    0    0    0  501 -0.00000000000E+00  0.00000000000E+00  0.35797241607E+04  0.35797241607E+04  0.00000000000E+00 0. -1.
          2   -1    0    0  501    0  0.00000000000E+00 -0.00000000000E+00 -0.48423844202E+03  0.48423844202E+03  0.00000000000E+00 0.  1.
         23    2    1    2    0    0 -0.70818007348E+03 -0.74654203972E+03  0.28125554773E+04  0.29967730436E+04  0.10647219591E+03 0.  0.
         13    1    3    3    0    0 -0.33236641179E+03 -0.41813810270E+03  0.13797020958E+04  0.14794880120E+04  0.00000000000E+00 0.  1.
        -13    1    3    3    0    0 -0.37581366169E+03 -0.32840393702E+03  0.14328533815E+04  0.15172850316E+04  0.00000000000E+00 0. -1.
         22    1    1    2    0    0  0.70818007348E+03  0.74654203972E+03  0.28293024136E+03  0.10671895591E+04  0.00000000000E+00 0.  1.
<mgrwt>
<rscale>  0 0.26332034E+04</rscale>
<asrwt>0</asrwt>
<pdfrwt beam="1">  1        2 0.74498224E-01 0.26332034E+04</pdfrwt>
<pdfrwt beam="2">  1       -2 0.55072678E+00 0.26332034E+04</pdfrwt>
<totfact> 0.47226678E-02</totfact>
</mgrwt>
</event>
<event>
 6    1  0.1614874E-005  0.5464421E+03  0.7818608E-02  0.1002321E+00
          1   -1    0    0  501    0  0.00000000000E+00  0.00000000000E+00  0.25037736718E+04  0.25037736718E+04  0.00000000000E+00 0. -1.
         -1   -1    0    0    0  501 -0.00000000000E+00 -0.00000000000E+00 -0.29814888420E+02  0.29814888420E+02  0.00000000000E+00 0.  1.
         23    2    1    2    0    0 -0.16891011684E+03  0.16902165877E+03  0.18115075422E+04  0.18293580613E+04  0.88839136697E+02 0.  0.
         13    1    3    3    0    0 -0.11047736882E+03  0.81393504336E+02  0.12930230995E+04  0.13002841564E+04  0.00000000000E+00 0.  1.
        -13    1    3    3    0    0 -0.58432748028E+02  0.87628154430E+02  0.51848444272E+03  0.52907390489E+03  0.00000000000E+00 0. -1.
         22    1    1    2    0    0  0.16891011684E+03 -0.16902165877E+03  0.66245124123E+03  0.70423049900E+03  0.00000000000E+00 0.  1.
<mgrwt>
<rscale>  0 0.54644207E+03</rscale>
<asrwt>0</asrwt>
<pdfrwt beam="1">  1        1 0.38519578E+00 0.54644207E+03</pdfrwt>
<pdfrwt beam="2">  1       -1 0.45869079E-02 0.54644207E+03</pdfrwt>
<totfact> 0.30337276E+02</totfact>
</mgrwt>
</event>
<event>
 6    1  0.1614874E-005  0.6107649E+04  0.7818608E-02  0.7677196E-01
         -2   -1    0    0    0  501 -0.00000000000E+00  0.00000000000E+00  0.20360699936E+04  0.20360699936E+04  0.00000000000E+00 0.  1.
          2   -1    0    0  501    0  0.00000000000E+00 -0.00000000000E+00 -0.45803167383E+04  0.45803167383E+04  0.00000000000E+00 0. -1.
         23    2    1    2    0    0 -0.20935323816E+04 -0.16404361373E+04  0.35177942899E+03  0.26843546680E+04  0.90014796295E+02 0.  0.
         13    1    3    3    0    0 -0.95033433200E+03 -0.77821575688E+03  0.12584660115E+03  0.12347438900E+04  0.00000000000E+00 0.  1.
        -13    1    3    3    0    0 -0.11431980496E+04 -0.86222038039E+03  0.22593282784E+03  0.14496107780E+04  0.00000000000E+00 0. -1.
         22    1    1    2    0    0  0.20935323816E+04  0.16404361373E+04 -0.28960261736E+04  0.39320320639E+04  0.00000000000E+00 0. -1.
<mgrwt>
<rscale>  0 0.61076495E+04</rscale>
<asrwt>0</asrwt>
<pdfrwt beam="1">  1        2 0.70466411E+00 0.61076495E+04</pdfrwt>
<pdfrwt beam="2">  1       -2 0.31324154E+00 0.61076495E+04</pdfrwt>
<totfact> 0.17768989E-03</totfact>
</mgrwt>
</event>
<event>
 6    1  0.1614874E-005  0.2688780E+04  0.7818608E-02  0.8338655E-01
          1   -1    0    0  501    0  0.00000000000E+00  0.00000000000E+00  0.29925745497E+04  0.29925745497E+04  0.00000000000E+00 0. -1.
         -1   -1    0    0    0  501 -0.00000000000E+00 -0.00000000000E+00 -0.60395637910E+03  0.60395637910E+03  0.00000000000E+00 0.  1.
         23    2    1    2    0    0  0.92267210601E+03  0.86456882363E+03  0.59096248333E+03  0.13987208742E+04  0.91544313146E+02 0.  0.
         11    1    3    3    0    0  0.13399055086E+03  0.12880162140E+03  0.52185600512E+02  0.19304575182E+03  0.00000000000E+00 0.  1.
        -11    1    3    3    0    0  0.78868155516E+03  0.73576720223E+03  0.53877688282E+03  0.12056751224E+04  0.00000000000E+00 0. -1.
         22    1    1    2    0    0 -0.92267210601E+03 -0.86456882363E+03  0.17976556873E+04  0.21978100546E+04  0.00000000000E+00 0. -1.
<mgrwt>
<rscale>  0 0.26887800E+04</rscale>
<asrwt>0</asrwt>
<pdfrwt beam="1">  1        1 0.46039607E+00 0.26887800E+04</pdfrwt>
<pdfrwt beam="2">  1       -1 0.92916368E-01 0.26887800E+04</pdfrwt>
<totfact> 0.59501034E-01</totfact>
</mgrwt>
</event>
<event>
 6    1  0.1614874E-005  0.8974872E+03  0.7818608E-02  0.9428728E-01
          1   -1    0    0  501    0  0.00000000000E+00  0.00000000000E+00  0.11549685978E+04  0.11549685978E+04  0.00000000000E+00 0. -1.
         -1   -1    0    0    0  501 -0.00000000000E+00 -0.00000000000E+00 -0.17435176793E+03  0.17435176793E+03  0.00000000000E+00 0.  1.
         23    2    1    2    0    0  0.97044299755E+02  0.41914590311E+03  0.65853363418E+03  0.79188342135E+03  0.91169739802E+02 0.  0.
         13    1    3    3    0    0  0.62496145874E+02  0.10003142383E+03  0.19949341063E+03  0.23175347869E+03  0.00000000000E+00 0. -1.
        -13    1    3    3    0    0  0.34548153881E+02  0.31911447928E+03  0.45904022356E+03  0.56012994266E+03  0.00000000000E+00 0.  1.
         22    1    1    2    0    0 -0.97044299755E+02 -0.41914590311E+03  0.32208319564E+03  0.53743694433E+03  0.00000000000E+00 0.  1.
<mgrwt>
<rscale>  0 0.89748720E+03</rscale>
<asrwt>0</asrwt>
<pdfrwt beam="1">  1        1 0.17768747E+00 0.89748720E+03</pdfrwt>
<pdfrwt beam="2">  1       -1 0.26823350E-01 0.89748720E+03</pdfrwt>
<totfact> 0.14402076E+02</totfact>
</mgrwt>
</event>
<event>
 6    1  0.1614874E-005  0.1566667E+04  0.7818608E-02  0.8841291E-01
         -2   -1    0    0    0  501 -0.00000000000E+00  0.00000000000E+00  0.69365093097E+03  0.69365093097E+03  0.00000000000E+00 0.  1.
          2   -1    0    0  501    0  0.00000000000E+00 -0.00000000000E+00 -0.88461147399E+03  0.88461147399E+03  0.00000000000E+00 0. -1.
         23    2    1    2    0    0  0.92504988355E+02 -0.74916348052E+03 -0.29635018428E+03  0.81608783840E+03  0.91503195811E+02 0.  0.
         11    1    3    3    0    0  0.73553798447E+02 -0.30162277564E+03 -0.92545200837E+02  0.32396153205E+03  0.00000000000E+00 0.  1.
        -11    1    3    3    0    0  0.18951189909E+02 -0.44754070489E+03 -0.20380498344E+03  0.49212630635E+03  0.00000000000E+00 0. -1.
         22    1    1    2    0    0 -0.92504988355E+02  0.74916348052E+03  0.10538964126E+03  0.76217456656E+03  0.00000000000E+00 0. -1.
<mgrwt>
<rscale>  0 0.15666673E+04</rscale>
<asrwt>0</asrwt>
<pdfrwt beam="1">  1        2 0.13609407E+00 0.15666673E+04</pdfrwt>
<pdfrwt beam="2">  1       -2 0.10671553E+00 0.15666673E+04</pdfrwt>
<totfact> 0.20418022E+01</totfact>
</mgrwt>
</event>
<event>
 6    1  0.1614874E-005  0.1996032E+04  0.7818608E-02  0.8608478E-01
          1   -1    0    0  501    0  0.00000000000E+00  0.00000000000E+00  0.11425025186E+04  0.11425025186E+04  0.00000000000E+00 0. -1.
         -1   -1    0    0    0  501 -0.00000000000E+00 -0.00000000000E+00 -0.87180189566E+03  0.87180189566E+03  0.00000000000E+00 0.  1.
         23    2    1    2    0    0  0.47603750506E+03 -0.72400855344E+03  0.63122553593E+03  0.10758065162E+04  0.90077141641E+02 0.  0.
         11    1    3    3    0    0  0.24213822990E+03 -0.38877254865E+03  0.38712297170E+03  0.59969926812E+03  0.00000000000E+00 0. -1.
        -11    1    3    3    0    0  0.23389927516E+03 -0.33523600479E+03  0.24410256422E+03  0.47610724810E+03  0.00000000000E+00 0.  1.
         22    1    1    2    0    0 -0.47603750506E+03  0.72400855344E+03 -0.36052491301E+03  0.93849789802E+03  0.00000000000E+00 0.  1.
<mgrwt>
<rscale>  0 0.19960319E+04</rscale>
<asrwt>0</asrwt>
<pdfrwt beam="1">  1        1 0.17576962E+00 0.19960319E+04</pdfrwt>
<pdfrwt beam="2">  1       -1 0.13412337E+00 0.19960319E+04</pdfrwt>
<totfact> 0.51219254E+00</totfact>
</mgrwt>
</event>
<event>
 6    1  0.1614874E-005  0.8814209E+03  0.7818608E-02  0.9449109E-01
          2   -1    0    0  501    0  0.00000000000E+00  0.00000000000E+00  0.17869427834E+03  0.17869427834E+03  0.00000000000E+00 0.  1.
         -2   -1    0    0    0  501 -0.00000000000E+00 -0.00000000000E+00 -0.10869161797E+04  0.10869161797E+04  0.00000000000E+00 0. -1.
         23    2    1    2    0    0 -0.11866956347E+03  0.46146750780E+02 -0.10576880076E+04  0.10692635588E+04  0.91698684928E+02 0.  0.
         13    1    3    3    0    0 -0.68835520769E+02  0.45810144839E+02 -0.34242827618E+03  0.35226981508E+03  0.00000000000E+00 0. -1.
        -13    1    3    3    0    0 -0.49834042705E+02  0.33660594085E+00 -0.71525973146E+03  0.71699374374E+03  0.00000000000E+00 0.  1.
         22    1    1    2    0    0  0.11866956347E+03 -0.46146750780E+02  0.14946610629E+03  0.19634689922E+03  0.00000000000E+00 0.  1.
<mgrwt>
<rscale>  0 0.88142090E+03</rscale>
<asrwt>0</asrwt>
<pdfrwt beam="1">  1        2 0.27491427E-01 0.88142090E+03</pdfrwt>
<pdfrwt beam="2">  1       -2 0.16721788E+00 0.88142090E+03</pdfrwt>
<totfact> 0.44078233E+01</totfact>
</mgrwt>
</event>
<event>
 6    1  0.1614874E-005  0.3233953E+04  0.7818608E-02  0.8179907E-01
         -2   -1    0    0    0  501 -0.00000000000E+00  0.00000000000E+00  0.11141333958E+04  0.11141333958E+04  0.00000000000E+00 0.  1.
          2   -1    0    0  501    0  0.00000000000E+00 -0.00000000000E+00 -0.23467688835E+04  0.23467688835E+04  0.00000000000E+00 0. -1.
         23    2    1    2    0    0 -0.10009843496E+04  0.12654451775E+04 -0.70974142348E+03  0.17648069494E+04  0.86541984843E+02 0.  0.
         13    1    3    3    0    0 -0.69284501293E+03  0.85272278805E+03 -0.52407162539E+03  0.12173008805E+04  0.00000000000E+00 0.  1.
        -13    1    3    3    0    0 -0.30813933671E+03  0.41272238942E+03 -0.18566979809E+03  0.54750606889E+03  0.00000000000E+00 0. -1.
         22    1    1    2    0    0  0.10009843496E+04 -0.12654451775E+04 -0.52289406421E+03  0.16960953298E+04  0.00000000000E+00 0.  1.
<mgrwt>
<rscale>  0 0.32339534E+04</rscale>
<asrwt>0</asrwt>
<pdfrwt beam="1">  1        2 0.36104136E+00 0.32339534E+04</pdfrwt>
<pdfrwt beam="2">  1       -2 0.17140514E+00 0.32339534E+04</pdfrwt>
<totfact> 0.74576046E-01</totfact>
</mgrwt>
</event>
<event>
 6    1  0.1614874E-005  0.3162990E+04  0.7818608E-02  0.8198660E-01
         -1   -1    0    0    0  501 -0.00000000000E+00  0.00000000000E+00  0.25528232945E+04  0.25528232945E+04  0.00000000000E+00 0.  1.
          1   -1    0    0  501    0  0.00000000000E+00 -0.00000000000E+00 -0.97974912638E+03  0.97974912638E+03  0.00000000000E+00 0. -1.
         23    2    1    2    0    0  0.56611938189E+03 -0.14680734152E+04  0.95008456163E+03  0.18402820330E+04  0.90810680279E+02 0.  0.
         11    1    3    3    0    0  0.45754839132E+03 -0.12197055106E+04  0.82310835478E+03  0.15409540638E+04  0.00000000000E+00 0.  1.
        -11    1    3    3    0    0  0.10857099057E+03 -0.24836790465E+03  0.12697620685E+03  0.29932796922E+03  0.00000000000E+00 0. -1.
         22    1    1    2    0    0 -0.56611938189E+03  0.14680734152E+04  0.62298960645E+03  0.16922903878E+04  0.00000000000E+00 0. -1.
<mgrwt>
<rscale>  0 0.31629900E+04</rscale>
<asrwt>0</asrwt>
<pdfrwt beam="1">  1        1 0.15073064E+00 0.31629900E+04</pdfrwt>
<pdfrwt beam="2">  1       -1 0.39274204E+00 0.31629900E+04</pdfrwt>
<totfact> 0.10554899E-01</totfact>
</mgrwt>
</event>
<event>
 6    1  0.1614874E-005  0.3129839E+04  0.7818608E-02  0.8207596E-01
         -2   -1    0    0    0  501 -0.00000000000E+00  0.00000000000E+00  0.11173867218E+04  0.11173867218E+04  0.00000000000E+00 0. -1.
          2   -1    0    0  501    0  0.00000000000E+00 -0.00000000000E+00 -0.21916972489E+04  0.21916972489E+04  0.00000000000E+00 0.  1.
         23    2    1    2    0    0 -0.18372216269E+03 -0.32053764771E+03 -0.21439098928E+04  0.21774740468E+04  0.92441222000E+02 0.  0.
         11    1    3    3    0    0 -0.55761122903E+02 -0.10618640552E+03 -0.47051901403E+03  0.48556461785E+03  0.00000000000E+00 0. -1.
        -11    1    3    3    0    0 -0.12796103979E+03 -0.21435124220E+03 -0.16733908787E+04  0.16919094289E+04  0.00000000000E+00 0.  1.
         22    1    1    2    0    0  0.18372216269E+03  0.32053764771E+03  0.10695993657E+04  0.11316099238E+04  0.00000000000E+00 0. -1.
<mgrwt>
<rscale>  0 0.31298392E+04</rscale>
<asrwt>0</asrwt>
<pdfrwt beam="1">  1        2 0.33718419E+00 0.31298392E+04</pdfrwt>
<pdfrwt beam="2">  1       -2 0.17190565E+00 0.31298392E+04</pdfrwt>
<totfact> 0.91331897E-01</totfact>
</mgrwt>
</event>
<event>
 6    1  0.1614874E-005  0.8391202E+03  0.7818608E-02  0.9505057E-01
          2   -1    0    0  501    0  0.00000000000E+00  0.00000000000E+00  0.13807092449E+04  0.13807092449E+04  0.00000000000E+00 0. -1.
         -2   -1    0    0    0  501 -0.00000000000E+00 -0.00000000000E+00 -0.12749295195E+03  0.12749295195E+03  0.00000000000E+00 0.  1.
         23    2    1    2    0    0 -0.30922257472E+03 -0.13540160091E+03  0.10669177377E+04  0.11226385238E+04  0.89730719178E+02 0.  0.
         13    1    3    3    0    0 -0.90088690172E+02 -0.84254142602E+02  0.33966096325E+03  0.36136450102E+03  0.00000000000E+00 0. -1.
        -13    1    3    3    0    0 -0.21913388455E+03 -0.51147458313E+02  0.72725677441E+03  0.76127402279E+03  0.00000000000E+00 0.  1.
         22    1    1    2    0    0  0.30922257472E+03  0.13540160091E+03  0.18629855525E+03  0.38556367300E+03  0.00000000000E+00 0.  1.
<mgrwt>
<rscale>  0 0.83912025E+03</rscale>
<asrwt>0</asrwt>
<pdfrwt beam="1">  1        2 0.21241680E+00 0.83912025E+03</pdfrwt>
<pdfrwt beam="2">  1       -2 0.19614301E-01 0.83912025E+03</pdfrwt>
<totfact> 0.32977673E+02</totfact>
</mgrwt>
</event>
<event>
 6    1  0.1614874E-005  0.1857048E+04  0.7818608E-02  0.8676537E-01
          1   -1    0    0  501    0  0.00000000000E+00  0.00000000000E+00  0.16005212608E+04  0.16005212608E+04  0.00000000000E+00 0. -1.
         -1   -1    0    0    0  501 -0.00000000000E+00 -0.00000000000E+00 -0.53867253396E+03  0.53867253396E+03  0.00000000000E+00 0.  1.
         23    2    1    2    0    0  0.13970982029E+03  0.77618208525E+03 -0.27609603614E+02  0.79424141006E+03  0.89886950645E+02 0.  0.
         13    1    3    3    0    0  0.12083795457E+03  0.44433971141E+03 -0.34742209472E+02  0.46178632669E+03  0.00000000000E+00 0. -1.
        -13    1    3    3    0    0  0.18871865715E+02  0.33184237384E+03  0.71326058572E+01  0.33245508337E+03  0.00000000000E+00 0.  1.
         22    1    1    2    0    0 -0.13970982029E+03 -0.77618208525E+03  0.10894583305E+04  0.13449523847E+04  0.00000000000E+00 0. -1.
<mgrwt>
<rscale>  0 0.18570480E+04</rscale>
<asrwt>0</asrwt>
<pdfrwt beam="1">  1        1 0.24623404E+00 0.18570480E+04</pdfrwt>
<pdfrwt beam="2">  1       -1 0.82872698E-01 0.18570480E+04</pdfrwt>
<totfact> 0.75714814E+00</totfact>
</mgrwt>
</event>
<event>
 6    1  0.1614874E-005  0.4388378E+04  0.7818608E-02  0.7930475E-01
         -2   -1    0    0    0  501 -0.00000000000E+00  0.00000000000E+00  0.19225877021E+04  0.19225877021E+04  0.00000000000E+00 0.  1.
          2   -1    0    0  501    0  0.00000000000E+00 -0.00000000000E+00 -0.25041589734E+04  0.25041589734E+04  0.00000000000E+00 0. -1.
         23    2    1    2    0    0 -0.19977647221E+04 -0.43451073944E+03 -0.10918242501E+04  0.23195633495E+04  0.91817599596E+02 0.  0.
         13    1    3    3    0    0 -0.13136294611E+04 -0.28315408376E+03 -0.66797638643E+03  0.15006635363E+04  0.00000000000E+00 0. -1.
        -13    1    3    3    0    0 -0.68413526095E+03 -0.15135665568E+03 -0.42384786364E+03  0.81889981317E+03  0.00000000000E+00 0.  1.
         22    1    1    2    0    0  0.19977647221E+04  0.43451073944E+03  0.51025297874E+03  0.21071833261E+04  0.00000000000E+00 0.  1.
<mgrwt>
<rscale>  0 0.43883779E+04</rscale>
<asrwt>0</asrwt>
<pdfrwt beam="1">  1        2 0.38525523E+00 0.43883779E+04</pdfrwt>
<pdfrwt beam="2">  1       -2 0.29578272E+00 0.43883779E+04</pdfrwt>
<totfact> 0.89275371E-02</totfact>
</mgrwt>
</event>
<event>
 6    1  0.1614874E-005  0.1223251E+04  0.7818608E-02  0.9092745E-01
         -2   -1    0    0    0  501 -0.00000000000E+00  0.00000000000E+00  0.20647890907E+03  0.20647890907E+03  0.00000000000E+00 0.  1.
          2   -1    0    0  501    0  0.00000000000E+00 -0.00000000000E+00 -0.18117370909E+04  0.18117370909E+04  0.00000000000E+00 0. -1.
         23    2    1    2    0    0  0.50143257381E+03  0.11170627888E+03 -0.26930384295E+03  0.58689251648E+03  0.89472606149E+02 0.  0.
         11    1    3    3    0    0  0.11238429672E+03  0.58459770393E+02 -0.43598646759E+02  0.13397244830E+03  0.00000000000E+00 0.  1.
        -11    1    3    3    0    0  0.38904827709E+03  0.53246508490E+02 -0.22570519620E+03  0.45292006818E+03  0.00000000000E+00 0. -1.
         22    1    1    2    0    0 -0.50143257381E+03 -0.11170627888E+03 -0.13359543388E+04  0.14313234834E+04  0.00000000000E+00 0. -1.
<mgrwt>
<rscale>  0 0.12232506E+04</rscale>
<asrwt>0</asrwt>
<pdfrwt beam="1">  1        2 0.27872878E+00 0.12232506E+04</pdfrwt>
<pdfrwt beam="2">  1       -2 0.31765986E-01 0.12232506E+04</pdfrwt>
<totfact> 0.77156680E+01</totfact>
</mgrwt>
</event>
<event>
 6    1  0.1614874E-005  0.2665982E+04  0.7818608E-02  0.8346128E-01
          1   -1    0    0  501    0  0.00000000000E+00  0.00000000000E+00  0.87143142081E+03  0.87143142081E+03  0.00000000000E+00 0. -1.
         -1   -1    0    0    0  501 -0.00000000000E+00 -0.00000000000E+00 -0.20390189578E+04  0.20390189578E+04  0.00000000000E+00 0.  1.
         23    2    1    2    0    0 -0.50733121069E+03 -0.11946110407E+04 -0.90847928833E+03  0.15869634764E+04  0.92940637762E+02 0.  0.
         13    1    3    3    0    0 -0.37377302103E+03 -0.84514700951E+03 -0.69437948819E+03  0.11559163519E+04  0.00000000000E+00 0. -1.
        -13    1    3    3    0    0 -0.13355818965E+03 -0.34946403116E+03 -0.21409980014E+03  0.43104712447E+03  0.00000000000E+00 0.  1.
         22    1    1    2    0    0  0.50733121069E+03  0.11946110407E+04 -0.25910824862E+03  0.13234869022E+04  0.00000000000E+00 0.  1.
<mgrwt>
<rscale>  0 0.26659821E+04</rscale>
<asrwt>0</asrwt>
<pdfrwt beam="1">  1        1 0.13406637E+00 0.26659821E+04</pdfrwt>
<pdfrwt beam="2">  1       -1 0.31369522E+00 0.26659821E+04</pdfrwt>
<totfact> 0.45272198E-01</totfact>
</mgrwt>
</event>
<event>
 6    1  0.1742584E-005  0.3838808E+04  0.7818608E-02  0.8037878E-01
          2   -1    0    0  501    0  0.00000000000E+00  0.00000000000E+00  0.15903799551E+04  0.15903799551E+04  0.00000000000E+00 0. -1.
         -2   -1    0    0    0  501 -0.00000000000E+00 -0.00000000000E+00 -0.23164973748E+04  0.23164973748E+04  0.00000000000E+00 0.  1.
         23    2    1    2    0    0 -0.18503472647E+04 -0.10653313208E+03  0.14062733714E+03  0.18608126237E+04  0.87825191503E+02 0.  0.
         11    1    3    3    0    0 -0.41566020073E+03  0.12508623209E+02  0.35590195956E+02  0.41736857833E+03  0.00000000000E+00 0.  1.
        -11    1    3    3    0    0 -0.14346870640E+04 -0.11904175529E+03  0.10503714118E+03  0.14434440454E+04  0.00000000000E+00 0. -1.
         22    1    1    2    0    0  0.18503472647E+04  0.10653313208E+03 -0.86674475692E+03  0.20460647062E+04  0.00000000000E+00 0.  1.
<mgrwt>
<rscale>  0 0.38388076E+04</rscale>
<asrwt>0</asrwt>
<pdfrwt beam="1">  1        2 0.24467384E+00 0.38388076E+04</pdfrwt>
<pdfrwt beam="2">  1       -2 0.35638421E+00 0.38388076E+04</pdfrwt>
<totfact> 0.12789819E-01</totfact>
</mgrwt>
</event>
<event>
 6    1  0.1614874E-005  0.1132738E+04  0.7818608E-02  0.9173858E-01
          2   -1    0    0  501    0  0.00000000000E+00  0.00000000000E+00  0.23012256955E+04  0.23012256955E+04  0.00000000000E+00 0. -1.
         -2   -1    0    0    0  501 -0.00000000000E+00 -0.00000000000E+00 -0.13939264210E+03  0.13939264210E+03  0.00000000000E+00 0.  1.
         23    2    1    2    0    0 -0.33176714458E+03 -0.31472188698E+03  0.17946579927E+04  0.18541570605E+04  0.89340863107E+02 0.  0.
         11    1    3    3    0    0 -0.14295568178E+03 -0.17644110747E+03  0.75105967605E+03  0.78463904335E+03  0.00000000000E+00 0.  1.
        -11    1    3    3    0    0 -0.18881146280E+03 -0.13828077951E+03  0.10435983167E+04  0.10695180172E+04  0.00000000000E+00 0. -1.
         22    1    1    2    0    0  0.33176714458E+03  0.31472188698E+03  0.36717506072E+03  0.58646127713E+03  0.00000000000E+00 0.  1.
<mgrwt>
<rscale>  0 0.11327382E+04</rscale>
<asrwt>0</asrwt>
<pdfrwt beam="1">  1        2 0.35403469E+00 0.11327382E+04</pdfrwt>
<pdfrwt beam="2">  1       -2 0.21445024E-01 0.11327382E+04</pdfrwt>
<totfact> 0.85182857E+01</totfact>
</mgrwt>
</event>
<event>
 6    1  0.1614874E-005  0.8968964E+03  0.7818608E-02  0.9429469E-01
          1   -1    0    0  501    0  0.00000000000E+00  0.00000000000E+00  0.17724682917E+04  0.17724682917E+04  0.00000000000E+00 0. -1.
         -1   -1    0    0    0  501 -0.00000000000E+00 -0.00000000000E+00 -0.11346086583E+03  0.11346086583E+03  0.00000000000E+00 0.  1.
         23    2    1    2    0    0  0.17188728934E+03  0.98477308110E+02  0.16731218927E+04  0.16873284561E+04  0.92181508345E+02 0.  0.
         13    1    3    3    0    0  0.43651249169E+02  0.32031300478E+02  0.84293546612E+03  0.84467250211E+03  0.00000000000E+00 0. -1.
        -13    1    3    3    0    0  0.12823604017E+03  0.66446007632E+02  0.83018642657E+03  0.84265595399E+03  0.00000000000E+00 0.  1.
         22    1    1    2    0    0 -0.17188728934E+03 -0.98477308110E+02 -0.14114466801E+02  0.19860070147E+03  0.00000000000E+00 0.  1.
<mgrwt>
<rscale>  0 0.89689640E+03</rscale>
<asrwt>0</asrwt>
<pdfrwt beam="1">  1        1 0.27268741E+00 0.89689640E+03</pdfrwt>
<pdfrwt beam="2">  1       -1 0.17455519E-01 0.89689640E+03</pdfrwt>
<totfact> 0.11047996E+02</totfact>
</mgrwt>
</event>
<event>
 6    1  0.1614874E-005  0.4094660E+04  0.7818608E-02  0.7985718E-01
          2   -1    0    0  501    0  0.00000000000E+00  0.00000000000E+00  0.19545177171E+04  0.19545177171E+04  0.00000000000E+00 0. -1.
         -2   -1    0    0    0  501 -0.00000000000E+00 -0.00000000000E+00 -0.21445493273E+04  0.21445493273E+04  0.00000000000E+00 0.  1.
         23    2    1    2    0    0 -0.83885280211E+03 -0.15613492207E+04 -0.11188768343E+04  0.20980076093E+04  0.90912849024E+02 0.  0.
         11    1    3    3    0    0 -0.29370498294E+03 -0.46393193708E+03 -0.36431242139E+03  0.65895295707E+03  0.00000000000E+00 0. -1.
        -11    1    3    3    0    0 -0.54514781917E+03 -0.10974172836E+04 -0.75456441287E+03  0.14390546523E+04  0.00000000000E+00 0.  1.
         22    1    1    2    0    0  0.83885280211E+03  0.15613492207E+04  0.92884522399E+03  0.20010594351E+04  0.00000000000E+00 0. -1.
<mgrwt>
<rscale>  0 0.40946598E+04</rscale>
<asrwt>0</asrwt>
<pdfrwt beam="1">  1        2 0.30069503E+00 0.40946598E+04</pdfrwt>
<pdfrwt beam="2">  1       -2 0.32993067E+00 0.40946598E+04</pdfrwt>
<totfact> 0.11519717E-01</totfact>
</mgrwt>
</event>
<event>
 6    1  0.1614874E-005  0.6911456E+03  0.7818608E-02  0.9732495E-01
         -2   -1    0    0    0  501 -0.00000000000E+00  0.00000000000E+00  0.10985152947E+03  0.10985152947E+03  0.00000000000E+00 0.  1.
          2   -1    0    0  501    0  0.00000000000E+00 -0.00000000000E+00 -0.10871086419E+04  0.10871086419E+04  0.00000000000E+00 0. -1.
         23    2    1    2    0    0  0.96381857624E+02  0.18300866462E+03 -0.30781368560E+02  0.22814751272E+03  0.91225879577E+02 0.  0.
         13    1    3    3    0    0  0.78854663803E+01  0.29411179887E+02  0.28021729152E+02  0.41381341049E+02  0.00000000000E+00 0. -1.
        -13    1    3    3    0    0  0.88496391244E+02  0.15359748474E+03 -0.58803097712E+02  0.18676617167E+03  0.00000000000E+00 0.  1.
         22    1    1    2    0    0 -0.96381857624E+02 -0.18300866462E+03 -0.94647574384E+03  0.96881265861E+03  0.00000000000E+00 0. -1.
<mgrwt>
<rscale>  0 0.69114556E+03</rscale>
<asrwt>0</asrwt>
<pdfrwt beam="1">  1        2 0.16724748E+00 0.69114556E+03</pdfrwt>
<pdfrwt beam="2">  1       -2 0.16900235E-01 0.69114556E+03</pdfrwt>
<totfact> 0.63951821E+02</totfact>
</mgrwt>
</event>
<event>
 6    1  0.1614874E-005  0.1293120E+04  0.7818608E-02  0.9035039E-01
          1   -1    0    0  501    0  0.00000000000E+00  0.00000000000E+00  0.11006104179E+04  0.11006104179E+04  0.00000000000E+00 0. -1.
         -1   -1    0    0    0  501 -0.00000000000E+00 -0.00000000000E+00 -0.37982525370E+03  0.37982525370E+03  0.00000000000E+00 0.  1.
         23    2    1    2    0    0  0.29087491150E+03  0.44635697346E+03 -0.50306551967E+02  0.54319226851E+03  0.93189749982E+02 0.  0.
         13    1    3    3    0    0  0.11570879846E+02  0.42337780528E+02  0.17733769549E+02  0.47337717550E+02  0.00000000000E+00 0. -1.
        -13    1    3    3    0    0  0.27930403166E+03  0.40401919294E+03 -0.68040321516E+02  0.49585455097E+03  0.00000000000E+00 0.  1.
         22    1    1    2    0    0 -0.29087491150E+03 -0.44635697346E+03  0.77109171621E+03  0.93724340313E+03  0.00000000000E+00 0. -1.
<mgrwt>
<rscale>  0 0.12931197E+04</rscale>
<asrwt>0</asrwt>
<pdfrwt beam="1">  1        1 0.16932468E+00 0.12931197E+04</pdfrwt>
<pdfrwt beam="2">  1       -1 0.58434655E-01 0.12931197E+04</pdfrwt>
<totfact> 0.36945951E+01</totfact>
</mgrwt>
</event>
<event>
 6    1  0.1614874E-005  0.1020777E+04  0.7818608E-02  0.9286046E-01
         -2   -1    0    0    0  501 -0.00000000000E+00  0.00000000000E+00  0.23333465011E+03  0.23333465011E+03  0.00000000000E+00 0.  1.
          2   -1    0    0  501    0  0.00000000000E+00 -0.00000000000E+00 -0.11164075687E+04  0.11164075687E+04  0.00000000000E+00 0. -1.
         23    2    1    2    0    0 -0.30783309809E+03  0.15655862134E+03  0.44398888763E+02  0.36005753587E+03  0.91642509894E+02 0.  0.
         11    1    3    3    0    0 -0.31401183878E+02  0.18794761956E+01  0.29210906808E+02  0.42928357251E+02  0.00000000000E+00 0.  1.
        -11    1    3    3    0    0 -0.27643191421E+03  0.15467914515E+03  0.15187981955E+02  0.31712917862E+03  0.00000000000E+00 0. -1.
         22    1    1    2    0    0  0.30783309809E+03 -0.15655862134E+03 -0.92747180740E+03  0.98968468298E+03  0.00000000000E+00 0. -1.
<mgrwt>
<rscale>  0 0.10207773E+04</rscale>
<asrwt>0</asrwt>
<pdfrwt beam="1">  1        2 0.17175501E+00 0.10207773E+04</pdfrwt>
<pdfrwt beam="2">  1       -2 0.35897639E-01 0.10207773E+04</pdfrwt>
<totfact> 0.15472052E+02</totfact>
</mgrwt>
</event>
<event>
 6    1  0.1614874E-005  0.1016758E+04  0.7818608E-02  0.9290353E-01
         -1   -1    0    0    0  501 -0.00000000000E+00  0.00000000000E+00  0.33754885110E+03  0.33754885110E+03  0.00000000000E+00 0.  1.
          1   -1    0    0  501    0  0.00000000000E+00 -0.00000000000E+00 -0.76566512152E+03  0.76566512152E+03  0.00000000000E+00 0. -1.
         23    2    1    2    0    0  0.11829378557E+03  0.47726368216E+03 -0.33871917458E+03  0.60344814469E+03  0.87435359513E+02 0.  0.
         13    1    3    3    0    0  0.73163349065E+02  0.25808262005E+03 -0.13272126256E+03  0.29928990619E+03  0.00000000000E+00 0. -1.
        -13    1    3    3    0    0  0.45130436502E+02  0.21918106212E+03 -0.20599791202E+03  0.30415823850E+03  0.00000000000E+00 0.  1.
         22    1    1    2    0    0 -0.11829378557E+03 -0.47726368216E+03 -0.89397095843E+02  0.49976582793E+03  0.00000000000E+00 0.  1.
<mgrwt>
<rscale>  0 0.10167583E+04</rscale>
<asrwt>0</asrwt>
<pdfrwt beam="1">  1        1 0.11779463E+00 0.10167583E+04</pdfrwt>
<pdfrwt beam="2">  1       -1 0.51930593E-01 0.10167583E+04</pdfrwt>
<totfact> 0.88637414E+01</totfact>
</mgrwt>
</event>
<event>
 6    1  0.1614874E-005  0.2134273E+03  0.7818608E-02  0.1138880E+00
         -2   -1    0    0    0  501 -0.00000000000E+00  0.00000000000E+00  0.11734633440E+03  0.11734633440E+03  0.00000000000E+00 0. -1.
          2   -1    0    0  501    0  0.00000000000E+00 -0.00000000000E+00 -0.97044399646E+02  0.97044399646E+02  0.00000000000E+00 0.  1.
         23    2    1    2    0    0  0.29231627120E+02 -0.84917325449E+02  0.26748221157E+02  0.12435188247E+03  0.81746456513E+02 0.  0.
         11    1    3    3    0    0 -0.85996342564E+01 -0.45967388806E+02 -0.21725013193E+02  0.51564820772E+02  0.00000000000E+00 0. -1.
        -11    1    3    3    0    0  0.37831261376E+02 -0.38949936643E+02  0.48473234350E+02  0.72787061694E+02  0.00000000000E+00 0.  1.
         22    1    1    2    0    0 -0.29231627120E+02  0.84917325449E+02 -0.64462864010E+01  0.90038851580E+02  0.00000000000E+00 0. -1.
<mgrwt>
<rscale>  0 0.21342731E+03</rscale>
<asrwt>0</asrwt>
<pdfrwt beam="1">  1        2 0.14929908E-01 0.21342731E+03</pdfrwt>
<pdfrwt beam="2">  1       -2 0.18053282E-01 0.21342731E+03</pdfrwt>
<totfact> 0.95579657E+03</totfact>
</mgrwt>
</event>
<event>
 6    1  0.1614874E-005  0.2718792E+04  0.7818608E-02  0.8328933E-01
         -2   -1    0    0    0  501 -0.00000000000E+00  0.00000000000E+00  0.12280804140E+04  0.12280804140E+04  0.00000000000E+00 0.  1.
          2   -1    0    0  501    0  0.00000000000E+00 -0.00000000000E+00 -0.15047531217E+04  0.15047531217E+04  0.00000000000E+00 0. -1.
         23    2    1    2    0    0 -0.56615448095E+03 -0.47735008394E+03  0.10054899591E+04  0.12521799290E+04  0.92469009957E+02 0.  0.
         13    1    3    3    0    0 -0.13254127884E+03 -0.11848856813E+03  0.31118776551E+03  0.35839162487E+03  0.00000000000E+00 0. -1.
        -13    1    3    3    0    0 -0.43361320211E+03 -0.35886151581E+03  0.69430219355E+03  0.89378830409E+03  0.00000000000E+00 0.  1.
         22    1    1    2    0    0  0.56615448095E+03  0.47735008394E+03 -0.12821626668E+04  0.14806536067E+04  0.00000000000E+00 0. -1.
<mgrwt>
<rscale>  0 0.27187923E+04</rscale>
<asrwt>0</asrwt>
<pdfrwt beam="1">  1        2 0.23150048E+00 0.27187923E+04</pdfrwt>
<pdfrwt beam="2">  1       -2 0.18893545E+00 0.27187923E+04</pdfrwt>
<totfact> 0.17415513E+00</totfact>
</mgrwt>
</event>
<event>
 6    1  0.1614874E-005  0.1747809E+04  0.7818608E-02  0.8734557E-01
          2   -1    0    0  501    0  0.00000000000E+00  0.00000000000E+00  0.40232306799E+03  0.40232306799E+03  0.00000000000E+00 0. -1.
         -2   -1    0    0    0  501 -0.00000000000E+00 -0.00000000000E+00 -0.18982483350E+04  0.18982483350E+04  0.00000000000E+00 0.  1.
         23    2    1    2    0    0 -0.64417582128E+03 -0.55424095816E+03 -0.10075612193E+04  0.13204464255E+04  0.79079855453E+02 0.  0.
         11    1    3    3    0    0 -0.31802704124E+03 -0.30748562463E+03 -0.56991421046E+03  0.72145049421E+03  0.00000000000E+00 0. -1.
        -11    1    3    3    0    0 -0.32614878004E+03 -0.24675533353E+03 -0.43764700887E+03  0.59899593131E+03  0.00000000000E+00 0.  1.
         22    1    1    2    0    0  0.64417582128E+03  0.55424095816E+03 -0.48836404770E+03  0.98012497749E+03  0.00000000000E+00 0. -1.
<mgrwt>
<rscale>  0 0.17478090E+04</rscale>
<asrwt>0</asrwt>
<pdfrwt beam="1">  1        2 0.61895859E-01 0.17478090E+04</pdfrwt>
<pdfrwt beam="2">  1       -2 0.29203820E+00 0.17478090E+04</pdfrwt>
<totfact> 0.26670915E+00</totfact>
</mgrwt>
</event>
<event>
 6    1  0.1614874E-005  0.2449625E+04  0.7818608E-02  0.8421155E-01
         -1   -1    0    0    0  501 -0.00000000000E+00  0.00000000000E+00  0.90969437105E+03  0.90969437105E+03  0.00000000000E+00 0.  1.
          1   -1    0    0  501    0  0.00000000000E+00 -0.00000000000E+00 -0.16490881557E+04  0.16490881557E+04  0.00000000000E+00 0. -1.
         23    2    1    2    0    0 -0.59105444316E+03 -0.94284817808E+03 -0.90028618727E+03  0.14344185257E+04  0.93451839318E+02 0.  0.
         13    1    3    3    0    0 -0.38238484022E+03 -0.66103164510E+03 -0.65979966668E+03  0.10092158352E+04  0.00000000000E+00 0. -1.
        -13    1    3    3    0    0 -0.20866960294E+03 -0.28181653297E+03 -0.24048652059E+03  0.42520269053E+03  0.00000000000E+00 0.  1.
         22    1    1    2    0    0  0.59105444316E+03  0.94284817808E+03  0.16089240259E+03  0.11243640011E+04  0.00000000000E+00 0. -1.
<mgrwt>
<rscale>  0 0.24496255E+04</rscale>
<asrwt>0</asrwt>
<pdfrwt beam="1">  1        1 0.25370587E+00 0.24496255E+04</pdfrwt>
<pdfrwt beam="2">  1       -1 0.13995298E+00 0.24496255E+04</pdfrwt>
<totfact> 0.19329804E+00</totfact>
</mgrwt>
</event>
<event>
 6    1  0.1614874E-005  0.6753164E+03  0.7818608E-02  0.9760401E-01
          1   -1    0    0  501    0  0.00000000000E+00  0.00000000000E+00  0.14786281072E+03  0.14786281072E+03  0.00000000000E+00 0. -1.
         -1   -1    0    0    0  501 -0.00000000000E+00 -0.00000000000E+00 -0.77107325719E+03  0.77107325719E+03  0.00000000000E+00 0.  1.
         23    2    1    2    0    0 -0.27673245518E+03 -0.91295219668E+02 -0.53232152389E+03  0.61368786540E+03  0.91273887034E+02 0.  0.
         13    1    3    3    0    0 -0.31326776802E+02 -0.70835359457E+01 -0.16085751517E+02  0.35920674105E+02  0.00000000000E+00 0. -1.
        -13    1    3    3    0    0 -0.24540567838E+03 -0.84211683722E+02 -0.51623577237E+03  0.57776719129E+03  0.00000000000E+00 0.  1.
         22    1    1    2    0    0  0.27673245518E+03  0.91295219668E+02 -0.90888922582E+02  0.30524820251E+03  0.00000000000E+00 0. -1.
<mgrwt>
<rscale>  0 0.67531640E+03</rscale>
<asrwt>0</asrwt>
<pdfrwt beam="1">  1        1 0.22748124E-01 0.67531640E+03</pdfrwt>
<pdfrwt beam="2">  1       -1 0.11862666E+00 0.67531640E+03</pdfrwt>
<totfact> 0.14333204E+02</totfact>
</mgrwt>
</event>
<event>
 6    1  0.1614874E-005  0.6965702E+03  0.7818608E-02  0.9723116E-01
         -1   -1    0    0    0  501 -0.00000000000E+00  0.00000000000E+00  0.27203677027E+03  0.27203677027E+03  0.00000000000E+00 0.  1.
          1   -1    0    0  501    0  0.00000000000E+00 -0.00000000000E+00 -0.44590489603E+03  0.44590489603E+03  0.00000000000E+00 0. -1.
         23    2    1    2    0    0  0.15543181207E+03 -0.45626143564E+01 -0.40217788688E+03  0.44170768455E+03  0.95805846621E+02 0.  0.
         13    1    3    3    0    0  0.26668451251E+01  0.14206567817E+02 -0.11481869748E+03  0.11572498401E+03  0.00000000000E+00 0. -1.
        -13    1    3    3    0    0  0.15276496694E+03 -0.18769182173E+02 -0.28735918940E+03  0.32598270055E+03  0.00000000000E+00 0.  1.
         22    1    1    2    0    0 -0.15543181207E+03  0.45626143564E+01  0.22830976112E+03  0.27623398175E+03  0.00000000000E+00 0.  1.
<mgrwt>
<rscale>  0 0.69657025E+03</rscale>
<asrwt>0</asrwt>
<pdfrwt beam="1">  1        1 0.68600752E-01 0.69657025E+03</pdfrwt>
<pdfrwt beam="2">  1       -1 0.41851811E-01 0.69657025E+03</pdfrwt>
<totfact> 0.29428549E+02</totfact>
</mgrwt>
</event>
<event>
 6    1  0.1614874E-005  0.4707753E+04  0.7818608E-02  0.7875242E-01
          2   -1    0    0  501    0  0.00000000000E+00  0.00000000000E+00  0.32916317343E+04  0.32916317343E+04  0.00000000000E+00 0. -1.
         -2   -1    0    0    0  501 -0.00000000000E+00 -0.00000000000E+00 -0.16832787225E+04  0.16832787225E+04  0.00000000000E+00 0.  1.
         23    2    1    2    0    0  0.60627390051E+03 -0.92913945919E+03 -0.13882603496E+04  0.17795137967E+04  0.92381694582E+02 0.  0.
         11    1    3    3    0    0  0.48586911585E+03 -0.67497231509E+03 -0.10574437249E+04  0.13453042984E+04  0.00000000000E+00 0.  1.
        -11    1    3    3    0    0  0.12040478466E+03 -0.25416714409E+03 -0.33081662466E+03  0.43420949835E+03  0.00000000000E+00 0. -1.
         22    1    1    2    0    0 -0.60627390051E+03  0.92913945919E+03  0.29966133614E+04  0.31953966600E+04  0.00000000000E+00 0. -1.
<mgrwt>
<rscale>  0 0.47077526E+04</rscale>
<asrwt>0</asrwt>
<pdfrwt beam="1">  1        2 0.50640488E+00 0.47077526E+04</pdfrwt>
<pdfrwt beam="2">  1       -2 0.25896596E+00 0.47077526E+04</pdfrwt>
<totfact> 0.47533881E-02</totfact>
</mgrwt>
</event>
<event>
 6    1  0.1614874E-005  0.1673046E+04  0.7818608E-02  0.8776889E-01
         -2   -1    0    0    0  501 -0.00000000000E+00  0.00000000000E+00  0.25379663286E+03  0.25379663286E+03  0.00000000000E+00 0.  1.
          2   -1    0    0  501    0  0.00000000000E+00 -0.00000000000E+00 -0.27572089620E+04  0.27572089620E+04  0.00000000000E+00 0. -1.
         23    2    1    2    0    0 -0.16977659196E+03 -0.25445743879E+03 -0.26517198143E+04  0.26710529666E+04  0.96608994508E+02 0.  0.
         13    1    3    3    0    0 -0.46176975315E+02 -0.28323613726E+02 -0.74959355953E+03  0.75154843133E+03  0.00000000000E+00 0. -1.
        -13    1    3    3    0    0 -0.12359961664E+03 -0.22613382506E+03 -0.19021262547E+04  0.19195045353E+04  0.00000000000E+00 0.  1.
         22    1    1    2    0    0  0.16977659196E+03  0.25445743879E+03  0.14830748509E+03  0.33995262827E+03  0.00000000000E+00 0.  1.
<mgrwt>
<rscale>  0 0.16730455E+04</rscale>
<asrwt>0</asrwt>
<pdfrwt beam="1">  1        2 0.42418598E+00 0.16730455E+04</pdfrwt>
<pdfrwt beam="2">  1       -2 0.39045637E-01 0.16730455E+04</pdfrwt>
<totfact> 0.14557093E+01</totfact>
</mgrwt>
</event>
<event>
 6    1  0.1614874E-005  0.1519147E+04  0.7818608E-02  0.8871819E-01
         -2   -1    0    0    0  501 -0.00000000000E+00  0.00000000000E+00  0.36264484624E+03  0.36264484624E+03  0.00000000000E+00 0.  1.
          2   -1    0    0  501    0  0.00000000000E+00 -0.00000000000E+00 -0.15909556884E+04  0.15909556884E+04  0.00000000000E+00 0. -1.
         23    2    1    2    0    0 -0.58679255057E+03 -0.47192842298E+03 -0.51800495249E+03  0.91843079458E+03  0.90244444793E+02 0.  0.
         13    1    3    3    0    0 -0.13512102591E+03 -0.10135195532E+03 -0.16334147205E+03  0.23496882129E+03  0.00000000000E+00 0. -1.
        -13    1    3    3    0    0 -0.45167152466E+03 -0.37057646766E+03 -0.35466348044E+03  0.68346197329E+03  0.00000000000E+00 0.  1.
         22    1    1    2    0    0  0.58679255057E+03  0.47192842298E+03 -0.71030588969E+03  0.10351697401E+04  0.00000000000E+00 0. -1.
<mgrwt>
<rscale>  0 0.15191470E+04</rscale>
<asrwt>0</asrwt>
<pdfrwt beam="1">  1        2 0.24476241E+00 0.15191470E+04</pdfrwt>
<pdfrwt beam="2">  1       -2 0.55791515E-01 0.15191470E+04</pdfrwt>
<totfact> 0.32844928E+01</totfact>
</mgrwt>
</event>
<event>
 6    1  0.1614874E-005  0.1448240E+04  0.7818608E-02  0.8919622E-01
         -2   -1    0    0    0  501 -0.00000000000E+00  0.00000000000E+00  0.26659999866E+03  0.26659999866E+03  0.00000000000E+00 0.  1.
          2   -1    0    0  501    0  0.00000000000E+00 -0.00000000000E+00 -0.19668034055E+04  0.19668034055E+04  0.00000000000E+00 0. -1.
         23    2    1    2    0    0  0.62425975928E+03 -0.29080946643E+03 -0.11793661396E+04  0.13699557498E+04  0.10772127203E+03 0.  0.
         11    1    3    3    0    0  0.49047051997E+03 -0.27180169488E+03 -0.91776463200E+03  0.10755135574E+04  0.00000000000E+00 0.  1.
        -11    1    3    3    0    0  0.13378923931E+03 -0.19007771546E+02 -0.26160150759E+03  0.29444219248E+03  0.00000000000E+00 0. -1.
         22    1    1    2    0    0 -0.62425975928E+03  0.29080946643E+03 -0.52083726725E+03  0.86344765434E+03  0.00000000000E+00 0.  1.
<mgrwt>
<rscale>  0 0.14482400E+04</rscale>
<asrwt>0</asrwt>
<pdfrwt beam="1">  1        2 0.30258514E+00 0.14482400E+04</pdfrwt>
<pdfrwt beam="2">  1       -2 0.41015384E-01 0.14482400E+04</pdfrwt>
<totfact> 0.38082854E+01</totfact>
</mgrwt>
</event>
<event>
 6    1  0.1614874E-005  0.2082748E+04  0.7818608E-02  0.8568881E-01
          2   -1    0    0  501    0  0.00000000000E+00  0.00000000000E+00  0.15063734807E+04  0.15063734807E+04  0.00000000000E+00 0. -1.
         -2   -1    0    0    0  501 -0.00000000000E+00 -0.00000000000E+00 -0.71991409771E+03  0.71991409771E+03  0.00000000000E+00 0.  1.
         23    2    1    2    0    0  0.25933573631E+03 -0.10051194571E+04  0.45196982758E+03  0.11356898478E+04  0.89412293171E+02 0.  0.
         13    1    3    3    0    0  0.87129205014E+02 -0.21738650117E+03  0.12616883275E+03  0.26602060750E+03  0.00000000000E+00 0. -1.
        -13    1    3    3    0    0  0.17220653129E+03 -0.78773295596E+03  0.32580099483E+03  0.86966924031E+03  0.00000000000E+00 0.  1.
         22    1    1    2    0    0 -0.25933573631E+03  0.10051194571E+04  0.33448955538E+03  0.10905977306E+04  0.00000000000E+00 0.  1.
<mgrwt>
<rscale>  0 0.20827477E+04</rscale>
<asrwt>0</asrwt>
<pdfrwt beam="1">  1        2 0.23174977E+00 0.20827477E+04</pdfrwt>
<pdfrwt beam="2">  1       -2 0.11075602E+00 0.20827477E+04</pdfrwt>
<totfact> 0.75083602E+00</totfact>
</mgrwt>
</event>
<event>
 6    1  0.1614874E-005  0.2374238E+04  0.7818608E-02  0.8449212E-01
          2   -1    0    0  501    0  0.00000000000E+00  0.00000000000E+00  0.17282469994E+04  0.17282469994E+04  0.00000000000E+00 0. -1.
         -2   -1    0    0    0  501 -0.00000000000E+00 -0.00000000000E+00 -0.81542219797E+03  0.81542219797E+03  0.00000000000E+00 0.  1.
         23    2    1    2    0    0 -0.43030185475E+03  0.91759644481E+03  0.11159670263E+04  0.15100301476E+04  0.87554104382E+02 0.  0.
         13    1    3    3    0    0 -0.29068701794E+03  0.68740758249E+03  0.78080823102E+03  0.10801340752E+04  0.00000000000E+00 0. -1.
        -13    1    3    3    0    0 -0.13961483681E+03  0.23018886232E+03  0.33515879525E+03  0.42989607236E+03  0.00000000000E+00 0.  1.
         22    1    1    2    0    0  0.43030185475E+03 -0.91759644481E+03 -0.20314222483E+03  0.10336390498E+04  0.00000000000E+00 0.  1.
<mgrwt>
<rscale>  0 0.23742375E+04</rscale>
<asrwt>0</asrwt>
<pdfrwt beam="1">  1        2 0.26588415E+00 0.23742375E+04</pdfrwt>
<pdfrwt beam="2">  1       -2 0.12544957E+00 0.23742375E+04</pdfrwt>
<totfact> 0.40504867E+00</totfact>
</mgrwt>
</event>
<event>
 6    1  0.1614874E-005  0.1489845E+04  0.7818608E-02  0.8891234E-01
         -1   -1    0    0    0  501 -0.00000000000E+00  0.00000000000E+00  0.99488050911E+03  0.99488050911E+03  0.00000000000E+00 0.  1.
          1   -1    0    0  501    0  0.00000000000E+00 -0.00000000000E+00 -0.55776465326E+03  0.55776465326E+03  0.00000000000E+00 0. -1.
         23    2    1    2    0    0 -0.55754272821E+03  0.21788860366E+03  0.67661016318E+03  0.90790733920E+03  0.90360866994E+02 0.  0.
         11    1    3    3    0    0 -0.45762019335E+03  0.13977775519E+03  0.54027743071E+03  0.72170199137E+03  0.00000000000E+00 0.  1.
        -11    1    3    3    0    0 -0.99922534856E+02  0.78110848473E+02  0.13633273246E+03  0.18620534784E+03  0.00000000000E+00 0. -1.
         22    1    1    2    0    0  0.55754272821E+03 -0.21788860366E+03 -0.23949430733E+03  0.64473782317E+03  0.00000000000E+00 0. -1.
<mgrwt>
<rscale>  0 0.14898445E+04</rscale>
<asrwt>0</asrwt>
<pdfrwt beam="1">  1        1 0.85809947E-01 0.14898445E+04</pdfrwt>
<pdfrwt beam="2">  1       -1 0.15305854E+00 0.14898445E+04</pdfrwt>
<totfact> 0.12161322E+01</totfact>
</mgrwt>
</event>
<event>
 6    1  0.1614874E-005  0.2706851E+04  0.7818608E-02  0.8332786E-01
         -1   -1    0    0    0  501 -0.00000000000E+00  0.00000000000E+00  0.53408852647E+03  0.53408852647E+03  0.00000000000E+00 0.  1.
          1   -1    0    0  501    0  0.00000000000E+00 -0.00000000000E+00 -0.34296944213E+04  0.34296944213E+04  0.00000000000E+00 0. -1.
         23    2    1    2    0    0 -0.26520117291E+03  0.10159712291E+04 -0.26965247230E+04  0.28950629127E+04  0.87261023265E+02 0.  0.
         11    1    3    3    0    0 -0.13854584463E+03  0.58188393331E+03 -0.14211550633E+04  0.15419032320E+04  0.00000000000E+00 0.  1.
        -11    1    3    3    0    0 -0.12665532828E+03  0.43408729578E+03 -0.12753696597E+04  0.13531596807E+04  0.00000000000E+00 0. -1.
         22    1    1    2    0    0  0.26520117291E+03 -0.10159712291E+04 -0.19908117185E+03  0.10687200351E+04  0.00000000000E+00 0.  1.
<mgrwt>
<rscale>  0 0.27068509E+04</rscale>
<asrwt>0</asrwt>
<pdfrwt beam="1">  1        1 0.52764527E+00 0.27068509E+04</pdfrwt>
<pdfrwt beam="2">  1       -1 0.82167470E-01 0.27068509E+04</pdfrwt>
<totfact> 0.36466892E-01</totfact>
</mgrwt>
</event>
<event>
 6    1  0.1614874E-005  0.1553017E+04  0.7818608E-02  0.8849943E-01
         -2   -1    0    0    0  501 -0.00000000000E+00  0.00000000000E+00  0.25322757785E+03  0.25322757785E+03  0.00000000000E+00 0. -1.
          2   -1    0    0  501    0  0.00000000000E+00 -0.00000000000E+00 -0.23811211884E+04  0.23811211884E+04  0.00000000000E+00 0.  1.
         23    2    1    2    0    0 -0.37616078716E+03 -0.44258496885E+03 -0.20067027064E+03  0.62149800319E+03  0.92805269286E+02 0.  0.
         11    1    3    3    0    0 -0.14867319316E+03 -0.15855101647E+03 -0.12177160033E+03  0.24913945058E+03  0.00000000000E+00 0.  1.
        -11    1    3    3    0    0 -0.22748759400E+03 -0.28403395238E+03 -0.78898670308E+02  0.37235855261E+03  0.00000000000E+00 0. -1.
         22    1    1    2    0    0  0.37616078716E+03  0.44258496885E+03 -0.19272233399E+04  0.20128507631E+04  0.00000000000E+00 0.  1.
<mgrwt>
<rscale>  0 0.15530171E+04</rscale>
<asrwt>0</asrwt>
<pdfrwt beam="1">  1        2 0.36632633E+00 0.15530171E+04</pdfrwt>
<pdfrwt beam="2">  1       -2 0.38958090E-01 0.15530171E+04</pdfrwt>
<totfact> 0.24468986E+01</totfact>
</mgrwt>
</event>
<event>
 6    1  0.1614874E-005  0.6808058E+03  0.7818608E-02  0.9750632E-01
          2   -1    0    0  501    0  0.00000000000E+00  0.00000000000E+00  0.21052059300E+04  0.21052059300E+04  0.00000000000E+00 0.  1.
         -2   -1    0    0    0  501 -0.00000000000E+00 -0.00000000000E+00 -0.55041711750E+02  0.55041711750E+02  0.00000000000E+00 0. -1.
         23    2    1    2    0    0 -0.27997038966E+03 -0.12168276984E+03  0.61125346192E+03  0.68931111007E+03  0.91262786424E+02 0.  0.
         11    1    3    3    0    0 -0.37659573277E+02  0.88974093745E+00  0.14434612331E+03  0.14918055642E+03  0.00000000000E+00 0.  1.
        -11    1    3    3    0    0 -0.24231081639E+03 -0.12257251078E+03  0.46690733861E+03  0.54013055365E+03  0.00000000000E+00 0. -1.
         22    1    1    2    0    0  0.27997038966E+03  0.12168276984E+03  0.14389107563E+04  0.14709365317E+04  0.00000000000E+00 0. -1.
<mgrwt>
<rscale>  0 0.68080581E+03</rscale>
<asrwt>0</asrwt>
<pdfrwt beam="1">  1        2 0.32387777E+00 0.68080581E+03</pdfrwt>
<pdfrwt beam="2">  1       -2 0.84679573E-02 0.68080581E+03</pdfrwt>
<totfact> 0.54080075E+02</totfact>
</mgrwt>
</event>
<event>
 6    1  0.1614874E-005  0.2500857E+04  0.7818608E-02  0.8402680E-01
          1   -1    0    0  501    0  0.00000000000E+00  0.00000000000E+00  0.77906268893E+03  0.77906268893E+03  0.00000000000E+00 0.  1.
         -1   -1    0    0    0  501 -0.00000000000E+00 -0.00000000000E+00 -0.20069907126E+04  0.20069907126E+04  0.00000000000E+00 0. -1.
         23    2    1    2    0    0  0.10773192183E+04  0.45817077914E+03 -0.13058665616E+03  0.11814677112E+04  0.90972066336E+02 0.  0.
         11    1    3    3    0    0  0.74168937118E+03  0.27059779672E+03 -0.98797759638E+02  0.79566782530E+03  0.00000000000E+00 0. -1.
        -11    1    3    3    0    0  0.33562984708E+03  0.18757298242E+03 -0.31788896521E+02  0.38579988585E+03  0.00000000000E+00 0.  1.
         22    1    1    2    0    0 -0.10773192183E+04 -0.45817077914E+03 -0.10973413675E+04  0.16045856903E+04  0.00000000000E+00 0. -1.
<mgrwt>
<rscale>  0 0.25008571E+04</rscale>
<asrwt>0</asrwt>
<pdfrwt beam="1">  1        1 0.11985580E+00 0.25008571E+04</pdfrwt>
<pdfrwt beam="2">  1       -1 0.30876780E+00 0.25008571E+04</pdfrwt>
<totfact> 0.59365392E-01</totfact>
</mgrwt>
</event>
<event>
 6    1  0.1614874E-005  0.2103521E+04  0.7818608E-02  0.8559694E-01
         -2   -1    0    0    0  501 -0.00000000000E+00  0.00000000000E+00  0.89297204068E+03  0.89297204068E+03  0.00000000000E+00 0.  1.
          2   -1    0    0  501    0  0.00000000000E+00 -0.00000000000E+00 -0.12387851402E+04  0.12387851402E+04  0.00000000000E+00 0. -1.
         23    2    1    2    0    0 -0.48304315886E+02 -0.41081039109E+03 -0.11510202506E+04  0.12265185159E+04  0.91660068251E+02 0.  0.
         11    1    3    3    0    0  0.10996155629E+00 -0.22340433813E+03 -0.50695638279E+03  0.55399845166E+03  0.00000000000E+00 0. -1.
        -11    1    3    3    0    0 -0.48414277442E+02 -0.18740605296E+03 -0.64406386782E+03  0.67252006422E+03  0.00000000000E+00 0.  1.
         22    1    1    2    0    0  0.48304315886E+02  0.41081039109E+03  0.80520715111E+03  0.90523866497E+03  0.00000000000E+00 0.  1.
<mgrwt>
<rscale>  0 0.21035213E+04</rscale>
<asrwt>0</asrwt>
<pdfrwt beam="1">  1        2 0.19058233E+00 0.21035213E+04</pdfrwt>
<pdfrwt beam="2">  1       -2 0.13738031E+00 0.21035213E+04</pdfrwt>
<totfact> 0.62420381E+00</totfact>
</mgrwt>
</event>
<event>
 6    1  0.1614874E-005  0.1031462E+04  0.7818608E-02  0.9274695E-01
          1   -1    0    0  501    0  0.00000000000E+00  0.00000000000E+00  0.13373002104E+04  0.13373002104E+04  0.00000000000E+00 0. -1.
         -1   -1    0    0    0  501 -0.00000000000E+00 -0.00000000000E+00 -0.19889225644E+03  0.19889225644E+03  0.00000000000E+00 0.  1.
         23    2    1    2    0    0  0.39683760132E+03  0.10863083739E+03  0.10266588421E+04  0.11098491724E+04  0.91956875047E+02 0.  0.
         11    1    3    3    0    0  0.82943924245E+02 -0.14695146936E+02  0.21506195798E+03  0.23097031775E+03  0.00000000000E+00 0. -1.
        -11    1    3    3    0    0  0.31389367707E+03  0.12332598432E+03  0.81159688409E+03  0.87887885467E+03  0.00000000000E+00 0.  1.
         22    1    1    2    0    0 -0.39683760132E+03 -0.10863083739E+03  0.11174911184E+03  0.42634329437E+03  0.00000000000E+00 0.  1.
<mgrwt>
<rscale>  0 0.10314624E+04</rscale>
<asrwt>0</asrwt>
<pdfrwt beam="1">  1        1 0.20573849E+00 0.10314624E+04</pdfrwt>
<pdfrwt beam="2">  1       -1 0.30598810E-01 0.10314624E+04</pdfrwt>
<totfact> 0.83849380E+01</totfact>
</mgrwt>
</event>
<event>
 6    1  0.1614874E-005  0.1893279E+04  0.7818608E-02  0.8658209E-01
          2   -1    0    0  501    0  0.00000000000E+00  0.00000000000E+00  0.19766172485E+04  0.19766172485E+04  0.00000000000E+00 0. -1.
         -2   -1    0    0    0  501 -0.00000000000E+00 -0.00000000000E+00 -0.45336378704E+03  0.45336378704E+03  0.00000000000E+00 0.  1.
         23    2    1    2    0    0  0.56766668264E+03 -0.65858183385E+03  0.12365180001E+04  0.15144523799E+04  0.92810301256E+02 0.  0.
         11    1    3    3    0    0  0.21514235639E+03 -0.18638486399E+03  0.42661527080E+03  0.51286074164E+03  0.00000000000E+00 0. -1.
        -11    1    3    3    0    0  0.35252432625E+03 -0.47219696986E+03  0.80990272933E+03  0.10015916383E+04  0.00000000000E+00 0.  1.
         22    1    1    2    0    0 -0.56766668264E+03  0.65858183385E+03  0.28673546135E+03  0.91552865561E+03  0.00000000000E+00 0.  1.
<mgrwt>
<rscale>  0 0.18932794E+04</rscale>
<asrwt>0</asrwt>
<pdfrwt beam="1">  1        2 0.30409496E+00 0.18932794E+04</pdfrwt>
<pdfrwt beam="2">  1       -2 0.69748276E-01 0.18932794E+04</pdfrwt>
<totfact> 0.12086096E+01</totfact>
</mgrwt>
</event>
<event>
 6    1  0.1614874E-005  0.2005959E+04  0.7818608E-02  0.8603840E-01
         -2   -1    0    0    0  501 -0.00000000000E+00  0.00000000000E+00  0.26592807151E+03  0.26592807151E+03  0.00000000000E+00 0.  1.
          2   -1    0    0  501    0  0.00000000000E+00 -0.00000000000E+00 -0.37828564962E+04  0.37828564962E+04  0.00000000000E+00 0. -1.
         23    2    1    2    0    0 -0.10964893655E+03  0.49144409007E+03 -0.35080477623E+04  0.35451785222E+04  0.91386369291E+02 0.  0.
         13    1    3    3    0    0 -0.95547488447E+02  0.29814811437E+03 -0.23959474442E+04  0.24163165720E+04  0.00000000000E+00 0. -1.
        -13    1    3    3    0    0 -0.14101448106E+02  0.19329597570E+03 -0.11121003181E+04  0.11288619501E+04  0.00000000000E+00 0.  1.
         22    1    1    2    0    0  0.10964893655E+03 -0.49144409007E+03 -0.88806623997E+01  0.50360604555E+03  0.00000000000E+00 0.  1.
<mgrwt>
<rscale>  0 0.20059589E+04</rscale>
<asrwt>0</asrwt>
<pdfrwt beam="1">  1        2 0.58197793E+00 0.20059589E+04</pdfrwt>
<pdfrwt beam="2">  1       -2 0.40912011E-01 0.20059589E+04</pdfrwt>
<totfact> 0.26805906E+00</totfact>
</mgrwt>
</event>
<event>
 6    1  0.1614874E-005  0.2438815E+04  0.7818608E-02  0.8425113E-01
          1   -1    0    0  501    0  0.00000000000E+00  0.00000000000E+00  0.16970784754E+04  0.16970784754E+04  0.00000000000E+00 0. -1.
         -1   -1    0    0    0  501 -0.00000000000E+00 -0.00000000000E+00 -0.87618505731E+03  0.87618505731E+03  0.00000000000E+00 0.  1.
         23    2    1    2    0    0 -0.56620384101E+03  0.81895739602E+02 -0.72330521609E+03  0.92649605564E+03  0.89055060207E+02 0.  0.
         11    1    3    3    0    0 -0.62402070885E+02  0.36849591943E+02 -0.10644964375E+03  0.12877669638E+03  0.00000000000E+00 0. -1.
        -11    1    3    3    0    0 -0.50380177012E+03  0.45046147659E+02 -0.61685557234E+03  0.79771935926E+03  0.00000000000E+00 0.  1.
         22    1    1    2    0    0  0.56620384101E+03 -0.81895739602E+02  0.15441986342E+04  0.16467674771E+04  0.00000000000E+00 0. -1.
<mgrwt>
<rscale>  0 0.24388151E+04</rscale>
<asrwt>0</asrwt>
<pdfrwt beam="1">  1        1 0.26108900E+00 0.24388151E+04</pdfrwt>
<pdfrwt beam="2">  1       -1 0.13479770E+00 0.24388151E+04</pdfrwt>
<totfact> 0.19773205E+00</totfact>
</mgrwt>
</event>
<event>
 6    1  0.1614874E-005  0.3604996E+04  0.7818608E-02  0.8089348E-01
          2   -1    0    0  501    0  0.00000000000E+00  0.00000000000E+00  0.26340253599E+04  0.26340253599E+04  0.00000000000E+00 0. -1.
         -2   -1    0    0    0  501 -0.00000000000E+00 -0.00000000000E+00 -0.12334729308E+04  0.12334729308E+04  0.00000000000E+00 0.  1.
         23    2    1    2    0    0  0.12244367332E+03  0.34869307294E+03  0.25921365001E+04  0.26199198722E+04  0.90714878759E+02 0.  0.
         11    1    3    3    0    0  0.10733793500E+02  0.11794753975E+03  0.10445955883E+04  0.10512881525E+04  0.00000000000E+00 0.  1.
        -11    1    3    3    0    0  0.11170987982E+03  0.23074553319E+03  0.15475409118E+04  0.15686317197E+04  0.00000000000E+00 0. -1.
         22    1    1    2    0    0 -0.12244367332E+03 -0.34869307294E+03 -0.11915840710E+04  0.12475784186E+04  0.00000000000E+00 0.  1.
<mgrwt>
<rscale>  0 0.36049960E+04</rscale>
<asrwt>0</asrwt>
<pdfrwt beam="1">  1        2 0.40523467E+00 0.36049960E+04</pdfrwt>
<pdfrwt beam="2">  1       -2 0.18976507E+00 0.36049960E+04</pdfrwt>
<totfact> 0.36822547E-01</totfact>
</mgrwt>
</event>
<event>
 6    1  0.1614874E-005  0.4159049E+03  0.7818608E-02  0.1038407E+00
          1   -1    0    0  501    0  0.00000000000E+00  0.00000000000E+00  0.27669773261E+04  0.27669773261E+04  0.00000000000E+00 0. -1.
         -1   -1    0    0    0  501 -0.00000000000E+00 -0.00000000000E+00 -0.15628688688E+02  0.15628688688E+02  0.00000000000E+00 0.  1.
         23    2    1    2    0    0 -0.12975617256E+03  0.17784800157E+02  0.24259234303E+04  0.24318147252E+04  0.10707662920E+03 0.  0.
         13    1    3    3    0    0 -0.84036886829E+02  0.61107879371E+02  0.13094162548E+04  0.13135323748E+04  0.00000000000E+00 0. -1.
        -13    1    3    3    0    0 -0.45719285729E+02 -0.43323079213E+02  0.11165071755E+04  0.11182823505E+04  0.00000000000E+00 0.  1.
         22    1    1    2    0    0  0.12975617256E+03 -0.17784800157E+02  0.32542520707E+03  0.35079128955E+03  0.00000000000E+00 0.  1.
<mgrwt>
<rscale>  0 0.41590493E+03</rscale>
<asrwt>0</asrwt>
<pdfrwt beam="1">  1        1 0.42568843E+00 0.41590493E+03</pdfrwt>
<pdfrwt beam="2">  1       -1 0.24044158E-02 0.41590493E+03</pdfrwt>
<totfact> 0.53722509E+02</totfact>
</mgrwt>
</event>
<event>
 6    1  0.1614874E-005  0.1142865E+04  0.7818608E-02  0.9164391E-01
          2   -1    0    0  501    0  0.00000000000E+00  0.00000000000E+00  0.80354145989E+03  0.80354145989E+03  0.00000000000E+00 0. -1.
         -2   -1    0    0    0  501 -0.00000000000E+00 -0.00000000000E+00 -0.40636981195E+03  0.40636981195E+03  0.00000000000E+00 0.  1.
         23    2    1    2    0    0  0.26365379995E+03 -0.33054591126E+02 -0.33109292912E+03  0.43468535225E+03  0.93396442801E+02 0.  0.
         11    1    3    3    0    0  0.12581777612E+03  0.13345722331E+01 -0.22347933326E+03  0.25646618932E+03  0.00000000000E+00 0. -1.
        -11    1    3    3    0    0  0.13783602383E+03 -0.34389163359E+02 -0.10761359585E+03  0.17821916293E+03  0.00000000000E+00 0.  1.
         22    1    1    2    0    0 -0.26365379995E+03  0.33054591126E+02  0.72826457705E+03  0.77522591960E+03  0.00000000000E+00 0. -1.
<mgrwt>
<rscale>  0 0.11428648E+04</rscale>
<asrwt>0</asrwt>
<pdfrwt beam="1">  1        2 0.12362176E+00 0.11428648E+04</pdfrwt>
<pdfrwt beam="2">  1       -2 0.62518433E-01 0.11428648E+04</pdfrwt>
<totfact> 0.80507815E+01</totfact>
</mgrwt>
</event>
<event>
 6    1  0.1614874E-005  0.1967387E+04  0.7818608E-02  0.8622022E-01
          1   -1    0    0  501    0  0.00000000000E+00  0.00000000000E+00  0.12393992084E+04  0.12393992084E+04  0.00000000000E+00 0. -1.
         -1   -1    0    0    0  501 -0.00000000000E+00 -0.00000000000E+00 -0.78074326480E+03  0.78074326480E+03  0.00000000000E+00 0.  1.
         23    2    1    2    0    0 -0.19208745328E+03 -0.22328032212E+03  0.11912992483E+04  0.12305109743E+04  0.90618249053E+02 0.  0.
         13    1    3    3    0    0  0.48251473409E+01  0.46833157178E+01  0.20191348045E+02  0.21281588964E+02  0.00000000000E+00 0. -1.
        -13    1    3    3    0    0 -0.19691260062E+03 -0.22796363784E+03  0.11711079002E+04  0.12092293854E+04  0.00000000000E+00 0.  1.
         22    1    1    2    0    0  0.19208745328E+03  0.22328032212E+03 -0.73264330473E+03  0.78963149881E+03  0.00000000000E+00 0.  1.
<mgrwt>
<rscale>  0 0.19673867E+04</rscale>
<asrwt>0</asrwt>
<pdfrwt beam="1">  1        1 0.19067680E+00 0.19673867E+04</pdfrwt>
<pdfrwt beam="2">  1       -1 0.12011435E+00 0.19673867E+04</pdfrwt>
<totfact> 0.57472527E+00</totfact>
</mgrwt>
</event>
<event>
 6    1  0.1614874E-005  0.1589786E+04  0.7818608E-02  0.8826848E-01
         -2   -1    0    0    0  501 -0.00000000000E+00  0.00000000000E+00  0.13879747275E+03  0.13879747275E+03  0.00000000000E+00 0.  1.
          2   -1    0    0  501    0  0.00000000000E+00 -0.00000000000E+00 -0.45523510126E+04  0.45523510126E+04  0.00000000000E+00 0. -1.
         23    2    1    2    0    0  0.15932598668E+03  0.76316040690E+03 -0.17973011118E+04  0.19612079468E+04  0.90811604024E+02 0.  0.
         13    1    3    3    0    0  0.82094484878E+02  0.58280298332E+03 -0.13322664111E+04  0.14564795268E+04  0.00000000000E+00 0.  1.
        -13    1    3    3    0    0  0.77231501806E+02  0.18035742358E+03 -0.46503470066E+03  0.50472841997E+03  0.00000000000E+00 0. -1.
         22    1    1    2    0    0 -0.15932598668E+03 -0.76316040690E+03 -0.26162524281E+04  0.27299405386E+04  0.00000000000E+00 0.  1.
<mgrwt>
<rscale>  0 0.15897859E+04</rscale>
<asrwt>0</asrwt>
<pdfrwt beam="1">  1        2 0.70036173E+00 0.15897859E+04</pdfrwt>
<pdfrwt beam="2">  1       -2 0.21353456E-01 0.15897859E+04</pdfrwt>
<totfact> 0.20614534E+00</totfact>
</mgrwt>
</event>
<event>
 6    1  0.1614874E-005  0.6294585E+03  0.7818608E-02  0.9846106E-01
         -1   -1    0    0    0  501 -0.00000000000E+00  0.00000000000E+00  0.16977874150E+04  0.16977874150E+04  0.00000000000E+00 0.  1.
          1   -1    0    0  501    0  0.00000000000E+00 -0.00000000000E+00 -0.58343282407E+02  0.58343282407E+02  0.00000000000E+00 0. -1.
         23    2    1    2    0    0 -0.26027112657E+03 -0.80705616371E+02  0.12375016873E+04  0.12705257292E+04  0.92578326879E+02 0.  0.
         13    1    3    3    0    0 -0.16667484079E+03 -0.68037111466E+02  0.97659469058E+03  0.99304921366E+03  0.00000000000E+00 0. -1.
        -13    1    3    3    0    0 -0.93596285777E+02 -0.12668504905E+02  0.26090699674E+03  0.27747651554E+03  0.00000000000E+00 0.  1.
         22    1    1    2    0    0  0.26027112657E+03  0.80705616371E+02  0.40194244531E+03  0.48560496824E+03  0.00000000000E+00 0. -1.
<mgrwt>
<rscale>  0 0.62945847E+03</rscale>
<asrwt>0</asrwt>
<pdfrwt beam="1">  1        1 0.89758909E-02 0.62945847E+03</pdfrwt>
<pdfrwt beam="2">  1       -1 0.26119803E+00 0.62945847E+03</pdfrwt>
<totfact> 0.47955125E+01</totfact>
</mgrwt>
</event>
<event>
 6    1  0.1614874E-005  0.1468976E+04  0.7818608E-02  0.8905349E-01
          2   -1    0    0  501    0  0.00000000000E+00  0.00000000000E+00  0.12911241451E+04  0.12911241451E+04  0.00000000000E+00 0.  1.
         -2   -1    0    0    0  501 -0.00000000000E+00 -0.00000000000E+00 -0.41783191598E+03  0.41783191598E+03  0.00000000000E+00 0. -1.
         23    2    1    2    0    0  0.24587989083E+03 -0.10772163436E+03 -0.35348345553E+03  0.45315374714E+03  0.91306593362E+02 0.  0.
         11    1    3    3    0    0  0.43993286175E+02  0.15828894142E+02 -0.53943018721E+02  0.71384959109E+02  0.00000000000E+00 0. -1.
        -11    1    3    3    0    0  0.20188660466E+03 -0.12355052850E+03 -0.29954043681E+03  0.38176878803E+03  0.00000000000E+00 0.  1.
         22    1    1    2    0    0 -0.24587989083E+03  0.10772163436E+03  0.12267756846E+04  0.12558023139E+04  0.00000000000E+00 0.  1.
<mgrwt>
<rscale>  0 0.14689763E+04</rscale>
<asrwt>0</asrwt>
<pdfrwt beam="1">  1        2 0.19863448E+00 0.14689763E+04</pdfrwt>
<pdfrwt beam="2">  1       -2 0.64281834E-01 0.14689763E+04</pdfrwt>
<totfact> 0.36225470E+01</totfact>
</mgrwt>
</event>
<event>
 6    1  0.1614874E-005  0.1262554E+04  0.7818608E-02  0.9059799E-01
          1   -1    0    0  501    0  0.00000000000E+00  0.00000000000E+00  0.12948330465E+04  0.12948330465E+04  0.00000000000E+00 0. -1.
         -1   -1    0    0    0  501 -0.00000000000E+00 -0.00000000000E+00 -0.30776989429E+03  0.30776989429E+03  0.00000000000E+00 0.  1.
         23    2    1    2    0    0 -0.61316720974E+03 -0.88848743695E+02  0.36735832507E+03  0.72630265029E+03  0.93248455521E+02 0.  0.
         11    1    3    3    0    0 -0.37130707450E+03 -0.96994912195E+02  0.20748989257E+03  0.43626713386E+03  0.00000000000E+00 0.  1.
        -11    1    3    3    0    0 -0.24186013524E+03  0.81461685001E+01  0.15986843251E+03  0.29003551643E+03  0.00000000000E+00 0. -1.
         22    1    1    2    0    0  0.61316720974E+03  0.88848743695E+02  0.61970482716E+03  0.87630029052E+03  0.00000000000E+00 0.  1.
<mgrwt>
<rscale>  0 0.12625540E+04</rscale>
<asrwt>0</asrwt>
<pdfrwt beam="1">  1        1 0.19920508E+00 0.12625540E+04</pdfrwt>
<pdfrwt beam="2">  1       -1 0.47349215E-01 0.12625540E+04</pdfrwt>
<totfact> 0.39995130E+01</totfact>
</mgrwt>
</event>
<event>
 6    1  0.1614874E-005  0.2647943E+04  0.7818608E-02  0.8352096E-01
          2   -1    0    0  501    0  0.00000000000E+00  0.00000000000E+00  0.27318280912E+04  0.27318280912E+04  0.00000000000E+00 0. -1.
         -2   -1    0    0    0  501 -0.00000000000E+00 -0.00000000000E+00 -0.64165830876E+03  0.64165830876E+03  0.00000000000E+00 0.  1.
         23    2    1    2    0    0 -0.16765574414E+03  0.10913581103E+04  0.19734288471E+04  0.22631713908E+04  0.91391225530E+02 0.  0.
         13    1    3    3    0    0 -0.17582879640E+03  0.96812079229E+03  0.17734643700E+04  0.20281394197E+04  0.00000000000E+00 0.  1.
        -13    1    3    3    0    0  0.81730522651E+01  0.12323731803E+03  0.19996447714E+03  0.23503197113E+03  0.00000000000E+00 0. -1.
         22    1    1    2    0    0  0.16765574414E+03 -0.10913581103E+04  0.11674093531E+03  0.11103150091E+04  0.00000000000E+00 0.  1.
<mgrwt>
<rscale>  0 0.26479427E+04</rscale>
<asrwt>0</asrwt>
<pdfrwt beam="1">  1        2 0.42028124E+00 0.26479427E+04</pdfrwt>
<pdfrwt beam="2">  1       -2 0.98716664E-01 0.26479427E+04</pdfrwt>
<totfact> 0.19066599E+00</totfact>
</mgrwt>
</event>
<event>
 6    1  0.1614874E-005  0.2591814E+04  0.7818608E-02  0.8370987E-01
          2   -1    0    0  501    0  0.00000000000E+00  0.00000000000E+00  0.28095358804E+04  0.28095358804E+04  0.00000000000E+00 0. -1.
         -2   -1    0    0    0  501 -0.00000000000E+00 -0.00000000000E+00 -0.59774085256E+03  0.59774085256E+03  0.00000000000E+00 0.  1.
         23    2    1    2    0    0 -0.66636076720E+02 -0.12428089240E+04  0.64076117745E+03  0.14029908882E+04  0.93777169518E+02 0.  0.
         11    1    3    3    0    0 -0.24640147644E+02 -0.10318410287E+04  0.54986185059E+03  0.11694661604E+04  0.00000000000E+00 0. -1.
        -11    1    3    3    0    0 -0.41995929077E+02 -0.21096789528E+03  0.90899326856E+02  0.23352472786E+03  0.00000000000E+00 0.  1.
         22    1    1    2    0    0  0.66636076720E+02  0.12428089240E+04  0.15710338504E+04  0.20042858447E+04  0.00000000000E+00 0. -1.
<mgrwt>
<rscale>  0 0.25918136E+04</rscale>
<asrwt>0</asrwt>
<pdfrwt beam="1">  1        2 0.43223628E+00 0.25918136E+04</pdfrwt>
<pdfrwt beam="2">  1       -2 0.91960133E-01 0.25918136E+04</pdfrwt>
<totfact> 0.20302882E+00</totfact>
</mgrwt>
</event>
<event>
 6    1  0.1614874E-005  0.9993099E+03  0.7818608E-02  0.9309302E-01
          2   -1    0    0  501    0  0.00000000000E+00  0.00000000000E+00  0.36999973812E+04  0.36999973812E+04  0.00000000000E+00 0. -1.
         -2   -1    0    0    0  501 -0.00000000000E+00 -0.00000000000E+00 -0.67474384849E+02  0.67474384849E+02  0.00000000000E+00 0.  1.
         23    2    1    2    0    0 -0.49483154793E+03 -0.17157009048E+02  0.19030814982E+04  0.19685497224E+04  0.91193183845E+02 0.  0.
         13    1    3    3    0    0 -0.30486586856E+03 -0.52228917026E+02  0.11110791169E+04  0.11533290344E+04  0.00000000000E+00 0. -1.
        -13    1    3    3    0    0 -0.18996567936E+03  0.35071907978E+02  0.79200238134E+03  0.81522068798E+03  0.00000000000E+00 0.  1.
         22    1    1    2    0    0  0.49483154793E+03  0.17157009048E+02  0.17294414981E+04  0.17989220436E+04  0.00000000000E+00 0. -1.
<mgrwt>
<rscale>  0 0.99930986E+03</rscale>
<asrwt>0</asrwt>
<pdfrwt beam="1">  1        2 0.56923021E+00 0.99930986E+03</pdfrwt>
<pdfrwt beam="2">  1       -2 0.10380678E-01 0.99930986E+03</pdfrwt>
<totfact> 0.39507560E+01</totfact>
</mgrwt>
</event>
<event>
 6    1  0.1614874E-005  0.3635941E+04  0.7818608E-02  0.8082308E-01
          1   -1    0    0  501    0  0.00000000000E+00  0.00000000000E+00  0.18183920703E+04  0.18183920703E+04  0.00000000000E+00 0. -1.
         -1   -1    0    0    0  501 -0.00000000000E+00 -0.00000000000E+00 -0.18175487794E+04  0.18175487794E+04  0.00000000000E+00 0.  1.
         23    2    1    2    0    0  0.14026024062E+04 -0.10293657677E+04  0.52352399186E+03  0.18193279275E+04  0.94812152190E+02 0.  0.
         11    1    3    3    0    0  0.43445434916E+03 -0.30791469443E+03  0.11581759644E+03  0.54495482033E+03  0.00000000000E+00 0. -1.
        -11    1    3    3    0    0  0.96814805709E+03 -0.72145107325E+03  0.40770639542E+03  0.12743731072E+04  0.00000000000E+00 0.  1.
         22    1    1    2    0    0 -0.14026024062E+04  0.10293657677E+04 -0.52268070097E+03  0.18166129221E+04  0.00000000000E+00 0.  1.
<mgrwt>
<rscale>  0 0.36359408E+04</rscale>
<asrwt>0</asrwt>
<pdfrwt beam="1">  1        1 0.27975262E+00 0.36359408E+04</pdfrwt>
<pdfrwt beam="2">  1       -1 0.27962289E+00 0.36359408E+04</pdfrwt>
<totfact> 0.14290880E-01</totfact>
</mgrwt>
</event>
<event>
 6    1  0.1614874E-005  0.4968159E+04  0.7818608E-02  0.7833438E-01
          2   -1    0    0  501    0  0.00000000000E+00  0.00000000000E+00  0.23158475148E+04  0.23158475148E+04  0.00000000000E+00 0. -1.
         -2   -1    0    0    0  501 -0.00000000000E+00 -0.00000000000E+00 -0.26645328469E+04  0.26645328469E+04  0.00000000000E+00 0.  1.
         23    2    1    2    0    0 -0.21507310996E+03  0.12402167209E+04 -0.23202551713E+04  0.26412605297E+04  0.90989935450E+02 0.  0.
         11    1    3    3    0    0 -0.18712216345E+03  0.84542350136E+03 -0.15634705194E+04  0.17872312849E+04  0.00000000000E+00 0. -1.
        -11    1    3    3    0    0 -0.27950946507E+02  0.39479321949E+03 -0.75678465196E+03  0.85402924482E+03  0.00000000000E+00 0.  1.
         22    1    1    2    0    0  0.21507310996E+03 -0.12402167209E+04  0.19715698393E+04  0.23391198320E+04  0.00000000000E+00 0. -1.
<mgrwt>
<rscale>  0 0.49681593E+04</rscale>
<asrwt>0</asrwt>
<pdfrwt beam="1">  1        2 0.35628423E+00 0.49681593E+04</pdfrwt>
<pdfrwt beam="2">  1       -2 0.40992813E+00 0.49681593E+04</pdfrwt>
<totfact> 0.20725360E-02</totfact>
</mgrwt>
</event>
<event>
 6    1  0.1614874E-005  0.1002990E+04  0.7818608E-02  0.9305272E-01
          2   -1    0    0  501    0  0.00000000000E+00  0.00000000000E+00  0.63109666820E+03  0.63109666820E+03  0.00000000000E+00 0. -1.
         -2   -1    0    0    0  501 -0.00000000000E+00 -0.00000000000E+00 -0.39850815558E+03  0.39850815558E+03  0.00000000000E+00 0.  1.
         23    2    1    2    0    0  0.22208464359E+02 -0.34880292816E+03  0.48027481945E+03  0.60122974844E+03  0.93040902998E+02 0.  0.
         13    1    3    3    0    0  0.23385053192E+02 -0.61559196749E+02  0.14811325031E+03  0.16209235125E+03  0.00000000000E+00 0. -1.
        -13    1    3    3    0    0 -0.11765888328E+01 -0.28724373141E+03  0.33216156914E+03  0.43913739719E+03  0.00000000000E+00 0.  1.
         22    1    1    2    0    0 -0.22208464359E+02  0.34880292816E+03 -0.24768630683E+03  0.42837507534E+03  0.00000000000E+00 0.  1.
<mgrwt>
<rscale>  0 0.10029899E+04</rscale>
<asrwt>0</asrwt>
<pdfrwt beam="1">  1        2 0.97091795E-01 0.10029899E+04</pdfrwt>
<pdfrwt beam="2">  1       -2 0.61308947E-01 0.10029899E+04</pdfrwt>
<totfact> 0.11523149E+02</totfact>
</mgrwt>
</event>
<event>
 6    1  0.1614874E-005  0.5691726E+04  0.7818608E-02  0.7729845E-01
          2   -1    0    0  501    0  0.00000000000E+00  0.00000000000E+00  0.33631553196E+04  0.33631553196E+04  0.00000000000E+00 0. -1.
         -2   -1    0    0    0  501 -0.00000000000E+00 -0.00000000000E+00 -0.24081360820E+04  0.24081360820E+04  0.00000000000E+00 0.  1.
         23    2    1    2    0    0  0.27660272463E+04  0.15650259819E+03 -0.17909580128E+03  0.27776954516E+04  0.90093980233E+02 0.  0.
         11    1    3    3    0    0  0.11435975396E+04  0.30322867500E+02 -0.10208712527E+03  0.11485454236E+04  0.00000000000E+00 0. -1.
        -11    1    3    3    0    0  0.16224297066E+04  0.12617973069E+03 -0.77008676013E+02  0.16291500280E+04  0.00000000000E+00 0.  1.
         22    1    1    2    0    0 -0.27660272463E+04 -0.15650259819E+03  0.11341150389E+04  0.29935959500E+04  0.00000000000E+00 0. -1.
<mgrwt>
<rscale>  0 0.56917258E+04</rscale>
<asrwt>0</asrwt>
<pdfrwt beam="1">  1        2 0.51740851E+00 0.56917258E+04</pdfrwt>
<pdfrwt beam="2">  1       -2 0.37048247E+00 0.56917258E+04</pdfrwt>
<totfact> 0.80170673E-03</totfact>
</mgrwt>
</event>
<event>
 6    1  0.1614874E-005  0.2358291E+04  0.7818608E-02  0.8455286E-01
          2   -1    0    0  501    0  0.00000000000E+00  0.00000000000E+00  0.17068329947E+04  0.17068329947E+04  0.00000000000E+00 0. -1.
         -2   -1    0    0    0  501 -0.00000000000E+00 -0.00000000000E+00 -0.81459884787E+03  0.81459884787E+03  0.00000000000E+00 0.  1.
         23    2    1    2    0    0 -0.49838766440E+03  0.56627747548E+03 -0.51995150352E+03  0.92039194477E+03  0.87814137438E+02 0.  0.
         11    1    3    3    0    0 -0.44454502393E+03  0.53487713800E+03 -0.49289394338E+03  0.85244253207E+03  0.00000000000E+00 0.  1.
        -11    1    3    3    0    0 -0.53842640467E+02  0.31400337476E+02 -0.27057560133E+02  0.67949412701E+02  0.00000000000E+00 0. -1.
         22    1    1    2    0    0  0.49838766440E+03 -0.56627747548E+03  0.14121856503E+04  0.16010398978E+04  0.00000000000E+00 0. -1.
<mgrwt>
<rscale>  0 0.23582911E+04</rscale>
<asrwt>0</asrwt>
<pdfrwt beam="1">  1        2 0.26258969E+00 0.23582911E+04</pdfrwt>
<pdfrwt beam="2">  1       -2 0.12532290E+00 0.23582911E+04</pdfrwt>
<totfact> 0.41791983E+00</totfact>
</mgrwt>
</event>
<event>
 6    1  0.1614874E-005  0.2434328E+04  0.7818608E-02  0.8426762E-01
          2   -1    0    0  501    0  0.00000000000E+00  0.00000000000E+00  0.21699389861E+04  0.21699389861E+04  0.00000000000E+00 0. -1.
         -2   -1    0    0    0  501 -0.00000000000E+00 -0.00000000000E+00 -0.68273292213E+03  0.68273292213E+03  0.00000000000E+00 0.  1.
         23    2    1    2    0    0 -0.57084490860E+03  0.61402290139E+01  0.20020622818E+04  0.20839206239E+04  0.92575236940E+02 0.  0.
         11    1    3    3    0    0 -0.25602798287E+03  0.44029423068E+02  0.97573194987E+03  0.10097236038E+04  0.00000000000E+00 0. -1.
        -11    1    3    3    0    0 -0.31481692573E+03 -0.37889194054E+02  0.10263303319E+04  0.10741970201E+04  0.00000000000E+00 0.  1.
         22    1    1    2    0    0  0.57084490860E+03 -0.61402290139E+01 -0.51485621783E+03  0.76875128431E+03  0.00000000000E+00 0.  1.
<mgrwt>
<rscale>  0 0.24343285E+04</rscale>
<asrwt>0</asrwt>
<pdfrwt beam="1">  1        2 0.33383676E+00 0.24343285E+04</pdfrwt>
<pdfrwt beam="2">  1       -2 0.10503583E+00 0.24343285E+04</pdfrwt>
<totfact> 0.35355379E+00</totfact>
</mgrwt>
</event>
<event>
 6    1  0.1614874E-005  0.1404122E+04  0.7818608E-02  0.8950840E-01
          2   -1    0    0  501    0  0.00000000000E+00  0.00000000000E+00  0.10121259969E+04  0.10121259969E+04  0.00000000000E+00 0. -1.
         -2   -1    0    0    0  501 -0.00000000000E+00 -0.00000000000E+00 -0.48698435497E+03  0.48698435497E+03  0.00000000000E+00 0.  1.
         23    2    1    2    0    0 -0.61223519646E+03  0.36356240656E+02  0.62198419746E+03  0.87819796466E+03  0.90628975589E+02 0.  0.
         13    1    3    3    0    0 -0.44024778672E+03  0.31330241929E+01  0.39500266434E+03  0.59148544732E+03  0.00000000000E+00 0. -1.
        -13    1    3    3    0    0 -0.17198740974E+03  0.33223216463E+02  0.22698153312E+03  0.28671251734E+03  0.00000000000E+00 0.  1.
         22    1    1    2    0    0  0.61223519646E+03 -0.36356240656E+02 -0.96842555534E+02  0.62091238720E+03  0.00000000000E+00 0.  1.
<mgrwt>
<rscale>  0 0.14041218E+04</rscale>
<asrwt>0</asrwt>
<pdfrwt beam="1">  1        2 0.15571169E+00 0.14041218E+04</pdfrwt>
<pdfrwt beam="2">  1       -2 0.74920670E-01 0.14041218E+04</pdfrwt>
<totfact> 0.38540588E+01</totfact>
</mgrwt>
</event>
<event>
 6    1  0.1614874E-005  0.2901932E+04  0.7818608E-02  0.8272303E-01
         -2   -1    0    0    0  501 -0.00000000000E+00  0.00000000000E+00  0.88867044844E+03  0.88867044844E+03  0.00000000000E+00 0.  1.
          2   -1    0    0  501    0  0.00000000000E+00 -0.00000000000E+00 -0.23690479382E+04  0.23690479382E+04  0.00000000000E+00 0. -1.
         23    2    1    2    0    0 -0.89356055937E+03 -0.81219695867E+03  0.15940314373E+03  0.12213012145E+04  0.89738071155E+02 0.  0.
         11    1    3    3    0    0 -0.38731748310E+03 -0.40847078604E+03  0.90404506554E+02  0.57011945289E+03  0.00000000000E+00 0.  1.
        -11    1    3    3    0    0 -0.50624307627E+03 -0.40372617263E+03  0.68998637181E+02  0.65118176163E+03  0.00000000000E+00 0. -1.
         22    1    1    2    0    0  0.89356055937E+03  0.81219695867E+03 -0.16397806335E+04  0.20364171721E+04  0.00000000000E+00 0.  1.
<mgrwt>
<rscale>  0 0.29019324E+04</rscale>
<asrwt>0</asrwt>
<pdfrwt beam="1">  1        2 0.36446891E+00 0.29019324E+04</pdfrwt>
<pdfrwt beam="2">  1       -2 0.13671853E+00 0.29019324E+04</pdfrwt>
<totfact> 0.13646334E+00</totfact>
</mgrwt>
</event>
<event>
 6    1  0.1614874E-005  0.4793167E+04  0.7818608E-02  0.7861230E-01
         -2   -1    0    0    0  501 -0.00000000000E+00  0.00000000000E+00  0.20396358363E+04  0.20396358363E+04  0.00000000000E+00 0.  1.
          2   -1    0    0  501    0  0.00000000000E+00 -0.00000000000E+00 -0.28159984187E+04  0.28159984187E+04  0.00000000000E+00 0. -1.
         23    2    1    2    0    0 -0.18563345975E+04  0.15046872974E+04 -0.56227629414E+03  0.24564896284E+04  0.90136908173E+02 0.  0.
         11    1    3    3    0    0 -0.23766669770E+03  0.16841654763E+03 -0.92024177443E+02  0.30548001890E+03  0.00000000000E+00 0.  1.
        -11    1    3    3    0    0 -0.16186678998E+04  0.13362707498E+04 -0.47025211669E+03  0.21510096095E+04  0.00000000000E+00 0. -1.
         22    1    1    2    0    0  0.18563345975E+04 -0.15046872974E+04 -0.21408628826E+03  0.23991446267E+04  0.00000000000E+00 0.  1.
<mgrwt>
<rscale>  0 0.47931665E+04</rscale>
<asrwt>0</asrwt>
<pdfrwt beam="1">  1        2 0.43323053E+00 0.47931665E+04</pdfrwt>
<pdfrwt beam="2">  1       -2 0.31379013E+00 0.47931665E+04</pdfrwt>
<totfact> 0.43757032E-02</totfact>
</mgrwt>
</event>
<event>
 6    1  0.1614874E-005  0.1809248E+04  0.7818608E-02  0.8701397E-01
         -2   -1    0    0    0  501 -0.00000000000E+00  0.00000000000E+00  0.10173467452E+04  0.10173467452E+04  0.00000000000E+00 0.  1.
          2   -1    0    0  501    0  0.00000000000E+00 -0.00000000000E+00 -0.80439065833E+03  0.80439065833E+03  0.00000000000E+00 0. -1.
         23    2    1    2    0    0  0.81321840503E+03  0.25625775318E+03  0.40384802315E+03  0.94799147839E+03  0.92749161517E+02 0.  0.
         11    1    3    3    0    0  0.40258478717E+03  0.81186665670E+02  0.21096990782E+03  0.46170779455E+03  0.00000000000E+00 0.  1.
        -11    1    3    3    0    0  0.41063361786E+03  0.17507108751E+03  0.19287811532E+03  0.48628368384E+03  0.00000000000E+00 0. -1.
         22    1    1    2    0    0 -0.81321840503E+03 -0.25625775318E+03 -0.19089193629E+03  0.87374592513E+03  0.00000000000E+00 0. -1.
<mgrwt>
<rscale>  0 0.18092476E+04</rscale>
<asrwt>0</asrwt>
<pdfrwt beam="1">  1        2 0.12375241E+00 0.18092476E+04</pdfrwt>
<pdfrwt beam="2">  1       -2 0.15651488E+00 0.18092476E+04</pdfrwt>
<totfact> 0.86227807E+00</totfact>
</mgrwt>
</event>
<event>
 6    1  0.1614874E-005  0.2763414E+04  0.7818608E-02  0.8314718E-01
          2   -1    0    0  501    0  0.00000000000E+00  0.00000000000E+00  0.23381161703E+04  0.23381161703E+04  0.00000000000E+00 0. -1.
         -2   -1    0    0    0  501 -0.00000000000E+00 -0.00000000000E+00 -0.81651805664E+03  0.81651805664E+03  0.00000000000E+00 0.  1.
         23    2    1    2    0    0 -0.11293234434E+04 -0.52977058264E+03  0.14359467053E+04  0.19042884853E+04  0.91342128625E+02 0.  0.
         11    1    3    3    0    0 -0.76629234965E+03 -0.34174478390E+03  0.90381696201E+03  0.12332390536E+04  0.00000000000E+00 0. -1.
        -11    1    3    3    0    0 -0.36303109377E+03 -0.18802579874E+03  0.53212974332E+03  0.67104943168E+03  0.00000000000E+00 0.  1.
         22    1    1    2    0    0  0.11293234434E+04  0.52977058264E+03  0.85651408363E+02  0.12503457417E+04  0.00000000000E+00 0.  1.
<mgrwt>
<rscale>  0 0.27634139E+04</rscale>
<asrwt>0</asrwt>
<pdfrwt beam="1">  1        2 0.35971018E+00 0.27634139E+04</pdfrwt>
<pdfrwt beam="2">  1       -2 0.12561816E+00 0.27634139E+04</pdfrwt>
<totfact> 0.17823178E+00</totfact>
</mgrwt>
</event>
<event>
 6    1  0.1614874E-005  0.1392997E+04  0.7818608E-02  0.8958903E-01
          2   -1    0    0  501    0  0.00000000000E+00  0.00000000000E+00  0.64051956721E+03  0.64051956721E+03  0.00000000000E+00 0.  1.
         -2   -1    0    0    0  501 -0.00000000000E+00 -0.00000000000E+00 -0.75736993873E+03  0.75736993873E+03  0.00000000000E+00 0. -1.
         23    2    1    2    0    0  0.41082609406E+03 -0.27012166501E+03  0.43217477864E+03  0.66088719320E+03  0.90846295249E+02 0.  0.
         13    1    3    3    0    0  0.17471438896E+03 -0.89044991012E+02  0.22419022816E+03  0.29785128258E+03  0.00000000000E+00 0. -1.
        -13    1    3    3    0    0  0.23611170510E+03 -0.18107667400E+03  0.20798455049E+03  0.36303591061E+03  0.00000000000E+00 0.  1.
         22    1    1    2    0    0 -0.41082609406E+03  0.27012166501E+03 -0.54902515016E+03  0.73700231274E+03  0.00000000000E+00 0. -1.
<mgrwt>
<rscale>  0 0.13929972E+04</rscale>
<asrwt>0</asrwt>
<pdfrwt beam="1">  1        2 0.98541473E-01 0.13929972E+04</pdfrwt>
<pdfrwt beam="2">  1       -2 0.11651845E+00 0.13929972E+04</pdfrwt>
<totfact> 0.25457640E+01</totfact>
</mgrwt>
</event>
<event>
 6    1  0.1614874E-005  0.2585240E+04  0.7818608E-02  0.8373232E-01
         -1   -1    0    0    0  501 -0.00000000000E+00  0.00000000000E+00  0.11611245560E+04  0.11611245560E+04  0.00000000000E+00 0.  1.
          1   -1    0    0  501    0  0.00000000000E+00 -0.00000000000E+00 -0.14390075048E+04  0.14390075048E+04  0.00000000000E+00 0. -1.
         23    2    1    2    0    0 -0.11540397225E+03  0.44007344460E+03  0.10758462737E+04  0.11719984810E+04  0.95668810589E+02 0.  0.
         13    1    3    3    0    0 -0.10917515729E+03  0.39898588695E+03  0.88812117017E+03  0.97972861848E+03  0.00000000000E+00 0. -1.
        -13    1    3    3    0    0 -0.62288149652E+01  0.41087557650E+02  0.18772510357E+03  0.19226986254E+03  0.00000000000E+00 0.  1.
         22    1    1    2    0    0  0.11540397225E+03 -0.44007344460E+03 -0.13537292226E+04  0.14281335797E+04  0.00000000000E+00 0. -1.
<mgrwt>
<rscale>  0 0.25852404E+04</rscale>
<asrwt>0</asrwt>
<pdfrwt beam="1">  1        1 0.22138577E+00 0.25852404E+04</pdfrwt>
<pdfrwt beam="2">  1       -1 0.17863455E+00 0.25852404E+04</pdfrwt>
<totfact> 0.13543434E+00</totfact>
</mgrwt>
</event>
<event>
 6    1  0.1614874E-005  0.2237852E+04  0.7818608E-02  0.8502836E-01
          1   -1    0    0  501    0  0.00000000000E+00  0.00000000000E+00  0.15162126639E+04  0.15162126639E+04  0.00000000000E+00 0. -1.
         -1   -1    0    0    0  501 -0.00000000000E+00 -0.00000000000E+00 -0.82573881525E+03  0.82573881525E+03  0.00000000000E+00 0.  1.
         23    2    1    2    0    0 -0.76497978217E+03  0.37840065781E+03 -0.40820824462E+03  0.95073493705E+03  0.94243432644E+02 0.  0.
         13    1    3    3    0    0 -0.21410203852E+03  0.13578248060E+03 -0.15891097857E+03  0.29921441149E+03  0.00000000000E+00 0.  1.
        -13    1    3    3    0    0 -0.55087774365E+03  0.24261817721E+03 -0.24929726604E+03  0.65152052555E+03  0.00000000000E+00 0. -1.
         22    1    1    2    0    0  0.76497978217E+03 -0.37840065781E+03  0.10986820933E+04  0.13912165421E+04  0.00000000000E+00 0. -1.
<mgrwt>
<rscale>  0 0.22378522E+04</rscale>
<asrwt>0</asrwt>
<pdfrwt beam="1">  1        1 0.23326349E+00 0.22378522E+04</pdfrwt>
<pdfrwt beam="2">  1       -1 0.12703674E+00 0.22378522E+04</pdfrwt>
<totfact> 0.31134187E+00</totfact>
</mgrwt>
</event>
<event>
 6    1  0.1614874E-005  0.2526468E+04  0.7818608E-02  0.8393616E-01
          2   -1    0    0  501    0  0.00000000000E+00  0.00000000000E+00  0.12695631632E+04  0.12695631632E+04  0.00000000000E+00 0. -1.
         -2   -1    0    0    0  501 -0.00000000000E+00 -0.00000000000E+00 -0.12569364776E+04  0.12569364776E+04  0.00000000000E+00 0.  1.
         23    2    1    2    0    0 -0.32856053421E+03 -0.97528256700E+03  0.73581092089E+03  0.12686747133E+04  0.94814064236E+02 0.  0.
         11    1    3    3    0    0 -0.14441961996E+03 -0.51116032592E+03  0.42757200388E+03  0.68187955236E+03  0.00000000000E+00 0.  1.
        -11    1    3    3    0    0 -0.18414091424E+03 -0.46412224108E+03  0.30823891701E+03  0.58679516096E+03  0.00000000000E+00 0. -1.
         22    1    1    2    0    0  0.32856053421E+03  0.97528256700E+03 -0.72318423531E+03  0.12578249275E+04  0.00000000000E+00 0.  1.
<mgrwt>
<rscale>  0 0.25264681E+04</rscale>
<asrwt>0</asrwt>
<pdfrwt beam="1">  1        2 0.19531741E+00 0.25264681E+04</pdfrwt>
<pdfrwt beam="2">  1       -2 0.19337484E+00 0.25264681E+04</pdfrwt>
<totfact> 0.22555467E+00</totfact>
</mgrwt>
</event>
<event>
 6    1  0.1614874E-005  0.3253835E+04  0.7818608E-02  0.8174743E-01
         -2   -1    0    0    0  501 -0.00000000000E+00  0.00000000000E+00  0.17118145989E+04  0.17118145989E+04  0.00000000000E+00 0.  1.
          2   -1    0    0  501    0  0.00000000000E+00 -0.00000000000E+00 -0.15462304787E+04  0.15462304787E+04  0.00000000000E+00 0. -1.
         23    2    1    2    0    0 -0.49678341381E+03 -0.13878596260E+04  0.76913737006E+03  0.16651782824E+04  0.91095096470E+02 0.  0.
         13    1    3    3    0    0 -0.10453903308E+03 -0.30890503695E+03  0.21312918187E+03  0.38958282747E+03  0.00000000000E+00 0. -1.
        -13    1    3    3    0    0 -0.39224438073E+03 -0.10789545890E+04  0.55600818819E+03  0.12755954549E+04  0.00000000000E+00 0.  1.
         22    1    1    2    0    0  0.49678341381E+03  0.13878596260E+04 -0.60355324990E+03  0.15928667951E+04  0.00000000000E+00 0.  1.
<mgrwt>
<rscale>  0 0.32538346E+04</rscale>
<asrwt>0</asrwt>
<pdfrwt beam="1">  1        2 0.23788161E+00 0.32538346E+04</pdfrwt>
<pdfrwt beam="2">  1       -2 0.26335609E+00 0.32538346E+04</pdfrwt>
<totfact> 0.53333831E-01</totfact>
</mgrwt>
</event>
<event>
 6    1  0.1614874E-005  0.2471271E+04  0.7818608E-02  0.8413292E-01
         -1   -1    0    0    0  501 -0.00000000000E+00  0.00000000000E+00  0.16439582538E+04  0.16439582538E+04  0.00000000000E+00 0.  1.
          1   -1    0    0  501    0  0.00000000000E+00 -0.00000000000E+00 -0.92873093823E+03  0.92873093823E+03  0.00000000000E+00 0. -1.
         23    2    1    2    0    0 -0.21946846071E+03  0.56589229225E+03 -0.76034944703E+03  0.97715565306E+03  0.91112002638E+02 0.  0.
         13    1    3    3    0    0 -0.11945024012E+03  0.32729445774E+03 -0.50601878468E+03  0.61436555273E+03  0.00000000000E+00 0. -1.
        -13    1    3    3    0    0 -0.10001822059E+03  0.23859783451E+03 -0.25433066235E+03  0.36279010033E+03  0.00000000000E+00 0.  1.
         22    1    1    2    0    0  0.21946846071E+03 -0.56589229225E+03  0.14755767626E+04  0.15955335390E+04  0.00000000000E+00 0.  1.
<mgrwt>
<rscale>  0 0.24712708E+04</rscale>
<asrwt>0</asrwt>
<pdfrwt beam="1">  1        1 0.14288168E+00 0.24712708E+04</pdfrwt>
<pdfrwt beam="2">  1       -1 0.25291665E+00 0.24712708E+04</pdfrwt>
<totfact> 0.10245622E+00</totfact>
</mgrwt>
</event>
<event>
 6    1  0.1614874E-005  0.2160159E+04  0.7818608E-02  0.8535196E-01
         -2   -1    0    0    0  501 -0.00000000000E+00  0.00000000000E+00  0.52518490121E+03  0.52518490121E+03  0.00000000000E+00 0.  1.
          2   -1    0    0  501    0  0.00000000000E+00 -0.00000000000E+00 -0.22212599075E+04  0.22212599075E+04  0.00000000000E+00 0. -1.
         23    2    1    2    0    0 -0.83267811724E+03 -0.66658141428E+03 -0.10489895075E+04  0.14988858836E+04  0.92716107115E+02 0.  0.
         11    1    3    3    0    0 -0.55164639704E+03 -0.39427169447E+03 -0.69989681694E+03  0.97448420757E+03  0.00000000000E+00 0.  1.
        -11    1    3    3    0    0 -0.28103172019E+03 -0.27230971981E+03 -0.34909269052E+03  0.52440167604E+03  0.00000000000E+00 0. -1.
         22    1    1    2    0    0  0.83267811724E+03  0.66658141428E+03 -0.64708549881E+03  0.12475589251E+04  0.00000000000E+00 0. -1.
<mgrwt>
<rscale>  0 0.21601594E+04</rscale>
<asrwt>0</asrwt>
<pdfrwt beam="1">  1        2 0.34173230E+00 0.21601594E+04</pdfrwt>
<pdfrwt beam="2">  1       -2 0.80797677E-01 0.21601594E+04</pdfrwt>
<totfact> 0.62262964E+00</totfact>
</mgrwt>
</event>
<event>
 6    1  0.1614874E-005  0.3411790E+04  0.7818608E-02  0.8135019E-01
         -1   -1    0    0    0  501 -0.00000000000E+00  0.00000000000E+00  0.97621145405E+03  0.97621145405E+03  0.00000000000E+00 0.  1.
          1   -1    0    0  501    0  0.00000000000E+00 -0.00000000000E+00 -0.29809911917E+04  0.29809911917E+04  0.00000000000E+00 0. -1.
         23    2    1    2    0    0  0.49263713129E+03  0.88165884883E+02 -0.28931750004E+04  0.29375405894E+04  0.90656299034E+02 0.  0.
         11    1    3    3    0    0  0.19554477908E+03  0.66499126237E+02 -0.13739116448E+04  0.13893498847E+04  0.00000000000E+00 0. -1.
        -11    1    3    3    0    0  0.29709235221E+03  0.21666758646E+02 -0.15192633557E+04  0.15481907047E+04  0.00000000000E+00 0.  1.
         22    1    1    2    0    0 -0.49263713129E+03 -0.88165884883E+02  0.88839526277E+03  0.10196620564E+04  0.00000000000E+00 0.  1.
<mgrwt>
<rscale>  0 0.34117900E+04</rscale>
<asrwt>0</asrwt>
<pdfrwt beam="1">  1        1 0.45861402E+00 0.34117900E+04</pdfrwt>
<pdfrwt beam="2">  1       -1 0.15018638E+00 0.34117900E+04</pdfrwt>
<totfact> 0.17623933E-01</totfact>
</mgrwt>
</event>
<event>
 6    1  0.1614874E-005  0.1111269E+04  0.7818608E-02  0.9194277E-01
         -1   -1    0    0    0  501 -0.00000000000E+00  0.00000000000E+00  0.33282903287E+03  0.33282903287E+03  0.00000000000E+00 0.  1.
          1   -1    0    0  501    0  0.00000000000E+00 -0.00000000000E+00 -0.92759286565E+03  0.92759286565E+03  0.00000000000E+00 0. -1.
         23    2    1    2    0    0 -0.31252236333E+02  0.50061234101E+03 -0.56044066542E+03  0.75766201740E+03  0.91479915290E+02 0.  0.
         11    1    3    3    0    0  0.26373965353E+02  0.17292962633E+03 -0.22746292704E+03  0.28694881929E+03  0.00000000000E+00 0. -1.
        -11    1    3    3    0    0 -0.57626201685E+02  0.32768271468E+03 -0.33297773838E+03  0.47071319811E+03  0.00000000000E+00 0.  1.
         22    1    1    2    0    0  0.31252236333E+02 -0.50061234101E+03 -0.34323167356E+02  0.50275988112E+03  0.00000000000E+00 0.  1.
<mgrwt>
<rscale>  0 0.11112692E+04</rscale>
<asrwt>0</asrwt>
<pdfrwt beam="1">  1        1 0.14270659E+00 0.11112692E+04</pdfrwt>
<pdfrwt beam="2">  1       -1 0.51204467E-01 0.11112692E+04</pdfrwt>
<totfact> 0.65965968E+01</totfact>
</mgrwt>
</event>
<event>
 6    1  0.1614874E-005  0.3580248E+04  0.7818608E-02  0.8095031E-01
          1   -1    0    0  501    0  0.00000000000E+00  0.00000000000E+00  0.17326194577E+04  0.17326194577E+04  0.00000000000E+00 0. -1.
         -1   -1    0    0    0  501 -0.00000000000E+00 -0.00000000000E+00 -0.18495371079E+04  0.18495371079E+04  0.00000000000E+00 0.  1.
         23    2    1    2    0    0 -0.13814789759E+04  0.41553409338E+03  0.10002497117E+04  0.17575427275E+04  0.85464669278E+02 0.  0.
         13    1    3    3    0    0 -0.11320182418E+04  0.33346314665E+03  0.85641707346E+03  0.14581197391E+04  0.00000000000E+00 0. -1.
        -13    1    3    3    0    0 -0.24946073406E+03  0.82070946730E+02  0.14383263828E+03  0.29942298838E+03  0.00000000000E+00 0.  1.
         22    1    1    2    0    0  0.13814789759E+04 -0.41553409338E+03 -0.11171673619E+04  0.18246138381E+04  0.00000000000E+00 0.  1.
<mgrwt>
<rscale>  0 0.35802480E+04</rscale>
<asrwt>0</asrwt>
<pdfrwt beam="1">  1        1 0.26655684E+00 0.35802480E+04</pdfrwt>
<pdfrwt beam="2">  1       -1 0.28454417E+00 0.35802480E+04</pdfrwt>
<totfact> 0.15260958E-01</totfact>
</mgrwt>
</event>
<event>
 6    1  0.1614874E-005  0.4472393E+04  0.7818608E-02  0.7915488E-01
         -1   -1    0    0    0  501 -0.00000000000E+00  0.00000000000E+00  0.34337911050E+04  0.34337911050E+04  0.00000000000E+00 0.  1.
          1   -1    0    0  501    0  0.00000000000E+00 -0.00000000000E+00 -0.14562839013E+04  0.14562839013E+04  0.00000000000E+00 0. -1.
         23    2    1    2    0    0  0.19394561607E+04 -0.11021029682E+04  0.83557627948E+03  0.23840567727E+04  0.97045478039E+02 0.  0.
         13    1    3    3    0    0  0.11412703602E+04 -0.68536389268E+03  0.46074060903E+03  0.14087241068E+04  0.00000000000E+00 0. -1.
        -13    1    3    3    0    0  0.79818580057E+03 -0.41673907550E+03  0.37483567045E+03  0.97533266587E+03  0.00000000000E+00 0.  1.
         22    1    1    2    0    0 -0.19394561607E+04  0.11021029682E+04  0.11419309242E+04  0.25060182337E+04  0.00000000000E+00 0. -1.
<mgrwt>
<rscale>  0 0.44723930E+04</rscale>
<asrwt>0</asrwt>
<pdfrwt beam="1">  1        1 0.22404368E+00 0.44723930E+04</pdfrwt>
<pdfrwt beam="2">  1       -1 0.52827555E+00 0.44723930E+04</pdfrwt>
<totfact> 0.52817381E-03</totfact>
</mgrwt>
</event>
<event>
 6    1  0.1614874E-005  0.1632766E+04  0.7818608E-02  0.8800667E-01
         -2   -1    0    0    0  501 -0.00000000000E+00  0.00000000000E+00  0.45658419714E+03  0.45658419714E+03  0.00000000000E+00 0.  1.
          2   -1    0    0  501    0  0.00000000000E+00 -0.00000000000E+00 -0.14597122195E+04  0.14597122195E+04  0.00000000000E+00 0. -1.
         23    2    1    2    0    0  0.18032959474E+02  0.81408765326E+03 -0.49166239281E+03  0.95470347520E+03  0.81626725036E+02 0.  0.
         13    1    3    3    0    0  0.30427400617E+02  0.11127229839E+03 -0.64525283632E+02  0.13217739340E+03  0.00000000000E+00 0.  1.
        -13    1    3    3    0    0 -0.12394441143E+02  0.70281535487E+03 -0.42713710918E+03  0.82252608181E+03  0.00000000000E+00 0. -1.
         22    1    1    2    0    0 -0.18032959474E+02 -0.81408765326E+03 -0.51146562958E+03  0.96159294146E+03  0.00000000000E+00 0.  1.
<mgrwt>
<rscale>  0 0.16327664E+04</rscale>
<asrwt>0</asrwt>
<pdfrwt beam="1">  1        2 0.22457111E+00 0.16327664E+04</pdfrwt>
<pdfrwt beam="2">  1       -2 0.70243723E-01 0.16327664E+04</pdfrwt>
<totfact> 0.23607775E+01</totfact>
</mgrwt>
</event>
<event>
 6    1  0.1614874E-005  0.2650245E+04  0.7818608E-02  0.8351332E-01
          2   -1    0    0  501    0  0.00000000000E+00  0.00000000000E+00  0.42032514958E+04  0.42032514958E+04  0.00000000000E+00 0. -1.
         -2   -1    0    0    0  501 -0.00000000000E+00 -0.00000000000E+00 -0.41775985400E+03  0.41775985400E+03  0.00000000000E+00 0.  1.
         23    2    1    2    0    0 -0.25027369702E+02  0.13145935148E+04  0.21582735796E+04  0.25289738022E+04  0.93707894977E+02 0.  0.
         13    1    3    3    0    0 -0.44918679582E+02  0.36374305139E+03  0.56654818579E+03  0.67476184097E+03  0.00000000000E+00 0.  1.
        -13    1    3    3    0    0  0.19891309880E+02  0.95085046343E+03  0.15917253938E+04  0.18542119613E+04  0.00000000000E+00 0. -1.
         22    1    1    2    0    0  0.25027369702E+02 -0.13145935148E+04  0.16272180622E+04  0.20920375475E+04  0.00000000000E+00 0.  1.
<mgrwt>
<rscale>  0 0.26502451E+04</rscale>
<asrwt>0</asrwt>
<pdfrwt beam="1">  1        2 0.64665405E+00 0.26502451E+04</pdfrwt>
<pdfrwt beam="2">  1       -2 0.64270750E-01 0.26502451E+04</pdfrwt>
<totfact> 0.45636074E-01</totfact>
</mgrwt>
</event>
<event>
 6    1  0.1614874E-005  0.2043526E+04  0.7818608E-02  0.8586537E-01
         -2   -1    0    0    0  501 -0.00000000000E+00  0.00000000000E+00  0.75378754177E+03  0.75378754177E+03  0.00000000000E+00 0.  1.
          2   -1    0    0  501    0  0.00000000000E+00 -0.00000000000E+00 -0.13850051630E+04  0.13850051630E+04  0.00000000000E+00 0. -1.
         23    2    1    2    0    0  0.95079818948E+03 -0.36220633282E+03 -0.39110477516E+03  0.10933909621E+04  0.85616740755E+02 0.  0.
         11    1    3    3    0    0  0.34869934127E+03 -0.89809733958E+02 -0.14594981276E+03  0.38853361085E+03  0.00000000000E+00 0. -1.
        -11    1    3    3    0    0  0.60209884821E+03 -0.27239659886E+03 -0.24515496241E+03  0.70485735130E+03  0.00000000000E+00 0.  1.
         22    1    1    2    0    0 -0.95079818948E+03  0.36220633282E+03 -0.24011284607E+03  0.10454017426E+04  0.00000000000E+00 0. -1.
<mgrwt>
<rscale>  0 0.20435260E+04</rscale>
<asrwt>0</asrwt>
<pdfrwt beam="1">  1        2 0.21307772E+00 0.20435260E+04</pdfrwt>
<pdfrwt beam="2">  1       -2 0.11596731E+00 0.20435260E+04</pdfrwt>
<totfact> 0.78954467E+00</totfact>
</mgrwt>
</event>
<event>
 6    1  0.1614874E-005  0.1261375E+04  0.7818608E-02  0.9060768E-01
          2   -1    0    0  501    0  0.00000000000E+00  0.00000000000E+00  0.17047632445E+04  0.17047632445E+04  0.00000000000E+00 0. -1.
         -2   -1    0    0    0  501 -0.00000000000E+00 -0.00000000000E+00 -0.23332680608E+03  0.23332680608E+03  0.00000000000E+00 0.  1.
         23    2    1    2    0    0 -0.10493113978E+03  0.22669252597E+03  0.16238367903E+04  0.16454709933E+04  0.91262383380E+02 0.  0.
         13    1    3    3    0    0 -0.70804274171E+02  0.14352726087E+03  0.74196401701E+03  0.75902827510E+03  0.00000000000E+00 0.  1.
        -13    1    3    3    0    0 -0.34126865614E+02  0.83165265099E+02  0.88187277333E+03  0.88644271819E+03  0.00000000000E+00 0. -1.
         22    1    1    2    0    0  0.10493113978E+03 -0.22669252597E+03 -0.15240035192E+03  0.29261905730E+03  0.00000000000E+00 0.  1.
<mgrwt>
<rscale>  0 0.12613754E+04</rscale>
<asrwt>0</asrwt>
<pdfrwt beam="1">  1        2 0.26227126E+00 0.12613754E+04</pdfrwt>
<pdfrwt beam="2">  1       -2 0.35896433E-01 0.12613754E+04</pdfrwt>
<totfact> 0.69894387E+01</totfact>
</mgrwt>
</event>
<event>
 6    1  0.1614874E-005  0.1446437E+04  0.7818608E-02  0.8920874E-01
          2   -1    0    0  501    0  0.00000000000E+00  0.00000000000E+00  0.31750733546E+04  0.31750733546E+04  0.00000000000E+00 0. -1.
         -2   -1    0    0    0  501 -0.00000000000E+00 -0.00000000000E+00 -0.16473473513E+03  0.16473473513E+03  0.00000000000E+00 0.  1.
         23    2    1    2    0    0  0.17368349316E+03 -0.81400725303E+02  0.31143594521E+04  0.31216055061E+04  0.91619350373E+02 0.  0.
         13    1    3    3    0    0  0.10845677119E+03 -0.96990742327E+02  0.21434794160E+04  0.21484119908E+04  0.00000000000E+00 0. -1.
        -13    1    3    3    0    0  0.65226721974E+02  0.15590017025E+02  0.97088003604E+03  0.97319351532E+03  0.00000000000E+00 0.  1.
         22    1    1    2    0    0 -0.17368349316E+03  0.81400725303E+02 -0.10402083259E+03  0.21820258360E+03  0.00000000000E+00 0.  1.
<mgrwt>
<rscale>  0 0.14464368E+04</rscale>
<asrwt>0</asrwt>
<pdfrwt beam="1">  1        2 0.48847278E+00 0.14464368E+04</pdfrwt>
<pdfrwt beam="2">  1       -2 0.25343808E-01 0.14464368E+04</pdfrwt>
<totfact> 0.18468776E+01</totfact>
</mgrwt>
</event>
<event>
 6    1  0.1614874E-005  0.1210470E+04  0.7818608E-02  0.9103741E-01
          1   -1    0    0  501    0  0.00000000000E+00  0.00000000000E+00  0.18686307129E+04  0.18686307129E+04  0.00000000000E+00 0. -1.
         -1   -1    0    0    0  501 -0.00000000000E+00 -0.00000000000E+00 -0.19603103967E+03  0.19603103967E+03  0.00000000000E+00 0.  1.
         23    2    1    2    0    0  0.14677556586E+03 -0.54274560178E+03  0.47578372406E+03  0.74235911279E+03  0.92795717988E+02 0.  0.
         11    1    3    3    0    0  0.13161959347E+03 -0.38830196693E+03  0.38577142302E+03  0.56295801417E+03  0.00000000000E+00 0. -1.
        -11    1    3    3    0    0  0.15155972388E+02 -0.15444363485E+03  0.90012301039E+02  0.17940109861E+03  0.00000000000E+00 0.  1.
         22    1    1    2    0    0 -0.14677556586E+03  0.54274560178E+03  0.11968159492E+04  0.13223026398E+04  0.00000000000E+00 0. -1.
<mgrwt>
<rscale>  0 0.12104704E+04</rscale>
<asrwt>0</asrwt>
<pdfrwt beam="1">  1        1 0.28748164E+00 0.12104704E+04</pdfrwt>
<pdfrwt beam="2">  1       -1 0.30158623E-01 0.12104704E+04</pdfrwt>
<totfact> 0.36624746E+01</totfact>
</mgrwt>
</event>
<event>
 6    1  0.1614874E-005  0.2028275E+04  0.7818608E-02  0.8593514E-01
          1   -1    0    0  501    0  0.00000000000E+00  0.00000000000E+00  0.98816823432E+03  0.98816823432E+03  0.00000000000E+00 0. -1.
         -1   -1    0    0    0  501 -0.00000000000E+00 -0.00000000000E+00 -0.10407888609E+04  0.10407888609E+04  0.00000000000E+00 0.  1.
         23    2    1    2    0    0 -0.42406942557E+03 -0.39158229424E+03 -0.85795145084E+03  0.10381345544E+04  0.92038525937E+02 0.  0.
         11    1    3    3    0    0 -0.25409601801E+03 -0.26632237423E+03 -0.61009901481E+03  0.71253996467E+03  0.00000000000E+00 0. -1.
        -11    1    3    3    0    0 -0.16997340757E+03 -0.12525992001E+03 -0.24785243603E+03  0.32559458977E+03  0.00000000000E+00 0.  1.
         22    1    1    2    0    0  0.42406942557E+03  0.39158229424E+03  0.80533082424E+03  0.99082254079E+03  0.00000000000E+00 0. -1.
<mgrwt>
<rscale>  0 0.20282746E+04</rscale>
<asrwt>0</asrwt>
<pdfrwt beam="1">  1        1 0.15202588E+00 0.20282746E+04</pdfrwt>
<pdfrwt beam="2">  1       -1 0.16012136E+00 0.20282746E+04</pdfrwt>
<totfact> 0.41718003E+00</totfact>
</mgrwt>
</event>
<event>
 6    1  0.1614874E-005  0.1130491E+04  0.7818608E-02  0.9175972E-01
          1   -1    0    0  501    0  0.00000000000E+00  0.00000000000E+00  0.96695999754E+03  0.96695999754E+03  0.00000000000E+00 0. -1.
         -1   -1    0    0    0  501 -0.00000000000E+00 -0.00000000000E+00 -0.33041967271E+03  0.33041967271E+03  0.00000000000E+00 0.  1.
         23    2    1    2    0    0 -0.41382510378E+03 -0.24590000544E+03 -0.12227831838E+02  0.48953181928E+03  0.88169456321E+02 0.  0.
         13    1    3    3    0    0 -0.34561996100E+03 -0.19358702451E+03  0.22600629379E+02  0.39678694780E+03  0.00000000000E+00 0.  1.
        -13    1    3    3    0    0 -0.68205142784E+02 -0.52312980925E+02 -0.34828461216E+02  0.92744871481E+02  0.00000000000E+00 0. -1.
         22    1    1    2    0    0  0.41382510378E+03  0.24590000544E+03  0.64876815667E+03  0.80784785096E+03  0.00000000000E+00 0. -1.
<mgrwt>
<rscale>  0 0.11304912E+04</rscale>
<asrwt>0</asrwt>
<pdfrwt beam="1">  1        1 0.14876308E+00 0.11304912E+04</pdfrwt>
<pdfrwt beam="2">  1       -1 0.50833796E-01 0.11304912E+04</pdfrwt>
<totfact> 0.62120329E+01</totfact>
</mgrwt>
</event>
<event>
 6    1  0.1614874E-005  0.2267223E+04  0.7818608E-02  0.8490958E-01
         -1   -1    0    0    0  501 -0.00000000000E+00  0.00000000000E+00  0.10588956439E+04  0.10588956439E+04  0.00000000000E+00 0.  1.
          1   -1    0    0  501    0  0.00000000000E+00 -0.00000000000E+00 -0.12135989599E+04  0.12135989599E+04  0.00000000000E+00 0. -1.
         23    2    1    2    0    0  0.34187853474E+03 -0.71443123136E+03 -0.88750924639E+03  0.11934684464E+04  0.96960575644E+02 0.  0.
         11    1    3    3    0    0  0.21318057978E+03 -0.45959390799E+03 -0.63491368625E+03  0.81227329689E+03  0.00000000000E+00 0.  1.
        -11    1    3    3    0    0  0.12869795497E+03 -0.25483732338E+03 -0.25259556014E+03  0.38119514950E+03  0.00000000000E+00 0. -1.
         22    1    1    2    0    0 -0.34187853474E+03  0.71443123136E+03  0.73280593041E+03  0.10790261575E+04  0.00000000000E+00 0.  1.
<mgrwt>
<rscale>  0 0.22672227E+04</rscale>
<asrwt>0</asrwt>
<pdfrwt beam="1">  1        1 0.18670753E+00 0.22672227E+04</pdfrwt>
<pdfrwt beam="2">  1       -1 0.16290702E+00 0.22672227E+04</pdfrwt>
<totfact> 0.26304129E+00</totfact>
</mgrwt>
</event>
<event>
 6    1  0.1614874E-005  0.1060927E+04  0.7818608E-02  0.9244135E-01
         -2   -1    0    0    0  501 -0.00000000000E+00  0.00000000000E+00  0.28444877307E+03  0.28444877307E+03  0.00000000000E+00 0.  1.
          2   -1    0    0  501    0  0.00000000000E+00 -0.00000000000E+00 -0.98925227278E+03  0.98925227278E+03  0.00000000000E+00 0. -1.
         23    2    1    2    0    0  0.37030505085E+03  0.80078082712E+02 -0.79391025215E+03  0.88449885758E+03  0.92230204295E+02 0.  0.
         13    1    3    3    0    0  0.88510640377E+02  0.21635671369E+02 -0.29254795393E+03  0.30640910738E+03  0.00000000000E+00 0. -1.
        -13    1    3    3    0    0  0.28179441048E+03  0.58442411343E+02 -0.50136229821E+03  0.57808975020E+03  0.00000000000E+00 0.  1.
         22    1    1    2    0    0 -0.37030505085E+03 -0.80078082712E+02  0.89106752439E+02  0.38920218826E+03  0.00000000000E+00 0.  1.
<mgrwt>
<rscale>  0 0.10609271E+04</rscale>
<asrwt>0</asrwt>
<pdfrwt beam="1">  1        2 0.15219265E+00 0.10609271E+04</pdfrwt>
<pdfrwt beam="2">  1       -2 0.43761351E-01 0.10609271E+04</pdfrwt>
<totfact> 0.12604400E+02</totfact>
</mgrwt>
</event>
<event>
 6    1  0.1614874E-005  0.2803800E+04  0.7818608E-02  0.8302090E-01
         -2   -1    0    0    0  501 -0.00000000000E+00  0.00000000000E+00  0.21355669366E+04  0.21355669366E+04  0.00000000000E+00 0. -1.
          2   -1    0    0  501    0  0.00000000000E+00 -0.00000000000E+00 -0.92028198693E+03  0.92028198693E+03  0.00000000000E+00 0.  1.
         23    2    1    2    0    0 -0.53047118413E+03  0.92619260609E+03 -0.37982832543E+03  0.11365733359E+04  0.91087707025E+02 0.  0.
         13    1    3    3    0    0 -0.29583847659E+03  0.51009122911E+03 -0.25763190165E+03  0.64349643588E+03  0.00000000000E+00 0.  1.
        -13    1    3    3    0    0 -0.23463270754E+03  0.41610137697E+03 -0.12219642378E+03  0.49307690004E+03  0.00000000000E+00 0. -1.
         22    1    1    2    0    0  0.53047118413E+03 -0.92619260609E+03  0.15951132751E+04  0.19192755876E+04  0.00000000000E+00 0. -1.
<mgrwt>
<rscale>  0 0.28038001E+04</rscale>
<asrwt>0</asrwt>
<pdfrwt beam="1">  1        2 0.14158184E+00 0.28038001E+04</pdfrwt>
<pdfrwt beam="2">  1       -2 0.32854876E+00 0.28038001E+04</pdfrwt>
<totfact> 0.52383845E-01</totfact>
</mgrwt>
</event>
<event>
 6    1  0.1614874E-005  0.1884698E+04  0.7818608E-02  0.8662511E-01
          2   -1    0    0  501    0  0.00000000000E+00  0.00000000000E+00  0.13421274890E+04  0.13421274890E+04  0.00000000000E+00 0.  1.
         -2   -1    0    0    0  501 -0.00000000000E+00 -0.00000000000E+00 -0.66165206490E+03  0.66165206490E+03  0.00000000000E+00 0. -1.
         23    2    1    2    0    0 -0.49506089032E+03  0.79546479702E+03  0.26083774702E+03  0.97716116890E+03  0.94647193918E+02 0.  0.
         11    1    3    3    0    0 -0.80266752422E+02  0.75745461693E+02  0.19050339221E+02  0.11199572285E+03  0.00000000000E+00 0. -1.
        -11    1    3    3    0    0 -0.41479413790E+03  0.71971933532E+03  0.24178740780E+03  0.86516544605E+03  0.00000000000E+00 0.  1.
         22    1    1    2    0    0  0.49506089032E+03 -0.79546479702E+03  0.41963767711E+03  0.10266183850E+04  0.00000000000E+00 0. -1.
<mgrwt>
<rscale>  0 0.18846978E+04</rscale>
<asrwt>0</asrwt>
<pdfrwt beam="1">  1        2 0.20648115E+00 0.18846978E+04</pdfrwt>
<pdfrwt beam="2">  1       -2 0.10179263E+00 0.18846978E+04</pdfrwt>
<totfact> 0.11602696E+01</totfact>
</mgrwt>
</event>
<event>
 6    1  0.1614874E-005  0.1226085E+04  0.7818608E-02  0.9090326E-01
         -3   -1    0    0    0  501 -0.00000000000E+00  0.00000000000E+00  0.11781967340E+04  0.11781967340E+04  0.00000000000E+00 0.  1.
          3   -1    0    0  501    0  0.00000000000E+00 -0.00000000000E+00 -0.31898014089E+03  0.31898014089E+03  0.00000000000E+00 0. -1.
         23    2    1    2    0    0  0.41544890302E+03 -0.17998086318E+03 -0.66379002117E+02  0.46677981160E+03  0.92121216187E+02 0.  0.
         11    1    3    3    0    0  0.36300243693E+03 -0.16293960329E+03 -0.88064615604E+02  0.40752356994E+03  0.00000000000E+00 0. -1.
        -11    1    3    3    0    0  0.52446466089E+02 -0.17041259885E+02  0.21685613487E+02  0.59256241663E+02  0.00000000000E+00 0.  1.
         22    1    1    2    0    0 -0.41544890302E+03  0.17998086318E+03  0.92559559518E+03  0.10303970632E+04  0.00000000000E+00 0.  1.
<mgrwt>
<rscale>  0 0.12260854E+04</rscale>
<asrwt>0</asrwt>
<pdfrwt beam="1">  1        3 0.49073869E-01 0.12260854E+04</pdfrwt>
<pdfrwt beam="2">  1       -3 0.18126103E+00 0.12260854E+04</pdfrwt>
<totfact> 0.20638736E+00</totfact>
</mgrwt>
</event>
<event>
 6    1  0.1614874E-005  0.1375040E+04  0.7818608E-02  0.8972087E-01
         -2   -1    0    0    0  501 -0.00000000000E+00  0.00000000000E+00  0.28345280680E+03  0.28345280680E+03  0.00000000000E+00 0.  1.
          2   -1    0    0  501    0  0.00000000000E+00 -0.00000000000E+00 -0.16675912536E+04  0.16675912536E+04  0.00000000000E+00 0. -1.
         23    2    1    2    0    0  0.50455476838E+03 -0.34983614075E+03 -0.26927702928E+03  0.67830024489E+03  0.10305466536E+03 0.  0.
         13    1    3    3    0    0  0.28238070809E+03 -0.20819822855E+03 -0.20774317755E+03  0.40772857944E+03  0.00000000000E+00 0.  1.
        -13    1    3    3    0    0  0.22217406028E+03 -0.14163791220E+03 -0.61533851735E+02  0.27057166545E+03  0.00000000000E+00 0. -1.
         22    1    1    2    0    0 -0.50455476838E+03  0.34983614075E+03 -0.11148614175E+04  0.12727438155E+04  0.00000000000E+00 0. -1.
<mgrwt>
<rscale>  0 0.13750395E+04</rscale>
<asrwt>0</asrwt>
<pdfrwt beam="1">  1        2 0.25655249E+00 0.13750395E+04</pdfrwt>
<pdfrwt beam="2">  1       -2 0.43608126E-01 0.13750395E+04</pdfrwt>
<totfact> 0.49697016E+01</totfact>
</mgrwt>
</event>
<event>
 6    1  0.1614874E-005  0.4054539E+04  0.7818608E-02  0.7993634E-01
         -2   -1    0    0    0  501 -0.00000000000E+00  0.00000000000E+00  0.18561903644E+04  0.18561903644E+04  0.00000000000E+00 0.  1.
          2   -1    0    0  501    0  0.00000000000E+00 -0.00000000000E+00 -0.22141163441E+04  0.22141163441E+04  0.00000000000E+00 0. -1.
         23    2    1    2    0    0 -0.18881828034E+04 -0.42749993261E+03  0.42146184878E+03  0.19833386017E+04  0.89506578615E+02 0.  0.
         11    1    3    3    0    0 -0.75703596190E+03 -0.13925541829E+03  0.13622202366E+03  0.78169812515E+03  0.00000000000E+00 0. -1.
        -11    1    3    3    0    0 -0.11311468415E+04 -0.28824451433E+03  0.28523982512E+03  0.12016404766E+04  0.00000000000E+00 0.  1.
         22    1    1    2    0    0  0.18881828034E+04  0.42749993261E+03 -0.77938782841E+03  0.20869681068E+04  0.00000000000E+00 0. -1.
<mgrwt>
<rscale>  0 0.40545389E+04</rscale>
<asrwt>0</asrwt>
<pdfrwt beam="1">  1        2 0.34063329E+00 0.40545389E+04</pdfrwt>
<pdfrwt beam="2">  1       -2 0.28556775E+00 0.40545389E+04</pdfrwt>
<totfact> 0.15508946E-01</totfact>
</mgrwt>
</event>
<event>
 6    1  0.1614874E-005  0.1338531E+04  0.7818608E-02  0.8999555E-01
         -1   -1    0    0    0  501 -0.00000000000E+00  0.00000000000E+00  0.54568037158E+03  0.54568037158E+03  0.00000000000E+00 0.  1.
          1   -1    0    0  501    0  0.00000000000E+00 -0.00000000000E+00 -0.82084058237E+03  0.82084058237E+03  0.00000000000E+00 0. -1.
         23    2    1    2    0    0 -0.59820346707E+03 -0.20774282074E+03 -0.34937983950E+03  0.72893721760E+03  0.90987512101E+02 0.  0.
         13    1    3    3    0    0 -0.20551570406E+03 -0.53728630756E+02 -0.16314818963E+03  0.26784473517E+03  0.00000000000E+00 0.  1.
        -13    1    3    3    0    0 -0.39268776301E+03 -0.15401418998E+03 -0.18623164987E+03  0.46109248242E+03  0.00000000000E+00 0. -1.
         22    1    1    2    0    0  0.59820346707E+03  0.20774282074E+03  0.74219628713E+02  0.63758373636E+03  0.00000000000E+00 0.  1.
<mgrwt>
<rscale>  0 0.13385314E+04</rscale>
<asrwt>0</asrwt>
<pdfrwt beam="1">  1        1 0.12628316E+00 0.13385314E+04</pdfrwt>
<pdfrwt beam="2">  1       -1 0.83950827E-01 0.13385314E+04</pdfrwt>
<totfact> 0.29234144E+01</totfact>
</mgrwt>
</event>
<event>
 6    1  0.1614874E-005  0.1032523E+04  0.7818608E-02  0.9273576E-01
         -2   -1    0    0    0  501 -0.00000000000E+00  0.00000000000E+00  0.42343836107E+03  0.42343836107E+03  0.00000000000E+00 0.  1.
          2   -1    0    0  501    0  0.00000000000E+00 -0.00000000000E+00 -0.62943304557E+03  0.62943304557E+03  0.00000000000E+00 0. -1.
         23    2    1    2    0    0  0.31399559473E+03  0.22218523705E+03 -0.44911994732E+03  0.59782261091E+03  0.87884207726E+02 0.  0.
         11    1    3    3    0    0  0.28881942707E+03  0.22655329750E+03 -0.40314331241E+03  0.54522251274E+03  0.00000000000E+00 0.  1.
        -11    1    3    3    0    0  0.25176167652E+02 -0.43680604465E+01 -0.45976634912E+02  0.52600098170E+02  0.00000000000E+00 0. -1.
         22    1    1    2    0    0 -0.31399559473E+03 -0.22218523705E+03  0.24312526282E+03  0.45504879572E+03  0.00000000000E+00 0.  1.
<mgrwt>
<rscale>  0 0.10325233E+04</rscale>
<asrwt>0</asrwt>
<pdfrwt beam="1">  1        2 0.96835853E-01 0.10325233E+04</pdfrwt>
<pdfrwt beam="2">  1       -2 0.65144363E-01 0.10325233E+04</pdfrwt>
<totfact> 0.10137337E+02</totfact>
</mgrwt>
</event>
<event>
 6    1  0.1614874E-005  0.2353575E+04  0.7818608E-02  0.8457092E-01
          2   -1    0    0  501    0  0.00000000000E+00  0.00000000000E+00  0.28697121502E+04  0.28697121502E+04  0.00000000000E+00 0. -1.
         -2   -1    0    0    0  501 -0.00000000000E+00 -0.00000000000E+00 -0.48256717410E+03  0.48256717410E+03  0.00000000000E+00 0.  1.
         23    2    1    2    0    0  0.74584568527E+03 -0.80504099368E+03  0.59696637201E+03  0.12524897581E+04  0.89358587507E+02 0.  0.
         11    1    3    3    0    0  0.54233247457E+03 -0.52709970263E+03  0.42386162500E+03  0.86695864183E+03  0.00000000000E+00 0.  1.
        -11    1    3    3    0    0  0.20351321070E+03 -0.27794129105E+03  0.17310474701E+03  0.38553111630E+03  0.00000000000E+00 0. -1.
         22    1    1    2    0    0 -0.74584568527E+03  0.80504099368E+03  0.17901786041E+04  0.20997895662E+04  0.00000000000E+00 0. -1.
<mgrwt>
<rscale>  0 0.23535751E+04</rscale>
<asrwt>0</asrwt>
<pdfrwt beam="1">  1        2 0.44149416E+00 0.23535751E+04</pdfrwt>
<pdfrwt beam="2">  1       -2 0.74241106E-01 0.23535751E+04</pdfrwt>
<totfact> 0.30925866E+00</totfact>
</mgrwt>
</event>
<event>
 6    1  0.1614874E-005  0.2809639E+04  0.7818608E-02  0.8300282E-01
         -1   -1    0    0    0  501 -0.00000000000E+00  0.00000000000E+00  0.23932918174E+04  0.23932918174E+04  0.00000000000E+00 0.  1.
          1   -1    0    0  501    0  0.00000000000E+00 -0.00000000000E+00 -0.82460381357E+03  0.82460381357E+03  0.00000000000E+00 0. -1.
         23    2    1    2    0    0  0.81618295977E+03 -0.10989024132E+04  0.43112634071E+03  0.14380676407E+04  0.91801306546E+02 0.  0.
         11    1    3    3    0    0  0.63828024168E+03 -0.91856237904E+03  0.35616539064E+03  0.11738876848E+04  0.00000000000E+00 0.  1.
        -11    1    3    3    0    0  0.17790271808E+03 -0.18034003419E+03  0.74960950068E+02  0.26417995584E+03  0.00000000000E+00 0. -1.
         22    1    1    2    0    0 -0.81618295977E+03  0.10989024132E+04  0.11375616631E+04  0.17798279903E+04  0.00000000000E+00 0.  1.
<mgrwt>
<rscale>  0 0.28096388E+04</rscale>
<asrwt>0</asrwt>
<pdfrwt beam="1">  1        1 0.12686213E+00 0.28096388E+04</pdfrwt>
<pdfrwt beam="2">  1       -1 0.36819874E+00 0.28096388E+04</pdfrwt>
<totfact> 0.21388704E-01</totfact>
</mgrwt>
</event>
<event>
 6    1  0.1614874E-005  0.1853697E+04  0.7818608E-02  0.8678254E-01
         -2   -1    0    0    0  501 -0.00000000000E+00  0.00000000000E+00  0.69032303464E+03  0.69032303464E+03  0.00000000000E+00 0.  1.
          2   -1    0    0  501    0  0.00000000000E+00 -0.00000000000E+00 -0.12444147394E+04  0.12444147394E+04  0.00000000000E+00 0. -1.
         23    2    1    2    0    0  0.13256868059E+03  0.50303545070E+03  0.51993678281E+03  0.74135756982E+03  0.93046593063E+02 0.  0.
         13    1    3    3    0    0  0.86512159243E+02  0.16787803928E+03  0.16169577909E+03  0.24862203190E+03  0.00000000000E+00 0. -1.
        -13    1    3    3    0    0  0.46056521347E+02  0.33515741142E+03  0.35824100372E+03  0.49273553792E+03  0.00000000000E+00 0.  1.
         22    1    1    2    0    0 -0.13256868059E+03 -0.50303545070E+03 -0.10740284876E+04  0.11933802043E+04  0.00000000000E+00 0. -1.
<mgrwt>
<rscale>  0 0.18536970E+04</rscale>
<asrwt>0</asrwt>
<pdfrwt beam="1">  1        2 0.19144842E+00 0.18536970E+04</pdfrwt>
<pdfrwt beam="2">  1       -2 0.10620355E+00 0.18536970E+04</pdfrwt>
<totfact> 0.11984564E+01</totfact>
</mgrwt>
</event>
<event>
 6    1  0.1614874E-005  0.2848598E+04  0.7818608E-02  0.8288337E-01
         -2   -1    0    0    0  501 -0.00000000000E+00  0.00000000000E+00  0.77763570247E+03  0.77763570247E+03  0.00000000000E+00 0.  1.
          2   -1    0    0  501    0  0.00000000000E+00 -0.00000000000E+00 -0.26087127990E+04  0.26087127990E+04  0.00000000000E+00 0. -1.
         23    2    1    2    0    0  0.30203499778E+03 -0.73824520098E+03  0.48412654874E+03  0.93759391277E+03  0.92047343301E+02 0.  0.
         13    1    3    3    0    0  0.99925465624E+02 -0.28991801894E+03  0.23480042327E+03  0.38622376306E+03  0.00000000000E+00 0.  1.
        -13    1    3    3    0    0  0.20210953215E+03 -0.44832718204E+03  0.24932612547E+03  0.55137014970E+03  0.00000000000E+00 0. -1.
         22    1    1    2    0    0 -0.30203499778E+03  0.73824520098E+03 -0.23152036453E+04  0.24487545888E+04  0.00000000000E+00 0. -1.
<mgrwt>
<rscale>  0 0.28485984E+04</rscale>
<asrwt>0</asrwt>
<pdfrwt beam="1">  1        2 0.40134042E+00 0.28485984E+04</pdfrwt>
<pdfrwt beam="2">  1       -2 0.11963627E+00 0.28485984E+04</pdfrwt>
<totfact> 0.13942216E+00</totfact>
</mgrwt>
</event>
<event>
 6    1  0.1614874E-005  0.8233962E+03  0.7818608E-02  0.9526756E-01
          2   -1    0    0  501    0  0.00000000000E+00  0.00000000000E+00  0.22637599973E+04  0.22637599973E+04  0.00000000000E+00 0. -1.
         -2   -1    0    0    0  501 -0.00000000000E+00 -0.00000000000E+00 -0.74873359240E+02  0.74873359240E+02  0.00000000000E+00 0.  1.
         23    2    1    2    0    0 -0.85191779492E+02  0.46403083726E+02  0.22294734059E+04  0.22334755171E+04  0.91925689813E+02 0.  0.
         13    1    3    3    0    0 -0.97150199682E+02  0.35362064398E+02  0.13881277489E+04  0.13919724437E+04  0.00000000000E+00 0. -1.
        -13    1    3    3    0    0  0.11958420190E+02  0.11041019328E+02  0.84134565704E+03  0.84150307340E+03  0.00000000000E+00 0.  1.
         22    1    1    2    0    0  0.85191779492E+02 -0.46403083726E+02 -0.40586767830E+02  0.10515783944E+03  0.00000000000E+00 0.  1.
<mgrwt>
<rscale>  0 0.82339618E+03</rscale>
<asrwt>0</asrwt>
<pdfrwt beam="1">  1        2 0.34827072E+00 0.82339618E+03</pdfrwt>
<pdfrwt beam="2">  1       -2 0.11518980E-01 0.82339618E+03</pdfrwt>
<totfact> 0.26509456E+02</totfact>
</mgrwt>
</event>
<event>
 6    1  0.1614874E-005  0.4734728E+04  0.7818608E-02  0.7870784E-01
          2   -1    0    0  501    0  0.00000000000E+00  0.00000000000E+00  0.44887527802E+04  0.44887527802E+04  0.00000000000E+00 0. -1.
         -2   -1    0    0    0  501 -0.00000000000E+00 -0.00000000000E+00 -0.12485454805E+04  0.12485454805E+04  0.00000000000E+00 0.  1.
         23    2    1    2    0    0  0.89257268208E+03 -0.23078716729E+03 -0.10203273212E+04  0.13781579825E+04  0.91120100707E+02 0.  0.
         11    1    3    3    0    0  0.29967144134E+03 -0.12229037170E+03 -0.35934996802E+03  0.48362207071E+03  0.00000000000E+00 0. -1.
        -11    1    3    3    0    0  0.59290124074E+03 -0.10849679559E+03 -0.66097735322E+03  0.89453591174E+03  0.00000000000E+00 0.  1.
         22    1    1    2    0    0 -0.89257268208E+03  0.23078716729E+03  0.42605346209E+04  0.43591402782E+04  0.00000000000E+00 0. -1.
<mgrwt>
<rscale>  0 0.47347279E+04</rscale>
<asrwt>0</asrwt>
<pdfrwt beam="1">  1        2 0.69057734E+00 0.47347279E+04</pdfrwt>
<pdfrwt beam="2">  1       -2 0.19208392E+00 0.47347279E+04</pdfrwt>
<totfact> 0.13959555E-02</totfact>
</mgrwt>
</event>
<event>
 6    1  0.1614874E-005  0.2995727E+04  0.7818608E-02  0.8244952E-01
          1   -1    0    0  501    0  0.00000000000E+00  0.00000000000E+00  0.14590917363E+04  0.14590917363E+04  0.00000000000E+00 0.  1.
         -1   -1    0    0    0  501 -0.00000000000E+00 -0.00000000000E+00 -0.15376652312E+04  0.15376652312E+04  0.00000000000E+00 0. -1.
         23    2    1    2    0    0  0.29905089742E+03  0.10450981419E+04  0.98955165304E+03  0.14727645472E+04  0.90340311471E+02 0.  0.
         11    1    3    3    0    0  0.19506782704E+03  0.63991532606E+03  0.66540509457E+03  0.94356082027E+03  0.00000000000E+00 0. -1.
        -11    1    3    3    0    0  0.10398307039E+03  0.40518281588E+03  0.32414655846E+03  0.52920372691E+03  0.00000000000E+00 0.  1.
         22    1    1    2    0    0 -0.29905089742E+03 -0.10450981419E+04 -0.10681251479E+04  0.15239924203E+04  0.00000000000E+00 0. -1.
<mgrwt>
<rscale>  0 0.29957267E+04</rscale>
<asrwt>0</asrwt>
<pdfrwt beam="1">  1        1 0.22447565E+00 0.29957267E+04</pdfrwt>
<pdfrwt beam="2">  1       -1 0.23656388E+00 0.29957267E+04</pdfrwt>
<totfact> 0.50790071E-01</totfact>
</mgrwt>
</event>
<event>
 6    1  0.1614874E-005  0.2097107E+04  0.7818608E-02  0.8562519E-01
          1   -1    0    0  501    0  0.00000000000E+00  0.00000000000E+00  0.10393042411E+04  0.10393042411E+04  0.00000000000E+00 0. -1.
         -1   -1    0    0    0  501 -0.00000000000E+00 -0.00000000000E+00 -0.10578848689E+04  0.10578848689E+04  0.00000000000E+00 0.  1.
         23    2    1    2    0    0 -0.35468067180E+03 -0.41142314318E+03  0.88535731922E+03  0.10425938352E+04  0.89871801942E+02 0.  0.
         11    1    3    3    0    0 -0.31793113416E+03 -0.40219510136E+03  0.82633408495E+03  0.97245520491E+03  0.00000000000E+00 0. -1.
        -11    1    3    3    0    0 -0.36749537635E+02 -0.92280418255E+01  0.59023234273E+02  0.70138630272E+02  0.00000000000E+00 0.  1.
         22    1    1    2    0    0  0.35468067180E+03  0.41142314318E+03 -0.90393794697E+03  0.10545952748E+04  0.00000000000E+00 0.  1.
<mgrwt>
<rscale>  0 0.20971068E+04</rscale>
<asrwt>0</asrwt>
<pdfrwt beam="1">  1        1 0.15989296E+00 0.20971068E+04</pdfrwt>
<pdfrwt beam="2">  1       -1 0.16275152E+00 0.20971068E+04</pdfrwt>
<totfact> 0.36146689E+00</totfact>
</mgrwt>
</event>
<event>
 6    1  0.1614874E-005  0.2810801E+04  0.7818608E-02  0.8299923E-01
         -1   -1    0    0    0  501 -0.00000000000E+00  0.00000000000E+00  0.61127958167E+03  0.61127958167E+03  0.00000000000E+00 0.  1.
          1   -1    0    0  501    0  0.00000000000E+00 -0.00000000000E+00 -0.32311748855E+04  0.32311748855E+04  0.00000000000E+00 0. -1.
         23    2    1    2    0    0  0.23202021025E+03  0.89376366629E+03  0.13417943454E+03  0.93770412787E+03  0.92941065269E+02 0.  0.
         13    1    3    3    0    0  0.18076617178E+03  0.74379130689E+03  0.14416884226E+03  0.77890087440E+03  0.00000000000E+00 0.  1.
        -13    1    3    3    0    0  0.51254038463E+02  0.14997235941E+03 -0.99894077202E+01  0.15880325347E+03  0.00000000000E+00 0. -1.
         22    1    1    2    0    0 -0.23202021025E+03 -0.89376366629E+03 -0.27540747384E+04  0.29047503393E+04  0.00000000000E+00 0. -1.
<mgrwt>
<rscale>  0 0.28108015E+04</rscale>
<asrwt>0</asrwt>
<pdfrwt beam="1">  1        1 0.49710384E+00 0.28108015E+04</pdfrwt>
<pdfrwt beam="2">  1       -1 0.94043010E-01 0.28108015E+04</pdfrwt>
<totfact> 0.38134530E-01</totfact>
</mgrwt>
</event>
<event>
 6    1  0.1614874E-005  0.1870528E+04  0.7818608E-02  0.8669667E-01
          2   -1    0    0  501    0  0.00000000000E+00  0.00000000000E+00  0.74657712020E+03  0.74657712020E+03  0.00000000000E+00 0. -1.
         -2   -1    0    0    0  501 -0.00000000000E+00 -0.00000000000E+00 -0.11716383999E+04  0.11716383999E+04  0.00000000000E+00 0.  1.
         23    2    1    2    0    0 -0.79241994794E+03 -0.36484037032E+03 -0.55226606214E+03  0.10366153123E+04  0.92388487815E+02 0.  0.
         11    1    3    3    0    0 -0.21937947035E+03 -0.14322306578E+03 -0.18631112416E+03  0.32148411091E+03  0.00000000000E+00 0.  1.
        -11    1    3    3    0    0 -0.57304047758E+03 -0.22161730454E+03 -0.36595493798E+03  0.71513120143E+03  0.00000000000E+00 0. -1.
         22    1    1    2    0    0  0.79241994794E+03  0.36484037032E+03  0.12720478241E+03  0.88160020779E+03  0.00000000000E+00 0. -1.
<mgrwt>
<rscale>  0 0.18705277E+04</rscale>
<asrwt>0</asrwt>
<pdfrwt beam="1">  1        2 0.11485802E+00 0.18705277E+04</pdfrwt>
<pdfrwt beam="2">  1       -2 0.18025206E+00 0.18705277E+04</pdfrwt>
<totfact> 0.63917675E+00</totfact>
</mgrwt>
</event>
<event>
 6    1  0.1614874E-005  0.4892869E+04  0.7818608E-02  0.7845249E-01
          2   -1    0    0  501    0  0.00000000000E+00  0.00000000000E+00  0.25095896001E+04  0.25095896001E+04  0.00000000000E+00 0.  1.
         -2   -1    0    0    0  501 -0.00000000000E+00 -0.00000000000E+00 -0.23848687933E+04  0.23848687933E+04  0.00000000000E+00 0. -1.
         23    2    1    2    0    0 -0.23618882844E+04 -0.22382871913E+03  0.65613008845E+03  0.24632012314E+04  0.90763701959E+02 0.  0.
         13    1    3    3    0    0 -0.56386602195E+03 -0.71922880082E+02  0.12200104007E+03  0.58137943305E+03  0.00000000000E+00 0.  1.
        -13    1    3    3    0    0 -0.17980222625E+04 -0.15190583905E+03  0.53412904838E+03  0.18818217983E+04  0.00000000000E+00 0. -1.
         22    1    1    2    0    0  0.23618882844E+04  0.22382871913E+03 -0.53140928167E+03  0.24312571621E+04  0.00000000000E+00 0. -1.
<mgrwt>
<rscale>  0 0.48928691E+04</rscale>
<asrwt>0</asrwt>
<pdfrwt beam="1">  1        2 0.38609071E+00 0.48928691E+04</pdfrwt>
<pdfrwt beam="2">  1       -2 0.36690289E+00 0.48928691E+04</pdfrwt>
<totfact> 0.30669278E-02</totfact>
</mgrwt>
</event>
<event>
 6    1  0.1614874E-005  0.3906819E+04  0.7818608E-02  0.8023612E-01
          1   -1    0    0  501    0  0.00000000000E+00  0.00000000000E+00  0.26594318196E+04  0.26594318196E+04  0.00000000000E+00 0. -1.
         -1   -1    0    0    0  501 -0.00000000000E+00 -0.00000000000E+00 -0.14348211671E+04  0.14348211671E+04  0.00000000000E+00 0.  1.
         23    2    1    2    0    0 -0.12284297072E+04  0.12527181204E+04  0.15101047806E+04  0.23166565387E+04  0.90215492139E+02 0.  0.
         13    1    3    3    0    0 -0.51635097349E+03  0.56013730940E+03  0.60549051348E+03  0.97313457195E+03  0.00000000000E+00 0.  1.
        -13    1    3    3    0    0 -0.71207873374E+03  0.69258081103E+03  0.90461426710E+03  0.13435219667E+04  0.00000000000E+00 0. -1.
         22    1    1    2    0    0  0.12284297072E+04 -0.12527181204E+04 -0.28549412804E+03  0.17775964480E+04  0.00000000000E+00 0.  1.
<mgrwt>
<rscale>  0 0.39068192E+04</rscale>
<asrwt>0</asrwt>
<pdfrwt beam="1">  1        1 0.40914336E+00 0.39068192E+04</pdfrwt>
<pdfrwt beam="2">  1       -1 0.22074172E+00 0.39068192E+04</pdfrwt>
<totfact> 0.89923822E-02</totfact>
</mgrwt>
</event>
<event>
 6    1  0.1614874E-005  0.3032028E+04  0.7818608E-02  0.8234644E-01
         -1   -1    0    0    0  501 -0.00000000000E+00  0.00000000000E+00  0.15389492589E+04  0.15389492589E+04  0.00000000000E+00 0. -1.
          1   -1    0    0  501    0  0.00000000000E+00 -0.00000000000E+00 -0.14934209972E+04  0.14934209972E+04  0.00000000000E+00 0.  1.
         23    2    1    2    0    0  0.17342116301E+03  0.13865848548E+04  0.60711678766E+03  0.15263575962E+04  0.92110033854E+02 0.  0.
         11    1    3    3    0    0 -0.22798686985E+01  0.21497641339E+03  0.75790114066E+02  0.22795656934E+03  0.00000000000E+00 0.  1.
        -11    1    3    3    0    0  0.17570103171E+03  0.11716084414E+04  0.53132667359E+03  0.12984010268E+04  0.00000000000E+00 0. -1.
         22    1    1    2    0    0 -0.17342116301E+03 -0.13865848548E+04 -0.56158852595E+03  0.15060126599E+04  0.00000000000E+00 0.  1.
<mgrwt>
<rscale>  0 0.30320285E+04</rscale>
<asrwt>0</asrwt>
<pdfrwt beam="1">  1        1 0.22975708E+00 0.30320285E+04</pdfrwt>
<pdfrwt beam="2">  1       -1 0.23676142E+00 0.30320285E+04</pdfrwt>
<totfact> 0.47779471E-01</totfact>
</mgrwt>
</event>
<event>
 6    1  0.1614874E-005  0.4426242E+03  0.7818608E-02  0.1029945E+00
         -2   -1    0    0    0  501 -0.00000000000E+00  0.00000000000E+00  0.40950504754E+03  0.40950504754E+03  0.00000000000E+00 0.  1.
          2   -1    0    0  501    0  0.00000000000E+00 -0.00000000000E+00 -0.11960546645E+03  0.11960546645E+03  0.00000000000E+00 0. -1.
         23    2    1    2    0    0 -0.18570309417E+03  0.99849801193E+02  0.12721591582E+03  0.26279942348E+03  0.91782491587E+02 0.  0.
         11    1    3    3    0    0 -0.18962755167E+03  0.10984514616E+03  0.11984260666E+03  0.24977352713E+03  0.00000000000E+00 0.  1.
        -11    1    3    3    0    0  0.39244574955E+01 -0.99953449692E+01  0.73733091594E+01  0.13025896347E+02  0.00000000000E+00 0. -1.
         22    1    1    2    0    0  0.18570309417E+03 -0.99849801193E+02  0.16268366526E+03  0.26631109051E+03  0.00000000000E+00 0.  1.
<mgrwt>
<rscale>  0 0.44262418E+03</rscale>
<asrwt>0</asrwt>
<pdfrwt beam="1">  1        2 0.18400841E-01 0.44262418E+03</pdfrwt>
<pdfrwt beam="2">  1       -2 0.63000776E-01 0.44262418E+03</pdfrwt>
<totfact> 0.73539165E+02</totfact>
</mgrwt>
</event>
<event>
 6    1  0.1614874E-005  0.1198407E+04  0.7818608E-02  0.9114252E-01
         -2   -1    0    0    0  501 -0.00000000000E+00  0.00000000000E+00  0.25668378689E+03  0.25668378689E+03  0.00000000000E+00 0.  1.
          2   -1    0    0  501    0  0.00000000000E+00 -0.00000000000E+00 -0.13987836068E+04  0.13987836068E+04  0.00000000000E+00 0. -1.
         23    2    1    2    0    0 -0.56708825684E+02 -0.12788662230E+02 -0.13933772473E+04  0.13975530934E+04  0.90967327683E+02 0.  0.
         11    1    3    3    0    0 -0.19097977385E+02 -0.49661466749E+02 -0.56362944806E+03  0.56613527424E+03  0.00000000000E+00 0. -1.
        -11    1    3    3    0    0 -0.37610848299E+02  0.36872804519E+02 -0.82974779927E+03  0.83141781916E+03  0.00000000000E+00 0.  1.
         22    1    1    2    0    0  0.56708825684E+02  0.12788662230E+02  0.25127742740E+03  0.25791430032E+03  0.00000000000E+00 0.  1.
<mgrwt>
<rscale>  0 0.11984074E+04</rscale>
<asrwt>0</asrwt>
<pdfrwt beam="1">  1        2 0.21519748E+00 0.11984074E+04</pdfrwt>
<pdfrwt beam="2">  1       -2 0.39489814E-01 0.11984074E+04</pdfrwt>
<totfact> 0.86693134E+01</totfact>
</mgrwt>
</event>
<event>
 6    1  0.1614874E-005  0.1898764E+04  0.7818608E-02  0.8655472E-01
         -2   -1    0    0    0  501 -0.00000000000E+00  0.00000000000E+00  0.18930052786E+04  0.18930052786E+04  0.00000000000E+00 0. -1.
          2   -1    0    0  501    0  0.00000000000E+00 -0.00000000000E+00 -0.47613491921E+03  0.47613491921E+03  0.00000000000E+00 0.  1.
         23    2    1    2    0    0 -0.45055098782E+03 -0.25934478761E+03 -0.27793612301E+03  0.59639517264E+03  0.90458841444E+02 0.  0.
         13    1    3    3    0    0 -0.42873025903E+02 -0.43242514203E+02 -0.69408124174E+01  0.61287733370E+02  0.00000000000E+00 0. -1.
        -13    1    3    3    0    0 -0.40767796191E+03 -0.21610227340E+03 -0.27099531060E+03  0.53510743927E+03  0.00000000000E+00 0.  1.
         22    1    1    2    0    0  0.45055098782E+03  0.25934478761E+03  0.16948064824E+04  0.17727450252E+04  0.00000000000E+00 0. -1.
<mgrwt>
<rscale>  0 0.18987637E+04</rscale>
<asrwt>0</asrwt>
<pdfrwt beam="1">  1        2 0.73251527E-01 0.18987637E+04</pdfrwt>
<pdfrwt beam="2">  1       -2 0.29123158E+00 0.18987637E+04</pdfrwt>
<totfact> 0.21975765E+00</totfact>
</mgrwt>
</event>
<event>
 6    1  0.1614874E-005  0.7768464E+03  0.7818608E-02  0.9594149E-01
          1   -1    0    0  501    0  0.00000000000E+00  0.00000000000E+00  0.14681444986E+04  0.14681444986E+04  0.00000000000E+00 0. -1.
         -1   -1    0    0    0  501 -0.00000000000E+00 -0.00000000000E+00 -0.10276412305E+03  0.10276412305E+03  0.00000000000E+00 0.  1.
         23    2    1    2    0    0  0.11565547438E+03 -0.61702302541E+00  0.14305256810E+04  0.14381664644E+04  0.92425569233E+02 0.  0.
         11    1    3    3    0    0  0.10738877966E+03 -0.33888456558E+02  0.11669082651E+04  0.11723291674E+04  0.00000000000E+00 0. -1.
        -11    1    3    3    0    0  0.82666947257E+01  0.33271433532E+02  0.26361741588E+03  0.26583729702E+03  0.00000000000E+00 0.  1.
         22    1    1    2    0    0 -0.11565547438E+03  0.61702302541E+00 -0.65145305490E+02  0.13274215721E+03  0.00000000000E+00 0.  1.
<mgrwt>
<rscale>  0 0.77684640E+03</rscale>
<asrwt>0</asrwt>
<pdfrwt beam="1">  1        1 0.22586837E+00 0.77684640E+03</pdfrwt>
<pdfrwt beam="2">  1       -1 0.15809866E-01 0.77684640E+03</pdfrwt>
<totfact> 0.21115752E+02</totfact>
</mgrwt>
</event>
<event>
 6    1  0.1614874E-005  0.1104204E+04  0.7818608E-02  0.9201104E-01
          2   -1    0    0  501    0  0.00000000000E+00  0.00000000000E+00  0.53459196977E+03  0.53459196977E+03  0.00000000000E+00 0.  1.
         -2   -1    0    0    0  501 -0.00000000000E+00 -0.00000000000E+00 -0.57018553107E+03  0.57018553107E+03  0.00000000000E+00 0. -1.
         23    2    1    2    0    0  0.51086555829E+02  0.32944469697E+03  0.41763160506E+03  0.54214378699E+03  0.91433493199E+02 0.  0.
         13    1    3    3    0    0  0.40746626933E+02  0.15418914213E+03  0.26609898948E+03  0.31023096454E+03  0.00000000000E+00 0. -1.
        -13    1    3    3    0    0  0.10339928896E+02  0.17525555484E+03  0.15153261557E+03  0.23191282244E+03  0.00000000000E+00 0.  1.
         22    1    1    2    0    0 -0.51086555829E+02 -0.32944469697E+03 -0.45322516635E+03  0.56263371385E+03  0.00000000000E+00 0. -1.
<mgrwt>
<rscale>  0 0.11042040E+04</rscale>
<asrwt>0</asrwt>
<pdfrwt beam="1">  1        2 0.82244918E-01 0.11042040E+04</pdfrwt>
<pdfrwt beam="2">  1       -2 0.87720852E-01 0.11042040E+04</pdfrwt>
<totfact> 0.63392324E+01</totfact>
</mgrwt>
</event>
<event>
 6    1  0.1614874E-005  0.2053525E+04  0.7818608E-02  0.8581997E-01
          1   -1    0    0  501    0  0.00000000000E+00  0.00000000000E+00  0.13308457799E+04  0.13308457799E+04  0.00000000000E+00 0. -1.
         -1   -1    0    0    0  501 -0.00000000000E+00 -0.00000000000E+00 -0.79215865845E+03  0.79215865845E+03  0.00000000000E+00 0.  1.
         23    2    1    2    0    0  0.50173074398E+03  0.23898681268E+03 -0.61918105646E+03  0.83867303506E+03  0.10554071717E+03 0.  0.
         11    1    3    3    0    0  0.49147400074E+03  0.21102974363E+03 -0.57412681675E+03  0.78466671129E+03  0.00000000000E+00 0.  1.
        -11    1    3    3    0    0  0.10256743238E+02  0.27957069050E+02 -0.45054239705E+02  0.54006323770E+02  0.00000000000E+00 0. -1.
         22    1    1    2    0    0 -0.50173074398E+03 -0.23898681268E+03  0.11578681779E+04  0.12843314033E+04  0.00000000000E+00 0. -1.
<mgrwt>
<rscale>  0 0.20535248E+04</rscale>
<asrwt>0</asrwt>
<pdfrwt beam="1">  1        1 0.20474551E+00 0.20535248E+04</pdfrwt>
<pdfrwt beam="2">  1       -1 0.12187056E+00 0.20535248E+04</pdfrwt>
<totfact> 0.47320200E+00</totfact>
</mgrwt>
</event>
<event>
 6    1  0.1614874E-005  0.4152844E+04  0.7818608E-02  0.7974403E-01
          2   -1    0    0  501    0  0.00000000000E+00  0.00000000000E+00  0.19474656049E+04  0.19474656049E+04  0.00000000000E+00 0. -1.
         -2   -1    0    0    0  501 -0.00000000000E+00 -0.00000000000E+00 -0.22139175631E+04  0.22139175631E+04  0.00000000000E+00 0.  1.
         23    2    1    2    0    0 -0.58294355280E+03 -0.11462102079E+03 -0.21261278777E+04  0.22091137989E+04  0.82479451487E+02 0.  0.
         11    1    3    3    0    0 -0.90899410478E+02 -0.49397266543E+02 -0.36537372213E+03  0.37973773790E+03  0.00000000000E+00 0.  1.
        -11    1    3    3    0    0 -0.49204414232E+03 -0.65223754244E+02 -0.17607541556E+04  0.18293760610E+04  0.00000000000E+00 0. -1.
         22    1    1    2    0    0  0.58294355280E+03  0.11462102079E+03  0.18596759194E+04  0.19522693691E+04  0.00000000000E+00 0. -1.
<mgrwt>
<rscale>  0 0.41528440E+04</rscale>
<asrwt>0</asrwt>
<pdfrwt beam="1">  1        2 0.29961009E+00 0.41528440E+04</pdfrwt>
<pdfrwt beam="2">  1       -2 0.34060270E+00 0.41528440E+04</pdfrwt>
<totfact> 0.99246392E-02</totfact>
</mgrwt>
</event>
<event>
 6    1  0.1614874E-005  0.3414707E+04  0.7818608E-02  0.8134306E-01
         -1   -1    0    0    0  501 -0.00000000000E+00  0.00000000000E+00  0.91080920248E+03  0.91080920248E+03  0.00000000000E+00 0.  1.
          1   -1    0    0  501    0  0.00000000000E+00 -0.00000000000E+00 -0.32005117191E+04  0.32005117191E+04  0.00000000000E+00 0. -1.
         23    2    1    2    0    0 -0.34369916128E+03  0.16305618405E+04 -0.70485297619E+03  0.18116233121E+04  0.91105860716E+02 0.  0.
         13    1    3    3    0    0 -0.83109149337E+02  0.52718316011E+03 -0.26108394583E+03  0.59413301691E+03  0.00000000000E+00 0. -1.
        -13    1    3    3    0    0 -0.26059001194E+03  0.11033786804E+04 -0.44376903036E+03  0.12174902952E+04  0.00000000000E+00 0.  1.
         22    1    1    2    0    0  0.34369916128E+03 -0.16305618405E+04 -0.15848495405E+04  0.22996976095E+04  0.00000000000E+00 0. -1.
<mgrwt>
<rscale>  0 0.34147067E+04</rscale>
<asrwt>0</asrwt>
<pdfrwt beam="1">  1        1 0.49238642E+00 0.34147067E+04</pdfrwt>
<pdfrwt beam="2">  1       -1 0.14012449E+00 0.34147067E+04</pdfrwt>
<totfact> 0.14577979E-01</totfact>
</mgrwt>
</event>
<event>
 6    1  0.1614874E-005  0.2056098E+04  0.7818608E-02  0.8580833E-01
          1   -1    0    0  501    0  0.00000000000E+00  0.00000000000E+00  0.49026679998E+03  0.49026679998E+03  0.00000000000E+00 0. -1.
         -1   -1    0    0    0  501 -0.00000000000E+00 -0.00000000000E+00 -0.21557340778E+04  0.21557340778E+04  0.00000000000E+00 0.  1.
         23    2    1    2    0    0 -0.59477823712E+03 -0.31684183182E+03  0.16123664703E+03  0.69895256642E+03  0.91583492066E+02 0.  0.
         13    1    3    3    0    0 -0.48518803049E+03 -0.22538809241E+03  0.10308418292E+03  0.54482434408E+03  0.00000000000E+00 0.  1.
        -13    1    3    3    0    0 -0.10959020663E+03 -0.91453739415E+02  0.58152464101E+02  0.15412822235E+03  0.00000000000E+00 0. -1.
         22    1    1    2    0    0  0.59477823712E+03  0.31684183182E+03 -0.18267039248E+04  0.19470483114E+04  0.00000000000E+00 0.  1.
<mgrwt>
<rscale>  0 0.20560981E+04</rscale>
<asrwt>0</asrwt>
<pdfrwt beam="1">  1        1 0.75425663E-01 0.20560981E+04</pdfrwt>
<pdfrwt beam="2">  1       -1 0.33165139E+00 0.20560981E+04</pdfrwt>
<totfact> 0.86421234E-01</totfact>
</mgrwt>
</event>
<event>
 6    1  0.1614874E-005  0.2947368E+04  0.7818608E-02  0.8258922E-01
          1   -1    0    0  501    0  0.00000000000E+00  0.00000000000E+00  0.18606127096E+04  0.18606127096E+04  0.00000000000E+00 0. -1.
         -1   -1    0    0    0  501 -0.00000000000E+00 -0.00000000000E+00 -0.11672201952E+04  0.11672201952E+04  0.00000000000E+00 0.  1.
         23    2    1    2    0    0 -0.83988291457E+03 -0.79303738172E+03 -0.59071729964E+03  0.13006242859E+04  0.91460406525E+02 0.  0.
         11    1    3    3    0    0 -0.20818519036E+03 -0.22713904588E+03 -0.12007903244E+03  0.33068443217E+03  0.00000000000E+00 0. -1.
        -11    1    3    3    0    0 -0.63169772421E+03 -0.56589833584E+03 -0.47063826720E+03  0.96993985372E+03  0.00000000000E+00 0.  1.
         22    1    1    2    0    0  0.83988291457E+03  0.79303738172E+03  0.12841098140E+04  0.17272086189E+04  0.00000000000E+00 0. -1.
<mgrwt>
<rscale>  0 0.29473681E+04</rscale>
<asrwt>0</asrwt>
<pdfrwt beam="1">  1        1 0.28624811E+00 0.29473681E+04</pdfrwt>
<pdfrwt beam="2">  1       -1 0.17957234E+00 0.29473681E+04</pdfrwt>
<totfact> 0.66393461E-01</totfact>
</mgrwt>
</event>
<event>
 6    1  0.1614874E-005  0.2469968E+04  0.7818608E-02  0.8413763E-01
          1   -1    0    0  501    0  0.00000000000E+00  0.00000000000E+00  0.16537212127E+04  0.16537212127E+04  0.00000000000E+00 0. -1.
         -1   -1    0    0    0  501 -0.00000000000E+00 -0.00000000000E+00 -0.92227517467E+03  0.92227517467E+03  0.00000000000E+00 0.  1.
         23    2    1    2    0    0  0.92706212190E+03  0.10088836546E+03 -0.47572157237E+03  0.10505861869E+04  0.88304482109E+02 0.  0.
         13    1    3    3    0    0  0.68051429604E+03  0.36668309575E+02 -0.33198405391E+03  0.75806179438E+03  0.00000000000E+00 0. -1.
        -13    1    3    3    0    0  0.24654782585E+03  0.64220055884E+02 -0.14373751846E+03  0.29252439253E+03  0.00000000000E+00 0.  1.
         22    1    1    2    0    0 -0.92706212190E+03 -0.10088836546E+03  0.12071676104E+04  0.15254102005E+04  0.00000000000E+00 0. -1.
<mgrwt>
<rscale>  0 0.24699684E+04</rscale>
<asrwt>0</asrwt>
<pdfrwt beam="1">  1        1 0.25441865E+00 0.24699684E+04</pdfrwt>
<pdfrwt beam="2">  1       -1 0.14188849E+00 0.24699684E+04</pdfrwt>
<totfact> 0.18476622E+00</totfact>
</mgrwt>
</event>
<event>
 6    1  0.1614874E-005  0.6496089E+03  0.7818608E-02  0.9807513E-01
          2   -1    0    0  501    0  0.00000000000E+00  0.00000000000E+00  0.26907288355E+03  0.26907288355E+03  0.00000000000E+00 0. -1.
         -2   -1    0    0    0  501 -0.00000000000E+00 -0.00000000000E+00 -0.39207935509E+03  0.39207935509E+03  0.00000000000E+00 0.  1.
         23    2    1    2    0    0 -0.12732962139E+03 -0.61001849307E+02  0.22850881110E+03  0.28234219120E+03  0.86987229400E+02 0.  0.
         11    1    3    3    0    0 -0.91611819825E+02  0.31231120953E+01  0.11329745161E+03  0.14573534884E+03  0.00000000000E+00 0.  1.
        -11    1    3    3    0    0 -0.35717801568E+02 -0.64124961402E+02  0.11521135949E+03  0.13660684236E+03  0.00000000000E+00 0. -1.
         22    1    1    2    0    0  0.12732962139E+03  0.61001849307E+02 -0.35151528265E+03  0.37881004743E+03  0.00000000000E+00 0.  1.
<mgrwt>
<rscale>  0 0.64960888E+03</rscale>
<asrwt>0</asrwt>
<pdfrwt beam="1">  1        2 0.41395828E-01 0.64960888E+03</pdfrwt>
<pdfrwt beam="2">  1       -2 0.60319901E-01 0.64960888E+03</pdfrwt>
<totfact> 0.32062301E+02</totfact>
</mgrwt>
</event>
<event>
 6    1  0.1614874E-005  0.2098537E+04  0.7818608E-02  0.8561888E-01
         -1   -1    0    0    0  501 -0.00000000000E+00  0.00000000000E+00  0.38352732507E+03  0.38352732507E+03  0.00000000000E+00 0.  1.
          1   -1    0    0  501    0  0.00000000000E+00 -0.00000000000E+00 -0.28706279902E+04  0.28706279902E+04  0.00000000000E+00 0. -1.
         23    2    1    2    0    0  0.39496897533E+03 -0.53499593869E+03  0.87004231150E+01  0.67128013092E+03  0.91214970893E+02 0.  0.
         13    1    3    3    0    0  0.27272488587E+03 -0.37420260033E+03  0.47950080138E+02  0.46551655143E+03  0.00000000000E+00 0. -1.
        -13    1    3    3    0    0  0.12224408946E+03 -0.16079333836E+03 -0.39249657023E+02  0.20576357949E+03  0.00000000000E+00 0.  1.
         22    1    1    2    0    0 -0.39496897533E+03  0.53499593869E+03 -0.24958010882E+04  0.25828751843E+04  0.00000000000E+00 0. -1.
<mgrwt>
<rscale>  0 0.20985369E+04</rscale>
<asrwt>0</asrwt>
<pdfrwt beam="1">  1        1 0.44163508E+00 0.20985369E+04</pdfrwt>
<pdfrwt beam="2">  1       -1 0.59004203E-01 0.20985369E+04</pdfrwt>
<totfact> 0.19883164E+00</totfact>
</mgrwt>
</event>
<event>
 6    1  0.1614874E-005  0.1375618E+04  0.7818608E-02  0.8971659E-01
          2   -1    0    0  501    0  0.00000000000E+00  0.00000000000E+00  0.65401367813E+03  0.65401367813E+03  0.00000000000E+00 0. -1.
         -2   -1    0    0    0  501 -0.00000000000E+00 -0.00000000000E+00 -0.72335068111E+03  0.72335068111E+03  0.00000000000E+00 0.  1.
         23    2    1    2    0    0  0.45656673651E+03 -0.40942818027E+03  0.27087914743E+03  0.67605725912E+03  0.87139459524E+02 0.  0.
         13    1    3    3    0    0  0.11153732679E+03 -0.15388974655E+03  0.84159963051E+02  0.20785939657E+03  0.00000000000E+00 0. -1.
        -13    1    3    3    0    0  0.34502940972E+03 -0.25553843371E+03  0.18671918438E+03  0.46819786255E+03  0.00000000000E+00 0.  1.
         22    1    1    2    0    0 -0.45656673651E+03  0.40942818027E+03 -0.34021615041E+03  0.70130710012E+03  0.00000000000E+00 0.  1.
<mgrwt>
<rscale>  0 0.13756180E+04</rscale>
<asrwt>0</asrwt>
<pdfrwt beam="1">  1        2 0.10061749E+00 0.13756180E+04</pdfrwt>
<pdfrwt beam="2">  1       -2 0.11128472E+00 0.13756180E+04</pdfrwt>
<totfact> 0.27790185E+01</totfact>
</mgrwt>
</event>
<event>
 6    1  0.1614874E-005  0.3079644E+04  0.7818608E-02  0.8221347E-01
          2   -1    0    0  501    0  0.00000000000E+00  0.00000000000E+00  0.22510368818E+04  0.22510368818E+04  0.00000000000E+00 0.  1.
         -2   -1    0    0    0  501 -0.00000000000E+00 -0.00000000000E+00 -0.10533154258E+04  0.10533154258E+04  0.00000000000E+00 0. -1.
         23    2    1    2    0    0  0.14581158791E+04 -0.22662328369E+02  0.11254071171E+04  0.18442684533E+04  0.90385013489E+02 0.  0.
         11    1    3    3    0    0  0.62490981493E+03  0.18031448157E+02  0.52658207996E+03  0.81738980716E+03  0.00000000000E+00 0. -1.
        -11    1    3    3    0    0  0.83320606417E+03 -0.40693776526E+02  0.59882503714E+03  0.10268786462E+04  0.00000000000E+00 0.  1.
         22    1    1    2    0    0 -0.14581158791E+04  0.22662328369E+02  0.72314338951E+02  0.14600838543E+04  0.00000000000E+00 0. -1.
<mgrwt>
<rscale>  0 0.30796441E+04</rscale>
<asrwt>0</asrwt>
<pdfrwt beam="1">  1        2 0.34631337E+00 0.30796441E+04</pdfrwt>
<pdfrwt beam="2">  1       -2 0.16204853E+00 0.30796441E+04</pdfrwt>
<totfact> 0.99983120E-01</totfact>
</mgrwt>
</event>
<event>
 6    1  0.1614874E-005  0.1829468E+04  0.7818608E-02  0.8690784E-01
          2   -1    0    0  501    0  0.00000000000E+00  0.00000000000E+00  0.51066831058E+03  0.51066831058E+03  0.00000000000E+00 0. -1.
         -2   -1    0    0    0  501 -0.00000000000E+00 -0.00000000000E+00 -0.16385170113E+04  0.16385170113E+04  0.00000000000E+00 0.  1.
         23    2    1    2    0    0 -0.81095384376E+03 -0.15207537362E+03 -0.10229149571E+04  0.13174496989E+04  0.92442651685E+02 0.  0.
         13    1    3    3    0    0 -0.61203363621E+03 -0.95462713846E+02 -0.70837866621E+03  0.94100937101E+03  0.00000000000E+00 0. -1.
        -13    1    3    3    0    0 -0.19892020755E+03 -0.56612659777E+02 -0.31453629087E+03  0.37644032793E+03  0.00000000000E+00 0.  1.
         22    1    1    2    0    0  0.81095384376E+03  0.15207537362E+03 -0.10493374367E+03  0.83173562298E+03  0.00000000000E+00 0. -1.
<mgrwt>
<rscale>  0 0.18294685E+04</rscale>
<asrwt>0</asrwt>
<pdfrwt beam="1">  1        2 0.78564354E-01 0.18294685E+04</pdfrwt>
<pdfrwt beam="2">  1       -2 0.25207955E+00 0.18294685E+04</pdfrwt>
<totfact> 0.35306584E+00</totfact>
</mgrwt>
</event>
<event>
 6    1  0.1614874E-005  0.2721133E+04  0.7818608E-02  0.8328180E-01
         -1   -1    0    0    0  501 -0.00000000000E+00  0.00000000000E+00  0.73448807926E+03  0.73448807926E+03  0.00000000000E+00 0.  1.
          1   -1    0    0  501    0  0.00000000000E+00 -0.00000000000E+00 -0.25203151285E+04  0.25203151285E+04  0.00000000000E+00 0. -1.
         23    2    1    2    0    0 -0.74830848845E+03  0.66533068104E+03 -0.19929905767E+04  0.22322831659E+04  0.91903127544E+02 0.  0.
         11    1    3    3    0    0 -0.56244544206E+03  0.47555404468E+03 -0.15420303631E+04  0.17089043757E+04  0.00000000000E+00 0. -1.
        -11    1    3    3    0    0 -0.18586304640E+03  0.18977663636E+03 -0.45096021363E+03  0.52337879018E+03  0.00000000000E+00 0.  1.
         22    1    1    2    0    0  0.74830848845E+03 -0.66533068104E+03  0.20716352741E+03  0.10225200419E+04  0.00000000000E+00 0.  1.
<mgrwt>
<rscale>  0 0.27211332E+04</rscale>
<asrwt>0</asrwt>
<pdfrwt beam="1">  1        1 0.38774079E+00 0.27211332E+04</pdfrwt>
<pdfrwt beam="2">  1       -1 0.11299816E+00 0.27211332E+04</pdfrwt>
<totfact> 0.81790398E-01</totfact>
</mgrwt>
</event>
<event>
 6    1  0.1614874E-005  0.2720155E+04  0.7818608E-02  0.8328495E-01
          2   -1    0    0  501    0  0.00000000000E+00  0.00000000000E+00  0.54411889637E+03  0.54411889637E+03  0.00000000000E+00 0. -1.
         -2   -1    0    0    0  501 -0.00000000000E+00 -0.00000000000E+00 -0.33996447787E+04  0.33996447787E+04  0.00000000000E+00 0.  1.
         23    2    1    2    0    0 -0.52122706962E+03  0.12491896842E+04 -0.12604485844E+04  0.18517732086E+04  0.90448089781E+02 0.  0.
         11    1    3    3    0    0 -0.26695619988E+03  0.53531324819E+03 -0.58333525142E+03  0.83552731966E+03  0.00000000000E+00 0.  1.
        -11    1    3    3    0    0 -0.25427086975E+03  0.71387643605E+03 -0.67711333299E+03  0.10162458890E+04  0.00000000000E+00 0. -1.
         22    1    1    2    0    0  0.52122706962E+03 -0.12491896842E+04 -0.15950772979E+04  0.20919904665E+04  0.00000000000E+00 0.  1.
<mgrwt>
<rscale>  0 0.27201551E+04</rscale>
<asrwt>0</asrwt>
<pdfrwt beam="1">  1        2 0.83710602E-01 0.27201551E+04</pdfrwt>
<pdfrwt beam="2">  1       -2 0.52302226E+00 0.27201551E+04</pdfrwt>
<totfact> 0.58229771E-02</totfact>
</mgrwt>
</event>
<event>
 6    1  0.1614874E-005  0.2518391E+04  0.7818608E-02  0.8396463E-01
          2   -1    0    0  501    0  0.00000000000E+00  0.00000000000E+00  0.72522228608E+03  0.72522228608E+03  0.00000000000E+00 0. -1.
         -2   -1    0    0    0  501 -0.00000000000E+00 -0.00000000000E+00 -0.21863267413E+04  0.21863267413E+04  0.00000000000E+00 0.  1.
         23    2    1    2    0    0 -0.19990504359E+02 -0.60943874179E+03  0.54002543980E+03  0.81957960671E+03  0.90928850407E+02 0.  0.
         13    1    3    3    0    0 -0.46636459536E+02 -0.40854700376E+03  0.39672491353E+03  0.57138102056E+03  0.00000000000E+00 0. -1.
        -13    1    3    3    0    0  0.26645955177E+02 -0.20089173803E+03  0.14330052628E+03  0.24819858615E+03  0.00000000000E+00 0.  1.
         22    1    1    2    0    0  0.19990504359E+02  0.60943874179E+03 -0.20011298951E+04  0.20919694207E+04  0.00000000000E+00 0.  1.
<mgrwt>
<rscale>  0 0.25183907E+04</rscale>
<asrwt>0</asrwt>
<pdfrwt beam="1">  1        2 0.11157266E+00 0.25183907E+04</pdfrwt>
<pdfrwt beam="2">  1       -2 0.33635796E+00 0.25183907E+04</pdfrwt>
<totfact> 0.66112510E-01</totfact>
</mgrwt>
</event>
<event>
 6    1  0.1614874E-005  0.2244124E+04  0.7818608E-02  0.8500284E-01
          1   -1    0    0  501    0  0.00000000000E+00  0.00000000000E+00  0.91622846945E+03  0.91622846945E+03  0.00000000000E+00 0. -1.
         -1   -1    0    0    0  501 -0.00000000000E+00 -0.00000000000E+00 -0.13741369068E+04  0.13741369068E+04  0.00000000000E+00 0.  1.
         23    2    1    2    0    0  0.54898300312E+03  0.97252867877E+03 -0.13930902291E+03  0.11290299572E+04  0.90040389005E+02 0.  0.
         13    1    3    3    0    0  0.31737633719E+03  0.55370038903E+03 -0.12425013459E+03  0.65019224555E+03  0.00000000000E+00 0. -1.
        -13    1    3    3    0    0  0.23160666593E+03  0.41882828973E+03 -0.15058888325E+02  0.47883771165E+03  0.00000000000E+00 0.  1.
         22    1    1    2    0    0 -0.54898300312E+03 -0.97252867877E+03 -0.31859941448E+03  0.11613354191E+04  0.00000000000E+00 0. -1.
<mgrwt>
<rscale>  0 0.22441242E+04</rscale>
<asrwt>0</asrwt>
<pdfrwt beam="1">  1        1 0.14095823E+00 0.22441242E+04</pdfrwt>
<pdfrwt beam="2">  1       -1 0.21140568E+00 0.22441242E+04</pdfrwt>
<totfact> 0.20158164E+00</totfact>
</mgrwt>
</event>
<event>
 6    1  0.1614874E-005  0.9765370E+03  0.7818608E-02  0.9334660E-01
         -1   -1    0    0    0  501 -0.00000000000E+00  0.00000000000E+00  0.17370407663E+03  0.17370407663E+03  0.00000000000E+00 0.  1.
          1   -1    0    0  501    0  0.00000000000E+00 -0.00000000000E+00 -0.13724843425E+04  0.13724843425E+04  0.00000000000E+00 0. -1.
         23    2    1    2    0    0 -0.35163671071E+03 -0.24746208477E+03 -0.25287843217E+03  0.50714263634E+03  0.91434634693E+02 0.  0.
         13    1    3    3    0    0 -0.20839636391E+03 -0.18747758407E+03 -0.12939761868E+03  0.30874039700E+03  0.00000000000E+00 0. -1.
        -13    1    3    3    0    0 -0.14324034680E+03 -0.59984500697E+02 -0.12348081349E+03  0.19840223934E+03  0.00000000000E+00 0.  1.
         22    1    1    2    0    0  0.35163671071E+03  0.24746208477E+03 -0.94590183370E+03  0.10390457828E+04  0.00000000000E+00 0. -1.
<mgrwt>
<rscale>  0 0.97653699E+03</rscale>
<asrwt>0</asrwt>
<pdfrwt beam="1">  1        1 0.21115144E+00 0.97653699E+03</pdfrwt>
<pdfrwt beam="2">  1       -1 0.26723704E-01 0.97653699E+03</pdfrwt>
<totfact> 0.10063935E+02</totfact>
</mgrwt>
</event>
<event>
 6    1  0.1614874E-005  0.3543714E+04  0.7818608E-02  0.8103508E-01
          1   -1    0    0  501    0  0.00000000000E+00  0.00000000000E+00  0.27186210055E+04  0.27186210055E+04  0.00000000000E+00 0. -1.
         -1   -1    0    0    0  501 -0.00000000000E+00 -0.00000000000E+00 -0.11548048685E+04  0.11548048685E+04  0.00000000000E+00 0.  1.
         23    2    1    2    0    0 -0.16735680767E+04 -0.24769324239E+03  0.21120915730E+03  0.17073862411E+04  0.91522775305E+02 0.  0.
         13    1    3    3    0    0 -0.11900609025E+04 -0.13479439018E+03  0.14135637196E+03  0.12059834590E+04  0.00000000000E+00 0. -1.
        -13    1    3    3    0    0 -0.48350717415E+03 -0.11289885222E+03  0.69852785339E+02  0.50140278211E+03  0.00000000000E+00 0.  1.
         22    1    1    2    0    0  0.16735680767E+04  0.24769324239E+03  0.13526069797E+04  0.21660396329E+04  0.00000000000E+00 0. -1.
<mgrwt>
<rscale>  0 0.35437137E+04</rscale>
<asrwt>0</asrwt>
<pdfrwt beam="1">  1        1 0.41824938E+00 0.35437137E+04</pdfrwt>
<pdfrwt beam="2">  1       -1 0.17766229E+00 0.35437137E+04</pdfrwt>
<totfact> 0.16737200E-01</totfact>
</mgrwt>
</event>
<event>
 6    1  0.1614874E-005  0.5612682E+03  0.7818608E-02  0.9989189E-01
          1   -1    0    0  501    0  0.00000000000E+00  0.00000000000E+00  0.29186484768E+03  0.29186484768E+03  0.00000000000E+00 0. -1.
         -1   -1    0    0    0  501 -0.00000000000E+00 -0.00000000000E+00 -0.26983547382E+03  0.26983547382E+03  0.00000000000E+00 0.  1.
         23    2    1    2    0    0 -0.27142607472E+03 -0.30151314100E+02  0.24245006210E+02  0.28859571735E+03  0.90102452622E+02 0.  0.
         11    1    3    3    0    0 -0.15840400270E+03 -0.16946648195E+02  0.58581074887E+02  0.16973732439E+03  0.00000000000E+00 0. -1.
        -11    1    3    3    0    0 -0.11302207203E+03 -0.13204665905E+02 -0.34336068677E+02  0.11885839297E+03  0.00000000000E+00 0.  1.
         22    1    1    2    0    0  0.27142607472E+03  0.30151314100E+02 -0.22156323455E+01  0.27310460415E+03  0.00000000000E+00 0.  1.
<mgrwt>
<rscale>  0 0.56126817E+03</rscale>
<asrwt>0</asrwt>
<pdfrwt beam="1">  1        1 0.44902284E-01 0.56126817E+03</pdfrwt>
<pdfrwt beam="2">  1       -1 0.41513150E-01 0.56126817E+03</pdfrwt>
<totfact> 0.52257226E+02</totfact>
</mgrwt>
</event>
<event>
 6    1  0.1614874E-005  0.8705911E+03  0.7818608E-02  0.9463110E-01
         -1   -1    0    0    0  501 -0.00000000000E+00  0.00000000000E+00  0.11184044177E+03  0.11184044177E+03  0.00000000000E+00 0.  1.
          1   -1    0    0  501    0  0.00000000000E+00 -0.00000000000E+00 -0.16942189940E+04  0.16942189940E+04  0.00000000000E+00 0. -1.
         23    2    1    2    0    0  0.23252125752E+02 -0.27099229845E+03 -0.10597090560E+03  0.30480761605E+03  0.87751711085E+02 0.  0.
         13    1    3    3    0    0  0.52451049303E+02 -0.10636524788E+03 -0.43365584247E+02  0.12627451218E+03  0.00000000000E+00 0.  1.
        -13    1    3    3    0    0 -0.29198923551E+02 -0.16462705057E+03 -0.62605321349E+02  0.17853310387E+03  0.00000000000E+00 0. -1.
         22    1    1    2    0    0 -0.23252125752E+02  0.27099229845E+03 -0.14764076466E+04  0.15012518197E+04  0.00000000000E+00 0. -1.
<mgrwt>
<rscale>  0 0.87059107E+03</rscale>
<asrwt>0</asrwt>
<pdfrwt beam="1">  1        1 0.26064908E+00 0.87059107E+03</pdfrwt>
<pdfrwt beam="2">  1       -1 0.17206221E-01 0.87059107E+03</pdfrwt>
<totfact> 0.12801908E+02</totfact>
</mgrwt>
</event>
<event>
 6    1  0.1614874E-005  0.3831275E+04  0.7818608E-02  0.8039476E-01
          2   -1    0    0  501    0  0.00000000000E+00  0.00000000000E+00  0.24012021308E+04  0.24012021308E+04  0.00000000000E+00 0. -1.
         -2   -1    0    0    0  501 -0.00000000000E+00 -0.00000000000E+00 -0.15282627861E+04  0.15282627861E+04  0.00000000000E+00 0.  1.
         23    2    1    2    0    0 -0.17531001463E+04 -0.19230585692E+03  0.12009848536E+04  0.21355988346E+04  0.89867114890E+02 0.  0.
         13    1    3    3    0    0 -0.11000263772E+04 -0.77612656911E+02  0.75951695107E+03  0.13390099902E+04  0.00000000000E+00 0. -1.
        -13    1    3    3    0    0 -0.65307376910E+03 -0.11469320001E+03  0.44146790249E+03  0.79658884435E+03  0.00000000000E+00 0.  1.
         22    1    1    2    0    0  0.17531001463E+04  0.19230585692E+03 -0.32804550887E+03  0.17938660823E+04  0.00000000000E+00 0.  1.
<mgrwt>
<rscale>  0 0.38312754E+04</rscale>
<asrwt>0</asrwt>
<pdfrwt beam="1">  1        2 0.36941571E+00 0.38312754E+04</pdfrwt>
<pdfrwt beam="2">  1       -2 0.23511735E+00 0.38312754E+04</pdfrwt>
<totfact> 0.25215932E-01</totfact>
</mgrwt>
</event>
<event>
 6    1  0.1614874E-005  0.1146772E+04  0.7818608E-02  0.9160767E-01
          1   -1    0    0  501    0  0.00000000000E+00  0.00000000000E+00  0.50905136751E+03  0.50905136751E+03  0.00000000000E+00 0. -1.
         -1   -1    0    0    0  501 -0.00000000000E+00 -0.00000000000E+00 -0.64585121155E+03  0.64585121155E+03  0.00000000000E+00 0.  1.
         23    2    1    2    0    0 -0.45701187459E+03  0.18309587746E+03  0.21996506073E+03  0.54690163240E+03  0.91284246832E+02 0.  0.
         13    1    3    3    0    0 -0.85889120047E+02  0.23377022380E+01  0.56932710099E+02  0.10307152504E+03  0.00000000000E+00 0.  1.
        -13    1    3    3    0    0 -0.37112275455E+03  0.18075817522E+03  0.16303235063E+03  0.44383010737E+03  0.00000000000E+00 0. -1.
         22    1    1    2    0    0  0.45701187459E+03 -0.18309587746E+03 -0.35676490477E+03  0.60800094666E+03  0.00000000000E+00 0.  1.
<mgrwt>
<rscale>  0 0.11467719E+04</rscale>
<asrwt>0</asrwt>
<pdfrwt beam="1">  1        1 0.78315595E-01 0.11467719E+04</pdfrwt>
<pdfrwt beam="2">  1       -1 0.99361725E-01 0.11467719E+04</pdfrwt>
<totfact> 0.41561903E+01</totfact>
</mgrwt>
</event>
<event>
 6    1  0.1614874E-005  0.4322483E+04  0.7818608E-02  0.7942474E-01
          2   -1    0    0  501    0  0.00000000000E+00  0.00000000000E+00  0.23585241087E+04  0.23585241087E+04  0.00000000000E+00 0. -1.
         -2   -1    0    0    0  501 -0.00000000000E+00 -0.00000000000E+00 -0.19804612099E+04  0.19804612099E+04  0.00000000000E+00 0.  1.
         23    2    1    2    0    0 -0.13967266177E+04  0.90759824923E+03  0.15699217097E+04  0.22907892216E+04  0.92093737771E+02 0.  0.
         13    1    3    3    0    0 -0.91786383346E+03  0.64695354491E+03  0.10452583859E+04  0.15341408016E+04  0.00000000000E+00 0.  1.
        -13    1    3    3    0    0 -0.47886278422E+03  0.26064470432E+03  0.52466332386E+03  0.75664841995E+03  0.00000000000E+00 0. -1.
         22    1    1    2    0    0  0.13967266177E+04 -0.90759824923E+03 -0.11918588109E+04  0.20481960970E+04  0.00000000000E+00 0.  1.
<mgrwt>
<rscale>  0 0.43224833E+04</rscale>
<asrwt>0</asrwt>
<pdfrwt beam="1">  1        2 0.36284987E+00 0.43224833E+04</pdfrwt>
<pdfrwt beam="2">  1       -2 0.30468634E+00 0.43224833E+04</pdfrwt>
<totfact> 0.96013989E-02</totfact>
</mgrwt>
</event>
<event>
 6    1  0.1614874E-005  0.2760967E+04  0.7818608E-02  0.8315490E-01
          2   -1    0    0  501    0  0.00000000000E+00  0.00000000000E+00  0.25085804209E+04  0.25085804209E+04  0.00000000000E+00 0. -1.
         -2   -1    0    0    0  501 -0.00000000000E+00 -0.00000000000E+00 -0.75968645188E+03  0.75968645188E+03  0.00000000000E+00 0.  1.
         23    2    1    2    0    0 -0.25679066668E+03 -0.12509030310E+04  0.14912936136E+04  0.19655551692E+04  0.93544865505E+02 0.  0.
         11    1    3    3    0    0 -0.31381515176E+02 -0.34889482817E+03  0.38750169293E+03  0.52236956520E+03  0.00000000000E+00 0.  1.
        -11    1    3    3    0    0 -0.22540915150E+03 -0.90200820280E+03  0.11037919207E+04  0.14431856040E+04  0.00000000000E+00 0. -1.
         22    1    1    2    0    0  0.25679066668E+03  0.12509030310E+04  0.25760035535E+03  0.13027117035E+04  0.00000000000E+00 0.  1.
<mgrwt>
<rscale>  0 0.27609669E+04</rscale>
<asrwt>0</asrwt>
<pdfrwt beam="1">  1        2 0.38593545E+00 0.27609669E+04</pdfrwt>
<pdfrwt beam="2">  1       -2 0.11687484E+00 0.27609669E+04</pdfrwt>
<totfact> 0.17022451E+00</totfact>
</mgrwt>
</event>
<event>
 6    1  0.1614874E-005  0.1438075E+04  0.7818608E-02  0.8926710E-01
         -2   -1    0    0    0  501 -0.00000000000E+00  0.00000000000E+00  0.48186930388E+03  0.48186930388E+03  0.00000000000E+00 0.  1.
          2   -1    0    0  501    0  0.00000000000E+00 -0.00000000000E+00 -0.10729362594E+04  0.10729362594E+04  0.00000000000E+00 0. -1.
         23    2    1    2    0    0 -0.79134464395E+02  0.39927909233E+03  0.34036934915E+03  0.53831176268E+03  0.90786579239E+02 0.  0.
         13    1    3    3    0    0 -0.16729896062E+01  0.22051225144E+03  0.15638904512E+03  0.27034419794E+03  0.00000000000E+00 0.  1.
        -13    1    3    3    0    0 -0.77461474789E+02  0.17876684090E+03  0.18398030402E+03  0.26796756473E+03  0.00000000000E+00 0. -1.
         22    1    1    2    0    0  0.79134464395E+02 -0.39927909233E+03 -0.93143630467E+03  0.10164938006E+04  0.00000000000E+00 0. -1.
<mgrwt>
<rscale>  0 0.14380752E+04</rscale>
<asrwt>0</asrwt>
<pdfrwt beam="1">  1        2 0.16506711E+00 0.14380752E+04</pdfrwt>
<pdfrwt beam="2">  1       -2 0.74133741E-01 0.14380752E+04</pdfrwt>
<totfact> 0.36021565E+01</totfact>
</mgrwt>
</event>
<event>
 6    1  0.1614874E-005  0.1251053E+04  0.7818608E-02  0.9069307E-01
          2   -1    0    0  501    0  0.00000000000E+00  0.00000000000E+00  0.39357602782E+03  0.39357602782E+03  0.00000000000E+00 0. -1.
         -2   -1    0    0    0  501 -0.00000000000E+00 -0.00000000000E+00 -0.99417468164E+03  0.99417468164E+03  0.00000000000E+00 0.  1.
         23    2    1    2    0    0 -0.10143802176E+03 -0.43222294769E+03 -0.78554446108E+03  0.90680237503E+03  0.90022765206E+02 0.  0.
         13    1    3    3    0    0 -0.43375669220E+02 -0.32042765419E+03 -0.61441205726E+03  0.69430361252E+03  0.00000000000E+00 0. -1.
        -13    1    3    3    0    0 -0.58062352536E+02 -0.11179529350E+03 -0.17113240382E+03  0.21249876251E+03  0.00000000000E+00 0.  1.
         22    1    1    2    0    0  0.10143802176E+03  0.43222294769E+03  0.18494580725E+03  0.48094833443E+03  0.00000000000E+00 0. -1.
<mgrwt>
<rscale>  0 0.12510529E+04</rscale>
<asrwt>0</asrwt>
<pdfrwt beam="1">  1        2 0.60550157E-01 0.12510529E+04</pdfrwt>
<pdfrwt beam="2">  1       -2 0.15294995E+00 0.12510529E+04</pdfrwt>
<totfact> 0.22632825E+01</totfact>
</mgrwt>
</event>
<event>
 6    1  0.1614874E-005  0.3182334E+03  0.7818608E-02  0.1076465E+00
         -2   -1    0    0    0  501 -0.00000000000E+00  0.00000000000E+00  0.16182476166E+03  0.16182476166E+03  0.00000000000E+00 0. -1.
          2   -1    0    0  501    0  0.00000000000E+00 -0.00000000000E+00 -0.15645399553E+03  0.15645399553E+03  0.00000000000E+00 0.  1.
         23    2    1    2    0    0  0.12991435668E+03 -0.66715139957E+02  0.58008492784E+01  0.17223480852E+03  0.91118216857E+02 0.  0.
         13    1    3    3    0    0  0.13625627663E+03 -0.71438202933E+02 -0.10408422573E+02  0.15419962717E+03  0.00000000000E+00 0.  1.
        -13    1    3    3    0    0 -0.63419199468E+01  0.47230629762E+01  0.16209271851E+02  0.18035181353E+02  0.00000000000E+00 0. -1.
         22    1    1    2    0    0 -0.12991435668E+03  0.66715139957E+02 -0.43008314736E+00  0.14604394867E+03  0.00000000000E+00 0.  1.
<mgrwt>
<rscale>  0 0.31823344E+03</rscale>
<asrwt>0</asrwt>
<pdfrwt beam="1">  1        2 0.24069845E-01 0.31823344E+03</pdfrwt>
<pdfrwt beam="2">  1       -2 0.24896117E-01 0.31823344E+03</pdfrwt>
<totfact> 0.32186334E+03</totfact>
</mgrwt>
</event>
<event>
 6    1  0.1614874E-005  0.4761950E+04  0.7818608E-02  0.7866316E-01
          2   -1    0    0  501    0  0.00000000000E+00  0.00000000000E+00  0.22505591445E+04  0.22505591445E+04  0.00000000000E+00 0. -1.
         -2   -1    0    0    0  501 -0.00000000000E+00 -0.00000000000E+00 -0.25189481368E+04  0.25189481368E+04  0.00000000000E+00 0.  1.
         23    2    1    2    0    0 -0.15671501613E+04  0.33377406871E+03 -0.18969897627E+04  0.24848398599E+04  0.92164052725E+02 0.  0.
         13    1    3    3    0    0 -0.11136237703E+04  0.22246067317E+03 -0.12821675719E+04  0.17127756232E+04  0.00000000000E+00 0.  1.
        -13    1    3    3    0    0 -0.45352639098E+03  0.11131339554E+03 -0.61482219079E+03  0.77206423672E+03  0.00000000000E+00 0. -1.
         22    1    1    2    0    0  0.15671501613E+04 -0.33377406871E+03  0.16286007705E+04  0.22846674214E+04  0.00000000000E+00 0. -1.
<mgrwt>
<rscale>  0 0.47619499E+04</rscale>
<asrwt>0</asrwt>
<pdfrwt beam="1">  1        2 0.34623987E+00 0.47619499E+04</pdfrwt>
<pdfrwt beam="2">  1       -2 0.38753048E+00 0.47619499E+04</pdfrwt>
<totfact> 0.32115591E-02</totfact>
</mgrwt>
</event>
<event>
 6    1  0.1614874E-005  0.1739008E+04  0.7818608E-02  0.8739424E-01
          1   -1    0    0  501    0  0.00000000000E+00  0.00000000000E+00  0.41287507111E+03  0.41287507111E+03  0.00000000000E+00 0. -1.
         -1   -1    0    0    0  501 -0.00000000000E+00 -0.00000000000E+00 -0.18311533905E+04  0.18311533905E+04  0.00000000000E+00 0.  1.
         23    2    1    2    0    0  0.45680803655E+03 -0.30855163156E+03 -0.15749090358E+04  0.16709570237E+04  0.88776193761E+02 0.  0.
         13    1    3    3    0    0  0.30251494497E+03 -0.25299667559E+03 -0.11116759280E+04  0.11795532963E+04  0.00000000000E+00 0.  1.
        -13    1    3    3    0    0  0.15429309158E+03 -0.55554955968E+02 -0.46323310770E+03  0.49140372741E+03  0.00000000000E+00 0. -1.
         22    1    1    2    0    0 -0.45680803655E+03  0.30855163156E+03  0.15663071638E+03  0.57307143788E+03  0.00000000000E+00 0. -1.
<mgrwt>
<rscale>  0 0.17390084E+04</rscale>
<asrwt>0</asrwt>
<pdfrwt beam="1">  1        1 0.63519240E-01 0.17390084E+04</pdfrwt>
<pdfrwt beam="2">  1       -1 0.28171591E+00 0.17390084E+04</pdfrwt>
<totfact> 0.23683868E+00</totfact>
</mgrwt>
</event>
<event>
 6    1  0.1614874E-005  0.1788703E+04  0.7818608E-02  0.8712330E-01
          2   -1    0    0  501    0  0.00000000000E+00  0.00000000000E+00  0.38513377147E+04  0.38513377147E+04  0.00000000000E+00 0. -1.
         -2   -1    0    0    0  501 -0.00000000000E+00 -0.00000000000E+00 -0.20768497817E+03  0.20768497817E+03  0.00000000000E+00 0.  1.
         23    2    1    2    0    0  0.24298680976E+03  0.10785628751E+03  0.37587869758E+04  0.37693134221E+04  0.92566602925E+02 0.  0.
         13    1    3    3    0    0  0.21905517961E+03  0.10430771434E+03  0.28825779686E+04  0.28927704741E+04  0.00000000000E+00 0. -1.
        -13    1    3    3    0    0  0.23931630144E+02  0.35485731680E+01  0.87620900723E+03  0.87654294798E+03  0.00000000000E+00 0.  1.
         22    1    1    2    0    0 -0.24298680976E+03 -0.10785628751E+03 -0.11513423935E+03  0.28970927072E+03  0.00000000000E+00 0.  1.
<mgrwt>
<rscale>  0 0.17887034E+04</rscale>
<asrwt>0</asrwt>
<pdfrwt beam="1">  1        2 0.59251344E+00 0.17887034E+04</pdfrwt>
<pdfrwt beam="2">  1       -2 0.31951538E-01 0.17887034E+04</pdfrwt>
<totfact> 0.39109393E+00</totfact>
</mgrwt>
</event>
<event>
 6    1  0.1614874E-005  0.1813910E+04  0.7818608E-02  0.8698937E-01
         -2   -1    0    0    0  501 -0.00000000000E+00  0.00000000000E+00  0.66740632440E+03  0.66740632440E+03  0.00000000000E+00 0.  1.
          2   -1    0    0  501    0  0.00000000000E+00 -0.00000000000E+00 -0.12324839324E+04  0.12324839324E+04  0.00000000000E+00 0. -1.
         23    2    1    2    0    0  0.97241457131E+02  0.46442000136E+03 -0.10899474579E+04  0.11923379986E+04  0.92426204181E+02 0.  0.
         11    1    3    3    0    0  0.10084087115E+03  0.26037173615E+03 -0.64232794990E+03  0.70039097474E+03  0.00000000000E+00 0.  1.
        -11    1    3    3    0    0 -0.35994140160E+01  0.20404826521E+03 -0.44761950803E+03  0.49194702386E+03  0.00000000000E+00 0. -1.
         22    1    1    2    0    0 -0.97241457131E+02 -0.46442000136E+03  0.52486984996E+03  0.70755225817E+03  0.00000000000E+00 0.  1.
<mgrwt>
<rscale>  0 0.18139102E+04</rscale>
<asrwt>0</asrwt>
<pdfrwt beam="1">  1        2 0.18961291E+00 0.18139102E+04</pdfrwt>
<pdfrwt beam="2">  1       -2 0.10267790E+00 0.18139102E+04</pdfrwt>
<totfact> 0.13251288E+01</totfact>
</mgrwt>
</event>
<event>
 6    1  0.1614874E-005  0.7443668E+03  0.7818608E-02  0.9644230E-01
         -2   -1    0    0    0  501 -0.00000000000E+00  0.00000000000E+00  0.17923482028E+03  0.17923482028E+03  0.00000000000E+00 0.  1.
          2   -1    0    0  501    0  0.00000000000E+00 -0.00000000000E+00 -0.77284369059E+03  0.77284369059E+03  0.00000000000E+00 0. -1.
         23    2    1    2    0    0  0.16477412955E+03 -0.12818483795E+03  0.83501731945E+02  0.24351613949E+03  0.93518471470E+02 0.  0.
         11    1    3    3    0    0  0.56525245408E+02 -0.49891218870E+01 -0.53494700934E+01  0.56996592318E+02  0.00000000000E+00 0. -1.
        -11    1    3    3    0    0  0.10824888414E+03 -0.12319571606E+03  0.88851202039E+02  0.18651954717E+03  0.00000000000E+00 0.  1.
         22    1    1    2    0    0 -0.16477412955E+03  0.12818483795E+03 -0.67711060226E+03  0.70856237138E+03  0.00000000000E+00 0. -1.
<mgrwt>
<rscale>  0 0.74436685E+03</rscale>
<asrwt>0</asrwt>
<pdfrwt beam="1">  1        2 0.11889903E+00 0.74436685E+03</pdfrwt>
<pdfrwt beam="2">  1       -2 0.27574588E-01 0.74436685E+03</pdfrwt>
<totfact> 0.43454779E+02</totfact>
</mgrwt>
</event>
<event>
 6    1  0.1614874E-005  0.3560795E+04  0.7818608E-02  0.8099531E-01
          1   -1    0    0  501    0  0.00000000000E+00  0.00000000000E+00  0.21045870961E+04  0.21045870961E+04  0.00000000000E+00 0. -1.
         -1   -1    0    0    0  501 -0.00000000000E+00 -0.00000000000E+00 -0.15061461212E+04  0.15061461212E+04  0.00000000000E+00 0.  1.
         23    2    1    2    0    0 -0.55325189181E+03  0.85088073566E+02  0.20119827257E+04  0.20903951242E+04  0.91376423288E+02 0.  0.
         13    1    3    3    0    0 -0.14090892455E+03  0.56736468087E+02  0.62070102714E+03  0.63901808811E+03  0.00000000000E+00 0.  1.
        -13    1    3    3    0    0 -0.41234296726E+03  0.28351605479E+02  0.13912816986E+04  0.14513770361E+04  0.00000000000E+00 0. -1.
         22    1    1    2    0    0  0.55325189181E+03 -0.85088073566E+02 -0.14135417508E+04  0.15203380931E+04  0.00000000000E+00 0.  1.
<mgrwt>
<rscale>  0 0.35607952E+04</rscale>
<asrwt>0</asrwt>
<pdfrwt beam="1">  1        1 0.32378263E+00 0.35607952E+04</pdfrwt>
<pdfrwt beam="2">  1       -1 0.23171479E+00 0.35607952E+04</pdfrwt>
<totfact> 0.18886580E-01</totfact>
</mgrwt>
</event>
<event>
 6    1  0.1614874E-005  0.1679172E+04  0.7818608E-02  0.8773333E-01
          1   -1    0    0  501    0  0.00000000000E+00  0.00000000000E+00  0.71195719566E+03  0.71195719566E+03  0.00000000000E+00 0. -1.
         -1   -1    0    0    0  501 -0.00000000000E+00 -0.00000000000E+00 -0.99009414219E+03  0.99009414219E+03  0.00000000000E+00 0.  1.
         23    2    1    2    0    0  0.66361447944E+03  0.48158152712E+03  0.31428495979E+02  0.82561782196E+03  0.91389786026E+02 0.  0.
         11    1    3    3    0    0  0.33991344776E+03  0.28545734106E+03  0.49987740538E+02  0.44668313124E+03  0.00000000000E+00 0. -1.
        -11    1    3    3    0    0  0.32370103168E+03  0.19612418606E+03 -0.18559244559E+02  0.37893469071E+03  0.00000000000E+00 0.  1.
         22    1    1    2    0    0 -0.66361447944E+03 -0.48158152712E+03 -0.30956544251E+03  0.87643351589E+03  0.00000000000E+00 0.  1.
<mgrwt>
<rscale>  0 0.16791720E+04</rscale>
<asrwt>0</asrwt>
<pdfrwt beam="1">  1        1 0.10953188E+00 0.16791720E+04</pdfrwt>
<pdfrwt beam="2">  1       -1 0.15232218E+00 0.16791720E+04</pdfrwt>
<totfact> 0.84702946E+00</totfact>
</mgrwt>
</event>
<event>
 6    1  0.1614874E-005  0.3702139E+04  0.7818608E-02  0.8067488E-01
         -2   -1    0    0    0  501 -0.00000000000E+00  0.00000000000E+00  0.20687229093E+04  0.20687229093E+04  0.00000000000E+00 0.  1.
          2   -1    0    0  501    0  0.00000000000E+00 -0.00000000000E+00 -0.16563154695E+04  0.16563154695E+04  0.00000000000E+00 0. -1.
         23    2    1    2    0    0 -0.11682135102E+04  0.12484342684E+04  0.91706324320E+03  0.19423470404E+04  0.91630264050E+02 0.  0.
         11    1    3    3    0    0 -0.76415310175E+03  0.83138800471E+03  0.55734481078E+03  0.12592732886E+04  0.00000000000E+00 0. -1.
        -11    1    3    3    0    0 -0.40406040848E+03  0.41704626371E+03  0.35971843242E+03  0.68307375180E+03  0.00000000000E+00 0.  1.
         22    1    1    2    0    0  0.11682135102E+04 -0.12484342684E+04 -0.50465580338E+03  0.17826913384E+04  0.00000000000E+00 0. -1.
<mgrwt>
<rscale>  0 0.37021387E+04</rscale>
<asrwt>0</asrwt>
<pdfrwt beam="1">  1        2 0.25481777E+00 0.37021387E+04</pdfrwt>
<pdfrwt beam="2">  1       -2 0.31826506E+00 0.37021387E+04</pdfrwt>
<totfact> 0.20571942E-01</totfact>
</mgrwt>
</event>
<event>
 6    1  0.1614874E-005  0.1932053E+04  0.7818608E-02  0.8639064E-01
          1   -1    0    0  501    0  0.00000000000E+00  0.00000000000E+00  0.35026868985E+04  0.35026868985E+04  0.00000000000E+00 0. -1.
         -1   -1    0    0    0  501 -0.00000000000E+00 -0.00000000000E+00 -0.26642602437E+03  0.26642602437E+03  0.00000000000E+00 0.  1.
         23    2    1    2    0    0  0.76480787164E+03  0.36042462856E+03  0.71876003633E+03  0.11134308143E+04  0.90968099166E+02 0.  0.
         13    1    3    3    0    0  0.23686995312E+03  0.14960553197E+03  0.20442274550E+03  0.34681096979E+03  0.00000000000E+00 0. -1.
        -13    1    3    3    0    0  0.52793791852E+03  0.21081909659E+03  0.51433729084E+03  0.76661984454E+03  0.00000000000E+00 0.  1.
         22    1    1    2    0    0 -0.76480787164E+03 -0.36042462856E+03  0.25175008378E+04  0.26556821086E+04  0.00000000000E+00 0. -1.
<mgrwt>
<rscale>  0 0.19320527E+04</rscale>
<asrwt>0</asrwt>
<pdfrwt beam="1">  1        1 0.53887487E+00 0.19320527E+04</pdfrwt>
<pdfrwt beam="2">  1       -1 0.40988622E-01 0.19320527E+04</pdfrwt>
<totfact> 0.13582117E+00</totfact>
</mgrwt>
</event>
<event>
 6    1  0.1614874E-005  0.3415715E+04  0.7818608E-02  0.8134060E-01
         -1   -1    0    0    0  501 -0.00000000000E+00  0.00000000000E+00  0.12216151596E+04  0.12216151596E+04  0.00000000000E+00 0. -1.
          1   -1    0    0  501    0  0.00000000000E+00 -0.00000000000E+00 -0.23876400784E+04  0.23876400784E+04  0.00000000000E+00 0.  1.
         23    2    1    2    0    0 -0.14374405463E+04 -0.35960726092E+03  0.31127123524E+03  0.15168985206E+04  0.92404726536E+02 0.  0.
         11    1    3    3    0    0 -0.84910288870E+03 -0.18409904092E+03  0.14524587037E+03  0.88088849200E+03  0.00000000000E+00 0.  1.
        -11    1    3    3    0    0 -0.58833765764E+03 -0.17550822001E+03  0.16602536486E+03  0.63601002859E+03  0.00000000000E+00 0. -1.
         22    1    1    2    0    0  0.14374405463E+04  0.35960726092E+03 -0.14772961540E+04  0.20923567174E+04  0.00000000000E+00 0.  1.
<mgrwt>
<rscale>  0 0.34157150E+04</rscale>
<asrwt>0</asrwt>
<pdfrwt beam="1">  1        1 0.36732924E+00 0.34157150E+04</pdfrwt>
<pdfrwt beam="2">  1       -1 0.18794080E+00 0.34157150E+04</pdfrwt>
<totfact> 0.24317296E-01</totfact>
</mgrwt>
</event>
<event>
 6    1  0.1614874E-005  0.2700353E+04  0.7818608E-02  0.8334890E-01
          1   -1    0    0  501    0  0.00000000000E+00  0.00000000000E+00  0.16257825210E+04  0.16257825210E+04  0.00000000000E+00 0. -1.
         -1   -1    0    0    0  501 -0.00000000000E+00 -0.00000000000E+00 -0.11212921087E+04  0.11212921087E+04  0.00000000000E+00 0.  1.
         23    2    1    2    0    0 -0.76000001088E+03  0.36096743894E+03  0.13247545134E+04  0.15720296502E+04  0.91679832086E+02 0.  0.
         13    1    3    3    0    0 -0.59044856230E+03  0.26856731171E+03  0.94805667393E+03  0.11487251032E+04  0.00000000000E+00 0. -1.
        -13    1    3    3    0    0 -0.16955144858E+03  0.92400127230E+02  0.37669783950E+03  0.42330454700E+03  0.00000000000E+00 0.  1.
         22    1    1    2    0    0  0.76000001088E+03 -0.36096743894E+03 -0.82026410115E+03  0.11750449796E+04  0.00000000000E+00 0.  1.
<mgrwt>
<rscale>  0 0.27003534E+04</rscale>
<asrwt>0</asrwt>
<pdfrwt beam="1">  1        1 0.25012039E+00 0.27003534E+04</pdfrwt>
<pdfrwt beam="2">  1       -1 0.17250648E+00 0.27003534E+04</pdfrwt>
<totfact> 0.11033193E+00</totfact>
</mgrwt>
</event>
<event>
 6    1  0.1614874E-005  0.2155994E+04  0.7818608E-02  0.8536971E-01
         -2   -1    0    0    0  501 -0.00000000000E+00  0.00000000000E+00  0.12714588760E+04  0.12714588760E+04  0.00000000000E+00 0. -1.
          2   -1    0    0  501    0  0.00000000000E+00 -0.00000000000E+00 -0.91397186467E+03  0.91397186467E+03  0.00000000000E+00 0.  1.
         23    2    1    2    0    0 -0.62904102988E+03 -0.19565107746E+03 -0.68350475366E+03  0.95350711634E+03  0.89582985301E+02 0.  0.
         13    1    3    3    0    0 -0.52850563910E+03 -0.19723812335E+03 -0.58770749045E+03  0.81462947540E+03  0.00000000000E+00 0.  1.
        -13    1    3    3    0    0 -0.10053539078E+03  0.15870458967E+01 -0.95797263205E+02  0.13887764094E+03  0.00000000000E+00 0. -1.
         22    1    1    2    0    0  0.62904102988E+03  0.19565107746E+03  0.10409917650E+04  0.12319236243E+04  0.00000000000E+00 0. -1.
<mgrwt>
<rscale>  0 0.21559941E+04</rscale>
<asrwt>0</asrwt>
<pdfrwt beam="1">  1        2 0.14061106E+00 0.21559941E+04</pdfrwt>
<pdfrwt beam="2">  1       -2 0.19560906E+00 0.21559941E+04</pdfrwt>
<totfact> 0.37410984E+00</totfact>
</mgrwt>
</event>
<event>
 6    1  0.1614874E-005  0.1747817E+04  0.7818608E-02  0.8734553E-01
          2   -1    0    0  501    0  0.00000000000E+00  0.00000000000E+00  0.32785539471E+04  0.32785539471E+04  0.00000000000E+00 0. -1.
         -2   -1    0    0    0  501 -0.00000000000E+00 -0.00000000000E+00 -0.23294298269E+03  0.23294298269E+03  0.00000000000E+00 0.  1.
         23    2    1    2    0    0 -0.84925762925E+03  0.12783259808E+02  0.11358524856E+04  0.14213822487E+04  0.93619951912E+02 0.  0.
         13    1    3    3    0    0 -0.35923389178E+02 -0.78834045209E+01  0.25070482243E+02  0.44510302591E+02  0.00000000000E+00 0.  1.
        -13    1    3    3    0    0 -0.81333424008E+03  0.20666664329E+02  0.11107820033E+04  0.13768719461E+04  0.00000000000E+00 0. -1.
         22    1    1    2    0    0  0.84925762925E+03 -0.12783259808E+02  0.19097584788E+04  0.20901146811E+04  0.00000000000E+00 0. -1.
<mgrwt>
<rscale>  0 0.17478171E+04</rscale>
<asrwt>0</asrwt>
<pdfrwt beam="1">  1        2 0.50439288E+00 0.17478171E+04</pdfrwt>
<pdfrwt beam="2">  1       -2 0.35837384E-01 0.17478171E+04</pdfrwt>
<totfact> 0.80430129E+00</totfact>
</mgrwt>
</event>
<event>
 6    1  0.1614874E-005  0.6520774E+03  0.7818608E-02  0.9802889E-01
          2   -1    0    0  501    0  0.00000000000E+00  0.00000000000E+00  0.12115477536E+04  0.12115477536E+04  0.00000000000E+00 0. -1.
         -2   -1    0    0    0  501 -0.00000000000E+00 -0.00000000000E+00 -0.87740015428E+02  0.87740015428E+02  0.00000000000E+00 0.  1.
         23    2    1    2    0    0 -0.17378154201E+03  0.86285071920E+02  0.10791556798E+04  0.11001924544E+04  0.90561126156E+02 0.  0.
         13    1    3    3    0    0 -0.51213768543E+02 -0.16833577530E+02  0.26349281136E+03  0.26895107559E+03  0.00000000000E+00 0. -1.
        -13    1    3    3    0    0 -0.12256777346E+03  0.10311864945E+03  0.81566286840E+03  0.83124137881E+03  0.00000000000E+00 0.  1.
         22    1    1    2    0    0  0.17378154201E+03 -0.86285071920E+02  0.44652058381E+02  0.19909531460E+03  0.00000000000E+00 0.  1.
<mgrwt>
<rscale>  0 0.65207735E+03</rscale>
<asrwt>0</asrwt>
<pdfrwt beam="1">  1        2 0.18639195E+00 0.65207735E+03</pdfrwt>
<pdfrwt beam="2">  1       -2 0.13498465E-01 0.65207735E+03</pdfrwt>
<totfact> 0.78863522E+02</totfact>
</mgrwt>
</event>
<event>
 6    1  0.2439611E-005  0.3161102E+04  0.7818608E-02  0.8199166E-01
         -1   -1    0    0    0  501 -0.00000000000E+00  0.00000000000E+00  0.13406129048E+04  0.13406129048E+04  0.00000000000E+00 0.  1.
          1   -1    0    0  501    0  0.00000000000E+00 -0.00000000000E+00 -0.18634323965E+04  0.18634323965E+04  0.00000000000E+00 0. -1.
         23    2    1    2    0    0 -0.83258816257E+02  0.14308751710E+04  0.41044544353E+03  0.14936888400E+04  0.91132339252E+02 0.  0.
         13    1    3    3    0    0 -0.96566592039E+01  0.67896431784E+03  0.23006970790E+03  0.71695039330E+03  0.00000000000E+00 0.  1.
        -13    1    3    3    0    0 -0.73602157054E+02  0.75191085316E+03  0.18037573564E+03  0.77673844673E+03  0.00000000000E+00 0. -1.
         22    1    1    2    0    0  0.83258816257E+02 -0.14308751710E+04 -0.93326493520E+03  0.17103564613E+04  0.00000000000E+00 0. -1.
<mgrwt>
<rscale>  0 0.31611020E+04</rscale>
<asrwt>0</asrwt>
<pdfrwt beam="1">  1        1 0.28668191E+00 0.31611020E+04</pdfrwt>
<pdfrwt beam="2">  1       -1 0.20624814E+00 0.31611020E+04</pdfrwt>
<totfact> 0.42225999E-01</totfact>
</mgrwt>
</event>
<event>
 6    1  0.1614874E-005  0.8037745E+03  0.7818608E-02  0.9554570E-01
         -3   -1    0    0    0  501 -0.00000000000E+00  0.00000000000E+00  0.81945550046E+03  0.81945550046E+03  0.00000000000E+00 0.  1.
          3   -1    0    0  501    0  0.00000000000E+00 -0.00000000000E+00 -0.19709840745E+03  0.19709840745E+03  0.00000000000E+00 0. -1.
         23    2    1    2    0    0 -0.32754278678E+03  0.70323062432E+02  0.58449796968E+03  0.67941458433E+03  0.87958459278E+02 0.  0.
         13    1    3    3    0    0 -0.13202907207E+03  0.31804844848E+02  0.32499055330E+03  0.35222447922E+03  0.00000000000E+00 0.  1.
        -13    1    3    3    0    0 -0.19551371471E+03  0.38518217584E+02  0.25950741638E+03  0.32719010511E+03  0.00000000000E+00 0. -1.
         22    1    1    2    0    0  0.32754278678E+03 -0.70323062432E+02  0.37859123329E+02  0.33713932358E+03  0.00000000000E+00 0. -1.
<mgrwt>
<rscale>  0 0.80377453E+03</rscale>
<asrwt>0</asrwt>
<pdfrwt beam="1">  1        3 0.30322832E-01 0.80377453E+03</pdfrwt>
<pdfrwt beam="2">  1       -3 0.12607008E+00 0.80377453E+03</pdfrwt>
<totfact> 0.14021044E+01</totfact>
</mgrwt>
</event>
<event>
 6    1  0.1614874E-005  0.1819926E+04  0.7818608E-02  0.8695774E-01
         -1   -1    0    0    0  501 -0.00000000000E+00  0.00000000000E+00  0.85184941430E+03  0.85184941430E+03  0.00000000000E+00 0.  1.
          1   -1    0    0  501    0  0.00000000000E+00 -0.00000000000E+00 -0.97204139057E+03  0.97204139057E+03  0.00000000000E+00 0. -1.
         23    2    1    2    0    0 -0.69663758872E+03 -0.56036553224E+03 -0.21749874952E+03  0.92456768837E+03  0.90588324810E+02 0.  0.
         13    1    3    3    0    0 -0.29066215525E+03 -0.28126328585E+03 -0.12460955360E+03  0.42322696666E+03  0.00000000000E+00 0. -1.
        -13    1    3    3    0    0 -0.40597543347E+03 -0.27910224639E+03 -0.92889195918E+02  0.50134072171E+03  0.00000000000E+00 0.  1.
         22    1    1    2    0    0  0.69663758872E+03  0.56036553224E+03  0.97306773256E+02  0.89932311650E+03  0.00000000000E+00 0. -1.
<mgrwt>
<rscale>  0 0.18199263E+04</rscale>
<asrwt>0</asrwt>
<pdfrwt beam="1">  1        1 0.14954483E+00 0.18199263E+04</pdfrwt>
<pdfrwt beam="2">  1       -1 0.13105376E+00 0.18199263E+04</pdfrwt>
<totfact> 0.74517306E+00</totfact>
</mgrwt>
</event>
<event>
 6    1  0.1614874E-005  0.1222232E+04  0.7818608E-02  0.9093616E-01
         -2   -1    0    0    0  501 -0.00000000000E+00  0.00000000000E+00  0.14518339101E+03  0.14518339101E+03  0.00000000000E+00 0.  1.
          2   -1    0    0  501    0  0.00000000000E+00 -0.00000000000E+00 -0.25723528522E+04  0.25723528522E+04  0.00000000000E+00 0. -1.
         23    2    1    2    0    0  0.34458208052E+03  0.16503228913E+03 -0.16911744930E+03  0.42738966383E+03  0.89937458360E+02 0.  0.
         11    1    3    3    0    0  0.20517202437E+03  0.48581973817E+02 -0.92608746175E+02  0.23028709827E+03  0.00000000000E+00 0. -1.
        -11    1    3    3    0    0  0.13941005615E+03  0.11645031532E+03 -0.76508703128E+02  0.19710256555E+03  0.00000000000E+00 0.  1.
         22    1    1    2    0    0 -0.34458208052E+03 -0.16503228913E+03 -0.22580520118E+04  0.22901465793E+04  0.00000000000E+00 0. -1.
<mgrwt>
<rscale>  0 0.12222322E+04</rscale>
<asrwt>0</asrwt>
<pdfrwt beam="1">  1        2 0.39574656E+00 0.12222322E+04</pdfrwt>
<pdfrwt beam="2">  1       -2 0.22335908E-01 0.12222322E+04</pdfrwt>
<totfact> 0.55080990E+01</totfact>
</mgrwt>
</event>
<event>
 6    1  0.1614874E-005  0.1316443E+04  0.7818608E-02  0.9016627E-01
         -2   -1    0    0    0  501 -0.00000000000E+00  0.00000000000E+00  0.25389274522E+03  0.25389274522E+03  0.00000000000E+00 0. -1.
          2   -1    0    0  501    0  0.00000000000E+00 -0.00000000000E+00 -0.17064506282E+04  0.17064506282E+04  0.00000000000E+00 0.  1.
         23    2    1    2    0    0  0.65826499275E+02  0.52870867011E+03 -0.12966653748E+04  0.14052141452E+04  0.97055210731E+02 0.  0.
         11    1    3    3    0    0 -0.87187303548E+01  0.22954108226E+03 -0.47552124783E+03  0.52809618616E+03  0.00000000000E+00 0.  1.
        -11    1    3    3    0    0  0.74545229630E+02  0.29916758785E+03 -0.82114412694E+03  0.87711795905E+03  0.00000000000E+00 0. -1.
         22    1    1    2    0    0 -0.65826499275E+02 -0.52870867011E+03 -0.15589250816E+03  0.55512922816E+03  0.00000000000E+00 0. -1.
<mgrwt>
<rscale>  0 0.13164428E+04</rscale>
<asrwt>0</asrwt>
<pdfrwt beam="1">  1        2 0.26253086E+00 0.13164428E+04</pdfrwt>
<pdfrwt beam="2">  1       -2 0.39060423E-01 0.13164428E+04</pdfrwt>
<totfact> 0.58991483E+01</totfact>
</mgrwt>
</event>
<event>
 6    1  0.1614874E-005  0.2836001E+04  0.7818608E-02  0.8292178E-01
         -1   -1    0    0    0  501 -0.00000000000E+00  0.00000000000E+00  0.64555218268E+03  0.64555218268E+03  0.00000000000E+00 0.  1.
          1   -1    0    0  501    0  0.00000000000E+00 -0.00000000000E+00 -0.31147362277E+04  0.31147362277E+04  0.00000000000E+00 0. -1.
         23    2    1    2    0    0 -0.81194217091E+03  0.91571555060E+03 -0.28998500785E+03  0.12609497974E+04  0.90100101933E+02 0.  0.
         13    1    3    3    0    0 -0.17071830083E+03  0.24239575754E+03 -0.90577969409E+02  0.31000775805E+03  0.00000000000E+00 0. -1.
        -13    1    3    3    0    0 -0.64122387008E+03  0.67331979306E+03 -0.19940703844E+03  0.95094203938E+03  0.00000000000E+00 0.  1.
         22    1    1    2    0    0  0.81194217091E+03 -0.91571555060E+03 -0.21791990371E+04  0.24993386129E+04  0.00000000000E+00 0. -1.
<mgrwt>
<rscale>  0 0.28360005E+04</rscale>
<asrwt>0</asrwt>
<pdfrwt beam="1">  1        1 0.47919019E+00 0.28360005E+04</pdfrwt>
<pdfrwt beam="2">  1       -1 0.99315720E-01 0.28360005E+04</pdfrwt>
<totfact> 0.41098647E-01</totfact>
</mgrwt>
</event>
<event>
 6    1  0.1614874E-005  0.6454408E+04  0.7818608E-02  0.7636479E-01
         -1   -1    0    0    0  501 -0.00000000000E+00  0.00000000000E+00  0.27840531988E+04  0.27840531988E+04  0.00000000000E+00 0.  1.
          1   -1    0    0  501    0  0.00000000000E+00 -0.00000000000E+00 -0.37408929790E+04  0.37408929790E+04  0.00000000000E+00 0. -1.
         23    2    1    2    0    0  0.70038185528E+03  0.31314014324E+04 -0.82061088985E+03  0.33132849278E+04  0.90802567465E+02 0.  0.
         11    1    3    3    0    0  0.30767862838E+02  0.16714236411E+03 -0.63657509641E+02  0.18148143100E+03  0.00000000000E+00 0.  1.
        -11    1    3    3    0    0  0.66961399244E+03  0.29642590683E+04 -0.75695338021E+03  0.31318034968E+04  0.00000000000E+00 0. -1.
         22    1    1    2    0    0 -0.70038185528E+03 -0.31314014324E+04 -0.13622889035E+03  0.32116612500E+04  0.00000000000E+00 0.  1.
<mgrwt>
<rscale>  0 0.64544078E+04</rscale>
<asrwt>0</asrwt>
<pdfrwt beam="1">  1        1 0.57552200E+00 0.64544078E+04</pdfrwt>
<pdfrwt beam="2">  1       -1 0.42831588E+00 0.64544078E+04</pdfrwt>
<totfact> 0.47100933E-04</totfact>
</mgrwt>
</event>
<event>
 6    1  0.1614874E-005  0.3886820E+04  0.7818608E-02  0.8027776E-01
          2   -1    0    0  501    0  0.00000000000E+00  0.00000000000E+00  0.34389992819E+04  0.34389992819E+04  0.00000000000E+00 0. -1.
         -2   -1    0    0    0  501 -0.00000000000E+00 -0.00000000000E+00 -0.10982385496E+04  0.10982385496E+04  0.00000000000E+00 0.  1.
         23    2    1    2    0    0  0.84391732093E+03 -0.16256115056E+04  0.19255424765E+04  0.26591495983E+04  0.92485380520E+02 0.  0.
         13    1    3    3    0    0  0.29364648806E+03 -0.49673152484E+03  0.56466996322E+03  0.80735533385E+03  0.00000000000E+00 0. -1.
        -13    1    3    3    0    0  0.55027083287E+03 -0.11288799808E+04  0.13608725133E+04  0.18517942645E+04  0.00000000000E+00 0.  1.
         22    1    1    2    0    0 -0.84391732093E+03  0.16256115056E+04  0.41521825581E+03  0.18780882332E+04  0.00000000000E+00 0.  1.
<mgrwt>
<rscale>  0 0.38868196E+04</rscale>
<asrwt>0</asrwt>
<pdfrwt beam="1">  1        2 0.52907681E+00 0.38868196E+04</pdfrwt>
<pdfrwt beam="2">  1       -2 0.16895978E+00 0.38868196E+04</pdfrwt>
<totfact> 0.15446884E-01</totfact>
</mgrwt>
</event>
<event>
 6    1  0.1614874E-005  0.1986532E+04  0.7818608E-02  0.8612943E-01
          1   -1    0    0  501    0  0.00000000000E+00  0.00000000000E+00  0.10193120532E+04  0.10193120532E+04  0.00000000000E+00 0. -1.
         -1   -1    0    0    0  501 -0.00000000000E+00 -0.00000000000E+00 -0.96788594694E+03  0.96788594694E+03  0.00000000000E+00 0.  1.
         23    2    1    2    0    0  0.76881636242E+03  0.57190649821E+03  0.28208527125E+03  0.10016223855E+04  0.74294421402E+02 0.  0.
         13    1    3    3    0    0  0.45314525639E+03  0.35535557032E+03  0.13459216825E+03  0.59138249594E+03  0.00000000000E+00 0. -1.
        -13    1    3    3    0    0  0.31567110603E+03  0.21655092789E+03  0.14749310301E+03  0.41023988956E+03  0.00000000000E+00 0.  1.
         22    1    1    2    0    0 -0.76881636242E+03 -0.57190649821E+03 -0.23065916498E+03  0.98557561466E+03  0.00000000000E+00 0. -1.
<mgrwt>
<rscale>  0 0.19865325E+04</rscale>
<asrwt>0</asrwt>
<pdfrwt beam="1">  1        1 0.15681724E+00 0.19865325E+04</pdfrwt>
<pdfrwt beam="2">  1       -1 0.14890553E+00 0.19865325E+04</pdfrwt>
<totfact> 0.48306462E+00</totfact>
</mgrwt>
</event>
<event>
 6    1  0.1614874E-005  0.5569377E+03  0.7818608E-02  0.9999008E-01
         -2   -1    0    0    0  501 -0.00000000000E+00  0.00000000000E+00  0.73568074634E+02  0.73568074634E+02  0.00000000000E+00 0.  1.
          2   -1    0    0  501    0  0.00000000000E+00 -0.00000000000E+00 -0.10540563165E+04  0.10540563165E+04  0.00000000000E+00 0. -1.
         23    2    1    2    0    0  0.96676948696E+02  0.10514548272E+03 -0.96973614866E+03  0.98438468833E+03  0.90680822995E+02 0.  0.
         13    1    3    3    0    0  0.30996337185E+02  0.82338291429E+02 -0.71274382579E+03  0.71815327636E+03  0.00000000000E+00 0. -1.
        -13    1    3    3    0    0  0.65680611510E+02  0.22807191291E+02 -0.25699232287E+03  0.26623141196E+03  0.00000000000E+00 0.  1.
         22    1    1    2    0    0 -0.96676948696E+02 -0.10514548272E+03 -0.10752093188E+02  0.14323970278E+03  0.00000000000E+00 0.  1.
<mgrwt>
<rscale>  0 0.55693768E+03</rscale>
<asrwt>0</asrwt>
<pdfrwt beam="1">  1        2 0.16216252E+00 0.55693768E+03</pdfrwt>
<pdfrwt beam="2">  1       -2 0.11318165E-01 0.55693768E+03</pdfrwt>
<totfact> 0.13158096E+03</totfact>
</mgrwt>
</event>
<event>
 6    1  0.1614874E-005  0.3338427E+04  0.7818608E-02  0.8153186E-01
          1   -1    0    0  501    0  0.00000000000E+00  0.00000000000E+00  0.18632647745E+04  0.18632647745E+04  0.00000000000E+00 0. -1.
         -1   -1    0    0    0  501 -0.00000000000E+00 -0.00000000000E+00 -0.14953722252E+04  0.14953722252E+04  0.00000000000E+00 0.  1.
         23    2    1    2    0    0 -0.91571519649E+03 -0.20209087644E+03  0.15719036358E+04  0.18325250313E+04  0.88836405547E+02 0.  0.
         11    1    3    3    0    0 -0.71606317188E+03 -0.19384246581E+03  0.12194806803E+04  0.14273943034E+04  0.00000000000E+00 0. -1.
        -11    1    3    3    0    0 -0.19965202461E+03 -0.82484106306E+01  0.35242295547E+03  0.40513072798E+03  0.00000000000E+00 0.  1.
         22    1    1    2    0    0  0.91571519649E+03  0.20209087644E+03 -0.12040110865E+04  0.15261119683E+04  0.00000000000E+00 0.  1.
<mgrwt>
<rscale>  0 0.33384274E+04</rscale>
<asrwt>0</asrwt>
<pdfrwt beam="1">  1        1 0.28665612E+00 0.33384274E+04</pdfrwt>
<pdfrwt beam="2">  1       -1 0.23005726E+00 0.33384274E+04</pdfrwt>
<totfact> 0.28780582E-01</totfact>
</mgrwt>
</event>
<event>
 6    1  0.1614874E-005  0.1129039E+04  0.7818608E-02  0.9177341E-01
         -1   -1    0    0    0  501 -0.00000000000E+00  0.00000000000E+00  0.43695048729E+03  0.43695048729E+03  0.00000000000E+00 0.  1.
          1   -1    0    0  501    0  0.00000000000E+00 -0.00000000000E+00 -0.72933301317E+03  0.72933301317E+03  0.00000000000E+00 0. -1.
         23    2    1    2    0    0 -0.91395994238E+02  0.54497510326E+03 -0.36330054786E+02  0.55725644122E+03  0.62159291002E+02 0.  0.
         11    1    3    3    0    0 -0.54627917789E+02  0.18567880835E+03  0.57997600033E+01  0.19363487932E+03  0.00000000000E+00 0. -1.
        -11    1    3    3    0    0 -0.36768076449E+02  0.35929629491E+03 -0.42129814790E+02  0.36362156190E+03  0.00000000000E+00 0.  1.
         22    1    1    2    0    0  0.91395994238E+02 -0.54497510326E+03 -0.25605247109E+03  0.60902705924E+03  0.00000000000E+00 0.  1.
<mgrwt>
<rscale>  0 0.11290393E+04</rscale>
<asrwt>0</asrwt>
<pdfrwt beam="1">  1        1 0.11220508E+00 0.11290393E+04</pdfrwt>
<pdfrwt beam="2">  1       -1 0.67223152E-01 0.11290393E+04</pdfrwt>
<totfact> 0.57043589E+01</totfact>
</mgrwt>
</event>
<event>
 6    1  0.1614874E-005  0.1016483E+04  0.7818608E-02  0.9290649E-01
          2   -1    0    0  501    0  0.00000000000E+00  0.00000000000E+00  0.43552564420E+03  0.43552564420E+03  0.00000000000E+00 0.  1.
         -2   -1    0    0    0  501 -0.00000000000E+00 -0.00000000000E+00 -0.59309792074E+03  0.59309792074E+03  0.00000000000E+00 0. -1.
         23    2    1    2    0    0  0.46962755968E+03  0.14719748731E+03  0.30731997275E+02  0.50167418917E+03  0.92278878101E+02 0.  0.
         11    1    3    3    0    0  0.30284116617E+03  0.64031125498E+02  0.52776796200E+02  0.31400341906E+03  0.00000000000E+00 0. -1.
        -11    1    3    3    0    0  0.16678639351E+03  0.83166361816E+02 -0.22044798925E+02  0.18767077012E+03  0.00000000000E+00 0.  1.
         22    1    1    2    0    0 -0.46962755968E+03 -0.14719748731E+03 -0.18830427382E+03  0.52694937576E+03  0.00000000000E+00 0. -1.
<mgrwt>
<rscale>  0 0.10164829E+04</rscale>
<asrwt>0</asrwt>
<pdfrwt beam="1">  1        2 0.67003946E-01 0.10164829E+04</pdfrwt>
<pdfrwt beam="2">  1       -2 0.91245834E-01 0.10164829E+04</pdfrwt>
<totfact> 0.73764758E+01</totfact>
</mgrwt>
</event>
<event>
 6    1  0.1614874E-005  0.9267483E+03  0.7818608E-02  0.9392749E-01
         -1   -1    0    0    0  501 -0.00000000000E+00  0.00000000000E+00  0.73867639647E+02  0.73867639647E+02  0.00000000000E+00 0.  1.
          1   -1    0    0  501    0  0.00000000000E+00 -0.00000000000E+00 -0.29067613601E+04  0.29067613601E+04  0.00000000000E+00 0. -1.
         23    2    1    2    0    0  0.12989775587E+03 -0.36711447218E+03 -0.22110508685E+04  0.22469158438E+04  0.90765651109E+02 0.  0.
         13    1    3    3    0    0  0.11400265471E+03 -0.24353570056E+03 -0.16842888098E+04  0.17056186671E+04  0.00000000000E+00 0. -1.
        -13    1    3    3    0    0  0.15895101158E+02 -0.12357877162E+03 -0.52676205865E+03  0.54129717667E+03  0.00000000000E+00 0.  1.
         22    1    1    2    0    0 -0.12989775587E+03  0.36711447218E+03 -0.62184285195E+03  0.73371315593E+03  0.00000000000E+00 0.  1.
<mgrwt>
<rscale>  0 0.92674830E+03</rscale>
<asrwt>0</asrwt>
<pdfrwt beam="1">  1        1 0.44719401E+00 0.92674830E+03</pdfrwt>
<pdfrwt beam="2">  1       -1 0.11364253E-01 0.92674830E+03</pdfrwt>
<totfact> 0.37139738E+01</totfact>
</mgrwt>
</event>
<event>
 6    1  0.1614874E-005  0.4504057E+03  0.7818608E-02  0.1027601E+00
          2   -1    0    0  501    0  0.00000000000E+00  0.00000000000E+00  0.25332293310E+04  0.25332293310E+04  0.00000000000E+00 0. -1.
         -2   -1    0    0    0  501 -0.00000000000E+00 -0.00000000000E+00 -0.20020425856E+02  0.20020425856E+02  0.00000000000E+00 0.  1.
         23    2    1    2    0    0  0.77607319024E+02  0.66146781399E+02  0.23874472271E+04  0.23913414732E+04  0.90617252696E+02 0.  0.
         11    1    3    3    0    0  0.62009739478E+00  0.51946334247E+02  0.13228716960E+04  0.13238913589E+04  0.00000000000E+00 0.  1.
        -11    1    3    3    0    0  0.76987221629E+02  0.14200447152E+02  0.10645755312E+04  0.10674501143E+04  0.00000000000E+00 0. -1.
         22    1    1    2    0    0 -0.77607319024E+02 -0.66146781399E+02  0.12576167799E+03  0.16190828362E+03  0.00000000000E+00 0.  1.
<mgrwt>
<rscale>  0 0.45040573E+03</rscale>
<asrwt>0</asrwt>
<pdfrwt beam="1">  1        2 0.38972734E+00 0.45040573E+03</pdfrwt>
<pdfrwt beam="2">  1       -2 0.30800675E-02 0.45040573E+03</pdfrwt>
<totfact> 0.15377268E+03</totfact>
</mgrwt>
</event>
<event>
 6    1  0.1614874E-005  0.6188853E+03  0.7818608E-02  0.9866982E-01
         -2   -1    0    0    0  501 -0.00000000000E+00  0.00000000000E+00  0.10617928582E+03  0.10617928582E+03  0.00000000000E+00 0. -1.
          2   -1    0    0  501    0  0.00000000000E+00 -0.00000000000E+00 -0.90182138407E+03  0.90182138407E+03  0.00000000000E+00 0.  1.
         23    2    1    2    0    0 -0.19852179189E+03  0.20875420742E+03 -0.25565223161E+03  0.39597266641E+03  0.91907932450E+02 0.  0.
         13    1    3    3    0    0 -0.48531799427E+02  0.11346484565E+03 -0.12285155720E+03  0.17413245493E+03  0.00000000000E+00 0. -1.
        -13    1    3    3    0    0 -0.14998999246E+03  0.95289361765E+02 -0.13280067441E+03  0.22184021147E+03  0.00000000000E+00 0.  1.
         22    1    1    2    0    0  0.19852179189E+03 -0.20875420742E+03 -0.53998986664E+03  0.61202800348E+03  0.00000000000E+00 0.  1.
<mgrwt>
<rscale>  0 0.61888529E+03</rscale>
<asrwt>0</asrwt>
<pdfrwt beam="1">  1        2 0.13874175E+00 0.61888529E+03</pdfrwt>
<pdfrwt beam="2">  1       -2 0.16335275E-01 0.61888529E+03</pdfrwt>
<totfact> 0.89187505E+02</totfact>
</mgrwt>
</event>
<event>
 6    1  0.1614874E-005  0.1997387E+04  0.7818608E-02  0.8607843E-01
         -1   -1    0    0    0  501 -0.00000000000E+00  0.00000000000E+00  0.67624857734E+03  0.67624857734E+03  0.00000000000E+00 0.  1.
          1   -1    0    0  501    0  0.00000000000E+00 -0.00000000000E+00 -0.14748846229E+04  0.14748846229E+04  0.00000000000E+00 0. -1.
         23    2    1    2    0    0  0.78792615991E+03  0.23730688879E+03 -0.10056148803E+04  0.13026154156E+04  0.91670281477E+02 0.  0.
         13    1    3    3    0    0  0.70784928861E+03  0.18847587661E+03 -0.86356207223E+03  0.11323926987E+04  0.00000000000E+00 0. -1.
        -13    1    3    3    0    0  0.80076871294E+02  0.48831012180E+02 -0.14205280805E+03  0.17022271688E+03  0.00000000000E+00 0.  1.
         22    1    1    2    0    0 -0.78792615991E+03 -0.23730688879E+03  0.20697883469E+03  0.84851778469E+03  0.00000000000E+00 0.  1.
<mgrwt>
<rscale>  0 0.19973869E+04</rscale>
<asrwt>0</asrwt>
<pdfrwt beam="1">  1        1 0.22690532E+00 0.19973869E+04</pdfrwt>
<pdfrwt beam="2">  1       -1 0.10403824E+00 0.19973869E+04</pdfrwt>
<totfact> 0.54958733E+00</totfact>
</mgrwt>
</event>
<event>
 6    1  0.1614874E-005  0.2211129E+04  0.7818608E-02  0.8513810E-01
         -2   -1    0    0    0  501 -0.00000000000E+00  0.00000000000E+00  0.89255380113E+03  0.89255380113E+03  0.00000000000E+00 0.  1.
          2   -1    0    0  501    0  0.00000000000E+00 -0.00000000000E+00 -0.13694109470E+04  0.13694109470E+04  0.00000000000E+00 0. -1.
         23    2    1    2    0    0  0.70663980839E+03  0.28381769535E+03  0.57890642700E+03  0.96022398101E+03  0.83696711352E+02 0.  0.
         13    1    3    3    0    0  0.97390245564E+02  0.71824151833E+02  0.90434577810E+02  0.15106945946E+03  0.00000000000E+00 0. -1.
        -13    1    3    3    0    0  0.60924956283E+03  0.21199354351E+03  0.48847184919E+03  0.80915452155E+03  0.00000000000E+00 0.  1.
         22    1    1    2    0    0 -0.70663980839E+03 -0.28381769535E+03 -0.10557635729E+04  0.13017407671E+04  0.00000000000E+00 0. -1.
<mgrwt>
<rscale>  0 0.22111291E+04</rscale>
<asrwt>0</asrwt>
<pdfrwt beam="1">  1        2 0.21067861E+00 0.22111291E+04</pdfrwt>
<pdfrwt beam="2">  1       -2 0.13731597E+00 0.22111291E+04</pdfrwt>
<totfact> 0.51975746E+00</totfact>
</mgrwt>
</event>
<event>
 6    1  0.1614874E-005  0.1523466E+04  0.7818608E-02  0.8868997E-01
         -2   -1    0    0    0  501 -0.00000000000E+00  0.00000000000E+00  0.21816835458E+03  0.21816835458E+03  0.00000000000E+00 0.  1.
          2   -1    0    0  501    0  0.00000000000E+00 -0.00000000000E+00 -0.26595837681E+04  0.26595837681E+04  0.00000000000E+00 0. -1.
         23    2    1    2    0    0  0.40335004709E+03 -0.48504216483E+03 -0.42754744256E+03  0.76739164006E+03  0.90199509101E+02 0.  0.
         11    1    3    3    0    0  0.97070539554E+02 -0.90189006874E+02 -0.13090879209E+03  0.18626287460E+03  0.00000000000E+00 0. -1.
        -11    1    3    3    0    0  0.30627950754E+03 -0.39485315795E+03 -0.29663865047E+03  0.58112876545E+03  0.00000000000E+00 0.  1.
         22    1    1    2    0    0 -0.40335004709E+03  0.48504216483E+03 -0.20138679709E+04  0.21103604826E+04  0.00000000000E+00 0. -1.
<mgrwt>
<rscale>  0 0.15234658E+04</rscale>
<asrwt>0</asrwt>
<pdfrwt beam="1">  1        2 0.40916671E+00 0.15234658E+04</pdfrwt>
<pdfrwt beam="2">  1       -2 0.33564364E-01 0.15234658E+04</pdfrwt>
<totfact> 0.22548054E+01</totfact>
</mgrwt>
</event>
<event>
 6    1  0.1614874E-005  0.1588354E+04  0.7818608E-02  0.8827734E-01
         -1   -1    0    0    0  501 -0.00000000000E+00  0.00000000000E+00  0.28391296964E+03  0.28391296964E+03  0.00000000000E+00 0.  1.
          1   -1    0    0  501    0  0.00000000000E+00 -0.00000000000E+00 -0.22215168936E+04  0.22215168936E+04  0.00000000000E+00 0. -1.
         23    2    1    2    0    0  0.55321432817E+03  0.56219258117E+03 -0.86821637046E+03  0.11766347960E+04  0.92537483894E+02 0.  0.
         13    1    3    3    0    0  0.25722763520E+03  0.22632262578E+03 -0.43429832331E+03  0.55317539793E+03  0.00000000000E+00 0. -1.
        -13    1    3    3    0    0  0.29598669298E+03  0.33586995539E+03 -0.43391804715E+03  0.62345939803E+03  0.00000000000E+00 0.  1.
         22    1    1    2    0    0 -0.55321432817E+03 -0.56219258117E+03 -0.10693875535E+04  0.13287950673E+04  0.00000000000E+00 0.  1.
<mgrwt>
<rscale>  0 0.15883544E+04</rscale>
<asrwt>0</asrwt>
<pdfrwt beam="1">  1        1 0.34177184E+00 0.15883544E+04</pdfrwt>
<pdfrwt beam="2">  1       -1 0.43678918E-01 0.15883544E+04</pdfrwt>
<totfact> 0.10483424E+01</totfact>
</mgrwt>
</event>
<event>
 6    1  0.1614874E-005  0.1483401E+04  0.7818608E-02  0.8895566E-01
         -2   -1    0    0    0  501 -0.00000000000E+00  0.00000000000E+00  0.54645104968E+03  0.54645104968E+03  0.00000000000E+00 0.  1.
          2   -1    0    0  501    0  0.00000000000E+00 -0.00000000000E+00 -0.10067140089E+04  0.10067140089E+04  0.00000000000E+00 0. -1.
         23    2    1    2    0    0  0.27100145674E+02  0.63059134015E+03  0.17185039080E+03  0.65988618643E+03  0.86818005400E+02 0.  0.
         11    1    3    3    0    0 -0.17237921644E+02  0.21255132408E+03  0.90721059524E+02  0.23174451871E+03  0.00000000000E+00 0. -1.
        -11    1    3    3    0    0  0.44338067318E+02  0.41804001607E+03  0.81129331280E+02  0.42814166773E+03  0.00000000000E+00 0.  1.
         22    1    1    2    0    0 -0.27100145674E+02 -0.63059134015E+03 -0.63211335006E+03  0.89327887219E+03  0.00000000000E+00 0. -1.
<mgrwt>
<rscale>  0 0.14834014E+04</rscale>
<asrwt>0</asrwt>
<pdfrwt beam="1">  1        2 0.15487908E+00 0.14834014E+04</pdfrwt>
<pdfrwt beam="2">  1       -2 0.84069394E-01 0.14834014E+04</pdfrwt>
<totfact> 0.29814942E+01</totfact>
</mgrwt>
</event>
<event>
 6    1  0.1614874E-005  0.3214913E+04  0.7818608E-02  0.8184890E-01
         -2   -1    0    0    0  501 -0.00000000000E+00  0.00000000000E+00  0.19935521215E+04  0.19935521215E+04  0.00000000000E+00 0. -1.
          2   -1    0    0  501    0  0.00000000000E+00 -0.00000000000E+00 -0.12961371902E+04  0.12961371902E+04  0.00000000000E+00 0.  1.
         23    2    1    2    0    0  0.68674669088E+03 -0.10642014384E+04 -0.66177175635E+03  0.14318588106E+04  0.90178029099E+02 0.  0.
         13    1    3    3    0    0  0.15724181633E+03 -0.21012183684E+03 -0.10200476484E+03  0.28156908063E+03  0.00000000000E+00 0.  1.
        -13    1    3    3    0    0  0.52950487456E+03 -0.85407960159E+03 -0.55976699151E+03  0.11502897299E+04  0.00000000000E+00 0. -1.
         22    1    1    2    0    0 -0.68674669088E+03  0.10642014384E+04  0.13591866877E+04  0.18578305011E+04  0.00000000000E+00 0. -1.
<mgrwt>
<rscale>  0 0.32149134E+04</rscale>
<asrwt>0</asrwt>
<pdfrwt beam="1">  1        2 0.19940572E+00 0.32149134E+04</pdfrwt>
<pdfrwt beam="2">  1       -2 0.30670033E+00 0.32149134E+04</pdfrwt>
<totfact> 0.40404370E-01</totfact>
</mgrwt>
</event>
<event>
 6    1  0.1614874E-005  0.2834124E+04  0.7818608E-02  0.8292752E-01
          1   -1    0    0  501    0  0.00000000000E+00  0.00000000000E+00  0.30060359489E+04  0.30060359489E+04  0.00000000000E+00 0. -1.
         -1   -1    0    0    0  501 -0.00000000000E+00 -0.00000000000E+00 -0.66801101727E+03  0.66801101727E+03  0.00000000000E+00 0.  1.
         23    2    1    2    0    0 -0.74941648690E+03  0.43592353162E+03  0.26209277983E+04  0.27620774337E+04  0.90304097116E+02 0.  0.
         11    1    3    3    0    0 -0.38435430011E+03  0.18586665590E+03  0.13861193615E+04  0.14503797869E+04  0.00000000000E+00 0. -1.
        -11    1    3    3    0    0 -0.36506218679E+03  0.25005687572E+03  0.12348084367E+04  0.13116976468E+04  0.00000000000E+00 0.  1.
         22    1    1    2    0    0  0.74941648690E+03 -0.43592353162E+03 -0.28290286658E+03  0.91196953248E+03  0.00000000000E+00 0.  1.
<mgrwt>
<rscale>  0 0.28341243E+04</rscale>
<asrwt>0</asrwt>
<pdfrwt beam="1">  1        1 0.46246706E+00 0.28341243E+04</pdfrwt>
<pdfrwt beam="2">  1       -1 0.10277093E+00 0.28341243E+04</pdfrwt>
<totfact> 0.45679798E-01</totfact>
</mgrwt>
</event>
<event>
 6    1  0.1614874E-005  0.2012051E+04  0.7818608E-02  0.8601007E-01
          2   -1    0    0  501    0  0.00000000000E+00  0.00000000000E+00  0.41774944351E+04  0.41774944351E+04  0.00000000000E+00 0. -1.
         -2   -1    0    0    0  501 -0.00000000000E+00 -0.00000000000E+00 -0.24227133429E+03  0.24227133429E+03  0.00000000000E+00 0.  1.
         23    2    1    2    0    0 -0.88437918698E+03  0.10271234300E+03  0.29911537514E+04  0.31220973571E+04  0.88401192645E+02 0.  0.
         13    1    3    3    0    0 -0.21770092320E+03  0.30284759068E+02  0.87773512305E+03  0.90483689404E+03  0.00000000000E+00 0. -1.
        -13    1    3    3    0    0 -0.66667826378E+03  0.72427583934E+02  0.21134186283E+04  0.22172604630E+04  0.00000000000E+00 0.  1.
         22    1    1    2    0    0  0.88437918698E+03 -0.10271234300E+03  0.94406934939E+03  0.12976684123E+04  0.00000000000E+00 0.  1.
<mgrwt>
<rscale>  0 0.20120508E+04</rscale>
<asrwt>0</asrwt>
<pdfrwt beam="1">  1        2 0.64269140E+00 0.20120508E+04</pdfrwt>
<pdfrwt beam="2">  1       -2 0.37272516E-01 0.20120508E+04</pdfrwt>
<totfact> 0.15508843E+00</totfact>
</mgrwt>
</event>
<event>
 6    1  0.1614874E-005  0.1147975E+04  0.7818608E-02  0.9159653E-01
         -2   -1    0    0    0  501 -0.00000000000E+00  0.00000000000E+00  0.50686489071E+03  0.50686489071E+03  0.00000000000E+00 0.  1.
          2   -1    0    0  501    0  0.00000000000E+00 -0.00000000000E+00 -0.64999938023E+03  0.64999938023E+03  0.00000000000E+00 0. -1.
         23    2    1    2    0    0  0.23777843596E+03  0.10808840844E+03 -0.58306133888E+03  0.64524202608E+03  0.90305363473E+02 0.  0.
         11    1    3    3    0    0  0.93071839327E+02 -0.24042652454E+01 -0.22643782493E+03  0.24483103628E+03  0.00000000000E+00 0. -1.
        -11    1    3    3    0    0  0.14470659663E+03  0.11049267369E+03 -0.35662351396E+03  0.40041098980E+03  0.00000000000E+00 0.  1.
         22    1    1    2    0    0 -0.23777843596E+03 -0.10808840844E+03  0.43992684936E+03  0.51162224486E+03  0.00000000000E+00 0.  1.
<mgrwt>
<rscale>  0 0.11479754E+04</rscale>
<asrwt>0</asrwt>
<pdfrwt beam="1">  1        2 0.99999904E-01 0.11479754E+04</pdfrwt>
<pdfrwt beam="2">  1       -2 0.77979214E-01 0.11479754E+04</pdfrwt>
<totfact> 0.65204670E+01</totfact>
</mgrwt>
</event>
<event>
 6    1  0.1614874E-005  0.4316184E+04  0.7818608E-02  0.7943632E-01
          1   -1    0    0  501    0  0.00000000000E+00  0.00000000000E+00  0.11621483301E+04  0.11621483301E+04  0.00000000000E+00 0. -1.
         -1   -1    0    0    0  501 -0.00000000000E+00 -0.00000000000E+00 -0.40075440012E+04  0.40075440012E+04  0.00000000000E+00 0.  1.
         23    2    1    2    0    0  0.20593262105E+04  0.46518656343E+03 -0.19535817421E+04  0.28778469910E+04  0.91097205407E+02 0.  0.
         11    1    3    3    0    0  0.78840909748E+03  0.19213403018E+03 -0.80860455100E+03  0.11455765843E+04  0.00000000000E+00 0. -1.
        -11    1    3    3    0    0  0.12709171130E+04  0.27305253325E+03 -0.11449771911E+04  0.17322704067E+04  0.00000000000E+00 0.  1.
         22    1    1    2    0    0 -0.20593262105E+04 -0.46518656343E+03 -0.89181392899E+03  0.22918453403E+04  0.00000000000E+00 0.  1.
<mgrwt>
<rscale>  0 0.43161838E+04</rscale>
<asrwt>0</asrwt>
<pdfrwt beam="1">  1        1 0.17879205E+00 0.43161838E+04</pdfrwt>
<pdfrwt beam="2">  1       -1 0.61654523E+00 0.43161838E+04</pdfrwt>
<totfact> 0.33256747E-03</totfact>
</mgrwt>
</event>
<event>
 6    1  0.1614874E-005  0.1264777E+04  0.7818608E-02  0.9057973E-01
          1   -1    0    0  501    0  0.00000000000E+00  0.00000000000E+00  0.70375567660E+03  0.70375567660E+03  0.00000000000E+00 0. -1.
         -1   -1    0    0    0  501 -0.00000000000E+00 -0.00000000000E+00 -0.56825900604E+03  0.56825900604E+03  0.00000000000E+00 0.  1.
         23    2    1    2    0    0 -0.41652424506E+03  0.38515740425E+03  0.34170000356E+03  0.66839353713E+03  0.90290394215E+02 0.  0.
         11    1    3    3    0    0 -0.28628618884E+03  0.28746574883E+03  0.19891197737E+03  0.45184323986E+03  0.00000000000E+00 0.  1.
        -11    1    3    3    0    0 -0.13023805622E+03  0.97691655418E+02  0.14278802619E+03  0.21655029727E+03  0.00000000000E+00 0. -1.
         22    1    1    2    0    0  0.41652424506E+03 -0.38515740425E+03 -0.20620333300E+03  0.60362114551E+03  0.00000000000E+00 0.  1.
<mgrwt>
<rscale>  0 0.12647775E+04</rscale>
<asrwt>0</asrwt>
<pdfrwt beam="1">  1        1 0.10827010E+00 0.12647775E+04</pdfrwt>
<pdfrwt beam="2">  1       -1 0.87424462E-01 0.12647775E+04</pdfrwt>
<totfact> 0.34293808E+01</totfact>
</mgrwt>
</event>
<event>
 6    1  0.1614874E-005  0.1132849E+04  0.7818608E-02  0.9173753E-01
         -1   -1    0    0    0  501 -0.00000000000E+00  0.00000000000E+00  0.57145466468E+03  0.57145466468E+03  0.00000000000E+00 0.  1.
          1   -1    0    0  501    0  0.00000000000E+00 -0.00000000000E+00 -0.56143902365E+03  0.56143902365E+03  0.00000000000E+00 0. -1.
         23    2    1    2    0    0  0.10032901416E+03  0.51105597855E+01  0.55834334863E+03  0.57543938183E+03  0.96390654616E+02 0.  0.
         11    1    3    3    0    0  0.79532124423E+02 -0.22060279095E+02  0.21342430333E+03  0.22882733224E+03  0.00000000000E+00 0. -1.
        -11    1    3    3    0    0  0.20796889732E+02  0.27170838881E+02  0.34491904530E+03  0.34661204959E+03  0.00000000000E+00 0.  1.
         22    1    1    2    0    0 -0.10032901416E+03 -0.51105597855E+01 -0.54832770761E+03  0.55745430650E+03  0.00000000000E+00 0. -1.
<mgrwt>
<rscale>  0 0.11328494E+04</rscale>
<asrwt>0</asrwt>
<pdfrwt beam="1">  1        1 0.86375234E-01 0.11328494E+04</pdfrwt>
<pdfrwt beam="2">  1       -1 0.87916102E-01 0.11328494E+04</pdfrwt>
<totfact> 0.47673732E+01</totfact>
</mgrwt>
</event>
<event>
 6    1  0.1614874E-005  0.4306836E+04  0.7818608E-02  0.7945355E-01
          2   -1    0    0  501    0  0.00000000000E+00  0.00000000000E+00  0.10855968507E+04  0.10855968507E+04  0.00000000000E+00 0. -1.
         -2   -1    0    0    0  501 -0.00000000000E+00 -0.00000000000E+00 -0.42715748752E+04  0.42715748752E+04  0.00000000000E+00 0.  1.
         23    2    1    2    0    0  0.20350482787E+04 -0.69922008946E+03 -0.16577898282E+04  0.27179124751E+04  0.91928653640E+02 0.  0.
         13    1    3    3    0    0  0.13529965214E+04 -0.42671457559E+03 -0.10613155702E+04  0.17717436766E+04  0.00000000000E+00 0. -1.
        -13    1    3    3    0    0  0.68205175726E+03 -0.27250551387E+03 -0.59647425806E+03  0.94616879847E+03  0.00000000000E+00 0.  1.
         22    1    1    2    0    0 -0.20350482787E+04  0.69922008946E+03 -0.15281881963E+04  0.26392592509E+04  0.00000000000E+00 0. -1.
<mgrwt>
<rscale>  0 0.43068356E+04</rscale>
<asrwt>0</asrwt>
<pdfrwt beam="1">  1        2 0.16701490E+00 0.43068356E+04</pdfrwt>
<pdfrwt beam="2">  1       -2 0.65716537E+00 0.43068356E+04</pdfrwt>
<totfact> 0.54544532E-03</totfact>
</mgrwt>
</event>
<event>
 6    1  0.1614874E-005  0.2178348E+04  0.7818608E-02  0.8527495E-01
          1   -1    0    0  501    0  0.00000000000E+00  0.00000000000E+00  0.13761059338E+04  0.13761059338E+04  0.00000000000E+00 0. -1.
         -1   -1    0    0    0  501 -0.00000000000E+00 -0.00000000000E+00 -0.86207001115E+03  0.86207001115E+03  0.00000000000E+00 0.  1.
         23    2    1    2    0    0  0.97098167830E+03 -0.19313779034E+03  0.71925959232E+03  0.12271248185E+04  0.91615137630E+02 0.  0.
         11    1    3    3    0    0  0.50185644411E+03 -0.13736162913E+03  0.41045472566E+03  0.66272255844E+03  0.00000000000E+00 0.  1.
        -11    1    3    3    0    0  0.46912523419E+03 -0.55776161206E+02  0.30880486667E+03  0.56440226009E+03  0.00000000000E+00 0. -1.
         22    1    1    2    0    0 -0.97098167830E+03  0.19313779034E+03 -0.20522366967E+03  0.10110511264E+04  0.00000000000E+00 0.  1.
<mgrwt>
<rscale>  0 0.21783477E+04</rscale>
<asrwt>0</asrwt>
<pdfrwt beam="1">  1        1 0.21170861E+00 0.21783477E+04</pdfrwt>
<pdfrwt beam="2">  1       -1 0.13262615E+00 0.21783477E+04</pdfrwt>
<totfact> 0.35166933E+00</totfact>
</mgrwt>
</event>
<event>
 6    1  0.1614874E-005  0.4132737E+04  0.7818608E-02  0.7978292E-01
          1   -1    0    0  501    0  0.00000000000E+00  0.00000000000E+00  0.23195268526E+04  0.23195268526E+04  0.00000000000E+00 0. -1.
         -1   -1    0    0    0  501 -0.00000000000E+00 -0.00000000000E+00 -0.18408402573E+04  0.18408402573E+04  0.00000000000E+00 0.  1.
         23    2    1    2    0    0 -0.12179589254E+04 -0.11116808472E+04 -0.10124393368E+04  0.19371453946E+04  0.90777857036E+02 0.  0.
         11    1    3    3    0    0 -0.96411146623E+03 -0.86837990957E+03 -0.75328012951E+03  0.15003418078E+04  0.00000000000E+00 0.  1.
        -11    1    3    3    0    0 -0.25384745913E+03 -0.24330093762E+03 -0.25915920728E+03  0.43680358684E+03  0.00000000000E+00 0. -1.
         22    1    1    2    0    0  0.12179589254E+04  0.11116808472E+04  0.14911259321E+04  0.22232217152E+04  0.00000000000E+00 0.  1.
<mgrwt>
<rscale>  0 0.41327368E+04</rscale>
<asrwt>0</asrwt>
<pdfrwt beam="1">  1        1 0.35685029E+00 0.41327368E+04</pdfrwt>
<pdfrwt beam="2">  1       -1 0.28320619E+00 0.41327368E+04</pdfrwt>
<totfact> 0.59286001E-02</totfact>
</mgrwt>
</event>
<event>
 6    1  0.1614874E-005  0.2442550E+04  0.7818608E-02  0.8423743E-01
         -2   -1    0    0    0  501 -0.00000000000E+00  0.00000000000E+00  0.61159964739E+03  0.61159964739E+03  0.00000000000E+00 0. -1.
          2   -1    0    0  501    0  0.00000000000E+00 -0.00000000000E+00 -0.24387065769E+04  0.24387065769E+04  0.00000000000E+00 0.  1.
         23    2    1    2    0    0  0.11013795401E+04 -0.46036159136E+03 -0.12266591246E+04  0.17140774817E+04  0.91647799915E+02 0.  0.
         11    1    3    3    0    0  0.42508696445E+03 -0.13114682296E+03 -0.47143785500E+03  0.64819138196E+03  0.00000000000E+00 0. -1.
        -11    1    3    3    0    0  0.67629257562E+03 -0.32921476840E+03 -0.75522126962E+03  0.10658860998E+04  0.00000000000E+00 0.  1.
         22    1    1    2    0    0 -0.11013795401E+04  0.46036159136E+03 -0.60044780485E+03  0.13362287426E+04  0.00000000000E+00 0. -1.
<mgrwt>
<rscale>  0 0.24425496E+04</rscale>
<asrwt>0</asrwt>
<pdfrwt beam="1">  1        2 0.37518562E+00 0.24425496E+04</pdfrwt>
<pdfrwt beam="2">  1       -2 0.94092255E-01 0.24425496E+04</pdfrwt>
<totfact> 0.32255073E+00</totfact>
</mgrwt>
</event>
<event>
 6    1  0.1614874E-005  0.6126894E+04  0.7818608E-02  0.7674865E-01
          2   -1    0    0  501    0  0.00000000000E+00  0.00000000000E+00  0.34460299994E+04  0.34460299994E+04  0.00000000000E+00 0. -1.
         -2   -1    0    0    0  501 -0.00000000000E+00 -0.00000000000E+00 -0.27233391871E+04  0.27233391871E+04  0.00000000000E+00 0.  1.
         23    2    1    2    0    0 -0.15936362253E+04 -0.16301351015E+04  0.24210039736E+04  0.33266091789E+04  0.89730269775E+02 0.  0.
         13    1    3    3    0    0 -0.60850584420E+03 -0.65760830863E+03  0.89862854963E+03  0.12689607245E+04  0.00000000000E+00 0. -1.
        -13    1    3    3    0    0 -0.98513038106E+03 -0.97252679283E+03  0.15223754239E+04  0.20576484544E+04  0.00000000000E+00 0.  1.
         22    1    1    2    0    0  0.15936362253E+04  0.16301351015E+04 -0.16983131612E+04  0.28427600076E+04  0.00000000000E+00 0.  1.
<mgrwt>
<rscale>  0 0.61268943E+04</rscale>
<asrwt>0</asrwt>
<pdfrwt beam="1">  1        2 0.53015846E+00 0.61268943E+04</pdfrwt>
<pdfrwt beam="2">  1       -2 0.41897526E+00 0.61268943E+04</pdfrwt>
<totfact> 0.32920699E-03</totfact>
</mgrwt>
</event>
<event>
 6    1  0.1614874E-005  0.1374562E+04  0.7818608E-02  0.8972440E-01
          1   -1    0    0  501    0  0.00000000000E+00  0.00000000000E+00  0.16533304478E+04  0.16533304478E+04  0.00000000000E+00 0. -1.
         -1   -1    0    0    0  501 -0.00000000000E+00 -0.00000000000E+00 -0.28569927365E+03  0.28569927365E+03  0.00000000000E+00 0.  1.
         23    2    1    2    0    0  0.53076452476E+03 -0.32147292656E+03  0.10932673828E+04  0.12605525197E+04  0.93291271666E+02 0.  0.
         13    1    3    3    0    0  0.29973179308E+03 -0.22518762343E+03  0.70773911373E+03  0.80090153367E+03  0.00000000000E+00 0. -1.
        -13    1    3    3    0    0  0.23103273168E+03 -0.96285303129E+02  0.38552826908E+03  0.45965098604E+03  0.00000000000E+00 0.  1.
         22    1    1    2    0    0 -0.53076452476E+03  0.32147292656E+03  0.27436379129E+03  0.67847720170E+03  0.00000000000E+00 0.  1.
<mgrwt>
<rscale>  0 0.13745622E+04</rscale>
<asrwt>0</asrwt>
<pdfrwt beam="1">  1        1 0.25435853E+00 0.13745622E+04</pdfrwt>
<pdfrwt beam="2">  1       -1 0.43953735E-01 0.13745622E+04</pdfrwt>
<totfact> 0.25645949E+01</totfact>
</mgrwt>
</event>
<event>
 6    1  0.2344596E-005  0.4399074E+04  0.7818608E-02  0.7928548E-01
          2   -1    0    0  501    0  0.00000000000E+00  0.00000000000E+00  0.16890371304E+04  0.16890371304E+04  0.00000000000E+00 0. -1.
         -2   -1    0    0    0  501 -0.00000000000E+00 -0.00000000000E+00 -0.28643313804E+04  0.28643313804E+04  0.00000000000E+00 0.  1.
         23    2    1    2    0    0 -0.40634419051E+03  0.13018254340E+04  0.11972445916E+04  0.18168002918E+04  0.86623474806E+02 0.  0.
         11    1    3    3    0    0 -0.25189269848E+03  0.66206182070E+03  0.62446391275E+03  0.94431507681E+03  0.00000000000E+00 0. -1.
        -11    1    3    3    0    0 -0.15445149202E+03  0.63976361335E+03  0.57278067883E+03  0.87248521500E+03  0.00000000000E+00 0.  1.
         22    1    1    2    0    0  0.40634419051E+03 -0.13018254340E+04 -0.23725388416E+04  0.27365682189E+04  0.00000000000E+00 0.  1.
<mgrwt>
<rscale>  0 0.43990736E+04</rscale>
<asrwt>0</asrwt>
<pdfrwt beam="1">  1        2 0.25985187E+00 0.43990736E+04</pdfrwt>
<pdfrwt beam="2">  1       -2 0.44066636E+00 0.43990736E+04</pdfrwt>
<totfact> 0.30423314E-02</totfact>
</mgrwt>
</event>
<event>
 6    1  0.1614874E-005  0.3240259E+04  0.7818608E-02  0.8178265E-01
          1   -1    0    0  501    0  0.00000000000E+00  0.00000000000E+00  0.37393850525E+04  0.37393850525E+04  0.00000000000E+00 0. -1.
         -1   -1    0    0    0  501 -0.00000000000E+00 -0.00000000000E+00 -0.70193899550E+03  0.70193899550E+03  0.00000000000E+00 0.  1.
         23    2    1    2    0    0  0.45837012955E+03 -0.98255129621E+03 -0.12783855941E+03  0.10955002439E+04  0.90927782996E+02 0.  0.
         11    1    3    3    0    0  0.26397079934E+03 -0.51909547314E+03 -0.10968151053E+03  0.59259659709E+03  0.00000000000E+00 0. -1.
        -11    1    3    3    0    0  0.19439933021E+03 -0.46345582308E+03 -0.18157048884E+02  0.50290364679E+03  0.00000000000E+00 0.  1.
         22    1    1    2    0    0 -0.45837012955E+03  0.98255129621E+03  0.31652846164E+04  0.33458238041E+04  0.00000000000E+00 0. -1.
<mgrwt>
<rscale>  0 0.32402594E+04</rscale>
<asrwt>0</asrwt>
<pdfrwt beam="1">  1        1 0.57529000E+00 0.32402594E+04</pdfrwt>
<pdfrwt beam="2">  1       -1 0.10799062E+00 0.32402594E+04</pdfrwt>
<totfact> 0.10624506E-01</totfact>
</mgrwt>
</event>
<event>
 6    1  0.1614874E-005  0.9285336E+03  0.7818608E-02  0.9390600E-01
          2   -1    0    0  501    0  0.00000000000E+00  0.00000000000E+00  0.17244708017E+04  0.17244708017E+04  0.00000000000E+00 0. -1.
         -2   -1    0    0    0  501 -0.00000000000E+00 -0.00000000000E+00 -0.12499118944E+03  0.12499118944E+03  0.00000000000E+00 0.  1.
         23    2    1    2    0    0  0.20667144523E+03 -0.17927598562E+03  0.70627121280E+02  0.29632229862E+03  0.89251045389E+02 0.  0.
         13    1    3    3    0    0  0.16787876600E+03 -0.90260754066E+02  0.43554329940E+02  0.19551793640E+03  0.00000000000E+00 0.  1.
        -13    1    3    3    0    0  0.38792679231E+02 -0.89015231552E+02  0.27072791341E+02  0.10080436221E+03  0.00000000000E+00 0. -1.
         22    1    1    2    0    0 -0.20667144523E+03  0.17927598562E+03  0.15288524910E+04  0.15531396926E+04  0.00000000000E+00 0. -1.
<mgrwt>
<rscale>  0 0.92853359E+03</rscale>
<asrwt>0</asrwt>
<pdfrwt beam="1">  1        2 0.26530318E+00 0.92853359E+03</pdfrwt>
<pdfrwt beam="2">  1       -2 0.19229415E-01 0.92853359E+03</pdfrwt>
<totfact> 0.21837913E+02</totfact>
</mgrwt>
</event>
<event>
 6    1  0.1614874E-005  0.2703022E+04  0.7818608E-02  0.8334025E-01
          2   -1    0    0  501    0  0.00000000000E+00  0.00000000000E+00  0.21709626052E+04  0.21709626052E+04  0.00000000000E+00 0. -1.
         -2   -1    0    0    0  501 -0.00000000000E+00 -0.00000000000E+00 -0.84136968830E+03  0.84136968830E+03  0.00000000000E+00 0.  1.
         23    2    1    2    0    0 -0.82799422053E+03 -0.73250353045E+03  0.15287942376E+04  0.18890260051E+04  0.95244818150E+02 0.  0.
         13    1    3    3    0    0 -0.14783115087E+03 -0.93997763954E+02  0.20714974147E+03  0.27129438658E+03  0.00000000000E+00 0.  1.
        -13    1    3    3    0    0 -0.68016306965E+03 -0.63850576650E+03  0.13216444962E+04  0.16177316185E+04  0.00000000000E+00 0. -1.
         22    1    1    2    0    0  0.82799422053E+03  0.73250353045E+03 -0.19920132079E+03  0.11233062884E+04  0.00000000000E+00 0.  1.
<mgrwt>
<rscale>  0 0.27030221E+04</rscale>
<asrwt>0</asrwt>
<pdfrwt beam="1">  1        2 0.33399425E+00 0.27030221E+04</pdfrwt>
<pdfrwt beam="2">  1       -2 0.12944149E+00 0.27030221E+04</pdfrwt>
<totfact> 0.20646399E+00</totfact>
</mgrwt>
</event>
<event>
 6    1  0.1614874E-005  0.1000464E+04  0.7818608E-02  0.9308037E-01
          1   -1    0    0  501    0  0.00000000000E+00  0.00000000000E+00  0.64195574875E+03  0.64195574875E+03  0.00000000000E+00 0. -1.
         -1   -1    0    0    0  501 -0.00000000000E+00 -0.00000000000E+00 -0.38979605108E+03  0.38979605108E+03  0.00000000000E+00 0.  1.
         23    2    1    2    0    0  0.10428932782E+03 -0.21962849434E+03  0.57304879151E+03  0.62915678002E+03  0.91325773831E+02 0.  0.
         13    1    3    3    0    0  0.63081195724E+02 -0.18501689515E+03  0.51049214776E+03  0.54663765116E+03  0.00000000000E+00 0. -1.
        -13    1    3    3    0    0  0.41208132100E+02 -0.34611599188E+02  0.62556643757E+02  0.82519128859E+02  0.00000000000E+00 0.  1.
         22    1    1    2    0    0 -0.10428932782E+03  0.21962849434E+03 -0.32088909385E+03  0.40259501981E+03  0.00000000000E+00 0.  1.
<mgrwt>
<rscale>  0 0.10004635E+04</rscale>
<asrwt>0</asrwt>
<pdfrwt beam="1">  1        1 0.98762423E-01 0.10004635E+04</pdfrwt>
<pdfrwt beam="2">  1       -1 0.59968623E-01 0.10004635E+04</pdfrwt>
<totfact> 0.87709452E+01</totfact>
</mgrwt>
</event>
<event>
 6    1  0.1614874E-005  0.4975425E+04  0.7818608E-02  0.7832309E-01
         -2   -1    0    0    0  501 -0.00000000000E+00  0.00000000000E+00  0.15377212677E+04  0.15377212677E+04  0.00000000000E+00 0.  1.
          2   -1    0    0  501    0  0.00000000000E+00 -0.00000000000E+00 -0.40246001578E+04  0.40246001578E+04  0.00000000000E+00 0. -1.
         23    2    1    2    0    0  0.21548057323E+04 -0.36011147740E+03 -0.25722259643E+04  0.33759655206E+04  0.89043611915E+02 0.  0.
         11    1    3    3    0    0  0.81975392892E+03 -0.96998463591E+02 -0.94426957818E+03  0.12542129971E+04  0.00000000000E+00 0.  1.
        -11    1    3    3    0    0  0.13350518034E+04 -0.26311301381E+03 -0.16279563861E+04  0.21217525234E+04  0.00000000000E+00 0. -1.
         22    1    1    2    0    0 -0.21548057323E+04  0.36011147740E+03  0.85347074176E+02  0.21863559049E+04  0.00000000000E+00 0.  1.
<mgrwt>
<rscale>  0 0.49754249E+04</rscale>
<asrwt>0</asrwt>
<pdfrwt beam="1">  1        2 0.61916924E+00 0.49754249E+04</pdfrwt>
<pdfrwt beam="2">  1       -2 0.23657251E+00 0.49754249E+04</pdfrwt>
<totfact> 0.18450716E-02</totfact>
</mgrwt>
</event>
<event>
 6    1  0.1614874E-005  0.7205989E+03  0.7818608E-02  0.9682640E-01
         -2   -1    0    0    0  501 -0.00000000000E+00  0.00000000000E+00  0.23661826015E+03  0.23661826015E+03  0.00000000000E+00 0. -1.
          2   -1    0    0  501    0  0.00000000000E+00 -0.00000000000E+00 -0.54862920959E+03  0.54862920959E+03  0.00000000000E+00 0.  1.
         23    2    1    2    0    0  0.26684720378E+03  0.32877046032E+02 -0.41036424994E+03  0.49895792742E+03  0.90949795971E+02 0.  0.
         11    1    3    3    0    0  0.89367996479E+02  0.48874191077E+02 -0.11167980811E+03  0.15115457283E+03  0.00000000000E+00 0. -1.
        -11    1    3    3    0    0  0.17747920731E+03 -0.15997145045E+02 -0.29868444183E+03  0.34780335459E+03  0.00000000000E+00 0.  1.
         22    1    1    2    0    0 -0.26684720378E+03 -0.32877046032E+02  0.98353300492E+02  0.28628954232E+03  0.00000000000E+00 0.  1.
<mgrwt>
<rscale>  0 0.72059889E+03</rscale>
<asrwt>0</asrwt>
<pdfrwt beam="1">  1        2 0.84404493E-01 0.72059889E+03</pdfrwt>
<pdfrwt beam="2">  1       -2 0.36402810E-01 0.72059889E+03</pdfrwt>
<totfact> 0.39500032E+02</totfact>
</mgrwt>
</event>
<event>
 6    1  0.1614874E-005  0.4710103E+04  0.7818608E-02  0.7874852E-01
         -2   -1    0    0    0  501 -0.00000000000E+00  0.00000000000E+00  0.21283464654E+04  0.21283464654E+04  0.00000000000E+00 0.  1.
          2   -1    0    0  501    0  0.00000000000E+00 -0.00000000000E+00 -0.26059046947E+04  0.26059046947E+04  0.00000000000E+00 0. -1.
         23    2    1    2    0    0  0.48828604539E+03 -0.10723022259E+04 -0.22874157701E+04  0.25746586885E+04  0.91329793781E+02 0.  0.
         13    1    3    3    0    0  0.11824889874E+03 -0.25908103211E+03 -0.47114011692E+03  0.55052592403E+03  0.00000000000E+00 0.  1.
        -13    1    3    3    0    0  0.37003714665E+03 -0.81322119375E+03 -0.18162756532E+04  0.20241327645E+04  0.00000000000E+00 0. -1.
         22    1    1    2    0    0 -0.48828604539E+03  0.10723022259E+04  0.18098575408E+04  0.21595924717E+04  0.00000000000E+00 0.  1.
<mgrwt>
<rscale>  0 0.47101032E+04</rscale>
<asrwt>0</asrwt>
<pdfrwt beam="1">  1        2 0.40090841E+00 0.47101032E+04</pdfrwt>
<pdfrwt beam="2">  1       -2 0.32743792E+00 0.47101032E+04</pdfrwt>
<totfact> 0.48429074E-02</totfact>
</mgrwt>
</event>
<event>
 6    1  0.1614874E-005  0.1807105E+04  0.7818608E-02  0.8702530E-01
         -2   -1    0    0    0  501 -0.00000000000E+00  0.00000000000E+00  0.45650265241E+03  0.45650265241E+03  0.00000000000E+00 0. -1.
          2   -1    0    0  501    0  0.00000000000E+00 -0.00000000000E+00 -0.17883942323E+04  0.17883942323E+04  0.00000000000E+00 0.  1.
         23    2    1    2    0    0  0.27698169718E+03 -0.84601284868E+03 -0.49288402837E+03  0.10216265662E+04  0.91266502974E+02 0.  0.
         11    1    3    3    0    0  0.14320149190E+03 -0.57550983542E+03 -0.32258849705E+03  0.67511597254E+03  0.00000000000E+00 0. -1.
        -11    1    3    3    0    0  0.13378020527E+03 -0.27050301326E+03 -0.17029553132E+03  0.34651059362E+03  0.00000000000E+00 0.  1.
         22    1    1    2    0    0 -0.27698169718E+03  0.84601284868E+03 -0.83900755150E+03  0.12232703185E+04  0.00000000000E+00 0. -1.
<mgrwt>
<rscale>  0 0.18071045E+04</rscale>
<asrwt>0</asrwt>
<pdfrwt beam="1">  1        2 0.27513758E+00 0.18071045E+04</pdfrwt>
<pdfrwt beam="2">  1       -2 0.70231176E-01 0.18071045E+04</pdfrwt>
<totfact> 0.15248747E+01</totfact>
</mgrwt>
</event>
<event>
 6    1  0.1614874E-005  0.1048598E+04  0.7818608E-02  0.9256792E-01
         -1   -1    0    0    0  501 -0.00000000000E+00  0.00000000000E+00  0.80781709506E+03  0.80781709506E+03  0.00000000000E+00 0.  1.
          1   -1    0    0  501    0  0.00000000000E+00 -0.00000000000E+00 -0.34028687520E+03  0.34028687520E+03  0.00000000000E+00 0. -1.
         23    2    1    2    0    0 -0.27910462176E+03 -0.75892176674E+02 -0.23803271639E+03  0.38555687705E+03  0.91299063527E+02 0.  0.
         11    1    3    3    0    0 -0.18610271738E+03 -0.54195182886E+02 -0.10110934286E+03  0.21861939181E+03  0.00000000000E+00 0.  1.
        -11    1    3    3    0    0 -0.93001904380E+02 -0.21696993788E+02 -0.13692337353E+03  0.16693748523E+03  0.00000000000E+00 0. -1.
         22    1    1    2    0    0  0.27910462176E+03  0.75892176674E+02  0.70556293624E+03  0.76254709321E+03  0.00000000000E+00 0.  1.
<mgrwt>
<rscale>  0 0.10485982E+04</rscale>
<asrwt>0</asrwt>
<pdfrwt beam="1">  1        1 0.52351827E-01 0.10485982E+04</pdfrwt>
<pdfrwt beam="2">  1       -1 0.12427955E+00 0.10485982E+04</pdfrwt>
<totfact> 0.42199189E+01</totfact>
</mgrwt>
</event>
<event>
 6    1  0.1614874E-005  0.4260079E+03  0.7818608E-02  0.1035129E+00
         -2   -1    0    0    0  501 -0.00000000000E+00  0.00000000000E+00  0.84446304779E+03  0.84446304779E+03  0.00000000000E+00 0.  1.
          2   -1    0    0  501    0  0.00000000000E+00 -0.00000000000E+00 -0.53727257974E+02  0.53727257974E+02  0.00000000000E+00 0. -1.
         23    2    1    2    0    0  0.17655102450E+03  0.88811605682E+02  0.30782788870E+03  0.37640701117E+03  0.88693085646E+02 0.  0.
         11    1    3    3    0    0  0.13552842629E+03  0.10601909154E+03  0.24826002866E+03  0.30206132479E+03  0.00000000000E+00 0. -1.
        -11    1    3    3    0    0  0.41022598206E+02 -0.17207485862E+02  0.59567860041E+02  0.74345686379E+02  0.00000000000E+00 0.  1.
         22    1    1    2    0    0 -0.17655102450E+03 -0.88811605682E+02  0.48290790112E+03  0.52178329459E+03  0.00000000000E+00 0.  1.
<mgrwt>
<rscale>  0 0.42600791E+03</rscale>
<asrwt>0</asrwt>
<pdfrwt beam="1">  1        2 0.82657326E-02 0.42600791E+03</pdfrwt>
<pdfrwt beam="2">  1       -2 0.12991738E+00 0.42600791E+03</pdfrwt>
<totfact> 0.37386025E+02</totfact>
</mgrwt>
</event>
<event>
 6    1  0.1614874E-005  0.2887584E+04  0.7818608E-02  0.8276581E-01
          1   -1    0    0  501    0  0.00000000000E+00  0.00000000000E+00  0.24808504761E+04  0.24808504761E+04  0.00000000000E+00 0. -1.
         -1   -1    0    0    0  501 -0.00000000000E+00 -0.00000000000E+00 -0.84025009781E+03  0.84025009781E+03  0.00000000000E+00 0.  1.
         23    2    1    2    0    0  0.35530709710E+02 -0.73889134027E+03 -0.60286891647E+03  0.95881834679E+03  0.93052929149E+02 0.  0.
         13    1    3    3    0    0 -0.15950304370E+02 -0.53654776582E+03 -0.43387512410E+03  0.69020688241E+03  0.00000000000E+00 0. -1.
        -13    1    3    3    0    0  0.51481014080E+02 -0.20234357445E+03 -0.16899379237E+03  0.26861146437E+03  0.00000000000E+00 0.  1.
         22    1    1    2    0    0 -0.35530709710E+02  0.73889134027E+03  0.22434692947E+04  0.23622822271E+04  0.00000000000E+00 0. -1.
<mgrwt>
<rscale>  0 0.28875837E+04</rscale>
<asrwt>0</asrwt>
<pdfrwt beam="1">  1        1 0.38166930E+00 0.28875837E+04</pdfrwt>
<pdfrwt beam="2">  1       -1 0.12926925E+00 0.28875837E+04</pdfrwt>
<totfact> 0.61717956E-01</totfact>
</mgrwt>
</event>
<event>
 6    1  0.1614874E-005  0.1637635E+04  0.7818608E-02  0.8797755E-01
         -1   -1    0    0    0  501 -0.00000000000E+00  0.00000000000E+00  0.56176957675E+03  0.56176957675E+03  0.00000000000E+00 0.  1.
          1   -1    0    0  501    0  0.00000000000E+00 -0.00000000000E+00 -0.11934827176E+04  0.11934827176E+04  0.00000000000E+00 0. -1.
         23    2    1    2    0    0 -0.14615360346E+03 -0.60120938842E+03 -0.88759570978E+03  0.10857080511E+04  0.90123380418E+02 0.  0.
         13    1    3    3    0    0 -0.46911282241E+02 -0.28904307092E+03 -0.48679248231E+03  0.56807876750E+03  0.00000000000E+00 0. -1.
        -13    1    3    3    0    0 -0.99242321217E+02 -0.31216631750E+03 -0.40080322747E+03  0.51762928361E+03  0.00000000000E+00 0.  1.
         22    1    1    2    0    0  0.14615360346E+03  0.60120938842E+03  0.25588256895E+03  0.66954424321E+03  0.00000000000E+00 0. -1.
<mgrwt>
<rscale>  0 0.16376352E+04</rscale>
<asrwt>0</asrwt>
<pdfrwt beam="1">  1        1 0.18361272E+00 0.16376352E+04</pdfrwt>
<pdfrwt beam="2">  1       -1 0.86426089E-01 0.16376352E+04</pdfrwt>
<totfact> 0.13647020E+01</totfact>
</mgrwt>
</event>
<event>
 6    1  0.1614874E-005  0.2701763E+04  0.7818608E-02  0.8334433E-01
         -1   -1    0    0    0  501 -0.00000000000E+00  0.00000000000E+00  0.75061477560E+03  0.75061477560E+03  0.00000000000E+00 0. -1.
          1   -1    0    0  501    0  0.00000000000E+00 -0.00000000000E+00 -0.24311818693E+04  0.24311818693E+04  0.00000000000E+00 0.  1.
         23    2    1    2    0    0  0.62466793247E+03  0.87635564944E+03  0.11709862292E+03  0.10866089973E+04  0.93796456541E+02 0.  0.
         13    1    3    3    0    0  0.28390716472E+03  0.44342785088E+03  0.96342938933E+02  0.53526955733E+03  0.00000000000E+00 0. -1.
        -13    1    3    3    0    0  0.34076076775E+03  0.43292779855E+03  0.20755683985E+02  0.55133943992E+03  0.00000000000E+00 0.  1.
         22    1    1    2    0    0 -0.62466793247E+03 -0.87635564944E+03 -0.17976657166E+04  0.20951876476E+04  0.00000000000E+00 0.  1.
<mgrwt>
<rscale>  0 0.27017632E+04</rscale>
<asrwt>0</asrwt>
<pdfrwt beam="1">  1        1 0.37402798E+00 0.27017632E+04</pdfrwt>
<pdfrwt beam="2">  1       -1 0.11547920E+00 0.27017632E+04</pdfrwt>
<totfact> 0.89661867E-01</totfact>
</mgrwt>
</event>
<event>
 6    1  0.1614874E-005  0.1898835E+04  0.7818608E-02  0.8655436E-01
         -2   -1    0    0    0  501 -0.00000000000E+00  0.00000000000E+00  0.73908495680E+03  0.73908495680E+03  0.00000000000E+00 0. -1.
          2   -1    0    0  501    0  0.00000000000E+00 -0.00000000000E+00 -0.12196079363E+04  0.12196079363E+04  0.00000000000E+00 0.  1.
         23    2    1    2    0    0 -0.86510295642E+01  0.75771039200E+03 -0.82705054879E+03  0.11254574914E+04  0.91880771760E+02 0.  0.
         13    1    3    3    0    0  0.17197246699E+02  0.58096919698E+03 -0.67614734023E+03  0.89162558220E+03  0.00000000000E+00 0.  1.
        -13    1    3    3    0    0 -0.25848276264E+02  0.17674119502E+03 -0.15090320856E+03  0.23383190919E+03  0.00000000000E+00 0. -1.
         22    1    1    2    0    0  0.86510295642E+01 -0.75771039200E+03  0.34652756927E+03  0.83323540174E+03  0.00000000000E+00 0. -1.
<mgrwt>
<rscale>  0 0.18988353E+04</rscale>
<asrwt>0</asrwt>
<pdfrwt beam="1">  1        2 0.18763199E+00 0.18988353E+04</pdfrwt>
<pdfrwt beam="2">  1       -2 0.11370538E+00 0.18988353E+04</pdfrwt>
<totfact> 0.10469942E+01</totfact>
</mgrwt>
</event>
<event>
 6    1  0.1614874E-005  0.5654269E+03  0.7818608E-02  0.9979850E-01
         -1   -1    0    0    0  501 -0.00000000000E+00  0.00000000000E+00  0.12258286659E+03  0.12258286659E+03  0.00000000000E+00 0.  1.
          1   -1    0    0  501    0  0.00000000000E+00 -0.00000000000E+00 -0.65202347235E+03  0.65202347235E+03  0.00000000000E+00 0. -1.
         23    2    1    2    0    0  0.82872510126E+02 -0.26244903137E+03 -0.26856975575E+03  0.39539538527E+03  0.91980704436E+02 0.  0.
         11    1    3    3    0    0 -0.74279292027E+01 -0.11935404439E+03 -0.13051539086E+03  0.17701646618E+03  0.00000000000E+00 0. -1.
        -11    1    3    3    0    0  0.90300439328E+02 -0.14309498698E+03 -0.13805436488E+03  0.21837891909E+03  0.00000000000E+00 0.  1.
         22    1    1    2    0    0 -0.82872510126E+02  0.26244903137E+03 -0.26087085001E+03  0.37921095367E+03  0.00000000000E+00 0.  1.
<mgrwt>
<rscale>  0 0.56542694E+03</rscale>
<asrwt>0</asrwt>
<pdfrwt beam="1">  1        1 0.10031130E+00 0.56542694E+03</pdfrwt>
<pdfrwt beam="2">  1       -1 0.18858903E-01 0.56542694E+03</pdfrwt>
<totfact> 0.69001242E+02</totfact>
</mgrwt>
</event>
<event>
 6    1  0.1614874E-005  0.3089865E+04  0.7818608E-02  0.8218525E-01
         -2   -1    0    0    0  501 -0.00000000000E+00  0.00000000000E+00  0.16827173352E+04  0.16827173352E+04  0.00000000000E+00 0.  1.
          2   -1    0    0  501    0  0.00000000000E+00 -0.00000000000E+00 -0.14184296678E+04  0.14184296678E+04  0.00000000000E+00 0. -1.
         23    2    1    2    0    0 -0.87595317209E+03  0.60311465724E+02 -0.11419404516E+04  0.14433143953E+04  0.90537373672E+02 0.  0.
         13    1    3    3    0    0 -0.31015469728E+03 -0.32067300741E+01 -0.34560946727E+03  0.46438359492E+03  0.00000000000E+00 0.  1.
        -13    1    3    3    0    0 -0.56579847481E+03  0.63518195798E+02 -0.79633098430E+03  0.97893080033E+03  0.00000000000E+00 0. -1.
         22    1    1    2    0    0  0.87595317209E+03 -0.60311465724E+02  0.14062281190E+04  0.16578326078E+04  0.00000000000E+00 0.  1.
<mgrwt>
<rscale>  0 0.30898648E+04</rscale>
<asrwt>0</asrwt>
<pdfrwt beam="1">  1        2 0.21821995E+00 0.30898648E+04</pdfrwt>
<pdfrwt beam="2">  1       -2 0.25887959E+00 0.30898648E+04</pdfrwt>
<totfact> 0.68023592E-01</totfact>
</mgrwt>
</event>
<event>
 6    1  0.1614874E-005  0.3562192E+04  0.7818608E-02  0.8099207E-01
          2   -1    0    0  501    0  0.00000000000E+00  0.00000000000E+00  0.14398262192E+04  0.14398262192E+04  0.00000000000E+00 0. -1.
         -2   -1    0    0    0  501 -0.00000000000E+00 -0.00000000000E+00 -0.22032535515E+04  0.22032535515E+04  0.00000000000E+00 0.  1.
         23    2    1    2    0    0 -0.12932501926E+04 -0.43710832069E+03  0.78618517434E+03  0.15779263465E+04  0.90579698971E+02 0.  0.
         13    1    3    3    0    0 -0.26542168103E+03 -0.83814787129E+02  0.11964554545E+03  0.30296640713E+03  0.00000000000E+00 0.  1.
        -13    1    3    3    0    0 -0.10278285116E+04 -0.35329353356E+03  0.66653962889E+03  0.12749599393E+04  0.00000000000E+00 0. -1.
         22    1    1    2    0    0  0.12932501926E+04  0.43710832069E+03 -0.15496125067E+04  0.20651534242E+04  0.00000000000E+00 0.  1.
<mgrwt>
<rscale>  0 0.35621916E+04</rscale>
<asrwt>0</asrwt>
<pdfrwt beam="1">  1        2 0.22151173E+00 0.35621916E+04</pdfrwt>
<pdfrwt beam="2">  1       -2 0.33896208E+00 0.35621916E+04</pdfrwt>
<totfact> 0.20483996E-01</totfact>
</mgrwt>
</event>
<event>
 6    1  0.1614874E-005  0.3294415E+04  0.7818608E-02  0.8164318E-01
          1   -1    0    0  501    0  0.00000000000E+00  0.00000000000E+00  0.10263489805E+04  0.10263489805E+04  0.00000000000E+00 0. -1.
         -1   -1    0    0    0  501 -0.00000000000E+00 -0.00000000000E+00 -0.26436360341E+04  0.26436360341E+04  0.00000000000E+00 0.  1.
         23    2    1    2    0    0 -0.73301040710E+03 -0.13381117492E+04 -0.12130711659E+03  0.15332109783E+04  0.90405626608E+02 0.  0.
         13    1    3    3    0    0 -0.30748148445E+03 -0.57413902643E+03 -0.96241942984E+02  0.65836387852E+03  0.00000000000E+00 0. -1.
        -13    1    3    3    0    0 -0.42552892265E+03 -0.76397272273E+03 -0.25065173611E+02  0.87484709980E+03  0.00000000000E+00 0.  1.
         22    1    1    2    0    0  0.73301040710E+03  0.13381117492E+04 -0.14959799371E+04  0.21367740363E+04  0.00000000000E+00 0.  1.
<mgrwt>
<rscale>  0 0.32944154E+04</rscale>
<asrwt>0</asrwt>
<pdfrwt beam="1">  1        1 0.15789984E+00 0.32944154E+04</pdfrwt>
<pdfrwt beam="2">  1       -1 0.40671324E+00 0.32944154E+04</pdfrwt>
<totfact> 0.77017169E-02</totfact>
</mgrwt>
</event>
<event>
 6    1  0.1614874E-005  0.1581773E+04  0.7818608E-02  0.8831824E-01
          2   -1    0    0  501    0  0.00000000000E+00  0.00000000000E+00  0.18689909315E+04  0.18689909315E+04  0.00000000000E+00 0. -1.
         -2   -1    0    0    0  501 -0.00000000000E+00 -0.00000000000E+00 -0.33467339495E+03  0.33467339495E+03  0.00000000000E+00 0.  1.
         23    2    1    2    0    0 -0.28527817685E+02 -0.17313210995E+03  0.18403154345E+04  0.18509274877E+04  0.91559283178E+02 0.  0.
         11    1    3    3    0    0  0.21852514221E+02 -0.11857562980E+03  0.97385260118E+03  0.98128823553E+03  0.00000000000E+00 0.  1.
        -11    1    3    3    0    0 -0.50380331906E+02 -0.54556480143E+02  0.86646283330E+03  0.86963925213E+03  0.00000000000E+00 0. -1.
         22    1    1    2    0    0  0.28527817685E+02  0.17313210995E+03 -0.30599789795E+03  0.35273683877E+03  0.00000000000E+00 0.  1.
<mgrwt>
<rscale>  0 0.15817731E+04</rscale>
<asrwt>0</asrwt>
<pdfrwt beam="1">  1        2 0.28753706E+00 0.15817731E+04</pdfrwt>
<pdfrwt beam="2">  1       -2 0.51488216E-01 0.15817731E+04</pdfrwt>
<totfact> 0.27035490E+01</totfact>
</mgrwt>
</event>
<event>
 6    1  0.1614874E-005  0.3168704E+04  0.7818608E-02  0.8197131E-01
         -2   -1    0    0    0  501 -0.00000000000E+00  0.00000000000E+00  0.17224701241E+04  0.17224701241E+04  0.00000000000E+00 0.  1.
          2   -1    0    0  501    0  0.00000000000E+00 -0.00000000000E+00 -0.14573094138E+04  0.14573094138E+04  0.00000000000E+00 0. -1.
         23    2    1    2    0    0  0.32518241388E+03  0.69260745062E+03 -0.12579600527E+04  0.14752721188E+04  0.92280265634E+02 0.  0.
         11    1    3    3    0    0  0.21128685444E+03  0.34864003381E+03 -0.63478095228E+03  0.75441292766E+03  0.00000000000E+00 0. -1.
        -11    1    3    3    0    0  0.11389555944E+03  0.34396741681E+03 -0.62317910042E+03  0.72085919117E+03  0.00000000000E+00 0.  1.
         22    1    1    2    0    0 -0.32518241388E+03 -0.69260745062E+03  0.15231207631E+04  0.17045074191E+04  0.00000000000E+00 0.  1.
<mgrwt>
<rscale>  0 0.31687044E+04</rscale>
<asrwt>0</asrwt>
<pdfrwt beam="1">  1        2 0.22420145E+00 0.31687044E+04</pdfrwt>
<pdfrwt beam="2">  1       -2 0.26499540E+00 0.31687044E+04</pdfrwt>
<totfact> 0.58922346E-01</totfact>
</mgrwt>
</event>
<event>
 6    1  0.1614874E-005  0.2652530E+04  0.7818608E-02  0.8350574E-01
         -2   -1    0    0    0  501 -0.00000000000E+00  0.00000000000E+00  0.14135199101E+04  0.14135199101E+04  0.00000000000E+00 0.  1.
          2   -1    0    0  501    0  0.00000000000E+00 -0.00000000000E+00 -0.12443960819E+04  0.12443960819E+04  0.00000000000E+00 0. -1.
         23    2    1    2    0    0  0.72889537866E+03  0.52192144325E+02  0.11916886334E+04  0.14010742065E+04  0.94205307897E+02 0.  0.
         11    1    3    3    0    0  0.60733301745E+03  0.24730498778E+02  0.92694247390E+03  0.11084617005E+04  0.00000000000E+00 0.  1.
        -11    1    3    3    0    0  0.12156236121E+03  0.27461645547E+02  0.26474615954E+03  0.29261250594E+03  0.00000000000E+00 0. -1.
         22    1    1    2    0    0 -0.72889537866E+03 -0.52192144325E+02 -0.10225648052E+04  0.12568417855E+04  0.00000000000E+00 0. -1.
<mgrwt>
<rscale>  0 0.26525298E+04</rscale>
<asrwt>0</asrwt>
<pdfrwt beam="1">  1        2 0.19144555E+00 0.26525298E+04</pdfrwt>
<pdfrwt beam="2">  1       -2 0.21746460E+00 0.26525298E+04</pdfrwt>
<totfact> 0.16100707E+00</totfact>
</mgrwt>
</event>
<event>
 6    1  0.1614874E-005  0.3849731E+04  0.7818608E-02  0.8035566E-01
          1   -1    0    0  501    0  0.00000000000E+00  0.00000000000E+00  0.14595381277E+04  0.14595381277E+04  0.00000000000E+00 0. -1.
         -1   -1    0    0    0  501 -0.00000000000E+00 -0.00000000000E+00 -0.25385471180E+04  0.25385471180E+04  0.00000000000E+00 0.  1.
         23    2    1    2    0    0  0.48741722225E+02 -0.13584446025E+04  0.87394505303E+03  0.16186363623E+04  0.91957730124E+02 0.  0.
         11    1    3    3    0    0  0.56405970382E+02 -0.53981816409E+03  0.31809158995E+03  0.62910058287E+03  0.00000000000E+00 0.  1.
        -11    1    3    3    0    0 -0.76642481576E+01 -0.81862643837E+03  0.55585346308E+03  0.98953577940E+03  0.00000000000E+00 0. -1.
         22    1    1    2    0    0 -0.48741722225E+02  0.13584446025E+04 -0.19529540434E+04  0.23794488834E+04  0.00000000000E+00 0.  1.
<mgrwt>
<rscale>  0 0.38497305E+04</rscale>
<asrwt>0</asrwt>
<pdfrwt beam="1">  1        1 0.22454433E+00 0.38497305E+04</pdfrwt>
<pdfrwt beam="2">  1       -1 0.39054571E+00 0.38497305E+04</pdfrwt>
<totfact> 0.45863284E-02</totfact>
</mgrwt>
</event>
<event>
 6    1  0.1614874E-005  0.9007535E+03  0.7818608E-02  0.9424640E-01
          2   -1    0    0  501    0  0.00000000000E+00  0.00000000000E+00  0.23659040562E+04  0.23659040562E+04  0.00000000000E+00 0. -1.
         -2   -1    0    0    0  501 -0.00000000000E+00 -0.00000000000E+00 -0.85734342456E+02  0.85734342456E+02  0.00000000000E+00 0.  1.
         23    2    1    2    0    0 -0.32757224871E+03  0.16533115962E+03  0.18409050951E+04  0.18792824119E+04  0.90182280516E+02 0.  0.
         11    1    3    3    0    0 -0.19311710735E+03  0.14355444450E+03  0.12402719526E+04  0.12633988333E+04  0.00000000000E+00 0. -1.
        -11    1    3    3    0    0 -0.13445514136E+03  0.21776715121E+02  0.60063314255E+03  0.61588357852E+03  0.00000000000E+00 0.  1.
         22    1    1    2    0    0  0.32757224871E+03 -0.16533115962E+03  0.43926461858E+03  0.57235598678E+03  0.00000000000E+00 0.  1.
<mgrwt>
<rscale>  0 0.90075353E+03</rscale>
<asrwt>0</asrwt>
<pdfrwt beam="1">  1        2 0.36398519E+00 0.90075353E+03</pdfrwt>
<pdfrwt beam="2">  1       -2 0.13189901E-01 0.90075353E+03</pdfrwt>
<totfact> 0.18440578E+02</totfact>
</mgrwt>
</event>
<event>
 6    1  0.1614874E-005  0.1268152E+04  0.7818608E-02  0.9055209E-01
          2   -1    0    0  501    0  0.00000000000E+00  0.00000000000E+00  0.11533890266E+04  0.11533890266E+04  0.00000000000E+00 0. -1.
         -2   -1    0    0    0  501 -0.00000000000E+00 -0.00000000000E+00 -0.34858342884E+03  0.34858342884E+03  0.00000000000E+00 0.  1.
         23    2    1    2    0    0 -0.32565129280E+03  0.23517061098E+03 -0.17147062062E+03  0.44628820560E+03  0.91744252934E+02 0.  0.
         13    1    3    3    0    0 -0.26275249017E+03  0.14220367607E+03 -0.13845258764E+03  0.32928691987E+03  0.00000000000E+00 0.  1.
        -13    1    3    3    0    0 -0.62898802639E+02  0.92966934901E+02 -0.33018032983E+02  0.11700128572E+03  0.00000000000E+00 0. -1.
         22    1    1    2    0    0  0.32565129280E+03 -0.23517061098E+03  0.97627621835E+03  0.10556842498E+04  0.00000000000E+00 0. -1.
<mgrwt>
<rscale>  0 0.12681519E+04</rscale>
<asrwt>0</asrwt>
<pdfrwt beam="1">  1        2 0.17744446E+00 0.12681519E+04</pdfrwt>
<pdfrwt beam="2">  1       -2 0.53628220E-01 0.12681519E+04</pdfrwt>
<totfact> 0.65023560E+01</totfact>
</mgrwt>
</event>
<event>
 6    1  0.1614874E-005  0.4194987E+03  0.7818608E-02  0.1037230E+00
          2   -1    0    0  501    0  0.00000000000E+00  0.00000000000E+00  0.85788972966E+03  0.85788972966E+03  0.00000000000E+00 0. -1.
         -2   -1    0    0    0  501 -0.00000000000E+00 -0.00000000000E+00 -0.51282570773E+02  0.51282570773E+02  0.00000000000E+00 0.  1.
         23    2    1    2    0    0 -0.15409596935E+03  0.11700584713E+03  0.31449722669E+03  0.38039245835E+03  0.91400113447E+02 0.  0.
         13    1    3    3    0    0 -0.75818998014E+02  0.28089580904E+02  0.19963490497E+03  0.21538718694E+03  0.00000000000E+00 0.  1.
        -13    1    3    3    0    0 -0.78276971332E+02  0.88916266230E+02  0.11486232173E+03  0.16500527141E+03  0.00000000000E+00 0. -1.
         22    1    1    2    0    0  0.15409596935E+03 -0.11700584713E+03  0.49210993219E+03  0.52877984208E+03  0.00000000000E+00 0. -1.
<mgrwt>
<rscale>  0 0.41949870E+03</rscale>
<asrwt>0</asrwt>
<pdfrwt beam="1">  1        2 0.13198302E+00 0.41949870E+03</pdfrwt>
<pdfrwt beam="2">  1       -2 0.78896269E-02 0.41949870E+03</pdfrwt>
<totfact> 0.31443576E+03</totfact>
</mgrwt>
</event>
<event>
 6    1  0.1614874E-005  0.2486179E+04  0.7818608E-02  0.8407926E-01
          2   -1    0    0  501    0  0.00000000000E+00  0.00000000000E+00  0.32462565456E+04  0.32462565456E+04  0.00000000000E+00 0. -1.
         -2   -1    0    0    0  501 -0.00000000000E+00 -0.00000000000E+00 -0.47601647401E+03  0.47601647401E+03  0.00000000000E+00 0.  1.
         23    2    1    2    0    0  0.88727232378E+03 -0.55911080526E+03  0.39238081510E+03  0.11234133249E+04  0.90761916185E+02 0.  0.
         13    1    3    3    0    0  0.68514689906E+03 -0.39354104466E+03  0.27095481438E+03  0.83529476148E+03  0.00000000000E+00 0. -1.
        -13    1    3    3    0    0  0.20212542472E+03 -0.16556976059E+03  0.12142600072E+03  0.28811856343E+03  0.00000000000E+00 0.  1.
         22    1    1    2    0    0 -0.88727232378E+03  0.55911080526E+03  0.23778592565E+04  0.25988596948E+04  0.00000000000E+00 0. -1.
<mgrwt>
<rscale>  0 0.24861791E+04</rscale>
<asrwt>0</asrwt>
<pdfrwt beam="1">  1        2 0.49942407E+00 0.24861791E+04</pdfrwt>
<pdfrwt beam="2">  1       -2 0.73233306E-01 0.24861791E+04</pdfrwt>
<totfact> 0.18186974E+00</totfact>
</mgrwt>
</event>
<event>
 6    1  0.1614874E-005  0.2946777E+04  0.7818608E-02  0.8259094E-01
          1   -1    0    0  501    0  0.00000000000E+00  0.00000000000E+00  0.26574383684E+04  0.26574383684E+04  0.00000000000E+00 0. -1.
         -1   -1    0    0    0  501 -0.00000000000E+00 -0.00000000000E+00 -0.81690452160E+03  0.81690452160E+03  0.00000000000E+00 0.  1.
         23    2    1    2    0    0  0.52465940675E+03  0.11629763637E+04  0.17869039230E+04  0.21973708134E+04  0.87357574206E+02 0.  0.
         13    1    3    3    0    0  0.26256894396E+03  0.52820663884E+03  0.76142756911E+03  0.96318048498E+03  0.00000000000E+00 0.  1.
        -13    1    3    3    0    0  0.26209046279E+03  0.63476972488E+03  0.10254763539E+04  0.12341903284E+04  0.00000000000E+00 0. -1.
         22    1    1    2    0    0 -0.52465940675E+03 -0.11629763637E+04  0.53629923755E+02  0.12769720766E+04  0.00000000000E+00 0.  1.
<mgrwt>
<rscale>  0 0.29467768E+04</rscale>
<asrwt>0</asrwt>
<pdfrwt beam="1">  1        1 0.40883667E+00 0.29467768E+04</pdfrwt>
<pdfrwt beam="2">  1       -1 0.12567762E+00 0.29467768E+04</pdfrwt>
<totfact> 0.49612142E-01</totfact>
</mgrwt>
</event>
<event>
 6    1  0.1614874E-005  0.9442738E+03  0.7818608E-02  0.9371869E-01
         -2   -1    0    0    0  501 -0.00000000000E+00  0.00000000000E+00  0.34943920992E+03  0.34943920992E+03  0.00000000000E+00 0.  1.
          2   -1    0    0  501    0  0.00000000000E+00 -0.00000000000E+00 -0.63791705961E+03  0.63791705961E+03  0.00000000000E+00 0. -1.
         23    2    1    2    0    0 -0.11864314860E+03 -0.27740966566E+03 -0.51930060737E+03  0.60747278111E+03  0.91201642905E+02 0.  0.
         13    1    3    3    0    0 -0.26162462489E+01 -0.44170131912E+02 -0.14382369028E+03  0.15047624126E+03  0.00000000000E+00 0. -1.
        -13    1    3    3    0    0 -0.11602690235E+03 -0.23323953375E+03 -0.37547691708E+03  0.45699653985E+03  0.00000000000E+00 0.  1.
         22    1    1    2    0    0  0.11864314860E+03  0.27740966566E+03  0.23082275768E+03  0.37988348842E+03  0.00000000000E+00 0.  1.
<mgrwt>
<rscale>  0 0.94427376E+03</rscale>
<asrwt>0</asrwt>
<pdfrwt beam="1">  1        2 0.98141087E-01 0.94427376E+03</pdfrwt>
<pdfrwt beam="2">  1       -2 0.53759878E-01 0.94427376E+03</pdfrwt>
<totfact> 0.15023536E+02</totfact>
</mgrwt>
</event>
<event>
 6    1  0.1614874E-005  0.3065636E+04  0.7818608E-02  0.8225233E-01
          1   -1    0    0  501    0  0.00000000000E+00  0.00000000000E+00  0.14417234410E+04  0.14417234410E+04  0.00000000000E+00 0. -1.
         -1   -1    0    0    0  501 -0.00000000000E+00 -0.00000000000E+00 -0.16296682739E+04  0.16296682739E+04  0.00000000000E+00 0.  1.
         23    2    1    2    0    0 -0.57254670445E+03 -0.98862333907E+03  0.92772910160E+03  0.14745466493E+04  0.91764370306E+02 0.  0.
         13    1    3    3    0    0 -0.21178881827E+03 -0.45054899757E+03  0.38241889301E+03  0.62776835894E+03  0.00000000000E+00 0.  1.
        -13    1    3    3    0    0 -0.36075788618E+03 -0.53807434150E+03  0.54531020859E+03  0.84677829035E+03  0.00000000000E+00 0. -1.
         22    1    1    2    0    0  0.57254670445E+03  0.98862333907E+03 -0.11156739346E+04  0.15968450656E+04  0.00000000000E+00 0.  1.
<mgrwt>
<rscale>  0 0.30656360E+04</rscale>
<asrwt>0</asrwt>
<pdfrwt beam="1">  1        1 0.22180361E+00 0.30656360E+04</pdfrwt>
<pdfrwt beam="2">  1       -1 0.25071820E+00 0.30656360E+04</pdfrwt>
<totfact> 0.41922805E-01</totfact>
</mgrwt>
</event>
<event>
 6    1  0.1614874E-005  0.1244748E+04  0.7818608E-02  0.9074566E-01
          2   -1    0    0  501    0  0.00000000000E+00  0.00000000000E+00  0.51593419927E+03  0.51593419927E+03  0.00000000000E+00 0.  1.
         -2   -1    0    0    0  501 -0.00000000000E+00 -0.00000000000E+00 -0.75077270060E+03  0.75077270060E+03  0.00000000000E+00 0. -1.
         23    2    1    2    0    0  0.58296773098E+03 -0.14866849839E+03 -0.26579937713E+03  0.66428489364E+03  0.93120423411E+02 0.  0.
         11    1    3    3    0    0  0.34215430376E+03 -0.12933500918E+03 -0.18213401913E+03  0.40861952120E+03  0.00000000000E+00 0.  1.
        -11    1    3    3    0    0  0.24081342722E+03 -0.19333489206E+02 -0.83665358000E+02  0.25566537244E+03  0.00000000000E+00 0. -1.
         22    1    1    2    0    0 -0.58296773098E+03  0.14866849839E+03  0.30960875802E+02  0.60242200624E+03  0.00000000000E+00 0.  1.
<mgrwt>
<rscale>  0 0.12447479E+04</rscale>
<asrwt>0</asrwt>
<pdfrwt beam="1">  1        2 0.79374492E-01 0.12447479E+04</pdfrwt>
<pdfrwt beam="2">  1       -2 0.11550349E+00 0.12447479E+04</pdfrwt>
<totfact> 0.34066738E+01</totfact>
</mgrwt>
</event>
<event>
 6    1  0.1614874E-005  0.1185188E+04  0.7818608E-02  0.9125921E-01
         -2   -1    0    0    0  501 -0.00000000000E+00  0.00000000000E+00  0.26708921313E+03  0.26708921313E+03  0.00000000000E+00 0.  1.
          2   -1    0    0  501    0  0.00000000000E+00 -0.00000000000E+00 -0.13147962826E+04  0.13147962826E+04  0.00000000000E+00 0. -1.
         23    2    1    2    0    0 -0.11439754465E+03 -0.21903837305E+03 -0.12408881808E+04  0.12682239762E+04  0.86740817130E+02 0.  0.
         11    1    3    3    0    0  0.81943926590E+01 -0.55896176421E+02 -0.32536450307E+03  0.33023263084E+03  0.00000000000E+00 0.  1.
        -11    1    3    3    0    0 -0.12259193731E+03 -0.16314219663E+03 -0.91552367777E+03  0.93799134536E+03  0.00000000000E+00 0. -1.
         22    1    1    2    0    0  0.11439754465E+03  0.21903837305E+03  0.19318111133E+03  0.31366151958E+03  0.00000000000E+00 0.  1.
<mgrwt>
<rscale>  0 0.11851884E+04</rscale>
<asrwt>0</asrwt>
<pdfrwt beam="1">  1        2 0.20227635E+00 0.11851884E+04</pdfrwt>
<pdfrwt beam="2">  1       -2 0.41090649E-01 0.11851884E+04</pdfrwt>
<totfact> 0.89737046E+01</totfact>
</mgrwt>
</event>
<event>
 6    1  0.1614874E-005  0.1271422E+04  0.7818608E-02  0.9052540E-01
         -2   -1    0    0    0  501 -0.00000000000E+00  0.00000000000E+00  0.31615789426E+03  0.31615789426E+03  0.00000000000E+00 0. -1.
          2   -1    0    0  501    0  0.00000000000E+00 -0.00000000000E+00 -0.12782480394E+04  0.12782480394E+04  0.00000000000E+00 0.  1.
         23    2    1    2    0    0 -0.11900719839E+03 -0.30838474842E+02 -0.12614610269E+04  0.12707755123E+04  0.92047571295E+02 0.  0.
         13    1    3    3    0    0 -0.46778942541E+02  0.30606402399E+02 -0.59166542237E+03  0.59430042349E+03  0.00000000000E+00 0.  1.
        -13    1    3    3    0    0 -0.72228255848E+02 -0.61444877242E+02 -0.66979560456E+03  0.67647508880E+03  0.00000000000E+00 0. -1.
         22    1    1    2    0    0  0.11900719839E+03  0.30838474842E+02  0.29937088176E+03  0.32363042139E+03  0.00000000000E+00 0. -1.
<mgrwt>
<rscale>  0 0.12714216E+04</rscale>
<asrwt>0</asrwt>
<pdfrwt beam="1">  1        2 0.19665354E+00 0.12714216E+04</pdfrwt>
<pdfrwt beam="2">  1       -2 0.48639677E-01 0.12714216E+04</pdfrwt>
<totfact> 0.66902808E+01</totfact>
</mgrwt>
</event>
<event>
 6    1  0.1614874E-005  0.1282096E+04  0.7818608E-02  0.9043885E-01
          1   -1    0    0  501    0  0.00000000000E+00  0.00000000000E+00  0.79972362468E+03  0.79972362468E+03  0.00000000000E+00 0. -1.
         -1   -1    0    0    0  501 -0.00000000000E+00 -0.00000000000E+00 -0.51385573406E+03  0.51385573406E+03  0.00000000000E+00 0.  1.
         23    2    1    2    0    0  0.26758307659E+03 -0.52328530105E+03 -0.11041397166E+03  0.60472992229E+03  0.89882281888E+02 0.  0.
         11    1    3    3    0    0 -0.17474389102E+01 -0.11173056038E+02 -0.14224120933E+02  0.18171855720E+02  0.00000000000E+00 0.  1.
        -11    1    3    3    0    0  0.26933051550E+03 -0.51211224502E+03 -0.96189850728E+02  0.58655806657E+03  0.00000000000E+00 0. -1.
         22    1    1    2    0    0 -0.26758307659E+03  0.52328530105E+03  0.39628186228E+03  0.70884943645E+03  0.00000000000E+00 0. -1.
<mgrwt>
<rscale>  0 0.12820960E+04</rscale>
<asrwt>0</asrwt>
<pdfrwt beam="1">  1        1 0.12303440E+00 0.12820960E+04</pdfrwt>
<pdfrwt beam="2">  1       -1 0.79054728E-01 0.12820960E+04</pdfrwt>
<totfact> 0.34834056E+01</totfact>
</mgrwt>
</event>
<event>
 6    1  0.1614874E-005  0.2524247E+04  0.7818608E-02  0.8394398E-01
         -2   -1    0    0    0  501 -0.00000000000E+00  0.00000000000E+00  0.26301525119E+04  0.26301525119E+04  0.00000000000E+00 0.  1.
          2   -1    0    0  501    0  0.00000000000E+00 -0.00000000000E+00 -0.60565140684E+03  0.60565140684E+03  0.00000000000E+00 0. -1.
         23    2    1    2    0    0 -0.75003163342E+03 -0.93409966247E+03  0.15162654158E+04  0.19344995168E+04  0.90210525564E+02 0.  0.
         11    1    3    3    0    0 -0.36282076000E+03 -0.39271277951E+03  0.71626914582E+03  0.89381414194E+03  0.00000000000E+00 0. -1.
        -11    1    3    3    0    0 -0.38721087342E+03 -0.54138688297E+03  0.79999626996E+03  0.10406853749E+04  0.00000000000E+00 0.  1.
         22    1    1    2    0    0  0.75003163342E+03  0.93409966247E+03  0.50823568927E+03  0.13013044019E+04  0.00000000000E+00 0. -1.
<mgrwt>
<rscale>  0 0.25242469E+04</rscale>
<asrwt>0</asrwt>
<pdfrwt beam="1">  1        2 0.93177141E-01 0.25242469E+04</pdfrwt>
<pdfrwt beam="2">  1       -2 0.40463884E+00 0.25242469E+04</pdfrwt>
<totfact> 0.30212264E-01</totfact>
</mgrwt>
</event>
<event>
 6    1  0.1830471E-005  0.2844595E+04  0.7818608E-02  0.8289556E-01
          1   -1    0    0  501    0  0.00000000000E+00  0.00000000000E+00  0.21845171263E+04  0.21845171263E+04  0.00000000000E+00 0. -1.
         -1   -1    0    0    0  501 -0.00000000000E+00 -0.00000000000E+00 -0.92603084355E+03  0.92603084355E+03  0.00000000000E+00 0.  1.
         23    2    1    2    0    0 -0.40059677076E+03  0.86090994264E+03  0.17856769510E+04  0.20244661577E+04  0.90428692321E+02 0.  0.
         11    1    3    3    0    0 -0.35716366023E+03  0.75428456601E+03  0.15014789494E+04  0.17178329727E+04  0.00000000000E+00 0.  1.
        -11    1    3    3    0    0 -0.43433110530E+02  0.10662537663E+03  0.28419800158E+03  0.30663318499E+03  0.00000000000E+00 0. -1.
         22    1    1    2    0    0  0.40059677076E+03 -0.86090994264E+03 -0.52719066820E+03  0.10860818122E+04  0.00000000000E+00 0.  1.
<mgrwt>
<rscale>  0 0.28445950E+04</rscale>
<asrwt>0</asrwt>
<pdfrwt beam="1">  1        1 0.33607956E+00 0.28445950E+04</pdfrwt>
<pdfrwt beam="2">  1       -1 0.14246628E+00 0.28445950E+04</pdfrwt>
<totfact> 0.77055326E-01</totfact>
</mgrwt>
</event>
<event>
 6    1  0.1614874E-005  0.1648205E+04  0.7818608E-02  0.8791469E-01
          2   -1    0    0  501    0  0.00000000000E+00  0.00000000000E+00  0.40871618905E+03  0.40871618905E+03  0.00000000000E+00 0. -1.
         -2   -1    0    0    0  501 -0.00000000000E+00 -0.00000000000E+00 -0.16616548017E+04  0.16616548017E+04  0.00000000000E+00 0.  1.
         23    2    1    2    0    0 -0.27845441633E+03  0.62432272204E+03 -0.56109523340E+02  0.69206928493E+03  0.92173170177E+02 0.  0.
         13    1    3    3    0    0 -0.21980784052E+03  0.39389353933E+03 -0.19526045904E+02  0.45149626083E+03  0.00000000000E+00 0.  1.
        -13    1    3    3    0    0 -0.58646575809E+02  0.23042918272E+03 -0.36583477435E+02  0.24057302410E+03  0.00000000000E+00 0. -1.
         22    1    1    2    0    0  0.27845441633E+03 -0.62432272204E+03 -0.11968290893E+04  0.13783017058E+04  0.00000000000E+00 0.  1.
<mgrwt>
<rscale>  0 0.16482053E+04</rscale>
<asrwt>0</asrwt>
<pdfrwt beam="1">  1        2 0.62879412E-01 0.16482053E+04</pdfrwt>
<pdfrwt beam="2">  1       -2 0.25563921E+00 0.16482053E+04</pdfrwt>
<totfact> 0.44007999E+00</totfact>
</mgrwt>
</event>
<event>
 6    1  0.1614874E-005  0.2239357E+04  0.7818608E-02  0.8502223E-01
          2   -1    0    0  501    0  0.00000000000E+00  0.00000000000E+00  0.18075689479E+04  0.18075689479E+04  0.00000000000E+00 0.  1.
         -2   -1    0    0    0  501 -0.00000000000E+00 -0.00000000000E+00 -0.69357247384E+03  0.69357247384E+03  0.00000000000E+00 0. -1.
         23    2    1    2    0    0  0.86096497338E+02 -0.81009064906E+03 -0.29661599302E+03  0.87218869105E+03  0.95250191227E+02 0.  0.
         11    1    3    3    0    0  0.28710568794E+02 -0.76007568879E+02 -0.92377867923E+01  0.81772758252E+02  0.00000000000E+00 0.  1.
        -11    1    3    3    0    0  0.57385928544E+02 -0.73408308018E+03 -0.28737820623E+03  0.79041593280E+03  0.00000000000E+00 0. -1.
         22    1    1    2    0    0 -0.86096497338E+02  0.81009064906E+03  0.14106124671E+04  0.16289527307E+04  0.00000000000E+00 0.  1.
<mgrwt>
<rscale>  0 0.22393571E+04</rscale>
<asrwt>0</asrwt>
<pdfrwt beam="1">  1        2 0.27808753E+00 0.22393571E+04</pdfrwt>
<pdfrwt beam="2">  1       -2 0.10670346E+00 0.22393571E+04</pdfrwt>
<totfact> 0.55061013E+00</totfact>
</mgrwt>
</event>
<event>
 6    1  0.1614874E-005  0.2901865E+04  0.7818608E-02  0.8272323E-01
          1   -1    0    0  501    0  0.00000000000E+00  0.00000000000E+00  0.13471116568E+04  0.13471116568E+04  0.00000000000E+00 0. -1.
         -1   -1    0    0    0  501 -0.00000000000E+00 -0.00000000000E+00 -0.15627549577E+04  0.15627549577E+04  0.00000000000E+00 0.  1.
         23    2    1    2    0    0 -0.79884796511E+03 -0.72839210282E+03  0.86035507282E+03  0.13845844678E+04  0.90278294461E+02 0.  0.
         13    1    3    3    0    0 -0.57447552873E+03 -0.55957829509E+03  0.67403307326E+03  0.10476023030E+04  0.00000000000E+00 0. -1.
        -13    1    3    3    0    0 -0.22437243638E+03 -0.16881380772E+03  0.18632199956E+03  0.33698216482E+03  0.00000000000E+00 0.  1.
         22    1    1    2    0    0  0.79884796511E+03  0.72839210282E+03 -0.10759983736E+04  0.15252821467E+04  0.00000000000E+00 0.  1.
<mgrwt>
<rscale>  0 0.29018652E+04</rscale>
<asrwt>0</asrwt>
<pdfrwt beam="1">  1        1 0.20724795E+00 0.29018652E+04</pdfrwt>
<pdfrwt beam="2">  1       -1 0.24042384E+00 0.29018652E+04</pdfrwt>
<totfact> 0.57884907E-01</totfact>
</mgrwt>
</event>
<event>
 6    1  0.1614874E-005  0.7961801E+03  0.7818608E-02  0.9565563E-01
          1   -1    0    0  501    0  0.00000000000E+00  0.00000000000E+00  0.37375281815E+03  0.37375281815E+03  0.00000000000E+00 0. -1.
         -1   -1    0    0    0  501 -0.00000000000E+00 -0.00000000000E+00 -0.42401198754E+03  0.42401198754E+03  0.00000000000E+00 0.  1.
         23    2    1    2    0    0 -0.11103645541E+03  0.36120498011E+03 -0.13242650935E+03  0.41104836714E+03  0.92875441679E+02 0.  0.
         13    1    3    3    0    0  0.84756987236E+00  0.15043307425E+03 -0.47415372202E+02  0.15773092824E+03  0.00000000000E+00 0. -1.
        -13    1    3    3    0    0 -0.11188402528E+03  0.21077190586E+03 -0.85011137152E+02  0.25331743890E+03  0.00000000000E+00 0.  1.
         22    1    1    2    0    0  0.11103645541E+03 -0.36120498011E+03  0.82167339959E+02  0.38671643855E+03  0.00000000000E+00 0. -1.
<mgrwt>
<rscale>  0 0.79618007E+03</rscale>
<asrwt>0</asrwt>
<pdfrwt beam="1">  1        1 0.57500434E-01 0.79618007E+03</pdfrwt>
<pdfrwt beam="2">  1       -1 0.65232613E-01 0.79618007E+03</pdfrwt>
<totfact> 0.15837938E+02</totfact>
</mgrwt>
</event>
<event>
 6    1  0.1614874E-005  0.4511102E+04  0.7818608E-02  0.7908696E-01
          2   -1    0    0  501    0  0.00000000000E+00  0.00000000000E+00  0.39042336339E+04  0.39042336339E+04  0.00000000000E+00 0. -1.
         -2   -1    0    0    0  501 -0.00000000000E+00 -0.00000000000E+00 -0.13030754341E+04  0.13030754341E+04  0.00000000000E+00 0.  1.
         23    2    1    2    0    0  0.12350112810E+04 -0.14123679749E+04  0.27443731818E+04  0.33256750196E+04  0.92162978831E+02 0.  0.
         13    1    3    3    0    0  0.12414141509E+03 -0.10343477989E+03  0.24430864407E+03  0.29291049520E+03  0.00000000000E+00 0. -1.
        -13    1    3    3    0    0  0.11108698659E+04 -0.13089331950E+04  0.25000645377E+04  0.30327645244E+04  0.00000000000E+00 0.  1.
         22    1    1    2    0    0 -0.12350112810E+04  0.14123679749E+04 -0.14321498202E+03  0.18816340483E+04  0.00000000000E+00 0.  1.
<mgrwt>
<rscale>  0 0.45111023E+04</rscale>
<asrwt>0</asrwt>
<pdfrwt beam="1">  1        2 0.60065132E+00 0.45111023E+04</pdfrwt>
<pdfrwt beam="2">  1       -2 0.20047315E+00 0.45111023E+04</pdfrwt>
<totfact> 0.40629856E-02</totfact>
</mgrwt>
</event>
<event>
 6    1  0.1614874E-005  0.2432615E+04  0.7818608E-02  0.8427393E-01
          1   -1    0    0  501    0  0.00000000000E+00  0.00000000000E+00  0.42940361237E+04  0.42940361237E+04  0.00000000000E+00 0.  1.
         -1   -1    0    0    0  501 -0.00000000000E+00 -0.00000000000E+00 -0.34452523469E+03  0.34452523469E+03  0.00000000000E+00 0. -1.
         23    2    1    2    0    0 -0.31286760768E+03 -0.11692512517E+04  0.17843181531E+04  0.21580182297E+04  0.90646449086E+02 0.  0.
         13    1    3    3    0    0 -0.11995980537E+03 -0.29763967809E+03  0.48772981559E+03  0.58383225835E+03  0.00000000000E+00 0. -1.
        -13    1    3    3    0    0 -0.19290780230E+03 -0.87161157362E+03  0.12965883375E+04  0.15741859713E+04  0.00000000000E+00 0.  1.
         22    1    1    2    0    0  0.31286760768E+03  0.11692512517E+04  0.21651927359E+04  0.24805431287E+04  0.00000000000E+00 0.  1.
<mgrwt>
<rscale>  0 0.24326149E+04</rscale>
<asrwt>0</asrwt>
<pdfrwt beam="1">  1        1 0.66062090E+00 0.24326149E+04</pdfrwt>
<pdfrwt beam="2">  1       -1 0.53003885E-01 0.24326149E+04</pdfrwt>
<totfact> 0.16612279E-01</totfact>
</mgrwt>
</event>
<event>
 6    1  0.1614874E-005  0.3897195E+04  0.7818608E-02  0.8025613E-01
         -1   -1    0    0    0  501 -0.00000000000E+00  0.00000000000E+00  0.13978465899E+04  0.13978465899E+04  0.00000000000E+00 0.  1.
          1   -1    0    0  501    0  0.00000000000E+00 -0.00000000000E+00 -0.27163435860E+04  0.27163435860E+04  0.00000000000E+00 0. -1.
         23    2    1    2    0    0  0.43930996278E+03  0.18665945521E+04 -0.29989337422E+03  0.19428491608E+04  0.86938831981E+02 0.  0.
         11    1    3    3    0    0  0.37017249517E+03  0.15805635029E+04 -0.28535474689E+03  0.16482220707E+04  0.00000000000E+00 0.  1.
        -11    1    3    3    0    0  0.69137467619E+02  0.28603104920E+03 -0.14538627336E+02  0.29462709010E+03  0.00000000000E+00 0. -1.
         22    1    1    2    0    0 -0.43930996278E+03 -0.18665945521E+04 -0.10186036219E+04  0.21713410151E+04  0.00000000000E+00 0.  1.
<mgrwt>
<rscale>  0 0.38971947E+04</rscale>
<asrwt>0</asrwt>
<pdfrwt beam="1">  1        1 0.41789901E+00 0.38971947E+04</pdfrwt>
<pdfrwt beam="2">  1       -1 0.21505332E+00 0.38971947E+04</pdfrwt>
<totfact> 0.89596617E-02</totfact>
</mgrwt>
</event>
<event>
 6    1  0.1614874E-005  0.2606127E+04  0.7818608E-02  0.8366123E-01
          2   -1    0    0  501    0  0.00000000000E+00  0.00000000000E+00  0.13915847409E+04  0.13915847409E+04  0.00000000000E+00 0. -1.
         -2   -1    0    0    0  501 -0.00000000000E+00 -0.00000000000E+00 -0.12201736262E+04  0.12201736262E+04  0.00000000000E+00 0.  1.
         23    2    1    2    0    0  0.59960216238E+03  0.14243868980E+03 -0.10631112506E+04  0.12319551188E+04  0.87728845014E+02 0.  0.
         13    1    3    3    0    0  0.33652420717E+02 -0.12198632280E+02 -0.59482138591E+02  0.69422020000E+02  0.00000000000E+00 0. -1.
        -13    1    3    3    0    0  0.56594974166E+03  0.15463732208E+03 -0.10036291120E+04  0.11625330988E+04  0.00000000000E+00 0.  1.
         22    1    1    2    0    0 -0.59960216238E+03 -0.14243868980E+03  0.12345223653E+04  0.13798032483E+04  0.00000000000E+00 0. -1.
<mgrwt>
<rscale>  0 0.26061274E+04</rscale>
<asrwt>0</asrwt>
<pdfrwt beam="1">  1        2 0.21408996E+00 0.26061274E+04</pdfrwt>
<pdfrwt beam="2">  1       -2 0.18771902E+00 0.26061274E+04</pdfrwt>
<totfact> 0.20776176E+00</totfact>
</mgrwt>
</event>
<event>
 6    1  0.1614874E-005  0.5309412E+03  0.7818608E-02  0.1006004E+00
          2   -1    0    0  501    0  0.00000000000E+00  0.00000000000E+00  0.66797539161E+03  0.66797539161E+03  0.00000000000E+00 0. -1.
         -2   -1    0    0    0  501 -0.00000000000E+00 -0.00000000000E+00 -0.10550482454E+03  0.10550482454E+03  0.00000000000E+00 0.  1.
         23    2    1    2    0    0  0.25018063802E+02  0.23739006433E+03  0.14895716024E+03  0.29601473699E+03  0.91959462618E+02 0.  0.
         11    1    3    3    0    0 -0.12987228014E+02  0.12662959600E+03  0.33634003551E+02  0.13166232897E+03  0.00000000000E+00 0. -1.
        -11    1    3    3    0    0  0.38005291816E+02  0.11076046833E+03  0.11532315669E+03  0.16435240801E+03  0.00000000000E+00 0.  1.
         22    1    1    2    0    0 -0.25018063802E+02 -0.23739006433E+03  0.41351340683E+03  0.47746547916E+03  0.00000000000E+00 0. -1.
<mgrwt>
<rscale>  0 0.53094115E+03</rscale>
<asrwt>0</asrwt>
<pdfrwt beam="1">  1        2 0.10276544E+00 0.53094115E+03</pdfrwt>
<pdfrwt beam="2">  1       -2 0.16231512E-01 0.53094115E+03</pdfrwt>
<totfact> 0.13342781E+03</totfact>
</mgrwt>
</event>
<event>
 6    1  0.1614874E-005  0.1033103E+04  0.7818608E-02  0.9272965E-01
         -2   -1    0    0    0  501 -0.00000000000E+00  0.00000000000E+00  0.39928045408E+03  0.39928045408E+03  0.00000000000E+00 0.  1.
          2   -1    0    0  501    0  0.00000000000E+00 -0.00000000000E+00 -0.66826549881E+03  0.66826549881E+03  0.00000000000E+00 0. -1.
         23    2    1    2    0    0 -0.36481390924E+03 -0.34767635971E+03 -0.23169541361E+03  0.56221580728E+03  0.91846664586E+02 0.  0.
         11    1    3    3    0    0 -0.26018340164E+03 -0.26702991248E+03 -0.21131512615E+03  0.42854924943E+03  0.00000000000E+00 0.  1.
        -11    1    3    3    0    0 -0.10463050760E+03 -0.80646447223E+02 -0.20380287461E+02  0.13366655785E+03  0.00000000000E+00 0. -1.
         22    1    1    2    0    0  0.36481390924E+03  0.34767635971E+03 -0.37289631122E+02  0.50533014561E+03  0.00000000000E+00 0. -1.
<mgrwt>
<rscale>  0 0.10331028E+04</rscale>
<asrwt>0</asrwt>
<pdfrwt beam="1">  1        2 0.10281007E+00 0.10331028E+04</pdfrwt>
<pdfrwt beam="2">  1       -2 0.61427763E-01 0.10331028E+04</pdfrwt>
<totfact> 0.10672464E+02</totfact>
</mgrwt>
</event>
<event>
 6    1  0.1614874E-005  0.3143867E+04  0.7818608E-02  0.8203801E-01
          2   -1    0    0  501    0  0.00000000000E+00  0.00000000000E+00  0.12906399593E+04  0.12906399593E+04  0.00000000000E+00 0. -1.
         -2   -1    0    0    0  501 -0.00000000000E+00 -0.00000000000E+00 -0.19145347278E+04  0.19145347278E+04  0.00000000000E+00 0.  1.
         23    2    1    2    0    0  0.77800835885E+02  0.78348173010E+03 -0.16976981233E+04  0.18736529125E+04  0.92193963839E+02 0.  0.
         13    1    3    3    0    0  0.20179544607E+02  0.55871926706E+03 -0.12525464152E+04  0.13716584690E+04  0.00000000000E+00 0. -1.
        -13    1    3    3    0    0  0.57621291277E+02  0.22476246304E+03 -0.44515170817E+03  0.50199444348E+03  0.00000000000E+00 0.  1.
         22    1    1    2    0    0 -0.77800835885E+02 -0.78348173010E+03  0.10738033548E+04  0.13315217746E+04  0.00000000000E+00 0. -1.
<mgrwt>
<rscale>  0 0.31438671E+04</rscale>
<asrwt>0</asrwt>
<pdfrwt beam="1">  1        2 0.19855999E+00 0.31438671E+04</pdfrwt>
<pdfrwt beam="2">  1       -2 0.29454380E+00 0.31438671E+04</pdfrwt>
<totfact> 0.48605097E-01</totfact>
</mgrwt>
</event>
<event>
 6    1  0.1614874E-005  0.2397876E+04  0.7818608E-02  0.8440299E-01
         -2   -1    0    0    0  501 -0.00000000000E+00  0.00000000000E+00  0.38433420183E+03  0.38433420183E+03  0.00000000000E+00 0.  1.
          2   -1    0    0  501    0  0.00000000000E+00 -0.00000000000E+00 -0.37401088627E+04  0.37401088627E+04  0.00000000000E+00 0. -1.
         23    2    1    2    0    0  0.57694016982E+03 -0.41755290298E+03 -0.24106308678E+02  0.71750537867E+03  0.83800166775E+02 0.  0.
         13    1    3    3    0    0  0.21035885120E+03 -0.10377832294E+03 -0.67584718947E+01  0.23466244594E+03  0.00000000000E+00 0. -1.
        -13    1    3    3    0    0  0.36658131862E+03 -0.31377458005E+03 -0.17347836783E+02  0.48284293273E+03  0.00000000000E+00 0.  1.
         22    1    1    2    0    0 -0.57694016982E+03  0.41755290298E+03 -0.33316683522E+04  0.34069376859E+04  0.00000000000E+00 0.  1.
<mgrwt>
<rscale>  0 0.23978755E+04</rscale>
<asrwt>0</asrwt>
<pdfrwt beam="1">  1        2 0.57540133E+00 0.23978755E+04</pdfrwt>
<pdfrwt beam="2">  1       -2 0.59128342E-01 0.23978755E+04</pdfrwt>
<totfact> 0.13133744E+00</totfact>
</mgrwt>
</event>
<event>
 6    1  0.1614874E-005  0.3550251E+04  0.7818608E-02  0.8101983E-01
          2   -1    0    0  501    0  0.00000000000E+00  0.00000000000E+00  0.24935336343E+04  0.24935336343E+04  0.00000000000E+00 0. -1.
         -2   -1    0    0    0  501 -0.00000000000E+00 -0.00000000000E+00 -0.12636967840E+04  0.12636967840E+04  0.00000000000E+00 0.  1.
         23    2    1    2    0    0  0.36929105376E+03 -0.15978446532E+04 -0.10049622718E+03  0.16455321644E+04  0.90516266403E+02 0.  0.
         11    1    3    3    0    0  0.11545244137E+03 -0.38975770053E+03 -0.55263700986E+02  0.41023701440E+03  0.00000000000E+00 0. -1.
        -11    1    3    3    0    0  0.25383861239E+03 -0.12080869526E+04 -0.45232526197E+02  0.12352951500E+04  0.00000000000E+00 0.  1.
         22    1    1    2    0    0 -0.36929105376E+03  0.15978446532E+04  0.13303330775E+04  0.21116982538E+04  0.00000000000E+00 0. -1.
<mgrwt>
<rscale>  0 0.35502509E+04</rscale>
<asrwt>0</asrwt>
<pdfrwt beam="1">  1        2 0.38362056E+00 0.35502509E+04</pdfrwt>
<pdfrwt beam="2">  1       -2 0.19441489E+00 0.35502509E+04</pdfrwt>
<totfact> 0.41607020E-01</totfact>
</mgrwt>
</event>
<event>
 6    1  0.1614874E-005  0.4904410E+04  0.7818608E-02  0.7843424E-01
         -2   -1    0    0    0  501 -0.00000000000E+00  0.00000000000E+00  0.23294229607E+04  0.23294229607E+04  0.00000000000E+00 0.  1.
          2   -1    0    0  501    0  0.00000000000E+00 -0.00000000000E+00 -0.25814585788E+04  0.25814585788E+04  0.00000000000E+00 0. -1.
         23    2    1    2    0    0  0.15248731622E+03 -0.18291921381E+04  0.15009260928E+04  0.23727580162E+04  0.89471826214E+02 0.  0.
         11    1    3    3    0    0  0.10319883088E+03 -0.13959180163E+04  0.10974102408E+04  0.17786360908E+04  0.00000000000E+00 0. -1.
        -11    1    3    3    0    0  0.49288485337E+02 -0.43327412176E+03  0.40351585197E+03  0.59412192533E+03  0.00000000000E+00 0.  1.
         22    1    1    2    0    0 -0.15248731622E+03  0.18291921381E+04 -0.17529617109E+04  0.25381235233E+04  0.00000000000E+00 0. -1.
<mgrwt>
<rscale>  0 0.49044098E+04</rscale>
<asrwt>0</asrwt>
<pdfrwt beam="1">  1        2 0.39714748E+00 0.49044098E+04</pdfrwt>
<pdfrwt beam="2">  1       -2 0.35837276E+00 0.49044098E+04</pdfrwt>
<totfact> 0.31526704E-02</totfact>
</mgrwt>
</event>
<event>
 6    1  0.1614874E-005  0.1857707E+04  0.7818608E-02  0.8676199E-01
          2   -1    0    0  501    0  0.00000000000E+00  0.00000000000E+00  0.10072262578E+04  0.10072262578E+04  0.00000000000E+00 0. -1.
         -2   -1    0    0    0  501 -0.00000000000E+00 -0.00000000000E+00 -0.85657900327E+03  0.85657900327E+03  0.00000000000E+00 0.  1.
         23    2    1    2    0    0  0.22388775800E+02 -0.69458458201E+03  0.69041499848E+03  0.98386309462E+03  0.91458843045E+02 0.  0.
         13    1    3    3    0    0  0.37136941536E+01 -0.34800329803E+02  0.11157692111E+02  0.36733480258E+02  0.00000000000E+00 0.  1.
        -13    1    3    3    0    0  0.18675081647E+02 -0.65978425221E+03  0.67925730637E+03  0.94712961436E+03  0.00000000000E+00 0. -1.
         22    1    1    2    0    0 -0.22388775800E+02  0.69458458201E+03 -0.53976774397E+03  0.87994216644E+03  0.00000000000E+00 0.  1.
<mgrwt>
<rscale>  0 0.18577070E+04</rscale>
<asrwt>0</asrwt>
<pdfrwt beam="1">  1        2 0.15495789E+00 0.18577070E+04</pdfrwt>
<pdfrwt beam="2">  1       -2 0.13178138E+00 0.18577070E+04</pdfrwt>
<totfact> 0.98253715E+00</totfact>
</mgrwt>
</event>
<event>
 6    1  0.1614874E-005  0.2931918E+04  0.7818608E-02  0.8263444E-01
         -1   -1    0    0    0  501 -0.00000000000E+00  0.00000000000E+00  0.20635401335E+04  0.20635401335E+04  0.00000000000E+00 0.  1.
          1   -1    0    0  501    0  0.00000000000E+00 -0.00000000000E+00 -0.10414314596E+04  0.10414314596E+04  0.00000000000E+00 0. -1.
         23    2    1    2    0    0  0.95704762405E+03  0.63261079685E+03 -0.45267168355E+03  0.12365193787E+04  0.89061471558E+02 0.  0.
         11    1    3    3    0    0  0.62232368888E+03  0.37850067414E+03 -0.32230167067E+03  0.79650982479E+03  0.00000000000E+00 0. -1.
        -11    1    3    3    0    0  0.33472393517E+03  0.25411012270E+03 -0.13037001288E+03  0.44000955387E+03  0.00000000000E+00 0.  1.
         22    1    1    2    0    0 -0.95704762405E+03 -0.63261079685E+03  0.14747803574E+04  0.18684522144E+04  0.00000000000E+00 0.  1.
<mgrwt>
<rscale>  0 0.29319179E+04</rscale>
<asrwt>0</asrwt>
<pdfrwt beam="1">  1        1 0.16022023E+00 0.29319179E+04</pdfrwt>
<pdfrwt beam="2">  1       -1 0.31746771E+00 0.29319179E+04</pdfrwt>
<totfact> 0.30575420E-01</totfact>
</mgrwt>
</event>
<event>
 6    1  0.1614874E-005  0.4982420E+04  0.7818608E-02  0.7831225E-01
          2   -1    0    0  501    0  0.00000000000E+00  0.00000000000E+00  0.24071584632E+04  0.24071584632E+04  0.00000000000E+00 0. -1.
         -2   -1    0    0    0  501 -0.00000000000E+00 -0.00000000000E+00 -0.25781958762E+04  0.25781958762E+04  0.00000000000E+00 0.  1.
         23    2    1    2    0    0 -0.22653599745E+03 -0.10805811942E+04  0.21479727643E+04  0.24169341094E+04  0.93857431794E+02 0.  0.
         11    1    3    3    0    0 -0.12895363740E+03 -0.49517460720E+03  0.90808250328E+03  0.10423246927E+04  0.00000000000E+00 0.  1.
        -11    1    3    3    0    0 -0.97582360049E+02 -0.58540658701E+03  0.12398902610E+04  0.13746094167E+04  0.00000000000E+00 0. -1.
         22    1    1    2    0    0  0.22653599745E+03  0.10805811942E+04 -0.23190101773E+04  0.25684202300E+04  0.00000000000E+00 0.  1.
<mgrwt>
<rscale>  0 0.49824195E+04</rscale>
<asrwt>0</asrwt>
<pdfrwt beam="1">  1        2 0.37033207E+00 0.49824195E+04</pdfrwt>
<pdfrwt beam="2">  1       -2 0.39664552E+00 0.49824195E+04</pdfrwt>
<totfact> 0.22427246E-02</totfact>
</mgrwt>
</event>
<event>
 6    1  0.1614874E-005  0.1811896E+04  0.7818608E-02  0.8699999E-01
         -1   -1    0    0    0  501 -0.00000000000E+00  0.00000000000E+00  0.63160221838E+03  0.63160221838E+03  0.00000000000E+00 0.  1.
          1   -1    0    0  501    0  0.00000000000E+00 -0.00000000000E+00 -0.12994593998E+04  0.12994593998E+04  0.00000000000E+00 0. -1.
         23    2    1    2    0    0 -0.50868147444E+03  0.36201426489E+03  0.36294560238E+03  0.72592031960E+03  0.73618134356E+02 0.  0.
         13    1    3    3    0    0 -0.16895103394E+03  0.12853730271E+03  0.16367290550E+03  0.26805803486E+03  0.00000000000E+00 0. -1.
        -13    1    3    3    0    0 -0.33973044050E+03  0.23347696218E+03  0.19927269688E+03  0.45786228474E+03  0.00000000000E+00 0.  1.
         22    1    1    2    0    0  0.50868147444E+03 -0.36201426489E+03 -0.10308027838E+04  0.12051412985E+04  0.00000000000E+00 0. -1.
<mgrwt>
<rscale>  0 0.18118956E+04</rscale>
<asrwt>0</asrwt>
<pdfrwt beam="1">  1        1 0.19991683E+00 0.18118956E+04</pdfrwt>
<pdfrwt beam="2">  1       -1 0.97169574E-01 0.18118956E+04</pdfrwt>
<totfact> 0.86846280E+00</totfact>
</mgrwt>
</event>
<event>
 6    1  0.1614874E-005  0.5032009E+04  0.7818608E-02  0.7823588E-01
         -2   -1    0    0    0  501 -0.00000000000E+00  0.00000000000E+00  0.17954964427E+04  0.17954964427E+04  0.00000000000E+00 0.  1.
          2   -1    0    0  501    0  0.00000000000E+00 -0.00000000000E+00 -0.35256421426E+04  0.35256421426E+04  0.00000000000E+00 0. -1.
         23    2    1    2    0    0  0.26118261013E+03  0.19825804247E+04 -0.24785228376E+04  0.31859782081E+04  0.92413145099E+02 0.  0.
         13    1    3    3    0    0  0.16947607188E+03  0.10884492572E+04 -0.13041955089E+04  0.17071525561E+04  0.00000000000E+00 0.  1.
        -13    1    3    3    0    0  0.91706538245E+02  0.89413116756E+03 -0.11743273287E+04  0.14788256520E+04  0.00000000000E+00 0. -1.
         22    1    1    2    0    0 -0.26118261013E+03 -0.19825804247E+04  0.74837713777E+03  0.21351603773E+04  0.00000000000E+00 0.  1.
<mgrwt>
<rscale>  0 0.50320087E+04</rscale>
<asrwt>0</asrwt>
<pdfrwt beam="1">  1        2 0.54240648E+00 0.50320087E+04</pdfrwt>
<pdfrwt beam="2">  1       -2 0.27623023E+00 0.50320087E+04</pdfrwt>
<totfact> 0.25095537E-02</totfact>
</mgrwt>
</event>
<event>
 6    1  0.1614874E-005  0.1012169E+04  0.7818608E-02  0.9295298E-01
         -2   -1    0    0    0  501 -0.00000000000E+00  0.00000000000E+00  0.26162868046E+03  0.26162868046E+03  0.00000000000E+00 0.  1.
          2   -1    0    0  501    0  0.00000000000E+00 -0.00000000000E+00 -0.97895006255E+03  0.97895006255E+03  0.00000000000E+00 0. -1.
         23    2    1    2    0    0  0.28334437010E+03  0.10615275602E+03 -0.85258560401E+03  0.90914421039E+03  0.89936329965E+02 0.  0.
         13    1    3    3    0    0  0.12228330426E+03 -0.44797653439E+00 -0.31368682433E+03  0.33667912163E+03  0.00000000000E+00 0.  1.
        -13    1    3    3    0    0  0.16106106584E+03  0.10660073256E+03 -0.53889877968E+03  0.57246508876E+03  0.00000000000E+00 0. -1.
         22    1    1    2    0    0 -0.28334437010E+03 -0.10615275602E+03  0.13526422192E+03  0.33143453262E+03  0.00000000000E+00 0.  1.
<mgrwt>
<rscale>  0 0.10121688E+04</rscale>
<asrwt>0</asrwt>
<pdfrwt beam="1">  1        2 0.15060770E+00 0.10121688E+04</pdfrwt>
<pdfrwt beam="2">  1       -2 0.40250566E-01 0.10121688E+04</pdfrwt>
<totfact> 0.15137597E+02</totfact>
</mgrwt>
</event>
<event>
 6    1  0.1614874E-005  0.2338335E+04  0.7818608E-02  0.8462958E-01
         -2   -1    0    0    0  501 -0.00000000000E+00  0.00000000000E+00  0.15095116081E+04  0.15095116081E+04  0.00000000000E+00 0. -1.
          2   -1    0    0  501    0  0.00000000000E+00 -0.00000000000E+00 -0.90555938665E+03  0.90555938665E+03  0.00000000000E+00 0.  1.
         23    2    1    2    0    0 -0.79916891612E+03 -0.46557905547E+03 -0.43324263157E+03  0.10253919036E+04  0.91074500733E+02 0.  0.
         13    1    3    3    0    0 -0.44495976748E+03 -0.27517885450E+03 -0.19727482159E+03  0.55913321479E+03  0.00000000000E+00 0. -1.
        -13    1    3    3    0    0 -0.35420914864E+03 -0.19040020097E+03 -0.23596780998E+03  0.46625868877E+03  0.00000000000E+00 0.  1.
         22    1    1    2    0    0  0.79916891612E+03  0.46557905547E+03  0.10371948530E+04  0.13896790912E+04  0.00000000000E+00 0. -1.
<mgrwt>
<rscale>  0 0.23383348E+04</rscale>
<asrwt>0</asrwt>
<pdfrwt beam="1">  1        2 0.13931683E+00 0.23383348E+04</pdfrwt>
<pdfrwt beam="2">  1       -2 0.23223255E+00 0.23383348E+04</pdfrwt>
<totfact> 0.21745916E+00</totfact>
</mgrwt>
</event>
<event>
 6    1  0.1614874E-005  0.3023691E+04  0.7818608E-02  0.8236998E-01
         -1   -1    0    0    0  501 -0.00000000000E+00  0.00000000000E+00  0.11965898894E+04  0.11965898894E+04  0.00000000000E+00 0.  1.
          1   -1    0    0  501    0  0.00000000000E+00 -0.00000000000E+00 -0.19101583518E+04  0.19101583518E+04  0.00000000000E+00 0. -1.
         23    2    1    2    0    0  0.13956414561E+04  0.57363424799E+03 -0.42597253291E+03  0.15706549033E+04  0.92913412101E+02 0.  0.
         11    1    3    3    0    0  0.10674208344E+04  0.45721714255E+03 -0.29074118679E+03  0.11970652409E+04  0.00000000000E+00 0. -1.
        -11    1    3    3    0    0  0.32822062164E+03  0.11641710544E+03 -0.13523134612E+03  0.37358966244E+03  0.00000000000E+00 0.  1.
         22    1    1    2    0    0 -0.13956414561E+04 -0.57363424799E+03 -0.28759592947E+03  0.15360933380E+04  0.00000000000E+00 0.  1.
<mgrwt>
<rscale>  0 0.30236906E+04</rscale>
<asrwt>0</asrwt>
<pdfrwt beam="1">  1        1 0.29387051E+00 0.30236906E+04</pdfrwt>
<pdfrwt beam="2">  1       -1 0.18409075E+00 0.30236906E+04</pdfrwt>
<totfact> 0.56664644E-01</totfact>
</mgrwt>
</event>
<event>
 6    1  0.1614874E-005  0.1403451E+04  0.7818608E-02  0.8951324E-01
          1   -1    0    0  501    0  0.00000000000E+00  0.00000000000E+00  0.10744110692E+04  0.10744110692E+04  0.00000000000E+00 0. -1.
         -1   -1    0    0    0  501 -0.00000000000E+00 -0.00000000000E+00 -0.45831504886E+03  0.45831504886E+03  0.00000000000E+00 0.  1.
         23    2    1    2    0    0 -0.15331837774E+03  0.13000227512E+03 -0.42122071743E+03  0.47611212471E+03  0.94067773541E+02 0.  0.
         11    1    3    3    0    0 -0.33538329791E+02  0.59598669934E+01 -0.15663880679E+03  0.16029989199E+03  0.00000000000E+00 0.  1.
        -11    1    3    3    0    0 -0.11978004794E+03  0.12404240813E+03 -0.26458191064E+03  0.31581223272E+03  0.00000000000E+00 0. -1.
         22    1    1    2    0    0  0.15331837774E+03 -0.13000227512E+03  0.10373167378E+04  0.10566139933E+04  0.00000000000E+00 0. -1.
<mgrwt>
<rscale>  0 0.14034511E+04</rscale>
<asrwt>0</asrwt>
<pdfrwt beam="1">  1        1 0.16529401E+00 0.14034511E+04</pdfrwt>
<pdfrwt beam="2">  1       -1 0.70510008E-01 0.14034511E+04</pdfrwt>
<totfact> 0.26271349E+01</totfact>
</mgrwt>
</event>
<event>
 6    1  0.1614874E-005  0.2155111E+04  0.7818608E-02  0.8537348E-01
          2   -1    0    0  501    0  0.00000000000E+00  0.00000000000E+00  0.29326432677E+04  0.29326432677E+04  0.00000000000E+00 0.  1.
         -2   -1    0    0    0  501 -0.00000000000E+00 -0.00000000000E+00 -0.39593145234E+03  0.39593145234E+03  0.00000000000E+00 0. -1.
         23    2    1    2    0    0  0.17321727315E+03  0.15465974963E+03  0.28927398493E+04  0.29035102274E+04  0.92216828527E+02 0.  0.
         13    1    3    3    0    0  0.12097218187E+03  0.67993834488E+02  0.12554910246E+04  0.12631370247E+04  0.00000000000E+00 0. -1.
        -13    1    3    3    0    0  0.52245091275E+02  0.86665915146E+02  0.16372488246E+04  0.16403732027E+04  0.00000000000E+00 0.  1.
         22    1    1    2    0    0 -0.17321727315E+03 -0.15465974963E+03 -0.35602803395E+03  0.42506449256E+03  0.00000000000E+00 0. -1.
<mgrwt>
<rscale>  0 0.21551109E+04</rscale>
<asrwt>0</asrwt>
<pdfrwt beam="1">  1        2 0.45117587E+00 0.21551109E+04</pdfrwt>
<pdfrwt beam="2">  1       -2 0.60912533E-01 0.21551109E+04</pdfrwt>
<totfact> 0.44189395E+00</totfact>
</mgrwt>
</event>
<event>
 6    1  0.1614874E-005  0.1889429E+04  0.7818608E-02  0.8660136E-01
          1   -1    0    0  501    0  0.00000000000E+00  0.00000000000E+00  0.61018863431E+03  0.61018863431E+03  0.00000000000E+00 0. -1.
         -1   -1    0    0    0  501 -0.00000000000E+00 -0.00000000000E+00 -0.14626385975E+04  0.14626385975E+04  0.00000000000E+00 0.  1.
         23    2    1    2    0    0  0.66684113453E+03  0.54089843295E+03 -0.75741876496E+00  0.86343548233E+03  0.90950783401E+02 0.  0.
         11    1    3    3    0    0  0.29941509353E+03  0.29914218450E+03  0.12160356573E+02  0.42341860971E+03  0.00000000000E+00 0. -1.
        -11    1    3    3    0    0  0.36742604100E+03  0.24175624845E+03 -0.12917775338E+02  0.44001687262E+03  0.00000000000E+00 0.  1.
         22    1    1    2    0    0 -0.66684113453E+03 -0.54089843295E+03 -0.85169254445E+03  0.12093917495E+04  0.00000000000E+00 0.  1.
<mgrwt>
<rscale>  0 0.18894290E+04</rscale>
<asrwt>0</asrwt>
<pdfrwt beam="1">  1        1 0.93875176E-01 0.18894290E+04</pdfrwt>
<pdfrwt beam="2">  1       -1 0.22502132E+00 0.18894290E+04</pdfrwt>
<totfact> 0.31877345E+00</totfact>
</mgrwt>
</event>
<event>
 6    1  0.1614874E-005  0.4491910E+04  0.7818608E-02  0.7912055E-01
         -2   -1    0    0    0  501 -0.00000000000E+00  0.00000000000E+00  0.22581952140E+04  0.22581952140E+04  0.00000000000E+00 0.  1.
          2   -1    0    0  501    0  0.00000000000E+00 -0.00000000000E+00 -0.22337811412E+04  0.22337811412E+04  0.00000000000E+00 0. -1.
         23    2    1    2    0    0  0.35444590279E+03  0.16527888839E+04 -0.14652619503E+04  0.22388723526E+04  0.90630212429E+02 0.  0.
         13    1    3    3    0    0  0.30612548862E+03  0.12929740996E+04 -0.11182220815E+04  0.17366391279E+04  0.00000000000E+00 0. -1.
        -13    1    3    3    0    0  0.48320414170E+02  0.35981478424E+03 -0.34703986886E+03  0.50223322467E+03  0.00000000000E+00 0.  1.
         22    1    1    2    0    0 -0.35444590279E+03 -0.16527888839E+04  0.14896760232E+04  0.22531040026E+04  0.00000000000E+00 0.  1.
<mgrwt>
<rscale>  0 0.44919100E+04</rscale>
<asrwt>0</asrwt>
<pdfrwt beam="1">  1        2 0.34365864E+00 0.44919100E+04</pdfrwt>
<pdfrwt beam="2">  1       -2 0.34741465E+00 0.44919100E+04</pdfrwt>
<totfact> 0.60528045E-02</totfact>
</mgrwt>
</event>
<event>
 6    1  0.1614874E-005  0.7037201E+03  0.7818608E-02  0.9710891E-01
         -1   -1    0    0    0  501 -0.00000000000E+00  0.00000000000E+00  0.21758270404E+03  0.21758270404E+03  0.00000000000E+00 0.  1.
          1   -1    0    0  501    0  0.00000000000E+00 -0.00000000000E+00 -0.56900423858E+03  0.56900423858E+03  0.00000000000E+00 0. -1.
         23    2    1    2    0    0 -0.10521655679E+03  0.32440242768E+03 -0.25612927995E+03  0.43248515967E+03  0.71650166596E+02 0.  0.
         13    1    3    3    0    0 -0.37395909378E+02  0.36428151365E+02 -0.30998614055E+02  0.60715552566E+02  0.00000000000E+00 0. -1.
        -13    1    3    3    0    0 -0.67820647414E+02  0.28797427631E+03 -0.22513066590E+03  0.37176960710E+03  0.00000000000E+00 0.  1.
         22    1    1    2    0    0  0.10521655679E+03 -0.32440242768E+03 -0.95292254578E+02  0.35410178295E+03  0.00000000000E+00 0. -1.
<mgrwt>
<rscale>  0 0.70372006E+03</rscale>
<asrwt>0</asrwt>
<pdfrwt beam="1">  1        1 0.87539113E-01 0.70372006E+03</pdfrwt>
<pdfrwt beam="2">  1       -1 0.33474262E-01 0.70372006E+03</pdfrwt>
<totfact> 0.31429836E+02</totfact>
</mgrwt>
</event>
<event>
 6    1  0.1614874E-005  0.2958990E+04  0.7818608E-02  0.8255539E-01
         -2   -1    0    0    0  501 -0.00000000000E+00  0.00000000000E+00  0.85748647773E+03  0.85748647773E+03  0.00000000000E+00 0.  1.
          2   -1    0    0  501    0  0.00000000000E+00 -0.00000000000E+00 -0.25526996351E+04  0.25526996351E+04  0.00000000000E+00 0. -1.
         23    2    1    2    0    0 -0.37675461587E+02 -0.10375895946E+04  0.36403051083E+03  0.11039996303E+04  0.91023973072E+02 0.  0.
         13    1    3    3    0    0  0.20884391254E+02 -0.60491733931E+03  0.22579142071E+03  0.64602082850E+03  0.00000000000E+00 0.  1.
        -13    1    3    3    0    0 -0.58559852841E+02 -0.43267225529E+03  0.13823909012E+03  0.45797880180E+03  0.00000000000E+00 0. -1.
         22    1    1    2    0    0  0.37675461587E+02  0.10375895946E+04 -0.20592436682E+04  0.23061864825E+04  0.00000000000E+00 0. -1.
<mgrwt>
<rscale>  0 0.29589900E+04</rscale>
<asrwt>0</asrwt>
<pdfrwt beam="1">  1        2 0.39272302E+00 0.29589900E+04</pdfrwt>
<pdfrwt beam="2">  1       -2 0.13192100E+00 0.29589900E+04</pdfrwt>
<totfact> 0.11654508E+00</totfact>
</mgrwt>
</event>
<event>
 6    1  0.2219885E-005  0.4186719E+04  0.7818608E-02  0.7967903E-01
         -1   -1    0    0    0  501 -0.00000000000E+00  0.00000000000E+00  0.18566469701E+04  0.18566469701E+04  0.00000000000E+00 0.  1.
          1   -1    0    0  501    0  0.00000000000E+00 -0.00000000000E+00 -0.23602517891E+04  0.23602517891E+04  0.00000000000E+00 0. -1.
         23    2    1    2    0    0 -0.38420570586E+03 -0.13080830155E+04 -0.18504534926E+04  0.23004706887E+04  0.96395338640E+02 0.  0.
         11    1    3    3    0    0 -0.20010971236E+03 -0.52759797887E+03 -0.79707701229E+03  0.97659371686E+03  0.00000000000E+00 0.  1.
        -11    1    3    3    0    0 -0.18409599350E+03 -0.78048503665E+03 -0.10533764803E+04  0.13238769718E+04  0.00000000000E+00 0. -1.
         22    1    1    2    0    0  0.38420570586E+03  0.13080830155E+04  0.13468486736E+04  0.19164280705E+04  0.00000000000E+00 0.  1.
<mgrwt>
<rscale>  0 0.41867192E+04</rscale>
<asrwt>0</asrwt>
<pdfrwt beam="1">  1        1 0.36311566E+00 0.41867192E+04</pdfrwt>
<pdfrwt beam="2">  1       -1 0.28563800E+00 0.41867192E+04</pdfrwt>
<totfact> 0.53371663E-02</totfact>
</mgrwt>
</event>
<event>
 6    1  0.1614874E-005  0.3226581E+04  0.7818608E-02  0.8181832E-01
          2   -1    0    0  501    0  0.00000000000E+00  0.00000000000E+00  0.26053603685E+04  0.26053603685E+04  0.00000000000E+00 0. -1.
         -2   -1    0    0    0  501 -0.00000000000E+00 -0.00000000000E+00 -0.99898107139E+03  0.99898107139E+03  0.00000000000E+00 0.  1.
         23    2    1    2    0    0  0.59179024484E+03 -0.74205884716E+03  0.22593053949E+04  0.24523086644E+04  0.92140608440E+02 0.  0.
         11    1    3    3    0    0  0.47031182981E+02 -0.49470097875E+02  0.23088883914E+03  0.24076727102E+03  0.00000000000E+00 0.  1.
        -11    1    3    3    0    0  0.54475906185E+03 -0.69258874929E+03  0.20284165558E+04  0.22115413934E+04  0.00000000000E+00 0. -1.
         22    1    1    2    0    0 -0.59179024484E+03  0.74205884716E+03 -0.65292609779E+03  0.11520327754E+04  0.00000000000E+00 0.  1.
<mgrwt>
<rscale>  0 0.32265807E+04</rscale>
<asrwt>0</asrwt>
<pdfrwt beam="1">  1        2 0.40082467E+00 0.32265807E+04</pdfrwt>
<pdfrwt beam="2">  1       -2 0.15368940E+00 0.32265807E+04</pdfrwt>
<totfact> 0.71270741E-01</totfact>
</mgrwt>
</event>
<event>
 6    1  0.1614874E-005  0.9169564E+03  0.7818608E-02  0.9404630E-01
         -1   -1    0    0    0  501 -0.00000000000E+00  0.00000000000E+00  0.76078946073E+03  0.76078946073E+03  0.00000000000E+00 0.  1.
          1   -1    0    0  501    0  0.00000000000E+00 -0.00000000000E+00 -0.27629493704E+03  0.27629493704E+03  0.00000000000E+00 0. -1.
         23    2    1    2    0    0  0.84326273205E+01 -0.43091344643E+03  0.40580449179E+03  0.59896383372E+03  0.91229825365E+02 0.  0.
         11    1    3    3    0    0  0.46291431746E+02 -0.17665093048E+03  0.18716174502E+03  0.26149180999E+03  0.00000000000E+00 0. -1.
        -11    1    3    3    0    0 -0.37858804425E+02 -0.25426251594E+03  0.21864274677E+03  0.33747202373E+03  0.00000000000E+00 0.  1.
         22    1    1    2    0    0 -0.84326273205E+01  0.43091344643E+03  0.78690031902E+02  0.43812056404E+03  0.00000000000E+00 0. -1.
<mgrwt>
<rscale>  0 0.91695644E+03</rscale>
<asrwt>0</asrwt>
<pdfrwt beam="1">  1        1 0.42506914E-01 0.91695644E+03</pdfrwt>
<pdfrwt beam="2">  1       -1 0.11704453E+00 0.91695644E+03</pdfrwt>
<totfact> 0.64706943E+01</totfact>
</mgrwt>
</event>
<event>
 6    1  0.1614874E-005  0.1335347E+04  0.7818608E-02  0.9001995E-01
         -2   -1    0    0    0  501 -0.00000000000E+00  0.00000000000E+00  0.50029553263E+03  0.50029553263E+03  0.00000000000E+00 0.  1.
          2   -1    0    0  501    0  0.00000000000E+00 -0.00000000000E+00 -0.89104883357E+03  0.89104883357E+03  0.00000000000E+00 0. -1.
         23    2    1    2    0    0 -0.61569249853E+03  0.24702946980E+03 -0.14371926683E+03  0.68344138859E+03  0.79599574632E+02 0.  0.
         11    1    3    3    0    0 -0.50830445388E+03  0.22641908671E+03 -0.98454520720E+02  0.56509495955E+03  0.00000000000E+00 0.  1.
        -11    1    3    3    0    0 -0.10738804465E+03  0.20610383085E+02 -0.45264746113E+02  0.11834642904E+03  0.00000000000E+00 0. -1.
         22    1    1    2    0    0  0.61569249853E+03 -0.24702946980E+03 -0.24703403411E+03  0.70790297761E+03  0.00000000000E+00 0. -1.
<mgrwt>
<rscale>  0 0.13353468E+04</rscale>
<asrwt>0</asrwt>
<pdfrwt beam="1">  1        2 0.13708444E+00 0.13353468E+04</pdfrwt>
<pdfrwt beam="2">  1       -2 0.76968544E-01 0.13353468E+04</pdfrwt>
<totfact> 0.43840002E+01</totfact>
</mgrwt>
</event>
<event>
 6    1  0.1614874E-005  0.1137973E+04  0.7818608E-02  0.9168951E-01
          3   -1    0    0  501    0  0.00000000000E+00  0.00000000000E+00  0.20989373708E+03  0.20989373708E+03  0.00000000000E+00 0. -1.
         -3   -1    0    0    0  501 -0.00000000000E+00 -0.00000000000E+00 -0.15424263210E+04  0.15424263210E+04  0.00000000000E+00 0.  1.
         23    2    1    2    0    0 -0.19910519349E+03 -0.38793141610E+03 -0.11738182277E+03  0.46130300397E+03  0.94277820766E+02 0.  0.
         13    1    3    3    0    0 -0.42281784475E+02 -0.21787264564E+02 -0.79125199703E+01  0.48218691064E+02  0.00000000000E+00 0. -1.
        -13    1    3    3    0    0 -0.15682340901E+03 -0.36614415153E+03 -0.10946930280E+03  0.41308431291E+03  0.00000000000E+00 0.  1.
         22    1    1    2    0    0  0.19910519349E+03  0.38793141610E+03 -0.12151507612E+04  0.12910170541E+04  0.00000000000E+00 0. -1.
<mgrwt>
<rscale>  0 0.11379730E+04</rscale>
<asrwt>0</asrwt>
<pdfrwt beam="1">  1        3 0.32291344E-01 0.11379730E+04</pdfrwt>
<pdfrwt beam="2">  1       -3 0.23729636E+00 0.11379730E+04</pdfrwt>
<totfact> 0.21329760E+00</totfact>
</mgrwt>
</event>
<event>
 6    1  0.1614874E-005  0.3653986E+04  0.7818608E-02  0.8078236E-01
         -1   -1    0    0    0  501 -0.00000000000E+00  0.00000000000E+00  0.13476082192E+04  0.13476082192E+04  0.00000000000E+00 0.  1.
          1   -1    0    0  501    0  0.00000000000E+00 -0.00000000000E+00 -0.24769087803E+04  0.24769087803E+04  0.00000000000E+00 0. -1.
         23    2    1    2    0    0 -0.68861901163E+03  0.21794765333E+03 -0.23202681739E+04  0.24316418516E+04  0.86835321980E+02 0.  0.
         13    1    3    3    0    0 -0.15003662720E+03  0.25588595797E+02 -0.58957980922E+03  0.60890895639E+03  0.00000000000E+00 0. -1.
        -13    1    3    3    0    0 -0.53858238444E+03  0.19235905753E+03 -0.17306883646E+04  0.18227328952E+04  0.00000000000E+00 0.  1.
         22    1    1    2    0    0  0.68861901163E+03 -0.21794765333E+03  0.11909676128E+04  0.13928751479E+04  0.00000000000E+00 0.  1.
<mgrwt>
<rscale>  0 0.36539856E+04</rscale>
<asrwt>0</asrwt>
<pdfrwt beam="1">  1        1 0.38106289E+00 0.36539856E+04</pdfrwt>
<pdfrwt beam="2">  1       -1 0.20732434E+00 0.36539856E+04</pdfrwt>
<totfact> 0.15176386E-01</totfact>
</mgrwt>
</event>
<event>
 6    1  0.1614874E-005  0.4043236E+04  0.7818608E-02  0.7995881E-01
         -2   -1    0    0    0  501 -0.00000000000E+00  0.00000000000E+00  0.20138865795E+04  0.20138865795E+04  0.00000000000E+00 0.  1.
          2   -1    0    0  501    0  0.00000000000E+00 -0.00000000000E+00 -0.20293794593E+04  0.20293794593E+04  0.00000000000E+00 0. -1.
         23    2    1    2    0    0  0.10100691535E+04 -0.14564002769E+04  0.96261209313E+03  0.20189066836E+04  0.89558326667E+02 0.  0.
         13    1    3    3    0    0  0.90271668838E+03 -0.12595602809E+04  0.86066614908E+03  0.17726070464E+04  0.00000000000E+00 0. -1.
        -13    1    3    3    0    0  0.10735246507E+03 -0.19683999593E+03  0.10194594404E+03  0.24629963716E+03  0.00000000000E+00 0.  1.
         22    1    1    2    0    0 -0.10100691535E+04  0.14564002769E+04 -0.97810497295E+03  0.20243593553E+04  0.00000000000E+00 0.  1.
<mgrwt>
<rscale>  0 0.40432364E+04</rscale>
<asrwt>0</asrwt>
<pdfrwt beam="1">  1        2 0.31221222E+00 0.40432364E+04</pdfrwt>
<pdfrwt beam="2">  1       -2 0.30982871E+00 0.40432364E+04</pdfrwt>
<totfact> 0.13991882E-01</totfact>
</mgrwt>
</event>
<event>
 6    1  0.1614874E-005  0.3194052E+04  0.7818608E-02  0.8190390E-01
         -2   -1    0    0    0  501 -0.00000000000E+00  0.00000000000E+00  0.19406247132E+04  0.19406247132E+04  0.00000000000E+00 0.  1.
          2   -1    0    0  501    0  0.00000000000E+00 -0.00000000000E+00 -0.13142634517E+04  0.13142634517E+04  0.00000000000E+00 0. -1.
         23    2    1    2    0    0  0.59860300636E+01 -0.13409644553E+04 -0.56832577580E+03  0.14589208434E+04  0.85054905652E+02 0.  0.
         13    1    3    3    0    0 -0.29004188805E+02 -0.82241600770E+03 -0.37588772777E+03  0.90471040481E+03  0.00000000000E+00 0. -1.
        -13    1    3    3    0    0  0.34990218868E+02 -0.51854844756E+03 -0.19243804803E+03  0.55421043856E+03  0.00000000000E+00 0.  1.
         22    1    1    2    0    0 -0.59860300636E+01  0.13409644553E+04  0.11946870373E+04  0.17959673215E+04  0.00000000000E+00 0.  1.
<mgrwt>
<rscale>  0 0.31940521E+04</rscale>
<asrwt>0</asrwt>
<pdfrwt beam="1">  1        2 0.20219438E+00 0.31940521E+04</pdfrwt>
<pdfrwt beam="2">  1       -2 0.29855765E+00 0.31940521E+04</pdfrwt>
<totfact> 0.44313743E-01</totfact>
</mgrwt>
</event>
<event>
 6    1  0.1614874E-005  0.2397360E+04  0.7818608E-02  0.8440493E-01
         -2   -1    0    0    0  501 -0.00000000000E+00  0.00000000000E+00  0.50385395462E+03  0.50385395462E+03  0.00000000000E+00 0.  1.
          2   -1    0    0  501    0  0.00000000000E+00 -0.00000000000E+00 -0.28516875104E+04  0.28516875104E+04  0.00000000000E+00 0. -1.
         23    2    1    2    0    0 -0.51119679025E+03 -0.77651763826E+03 -0.12219011376E+03  0.94353181911E+03  0.10497651588E+03 0.  0.
         13    1    3    3    0    0 -0.25550305920E+03 -0.42759144750E+03 -0.17299837436E+02  0.49841302513E+03  0.00000000000E+00 0. -1.
        -13    1    3    3    0    0 -0.25569373105E+03 -0.34892619076E+03 -0.10489027632E+03  0.44511879399E+03  0.00000000000E+00 0.  1.
         22    1    1    2    0    0  0.51119679025E+03  0.77651763826E+03 -0.22256434420E+04  0.24120096459E+04  0.00000000000E+00 0. -1.
<mgrwt>
<rscale>  0 0.23973602E+04</rscale>
<asrwt>0</asrwt>
<pdfrwt beam="1">  1        2 0.43872115E+00 0.23973602E+04</pdfrwt>
<pdfrwt beam="2">  1       -2 0.77515993E-01 0.23973602E+04</pdfrwt>
<totfact> 0.28709122E+00</totfact>
</mgrwt>
</event>
<event>
 6    1  0.1614874E-005  0.1217166E+04  0.7818608E-02  0.9097962E-01
         -1   -1    0    0    0  501 -0.00000000000E+00  0.00000000000E+00  0.38711999579E+03  0.38711999579E+03  0.00000000000E+00 0.  1.
          1   -1    0    0  501    0  0.00000000000E+00 -0.00000000000E+00 -0.95674058513E+03  0.95674058513E+03  0.00000000000E+00 0. -1.
         23    2    1    2    0    0 -0.27754367708E+03  0.52272940634E+02 -0.87737946738E+03  0.92615436835E+03  0.90577211356E+02 0.  0.
         13    1    3    3    0    0 -0.17107968686E+03  0.68860984698E+02 -0.47340829122E+03  0.50806053248E+03  0.00000000000E+00 0. -1.
        -13    1    3    3    0    0 -0.10646399022E+03 -0.16588044065E+02 -0.40397117616E+03  0.41809383587E+03  0.00000000000E+00 0.  1.
         22    1    1    2    0    0  0.27754367708E+03 -0.52272940634E+02  0.30775887803E+03  0.41770621257E+03  0.00000000000E+00 0.  1.
<mgrwt>
<rscale>  0 0.12171662E+04</rscale>
<asrwt>0</asrwt>
<pdfrwt beam="1">  1        1 0.14719086E+00 0.12171662E+04</pdfrwt>
<pdfrwt beam="2">  1       -1 0.59556924E-01 0.12171662E+04</pdfrwt>
<totfact> 0.46252296E+01</totfact>
</mgrwt>
</event>
<event>
 6    1  0.1614874E-005  0.2956914E+04  0.7818608E-02  0.8256143E-01
         -2   -1    0    0    0  501 -0.00000000000E+00  0.00000000000E+00  0.11076919621E+04  0.11076919621E+04  0.00000000000E+00 0.  1.
          2   -1    0    0  501    0  0.00000000000E+00 -0.00000000000E+00 -0.19733233598E+04  0.19733233598E+04  0.00000000000E+00 0. -1.
         23    2    1    2    0    0 -0.12352768876E+04  0.79203858234E+03 -0.25638747994E+03  0.14921754130E+04  0.87285843118E+02 0.  0.
         13    1    3    3    0    0 -0.95784984626E+03  0.63668546075E+03 -0.16965163989E+03  0.11625946769E+04  0.00000000000E+00 0.  1.
        -13    1    3    3    0    0 -0.27742704131E+03  0.15535312159E+03 -0.86735840053E+02  0.32958073607E+03  0.00000000000E+00 0. -1.
         22    1    1    2    0    0  0.12352768876E+04 -0.79203858234E+03 -0.60924391778E+03  0.15888399089E+04  0.00000000000E+00 0. -1.
<mgrwt>
<rscale>  0 0.29569135E+04</rscale>
<asrwt>0</asrwt>
<pdfrwt beam="1">  1        2 0.30358821E+00 0.29569135E+04</pdfrwt>
<pdfrwt beam="2">  1       -2 0.17041415E+00 0.29569135E+04</pdfrwt>
<totfact> 0.12573589E+00</totfact>
</mgrwt>
</event>
<event>
 6    1  0.1614874E-005  0.2481234E+04  0.7818608E-02  0.8409702E-01
          2   -1    0    0  501    0  0.00000000000E+00  0.00000000000E+00  0.93103283894E+03  0.93103283894E+03  0.00000000000E+00 0.  1.
         -2   -1    0    0    0  501 -0.00000000000E+00 -0.00000000000E+00 -0.16531434907E+04  0.16531434907E+04  0.00000000000E+00 0. -1.
         23    2    1    2    0    0  0.26068854645E+03 -0.11725274941E+04 -0.67759589162E+03  0.13821942971E+04  0.92442630865E+02 0.  0.
         13    1    3    3    0    0  0.94253000032E+02 -0.62576636337E+03 -0.33932364472E+03  0.71805828831E+03  0.00000000000E+00 0.  1.
        -13    1    3    3    0    0  0.16643554642E+03 -0.54676113071E+03 -0.33827224689E+03  0.66413600880E+03  0.00000000000E+00 0. -1.
         22    1    1    2    0    0 -0.26068854645E+03  0.11725274941E+04 -0.44514760131E+02  0.12019820325E+04  0.00000000000E+00 0.  1.
<mgrwt>
<rscale>  0 0.24812343E+04</rscale>
<asrwt>0</asrwt>
<pdfrwt beam="1">  1        2 0.14323582E+00 0.24812343E+04</pdfrwt>
<pdfrwt beam="2">  1       -2 0.25432977E+00 0.24812343E+04</pdfrwt>
<totfact> 0.15086937E+00</totfact>
</mgrwt>
</event>
<event>
 6    1  0.1614874E-005  0.1014401E+04  0.7818608E-02  0.9292889E-01
          1   -1    0    0  501    0  0.00000000000E+00  0.00000000000E+00  0.69360866293E+03  0.69360866293E+03  0.00000000000E+00 0. -1.
         -1   -1    0    0    0  501 -0.00000000000E+00 -0.00000000000E+00 -0.37088980941E+03  0.37088980941E+03  0.00000000000E+00 0.  1.
         23    2    1    2    0    0 -0.69713134459E+02  0.46250806614E+03 -0.32040850251E+02  0.47744815099E+03  0.90313279421E+02 0.  0.
         13    1    3    3    0    0 -0.45210353084E+02  0.35039585288E+03 -0.62337169410E+02  0.35875779076E+03  0.00000000000E+00 0. -1.
        -13    1    3    3    0    0 -0.24502781375E+02  0.11211221327E+03  0.30296319159E+02  0.11869036024E+03  0.00000000000E+00 0.  1.
         22    1    1    2    0    0  0.69713134459E+02 -0.46250806614E+03  0.35475970377E+03  0.58705032134E+03  0.00000000000E+00 0. -1.
<mgrwt>
<rscale>  0 0.10144011E+04</rscale>
<asrwt>0</asrwt>
<pdfrwt beam="1">  1        1 0.10670903E+00 0.10144011E+04</pdfrwt>
<pdfrwt beam="2">  1       -1 0.57059971E-01 0.10144011E+04</pdfrwt>
<totfact> 0.86068055E+01</totfact>
</mgrwt>
</event>
<event>
 6    1  0.1614874E-005  0.3839276E+04  0.7818608E-02  0.8037779E-01
         -2   -1    0    0    0  501 -0.00000000000E+00  0.00000000000E+00  0.18836856890E+04  0.18836856890E+04  0.00000000000E+00 0.  1.
          2   -1    0    0  501    0  0.00000000000E+00 -0.00000000000E+00 -0.19562764012E+04  0.19562764012E+04  0.00000000000E+00 0. -1.
         23    2    1    2    0    0  0.92640791793E+03 -0.59270251861E+02 -0.17159379503E+04  0.19525472609E+04  0.79076947872E+02 0.  0.
         11    1    3    3    0    0  0.43132261953E+03  0.10702926428E+02 -0.77453697553E+03  0.88660097068E+03  0.00000000000E+00 0. -1.
        -11    1    3    3    0    0  0.49508529840E+03 -0.69973178289E+02 -0.94140097476E+03  0.10659462902E+04  0.00000000000E+00 0.  1.
         22    1    1    2    0    0 -0.92640791793E+03  0.59270251861E+02  0.16433472380E+04  0.18874148293E+04  0.00000000000E+00 0.  1.
<mgrwt>
<rscale>  0 0.38392759E+04</rscale>
<asrwt>0</asrwt>
<pdfrwt beam="1">  1        2 0.30096560E+00 0.38392759E+04</pdfrwt>
<pdfrwt beam="2">  1       -2 0.28979780E+00 0.38392759E+04</pdfrwt>
<totfact> 0.20723411E-01</totfact>
</mgrwt>
</event>
<event>
 6    1  0.1914405E-005  0.2028522E+04  0.7818608E-02  0.8593400E-01
         -1   -1    0    0    0  501 -0.00000000000E+00  0.00000000000E+00  0.66656508705E+03  0.66656508705E+03  0.00000000000E+00 0.  1.
          1   -1    0    0  501    0  0.00000000000E+00 -0.00000000000E+00 -0.15433238847E+04  0.15433238847E+04  0.00000000000E+00 0. -1.
         23    2    1    2    0    0  0.59555507136E+03 -0.48537885394E+02  0.45076269848E+03  0.75408847304E+03  0.91764075154E+02 0.  0.
         13    1    3    3    0    0  0.30826732701E+03 -0.69879568443E+02  0.24894068868E+03  0.40234731945E+03  0.00000000000E+00 0. -1.
        -13    1    3    3    0    0  0.28728774435E+03  0.21341683049E+02  0.20182200980E+03  0.35174115359E+03  0.00000000000E+00 0.  1.
         22    1    1    2    0    0 -0.59555507136E+03  0.48537885394E+02 -0.13275214961E+04  0.14558004987E+04  0.00000000000E+00 0. -1.
<mgrwt>
<rscale>  0 0.20285224E+04</rscale>
<asrwt>0</asrwt>
<pdfrwt beam="1">  1        1 0.23743444E+00 0.20285224E+04</pdfrwt>
<pdfrwt beam="2">  1       -1 0.10254848E+00 0.20285224E+04</pdfrwt>
<totfact> 0.50809781E+00</totfact>
</mgrwt>
</event>
<event>
 6    1  0.1614874E-005  0.1594476E+04  0.7818608E-02  0.8823949E-01
         -2   -1    0    0    0  501 -0.00000000000E+00  0.00000000000E+00  0.51319269174E+03  0.51319269174E+03  0.00000000000E+00 0. -1.
          2   -1    0    0  501    0  0.00000000000E+00 -0.00000000000E+00 -0.12384992962E+04  0.12384992962E+04  0.00000000000E+00 0.  1.
         23    2    1    2    0    0 -0.17705340477E+03  0.34954004617E+03 -0.11234428189E+04  0.11930878372E+04  0.88366667063E+02 0.  0.
         11    1    3    3    0    0 -0.15546390541E+03  0.24716630505E+03 -0.73708305096E+03  0.79281248241E+03  0.00000000000E+00 0. -1.
        -11    1    3    3    0    0 -0.21589499365E+02  0.10237374112E+03 -0.38635976794E+03  0.40027535477E+03  0.00000000000E+00 0.  1.
         22    1    1    2    0    0  0.17705340477E+03 -0.34954004617E+03  0.39813621443E+03  0.55860415077E+03  0.00000000000E+00 0. -1.
<mgrwt>
<rscale>  0 0.15944765E+04</rscale>
<asrwt>0</asrwt>
<pdfrwt beam="1">  1        2 0.19053835E+00 0.15944765E+04</pdfrwt>
<pdfrwt beam="2">  1       -2 0.78952723E-01 0.15944765E+04</pdfrwt>
<totfact> 0.24544700E+01</totfact>
</mgrwt>
</event>
<event>
 6    1  0.1614874E-005  0.1424062E+04  0.7818608E-02  0.8936583E-01
          1   -1    0    0  501    0  0.00000000000E+00  0.00000000000E+00  0.19685257911E+04  0.19685257911E+04  0.00000000000E+00 0. -1.
         -1   -1    0    0    0  501 -0.00000000000E+00 -0.00000000000E+00 -0.25754714892E+03  0.25754714892E+03  0.00000000000E+00 0.  1.
         23    2    1    2    0    0  0.39683452446E+03  0.40912478956E+03  0.15203011569E+04  0.16250582675E+04  0.68103096425E+02 0.  0.
         11    1    3    3    0    0  0.20911897717E+03  0.17907291198E+03  0.79563972044E+03  0.84192661150E+03  0.00000000000E+00 0. -1.
        -11    1    3    3    0    0  0.18771554729E+03  0.23005187758E+03  0.72466143650E+03  0.78313165600E+03  0.00000000000E+00 0.  1.
         22    1    1    2    0    0 -0.39683452446E+03 -0.40912478956E+03  0.19067748526E+03  0.60101467255E+03  0.00000000000E+00 0.  1.
<mgrwt>
<rscale>  0 0.14240621E+04</rscale>
<asrwt>0</asrwt>
<pdfrwt beam="1">  1        1 0.30285011E+00 0.14240621E+04</pdfrwt>
<pdfrwt beam="2">  1       -1 0.39622640E-01 0.14240621E+04</pdfrwt>
<totfact> 0.18894793E+01</totfact>
</mgrwt>
</event>
<event>
 6    1  0.1614874E-005  0.1477005E+04  0.7818608E-02  0.8899890E-01
         -1   -1    0    0    0  501 -0.00000000000E+00  0.00000000000E+00  0.35174468951E+03  0.35174468951E+03  0.00000000000E+00 0.  1.
          1   -1    0    0  501    0  0.00000000000E+00 -0.00000000000E+00 -0.15505168655E+04  0.15505168655E+04  0.00000000000E+00 0. -1.
         23    2    1    2    0    0  0.36059520547E+03  0.20091999394E+03 -0.13856822582E+04  0.14491245724E+04  0.97205758193E+02 0.  0.
         11    1    3    3    0    0  0.72844132742E+02  0.79896517009E+02 -0.27764190011E+03  0.29795091173E+03  0.00000000000E+00 0. -1.
        -11    1    3    3    0    0  0.28775107273E+03  0.12102347693E+03 -0.11080403581E+04  0.11511736607E+04  0.00000000000E+00 0.  1.
         22    1    1    2    0    0 -0.36059520547E+03 -0.20091999394E+03  0.18691008223E+03  0.45313698261E+03  0.00000000000E+00 0.  1.
<mgrwt>
<rscale>  0 0.14770052E+04</rscale>
<asrwt>0</asrwt>
<pdfrwt beam="1">  1        1 0.23854106E+00 0.14770052E+04</pdfrwt>
<pdfrwt beam="2">  1       -1 0.54114568E-01 0.14770052E+04</pdfrwt>
<totfact> 0.20167801E+01</totfact>
</mgrwt>
</event>
<event>
 6    1  0.1614874E-005  0.1375951E+04  0.7818608E-02  0.8971413E-01
         -2   -1    0    0    0  501 -0.00000000000E+00  0.00000000000E+00  0.32759359791E+03  0.32759359791E+03  0.00000000000E+00 0.  1.
          2   -1    0    0  501    0  0.00000000000E+00 -0.00000000000E+00 -0.14448091929E+04  0.14448091929E+04  0.00000000000E+00 0. -1.
         23    2    1    2    0    0 -0.59474686761E+03  0.18673688396E+03 -0.92664583416E+03  0.11205505575E+04  0.91468844593E+02 0.  0.
         11    1    3    3    0    0 -0.41273325808E+03  0.17297256730E+03 -0.65937305925E+03  0.79689464965E+03  0.00000000000E+00 0. -1.
        -11    1    3    3    0    0 -0.18201360953E+03  0.13764316654E+02 -0.26727277491E+03  0.32365590783E+03  0.00000000000E+00 0.  1.
         22    1    1    2    0    0  0.59474686761E+03 -0.18673688396E+03 -0.19056976084E+03  0.65185223334E+03  0.00000000000E+00 0.  1.
<mgrwt>
<rscale>  0 0.13759509E+04</rscale>
<asrwt>0</asrwt>
<pdfrwt beam="1">  1        2 0.22227834E+00 0.13759509E+04</pdfrwt>
<pdfrwt beam="2">  1       -2 0.50399015E-01 0.13759509E+04</pdfrwt>
<totfact> 0.49512057E+01</totfact>
</mgrwt>
</event>
<event>
 6    1  0.1614874E-005  0.1624676E+04  0.7818608E-02  0.8805530E-01
         -2   -1    0    0    0  501 -0.00000000000E+00  0.00000000000E+00  0.10787698463E+04  0.10787698463E+04  0.00000000000E+00 0.  1.
          2   -1    0    0  501    0  0.00000000000E+00 -0.00000000000E+00 -0.61170911112E+03  0.61170911112E+03  0.00000000000E+00 0. -1.
         23    2    1    2    0    0  0.49086658414E+03 -0.47753505356E+03 -0.21382087132E+03  0.72477222508E+03  0.10288674567E+03 0.  0.
         13    1    3    3    0    0  0.38389882722E+03 -0.34181871269E+03 -0.11881878814E+03  0.52757582043E+03  0.00000000000E+00 0. -1.
        -13    1    3    3    0    0  0.10696775691E+03 -0.13571634087E+03 -0.95002083180E+02  0.19719640465E+03  0.00000000000E+00 0.  1.
         22    1    1    2    0    0 -0.49086658414E+03  0.47753505356E+03  0.68088160648E+03  0.96570673232E+03  0.00000000000E+00 0.  1.
<mgrwt>
<rscale>  0 0.16246764E+04</rscale>
<asrwt>0</asrwt>
<pdfrwt beam="1">  1        2 0.94109094E-01 0.16246764E+04</pdfrwt>
<pdfrwt beam="2">  1       -2 0.16596459E+00 0.16246764E+04</pdfrwt>
<totfact> 0.10554718E+01</totfact>
</mgrwt>
</event>
<event>
 6    1  0.1614874E-005  0.2711907E+04  0.7818608E-02  0.8331152E-01
          2   -1    0    0  501    0  0.00000000000E+00  0.00000000000E+00  0.87266281384E+03  0.87266281384E+03  0.00000000000E+00 0. -1.
         -2   -1    0    0    0  501 -0.00000000000E+00 -0.00000000000E+00 -0.21068966453E+04  0.21068966453E+04  0.00000000000E+00 0.  1.
         23    2    1    2    0    0 -0.76646631779E+03  0.10574176013E+04 -0.10120321266E+04  0.16548043129E+04  0.92551008199E+02 0.  0.
         11    1    3    3    0    0 -0.15987864388E+03  0.17245624997E+03 -0.20978300356E+03  0.31513687107E+03  0.00000000000E+00 0. -1.
        -11    1    3    3    0    0 -0.60658767391E+03  0.88496135130E+03 -0.80224912301E+03  0.13396674419E+04  0.00000000000E+00 0.  1.
         22    1    1    2    0    0  0.76646631779E+03 -0.10574176013E+04 -0.22220170492E+03  0.13247551462E+04  0.00000000000E+00 0.  1.
<mgrwt>
<rscale>  0 0.27119073E+04</rscale>
<asrwt>0</asrwt>
<pdfrwt beam="1">  1        2 0.13425582E+00 0.27119073E+04</pdfrwt>
<pdfrwt beam="2">  1       -2 0.32413794E+00 0.27119073E+04</pdfrwt>
<totfact> 0.60563223E-01</totfact>
</mgrwt>
</event>
<event>
 6    1  0.1614874E-005  0.1781799E+04  0.7818608E-02  0.8716039E-01
         -2   -1    0    0    0  501 -0.00000000000E+00  0.00000000000E+00  0.16830715525E+04  0.16830715525E+04  0.00000000000E+00 0.  1.
          2   -1    0    0  501    0  0.00000000000E+00 -0.00000000000E+00 -0.47157961428E+03  0.47157961428E+03  0.00000000000E+00 0. -1.
         23    2    1    2    0    0  0.10854824328E+03 -0.63627323915E+03  0.13457606650E+04  0.14953678839E+04  0.91798610518E+02 0.  0.
         13    1    3    3    0    0  0.12172946224E+03 -0.49935558889E+03  0.10389144617E+04  0.11591019476E+04  0.00000000000E+00 0.  1.
        -13    1    3    3    0    0 -0.13181218958E+02 -0.13691765025E+03  0.30684620326E+03  0.33626593634E+03  0.00000000000E+00 0. -1.
         22    1    1    2    0    0 -0.10854824328E+03  0.63627323915E+03 -0.13426872682E+03  0.65928328280E+03  0.00000000000E+00 0. -1.
<mgrwt>
<rscale>  0 0.17817994E+04</rscale>
<asrwt>0</asrwt>
<pdfrwt beam="1">  1        2 0.72550711E-01 0.17817994E+04</pdfrwt>
<pdfrwt beam="2">  1       -2 0.25893408E+00 0.17817994E+04</pdfrwt>
<totfact> 0.35296595E+00</totfact>
</mgrwt>
</event>
<event>
 6    1  0.1614874E-005  0.2989630E+04  0.7818608E-02  0.8246698E-01
          1   -1    0    0  501    0  0.00000000000E+00  0.00000000000E+00  0.16571550604E+04  0.16571550604E+04  0.00000000000E+00 0. -1.
         -1   -1    0    0    0  501 -0.00000000000E+00 -0.00000000000E+00 -0.13483779288E+04  0.13483779288E+04  0.00000000000E+00 0.  1.
         23    2    1    2    0    0  0.36343090545E+03  0.13991731814E+04  0.53137627411E+03  0.15428922292E+04  0.91586416210E+02 0.  0.
         11    1    3    3    0    0  0.12768292863E+03  0.54105573747E+03  0.15896423062E+03  0.57819881349E+03  0.00000000000E+00 0.  1.
        -11    1    3    3    0    0  0.23574797682E+03  0.85811744392E+03  0.37241204349E+03  0.96469341569E+03  0.00000000000E+00 0. -1.
         22    1    1    2    0    0 -0.36343090545E+03 -0.13991731814E+04 -0.22259914246E+03  0.14626407600E+04  0.00000000000E+00 0.  1.
<mgrwt>
<rscale>  0 0.29896296E+04</rscale>
<asrwt>0</asrwt>
<pdfrwt beam="1">  1        1 0.25494693E+00 0.29896296E+04</pdfrwt>
<pdfrwt beam="2">  1       -1 0.20744276E+00 0.29896296E+04</pdfrwt>
<totfact> 0.58118017E-01</totfact>
</mgrwt>
</event>
<event>
 6    1  0.1614874E-005  0.1294217E+04  0.7818608E-02  0.9034164E-01
         -2   -1    0    0    0  501 -0.00000000000E+00  0.00000000000E+00  0.12488215865E+03  0.12488215865E+03  0.00000000000E+00 0.  1.
          2   -1    0    0  501    0  0.00000000000E+00 -0.00000000000E+00 -0.33531561051E+04  0.33531561051E+04  0.00000000000E+00 0. -1.
         23    2    1    2    0    0 -0.54675851226E+03  0.26004612681E+03 -0.10345156221E+04  0.12022648910E+04  0.93002348321E+02 0.  0.
         13    1    3    3    0    0 -0.33302010536E+03  0.19501601290E+03 -0.59441977347E+03  0.70870903970E+03  0.00000000000E+00 0. -1.
        -13    1    3    3    0    0 -0.21373840690E+03  0.65030113911E+02 -0.44009584866E+03  0.49355585126E+03  0.00000000000E+00 0.  1.
         22    1    1    2    0    0  0.54675851226E+03 -0.26004612681E+03 -0.21937583243E+04  0.22757733728E+04  0.00000000000E+00 0. -1.
<mgrwt>
<rscale>  0 0.12942169E+04</rscale>
<asrwt>0</asrwt>
<pdfrwt beam="1">  1        2 0.51587013E+00 0.12942169E+04</pdfrwt>
<pdfrwt beam="2">  1       -2 0.19212641E-01 0.12942169E+04</pdfrwt>
<totfact> 0.23492505E+01</totfact>
</mgrwt>
</event>
<event>
 6    1  0.1614874E-005  0.3743747E+04  0.7818608E-02  0.8058335E-01
         -2   -1    0    0    0  501 -0.00000000000E+00  0.00000000000E+00  0.13185198864E+04  0.13185198864E+04  0.00000000000E+00 0.  1.
          2   -1    0    0  501    0  0.00000000000E+00 -0.00000000000E+00 -0.26574577434E+04  0.26574577434E+04  0.00000000000E+00 0. -1.
         23    2    1    2    0    0  0.11594438632E+04 -0.84378660425E+03  0.60601249749E+03  0.15595509732E+04  0.93070862435E+02 0.  0.
         11    1    3    3    0    0  0.39592626922E+03 -0.27365752306E+03  0.15777513749E+03  0.50649683572E+03  0.00000000000E+00 0. -1.
        -11    1    3    3    0    0  0.76351759396E+03 -0.57012908118E+03  0.44823736000E+03  0.10530541374E+04  0.00000000000E+00 0.  1.
         22    1    1    2    0    0 -0.11594438632E+04  0.84378660425E+03 -0.19449503545E+04  0.24164266566E+04  0.00000000000E+00 0. -1.
<mgrwt>
<rscale>  0 0.37437473E+04</rscale>
<asrwt>0</asrwt>
<pdfrwt beam="1">  1        2 0.40883965E+00 0.37437473E+04</pdfrwt>
<pdfrwt beam="2">  1       -2 0.20284922E+00 0.37437473E+04</pdfrwt>
<totfact> 0.28880849E-01</totfact>
</mgrwt>
</event>
<event>
 6    1  0.1614874E-005  0.2025948E+04  0.7818608E-02  0.8594584E-01
          1   -1    0    0  501    0  0.00000000000E+00  0.00000000000E+00  0.95016217787E+03  0.95016217787E+03  0.00000000000E+00 0. -1.
         -1   -1    0    0    0  501 -0.00000000000E+00 -0.00000000000E+00 -0.10799382058E+04  0.10799382058E+04  0.00000000000E+00 0.  1.
         23    2    1    2    0    0 -0.72973856219E+03  0.29593702055E+03 -0.70041751443E+03  0.10576144993E+04  0.88694111016E+02 0.  0.
         13    1    3    3    0    0 -0.37847121637E+03  0.20080791886E+03 -0.38606256537E+03  0.57672227829E+03  0.00000000000E+00 0.  1.
        -13    1    3    3    0    0 -0.35126734582E+03  0.95129101690E+02 -0.31435494906E+03  0.48089222101E+03  0.00000000000E+00 0. -1.
         22    1    1    2    0    0  0.72973856219E+03 -0.29593702055E+03  0.57064148647E+03  0.97248588440E+03  0.00000000000E+00 0. -1.
<mgrwt>
<rscale>  0 0.20259481E+04</rscale>
<asrwt>0</asrwt>
<pdfrwt beam="1">  1        1 0.14617880E+00 0.20259481E+04</pdfrwt>
<pdfrwt beam="2">  1       -1 0.16614434E+00 0.20259481E+04</pdfrwt>
<totfact> 0.40301882E+00</totfact>
</mgrwt>
</event>
<event>
 6    1  0.1614874E-005  0.4001237E+04  0.7818608E-02  0.8004297E-01
          2   -1    0    0  501    0  0.00000000000E+00  0.00000000000E+00  0.10093265567E+04  0.10093265567E+04  0.00000000000E+00 0.  1.
         -2   -1    0    0    0  501 -0.00000000000E+00 -0.00000000000E+00 -0.39654900687E+04  0.39654900687E+04  0.00000000000E+00 0. -1.
         23    2    1    2    0    0  0.15250989362E+03 -0.68918921298E+03 -0.38049003723E+04  0.38709165859E+04  0.92126722448E+02 0.  0.
         13    1    3    3    0    0  0.49800297687E+02 -0.81575666243E+02 -0.52500923218E+03  0.53363784802E+03  0.00000000000E+00 0. -1.
        -13    1    3    3    0    0  0.10270959594E+03 -0.60761354674E+03 -0.32798911402E+04  0.33372787379E+04  0.00000000000E+00 0.  1.
         22    1    1    2    0    0 -0.15250989362E+03  0.68918921298E+03  0.84873686030E+03  0.11039000394E+04  0.00000000000E+00 0.  1.
<mgrwt>
<rscale>  0 0.40012370E+04</rscale>
<asrwt>0</asrwt>
<pdfrwt beam="1">  1        2 0.15528101E+00 0.40012370E+04</pdfrwt>
<pdfrwt beam="2">  1       -2 0.61007541E+00 0.40012370E+04</pdfrwt>
<totfact> 0.90854381E-03</totfact>
</mgrwt>
</event>
<event>
 6    1  0.1614874E-005  0.1484223E+04  0.7818608E-02  0.8895013E-01
         -2   -1    0    0    0  501 -0.00000000000E+00  0.00000000000E+00  0.24602498166E+03  0.24602498166E+03  0.00000000000E+00 0.  1.
          2   -1    0    0  501    0  0.00000000000E+00 -0.00000000000E+00 -0.22385105804E+04  0.22385105804E+04  0.00000000000E+00 0. -1.
         23    2    1    2    0    0 -0.14864353918E+03  0.72244821852E+03 -0.10803491767E+04  0.13114971216E+04  0.94042683936E+02 0.  0.
         11    1    3    3    0    0 -0.12537271505E+03  0.42300918738E+03 -0.68957568249E+03  0.81863893883E+03  0.00000000000E+00 0.  1.
        -11    1    3    3    0    0 -0.23270824126E+02  0.29943903114E+03 -0.39077349417E+03  0.49285818282E+03  0.00000000000E+00 0. -1.
         22    1    1    2    0    0  0.14864353918E+03 -0.72244821852E+03 -0.91213642205E+03  0.11730384404E+04  0.00000000000E+00 0.  1.
<mgrwt>
<rscale>  0 0.14842231E+04</rscale>
<asrwt>0</asrwt>
<pdfrwt beam="1">  1        2 0.34438623E+00 0.14842231E+04</pdfrwt>
<pdfrwt beam="2">  1       -2 0.37849999E-01 0.14842231E+04</pdfrwt>
<totfact> 0.31341809E+01</totfact>
</mgrwt>
</event>
<event>
 6    1  0.1614874E-005  0.2380431E+04  0.7818608E-02  0.8446867E-01
          1   -1    0    0  501    0  0.00000000000E+00  0.00000000000E+00  0.14163809255E+04  0.14163809255E+04  0.00000000000E+00 0. -1.
         -1   -1    0    0    0  501 -0.00000000000E+00 -0.00000000000E+00 -0.10001635173E+04  0.10001635173E+04  0.00000000000E+00 0.  1.
         23    2    1    2    0    0  0.53756863301E+03  0.42756937172E+03  0.11928395812E+04  0.13797524664E+04  0.95157759081E+02 0.  0.
         13    1    3    3    0    0  0.22363574088E+03  0.20730149674E+03  0.61147527275E+03  0.68329266375E+03  0.00000000000E+00 0.  1.
        -13    1    3    3    0    0  0.31393289213E+03  0.22026787499E+03  0.58136430846E+03  0.69645980262E+03  0.00000000000E+00 0. -1.
         22    1    1    2    0    0 -0.53756863301E+03 -0.42756937172E+03 -0.77662217302E+03  0.10367919765E+04  0.00000000000E+00 0.  1.
<mgrwt>
<rscale>  0 0.23804307E+04</rscale>
<asrwt>0</asrwt>
<pdfrwt beam="1">  1        1 0.21790476E+00 0.23804307E+04</pdfrwt>
<pdfrwt beam="2">  1       -1 0.15387131E+00 0.23804307E+04</pdfrwt>
<totfact> 0.21867139E+00</totfact>
</mgrwt>
</event>
<event>
 6    1  0.1614874E-005  0.3145176E+04  0.7818608E-02  0.8203448E-01
          1   -1    0    0  501    0  0.00000000000E+00  0.00000000000E+00  0.52788908797E+03  0.52788908797E+03  0.00000000000E+00 0. -1.
         -1   -1    0    0    0  501 -0.00000000000E+00 -0.00000000000E+00 -0.46847580892E+04  0.46847580892E+04  0.00000000000E+00 0.  1.
         23    2    1    2    0    0  0.12877212850E+04  0.13017501400E+03 -0.35566702618E+04  0.37859691585E+04  0.92127497449E+02 0.  0.
         11    1    3    3    0    0  0.59406409033E+03  0.53371879127E+02 -0.15070732813E+04  0.16208117029E+04  0.00000000000E+00 0. -1.
        -11    1    3    3    0    0  0.69365719469E+03  0.76803134870E+02 -0.20495969804E+04  0.21651574556E+04  0.00000000000E+00 0.  1.
         22    1    1    2    0    0 -0.12877212850E+04 -0.13017501400E+03 -0.60019873942E+03  0.14266780187E+04  0.00000000000E+00 0. -1.
<mgrwt>
<rscale>  0 0.31451758E+04</rscale>
<asrwt>0</asrwt>
<pdfrwt beam="1">  1        1 0.81213704E-01 0.31451758E+04</pdfrwt>
<pdfrwt beam="2">  1       -1 0.72073203E+00 0.31451758E+04</pdfrwt>
<totfact> 0.57844396E-03</totfact>
</mgrwt>
</event>
<event>
 6    1  0.1614874E-005  0.3550172E+04  0.7818608E-02  0.8102002E-01
         -2   -1    0    0    0  501 -0.00000000000E+00  0.00000000000E+00  0.23835368812E+04  0.23835368812E+04  0.00000000000E+00 0.  1.
          2   -1    0    0  501    0  0.00000000000E+00 -0.00000000000E+00 -0.13219560227E+04  0.13219560227E+04  0.00000000000E+00 0. -1.
         23    2    1    2    0    0 -0.15701746587E+04  0.11993993866E+03  0.13835305849E+04  0.20981703867E+04  0.91258120990E+02 0.  0.
         11    1    3    3    0    0 -0.79598967927E+02  0.11338438959E+02  0.46611141368E+02  0.92936292118E+02  0.00000000000E+00 0. -1.
        -11    1    3    3    0    0 -0.14905756908E+04  0.10860149970E+03  0.13369194435E+04  0.20052340946E+04  0.00000000000E+00 0.  1.
         22    1    1    2    0    0  0.15701746587E+04 -0.11993993866E+03 -0.32194972637E+03  0.16073225171E+04  0.00000000000E+00 0. -1.
<mgrwt>
<rscale>  0 0.35501724E+04</rscale>
<asrwt>0</asrwt>
<pdfrwt beam="1">  1        2 0.20337785E+00 0.35501724E+04</pdfrwt>
<pdfrwt beam="2">  1       -2 0.36669798E+00 0.35501724E+04</pdfrwt>
<totfact> 0.16001783E-01</totfact>
</mgrwt>
</event>
<event>
 6    1  0.1614874E-005  0.2120694E+04  0.7818608E-02  0.8552182E-01
         -2   -1    0    0    0  501 -0.00000000000E+00  0.00000000000E+00  0.15427961104E+04  0.15427961104E+04  0.00000000000E+00 0.  1.
          2   -1    0    0  501    0  0.00000000000E+00 -0.00000000000E+00 -0.72876509093E+03  0.72876509093E+03  0.00000000000E+00 0. -1.
         23    2    1    2    0    0 -0.11543798975E+03  0.86031270515E+03 -0.24070752918E+03  0.90556805123E+03  0.93002691825E+02 0.  0.
         11    1    3    3    0    0 -0.11735730660E+03  0.54393313503E+03 -0.16167892662E+03  0.57946187805E+03  0.00000000000E+00 0. -1.
        -11    1    3    3    0    0  0.19193168532E+01  0.31637957012E+03 -0.79028602558E+02  0.32610617318E+03  0.00000000000E+00 0.  1.
         22    1    1    2    0    0  0.11543798975E+03 -0.86031270515E+03  0.10547385487E+04  0.13659931501E+04  0.00000000000E+00 0.  1.
<mgrwt>
<rscale>  0 0.21206942E+04</rscale>
<asrwt>0</asrwt>
<pdfrwt beam="1">  1        2 0.11211771E+00 0.21206942E+04</pdfrwt>
<pdfrwt beam="2">  1       -2 0.23735325E+00 0.21206942E+04</pdfrwt>
<totfact> 0.27535459E+00</totfact>
</mgrwt>
</event>
<event>
 6    1  0.1614874E-005  0.3147578E+04  0.7818608E-02  0.8202801E-01
         -2   -1    0    0    0  501 -0.00000000000E+00  0.00000000000E+00  0.13209017619E+04  0.13209017619E+04  0.00000000000E+00 0.  1.
          2   -1    0    0  501    0  0.00000000000E+00 -0.00000000000E+00 -0.18750912660E+04  0.18750912660E+04  0.00000000000E+00 0. -1.
         23    2    1    2    0    0 -0.40357828986E+03  0.43022723445E+03 -0.17575219667E+04  0.18558512724E+04  0.85612924636E+02 0.  0.
         11    1    3    3    0    0 -0.77592327136E+02  0.13776220771E+03 -0.46212964043E+03  0.48842890953E+03  0.00000000000E+00 0.  1.
        -11    1    3    3    0    0 -0.32598596272E+03  0.29246502674E+03 -0.12953923262E+04  0.13674223629E+04  0.00000000000E+00 0. -1.
         22    1    1    2    0    0  0.40357828986E+03 -0.43022723445E+03  0.12033324625E+04  0.13401417554E+04  0.00000000000E+00 0.  1.
<mgrwt>
<rscale>  0 0.31475777E+04</rscale>
<asrwt>0</asrwt>
<pdfrwt beam="1">  1        2 0.28847558E+00 0.31475777E+04</pdfrwt>
<pdfrwt beam="2">  1       -2 0.20321566E+00 0.31475777E+04</pdfrwt>
<totfact> 0.84008034E-01</totfact>
</mgrwt>
</event>
<event>
 6    1  0.1614874E-005  0.2566495E+03  0.7818608E-02  0.1109173E+00
         -2   -1    0    0    0  501 -0.00000000000E+00  0.00000000000E+00  0.16565074806E+03  0.16565074806E+03  0.00000000000E+00 0. -1.
          2   -1    0    0  501    0  0.00000000000E+00 -0.00000000000E+00 -0.99409373286E+02  0.99409373286E+02  0.00000000000E+00 0.  1.
         23    2    1    2    0    0  0.62350568896E+02  0.14554649614E+02  0.13202837524E+03  0.17325946395E+03  0.92129901296E+02 0.  0.
         13    1    3    3    0    0 -0.13313987184E+02 -0.88741703117E+01  0.72315312537E+02  0.74064280059E+02  0.00000000000E+00 0. -1.
        -13    1    3    3    0    0  0.75664556080E+02  0.23428819926E+02  0.59713062706E+02  0.99195183893E+02  0.00000000000E+00 0.  1.
         22    1    1    2    0    0 -0.62350568896E+02 -0.14554649614E+02 -0.65787000469E+02  0.91800657393E+02  0.00000000000E+00 0.  1.
<mgrwt>
<rscale>  0 0.25664947E+03</rscale>
<asrwt>0</asrwt>
<pdfrwt beam="1">  1        2 0.15293750E-01 0.25664947E+03</pdfrwt>
<pdfrwt beam="2">  1       -2 0.25484731E-01 0.25664947E+03</pdfrwt>
<totfact> 0.51755412E+03</totfact>
</mgrwt>
</event>
<event>
 6    1  0.1614874E-005  0.1151532E+04  0.7818608E-02  0.9156372E-01
         -1   -1    0    0    0  501 -0.00000000000E+00  0.00000000000E+00  0.51823499389E+03  0.51823499389E+03  0.00000000000E+00 0.  1.
          1   -1    0    0  501    0  0.00000000000E+00 -0.00000000000E+00 -0.63968339401E+03  0.63968339401E+03  0.00000000000E+00 0. -1.
         23    2    1    2    0    0  0.44611505037E+02  0.54052465205E+03  0.12231579321E+03  0.56329407979E+03  0.90454304526E+02 0.  0.
         13    1    3    3    0    0 -0.77577033555E+01  0.22750265455E+03  0.14453509545E+02  0.22809327857E+03  0.00000000000E+00 0. -1.
        -13    1    3    3    0    0  0.52369208392E+02  0.31302199749E+03  0.10786228367E+03  0.33520080122E+03  0.00000000000E+00 0.  1.
         22    1    1    2    0    0 -0.44611505037E+02 -0.54052465205E+03 -0.24376419333E+03  0.59462430811E+03  0.00000000000E+00 0. -1.
<mgrwt>
<rscale>  0 0.11515317E+04</rscale>
<asrwt>0</asrwt>
<pdfrwt beam="1">  1        1 0.98412830E-01 0.11515317E+04</pdfrwt>
<pdfrwt beam="2">  1       -1 0.79728461E-01 0.11515317E+04</pdfrwt>
<totfact> 0.48687429E+01</totfact>
</mgrwt>
</event>
<event>
 6    1  0.1614874E-005  0.1804572E+04  0.7818608E-02  0.8703872E-01
          2   -1    0    0  501    0  0.00000000000E+00  0.00000000000E+00  0.15159686479E+04  0.15159686479E+04  0.00000000000E+00 0. -1.
         -2   -1    0    0    0  501 -0.00000000000E+00 -0.00000000000E+00 -0.53702985544E+03  0.53702985544E+03  0.00000000000E+00 0.  1.
         23    2    1    2    0    0 -0.31165212959E+03  0.27819797213E+03  0.13977296337E+04  0.14614691886E+04  0.87880024966E+02 0.  0.
         11    1    3    3    0    0 -0.29874781588E+03  0.23057962059E+03  0.12493439581E+04  0.13050967568E+04  0.00000000000E+00 0. -1.
        -11    1    3    3    0    0 -0.12904313714E+02  0.47618351534E+02  0.14838567554E+03  0.15637243178E+03  0.00000000000E+00 0.  1.
         22    1    1    2    0    0  0.31165212959E+03 -0.27819797213E+03 -0.41879084119E+03  0.59152931477E+03  0.00000000000E+00 0.  1.
<mgrwt>
<rscale>  0 0.18045724E+04</rscale>
<asrwt>0</asrwt>
<pdfrwt beam="1">  1        2 0.23322594E+00 0.18045724E+04</pdfrwt>
<pdfrwt beam="2">  1       -2 0.82619979E-01 0.18045724E+04</pdfrwt>
<totfact> 0.15080064E+01</totfact>
</mgrwt>
</event>
<event>
 6    1  0.1614874E-005  0.1098279E+04  0.7818608E-02  0.9206871E-01
         -2   -1    0    0    0  501 -0.00000000000E+00  0.00000000000E+00  0.23352634497E+03  0.23352634497E+03  0.00000000000E+00 0.  1.
          2   -1    0    0  501    0  0.00000000000E+00 -0.00000000000E+00 -0.12913069759E+04  0.12913069759E+04  0.00000000000E+00 0. -1.
         23    2    1    2    0    0  0.51086832061E+03 -0.50216626284E+02 -0.27786130866E+03  0.59114049139E+03  0.93445294992E+02 0.  0.
         13    1    3    3    0    0  0.24697516033E+03  0.17612109495E+02 -0.10856457821E+03  0.27035751120E+03  0.00000000000E+00 0. -1.
        -13    1    3    3    0    0  0.26389316029E+03 -0.67828735779E+02 -0.16929673045E+03  0.32078298020E+03  0.00000000000E+00 0.  1.
         22    1    1    2    0    0 -0.51086832061E+03  0.50216626284E+02 -0.77991932232E+03  0.93369282951E+03  0.00000000000E+00 0. -1.
<mgrwt>
<rscale>  0 0.10982790E+04</rscale>
<asrwt>0</asrwt>
<pdfrwt beam="1">  1        2 0.19866261E+00 0.10982790E+04</pdfrwt>
<pdfrwt beam="2">  1       -2 0.35927130E-01 0.10982790E+04</pdfrwt>
<totfact> 0.12088893E+02</totfact>
</mgrwt>
</event>
<event>
 6    1  0.1614874E-005  0.3238759E+04  0.7818608E-02  0.8178655E-01
         -1   -1    0    0    0  501 -0.00000000000E+00  0.00000000000E+00  0.21603319287E+04  0.21603319287E+04  0.00000000000E+00 0.  1.
          1   -1    0    0  501    0  0.00000000000E+00 -0.00000000000E+00 -0.12138829017E+04  0.12138829017E+04  0.00000000000E+00 0. -1.
         23    2    1    2    0    0 -0.10800819555E+04 -0.43787940848E+02 -0.78094014296E+03  0.13364788910E+04  0.88396294203E+02 0.  0.
         11    1    3    3    0    0 -0.67199890942E+03  0.25213967173E+01 -0.52246640434E+03  0.85121092296E+03  0.00000000000E+00 0. -1.
        -11    1    3    3    0    0 -0.40808304612E+03 -0.46309337566E+02 -0.25847373863E+03  0.48526796807E+03  0.00000000000E+00 0.  1.
         22    1    1    2    0    0  0.10800819555E+04  0.43787940848E+02  0.17273891699E+04  0.20377359394E+04  0.00000000000E+00 0.  1.
<mgrwt>
<rscale>  0 0.32387590E+04</rscale>
<asrwt>0</asrwt>
<pdfrwt beam="1">  1        1 0.18675122E+00 0.32387590E+04</pdfrwt>
<pdfrwt beam="2">  1       -1 0.33235876E+00 0.32387590E+04</pdfrwt>
<totfact> 0.17677905E-01</totfact>
</mgrwt>
</event>
<event>
 6    1  0.1614874E-005  0.1529429E+04  0.7818608E-02  0.8865116E-01
         -3   -1    0    0    0  501 -0.00000000000E+00  0.00000000000E+00  0.12845840498E+04  0.12845840498E+04  0.00000000000E+00 0.  1.
          3   -1    0    0  501    0  0.00000000000E+00 -0.00000000000E+00 -0.45523524912E+03  0.45523524912E+03  0.00000000000E+00 0. -1.
         23    2    1    2    0    0 -0.45853590489E+03  0.10776770070E+02 -0.27897651672E+03  0.54033760917E+03  0.61363834272E+02 0.  0.
         11    1    3    3    0    0 -0.27913815486E+03  0.16561164939E+02 -0.13646667357E+03  0.31115194789E+03  0.00000000000E+00 0. -1.
        -11    1    3    3    0    0 -0.17939775003E+03 -0.57843948684E+01 -0.14250984316E+03  0.22918566128E+03  0.00000000000E+00 0.  1.
         22    1    1    2    0    0  0.45853590489E+03 -0.10776770070E+02  0.11083253174E+04  0.11994816897E+04  0.00000000000E+00 0.  1.
<mgrwt>
<rscale>  0 0.15294286E+04</rscale>
<asrwt>0</asrwt>
<pdfrwt beam="1">  1        3 0.70036193E-01 0.15294286E+04</pdfrwt>
<pdfrwt beam="2">  1       -3 0.19762831E+00 0.15294286E+04</pdfrwt>
<totfact> 0.74643843E-01</totfact>
</mgrwt>
</event>
<event>
 6    1  0.1614874E-005  0.3182591E+04  0.7818608E-02  0.8193430E-01
         -2   -1    0    0    0  501 -0.00000000000E+00  0.00000000000E+00  0.90642936007E+03  0.90642936007E+03  0.00000000000E+00 0.  1.
          2   -1    0    0  501    0  0.00000000000E+00 -0.00000000000E+00 -0.27936224135E+04  0.27936224135E+04  0.00000000000E+00 0. -1.
         23    2    1    2    0    0 -0.20254057542E+03 -0.92464507393E+03 -0.24296440273E+04  0.26090686130E+04  0.89876195158E+02 0.  0.
         13    1    3    3    0    0 -0.15685085438E+03 -0.50752950252E+03 -0.13591443054E+04  0.14592674975E+04  0.00000000000E+00 0. -1.
        -13    1    3    3    0    0 -0.45689721036E+02 -0.41711557141E+03 -0.10704997219E+04  0.11498011155E+04  0.00000000000E+00 0.  1.
         22    1    1    2    0    0  0.20254057542E+03  0.92464507393E+03  0.54245097392E+03  0.10909831605E+04  0.00000000000E+00 0.  1.
<mgrwt>
<rscale>  0 0.31825910E+04</rscale>
<asrwt>0</asrwt>
<pdfrwt beam="1">  1        2 0.42978806E+00 0.31825910E+04</pdfrwt>
<pdfrwt beam="2">  1       -2 0.13945067E+00 0.31825910E+04</pdfrwt>
<totfact> 0.71353167E-01</totfact>
</mgrwt>
</event>
<event>
 6    1  0.1614874E-005  0.3861364E+04  0.7818608E-02  0.8033113E-01
          1   -1    0    0  501    0  0.00000000000E+00  0.00000000000E+00  0.29226302796E+04  0.29226302796E+04  0.00000000000E+00 0. -1.
         -1   -1    0    0    0  501 -0.00000000000E+00 -0.00000000000E+00 -0.12754034486E+04  0.12754034486E+04  0.00000000000E+00 0.  1.
         23    2    1    2    0    0  0.11247496297E+04  0.14879375856E+04  0.13615868570E+04  0.23110758106E+04  0.90181179778E+02 0.  0.
         13    1    3    3    0    0  0.47552065769E+03  0.66327777001E+03  0.64489897141E+03  0.10401692071E+04  0.00000000000E+00 0. -1.
        -13    1    3    3    0    0  0.64922897202E+03  0.82465981554E+03  0.71668788560E+03  0.12709066035E+04  0.00000000000E+00 0.  1.
         22    1    1    2    0    0 -0.11247496297E+04 -0.14879375856E+04  0.28563997407E+03  0.18869579176E+04  0.00000000000E+00 0.  1.
<mgrwt>
<rscale>  0 0.38613639E+04</rscale>
<asrwt>0</asrwt>
<pdfrwt beam="1">  1        1 0.44963543E+00 0.38613639E+04</pdfrwt>
<pdfrwt beam="2">  1       -1 0.19621592E+00 0.38613639E+04</pdfrwt>
<totfact> 0.86065960E-02</totfact>
</mgrwt>
</event>
<event>
 6    1  0.1614874E-005  0.5072590E+04  0.7818608E-02  0.7817406E-01
          2   -1    0    0  501    0  0.00000000000E+00  0.00000000000E+00  0.29119029517E+04  0.29119029517E+04  0.00000000000E+00 0. -1.
         -2   -1    0    0    0  501 -0.00000000000E+00 -0.00000000000E+00 -0.22091372375E+04  0.22091372375E+04  0.00000000000E+00 0.  1.
         23    2    1    2    0    0  0.58704503689E+03 -0.21466012432E+04 -0.87539594782E+03  0.23928332680E+04  0.82548229823E+02 0.  0.
         11    1    3    3    0    0  0.56738412172E+03 -0.19962907632E+04 -0.81755041724E+03  0.22305806951E+04  0.00000000000E+00 0. -1.
        -11    1    3    3    0    0  0.19660915166E+02 -0.15031048007E+03 -0.57845530577E+02  0.16225257289E+03  0.00000000000E+00 0.  1.
         22    1    1    2    0    0 -0.58704503689E+03  0.21466012432E+04  0.15781616620E+04  0.27282069211E+04  0.00000000000E+00 0. -1.
<mgrwt>
<rscale>  0 0.50725904E+04</rscale>
<asrwt>0</asrwt>
<pdfrwt beam="1">  1        2 0.44798507E+00 0.50725904E+04</pdfrwt>
<pdfrwt beam="2">  1       -2 0.33986727E+00 0.50725904E+04</pdfrwt>
<totfact> 0.25752696E-02</totfact>
</mgrwt>
</event>
<event>
 6    1  0.1614874E-005  0.3006309E+04  0.7818608E-02  0.8241932E-01
         -2   -1    0    0    0  501 -0.00000000000E+00  0.00000000000E+00  0.77661367659E+03  0.77661367659E+03  0.00000000000E+00 0.  1.
          2   -1    0    0  501    0  0.00000000000E+00 -0.00000000000E+00 -0.29093909263E+04  0.29093909263E+04  0.00000000000E+00 0. -1.
         23    2    1    2    0    0  0.87579802216E+03  0.93312552930E+03 -0.20306127918E+04  0.24021888040E+04  0.96836515156E+02 0.  0.
         13    1    3    3    0    0  0.50391229662E+03  0.46933393707E+03 -0.10637141063E+04  0.12671580987E+04  0.00000000000E+00 0. -1.
        -13    1    3    3    0    0  0.37188572554E+03  0.46379159223E+03 -0.96689868551E+03  0.11350307053E+04  0.00000000000E+00 0.  1.
         22    1    1    2    0    0 -0.87579802216E+03 -0.93312552930E+03 -0.10216445789E+03  0.12838157989E+04  0.00000000000E+00 0. -1.
<mgrwt>
<rscale>  0 0.30063086E+04</rscale>
<asrwt>0</asrwt>
<pdfrwt beam="1">  1        2 0.44759861E+00 0.30063086E+04</pdfrwt>
<pdfrwt beam="2">  1       -2 0.11947903E+00 0.30063086E+04</pdfrwt>
<totfact> 0.90996732E-01</totfact>
</mgrwt>
</event>
<event>
 6    1  0.1614874E-005  0.2022991E+04  0.7818608E-02  0.8595946E-01
         -1   -1    0    0    0  501 -0.00000000000E+00  0.00000000000E+00  0.98844750733E+03  0.98844750733E+03  0.00000000000E+00 0.  1.
          1   -1    0    0  501    0  0.00000000000E+00 -0.00000000000E+00 -0.10350809669E+04  0.10350809669E+04  0.00000000000E+00 0. -1.
         23    2    1    2    0    0 -0.36760687870E+03 -0.58507150952E+02 -0.96192558520E+03  0.10354406344E+04  0.90986657521E+02 0.  0.
         11    1    3    3    0    0 -0.19061964100E+03 -0.35163664621E+02 -0.62179710904E+03  0.65130943157E+03  0.00000000000E+00 0.  1.
        -11    1    3    3    0    0 -0.17698723770E+03 -0.23343486332E+02 -0.34012847617E+03  0.38413120280E+03  0.00000000000E+00 0. -1.
         22    1    1    2    0    0  0.36760687870E+03  0.58507150952E+02  0.91529212565E+03  0.98808783985E+03  0.00000000000E+00 0.  1.
<mgrwt>
<rscale>  0 0.20229911E+04</rscale>
<asrwt>0</asrwt>
<pdfrwt beam="1">  1        1 0.15924323E+00 0.20229911E+04</pdfrwt>
<pdfrwt beam="2">  1       -1 0.15206885E+00 0.20229911E+04</pdfrwt>
<totfact> 0.44232788E+00</totfact>
</mgrwt>
</event>
<event>
 6    1  0.1614874E-005  0.1195000E+04  0.7818608E-02  0.9117244E-01
         -1   -1    0    0    0  501 -0.00000000000E+00  0.00000000000E+00  0.18105874809E+03  0.18105874809E+03  0.00000000000E+00 0.  1.
          1   -1    0    0  501    0  0.00000000000E+00 -0.00000000000E+00 -0.19717700986E+04  0.19717700986E+04  0.00000000000E+00 0. -1.
         23    2    1    2    0    0  0.42925678049E+03  0.36332938985E+03 -0.55599231827E+03  0.79606773371E+03  0.91251024974E+02 0.  0.
         11    1    3    3    0    0  0.27569029440E+03  0.28193407081E+03 -0.35776675203E+03  0.53243685782E+03  0.00000000000E+00 0. -1.
        -11    1    3    3    0    0  0.15356648609E+03  0.81395319039E+02 -0.19822556624E+03  0.26363087589E+03  0.00000000000E+00 0.  1.
         22    1    1    2    0    0 -0.42925678049E+03 -0.36332938985E+03 -0.12347190322E+04  0.13567611130E+04  0.00000000000E+00 0. -1.
<mgrwt>
<rscale>  0 0.11950000E+04</rscale>
<asrwt>0</asrwt>
<pdfrwt beam="1">  1        1 0.30334925E+00 0.11950000E+04</pdfrwt>
<pdfrwt beam="2">  1       -1 0.27855192E-01 0.11950000E+04</pdfrwt>
<totfact> 0.35886892E+01</totfact>
</mgrwt>
</event>
<event>
 6    1  0.1614874E-005  0.1781370E+04  0.7818608E-02  0.8716270E-01
         -2   -1    0    0    0  501 -0.00000000000E+00  0.00000000000E+00  0.38039535392E+03  0.38039535392E+03  0.00000000000E+00 0.  1.
          2   -1    0    0  501    0  0.00000000000E+00 -0.00000000000E+00 -0.20855127668E+04  0.20855127668E+04  0.00000000000E+00 0. -1.
         23    2    1    2    0    0 -0.21487565695E+03  0.13589705424E+02 -0.20478277628E+04  0.20611778253E+04  0.92191394916E+02 0.  0.
         11    1    3    3    0    0 -0.17323388710E+03  0.41972126293E+01 -0.12193934017E+04  0.12316443741E+04  0.00000000000E+00 0. -1.
        -11    1    3    3    0    0 -0.41641769850E+02  0.93924927946E+01 -0.82843436110E+03  0.82953345115E+03  0.00000000000E+00 0.  1.
         22    1    1    2    0    0  0.21487565695E+03 -0.13589705424E+02  0.34271034995E+03  0.40473029540E+03  0.00000000000E+00 0.  1.
<mgrwt>
<rscale>  0 0.17813695E+04</rscale>
<asrwt>0</asrwt>
<pdfrwt beam="1">  1        2 0.32084812E+00 0.17813695E+04</pdfrwt>
<pdfrwt beam="2">  1       -2 0.58522362E-01 0.17813695E+04</pdfrwt>
<totfact> 0.15453649E+01</totfact>
</mgrwt>
</event>
<event>
 6    1  0.1614874E-005  0.1531225E+04  0.7818608E-02  0.8863950E-01
         -2   -1    0    0    0  501 -0.00000000000E+00  0.00000000000E+00  0.46490880727E+03  0.46490880727E+03  0.00000000000E+00 0.  1.
          2   -1    0    0  501    0  0.00000000000E+00 -0.00000000000E+00 -0.12608116294E+04  0.12608116294E+04  0.00000000000E+00 0. -1.
         23    2    1    2    0    0  0.13091309961E+03 -0.31909972156E+03  0.36728401317E+03  0.51247417736E+03  0.93644883386E+02 0.  0.
         11    1    3    3    0    0  0.52947659835E+02 -0.18662356584E+03  0.26266413773E+03  0.32653370310E+03  0.00000000000E+00 0. -1.
        -11    1    3    3    0    0  0.77965439774E+02 -0.13247615571E+03  0.10461987544E+03  0.18594047426E+03  0.00000000000E+00 0.  1.
         22    1    1    2    0    0 -0.13091309961E+03  0.31909972156E+03 -0.11631868353E+04  0.12132462593E+04  0.00000000000E+00 0. -1.
<mgrwt>
<rscale>  0 0.15312249E+04</rscale>
<asrwt>0</asrwt>
<pdfrwt beam="1">  1        2 0.19397102E+00 0.15312249E+04</pdfrwt>
<pdfrwt beam="2">  1       -2 0.71524432E-01 0.15312249E+04</pdfrwt>
<totfact> 0.29793304E+01</totfact>
</mgrwt>
</event>
<event>
 6    1  0.1614874E-005  0.2923665E+04  0.7818608E-02  0.8265871E-01
         -2   -1    0    0    0  501 -0.00000000000E+00  0.00000000000E+00  0.13283987211E+04  0.13283987211E+04  0.00000000000E+00 0.  1.
          2   -1    0    0  501    0  0.00000000000E+00 -0.00000000000E+00 -0.16086697266E+04  0.16086697266E+04  0.00000000000E+00 0. -1.
         23    2    1    2    0    0 -0.49111990800E+03 -0.57619191502E+03  0.11142802756E+04  0.13502574436E+04  0.91535482213E+02 0.  0.
         11    1    3    3    0    0 -0.36398983676E+03 -0.36328252437E+03  0.77139889088E+03  0.92710249845E+03  0.00000000000E+00 0.  1.
        -11    1    3    3    0    0 -0.12713007124E+03 -0.21290939065E+03  0.34288138474E+03  0.42315494519E+03  0.00000000000E+00 0. -1.
         22    1    1    2    0    0  0.49111990800E+03  0.57619191502E+03 -0.13945512811E+04  0.15868110040E+04  0.00000000000E+00 0. -1.
<mgrwt>
<rscale>  0 0.29236654E+04</rscale>
<asrwt>0</asrwt>
<pdfrwt beam="1">  1        2 0.24748765E+00 0.29236654E+04</pdfrwt>
<pdfrwt beam="2">  1       -2 0.20436903E+00 0.29236654E+04</pdfrwt>
<totfact> 0.11830995E+00</totfact>
</mgrwt>
</event>
<event>
 6    1  0.1702543E-005  0.2648237E+04  0.7818608E-02  0.8351998E-01
         -1   -1    0    0    0  501 -0.00000000000E+00  0.00000000000E+00  0.95292426114E+03  0.95292426114E+03  0.00000000000E+00 0.  1.
          1   -1    0    0  501    0  0.00000000000E+00 -0.00000000000E+00 -0.18399050925E+04  0.18399050925E+04  0.00000000000E+00 0. -1.
         23    2    1    2    0    0  0.76133499436E+03  0.17739598148E+03  0.68097288272E+03  0.10408079047E+04  0.91960424636E+02 0.  0.
         11    1    3    3    0    0  0.45976494926E+03  0.13175338046E+03  0.36495980682E+03  0.60161318339E+03  0.00000000000E+00 0.  1.
        -11    1    3    3    0    0  0.30157004509E+03  0.45642601024E+02  0.31601307591E+03  0.43919472136E+03  0.00000000000E+00 0. -1.
         22    1    1    2    0    0 -0.76133499436E+03 -0.17739598148E+03 -0.15679537141E+04  0.17520214489E+04  0.00000000000E+00 0. -1.
<mgrwt>
<rscale>  0 0.26482373E+04</rscale>
<asrwt>0</asrwt>
<pdfrwt beam="1">  1        1 0.28306232E+00 0.26482373E+04</pdfrwt>
<pdfrwt beam="2">  1       -1 0.14660373E+00 0.26482373E+04</pdfrwt>
<totfact> 0.12454482E+00</totfact>
</mgrwt>
</event>
<event>
 6    1  0.1614874E-005  0.1431480E+04  0.7818608E-02  0.8931342E-01
          4   -1    0    0  501    0  0.00000000000E+00  0.00000000000E+00  0.15425930604E+04  0.15425930604E+04  0.00000000000E+00 0. -1.
         -4   -1    0    0    0  501 -0.00000000000E+00 -0.00000000000E+00 -0.33209242769E+03  0.33209242769E+03  0.00000000000E+00 0.  1.
         23    2    1    2    0    0  0.38858906813E+03 -0.10710380720E+03 -0.16347977631E+03  0.44280041807E+03  0.82908887305E+02 0.  0.
         11    1    3    3    0    0  0.19102029037E+03 -0.13929423885E+02 -0.57242421845E+02  0.19989866193E+03  0.00000000000E+00 0. -1.
        -11    1    3    3    0    0  0.19756877776E+03 -0.93174383320E+02 -0.10623735447E+03  0.24290175614E+03  0.00000000000E+00 0.  1.
         22    1    1    2    0    0 -0.38858906813E+03  0.10710380720E+03  0.13739804091E+04  0.14318850701E+04  0.00000000000E+00 0. -1.
<mgrwt>
<rscale>  0 0.14314796E+04</rscale>
<asrwt>0</asrwt>
<pdfrwt beam="1">  1        4 0.23732201E+00 0.14314796E+04</pdfrwt>
<pdfrwt beam="2">  1       -4 0.51091144E-01 0.14314796E+04</pdfrwt>
<totfact> 0.54389582E-01</totfact>
</mgrwt>
</event>
<event>
 6    1  0.1614874E-005  0.1953930E+04  0.7818608E-02  0.8628468E-01
          2   -1    0    0  501    0  0.00000000000E+00  0.00000000000E+00  0.18793817327E+04  0.18793817327E+04  0.00000000000E+00 0.  1.
         -2   -1    0    0    0  501 -0.00000000000E+00 -0.00000000000E+00 -0.50785900666E+03  0.50785900666E+03  0.00000000000E+00 0. -1.
         23    2    1    2    0    0 -0.19491667388E+03  0.81049336731E+03  0.69398883855E+02  0.84114290657E+03  0.88392171490E+02 0.  0.
         11    1    3    3    0    0 -0.12173142306E+03  0.39299243064E+03  0.69696655356E+02  0.41727594427E+03  0.00000000000E+00 0.  1.
        -11    1    3    3    0    0 -0.73185250813E+02  0.41750093667E+03 -0.29777150134E+00  0.42386696230E+03  0.00000000000E+00 0. -1.
         22    1    1    2    0    0  0.19491667388E+03 -0.81049336731E+03  0.13021238422E+04  0.15460978328E+04  0.00000000000E+00 0.  1.
<mgrwt>
<rscale>  0 0.19539303E+04</rscale>
<asrwt>0</asrwt>
<pdfrwt beam="1">  1        2 0.28913565E+00 0.19539303E+04</pdfrwt>
<pdfrwt beam="2">  1       -2 0.78132156E-01 0.19539303E+04</pdfrwt>
<totfact> 0.10596052E+01</totfact>
</mgrwt>
</event>
<event>
 6    1  0.1614874E-005  0.2424124E+04  0.7818608E-02  0.8430527E-01
         -2   -1    0    0    0  501 -0.00000000000E+00  0.00000000000E+00  0.22557816064E+04  0.22557816064E+04  0.00000000000E+00 0.  1.
          2   -1    0    0  501    0  0.00000000000E+00 -0.00000000000E+00 -0.65125719612E+03  0.65125719612E+03  0.00000000000E+00 0. -1.
         23    2    1    2    0    0 -0.59584943942E+03  0.49315483169E+03 -0.31328562834E+03  0.83913319861E+03  0.88081766576E+02 0.  0.
         13    1    3    3    0    0 -0.42920777267E+03  0.40068667005E+03 -0.25178795887E+03  0.63887893682E+03  0.00000000000E+00 0.  1.
        -13    1    3    3    0    0 -0.16664166676E+03  0.92468161639E+02 -0.61497669463E+02  0.20025426179E+03  0.00000000000E+00 0. -1.
         22    1    1    2    0    0  0.59584943942E+03 -0.49315483169E+03  0.19178100386E+04  0.20679056039E+04  0.00000000000E+00 0.  1.
<mgrwt>
<rscale>  0 0.24241238E+04</rscale>
<asrwt>0</asrwt>
<pdfrwt beam="1">  1        2 0.10019342E+00 0.24241238E+04</pdfrwt>
<pdfrwt beam="2">  1       -2 0.34704332E+00 0.24241238E+04</pdfrwt>
<totfact> 0.65418961E-01</totfact>
</mgrwt>
</event>
<event>
 6    1  0.1614874E-005  0.3119123E+04  0.7818608E-02  0.8210509E-01
         -2   -1    0    0    0  501 -0.00000000000E+00  0.00000000000E+00  0.11445145046E+04  0.11445145046E+04  0.00000000000E+00 0.  1.
          2   -1    0    0  501    0  0.00000000000E+00 -0.00000000000E+00 -0.21251218038E+04  0.21251218038E+04  0.00000000000E+00 0. -1.
         23    2    1    2    0    0  0.43869241596E+03 -0.67063658638E+03 -0.18915124034E+04  0.20563957817E+04  0.93487818797E+02 0.  0.
         13    1    3    3    0    0  0.37750394159E+02 -0.34240132532E+02 -0.79032763632E+02  0.94040718108E+02  0.00000000000E+00 0. -1.
        -13    1    3    3    0    0  0.40094202180E+03 -0.63639645385E+03 -0.18124796397E+04  0.19623550636E+04  0.00000000000E+00 0.  1.
         22    1    1    2    0    0 -0.43869241596E+03  0.67063658638E+03  0.91090510411E+03  0.12132405267E+04  0.00000000000E+00 0.  1.
<mgrwt>
<rscale>  0 0.31191234E+04</rscale>
<asrwt>0</asrwt>
<pdfrwt beam="1">  1        2 0.32694182E+00 0.31191234E+04</pdfrwt>
<pdfrwt beam="2">  1       -2 0.17607916E+00 0.31191234E+04</pdfrwt>
<totfact> 0.93112478E-01</totfact>
</mgrwt>
</event>
<event>
 6    1  0.1614874E-005  0.2498598E+04  0.7818608E-02  0.8403485E-01
         -1   -1    0    0    0  501 -0.00000000000E+00  0.00000000000E+00  0.95040873645E+03  0.95040873645E+03  0.00000000000E+00 0.  1.
          1   -1    0    0  501    0  0.00000000000E+00 -0.00000000000E+00 -0.16421861779E+04  0.16421861779E+04  0.00000000000E+00 0. -1.
         23    2    1    2    0    0  0.76781615577E+03  0.78398605169E+03  0.27007272038E+03  0.11333720005E+04  0.86122233046E+02 0.  0.
         11    1    3    3    0    0  0.53085529591E+03  0.55571849090E+03  0.22823429384E+03  0.80169899539E+03  0.00000000000E+00 0. -1.
        -11    1    3    3    0    0  0.23696085986E+03  0.22826756079E+03  0.41838426537E+02  0.33167300516E+03  0.00000000000E+00 0.  1.
         22    1    1    2    0    0 -0.76781615577E+03 -0.78398605169E+03 -0.96185016178E+03  0.14592229138E+04  0.00000000000E+00 0. -1.
<mgrwt>
<rscale>  0 0.24985981E+04</rscale>
<asrwt>0</asrwt>
<pdfrwt beam="1">  1        1 0.25264402E+00 0.24985981E+04</pdfrwt>
<pdfrwt beam="2">  1       -1 0.14621673E+00 0.24985981E+04</pdfrwt>
<totfact> 0.17331789E+00</totfact>
</mgrwt>
</event>
<event>
 6    1  0.1614874E-005  0.4639117E+04  0.7818608E-02  0.7886724E-01
          2   -1    0    0  501    0  0.00000000000E+00  0.00000000000E+00  0.33945519985E+04  0.33945519985E+04  0.00000000000E+00 0.  1.
         -2   -1    0    0    0  501 -0.00000000000E+00 -0.00000000000E+00 -0.15849963188E+04  0.15849963188E+04  0.00000000000E+00 0. -1.
         23    2    1    2    0    0 -0.16414598445E+04  0.16360671481E+04  0.82807922431E+03  0.24627244922E+04  0.90501870662E+02 0.  0.
         11    1    3    3    0    0 -0.74639761846E+03  0.76692149409E+03  0.33770126000E+03  0.11221943343E+04  0.00000000000E+00 0. -1.
        -11    1    3    3    0    0 -0.89506222601E+03  0.86914565398E+03  0.49037796431E+03  0.13405301579E+04  0.00000000000E+00 0.  1.
         22    1    1    2    0    0  0.16414598445E+04 -0.16360671481E+04  0.98147645544E+03  0.25168238251E+04  0.00000000000E+00 0. -1.
<mgrwt>
<rscale>  0 0.46391173E+04</rscale>
<asrwt>0</asrwt>
<pdfrwt beam="1">  1        2 0.52223877E+00 0.46391173E+04</pdfrwt>
<pdfrwt beam="2">  1       -2 0.24384559E+00 0.46391173E+04</pdfrwt>
<totfact> 0.50447109E-02</totfact>
</mgrwt>
</event>
<event>
 6    1  0.1614874E-005  0.2417234E+04  0.7818608E-02  0.8433080E-01
         -2   -1    0    0    0  501 -0.00000000000E+00  0.00000000000E+00  0.10375203539E+04  0.10375203539E+04  0.00000000000E+00 0.  1.
          2   -1    0    0  501    0  0.00000000000E+00 -0.00000000000E+00 -0.14079289440E+04  0.14079289440E+04  0.00000000000E+00 0. -1.
         23    2    1    2    0    0  0.58225416460E+03  0.28368255844E+03 -0.12157753101E+04  0.13804889243E+04  0.90246103722E+02 0.  0.
         13    1    3    3    0    0  0.11724399562E+03  0.81366272818E+02 -0.20708548857E+03  0.25149756348E+03  0.00000000000E+00 0.  1.
        -13    1    3    3    0    0  0.46501016899E+03  0.20231628562E+03 -0.10086898216E+04  0.11289913608E+04  0.00000000000E+00 0. -1.
         22    1    1    2    0    0 -0.58225416460E+03 -0.28368255844E+03  0.84536672001E+03  0.10649603737E+04  0.00000000000E+00 0.  1.
<mgrwt>
<rscale>  0 0.24172339E+04</rscale>
<asrwt>0</asrwt>
<pdfrwt beam="1">  1        2 0.21660445E+00 0.24172339E+04</pdfrwt>
<pdfrwt beam="2">  1       -2 0.15961852E+00 0.24172339E+04</pdfrwt>
<totfact> 0.32606652E+00</totfact>
</mgrwt>
</event>
<event>
 6    1  0.1614874E-005  0.1279374E+04  0.7818608E-02  0.9046084E-01
         -1   -1    0    0    0  501 -0.00000000000E+00  0.00000000000E+00  0.41142490675E+03  0.41142490675E+03  0.00000000000E+00 0.  1.
          1   -1    0    0  501    0  0.00000000000E+00 -0.00000000000E+00 -0.99459075190E+03  0.99459075190E+03  0.00000000000E+00 0. -1.
         23    2    1    2    0    0  0.55549919247E+03 -0.31016140741E+03 -0.31092174328E+03  0.71399231910E+03  0.91286635387E+02 0.  0.
         11    1    3    3    0    0  0.16697940952E+03 -0.10105182386E+03 -0.50316055038E+02  0.20155718718E+03  0.00000000000E+00 0.  1.
        -11    1    3    3    0    0  0.38851978295E+03 -0.20910958355E+03 -0.26060568825E+03  0.51243513192E+03  0.00000000000E+00 0. -1.
         22    1    1    2    0    0 -0.55549919247E+03  0.31016140741E+03 -0.27224410186E+03  0.69202333955E+03  0.00000000000E+00 0. -1.
<mgrwt>
<rscale>  0 0.12793739E+04</rscale>
<asrwt>0</asrwt>
<pdfrwt beam="1">  1        1 0.15301396E+00 0.12793739E+04</pdfrwt>
<pdfrwt beam="2">  1       -1 0.63296140E-01 0.12793739E+04</pdfrwt>
<totfact> 0.38065511E+01</totfact>
</mgrwt>
</event>
<event>
 6    1  0.1614874E-005  0.1074061E+04  0.7818608E-02  0.9230849E-01
          2   -1    0    0  501    0  0.00000000000E+00  0.00000000000E+00  0.15002960607E+04  0.15002960607E+04  0.00000000000E+00 0. -1.
         -2   -1    0    0    0  501 -0.00000000000E+00 -0.00000000000E+00 -0.19222986422E+03  0.19222986422E+03  0.00000000000E+00 0.  1.
         23    2    1    2    0    0  0.44437266644E+03 -0.17336705974E+03  0.10338645845E+04  0.11423352960E+04  0.92362034228E+02 0.  0.
         13    1    3    3    0    0  0.50860649046E+02 -0.42683936393E+02  0.20599223734E+03  0.21642903200E+03  0.00000000000E+00 0. -1.
        -13    1    3    3    0    0  0.39351201740E+03 -0.13068312335E+03  0.82787234718E+03  0.92590626404E+03  0.00000000000E+00 0.  1.
         22    1    1    2    0    0 -0.44437266644E+03  0.17336705974E+03  0.27420161191E+03  0.55019062884E+03  0.00000000000E+00 0.  1.
<mgrwt>
<rscale>  0 0.10740609E+04</rscale>
<asrwt>0</asrwt>
<pdfrwt beam="1">  1        2 0.23081477E+00 0.10740609E+04</pdfrwt>
<pdfrwt beam="2">  1       -2 0.29573826E-01 0.10740609E+04</pdfrwt>
<totfact> 0.13277797E+02</totfact>
</mgrwt>
</event>
<event>
 6    1  0.1614874E-005  0.2501013E+04  0.7818608E-02  0.8402625E-01
         -3   -1    0    0    0  501 -0.00000000000E+00  0.00000000000E+00  0.53118999597E+03  0.53118999597E+03  0.00000000000E+00 0.  1.
          3   -1    0    0  501    0  0.00000000000E+00 -0.00000000000E+00 -0.29438941577E+04  0.29438941577E+04  0.00000000000E+00 0. -1.
         23    2    1    2    0    0  0.21063422085E+03 -0.91060536043E+03 -0.56927745363E+02  0.94067072619E+03  0.89731541184E+02 0.  0.
         11    1    3    3    0    0  0.21022342899E+03 -0.79099946620E+03 -0.36020533983E+02  0.81925058712E+03  0.00000000000E+00 0.  1.
        -11    1    3    3    0    0  0.41079185622E+00 -0.11960589423E+03 -0.20907211380E+02  0.12142013907E+03  0.00000000000E+00 0. -1.
         22    1    1    2    0    0 -0.21063422085E+03  0.91060536043E+03 -0.23557764163E+04  0.25344134274E+04  0.00000000000E+00 0. -1.
<mgrwt>
<rscale>  0 0.25010135E+04</rscale>
<asrwt>0</asrwt>
<pdfrwt beam="1">  1        3 0.45290680E+00 0.25010135E+04</pdfrwt>
<pdfrwt beam="2">  1       -3 0.81721537E-01 0.25010135E+04</pdfrwt>
<totfact> 0.19012051E-02</totfact>
</mgrwt>
</event>
<event>
 6    1  0.1614874E-005  0.1967329E+04  0.7818608E-02  0.8622049E-01
         -2   -1    0    0    0  501 -0.00000000000E+00  0.00000000000E+00  0.36862829192E+03  0.36862829192E+03  0.00000000000E+00 0.  1.
          2   -1    0    0  501    0  0.00000000000E+00 -0.00000000000E+00 -0.26248561724E+04  0.26248561724E+04  0.00000000000E+00 0. -1.
         23    2    1    2    0    0 -0.55191125318E+03  0.75660570972E+03 -0.15775770292E+04  0.18369269823E+04  0.92158687988E+02 0.  0.
         11    1    3    3    0    0 -0.25778428751E+03  0.29278023328E+03 -0.60091247776E+03  0.71642781201E+03  0.00000000000E+00 0.  1.
        -11    1    3    3    0    0 -0.29412696567E+03  0.46382547644E+03 -0.97666455143E+03  0.11204991703E+04  0.00000000000E+00 0. -1.
         22    1    1    2    0    0  0.55191125318E+03 -0.75660570972E+03 -0.67865085131E+03  0.11565574821E+04  0.00000000000E+00 0.  1.
<mgrwt>
<rscale>  0 0.19673294E+04</rscale>
<asrwt>0</asrwt>
<pdfrwt beam="1">  1        2 0.40382403E+00 0.19673294E+04</pdfrwt>
<pdfrwt beam="2">  1       -2 0.56712044E-01 0.19673294E+04</pdfrwt>
<totfact> 0.80011129E+00</totfact>
</mgrwt>
</event>
<event>
 6    1  0.1614874E-005  0.4734704E+03  0.7818608E-02  0.1020945E+00
         -1   -1    0    0    0  501 -0.00000000000E+00  0.00000000000E+00  0.83705835193E+02  0.83705835193E+02  0.00000000000E+00 0.  1.
          1   -1    0    0  501    0  0.00000000000E+00 -0.00000000000E+00 -0.66952987225E+03  0.66952987225E+03  0.00000000000E+00 0. -1.
         23    2    1    2    0    0  0.17130662635E+03  0.50393024764E+02 -0.52909454893E+03  0.56587602128E+03  0.91592644792E+02 0.  0.
         11    1    3    3    0    0  0.84965387198E+02  0.57939978751E+02 -0.37746934541E+03  0.39122789380E+03  0.00000000000E+00 0.  1.
        -11    1    3    3    0    0  0.86341239149E+02 -0.75469539872E+01 -0.15162520352E+03  0.17464812749E+03  0.00000000000E+00 0. -1.
         22    1    1    2    0    0 -0.17130662635E+03 -0.50393024764E+02 -0.56729488128E+02  0.18735968616E+03  0.00000000000E+00 0.  1.
<mgrwt>
<rscale>  0 0.47347041E+03</rscale>
<asrwt>0</asrwt>
<pdfrwt beam="1">  1        1 0.10300460E+00 0.47347041E+03</pdfrwt>
<pdfrwt beam="2">  1       -1 0.12877821E-01 0.47347041E+03</pdfrwt>
<totfact> 0.12335416E+03</totfact>
</mgrwt>
</event>
<event>
 6    1  0.1614874E-005  0.2393696E+04  0.7818608E-02  0.8441867E-01
         -1   -1    0    0    0  501 -0.00000000000E+00  0.00000000000E+00  0.11893764153E+04  0.11893764153E+04  0.00000000000E+00 0.  1.
          1   -1    0    0  501    0  0.00000000000E+00 -0.00000000000E+00 -0.12043666375E+04  0.12043666375E+04  0.00000000000E+00 0. -1.
         23    2    1    2    0    0 -0.18170896598E+03 -0.50047792646E+03 -0.10774899770E+04  0.12052978365E+04  0.90895109752E+02 0.  0.
         13    1    3    3    0    0 -0.10911185382E+02 -0.14777700631E+03 -0.28604387644E+03  0.32214623513E+03  0.00000000000E+00 0.  1.
        -13    1    3    3    0    0 -0.17079778060E+03 -0.35270092014E+03 -0.79144610059E+03  0.88315160140E+03  0.00000000000E+00 0. -1.
         22    1    1    2    0    0  0.18170896598E+03  0.50047792646E+03  0.10624997548E+04  0.11884452163E+04  0.00000000000E+00 0.  1.
<mgrwt>
<rscale>  0 0.23936961E+04</rscale>
<asrwt>0</asrwt>
<pdfrwt beam="1">  1        1 0.18528718E+00 0.23936961E+04</pdfrwt>
<pdfrwt beam="2">  1       -1 0.18298099E+00 0.23936961E+04</pdfrwt>
<totfact> 0.18843698E+00</totfact>
</mgrwt>
</event>
<event>
 6    1  0.1614874E-005  0.2550198E+04  0.7818608E-02  0.8385317E-01
         -2   -1    0    0    0  501 -0.00000000000E+00  0.00000000000E+00  0.43101636799E+03  0.43101636799E+03  0.00000000000E+00 0. -1.
          2   -1    0    0  501    0  0.00000000000E+00 -0.00000000000E+00 -0.37721928164E+04  0.37721928164E+04  0.00000000000E+00 0.  1.
         23    2    1    2    0    0  0.43313174868E+03 -0.84405727042E+03 -0.30728481751E+04  0.32172903999E+04  0.92335379599E+02 0.  0.
         13    1    3    3    0    0  0.19503281418E+03 -0.28512751638E+03 -0.11461111759E+04  0.11970406537E+04  0.00000000000E+00 0.  1.
        -13    1    3    3    0    0  0.23809893450E+03 -0.55892975403E+03 -0.19267369993E+04  0.20202497462E+04  0.00000000000E+00 0. -1.
         22    1    1    2    0    0 -0.43313174868E+03  0.84405727042E+03 -0.26832827332E+03  0.98591878454E+03  0.00000000000E+00 0. -1.
<mgrwt>
<rscale>  0 0.25501975E+04</rscale>
<asrwt>0</asrwt>
<pdfrwt beam="1">  1        2 0.58033736E+00 0.25501975E+04</pdfrwt>
<pdfrwt beam="2">  1       -2 0.66310210E-01 0.25501975E+04</pdfrwt>
<totfact> 0.95940217E-01</totfact>
</mgrwt>
</event>
<event>
 6    1  0.1614874E-005  0.1746946E+04  0.7818608E-02  0.8735033E-01
          2   -1    0    0  501    0  0.00000000000E+00  0.00000000000E+00  0.19473329203E+04  0.19473329203E+04  0.00000000000E+00 0. -1.
         -2   -1    0    0    0  501 -0.00000000000E+00 -0.00000000000E+00 -0.39179507349E+03  0.39179507349E+03  0.00000000000E+00 0.  1.
         23    2    1    2    0    0 -0.32718041733E+03  0.23991910852E+02  0.18603388350E+04  0.18913263863E+04  0.92910070502E+02 0.  0.
         13    1    3    3    0    0 -0.12591180232E+03  0.23025288764E+02  0.49735949195E+03  0.51356636389E+03  0.00000000000E+00 0.  1.
        -13    1    3    3    0    0 -0.20126861501E+03  0.96662208876E+00  0.13629793431E+04  0.13777600224E+04  0.00000000000E+00 0. -1.
         22    1    1    2    0    0  0.32718041733E+03 -0.23991910852E+02 -0.30480098820E+03  0.44780160750E+03  0.00000000000E+00 0.  1.
<mgrwt>
<rscale>  0 0.17469464E+04</rscale>
<asrwt>0</asrwt>
<pdfrwt beam="1">  1        2 0.29958967E+00 0.17469464E+04</pdfrwt>
<pdfrwt beam="2">  1       -2 0.60276167E-01 0.17469464E+04</pdfrwt>
<totfact> 0.17379606E+01</totfact>
</mgrwt>
</event>
<event>
 6    1  0.1614874E-005  0.3296892E+04  0.7818608E-02  0.8163687E-01
          2   -1    0    0  501    0  0.00000000000E+00  0.00000000000E+00  0.25376918660E+04  0.25376918660E+04  0.00000000000E+00 0. -1.
         -2   -1    0    0    0  501 -0.00000000000E+00 -0.00000000000E+00 -0.10708052286E+04  0.10708052286E+04  0.00000000000E+00 0.  1.
         23    2    1    2    0    0  0.12510620748E+04 -0.10671415717E+04  0.62797142516E+03  0.17624943366E+04  0.89948465796E+02 0.  0.
         11    1    3    3    0    0  0.15652950356E+03 -0.98307443668E+02  0.60659058222E+02  0.19453884011E+03  0.00000000000E+00 0. -1.
        -11    1    3    3    0    0  0.10945325712E+04 -0.96883412808E+03  0.56731236694E+03  0.15679554965E+04  0.00000000000E+00 0.  1.
         22    1    1    2    0    0 -0.12510620748E+04  0.10671415717E+04  0.83891521231E+03  0.18460027580E+04  0.00000000000E+00 0. -1.
<mgrwt>
<rscale>  0 0.32968917E+04</rscale>
<asrwt>0</asrwt>
<pdfrwt beam="1">  1        2 0.39041413E+00 0.32968917E+04</pdfrwt>
<pdfrwt beam="2">  1       -2 0.16473927E+00 0.32968917E+04</pdfrwt>
<totfact> 0.64282795E-01</totfact>
</mgrwt>
</event>
<event>
 6    1  0.1614874E-005  0.5352998E+04  0.7818608E-02  0.7776247E-01
         -2   -1    0    0    0  501 -0.00000000000E+00  0.00000000000E+00  0.23742193031E+04  0.23742193031E+04  0.00000000000E+00 0. -1.
          2   -1    0    0  501    0  0.00000000000E+00 -0.00000000000E+00 -0.30172643450E+04  0.30172643450E+04  0.00000000000E+00 0.  1.
         23    2    1    2    0    0 -0.18380218549E+04  0.14786018479E+04  0.95036137356E+03  0.25448133532E+04  0.91107071715E+02 0.  0.
         13    1    3    3    0    0 -0.92683234799E+03  0.68725326138E+03  0.46751244094E+03  0.12449510549E+04  0.00000000000E+00 0.  1.
        -13    1    3    3    0    0 -0.91118950687E+03  0.79134858653E+03  0.48284893262E+03  0.12998622983E+04  0.00000000000E+00 0. -1.
         22    1    1    2    0    0  0.18380218549E+04 -0.14786018479E+04 -0.15934064154E+04  0.28466702950E+04  0.00000000000E+00 0.  1.
<mgrwt>
<rscale>  0 0.53529981E+04</rscale>
<asrwt>0</asrwt>
<pdfrwt beam="1">  1        2 0.46419452E+00 0.53529981E+04</pdfrwt>
<pdfrwt beam="2">  1       -2 0.36526451E+00 0.53529981E+04</pdfrwt>
<totfact> 0.14962505E-02</totfact>
</mgrwt>
</event>
<event>
 6    1  0.1614874E-005  0.2228757E+04  0.7818608E-02  0.8506553E-01
          1   -1    0    0  501    0  0.00000000000E+00  0.00000000000E+00  0.32061280710E+04  0.32061280710E+04  0.00000000000E+00 0. -1.
         -1   -1    0    0    0  501 -0.00000000000E+00 -0.00000000000E+00 -0.38733303171E+03  0.38733303171E+03  0.00000000000E+00 0.  1.
         23    2    1    2    0    0  0.37944701470E+03 -0.83371467496E+03  0.24295930260E+04  0.25982031445E+04  0.93151017633E+02 0.  0.
         13    1    3    3    0    0  0.18488809439E+03 -0.32537296895E+03  0.10789637765E+04  0.11420218944E+04  0.00000000000E+00 0. -1.
        -13    1    3    3    0    0  0.19455892031E+03 -0.50834170602E+03  0.13506292495E+04  0.14561812501E+04  0.00000000000E+00 0.  1.
         22    1    1    2    0    0 -0.37944701470E+03  0.83371467496E+03  0.38920201334E+03  0.99525795822E+03  0.00000000000E+00 0.  1.
<mgrwt>
<rscale>  0 0.22287569E+04</rscale>
<asrwt>0</asrwt>
<pdfrwt beam="1">  1        1 0.49325045E+00 0.22287569E+04</pdfrwt>
<pdfrwt beam="2">  1       -1 0.59589699E-01 0.22287569E+04</pdfrwt>
<totfact> 0.10935982E+00</totfact>
</mgrwt>
</event>
<event>
 6    1  0.1614874E-005  0.4780683E+04  0.7818608E-02  0.7863259E-01
          1   -1    0    0  501    0  0.00000000000E+00  0.00000000000E+00  0.28268760284E+04  0.28268760284E+04  0.00000000000E+00 0. -1.
         -1   -1    0    0    0  501 -0.00000000000E+00 -0.00000000000E+00 -0.20212176312E+04  0.20212176312E+04  0.00000000000E+00 0.  1.
         23    2    1    2    0    0  0.64362387863E+03 -0.19184823272E+04 -0.88566361712E+03  0.22107851275E+04  0.91349332771E+02 0.  0.
         13    1    3    3    0    0  0.13621995692E+03 -0.49350334215E+03 -0.25510587766E+03  0.57199688302E+03  0.00000000000E+00 0.  1.
        -13    1    3    3    0    0  0.50740392172E+03 -0.14249789850E+04 -0.63055773946E+03  0.16387882445E+04  0.00000000000E+00 0. -1.
         22    1    1    2    0    0 -0.64362387863E+03  0.19184823272E+04  0.16913220143E+04  0.26373085320E+04  0.00000000000E+00 0. -1.
<mgrwt>
<rscale>  0 0.47806827E+04</rscale>
<asrwt>0</asrwt>
<pdfrwt beam="1">  1        1 0.43490401E+00 0.47806827E+04</pdfrwt>
<pdfrwt beam="2">  1       -1 0.31095656E+00 0.47806827E+04</pdfrwt>
<totfact> 0.16419447E-02</totfact>
</mgrwt>
</event>
<event>
 6    1  0.1614874E-005  0.2584668E+04  0.7818608E-02  0.8373428E-01
         -1   -1    0    0    0  501 -0.00000000000E+00  0.00000000000E+00  0.70351989504E+03  0.70351989504E+03  0.00000000000E+00 0.  1.
          1   -1    0    0  501    0  0.00000000000E+00 -0.00000000000E+00 -0.23739578312E+04  0.23739578312E+04  0.00000000000E+00 0. -1.
         23    2    1    2    0    0  0.39042841273E+03 -0.11223087337E+04 -0.14362384214E+04  0.18663374982E+04  0.91780253831E+02 0.  0.
         13    1    3    3    0    0  0.12522614880E+03 -0.42312315037E+03 -0.47248287715E+03  0.64649428298E+03  0.00000000000E+00 0. -1.
        -13    1    3    3    0    0  0.26520226393E+03 -0.69918558333E+03 -0.96375554423E+03  0.12198432152E+04  0.00000000000E+00 0.  1.
         22    1    1    2    0    0 -0.39042841273E+03  0.11223087337E+04 -0.23419951479E+03  0.12111402280E+04  0.00000000000E+00 0.  1.
<mgrwt>
<rscale>  0 0.25846675E+04</rscale>
<asrwt>0</asrwt>
<pdfrwt beam="1">  1        1 0.36522427E+00 0.25846675E+04</pdfrwt>
<pdfrwt beam="2">  1       -1 0.10823383E+00 0.25846675E+04</pdfrwt>
<totfact> 0.11574019E+00</totfact>
</mgrwt>
</event>
<event>
 6    1  0.1614874E-005  0.3950069E+04  0.7818608E-02  0.8014696E-01
         -2   -1    0    0    0  501 -0.00000000000E+00  0.00000000000E+00  0.12319253461E+04  0.12319253461E+04  0.00000000000E+00 0.  1.
          2   -1    0    0  501    0  0.00000000000E+00 -0.00000000000E+00 -0.31663935413E+04  0.31663935413E+04  0.00000000000E+00 0. -1.
         23    2    1    2    0    0  0.16640096532E+04  0.50818326945E+03 -0.20059145583E+04  0.26569737338E+04  0.92940011485E+02 0.  0.
         13    1    3    3    0    0  0.11349631990E+04  0.38874296573E+03 -0.14042932377E+04  0.18469710485E+04  0.00000000000E+00 0.  1.
        -13    1    3    3    0    0  0.52904645418E+03  0.11944030371E+03 -0.60162132053E+03  0.81000268528E+03  0.00000000000E+00 0. -1.
         22    1    1    2    0    0 -0.16640096532E+04 -0.50818326945E+03  0.71446363092E+02  0.17413451536E+04  0.00000000000E+00 0.  1.
<mgrwt>
<rscale>  0 0.39500686E+04</rscale>
<asrwt>0</asrwt>
<pdfrwt beam="1">  1        2 0.48713745E+00 0.39500686E+04</pdfrwt>
<pdfrwt beam="2">  1       -2 0.18952698E+00 0.39500686E+04</pdfrwt>
<totfact> 0.16849794E-01</totfact>
</mgrwt>
</event>
<event>
 6    1  0.1614874E-005  0.2197906E+04  0.7818608E-02  0.8519300E-01
          2   -1    0    0  501    0  0.00000000000E+00  0.00000000000E+00  0.12820138063E+04  0.12820138063E+04  0.00000000000E+00 0. -1.
         -2   -1    0    0    0  501 -0.00000000000E+00 -0.00000000000E+00 -0.94203160279E+03  0.94203160279E+03  0.00000000000E+00 0.  1.
         23    2    1    2    0    0 -0.29420324883E+02 -0.59579625778E+03  0.11019203287E+04  0.12563737485E+04  0.91694321872E+02 0.  0.
         11    1    3    3    0    0 -0.31183947757E+02 -0.33240740181E+03  0.70429982925E+03  0.77942630753E+03  0.00000000000E+00 0. -1.
        -11    1    3    3    0    0  0.17636228742E+01 -0.26338885597E+03  0.39762049946E+03  0.47694744093E+03  0.00000000000E+00 0.  1.
         22    1    1    2    0    0  0.29420324883E+02  0.59579625778E+03 -0.76193812516E+03  0.96767166068E+03  0.00000000000E+00 0.  1.
<mgrwt>
<rscale>  0 0.21979058E+04</rscale>
<asrwt>0</asrwt>
<pdfrwt beam="1">  1        2 0.19723289E+00 0.21979058E+04</pdfrwt>
<pdfrwt beam="2">  1       -2 0.14492794E+00 0.21979058E+04</pdfrwt>
<totfact> 0.50809824E+00</totfact>
</mgrwt>
</event>
<event>
 6    1  0.1614874E-005  0.4086146E+04  0.7818608E-02  0.7987390E-01
          2   -1    0    0  501    0  0.00000000000E+00  0.00000000000E+00  0.30292841731E+04  0.30292841731E+04  0.00000000000E+00 0. -1.
         -2   -1    0    0    0  501 -0.00000000000E+00 -0.00000000000E+00 -0.13779318850E+04  0.13779318850E+04  0.00000000000E+00 0.  1.
         23    2    1    2    0    0  0.17726537930E+04  0.12616428780E+03 -0.25871621204E+03  0.17982736339E+04  0.92925167804E+02 0.  0.
         13    1    3    3    0    0  0.16519079031E+03 -0.15214299138E+02 -0.25634922370E+02  0.16785893288E+03  0.00000000000E+00 0. -1.
        -13    1    3    3    0    0  0.16074630027E+04  0.14137858694E+03 -0.23308128967E+03  0.16304147011E+04  0.00000000000E+00 0.  1.
         22    1    1    2    0    0 -0.17726537930E+04 -0.12616428780E+03  0.19100685001E+04  0.26089424241E+04  0.00000000000E+00 0. -1.
<mgrwt>
<rscale>  0 0.40861460E+04</rscale>
<asrwt>0</asrwt>
<pdfrwt beam="1">  1        2 0.46604372E+00 0.40861460E+04</pdfrwt>
<pdfrwt beam="2">  1       -2 0.21198952E+00 0.40861460E+04</pdfrwt>
<totfact> 0.14526799E-01</totfact>
</mgrwt>
</event>
<event>
 6    1  0.1614874E-005  0.1710648E+04  0.7818608E-02  0.8755315E-01
          2   -1    0    0  501    0  0.00000000000E+00  0.00000000000E+00  0.13817879698E+04  0.13817879698E+04  0.00000000000E+00 0. -1.
         -2   -1    0    0    0  501 -0.00000000000E+00 -0.00000000000E+00 -0.52944384955E+03  0.52944384955E+03  0.00000000000E+00 0.  1.
         23    2    1    2    0    0 -0.41164758915E+03 -0.30154132418E+03  0.11908957882E+04  0.12988609026E+04  0.91793018459E+02 0.  0.
         11    1    3    3    0    0 -0.58693478979E+02 -0.56510811321E+02  0.28176647063E+03  0.29330997297E+03  0.00000000000E+00 0.  1.
        -11    1    3    3    0    0 -0.35295411017E+03 -0.24503051286E+03  0.90912931755E+03  0.10055509297E+04  0.00000000000E+00 0. -1.
         22    1    1    2    0    0  0.41164758915E+03  0.30154132418E+03 -0.33855166790E+03  0.61237091675E+03  0.00000000000E+00 0.  1.
<mgrwt>
<rscale>  0 0.17106480E+04</rscale>
<asrwt>0</asrwt>
<pdfrwt beam="1">  1        2 0.21258276E+00 0.17106480E+04</pdfrwt>
<pdfrwt beam="2">  1       -2 0.81452901E-01 0.17106480E+04</pdfrwt>
<totfact> 0.18706839E+01</totfact>
</mgrwt>
</event>
<event>
 6    1  0.1614874E-005  0.2019352E+04  0.7818608E-02  0.8597626E-01
         -2   -1    0    0    0  501 -0.00000000000E+00  0.00000000000E+00  0.36529185591E+03  0.36529185591E+03  0.00000000000E+00 0. -1.
          2   -1    0    0  501    0  0.00000000000E+00 -0.00000000000E+00 -0.27907714681E+04  0.27907714681E+04  0.00000000000E+00 0.  1.
         23    2    1    2    0    0 -0.95870298617E+03  0.22565229071E+03 -0.15475441536E+04  0.18366691291E+04  0.91816178125E+02 0.  0.
         13    1    3    3    0    0 -0.87005077016E+03  0.21058208620E+03 -0.14494412830E+04  0.17035883278E+04  0.00000000000E+00 0.  1.
        -13    1    3    3    0    0 -0.88652216002E+02  0.15070204510E+02 -0.98102870569E+02  0.13308080132E+03  0.00000000000E+00 0. -1.
         22    1    1    2    0    0  0.95870298617E+03 -0.22565229071E+03 -0.87793545856E+03  0.13193941948E+04  0.00000000000E+00 0.  1.
<mgrwt>
<rscale>  0 0.20193525E+04</rscale>
<asrwt>0</asrwt>
<pdfrwt beam="1">  1        2 0.42934946E+00 0.20193525E+04</pdfrwt>
<pdfrwt beam="2">  1       -2 0.56198746E-01 0.20193525E+04</pdfrwt>
<totfact> 0.64669066E+00</totfact>
</mgrwt>
</event>
<event>
 6    1  0.1614874E-005  0.1186934E+04  0.7818608E-02  0.9124370E-01
          1   -1    0    0  501    0  0.00000000000E+00  0.00000000000E+00  0.44347722700E+03  0.44347722700E+03  0.00000000000E+00 0. -1.
         -1   -1    0    0    0  501 -0.00000000000E+00 -0.00000000000E+00 -0.79418555852E+03  0.79418555852E+03  0.00000000000E+00 0.  1.
         23    2    1    2    0    0 -0.76625168776E+02 -0.17207451386E+03 -0.75935048286E+03  0.78769671719E+03  0.91498129162E+02 0.  0.
         13    1    3    3    0    0 -0.75839345521E+02 -0.17364971146E+03 -0.61942379723E+03  0.64775895918E+03  0.00000000000E+00 0. -1.
        -13    1    3    3    0    0 -0.78582325555E+00  0.15751976052E+01 -0.13992668563E+03  0.13993775801E+03  0.00000000000E+00 0.  1.
         22    1    1    2    0    0  0.76625168776E+02  0.17207451386E+03  0.40864215134E+03  0.44996606834E+03  0.00000000000E+00 0. -1.
<mgrwt>
<rscale>  0 0.11869342E+04</rscale>
<asrwt>0</asrwt>
<pdfrwt beam="1">  1        1 0.68227265E-01 0.11869342E+04</pdfrwt>
<pdfrwt beam="2">  1       -1 0.12218239E+00 0.11869342E+04</pdfrwt>
<totfact> 0.30650918E+01</totfact>
</mgrwt>
</event>
<event>
 6    1  0.1614874E-005  0.2090553E+04  0.7818608E-02  0.8565416E-01
          2   -1    0    0  501    0  0.00000000000E+00  0.00000000000E+00  0.27938653283E+04  0.27938653283E+04  0.00000000000E+00 0. -1.
         -2   -1    0    0    0  501 -0.00000000000E+00 -0.00000000000E+00 -0.39107210459E+03  0.39107210459E+03  0.00000000000E+00 0.  1.
         23    2    1    2    0    0  0.63790038647E+03 -0.78544462484E+03  0.15912590964E+04  0.18878530865E+04  0.89686134290E+02 0.  0.
         11    1    3    3    0    0  0.30706056461E+03 -0.38122256071E+03  0.85321901286E+03  0.98366636368E+03  0.00000000000E+00 0.  1.
        -11    1    3    3    0    0  0.33083982186E+03 -0.40422206413E+03  0.73804008354E+03  0.90418672285E+03  0.00000000000E+00 0. -1.
         22    1    1    2    0    0 -0.63790038647E+03  0.78544462484E+03  0.81153412726E+03  0.12970843463E+04  0.00000000000E+00 0.  1.
<mgrwt>
<rscale>  0 0.20905528E+04</rscale>
<asrwt>0</asrwt>
<pdfrwt beam="1">  1        2 0.42982542E+00 0.20905528E+04</pdfrwt>
<pdfrwt beam="2">  1       -2 0.60164941E-01 0.20905528E+04</pdfrwt>
<totfact> 0.55445215E+00</totfact>
</mgrwt>
</event>
<event>
 6    1  0.1614874E-005  0.4758962E+04  0.7818608E-02  0.7866805E-01
         -2   -1    0    0    0  501 -0.00000000000E+00  0.00000000000E+00  0.15730668969E+04  0.15730668969E+04  0.00000000000E+00 0.  1.
          2   -1    0    0  501    0  0.00000000000E+00 -0.00000000000E+00 -0.35992936616E+04  0.35992936616E+04  0.00000000000E+00 0. -1.
         23    2    1    2    0    0 -0.21936254081E+03 -0.17515146147E+04 -0.27463047161E+04  0.32659409757E+04  0.90870749051E+02 0.  0.
         13    1    3    3    0    0 -0.95839731119E+02 -0.45642846668E+03 -0.70376684105E+03  0.84427481652E+03  0.00000000000E+00 0. -1.
        -13    1    3    3    0    0 -0.12352280969E+03 -0.12950861480E+04 -0.20425378751E+04  0.24216661592E+04  0.00000000000E+00 0.  1.
         22    1    1    2    0    0  0.21936254081E+03  0.17515146147E+04  0.72007795135E+03  0.19064195828E+04  0.00000000000E+00 0.  1.
<mgrwt>
<rscale>  0 0.47589620E+04</rscale>
<asrwt>0</asrwt>
<pdfrwt beam="1">  1        2 0.55373748E+00 0.47589620E+04</pdfrwt>
<pdfrwt beam="2">  1       -2 0.24201029E+00 0.47589620E+04</pdfrwt>
<totfact> 0.36835134E-02</totfact>
</mgrwt>
</event>
<event>
 6    1  0.1614874E-005  0.2321152E+04  0.7818608E-02  0.8469628E-01
         -2   -1    0    0    0  501 -0.00000000000E+00  0.00000000000E+00  0.64654710096E+03  0.64654710096E+03  0.00000000000E+00 0. -1.
          2   -1    0    0  501    0  0.00000000000E+00 -0.00000000000E+00 -0.20832767707E+04  0.20832767707E+04  0.00000000000E+00 0.  1.
         23    2    1    2    0    0 -0.10985959664E+04  0.27273234350E+03 -0.42743106006E+03  0.12132554716E+04  0.89417558857E+02 0.  0.
         13    1    3    3    0    0 -0.42954200320E+03  0.63909070920E+02 -0.17741462178E+03  0.46911261961E+03  0.00000000000E+00 0. -1.
        -13    1    3    3    0    0 -0.66905396316E+03  0.20882327258E+03 -0.25001643829E+03  0.74414285202E+03  0.00000000000E+00 0.  1.
         22    1    1    2    0    0  0.10985959664E+04 -0.27273234350E+03 -0.10092986097E+04  0.15165684001E+04  0.00000000000E+00 0. -1.
<mgrwt>
<rscale>  0 0.23211519E+04</rscale>
<asrwt>0</asrwt>
<pdfrwt beam="1">  1        2 0.32050412E+00 0.23211519E+04</pdfrwt>
<pdfrwt beam="2">  1       -2 0.99468784E-01 0.23211519E+04</pdfrwt>
<totfact> 0.45448103E+00</totfact>
</mgrwt>
</event>
<event>
 6    1  0.1614874E-005  0.1009215E+04  0.7818608E-02  0.9298495E-01
         -1   -1    0    0    0  501 -0.00000000000E+00  0.00000000000E+00  0.31774311854E+03  0.31774311854E+03  0.00000000000E+00 0.  1.
          1   -1    0    0  501    0  0.00000000000E+00 -0.00000000000E+00 -0.80136656652E+03  0.80136656652E+03  0.00000000000E+00 0. -1.
         23    2    1    2    0    0  0.26504274377E+03 -0.32650589366E+03  0.57049175572E+02  0.43414206504E+03  0.91493002913E+02 0.  0.
         13    1    3    3    0    0  0.10513582356E+03 -0.87530505744E+02 -0.15252599689E+02  0.13765090856E+03  0.00000000000E+00 0. -1.
        -13    1    3    3    0    0  0.15990692021E+03 -0.23897538792E+03  0.72301775261E+02  0.29649115647E+03  0.00000000000E+00 0.  1.
         22    1    1    2    0    0 -0.26504274377E+03  0.32650589366E+03 -0.54067262356E+03  0.68496762003E+03  0.00000000000E+00 0. -1.
<mgrwt>
<rscale>  0 0.10092150E+04</rscale>
<asrwt>0</asrwt>
<pdfrwt beam="1">  1        1 0.12328716E+00 0.10092150E+04</pdfrwt>
<pdfrwt beam="2">  1       -1 0.48883557E-01 0.10092150E+04</pdfrwt>
<totfact> 0.92541045E+01</totfact>
</mgrwt>
</event>
<event>
 6    1  0.1614874E-005  0.1493376E+04  0.7818608E-02  0.8888870E-01
         -2   -1    0    0    0  501 -0.00000000000E+00  0.00000000000E+00  0.51545090476E+03  0.51545090476E+03  0.00000000000E+00 0.  1.
          2   -1    0    0  501    0  0.00000000000E+00 -0.00000000000E+00 -0.10816602442E+04  0.10816602442E+04  0.00000000000E+00 0. -1.
         23    2    1    2    0    0  0.31930414285E+03  0.52547394628E+03 -0.73195321847E+03  0.96028382756E+03  0.91167491916E+02 0.  0.
         11    1    3    3    0    0  0.92947921126E+02  0.13164267916E+03 -0.25481757125E+03  0.30149810221E+03  0.00000000000E+00 0.  1.
        -11    1    3    3    0    0  0.22635622172E+03  0.39383126713E+03 -0.47713564722E+03  0.65878572535E+03  0.00000000000E+00 0. -1.
         22    1    1    2    0    0 -0.31930414285E+03 -0.52547394628E+03  0.16574387903E+03  0.63682732141E+03  0.00000000000E+00 0.  1.
<mgrwt>
<rscale>  0 0.14933757E+04</rscale>
<asrwt>0</asrwt>
<pdfrwt beam="1">  1        2 0.16640927E+00 0.14933757E+04</pdfrwt>
<pdfrwt beam="2">  1       -2 0.79300140E-01 0.14933757E+04</pdfrwt>
<totfact> 0.30486127E+01</totfact>
</mgrwt>
</event>
<event>
 6    1  0.1614874E-005  0.1505872E+04  0.7818608E-02  0.8880558E-01
         -2   -1    0    0    0  501 -0.00000000000E+00  0.00000000000E+00  0.49320797266E+03  0.49320797266E+03  0.00000000000E+00 0.  1.
          2   -1    0    0  501    0  0.00000000000E+00 -0.00000000000E+00 -0.11494389316E+04  0.11494389316E+04  0.00000000000E+00 0. -1.
         23    2    1    2    0    0  0.19918107744E+03  0.26380329501E+02  0.45884253125E+03  0.50961649340E+03  0.93826853702E+02 0.  0.
         11    1    3    3    0    0  0.57444042582E+02  0.51977197253E+02  0.14909865078E+03  0.16802337554E+03  0.00000000000E+00 0. -1.
        -11    1    3    3    0    0  0.14173703485E+03 -0.25596867751E+02  0.30974388046E+03  0.34159311786E+03  0.00000000000E+00 0.  1.
         22    1    1    2    0    0 -0.19918107744E+03 -0.26380329501E+02 -0.11150734902E+04  0.11330304109E+04  0.00000000000E+00 0. -1.
<mgrwt>
<rscale>  0 0.15058718E+04</rscale>
<asrwt>0</asrwt>
<pdfrwt beam="1">  1        2 0.17683676E+00 0.15058718E+04</pdfrwt>
<pdfrwt beam="2">  1       -2 0.75878151E-01 0.15058718E+04</pdfrwt>
<totfact> 0.30538258E+01</totfact>
</mgrwt>
</event>
<event>
 6    1  0.1614874E-005  0.5997325E+03  0.7818608E-02  0.9905961E-01
          2   -1    0    0  501    0  0.00000000000E+00  0.00000000000E+00  0.13002373651E+04  0.13002373651E+04  0.00000000000E+00 0. -1.
         -2   -1    0    0    0  501 -0.00000000000E+00 -0.00000000000E+00 -0.69156418490E+02  0.69156418490E+02  0.00000000000E+00 0.  1.
         23    2    1    2    0    0  0.24289362979E+03  0.66697629900E+02  0.28156994707E+03  0.38704098166E+03  0.84102301756E+02 0.  0.
         13    1    3    3    0    0  0.97580695507E+02  0.22134250802E+02  0.54906557405E+02  0.11413433857E+03  0.00000000000E+00 0. -1.
        -13    1    3    3    0    0  0.14531293428E+03  0.44563379098E+02  0.22666338967E+03  0.27290664309E+03  0.00000000000E+00 0.  1.
         22    1    1    2    0    0 -0.24289362979E+03 -0.66697629900E+02  0.94951099955E+03  0.98235280194E+03  0.00000000000E+00 0. -1.
<mgrwt>
<rscale>  0 0.59973247E+03</rscale>
<asrwt>0</asrwt>
<pdfrwt beam="1">  1        2 0.20003650E+00 0.59973247E+03</pdfrwt>
<pdfrwt beam="2">  1       -2 0.10639450E-01 0.59973247E+03</pdfrwt>
<totfact> 0.10394667E+03</totfact>
</mgrwt>
</event>
<event>
 6    1  0.1614874E-005  0.3556825E+04  0.7818608E-02  0.8100454E-01
          2   -1    0    0  501    0  0.00000000000E+00  0.00000000000E+00  0.11318234904E+04  0.11318234904E+04  0.00000000000E+00 0. -1.
         -2   -1    0    0    0  501 -0.00000000000E+00 -0.00000000000E+00 -0.27943860722E+04  0.27943860722E+04  0.00000000000E+00 0.  1.
         23    2    1    2    0    0 -0.10695334724E+04  0.12164167896E+04 -0.24794912492E+02  0.16227654906E+04  0.95819595824E+02 0.  0.
         13    1    3    3    0    0 -0.42047868503E+03  0.54584454743E+03 -0.26331096920E+02  0.68952296640E+03  0.00000000000E+00 0.  1.
        -13    1    3    3    0    0 -0.64905478738E+03  0.67057224220E+03  0.15361844284E+01  0.93324252415E+03  0.00000000000E+00 0. -1.
         22    1    1    2    0    0  0.10695334724E+04 -0.12164167896E+04 -0.16377676692E+04  0.23034440720E+04  0.00000000000E+00 0.  1.
<mgrwt>
<rscale>  0 0.35568254E+04</rscale>
<asrwt>0</asrwt>
<pdfrwt beam="1">  1        2 0.17412669E+00 0.35568254E+04</pdfrwt>
<pdfrwt beam="2">  1       -2 0.42990555E+00 0.35568254E+04</pdfrwt>
<totfact> 0.80244412E-02</totfact>
</mgrwt>
</event>
<event>
 6    1  0.1614874E-005  0.4117073E+04  0.7818608E-02  0.7981337E-01
         -2   -1    0    0    0  501 -0.00000000000E+00  0.00000000000E+00  0.16332380889E+04  0.16332380889E+04  0.00000000000E+00 0.  1.
          2   -1    0    0  501    0  0.00000000000E+00 -0.00000000000E+00 -0.25945833403E+04  0.25945833403E+04  0.00000000000E+00 0. -1.
         23    2    1    2    0    0 -0.13714128435E+04 -0.79859884504E+03 -0.18257264902E+04  0.24206998981E+04  0.89316723809E+02 0.  0.
         11    1    3    3    0    0 -0.48353500614E+03 -0.28066097031E+03 -0.70901713549E+03  0.90292966550E+03  0.00000000000E+00 0.  1.
        -11    1    3    3    0    0 -0.88787783731E+03 -0.51793787472E+03 -0.11167093547E+04  0.15177702326E+04  0.00000000000E+00 0. -1.
         22    1    1    2    0    0  0.13714128435E+04  0.79859884504E+03  0.86438123879E+03  0.18071215312E+04  0.00000000000E+00 0.  1.
<mgrwt>
<rscale>  0 0.41170729E+04</rscale>
<asrwt>0</asrwt>
<pdfrwt beam="1">  1        2 0.39916666E+00 0.41170729E+04</pdfrwt>
<pdfrwt beam="2">  1       -2 0.25126740E+00 0.41170729E+04</pdfrwt>
<totfact> 0.15120393E-01</totfact>
</mgrwt>
</event>
<event>
 6    1  0.1614874E-005  0.1513059E+04  0.7818608E-02  0.8875815E-01
         -2   -1    0    0    0  501 -0.00000000000E+00  0.00000000000E+00  0.23897095604E+03  0.23897095604E+03  0.00000000000E+00 0. -1.
          2   -1    0    0  501    0  0.00000000000E+00 -0.00000000000E+00 -0.23950047357E+04  0.23950047357E+04  0.00000000000E+00 0.  1.
         23    2    1    2    0    0  0.47968145662E+03  0.49493279278E+02 -0.20905399520E+04  0.21473204483E+04  0.89910690893E+02 0.  0.
         13    1    3    3    0    0  0.21996468672E+03  0.48539588714E+02 -0.81182859592E+03  0.84249998470E+03  0.00000000000E+00 0. -1.
        -13    1    3    3    0    0  0.25971676991E+03  0.95369056368E+00 -0.12787113561E+04  0.13048204636E+04  0.00000000000E+00 0.  1.
         22    1    1    2    0    0 -0.47968145662E+03 -0.49493279278E+02 -0.65493827698E+02  0.48665524346E+03  0.00000000000E+00 0. -1.
<mgrwt>
<rscale>  0 0.15130586E+04</rscale>
<asrwt>0</asrwt>
<pdfrwt beam="1">  1        2 0.36846229E+00 0.15130586E+04</pdfrwt>
<pdfrwt beam="2">  1       -2 0.36764760E-01 0.15130586E+04</pdfrwt>
<totfact> 0.26974395E+01</totfact>
</mgrwt>
</event>
<event>
 6    1  0.1614874E-005  0.6285586E+03  0.7818608E-02  0.9847866E-01
          2   -1    0    0  501    0  0.00000000000E+00  0.00000000000E+00  0.47784248874E+03  0.47784248874E+03  0.00000000000E+00 0. -1.
         -2   -1    0    0    0  501 -0.00000000000E+00 -0.00000000000E+00 -0.20670297991E+03  0.20670297991E+03  0.00000000000E+00 0.  1.
         23    2    1    2    0    0 -0.12704932539E+03 -0.13291416968E+03  0.40737284470E+03  0.45570659655E+03  0.88927835661E+02 0.  0.
         11    1    3    3    0    0  0.12279559888E+02 -0.13442568950E+02  0.19956635356E+02  0.27014024983E+02  0.00000000000E+00 0. -1.
        -11    1    3    3    0    0 -0.13932888528E+03 -0.11947160073E+03  0.38741620934E+03  0.42869257156E+03  0.00000000000E+00 0.  1.
         22    1    1    2    0    0  0.12704932539E+03  0.13291416968E+03 -0.13623333588E+03  0.22883887211E+03  0.00000000000E+00 0.  1.
<mgrwt>
<rscale>  0 0.62855856E+03</rscale>
<asrwt>0</asrwt>
<pdfrwt beam="1">  1        2 0.73514229E-01 0.62855856E+03</pdfrwt>
<pdfrwt beam="2">  1       -2 0.31800459E-01 0.62855856E+03</pdfrwt>
<totfact> 0.60033402E+02</totfact>
</mgrwt>
</event>
<event>
 6    1  0.1614874E-005  0.1770542E+04  0.7818608E-02  0.8722124E-01
          2   -1    0    0  501    0  0.00000000000E+00  0.00000000000E+00  0.71275511637E+03  0.71275511637E+03  0.00000000000E+00 0. -1.
         -2   -1    0    0    0  501 -0.00000000000E+00 -0.00000000000E+00 -0.10995428948E+04  0.10995428948E+04  0.00000000000E+00 0.  1.
         23    2    1    2    0    0 -0.19512105511E+03 -0.84941464814E+03 -0.49080461885E+02  0.87761961609E+03  0.90718400494E+02 0.  0.
         13    1    3    3    0    0 -0.13068237413E+03 -0.37391828778E+03 -0.10645356891E+02  0.39623994305E+03  0.00000000000E+00 0. -1.
        -13    1    3    3    0    0 -0.64438680977E+02 -0.47549636036E+03 -0.38435104994E+02  0.48137967304E+03  0.00000000000E+00 0.  1.
         22    1    1    2    0    0  0.19512105511E+03  0.84941464814E+03 -0.33770731659E+03  0.93467839512E+03  0.00000000000E+00 0.  1.
<mgrwt>
<rscale>  0 0.17705421E+04</rscale>
<asrwt>0</asrwt>
<pdfrwt beam="1">  1        2 0.10965463E+00 0.17705421E+04</pdfrwt>
<pdfrwt beam="2">  1       -2 0.16916044E+00 0.17705421E+04</pdfrwt>
<totfact> 0.81825338E+00</totfact>
</mgrwt>
</event>
<event>
 6    1  0.1614874E-005  0.5280810E+04  0.7818608E-02  0.7786592E-01
          2   -1    0    0  501    0  0.00000000000E+00  0.00000000000E+00  0.43766474295E+04  0.43766474295E+04  0.00000000000E+00 0. -1.
         -2   -1    0    0    0  501 -0.00000000000E+00 -0.00000000000E+00 -0.15929404468E+04  0.15929404468E+04  0.00000000000E+00 0.  1.
         23    2    1    2    0    0  0.11049977624E+04  0.23401832388E+04  0.80489786128E+03  0.27118028642E+04  0.92393511636E+02 0.  0.
         13    1    3    3    0    0  0.17683419463E+03  0.44894039416E+03  0.16769996919E+03  0.51082393206E+03  0.00000000000E+00 0.  1.
        -13    1    3    3    0    0  0.92816356774E+03  0.18912428447E+04  0.63719789209E+03  0.22009789321E+04  0.00000000000E+00 0. -1.
         22    1    1    2    0    0 -0.11049977624E+04 -0.23401832388E+04  0.19788091215E+04  0.32577850121E+04  0.00000000000E+00 0. -1.
<mgrwt>
<rscale>  0 0.52808101E+04</rscale>
<asrwt>0</asrwt>
<pdfrwt beam="1">  1        2 0.67333037E+00 0.52808101E+04</pdfrwt>
<pdfrwt beam="2">  1       -2 0.24506776E+00 0.52808101E+04</pdfrwt>
<totfact> 0.78507458E-03</totfact>
</mgrwt>
</event>
<event>
 6    1  0.1614874E-005  0.1921030E+04  0.7818608E-02  0.8644459E-01
         -2   -1    0    0    0  501 -0.00000000000E+00  0.00000000000E+00  0.42332184939E+03  0.42332184939E+03  0.00000000000E+00 0.  1.
          2   -1    0    0  501    0  0.00000000000E+00 -0.00000000000E+00 -0.21794024378E+04  0.21794024378E+04  0.00000000000E+00 0. -1.
         23    2    1    2    0    0 -0.56981063814E+03 -0.62689025242E+03 -0.27243224118E+03  0.89424895224E+03  0.88240073767E+02 0.  0.
         11    1    3    3    0    0 -0.22120746644E+03 -0.25457393403E+03 -0.64064181211E+02  0.34328537751E+03  0.00000000000E+00 0. -1.
        -11    1    3    3    0    0 -0.34860317170E+03 -0.37231631839E+03 -0.20836805997E+03  0.55096357473E+03  0.00000000000E+00 0.  1.
         22    1    1    2    0    0  0.56981063814E+03  0.62689025242E+03 -0.14836483472E+04  0.17084753349E+04  0.00000000000E+00 0.  1.
<mgrwt>
<rscale>  0 0.19210296E+04</rscale>
<asrwt>0</asrwt>
<pdfrwt beam="1">  1        2 0.33529268E+00 0.19210296E+04</pdfrwt>
<pdfrwt beam="2">  1       -2 0.65126439E-01 0.19210296E+04</pdfrwt>
<totfact> 0.10781186E+01</totfact>
</mgrwt>
</event>
<event>
 6    1  0.1614874E-005  0.1844984E+04  0.7818608E-02  0.8682737E-01
          1   -1    0    0  501    0  0.00000000000E+00  0.00000000000E+00  0.95548967968E+03  0.95548967968E+03  0.00000000000E+00 0. -1.
         -1   -1    0    0    0  501 -0.00000000000E+00 -0.00000000000E+00 -0.89063350328E+03  0.89063350328E+03  0.00000000000E+00 0.  1.
         23    2    1    2    0    0 -0.69097137184E+03  0.20877555207E+03  0.60372992880E+03  0.94533819814E+03  0.90254163773E+02 0.  0.
         11    1    3    3    0    0 -0.56627007129E+03  0.14432015572E+03  0.51764326175E+03  0.78066935858E+03  0.00000000000E+00 0.  1.
        -11    1    3    3    0    0 -0.12470130055E+03  0.64455396347E+02  0.86086667050E+02  0.16466883956E+03  0.00000000000E+00 0. -1.
         22    1    1    2    0    0  0.69097137184E+03 -0.20877555207E+03 -0.53887375241E+03  0.90078498482E+03  0.00000000000E+00 0.  1.
<mgrwt>
<rscale>  0 0.18449836E+04</rscale>
<asrwt>0</asrwt>
<pdfrwt beam="1">  1        1 0.14699841E+00 0.18449836E+04</pdfrwt>
<pdfrwt beam="2">  1       -1 0.13702054E+00 0.18449836E+04</pdfrwt>
<totfact> 0.68387257E+00</totfact>
</mgrwt>
</event>
<event>
 6    1  0.1614874E-005  0.1400656E+04  0.7818608E-02  0.8953344E-01
         -1   -1    0    0    0  501 -0.00000000000E+00  0.00000000000E+00  0.53055999519E+03  0.53055999519E+03  0.00000000000E+00 0.  1.
          1   -1    0    0  501    0  0.00000000000E+00 -0.00000000000E+00 -0.92441866982E+03  0.92441866982E+03  0.00000000000E+00 0. -1.
         23    2    1    2    0    0 -0.47740932862E+03 -0.43943559016E+03  0.67315716833E+02  0.65892268438E+03  0.92867611746E+02 0.  0.
         13    1    3    3    0    0 -0.30350626546E+03 -0.32888355908E+03  0.69203137687E+02  0.45284602556E+03  0.00000000000E+00 0. -1.
        -13    1    3    3    0    0 -0.17390306316E+03 -0.11055203109E+03 -0.18874208539E+01  0.20607665882E+03  0.00000000000E+00 0.  1.
         22    1    1    2    0    0  0.47740932862E+03  0.43943559016E+03 -0.46117439147E+03  0.79605598063E+03  0.00000000000E+00 0. -1.
<mgrwt>
<rscale>  0 0.14006564E+04</rscale>
<asrwt>0</asrwt>
<pdfrwt beam="1">  1        1 0.14221825E+00 0.14006564E+04</pdfrwt>
<pdfrwt beam="2">  1       -1 0.81624616E-01 0.14006564E+04</pdfrwt>
<totfact> 0.25329092E+01</totfact>
</mgrwt>
</event>
<event>
 6    1  0.1614874E-005  0.1811320E+04  0.7818608E-02  0.8700303E-01
         -2   -1    0    0    0  501 -0.00000000000E+00  0.00000000000E+00  0.30773309224E+03  0.30773309224E+03  0.00000000000E+00 0.  1.
          2   -1    0    0  501    0  0.00000000000E+00 -0.00000000000E+00 -0.26653612457E+04  0.26653612457E+04  0.00000000000E+00 0. -1.
         23    2    1    2    0    0  0.73398788076E+03  0.25559172972E+03 -0.42553179506E+03  0.89053301121E+03  0.88917906193E+02 0.  0.
         13    1    3    3    0    0  0.23261797950E+03  0.38086139286E+02 -0.12342508500E+03  0.26607410621E+03  0.00000000000E+00 0. -1.
        -13    1    3    3    0    0  0.50136990127E+03  0.21750559044E+03 -0.30210671006E+03  0.62445890500E+03  0.00000000000E+00 0.  1.
         22    1    1    2    0    0 -0.73398788076E+03 -0.25559172972E+03 -0.19320963584E+04  0.20825613267E+04  0.00000000000E+00 0. -1.
<mgrwt>
<rscale>  0 0.18113198E+04</rscale>
<asrwt>0</asrwt>
<pdfrwt beam="1">  1        2 0.41005556E+00 0.18113198E+04</pdfrwt>
<pdfrwt beam="2">  1       -2 0.47343554E-01 0.18113198E+04</pdfrwt>
<totfact> 0.11125598E+01</totfact>
</mgrwt>
</event>
<event>
 6    1  0.1614874E-005  0.3111174E+04  0.7818608E-02  0.8212678E-01
         -2   -1    0    0    0  501 -0.00000000000E+00  0.00000000000E+00  0.23290839815E+04  0.23290839815E+04  0.00000000000E+00 0.  1.
          2   -1    0    0  501    0  0.00000000000E+00 -0.00000000000E+00 -0.10389711490E+04  0.10389711490E+04  0.00000000000E+00 0. -1.
         23    2    1    2    0    0 -0.36427588625E+03  0.82679611142E+03 -0.72343491813E+03  0.11610972073E+04  0.92194971751E+02 0.  0.
         13    1    3    3    0    0 -0.76210558974E+02  0.23515164447E+03 -0.24023230724E+03  0.34469683294E+03  0.00000000000E+00 0.  1.
        -13    1    3    3    0    0 -0.28806532727E+03  0.59164446694E+03 -0.48320261089E+03  0.81640037434E+03  0.00000000000E+00 0. -1.
         22    1    1    2    0    0  0.36427588625E+03 -0.82679611142E+03  0.20135477505E+04  0.22069579232E+04  0.00000000000E+00 0.  1.
<mgrwt>
<rscale>  0 0.31111741E+04</rscale>
<asrwt>0</asrwt>
<pdfrwt beam="1">  1        2 0.15984172E+00 0.31111741E+04</pdfrwt>
<pdfrwt beam="2">  1       -2 0.35832061E+00 0.31111741E+04</pdfrwt>
<totfact> 0.27796312E-01</totfact>
</mgrwt>
</event>
<event>
 6    1  0.1614874E-005  0.9194834E+03  0.7818608E-02  0.9401549E-01
          1   -1    0    0  501    0  0.00000000000E+00  0.00000000000E+00  0.76277694088E+03  0.76277694088E+03  0.00000000000E+00 0. -1.
         -1   -1    0    0    0  501 -0.00000000000E+00 -0.00000000000E+00 -0.27709597110E+03  0.27709597110E+03  0.00000000000E+00 0.  1.
         23    2    1    2    0    0  0.89536161053E+02  0.40658197313E+03  0.45435300956E+03  0.62237193462E+03  0.87089280001E+02 0.  0.
         11    1    3    3    0    0  0.18256610021E+01  0.20732067433E+03  0.21004306816E+03  0.29513265750E+03  0.00000000000E+00 0. -1.
        -11    1    3    3    0    0  0.87710500051E+02  0.19926129880E+03  0.24430994141E+03  0.32723927712E+03  0.00000000000E+00 0.  1.
         22    1    1    2    0    0 -0.89536161053E+02 -0.40658197313E+03  0.31327960208E+02  0.41750097736E+03  0.00000000000E+00 0.  1.
<mgrwt>
<rscale>  0 0.91948337E+03</rscale>
<asrwt>0</asrwt>
<pdfrwt beam="1">  1        1 0.11735030E+00 0.91948337E+03</pdfrwt>
<pdfrwt beam="2">  1       -1 0.42630150E-01 0.91948337E+03</pdfrwt>
<totfact> 0.12997101E+02</totfact>
</mgrwt>
</event>
<event>
 6    1  0.1614874E-005  0.3106157E+04  0.7818608E-02  0.8214050E-01
         -2   -1    0    0    0  501 -0.00000000000E+00  0.00000000000E+00  0.98482119839E+03  0.98482119839E+03  0.00000000000E+00 0.  1.
          2   -1    0    0  501    0  0.00000000000E+00 -0.00000000000E+00 -0.24492293266E+04  0.24492293266E+04  0.00000000000E+00 0. -1.
         23    2    1    2    0    0  0.10826620252E+04 -0.12058111953E+03  0.48863459897E+03  0.11977426836E+04  0.95534797350E+02 0.  0.
         11    1    3    3    0    0  0.59049038033E+03 -0.73701688359E+02  0.21535015953E+03  0.63284004246E+03  0.00000000000E+00 0. -1.
        -11    1    3    3    0    0  0.49217164491E+03 -0.46879431168E+02  0.27328443944E+03  0.56490264113E+03  0.00000000000E+00 0.  1.
         22    1    1    2    0    0 -0.10826620252E+04  0.12058111953E+03 -0.19530427272E+04  0.22363078414E+04  0.00000000000E+00 0. -1.
<mgrwt>
<rscale>  0 0.31061571E+04</rscale>
<asrwt>0</asrwt>
<pdfrwt beam="1">  1        2 0.37680451E+00 0.31061571E+04</pdfrwt>
<pdfrwt beam="2">  1       -2 0.15151095E+00 0.31061571E+04</pdfrwt>
<totfact> 0.92194625E-01</totfact>
</mgrwt>
</event>
<event>
 6    1  0.1614874E-005  0.3172567E+04  0.7818608E-02  0.8196100E-01
         -2   -1    0    0    0  501 -0.00000000000E+00  0.00000000000E+00  0.13652750722E+04  0.13652750722E+04  0.00000000000E+00 0.  1.
          2   -1    0    0  501    0  0.00000000000E+00 -0.00000000000E+00 -0.18430689496E+04  0.18430689496E+04  0.00000000000E+00 0. -1.
         23    2    1    2    0    0 -0.14138095377E+04  0.52973569143E+03  0.24886949400E+03  0.15327793507E+04  0.89438253545E+02 0.  0.
         13    1    3    3    0    0 -0.63066170577E+03  0.28353348491E+03  0.11922110507E+03  0.70166879372E+03  0.00000000000E+00 0. -1.
        -13    1    3    3    0    0 -0.78314783197E+03  0.24620220652E+03  0.12964838893E+03  0.83111055701E+03  0.00000000000E+00 0.  1.
         22    1    1    2    0    0  0.14138095377E+04 -0.52973569143E+03 -0.72666337143E+03  0.16755646711E+04  0.00000000000E+00 0. -1.
<mgrwt>
<rscale>  0 0.31725675E+04</rscale>
<asrwt>0</asrwt>
<pdfrwt beam="1">  1        2 0.28354907E+00 0.31725675E+04</pdfrwt>
<pdfrwt beam="2">  1       -2 0.21004232E+00 0.31725675E+04</pdfrwt>
<totfact> 0.78881662E-01</totfact>
</mgrwt>
</event>
<event>
 6    1  0.1614874E-005  0.4080440E+03  0.7818608E-02  0.1041029E+00
         -2   -1    0    0    0  501 -0.00000000000E+00  0.00000000000E+00  0.20621929642E+03  0.20621929642E+03  0.00000000000E+00 0.  1.
          2   -1    0    0  501    0  0.00000000000E+00 -0.00000000000E+00 -0.20184814286E+03  0.20184814286E+03  0.00000000000E+00 0. -1.
         23    2    1    2    0    0 -0.71520699463E+02 -0.16826938593E+02  0.18196502350E+03  0.21587498637E+03  0.89957676987E+02 0.  0.
         13    1    3    3    0    0 -0.66703254712E+02 -0.16935913087E+02  0.53110220567E+02  0.86930114862E+02  0.00000000000E+00 0.  1.
        -13    1    3    3    0    0 -0.48174447516E+01  0.10897449453E+00  0.12885480293E+03  0.12894487151E+03  0.00000000000E+00 0. -1.
         22    1    1    2    0    0  0.71520699463E+02  0.16826938593E+02 -0.17759386994E+03  0.19219245290E+03  0.00000000000E+00 0. -1.
<mgrwt>
<rscale>  0 0.40804403E+03</rscale>
<asrwt>0</asrwt>
<pdfrwt beam="1">  1        2 0.31053561E-01 0.40804403E+03</pdfrwt>
<pdfrwt beam="2">  1       -2 0.31726045E-01 0.40804403E+03</pdfrwt>
<totfact> 0.15682871E+03</totfact>
</mgrwt>
</event>
<event>
 6    1  0.1614874E-005  0.2712858E+04  0.7818608E-02  0.8330845E-01
          2   -1    0    0  501    0  0.00000000000E+00  0.00000000000E+00  0.23048518567E+04  0.23048518567E+04  0.00000000000E+00 0. -1.
         -2   -1    0    0    0  501 -0.00000000000E+00 -0.00000000000E+00 -0.79827235025E+03  0.79827235025E+03  0.00000000000E+00 0.  1.
         23    2    1    2    0    0 -0.62715127656E+03 -0.12510971669E+03 -0.61215186498E+03  0.88998304805E+03  0.91480900327E+02 0.  0.
         11    1    3    3    0    0 -0.37257521921E+03 -0.66270377055E+02 -0.30002559942E+03  0.48292796269E+03  0.00000000000E+00 0. -1.
        -11    1    3    3    0    0 -0.25457605735E+03 -0.58839339638E+02 -0.31212626556E+03  0.40705508536E+03  0.00000000000E+00 0.  1.
         22    1    1    2    0    0  0.62715127656E+03  0.12510971669E+03  0.21187313714E+04  0.22131411589E+04  0.00000000000E+00 0. -1.
<mgrwt>
<rscale>  0 0.27128579E+04</rscale>
<asrwt>0</asrwt>
<pdfrwt beam="1">  1        2 0.35459259E+00 0.27128579E+04</pdfrwt>
<pdfrwt beam="2">  1       -2 0.12281113E+00 0.27128579E+04</pdfrwt>
<totfact> 0.19784560E+00</totfact>
</mgrwt>
</event>
<event>
 6    1  0.1614874E-005  0.1672485E+04  0.7818608E-02  0.8777215E-01
          2   -1    0    0  501    0  0.00000000000E+00  0.00000000000E+00  0.10339897430E+04  0.10339897430E+04  0.00000000000E+00 0. -1.
         -2   -1    0    0    0  501 -0.00000000000E+00 -0.00000000000E+00 -0.67631339773E+03  0.67631339773E+03  0.00000000000E+00 0.  1.
         23    2    1    2    0    0 -0.42429552349E+03  0.51962238912E+02 -0.55266097984E+03  0.70459900381E+03  0.91097925375E+02 0.  0.
         11    1    3    3    0    0 -0.13878753216E+03 -0.20223618788E+02 -0.14541751497E+03  0.20203273868E+03  0.00000000000E+00 0. -1.
        -11    1    3    3    0    0 -0.28550799133E+03  0.72185857699E+02 -0.40724346487E+03  0.50256626513E+03  0.00000000000E+00 0.  1.
         22    1    1    2    0    0  0.42429552349E+03 -0.51962238912E+02  0.91033732506E+03  0.10057041369E+04  0.00000000000E+00 0. -1.
<mgrwt>
<rscale>  0 0.16724845E+04</rscale>
<asrwt>0</asrwt>
<pdfrwt beam="1">  1        2 0.15907534E+00 0.16724845E+04</pdfrwt>
<pdfrwt beam="2">  1       -2 0.10404822E+00 0.16724845E+04</pdfrwt>
<totfact> 0.17169455E+01</totfact>
</mgrwt>
</event>
<event>
 6    1  0.1614874E-005  0.2861762E+04  0.7818608E-02  0.8284346E-01
         -2   -1    0    0    0  501 -0.00000000000E+00  0.00000000000E+00  0.21328842111E+04  0.21328842111E+04  0.00000000000E+00 0.  1.
          2   -1    0    0  501    0  0.00000000000E+00 -0.00000000000E+00 -0.95993069454E+03  0.95993069454E+03  0.00000000000E+00 0. -1.
         23    2    1    2    0    0 -0.74748803695E+03  0.12093560967E+04  0.42670116719E+03  0.14871458541E+04  0.90820544641E+02 0.  0.
         13    1    3    3    0    0 -0.44480058890E+03  0.78060228181E+03  0.23805996770E+03  0.92944071057E+03  0.00000000000E+00 0. -1.
        -13    1    3    3    0    0 -0.30268744805E+03  0.42875381490E+03  0.18864119949E+03  0.55770514355E+03  0.00000000000E+00 0.  1.
         22    1    1    2    0    0  0.74748803695E+03 -0.12093560967E+04  0.74625234936E+03  0.16056690515E+04  0.00000000000E+00 0.  1.
<mgrwt>
<rscale>  0 0.28617624E+04</rscale>
<asrwt>0</asrwt>
<pdfrwt beam="1">  1        2 0.14768165E+00 0.28617624E+04</pdfrwt>
<pdfrwt beam="2">  1       -2 0.32813603E+00 0.28617624E+04</pdfrwt>
<totfact> 0.49362427E-01</totfact>
</mgrwt>
</event>
<event>
 6    1  0.1614874E-005  0.1737239E+04  0.7818608E-02  0.8740406E-01
          1   -1    0    0  501    0  0.00000000000E+00  0.00000000000E+00  0.61865748781E+03  0.61865748781E+03  0.00000000000E+00 0. -1.
         -1   -1    0    0    0  501 -0.00000000000E+00 -0.00000000000E+00 -0.12195766452E+04  0.12195766452E+04  0.00000000000E+00 0.  1.
         23    2    1    2    0    0  0.50254494725E+03  0.52695640631E+03 -0.79714763339E+03  0.10840855448E+04  0.97788756822E+02 0.  0.
         13    1    3    3    0    0  0.24316063840E+03  0.26892047111E+03 -0.46752120472E+03  0.59162605817E+03  0.00000000000E+00 0. -1.
        -13    1    3    3    0    0  0.25938430885E+03  0.25803593520E+03 -0.32962642868E+03  0.49245948667E+03  0.00000000000E+00 0.  1.
         22    1    1    2    0    0 -0.50254494725E+03 -0.52695640631E+03  0.19622847604E+03  0.75414858812E+03  0.00000000000E+00 0. -1.
<mgrwt>
<rscale>  0 0.17372394E+04</rscale>
<asrwt>0</asrwt>
<pdfrwt beam="1">  1        1 0.95178077E-01 0.17372394E+04</pdfrwt>
<pdfrwt beam="2">  1       -1 0.18762717E+00 0.17372394E+04</pdfrwt>
<totfact> 0.57052720E+00</totfact>
</mgrwt>
</event>
<event>
 6    1  0.1614874E-005  0.9075575E+03  0.7818608E-02  0.9416183E-01
         -1   -1    0    0    0  501 -0.00000000000E+00  0.00000000000E+00  0.37538366672E+03  0.37538366672E+03  0.00000000000E+00 0.  1.
          1   -1    0    0  501    0  0.00000000000E+00 -0.00000000000E+00 -0.54854589409E+03  0.54854589409E+03  0.00000000000E+00 0. -1.
         23    2    1    2    0    0 -0.13673749149E+03 -0.40371775550E+03 -0.23132819829E+03  0.49373373580E+03  0.92601829641E+02 0.  0.
         13    1    3    3    0    0 -0.42391479654E+02 -0.13481982662E+03 -0.29077651615E+02  0.14428767453E+03  0.00000000000E+00 0. -1.
        -13    1    3    3    0    0 -0.94346011838E+02 -0.26889792888E+03 -0.20225054667E+03  0.34944606127E+03  0.00000000000E+00 0.  1.
         22    1    1    2    0    0  0.13673749149E+03  0.40371775550E+03  0.58165970919E+02  0.43019582502E+03  0.00000000000E+00 0.  1.
<mgrwt>
<rscale>  0 0.90755753E+03</rscale>
<asrwt>0</asrwt>
<pdfrwt beam="1">  1        1 0.84391676E-01 0.90755753E+03</pdfrwt>
<pdfrwt beam="2">  1       -1 0.57751333E-01 0.90755753E+03</pdfrwt>
<totfact> 0.11915480E+02</totfact>
</mgrwt>
</event>
<event>
 6    1  0.1614874E-005  0.3006282E+03  0.7818608E-02  0.1084927E+00
          1   -1    0    0  501    0  0.00000000000E+00  0.00000000000E+00  0.94448196250E+03  0.94448196250E+03  0.00000000000E+00 0. -1.
         -1   -1    0    0    0  501 -0.00000000000E+00 -0.00000000000E+00 -0.23922450596E+02  0.23922450596E+02  0.00000000000E+00 0.  1.
         23    2    1    2    0    0  0.46343025285E+02 -0.12255189082E+03  0.62151497296E+03  0.64191662127E+03  0.92787095640E+02 0.  0.
         13    1    3    3    0    0  0.13378155079E+02 -0.12481569180E+03  0.44653637401E+03  0.46384551875E+03  0.00000000000E+00 0. -1.
        -13    1    3    3    0    0  0.32964870206E+02  0.22638009783E+01  0.17497859895E+03  0.17807110252E+03  0.00000000000E+00 0.  1.
         22    1    1    2    0    0 -0.46343025285E+02  0.12255189082E+03  0.29904453894E+03  0.32648779182E+03  0.00000000000E+00 0.  1.
<mgrwt>
<rscale>  0 0.30062816E+03</rscale>
<asrwt>0</asrwt>
<pdfrwt beam="1">  1        1 0.14530489E+00 0.30062816E+03</pdfrwt>
<pdfrwt beam="2">  1       -1 0.36803777E-02 0.30062816E+03</pdfrwt>
<totfact> 0.49150775E+03</totfact>
</mgrwt>
</event>
<event>
 6    1  0.1614874E-005  0.2576755E+04  0.7818608E-02  0.8376140E-01
          2   -1    0    0  501    0  0.00000000000E+00  0.00000000000E+00  0.22446468251E+04  0.22446468251E+04  0.00000000000E+00 0. -1.
         -2   -1    0    0    0  501 -0.00000000000E+00 -0.00000000000E+00 -0.73949998630E+03  0.73949998630E+03  0.00000000000E+00 0.  1.
         23    2    1    2    0    0 -0.48139579252E+03 -0.10759973113E+04  0.13511493542E+04  0.17953544207E+04  0.90447748562E+02 0.  0.
         13    1    3    3    0    0 -0.25901249874E+03 -0.67845258816E+03  0.85586103638E+03  0.11224453227E+04  0.00000000000E+00 0.  1.
        -13    1    3    3    0    0 -0.22238329377E+03 -0.39754472319E+03  0.49528831786E+03  0.67290909794E+03  0.00000000000E+00 0. -1.
         22    1    1    2    0    0  0.48139579252E+03  0.10759973113E+04  0.15399748458E+03  0.11887923908E+04  0.00000000000E+00 0.  1.
<mgrwt>
<rscale>  0 0.25767548E+04</rscale>
<asrwt>0</asrwt>
<pdfrwt beam="1">  1        2 0.34533028E+00 0.25767548E+04</pdfrwt>
<pdfrwt beam="2">  1       -2 0.11376923E+00 0.25767548E+04</pdfrwt>
<totfact> 0.26139636E+00</totfact>
</mgrwt>
</event>
<event>
 6    1  0.1614874E-005  0.4869654E+04  0.7818608E-02  0.7848935E-01
         -1   -1    0    0    0  501 -0.00000000000E+00  0.00000000000E+00  0.17504348514E+04  0.17504348514E+04  0.00000000000E+00 0.  1.
          1   -1    0    0  501    0  0.00000000000E+00 -0.00000000000E+00 -0.33868052498E+04  0.33868052498E+04  0.00000000000E+00 0. -1.
         23    2    1    2    0    0  0.15636119917E+04 -0.16700812677E+04 -0.16949356015E+04  0.28486851456E+04  0.90257765057E+02 0.  0.
         13    1    3    3    0    0  0.81570029228E+03 -0.88905260123E+03 -0.83978774259E+03  0.14700424984E+04  0.00000000000E+00 0. -1.
        -13    1    3    3    0    0  0.74791169945E+03 -0.78102866652E+03 -0.85514785888E+03  0.13786426472E+04  0.00000000000E+00 0.  1.
         22    1    1    2    0    0 -0.15636119917E+04  0.16700812677E+04  0.58565203082E+02  0.22885549556E+04  0.00000000000E+00 0.  1.
<mgrwt>
<rscale>  0 0.48696538E+04</rscale>
<asrwt>0</asrwt>
<pdfrwt beam="1">  1        1 0.52104696E+00 0.48696538E+04</pdfrwt>
<pdfrwt beam="2">  1       -1 0.26929767E+00 0.48696538E+04</pdfrwt>
<totfact> 0.11656688E-02</totfact>
</mgrwt>
</event>
<event>
 6    1  0.1614874E-005  0.2924506E+04  0.7818608E-02  0.8265623E-01
          1   -1    0    0  501    0  0.00000000000E+00  0.00000000000E+00  0.10607892807E+04  0.10607892807E+04  0.00000000000E+00 0. -1.
         -1   -1    0    0    0  501 -0.00000000000E+00 -0.00000000000E+00 -0.20156533542E+04  0.20156533542E+04  0.00000000000E+00 0.  1.
         23    2    1    2    0    0  0.14518857853E+04 -0.15987419488E+03 -0.50040008196E+03  0.15467140279E+04  0.91607587984E+02 0.  0.
         13    1    3    3    0    0  0.11639396548E+04 -0.91195610875E+02 -0.40003525243E+03  0.12341395232E+04  0.00000000000E+00 0.  1.
        -13    1    3    3    0    0  0.28794613053E+03 -0.68678584002E+02 -0.10036482953E+03  0.31257450471E+03  0.00000000000E+00 0. -1.
         22    1    1    2    0    0 -0.14518857853E+04  0.15987419488E+03 -0.45446399152E+03  0.15297286071E+04  0.00000000000E+00 0. -1.
<mgrwt>
<rscale>  0 0.29245058E+04</rscale>
<asrwt>0</asrwt>
<pdfrwt beam="1">  1        1 0.16319835E+00 0.29245058E+04</pdfrwt>
<pdfrwt beam="2">  1       -1 0.31010051E+00 0.29245058E+04</pdfrwt>
<totfact> 0.33020139E-01</totfact>
</mgrwt>
</event>
<event>
 6    1  0.1614874E-005  0.5882768E+03  0.7818608E-02  0.9930031E-01
         -1   -1    0    0    0  501 -0.00000000000E+00  0.00000000000E+00  0.62194671917E+03  0.62194671917E+03  0.00000000000E+00 0.  1.
          1   -1    0    0  501    0  0.00000000000E+00 -0.00000000000E+00 -0.13910742389E+03  0.13910742389E+03  0.00000000000E+00 0. -1.
         23    2    1    2    0    0  0.80418355641E+02 -0.25933621628E+03  0.12652384708E+03  0.31307748783E+03  0.91032107031E+02 0.  0.
         13    1    3    3    0    0  0.34806158846E+02 -0.46920990386E+02  0.64746906805E+02  0.87207854998E+02  0.00000000000E+00 0.  1.
        -13    1    3    3    0    0  0.45612196795E+02 -0.21241522589E+03  0.61776940273E+02  0.22586963284E+03  0.00000000000E+00 0. -1.
         22    1    1    2    0    0 -0.80418355641E+02  0.25933621628E+03  0.35631544821E+03  0.44797665523E+03  0.00000000000E+00 0. -1.
<mgrwt>
<rscale>  0 0.58827683E+03</rscale>
<asrwt>0</asrwt>
<pdfrwt beam="1">  1        1 0.21401143E-01 0.58827683E+03</pdfrwt>
<pdfrwt beam="2">  1       -1 0.95684109E-01 0.58827683E+03</pdfrwt>
<totfact> 0.25695357E+02</totfact>
</mgrwt>
</event>
<event>
 6    1  0.1614874E-005  0.5311629E+04  0.7818608E-02  0.7782155E-01
          2   -1    0    0  501    0  0.00000000000E+00  0.00000000000E+00  0.44403431573E+04  0.44403431573E+04  0.00000000000E+00 0. -1.
         -2   -1    0    0    0  501 -0.00000000000E+00 -0.00000000000E+00 -0.15884698982E+04  0.15884698982E+04  0.00000000000E+00 0.  1.
         23    2    1    2    0    0  0.16603844882E+03  0.12502599994E+04  0.40781175085E+04  0.42697241460E+04  0.93717859381E+02 0.  0.
         13    1    3    3    0    0  0.42076610642E+02  0.46697524659E+03  0.13800008080E+04  0.14574767758E+04  0.00000000000E+00 0. -1.
        -13    1    3    3    0    0  0.12396183817E+03  0.78328475281E+03  0.26981167005E+04  0.28122473702E+04  0.00000000000E+00 0.  1.
         22    1    1    2    0    0 -0.16603844882E+03 -0.12502599994E+04 -0.12262442494E+04  0.17590889096E+04  0.00000000000E+00 0.  1.
<mgrwt>
<rscale>  0 0.53116293E+04</rscale>
<asrwt>0</asrwt>
<pdfrwt beam="1">  1        2 0.68312971E+00 0.53116293E+04</pdfrwt>
<pdfrwt beam="2">  1       -2 0.24437999E+00 0.53116293E+04</pdfrwt>
<totfact> 0.68819414E-03</totfact>
</mgrwt>
</event>
<event>
 6    1  0.1614874E-005  0.9934069E+03  0.7818608E-02  0.9315806E-01
          2   -1    0    0  501    0  0.00000000000E+00  0.00000000000E+00  0.20824789704E+03  0.20824789704E+03  0.00000000000E+00 0. -1.
         -2   -1    0    0    0  501 -0.00000000000E+00 -0.00000000000E+00 -0.11847146025E+04  0.11847146025E+04  0.00000000000E+00 0.  1.
         23    2    1    2    0    0  0.17186244320E+03 -0.43907035801E+03 -0.69102255838E+03  0.84178390802E+03  0.93640231466E+02 0.  0.
         11    1    3    3    0    0  0.11401200962E+03 -0.24557047993E+03 -0.46983909115E+03  0.54226595922E+03  0.00000000000E+00 0. -1.
        -11    1    3    3    0    0  0.57850433586E+02 -0.19349987807E+03 -0.22118346723E+03  0.29951794880E+03  0.00000000000E+00 0.  1.
         22    1    1    2    0    0 -0.17186244320E+03  0.43907035801E+03 -0.28544414713E+03  0.55117859156E+03  0.00000000000E+00 0. -1.
<mgrwt>
<rscale>  0 0.99340691E+03</rscale>
<asrwt>0</asrwt>
<pdfrwt beam="1">  1        2 0.32038139E-01 0.99340691E+03</pdfrwt>
<pdfrwt beam="2">  1       -2 0.18226378E+00 0.99340691E+03</pdfrwt>
<totfact> 0.28877767E+01</totfact>
</mgrwt>
</event>
<event>
 6    1  0.1614874E-005  0.1764140E+04  0.7818608E-02  0.8725605E-01
          2   -1    0    0  501    0  0.00000000000E+00  0.00000000000E+00  0.15450511133E+04  0.15450511133E+04  0.00000000000E+00 0. -1.
         -2   -1    0    0    0  501 -0.00000000000E+00 -0.00000000000E+00 -0.50357411728E+03  0.50357411728E+03  0.00000000000E+00 0.  1.
         23    2    1    2    0    0  0.82767543961E+03 -0.18350594838E+03  0.79455782703E+03  0.11656245837E+04  0.92937953364E+02 0.  0.
         11    1    3    3    0    0  0.94873470630E+02 -0.10040404357E+02  0.54878864785E+02  0.11006123273E+03  0.00000000000E+00 0. -1.
        -11    1    3    3    0    0  0.73280196898E+03 -0.17346554402E+03  0.73967896224E+03  0.10555633510E+04  0.00000000000E+00 0.  1.
         22    1    1    2    0    0 -0.82767543961E+03  0.18350594838E+03  0.24691916900E+03  0.88300064691E+03  0.00000000000E+00 0.  1.
<mgrwt>
<rscale>  0 0.17641403E+04</rscale>
<asrwt>0</asrwt>
<pdfrwt beam="1">  1        2 0.23770017E+00 0.17641403E+04</pdfrwt>
<pdfrwt beam="2">  1       -2 0.77472941E-01 0.17641403E+04</pdfrwt>
<totfact> 0.16837703E+01</totfact>
</mgrwt>
</event>
<event>
 6    1  0.1614874E-005  0.4146214E+04  0.7818608E-02  0.7975683E-01
         -2   -1    0    0    0  501 -0.00000000000E+00  0.00000000000E+00  0.19227362187E+04  0.19227362187E+04  0.00000000000E+00 0.  1.
          2   -1    0    0  501    0  0.00000000000E+00 -0.00000000000E+00 -0.22352378730E+04  0.22352378730E+04  0.00000000000E+00 0. -1.
         23    2    1    2    0    0  0.17346241629E+04  0.49866166777E+03  0.86442129693E+03  0.20032740944E+04  0.91095956428E+02 0.  0.
         13    1    3    3    0    0  0.59594666966E+03  0.20584571288E+03  0.27083328348E+03  0.68620372925E+03  0.00000000000E+00 0. -1.
        -13    1    3    3    0    0  0.11386774932E+04  0.29281595489E+03  0.59358801345E+03  0.13170703651E+04  0.00000000000E+00 0.  1.
         22    1    1    2    0    0 -0.17346241629E+04 -0.49866166777E+03 -0.11769229512E+04  0.21546999973E+04  0.00000000000E+00 0. -1.
<mgrwt>
<rscale>  0 0.41462141E+04</rscale>
<asrwt>0</asrwt>
<pdfrwt beam="1">  1        2 0.34388275E+00 0.41462141E+04</pdfrwt>
<pdfrwt beam="2">  1       -2 0.29580557E+00 0.41462141E+04</pdfrwt>
<totfact> 0.12968466E-01</totfact>
</mgrwt>
</event>
<event>
 6    1  0.1614874E-005  0.3319469E+04  0.7818608E-02  0.8157959E-01
         -1   -1    0    0    0  501 -0.00000000000E+00  0.00000000000E+00  0.20539057156E+04  0.20539057156E+04  0.00000000000E+00 0.  1.
          1   -1    0    0  501    0  0.00000000000E+00 -0.00000000000E+00 -0.13412098823E+04  0.13412098823E+04  0.00000000000E+00 0. -1.
         23    2    1    2    0    0 -0.99050716359E+02  0.63956530824E+03 -0.12052384737E+04  0.13709301237E+04  0.89413632686E+02 0.  0.
         11    1    3    3    0    0 -0.81777871399E+02  0.34319213898E+03 -0.72610511595E+03  0.80727758789E+03  0.00000000000E+00 0. -1.
        -11    1    3    3    0    0 -0.17272844960E+02  0.29637316925E+03 -0.47913335776E+03  0.56365253583E+03  0.00000000000E+00 0.  1.
         22    1    1    2    0    0  0.99050716359E+02 -0.63956530824E+03  0.19179343070E+04  0.20241854742E+04  0.00000000000E+00 0.  1.
<mgrwt>
<rscale>  0 0.33194690E+04</rscale>
<asrwt>0</asrwt>
<pdfrwt beam="1">  1        1 0.20633998E+00 0.33194690E+04</pdfrwt>
<pdfrwt beam="2">  1       -1 0.31598550E+00 0.33194690E+04</pdfrwt>
<totfact> 0.18198779E-01</totfact>
</mgrwt>
</event>
<event>
 6    1  0.1614874E-005  0.1411058E+04  0.7818608E-02  0.8945853E-01
          3   -1    0    0  501    0  0.00000000000E+00  0.00000000000E+00  0.87775290801E+03  0.87775290801E+03  0.00000000000E+00 0. -1.
         -3   -1    0    0    0  501 -0.00000000000E+00 -0.00000000000E+00 -0.56709728433E+03  0.56709728433E+03  0.00000000000E+00 0.  1.
         23    2    1    2    0    0  0.46123354621E+03  0.50711834473E+03  0.31382983218E+03  0.75934638103E+03  0.90622089471E+02 0.  0.
         13    1    3    3    0    0  0.90210751023E+02  0.15829666789E+03  0.80532843566E+02  0.19920179105E+03  0.00000000000E+00 0.  1.
        -13    1    3    3    0    0  0.37102279519E+03  0.34882167684E+03  0.23329698861E+03  0.56014458998E+03  0.00000000000E+00 0. -1.
         22    1    1    2    0    0 -0.46123354621E+03 -0.50711834473E+03 -0.31742085008E+01  0.68550381131E+03  0.00000000000E+00 0.  1.
<mgrwt>
<rscale>  0 0.14110582E+04</rscale>
<asrwt>0</asrwt>
<pdfrwt beam="1">  1        3 0.13503891E+00 0.14110582E+04</pdfrwt>
<pdfrwt beam="2">  1       -3 0.87245736E-01 0.14110582E+04</pdfrwt>
<totfact> 0.12897925E+00</totfact>
</mgrwt>
</event>
<event>
 6    1  0.2147987E-005  0.3060354E+04  0.7818608E-02  0.8226703E-01
         -1   -1    0    0    0  501 -0.00000000000E+00  0.00000000000E+00  0.10866356170E+04  0.10866356170E+04  0.00000000000E+00 0.  1.
          1   -1    0    0  501    0  0.00000000000E+00 -0.00000000000E+00 -0.21547619128E+04  0.21547619128E+04  0.00000000000E+00 0. -1.
         23    2    1    2    0    0  0.98980154720E+03 -0.11444003662E+04 -0.30186949723E+03  0.15453701767E+04  0.87661215971E+02 0.  0.
         11    1    3    3    0    0  0.76946502337E+03 -0.83346256636E+03 -0.23583352195E+03  0.11585998972E+04  0.00000000000E+00 0. -1.
        -11    1    3    3    0    0  0.22033652382E+03 -0.31093779981E+03 -0.66035975282E+02  0.38677027951E+03  0.00000000000E+00 0.  1.
         22    1    1    2    0    0 -0.98980154720E+03  0.11444003662E+04 -0.76625679866E+03  0.16960273531E+04  0.00000000000E+00 0. -1.
<mgrwt>
<rscale>  0 0.30603536E+04</rscale>
<asrwt>0</asrwt>
<pdfrwt beam="1">  1        1 0.33150183E+00 0.30603536E+04</pdfrwt>
<pdfrwt beam="2">  1       -1 0.16717471E+00 0.30603536E+04</pdfrwt>
<totfact> 0.51122306E-01</totfact>
</mgrwt>
</event>
<event>
 6    1  0.1614874E-005  0.1644339E+04  0.7818608E-02  0.8793762E-01
         -2   -1    0    0    0  501 -0.00000000000E+00  0.00000000000E+00  0.56084720468E+03  0.56084720468E+03  0.00000000000E+00 0.  1.
          2   -1    0    0  501    0  0.00000000000E+00 -0.00000000000E+00 -0.12052530475E+04  0.12052530475E+04  0.00000000000E+00 0. -1.
         23    2    1    2    0    0 -0.48644967834E+03  0.11985207309E+03 -0.10196442971E+04  0.11401595948E+04  0.96392945955E+02 0.  0.
         13    1    3    3    0    0 -0.39640113135E+03  0.11778897242E+03 -0.75829223245E+03  0.86372171951E+03  0.00000000000E+00 0.  1.
        -13    1    3    3    0    0 -0.90048546993E+02  0.20631006662E+01 -0.26135206464E+03  0.27643787529E+03  0.00000000000E+00 0. -1.
         22    1    1    2    0    0  0.48644967834E+03 -0.11985207309E+03  0.37523845428E+03  0.62594065738E+03  0.00000000000E+00 0.  1.
<mgrwt>
<rscale>  0 0.16443391E+04</rscale>
<asrwt>0</asrwt>
<pdfrwt beam="1">  1        2 0.18542355E+00 0.16443391E+04</pdfrwt>
<pdfrwt beam="2">  1       -2 0.86284186E-01 0.16443391E+04</pdfrwt>
<totfact> 0.20927384E+01</totfact>
</mgrwt>
</event>
<event>
 6    1  0.1614874E-005  0.1392052E+04  0.7818608E-02  0.8959592E-01
          2   -1    0    0  501    0  0.00000000000E+00  0.00000000000E+00  0.11770488089E+04  0.11770488089E+04  0.00000000000E+00 0. -1.
         -2   -1    0    0    0  501 -0.00000000000E+00 -0.00000000000E+00 -0.41158213052E+03  0.41158213052E+03  0.00000000000E+00 0.  1.
         23    2    1    2    0    0 -0.65894138300E+03  0.99128829388E+02  0.16668580104E+03  0.69276889080E+03  0.90079457933E+02 0.  0.
         11    1    3    3    0    0 -0.32941904316E+03  0.95091446550E+02  0.84496188615E+02  0.35312730720E+03  0.00000000000E+00 0.  1.
        -11    1    3    3    0    0 -0.32952233985E+03  0.40373828373E+01  0.82189612425E+02  0.33964158360E+03  0.00000000000E+00 0. -1.
         22    1    1    2    0    0  0.65894138300E+03 -0.99128829388E+02  0.59878087729E+03  0.89586204857E+03  0.00000000000E+00 0. -1.
<mgrwt>
<rscale>  0 0.13920521E+04</rscale>
<asrwt>0</asrwt>
<pdfrwt beam="1">  1        2 0.18108443E+00 0.13920521E+04</pdfrwt>
<pdfrwt beam="2">  1       -2 0.63320328E-01 0.13920521E+04</pdfrwt>
<totfact> 0.43973436E+01</totfact>
</mgrwt>
</event>
<event>
 6    1  0.1614874E-005  0.2369636E+04  0.7818608E-02  0.8450960E-01
         -2   -1    0    0    0  501 -0.00000000000E+00  0.00000000000E+00  0.39643772360E+03  0.39643772360E+03  0.00000000000E+00 0. -1.
          2   -1    0    0  501    0  0.00000000000E+00 -0.00000000000E+00 -0.35410194021E+04  0.35410194021E+04  0.00000000000E+00 0.  1.
         23    2    1    2    0    0  0.31962196653E+03 -0.28551658358E+03 -0.34070798588E+04  0.34348805489E+04  0.80828832113E+02 0.  0.
         13    1    3    3    0    0  0.48662212660E+02 -0.88247524385E+02 -0.74524179257E+03  0.75202457798E+03  0.00000000000E+00 0. -1.
        -13    1    3    3    0    0  0.27095975387E+03 -0.19726905919E+03 -0.26618380662E+04  0.26828559709E+04  0.00000000000E+00 0.  1.
         22    1    1    2    0    0 -0.31962196653E+03  0.28551658358E+03  0.26249818022E+03  0.50257657686E+03  0.00000000000E+00 0. -1.
<mgrwt>
<rscale>  0 0.23696360E+04</rscale>
<asrwt>0</asrwt>
<pdfrwt beam="1">  1        2 0.54477220E+00 0.23696360E+04</pdfrwt>
<pdfrwt beam="2">  1       -2 0.60990421E-01 0.23696360E+04</pdfrwt>
<totfact> 0.17193845E+00</totfact>
</mgrwt>
</event>
<event>
 6    1  0.1614874E-005  0.1639736E+04  0.7818608E-02  0.8796502E-01
         -1   -1    0    0    0  501 -0.00000000000E+00  0.00000000000E+00  0.74017946486E+03  0.74017946486E+03  0.00000000000E+00 0.  1.
          1   -1    0    0  501    0  0.00000000000E+00 -0.00000000000E+00 -0.90813558702E+03  0.90813558702E+03  0.00000000000E+00 0. -1.
         23    2    1    2    0    0 -0.75199070005E+03  0.17961370257E+03  0.18211946837E+03  0.79960779127E+03  0.91945766532E+02 0.  0.
         13    1    3    3    0    0 -0.24297490056E+03  0.92199418590E+02  0.89779756407E+02  0.27495079514E+03  0.00000000000E+00 0.  1.
        -13    1    3    3    0    0 -0.50901579950E+03  0.87414283982E+02  0.92339711967E+02  0.52465699613E+03  0.00000000000E+00 0. -1.
         22    1    1    2    0    0  0.75199070005E+03 -0.17961370257E+03 -0.35007559054E+03  0.84870726061E+03  0.00000000000E+00 0.  1.
<mgrwt>
<rscale>  0 0.16397357E+04</rscale>
<asrwt>0</asrwt>
<pdfrwt beam="1">  1        1 0.13971317E+00 0.16397357E+04</pdfrwt>
<pdfrwt beam="2">  1       -1 0.11387376E+00 0.16397357E+04</pdfrwt>
<totfact> 0.12047608E+01</totfact>
</mgrwt>
</event>
<event>
 6    1  0.1614874E-005  0.3198213E+04  0.7818608E-02  0.8189289E-01
         -2   -1    0    0    0  501 -0.00000000000E+00  0.00000000000E+00  0.89395372165E+03  0.89395372165E+03  0.00000000000E+00 0.  1.
          2   -1    0    0  501    0  0.00000000000E+00 -0.00000000000E+00 -0.28604857732E+04  0.28604857732E+04  0.00000000000E+00 0. -1.
         23    2    1    2    0    0 -0.16524820288E+03 -0.14585470776E+04 -0.17246428759E+04  0.22667644902E+04  0.95716553134E+02 0.  0.
         11    1    3    3    0    0 -0.47956185850E+02 -0.26016393150E+03 -0.26324894244E+03  0.37320915411E+03  0.00000000000E+00 0.  1.
        -11    1    3    3    0    0 -0.11729201703E+03 -0.11983831461E+04 -0.14613939335E+04  0.18935553361E+04  0.00000000000E+00 0. -1.
         22    1    1    2    0    0  0.16524820288E+03  0.14585470776E+04 -0.24188917565E+03  0.14876750046E+04  0.00000000000E+00 0.  1.
<mgrwt>
<rscale>  0 0.31982132E+04</rscale>
<asrwt>0</asrwt>
<pdfrwt beam="1">  1        2 0.44007473E+00 0.31982132E+04</pdfrwt>
<pdfrwt beam="2">  1       -2 0.13753134E+00 0.31982132E+04</pdfrwt>
<totfact> 0.67259481E-01</totfact>
</mgrwt>
</event>
<event>
 6    1  0.1614874E-005  0.1633163E+04  0.7818608E-02  0.8800430E-01
         -2   -1    0    0    0  501 -0.00000000000E+00  0.00000000000E+00  0.42779361731E+03  0.42779361731E+03  0.00000000000E+00 0. -1.
          2   -1    0    0  501    0  0.00000000000E+00 -0.00000000000E+00 -0.15587072830E+04  0.15587072830E+04  0.00000000000E+00 0.  1.
         23    2    1    2    0    0 -0.52991563540E+03 -0.60864185036E+03 -0.43703860814E+03  0.92220861050E+03  0.90611774229E+02 0.  0.
         11    1    3    3    0    0 -0.23813048174E+03 -0.21690730680E+03 -0.14638692720E+03  0.35381356465E+03  0.00000000000E+00 0.  1.
        -11    1    3    3    0    0 -0.29178515366E+03 -0.39173454356E+03 -0.29065168094E+03  0.56839504585E+03  0.00000000000E+00 0. -1.
         22    1    1    2    0    0  0.52991563540E+03  0.60864185036E+03 -0.69387505754E+03  0.10642922898E+04  0.00000000000E+00 0.  1.
<mgrwt>
<rscale>  0 0.16331626E+04</rscale>
<asrwt>0</asrwt>
<pdfrwt beam="1">  1        2 0.23980112E+00 0.16331626E+04</pdfrwt>
<pdfrwt beam="2">  1       -2 0.65814402E-01 0.16331626E+04</pdfrwt>
<totfact> 0.23909915E+01</totfact>
</mgrwt>
</event>
<event>
 6    1  0.1614874E-005  0.3865694E+04  0.7818608E-02  0.8032202E-01
         -2   -1    0    0    0  501 -0.00000000000E+00  0.00000000000E+00  0.10605970248E+04  0.10605970248E+04  0.00000000000E+00 0. -1.
          2   -1    0    0  501    0  0.00000000000E+00 -0.00000000000E+00 -0.35224471612E+04  0.35224471612E+04  0.00000000000E+00 0.  1.
         23    2    1    2    0    0 -0.78793817362E+03  0.33140266838E+03  0.82235743974E+03  0.11894187357E+04  0.88152572890E+02 0.  0.
         11    1    3    3    0    0 -0.42019825528E+03  0.13006748453E+03  0.43426346286E+03  0.61811720526E+03  0.00000000000E+00 0. -1.
        -11    1    3    3    0    0 -0.36773991834E+03  0.20133518385E+03  0.38809397688E+03  0.57130153045E+03  0.00000000000E+00 0.  1.
         22    1    1    2    0    0  0.78793817362E+03 -0.33140266838E+03 -0.32842075761E+04  0.33936254503E+04  0.00000000000E+00 0.  1.
<mgrwt>
<rscale>  0 0.38656937E+04</rscale>
<asrwt>0</asrwt>
<pdfrwt beam="1">  1        2 0.54191494E+00 0.38656937E+04</pdfrwt>
<pdfrwt beam="2">  1       -2 0.16316877E+00 0.38656937E+04</pdfrwt>
<totfact> 0.14898733E-01</totfact>
</mgrwt>
</event>
<event>
 6    1  0.1614874E-005  0.4626077E+04  0.7818608E-02  0.7888929E-01
         -2   -1    0    0    0  501 -0.00000000000E+00  0.00000000000E+00  0.22927644006E+04  0.22927644006E+04  0.00000000000E+00 0.  1.
          2   -1    0    0  501    0  0.00000000000E+00 -0.00000000000E+00 -0.23334920632E+04  0.23334920632E+04  0.00000000000E+00 0. -1.
         23    2    1    2    0    0 -0.84802044044E+03  0.18837027789E+04  0.10181605335E+04  0.23048950016E+04  0.91734780886E+02 0.  0.
         13    1    3    3    0    0 -0.68484551849E+03  0.14411157880E+04  0.76341074899E+03  0.17687916978E+04  0.00000000000E+00 0.  1.
        -13    1    3    3    0    0 -0.16317492194E+03  0.44258699092E+03  0.25474978448E+03  0.53610330383E+03  0.00000000000E+00 0. -1.
         22    1    1    2    0    0  0.84802044044E+03 -0.18837027789E+04 -0.10588881961E+04  0.23213614622E+04  0.00000000000E+00 0. -1.
<mgrwt>
<rscale>  0 0.46260772E+04</rscale>
<asrwt>0</asrwt>
<pdfrwt beam="1">  1        2 0.35899878E+00 0.46260772E+04</pdfrwt>
<pdfrwt beam="2">  1       -2 0.35273298E+00 0.46260772E+04</pdfrwt>
<totfact> 0.48662972E-02</totfact>
</mgrwt>
</event>
<event>
 6    1  0.1614874E-005  0.1611442E+04  0.7818608E-02  0.8813549E-01
         -2   -1    0    0    0  501 -0.00000000000E+00  0.00000000000E+00  0.28954254717E+03  0.28954254717E+03  0.00000000000E+00 0.  1.
          2   -1    0    0  501    0  0.00000000000E+00 -0.00000000000E+00 -0.22421102373E+04  0.22421102373E+04  0.00000000000E+00 0. -1.
         23    2    1    2    0    0 -0.47306181549E+03 -0.63046955081E+03 -0.73731346292E+03  0.10831631668E+04  0.91279611745E+02 0.  0.
         11    1    3    3    0    0 -0.45149867411E+03 -0.57268366531E+03 -0.65440141419E+03  0.97982592543E+03  0.00000000000E+00 0.  1.
        -11    1    3    3    0    0 -0.21563141371E+02 -0.57785885505E+02 -0.82912048724E+02  0.10333724136E+03  0.00000000000E+00 0. -1.
         22    1    1    2    0    0  0.47306181549E+03  0.63046955081E+03 -0.12152542272E+04  0.14484896177E+04  0.00000000000E+00 0. -1.
<mgrwt>
<rscale>  0 0.16114420E+04</rscale>
<asrwt>0</asrwt>
<pdfrwt beam="1">  1        2 0.34494004E+00 0.16114420E+04</pdfrwt>
<pdfrwt beam="2">  1       -2 0.44545007E-01 0.16114420E+04</pdfrwt>
<totfact> 0.22407393E+01</totfact>
</mgrwt>
</event>
<event>
 6    1  0.1614874E-005  0.2212232E+04  0.7818608E-02  0.8513354E-01
         -1   -1    0    0    0  501 -0.00000000000E+00  0.00000000000E+00  0.60283371103E+03  0.60283371103E+03  0.00000000000E+00 0.  1.
          1   -1    0    0  501    0  0.00000000000E+00 -0.00000000000E+00 -0.20295693408E+04  0.20295693408E+04  0.00000000000E+00 0. -1.
         23    2    1    2    0    0  0.84353639262E+03  0.98715451181E+02 -0.15547391682E+04  0.17735181399E+04  0.82790852962E+02 0.  0.
         13    1    3    3    0    0  0.51284210612E+03  0.65762580480E+02 -0.86170776995E+03  0.10049238895E+04  0.00000000000E+00 0.  1.
        -13    1    3    3    0    0  0.33069428650E+03  0.32952870701E+02 -0.69303139829E+03  0.76859425045E+03  0.00000000000E+00 0. -1.
         22    1    1    2    0    0 -0.84353639262E+03 -0.98715451181E+02  0.12800353851E+03  0.85888491188E+03  0.00000000000E+00 0.  1.
<mgrwt>
<rscale>  0 0.22122322E+04</rscale>
<asrwt>0</asrwt>
<pdfrwt beam="1">  1        1 0.31224144E+00 0.22122322E+04</pdfrwt>
<pdfrwt beam="2">  1       -1 0.92743646E-01 0.22122322E+04</pdfrwt>
<totfact> 0.29278000E+00</totfact>
</mgrwt>
</event>
<event>
 6    1  0.1614874E-005  0.2552279E+04  0.7818608E-02  0.8384594E-01
          2   -1    0    0  501    0  0.00000000000E+00  0.00000000000E+00  0.11270044918E+04  0.11270044918E+04  0.00000000000E+00 0. -1.
         -2   -1    0    0    0  501 -0.00000000000E+00 -0.00000000000E+00 -0.14450090267E+04  0.14450090267E+04  0.00000000000E+00 0.  1.
         23    2    1    2    0    0 -0.49033386349E+03 -0.65004994877E+03  0.83006999562E+03  0.11645095714E+04  0.63828761315E+02 0.  0.
         13    1    3    3    0    0 -0.32530032186E+03 -0.38109649462E+03  0.51967784079E+03  0.72188634550E+03  0.00000000000E+00 0. -1.
        -13    1    3    3    0    0 -0.16503354163E+03 -0.26895345415E+03  0.31039215482E+03  0.44262322594E+03  0.00000000000E+00 0.  1.
         22    1    1    2    0    0  0.49033386349E+03  0.65004994877E+03 -0.11480745305E+04  0.14075039471E+04  0.00000000000E+00 0.  1.
<mgrwt>
<rscale>  0 0.25522787E+04</rscale>
<asrwt>0</asrwt>
<pdfrwt beam="1">  1        2 0.17338531E+00 0.25522787E+04</pdfrwt>
<pdfrwt beam="2">  1       -2 0.22230908E+00 0.25522787E+04</pdfrwt>
<totfact> 0.17793884E+00</totfact>
</mgrwt>
</event>
<event>
 6    1  0.1614874E-005  0.2248373E+04  0.7818608E-02  0.8498560E-01
         -2   -1    0    0    0  501 -0.00000000000E+00  0.00000000000E+00  0.74953825325E+03  0.74953825325E+03  0.00000000000E+00 0. -1.
          2   -1    0    0  501    0  0.00000000000E+00 -0.00000000000E+00 -0.16860978461E+04  0.16860978461E+04  0.00000000000E+00 0.  1.
         23    2    1    2    0    0  0.39959340989E+03 -0.64601363486E+03 -0.13644809165E+04  0.15637845244E+04  0.81273351188E+02 0.  0.
         13    1    3    3    0    0  0.20167487391E+03 -0.28927306583E+03 -0.70595014499E+03  0.78912436827E+03  0.00000000000E+00 0. -1.
        -13    1    3    3    0    0  0.19791853598E+03 -0.35674056902E+03 -0.65853077147E+03  0.77466015609E+03  0.00000000000E+00 0.  1.
         22    1    1    2    0    0 -0.39959340989E+03  0.64601363486E+03  0.42792132360E+03  0.87185157500E+03  0.00000000000E+00 0. -1.
<mgrwt>
<rscale>  0 0.22483726E+04</rscale>
<asrwt>0</asrwt>
<pdfrwt beam="1">  1        2 0.25939967E+00 0.22483726E+04</pdfrwt>
<pdfrwt beam="2">  1       -2 0.11531358E+00 0.22483726E+04</pdfrwt>
<totfact> 0.53244020E+00</totfact>
</mgrwt>
</event>
<event>
 6    1  0.1614874E-005  0.7671008E+03  0.7818608E-02  0.9608897E-01
          2   -1    0    0  501    0  0.00000000000E+00  0.00000000000E+00  0.66893837093E+02  0.66893837093E+02  0.00000000000E+00 0. -1.
         -2   -1    0    0    0  501 -0.00000000000E+00 -0.00000000000E+00 -0.21991700955E+04  0.21991700955E+04  0.00000000000E+00 0.  1.
         23    2    1    2    0    0 -0.32288913085E+03  0.10904837518E+03 -0.60024528561E+03  0.69658381467E+03  0.93731899650E+02 0.  0.
         11    1    3    3    0    0 -0.14029783044E+03  0.34092435698E+01 -0.20275088573E+03  0.24658269573E+03  0.00000000000E+00 0.  1.
        -11    1    3    3    0    0 -0.18259130041E+03  0.10563913161E+03 -0.39749439988E+03  0.45000111894E+03  0.00000000000E+00 0. -1.
         22    1    1    2    0    0  0.32288913085E+03 -0.10904837518E+03 -0.15320309728E+04  0.15694801179E+04  0.00000000000E+00 0.  1.
<mgrwt>
<rscale>  0 0.76710084E+03</rscale>
<asrwt>0</asrwt>
<pdfrwt beam="1">  1        2 0.10291360E-01 0.76710084E+03</pdfrwt>
<pdfrwt beam="2">  1       -2 0.33833383E+00 0.76710084E+03</pdfrwt>
<totfact> 0.12381175E+01</totfact>
</mgrwt>
</event>
<event>
 6    1  0.1614874E-005  0.9380490E+03  0.7818608E-02  0.9379230E-01
          1   -1    0    0  501    0  0.00000000000E+00  0.00000000000E+00  0.26353380737E+04  0.26353380737E+04  0.00000000000E+00 0. -1.
         -1   -1    0    0    0  501 -0.00000000000E+00 -0.00000000000E+00 -0.83474678786E+02  0.83474678786E+02  0.00000000000E+00 0.  1.
         23    2    1    2    0    0 -0.41137993448E+03  0.97112895170E+02  0.72781541888E+03  0.84643047747E+03  0.89804812465E+02 0.  0.
         13    1    3    3    0    0 -0.17877486781E+03  0.12357445192E+02  0.24146477741E+03  0.30069652233E+03  0.00000000000E+00 0. -1.
        -13    1    3    3    0    0 -0.23260506667E+03  0.84755449978E+02  0.48635064146E+03  0.54573395514E+03  0.00000000000E+00 0.  1.
         22    1    1    2    0    0  0.41137993448E+03 -0.97112895170E+02  0.18240479761E+04  0.18723822750E+04  0.00000000000E+00 0. -1.
<mgrwt>
<rscale>  0 0.93804904E+03</rscale>
<asrwt>0</asrwt>
<pdfrwt beam="1">  1        1 0.40543656E+00 0.93804904E+03</pdfrwt>
<pdfrwt beam="2">  1       -1 0.12842260E-01 0.93804904E+03</pdfrwt>
<totfact> 0.47270766E+01</totfact>
</mgrwt>
</event>
<event>
 6    1  0.1614874E-005  0.8249010E+03  0.7818608E-02  0.9524657E-01
         -2   -1    0    0    0  501 -0.00000000000E+00  0.00000000000E+00  0.13834379979E+03  0.13834379979E+03  0.00000000000E+00 0.  1.
          2   -1    0    0  501    0  0.00000000000E+00 -0.00000000000E+00 -0.12296570471E+04  0.12296570471E+04  0.00000000000E+00 0. -1.
         23    2    1    2    0    0 -0.21811524427E+03 -0.10444126232E+02  0.18436761725E+02  0.23697104087E+03  0.90177716069E+02 0.  0.
         13    1    3    3    0    0 -0.10793808206E+03 -0.37955688549E+02  0.40335716590E+02  0.12131872850E+03  0.00000000000E+00 0.  1.
        -13    1    3    3    0    0 -0.11017716221E+03  0.27511562317E+02 -0.21898954865E+02  0.11565231238E+03  0.00000000000E+00 0. -1.
         22    1    1    2    0    0  0.21811524427E+03  0.10444126232E+02 -0.11097500090E+04  0.11310298060E+04  0.00000000000E+00 0. -1.
<mgrwt>
<rscale>  0 0.82490103E+03</rscale>
<asrwt>0</asrwt>
<pdfrwt beam="1">  1        2 0.18917801E+00 0.82490103E+03</pdfrwt>
<pdfrwt beam="2">  1       -2 0.21283661E-01 0.82490103E+03</pdfrwt>
<totfact> 0.34957692E+02</totfact>
</mgrwt>
</event>
<event>
 6    1  0.1614874E-005  0.3670289E+04  0.7818608E-02  0.8074578E-01
         -2   -1    0    0    0  501 -0.00000000000E+00  0.00000000000E+00  0.12414225411E+04  0.12414225411E+04  0.00000000000E+00 0.  1.
          2   -1    0    0  501    0  0.00000000000E+00 -0.00000000000E+00 -0.27128192752E+04  0.27128192752E+04  0.00000000000E+00 0. -1.
         23    2    1    2    0    0  0.69372408703E+03 -0.14144517949E+04  0.27563903904E+03  0.16017833189E+04  0.88351184484E+02 0.  0.
         11    1    3    3    0    0  0.48118408871E+03 -0.90946192319E+03  0.15154927276E+03  0.10400126437E+04  0.00000000000E+00 0. -1.
        -11    1    3    3    0    0  0.21253999832E+03 -0.50498987173E+03  0.12408976628E+03  0.56177067522E+03  0.00000000000E+00 0.  1.
         22    1    1    2    0    0 -0.69372408703E+03  0.14144517949E+04 -0.17470357731E+04  0.23524584973E+04  0.00000000000E+00 0. -1.
<mgrwt>
<rscale>  0 0.36702888E+04</rscale>
<asrwt>0</asrwt>
<pdfrwt beam="1">  1        2 0.41735681E+00 0.36702888E+04</pdfrwt>
<pdfrwt beam="2">  1       -2 0.19098808E+00 0.36702888E+04</pdfrwt>
<totfact> 0.32267846E-01</totfact>
</mgrwt>
</event>
<event>
 6    1  0.1614874E-005  0.3363648E+04  0.7818608E-02  0.8146886E-01
         -1   -1    0    0    0  501 -0.00000000000E+00  0.00000000000E+00  0.64391965740E+03  0.64391965740E+03  0.00000000000E+00 0.  1.
          1   -1    0    0  501    0  0.00000000000E+00 -0.00000000000E+00 -0.43926778929E+04  0.43926778929E+04  0.00000000000E+00 0. -1.
         23    2    1    2    0    0 -0.14775152574E+04 -0.80040579821E+03 -0.18346733941E+04  0.24895558236E+04  0.90338019870E+02 0.  0.
         13    1    3    3    0    0 -0.52368147152E+03 -0.24328239481E+03 -0.66562921038E+03  0.88118718383E+03  0.00000000000E+00 0. -1.
        -13    1    3    3    0    0 -0.95383378589E+03 -0.55712340340E+03 -0.11690441837E+04  0.16083686397E+04  0.00000000000E+00 0.  1.
         22    1    1    2    0    0  0.14775152574E+04  0.80040579821E+03 -0.19140848413E+04  0.25470417267E+04  0.00000000000E+00 0. -1.
<mgrwt>
<rscale>  0 0.33636478E+04</rscale>
<asrwt>0</asrwt>
<pdfrwt beam="1">  1        1 0.67579657E+00 0.33636478E+04</pdfrwt>
<pdfrwt beam="2">  1       -1 0.99064567E-01 0.33636478E+04</pdfrwt>
<totfact> 0.33115180E-02</totfact>
</mgrwt>
</event>
<event>
 6    1  0.1614874E-005  0.6515901E+03  0.7818608E-02  0.9803800E-01
         -1   -1    0    0    0  501 -0.00000000000E+00  0.00000000000E+00  0.28771937444E+03  0.28771937444E+03  0.00000000000E+00 0.  1.
          1   -1    0    0  501    0  0.00000000000E+00 -0.00000000000E+00 -0.36890947394E+03  0.36890947394E+03  0.00000000000E+00 0. -1.
         23    2    1    2    0    0  0.11136365736E+03  0.28506092326E+03  0.45408257562E+02  0.32543594664E+03  0.10092101546E+03 0.  0.
         13    1    3    3    0    0  0.33809343356E+02  0.17929863001E+02 -0.14450727955E+02  0.40906909244E+02  0.00000000000E+00 0.  1.
        -13    1    3    3    0    0  0.77554314000E+02  0.26713106026E+03  0.59858985518E+02  0.28452903740E+03  0.00000000000E+00 0. -1.
         22    1    1    2    0    0 -0.11136365736E+03 -0.28506092326E+03 -0.12659835707E+03  0.33119290174E+03  0.00000000000E+00 0. -1.
<mgrwt>
<rscale>  0 0.65159006E+03</rscale>
<asrwt>0</asrwt>
<pdfrwt beam="1">  1        1 0.56755304E-01 0.65159006E+03</pdfrwt>
<pdfrwt beam="2">  1       -1 0.44264519E-01 0.65159006E+03</pdfrwt>
<totfact> 0.34187249E+02</totfact>
</mgrwt>
</event>
<event>
 6    1  0.1614874E-005  0.8390319E+03  0.7818608E-02  0.9505177E-01
          4   -1    0    0  501    0  0.00000000000E+00  0.00000000000E+00  0.13336271705E+04  0.13336271705E+04  0.00000000000E+00 0.  1.
         -4   -1    0    0    0  501 -0.00000000000E+00 -0.00000000000E+00 -0.13196614751E+03  0.13196614751E+03  0.00000000000E+00 0. -1.
         23    2    1    2    0    0  0.69660232278E+02  0.40672508725E+03  0.68838401731E+03  0.80701065113E+03  0.84355149145E+02 0.  0.
         11    1    3    3    0    0  0.40906770585E+02  0.34832989363E+03  0.62182830701E+03  0.71391702744E+03  0.00000000000E+00 0. -1.
        -11    1    3    3    0    0  0.28753461693E+02  0.58395193621E+02  0.66555710307E+02  0.93093623691E+02  0.00000000000E+00 0.  1.
         22    1    1    2    0    0 -0.69660232278E+02 -0.40672508725E+03  0.51327700571E+03  0.65858266690E+03  0.00000000000E+00 0. -1.
<mgrwt>
<rscale>  0 0.83903192E+03</rscale>
<asrwt>0</asrwt>
<pdfrwt beam="1">  1        4 0.20517340E+00 0.83903192E+03</pdfrwt>
<pdfrwt beam="2">  1       -4 0.20302485E-01 0.83903192E+03</pdfrwt>
<totfact> 0.54900698E+00</totfact>
</mgrwt>
</event>
<event>
 6    1  0.1614874E-005  0.3859681E+04  0.7818608E-02  0.8033467E-01
         -2   -1    0    0    0  501 -0.00000000000E+00  0.00000000000E+00  0.45810239828E+04  0.45810239828E+04  0.00000000000E+00 0.  1.
          2   -1    0    0  501    0  0.00000000000E+00 -0.00000000000E+00 -0.81298094592E+03  0.81298094592E+03  0.00000000000E+00 0. -1.
         23    2    1    2    0    0 -0.61746488691E+03  0.15100097368E+04  0.33231956892E+04  0.37030639320E+04  0.87524875025E+02 0.  0.
         13    1    3    3    0    0 -0.46980679694E+03  0.10486926462E+04  0.23661171483E+04  0.26303963679E+04  0.00000000000E+00 0.  1.
        -13    1    3    3    0    0 -0.14765808997E+03  0.46131709061E+03  0.95707854091E+03  0.10726675641E+04  0.00000000000E+00 0. -1.
         22    1    1    2    0    0  0.61746488691E+03 -0.15100097368E+04  0.44484734765E+03  0.16909409967E+04  0.00000000000E+00 0. -1.
<mgrwt>
<rscale>  0 0.38596814E+04</rscale>
<asrwt>0</asrwt>
<pdfrwt beam="1">  1        2 0.12507399E+00 0.38596814E+04</pdfrwt>
<pdfrwt beam="2">  1       -2 0.70477290E+00 0.38596814E+04</pdfrwt>
<totfact> 0.58745025E-03</totfact>
</mgrwt>
</event>
<event>
 6    1  0.1614874E-005  0.1083316E+04  0.7818608E-02  0.9221608E-01
          1   -1    0    0  501    0  0.00000000000E+00  0.00000000000E+00  0.95409732173E+03  0.95409732173E+03  0.00000000000E+00 0. -1.
         -1   -1    0    0    0  501 -0.00000000000E+00 -0.00000000000E+00 -0.30750878503E+03  0.30750878503E+03  0.00000000000E+00 0.  1.
         23    2    1    2    0    0  0.30949195095E+03  0.23078470224E+03 -0.10902950470E+03  0.41307474553E+03  0.98470635242E+02 0.  0.
         11    1    3    3    0    0  0.75665861918E+02  0.81740472854E+02  0.89206818907E+01  0.11174258869E+03  0.00000000000E+00 0. -1.
        -11    1    3    3    0    0  0.23382608903E+03  0.14904422939E+03 -0.11795018659E+03  0.30133215684E+03  0.00000000000E+00 0.  1.
         22    1    1    2    0    0 -0.30949195095E+03 -0.23078470224E+03  0.75561804141E+03  0.84853136123E+03  0.00000000000E+00 0. -1.
<mgrwt>
<rscale>  0 0.10833159E+04</rscale>
<asrwt>0</asrwt>
<pdfrwt beam="1">  1        1 0.14678420E+00 0.10833159E+04</pdfrwt>
<pdfrwt beam="2">  1       -1 0.47309044E-01 0.10833159E+04</pdfrwt>
<totfact> 0.73120412E+01</totfact>
</mgrwt>
</event>
<event>
 6    1  0.1614874E-005  0.1085499E+04  0.7818608E-02  0.9219442E-01
          1   -1    0    0  501    0  0.00000000000E+00  0.00000000000E+00  0.63611914113E+03  0.63611914113E+03  0.00000000000E+00 0.  1.
         -1   -1    0    0    0  501 -0.00000000000E+00 -0.00000000000E+00 -0.46308426511E+03  0.46308426511E+03  0.00000000000E+00 0. -1.
         23    2    1    2    0    0 -0.33098156939E+03 -0.42736547240E+03  0.93386297520E+02  0.55282080922E+03  0.68555089305E+02 0.  0.
         13    1    3    3    0    0 -0.23392760550E+03 -0.26562806694E+03  0.84994883644E+02  0.36401170971E+03  0.00000000000E+00 0. -1.
        -13    1    3    3    0    0 -0.97053963894E+02 -0.16173740546E+03  0.83914138762E+01  0.18880909951E+03  0.00000000000E+00 0.  1.
         22    1    1    2    0    0  0.33098156939E+03  0.42736547240E+03  0.79648578497E+02  0.54638259702E+03  0.00000000000E+00 0.  1.
<mgrwt>
<rscale>  0 0.10854985E+04</rscale>
<asrwt>0</asrwt>
<pdfrwt beam="1">  1        1 0.97864483E-01 0.10854985E+04</pdfrwt>
<pdfrwt beam="2">  1       -1 0.71243733E-01 0.10854985E+04</pdfrwt>
<totfact> 0.62429094E+01</totfact>
</mgrwt>
</event>
<event>
 6    1  0.1680403E-005  0.4954021E+04  0.7818608E-02  0.7835639E-01
          1   -1    0    0  501    0  0.00000000000E+00  0.00000000000E+00  0.29756420449E+04  0.29756420449E+04  0.00000000000E+00 0. -1.
         -1   -1    0    0    0  501 -0.00000000000E+00 -0.00000000000E+00 -0.20619350932E+04  0.20619350932E+04  0.00000000000E+00 0.  1.
         23    2    1    2    0    0 -0.15407330449E+04  0.12456747488E+03  0.24241119498E+04  0.28763972220E+04  0.89257279592E+02 0.  0.
         11    1    3    3    0    0 -0.64201448284E+03  0.32478213247E+02  0.93495663117E+03  0.11346282795E+04  0.00000000000E+00 0. -1.
        -11    1    3    3    0    0 -0.89871856210E+03  0.92089261636E+02  0.14891553186E+04  0.17417689425E+04  0.00000000000E+00 0.  1.
         22    1    1    2    0    0  0.15407330449E+04 -0.12456747488E+03 -0.15104049981E+04  0.21611799161E+04  0.00000000000E+00 0.  1.
<mgrwt>
<rscale>  0 0.49540209E+04</rscale>
<asrwt>0</asrwt>
<pdfrwt beam="1">  1        1 0.45779109E+00 0.49540209E+04</pdfrwt>
<pdfrwt beam="2">  1       -1 0.31722078E+00 0.49540209E+04</pdfrwt>
<totfact> 0.11513053E-02</totfact>
</mgrwt>
</event>
<event>
 6    1  0.1614874E-005  0.4799693E+04  0.7818608E-02  0.7860172E-01
          2   -1    0    0  501    0  0.00000000000E+00  0.00000000000E+00  0.30536674674E+04  0.30536674674E+04  0.00000000000E+00 0. -1.
         -2   -1    0    0    0  501 -0.00000000000E+00 -0.00000000000E+00 -0.18860151574E+04  0.18860151574E+04  0.00000000000E+00 0.  1.
         23    2    1    2    0    0  0.14517664391E+04  0.82559749548E+03 -0.11884873922E+04  0.20516675080E+04  0.87179491456E+02 0.  0.
         13    1    3    3    0    0  0.35367349347E+03  0.15987577462E+03 -0.26582433988E+03  0.47043361165E+03  0.00000000000E+00 0. -1.
        -13    1    3    3    0    0  0.10980929456E+04  0.66572172086E+03 -0.92266305235E+03  0.15812338964E+04  0.00000000000E+00 0.  1.
         22    1    1    2    0    0 -0.14517664391E+04 -0.82559749548E+03  0.23561397022E+04  0.28880151168E+04  0.00000000000E+00 0. -1.
<mgrwt>
<rscale>  0 0.47996930E+04</rscale>
<asrwt>0</asrwt>
<pdfrwt beam="1">  1        2 0.46979500E+00 0.47996930E+04</pdfrwt>
<pdfrwt beam="2">  1       -2 0.29015618E+00 0.47996930E+04</pdfrwt>
<totfact> 0.43468896E-02</totfact>
</mgrwt>
</event>
<event>
 6    1  0.1614874E-005  0.3055247E+04  0.7818608E-02  0.8228128E-01
          1   -1    0    0  501    0  0.00000000000E+00  0.00000000000E+00  0.22010193748E+04  0.22010193748E+04  0.00000000000E+00 0. -1.
         -1   -1    0    0    0  501 -0.00000000000E+00 -0.00000000000E+00 -0.10602510393E+04  0.10602510393E+04  0.00000000000E+00 0.  1.
         23    2    1    2    0    0  0.10333491415E+03 -0.12636696557E+04  0.14782172535E+04  0.19492449282E+04  0.83008663892E+02 0.  0.
         13    1    3    3    0    0  0.49610165060E+02 -0.92287849023E+03  0.11162481125E+04  0.14491983042E+04  0.00000000000E+00 0. -1.
        -13    1    3    3    0    0  0.53724749094E+02 -0.34079116552E+03  0.36196914097E+03  0.50004662400E+03  0.00000000000E+00 0.  1.
         22    1    1    2    0    0 -0.10333491415E+03  0.12636696557E+04 -0.33744891798E+03  0.13120254859E+04  0.00000000000E+00 0.  1.
<mgrwt>
<rscale>  0 0.30552467E+04</rscale>
<asrwt>0</asrwt>
<pdfrwt beam="1">  1        1 0.33861836E+00 0.30552467E+04</pdfrwt>
<pdfrwt beam="2">  1       -1 0.16311554E+00 0.30552467E+04</pdfrwt>
<totfact> 0.50997606E-01</totfact>
</mgrwt>
</event>
<event>
 6    1  0.1614874E-005  0.4927607E+04  0.7818608E-02  0.7839772E-01
          2   -1    0    0  501    0  0.00000000000E+00  0.00000000000E+00  0.19974568762E+04  0.19974568762E+04  0.00000000000E+00 0. -1.
         -2   -1    0    0    0  501 -0.00000000000E+00 -0.00000000000E+00 -0.30390287408E+04  0.30390287408E+04  0.00000000000E+00 0.  1.
         23    2    1    2    0    0 -0.14520204103E+03 -0.16267715551E+04  0.13632884084E+04  0.21294558170E+04  0.92506576784E+02 0.  0.
         13    1    3    3    0    0 -0.87711412293E+02 -0.93235393740E+03  0.72208242471E+03  0.11825312615E+04  0.00000000000E+00 0. -1.
        -13    1    3    3    0    0 -0.57490628741E+02 -0.69441761768E+03  0.64120598370E+03  0.94692455542E+03  0.00000000000E+00 0.  1.
         22    1    1    2    0    0  0.14520204103E+03  0.16267715551E+04 -0.24048602731E+04  0.29070298000E+04  0.00000000000E+00 0.  1.
<mgrwt>
<rscale>  0 0.49276075E+04</rscale>
<asrwt>0</asrwt>
<pdfrwt beam="1">  1        2 0.30730106E+00 0.49276075E+04</pdfrwt>
<pdfrwt beam="2">  1       -2 0.46754288E+00 0.49276075E+04</pdfrwt>
<totfact> 0.13106972E-02</totfact>
</mgrwt>
</event>
<event>
 6    1  0.1614874E-005  0.2079438E+04  0.7818608E-02  0.8570356E-01
          2   -1    0    0  501    0  0.00000000000E+00  0.00000000000E+00  0.21833253868E+04  0.21833253868E+04  0.00000000000E+00 0. -1.
         -2   -1    0    0    0  501 -0.00000000000E+00 -0.00000000000E+00 -0.49512324171E+03  0.49512324171E+03  0.00000000000E+00 0.  1.
         23    2    1    2    0    0 -0.57868578082E+03  0.23791306526E+03  0.19121019166E+04  0.20139104676E+04  0.90673989883E+02 0.  0.
         13    1    3    3    0    0 -0.41398012727E+03  0.19545027057E+03  0.14928957745E+04  0.15615114946E+04  0.00000000000E+00 0.  1.
        -13    1    3    3    0    0 -0.16470565355E+03  0.42462794688E+02  0.41920614212E+03  0.45239897307E+03  0.00000000000E+00 0. -1.
         22    1    1    2    0    0  0.57868578082E+03 -0.23791306526E+03 -0.22389977156E+03  0.66453816087E+03  0.00000000000E+00 0.  1.
<mgrwt>
<rscale>  0 0.20794376E+04</rscale>
<asrwt>0</asrwt>
<pdfrwt beam="1">  1        2 0.33589621E+00 0.20794376E+04</pdfrwt>
<pdfrwt beam="2">  1       -2 0.76172808E-01 0.20794376E+04</pdfrwt>
<totfact> 0.75135769E+00</totfact>
</mgrwt>
</event>
<event>
 6    1  0.1614874E-005  0.2528039E+04  0.7818608E-02  0.8393064E-01
         -2   -1    0    0    0  501 -0.00000000000E+00  0.00000000000E+00  0.17843678775E+04  0.17843678775E+04  0.00000000000E+00 0.  1.
          2   -1    0    0  501    0  0.00000000000E+00 -0.00000000000E+00 -0.89541224355E+03  0.89541224355E+03  0.00000000000E+00 0. -1.
         23    2    1    2    0    0 -0.11949606623E+04 -0.77251134745E+01  0.13631189156E+02  0.11985024478E+04  0.90728420478E+02 0.  0.
         13    1    3    3    0    0 -0.30804704745E+03  0.21631384061E+02  0.35458702895E+02  0.31083471464E+03  0.00000000000E+00 0. -1.
        -13    1    3    3    0    0 -0.88691361481E+03 -0.29356497535E+02 -0.21827513740E+02  0.88766773313E+03  0.00000000000E+00 0.  1.
         22    1    1    2    0    0  0.11949606623E+04  0.77251134745E+01  0.87532444480E+03  0.14812776733E+04  0.00000000000E+00 0.  1.
<mgrwt>
<rscale>  0 0.25280386E+04</rscale>
<asrwt>0</asrwt>
<pdfrwt beam="1">  1        2 0.13775573E+00 0.25280386E+04</pdfrwt>
<pdfrwt beam="2">  1       -2 0.27451813E+00 0.25280386E+04</pdfrwt>
<totfact> 0.11952423E+00</totfact>
</mgrwt>
</event>
<event>
 6    1  0.1614874E-005  0.3864754E+04  0.7818608E-02  0.8032400E-01
          2   -1    0    0  501    0  0.00000000000E+00  0.00000000000E+00  0.18639601416E+04  0.18639601416E+04  0.00000000000E+00 0. -1.
         -2   -1    0    0    0  501 -0.00000000000E+00 -0.00000000000E+00 -0.20033054676E+04  0.20033054676E+04  0.00000000000E+00 0.  1.
         23    2    1    2    0    0 -0.42709956762E+03  0.18820309710E+04 -0.14439522923E+03  0.19373743899E+04  0.90082895000E+02 0.  0.
         11    1    3    3    0    0 -0.18968150287E+03  0.92090931229E+03 -0.11135502548E+03  0.94681200653E+03  0.00000000000E+00 0.  1.
        -11    1    3    3    0    0 -0.23741806475E+03  0.96112165874E+03 -0.33040203751E+02  0.99056238342E+03  0.00000000000E+00 0. -1.
         22    1    1    2    0    0  0.42709956762E+03 -0.18820309710E+04  0.50499033021E+01  0.19298912192E+04  0.00000000000E+00 0. -1.
<mgrwt>
<rscale>  0 0.38647543E+04</rscale>
<asrwt>0</asrwt>
<pdfrwt beam="1">  1        2 0.28676310E+00 0.38647543E+04</pdfrwt>
<pdfrwt beam="2">  1       -2 0.30820084E+00 0.38647543E+04</pdfrwt>
<totfact> 0.17951190E-01</totfact>
</mgrwt>
</event>
<event>
 6    1  0.1614874E-005  0.1409753E+04  0.7818608E-02  0.8946789E-01
          2   -1    0    0  501    0  0.00000000000E+00  0.00000000000E+00  0.78683270298E+03  0.78683270298E+03  0.00000000000E+00 0. -1.
         -2   -1    0    0    0  501 -0.00000000000E+00 -0.00000000000E+00 -0.63145721155E+03  0.63145721155E+03  0.00000000000E+00 0.  1.
         23    2    1    2    0    0  0.60058117247E+03  0.30470227051E+03 -0.12040197144E+03  0.69055752731E+03  0.93977898591E+02 0.  0.
         11    1    3    3    0    0  0.37123626511E+03  0.23826197758E+03 -0.83396495872E+02  0.44893218866E+03  0.00000000000E+00 0.  1.
        -11    1    3    3    0    0  0.22934490736E+03  0.66440292930E+02 -0.37005475569E+02  0.24162533865E+03  0.00000000000E+00 0. -1.
         22    1    1    2    0    0 -0.60058117247E+03 -0.30470227051E+03  0.27577746288E+03  0.72773238722E+03  0.00000000000E+00 0. -1.
<mgrwt>
<rscale>  0 0.14097534E+04</rscale>
<asrwt>0</asrwt>
<pdfrwt beam="1">  1        2 0.12105119E+00 0.14097534E+04</pdfrwt>
<pdfrwt beam="2">  1       -2 0.97147263E-01 0.14097534E+04</pdfrwt>
<totfact> 0.30298994E+01</totfact>
</mgrwt>
</event>
<event>
 6    1  0.1614874E-005  0.3602008E+04  0.7818608E-02  0.8090032E-01
         -2   -1    0    0    0  501 -0.00000000000E+00  0.00000000000E+00  0.19406780319E+04  0.19406780319E+04  0.00000000000E+00 0.  1.
          2   -1    0    0  501    0  0.00000000000E+00 -0.00000000000E+00 -0.16713823245E+04  0.16713823245E+04  0.00000000000E+00 0. -1.
         23    2    1    2    0    0  0.13897986681E+04 -0.26215732942E+03 -0.98121069064E+03  0.17241956751E+04  0.99042937407E+02 0.  0.
         11    1    3    3    0    0  0.10008094783E+04 -0.22305795432E+03 -0.67497202450E+03  0.12275836822E+04  0.00000000000E+00 0.  1.
        -11    1    3    3    0    0  0.38898918983E+03 -0.39099375098E+02 -0.30623866614E+03  0.49661199298E+03  0.00000000000E+00 0. -1.
         22    1    1    2    0    0 -0.13897986681E+04  0.26215732942E+03  0.12505063980E+04  0.18878646812E+04  0.00000000000E+00 0.  1.
<mgrwt>
<rscale>  0 0.36020078E+04</rscale>
<asrwt>0</asrwt>
<pdfrwt beam="1">  1        2 0.25713574E+00 0.36020078E+04</pdfrwt>
<pdfrwt beam="2">  1       -2 0.29856585E+00 0.36020078E+04</pdfrwt>
<totfact> 0.26886333E-01</totfact>
</mgrwt>
</event>
<event>
 6    1  0.1614874E-005  0.4506529E+04  0.7818608E-02  0.7909495E-01
         -2   -1    0    0    0  501 -0.00000000000E+00  0.00000000000E+00  0.14369946923E+04  0.14369946923E+04  0.00000000000E+00 0.  1.
          2   -1    0    0  501    0  0.00000000000E+00 -0.00000000000E+00 -0.35332074056E+04  0.35332074056E+04  0.00000000000E+00 0. -1.
         23    2    1    2    0    0  0.33118040158E+03  0.21834401746E+04 -0.15366538207E+04  0.26920015780E+04  0.92065610072E+02 0.  0.
         11    1    3    3    0    0  0.93562798310E+02  0.42503305919E+03 -0.33055483451E+03  0.54651038165E+03  0.00000000000E+00 0. -1.
        -11    1    3    3    0    0  0.23761760327E+03  0.17584071155E+04 -0.12060989862E+04  0.21454911963E+04  0.00000000000E+00 0.  1.
         22    1    1    2    0    0 -0.33118040158E+03 -0.21834401746E+04 -0.55955889267E+03  0.22782005199E+04  0.00000000000E+00 0.  1.
<mgrwt>
<rscale>  0 0.45065287E+04</rscale>
<asrwt>0</asrwt>
<pdfrwt beam="1">  1        2 0.54357036E+00 0.45065287E+04</pdfrwt>
<pdfrwt beam="2">  1       -2 0.22107611E+00 0.45065287E+04</pdfrwt>
<totfact> 0.56649826E-02</totfact>
</mgrwt>
</event>
<event>
 6    1  0.1614874E-005  0.4414083E+04  0.7818608E-02  0.7925853E-01
          1   -1    0    0  501    0  0.00000000000E+00  0.00000000000E+00  0.27190963783E+04  0.27190963783E+04  0.00000000000E+00 0. -1.
         -1   -1    0    0    0  501 -0.00000000000E+00 -0.00000000000E+00 -0.17914156733E+04  0.17914156733E+04  0.00000000000E+00 0.  1.
         23    2    1    2    0    0 -0.20043154426E+04 -0.38733827914E+03 -0.39065195728E+03  0.20804272085E+04  0.90868488466E+02 0.  0.
         13    1    3    3    0    0 -0.26933354323E+03 -0.31376815495E+02 -0.75666226942E+02  0.28151454662E+03  0.00000000000E+00 0.  1.
        -13    1    3    3    0    0 -0.17349818994E+04 -0.35596146365E+03 -0.31498573034E+03  0.17989126619E+04  0.00000000000E+00 0. -1.
         22    1    1    2    0    0  0.20043154426E+04  0.38733827914E+03  0.13183326622E+04  0.24300848430E+04  0.00000000000E+00 0. -1.
<mgrwt>
<rscale>  0 0.44140829E+04</rscale>
<asrwt>0</asrwt>
<pdfrwt beam="1">  1        1 0.41832252E+00 0.44140829E+04</pdfrwt>
<pdfrwt beam="2">  1       -1 0.27560241E+00 0.44140829E+04</pdfrwt>
<totfact> 0.34210565E-02</totfact>
</mgrwt>
</event>
<event>
 6    1  0.1614874E-005  0.1197019E+04  0.7818608E-02  0.9115470E-01
         -1   -1    0    0    0  501 -0.00000000000E+00  0.00000000000E+00  0.31381918265E+03  0.31381918265E+03  0.00000000000E+00 0.  1.
          1   -1    0    0  501    0  0.00000000000E+00 -0.00000000000E+00 -0.11414646053E+04  0.11414646053E+04  0.00000000000E+00 0. -1.
         23    2    1    2    0    0 -0.30468764059E+01 -0.56103533871E+03 -0.17533506960E+03  0.59488926714E+03  0.91547358164E+02 0.  0.
         11    1    3    3    0    0 -0.25315014337E+02 -0.34703612852E+03 -0.68367501586E+02  0.35461111054E+03  0.00000000000E+00 0. -1.
        -11    1    3    3    0    0  0.22268137931E+02 -0.21399921019E+03 -0.10696756801E+03  0.24027815659E+03  0.00000000000E+00 0.  1.
         22    1    1    2    0    0  0.30468764059E+01  0.56103533871E+03 -0.65231035304E+03  0.86039452080E+03  0.00000000000E+00 0. -1.
<mgrwt>
<rscale>  0 0.11970188E+04</rscale>
<asrwt>0</asrwt>
<pdfrwt beam="1">  1        1 0.17560994E+00 0.11970188E+04</pdfrwt>
<pdfrwt beam="2">  1       -1 0.48279874E-01 0.11970188E+04</pdfrwt>
<totfact> 0.50110486E+01</totfact>
</mgrwt>
</event>
<event>
 6    1  0.1614874E-005  0.1180099E+04  0.7818608E-02  0.9130457E-01
          2   -1    0    0  501    0  0.00000000000E+00  0.00000000000E+00  0.53697907364E+03  0.53697907364E+03  0.00000000000E+00 0. -1.
         -2   -1    0    0    0  501 -0.00000000000E+00 -0.00000000000E+00 -0.64836461485E+03  0.64836461485E+03  0.00000000000E+00 0.  1.
         23    2    1    2    0    0  0.38958484851E+03  0.43826577256E+03 -0.69315295714E+02  0.59744646350E+03  0.91018816424E+02 0.  0.
         13    1    3    3    0    0  0.11198263243E+03  0.19154330489E+03 -0.19649266807E+02  0.22274434067E+03  0.00000000000E+00 0. -1.
        -13    1    3    3    0    0  0.27760221609E+03  0.24672246766E+03 -0.49666028908E+02  0.37470212283E+03  0.00000000000E+00 0.  1.
         22    1    1    2    0    0 -0.38958484851E+03 -0.43826577256E+03 -0.42070245494E+02  0.58789722498E+03  0.00000000000E+00 0.  1.
<mgrwt>
<rscale>  0 0.11800987E+04</rscale>
<asrwt>0</asrwt>
<pdfrwt beam="1">  1        2 0.82612166E-01 0.11800987E+04</pdfrwt>
<pdfrwt beam="2">  1       -2 0.99748402E-01 0.11800987E+04</pdfrwt>
<totfact> 0.46508788E+01</totfact>
</mgrwt>
</event>
<event>
 6    1  0.1614874E-005  0.1239920E+04  0.7818608E-02  0.9078615E-01
         -2   -1    0    0    0  501 -0.00000000000E+00  0.00000000000E+00  0.41983982029E+03  0.41983982029E+03  0.00000000000E+00 0.  1.
          2   -1    0    0  501    0  0.00000000000E+00 -0.00000000000E+00 -0.91546938533E+03  0.91546938533E+03  0.00000000000E+00 0. -1.
         23    2    1    2    0    0  0.88812767096E+02  0.30705435001E+03  0.31872684906E+03  0.46046839116E+03  0.90962923690E+02 0.  0.
         11    1    3    3    0    0  0.79755663432E+02  0.13152305896E+03  0.17842408858E+03  0.23557257114E+03  0.00000000000E+00 0.  1.
        -11    1    3    3    0    0  0.90571036640E+01  0.17553129105E+03  0.14030276048E+03  0.22489582002E+03  0.00000000000E+00 0. -1.
         22    1    1    2    0    0 -0.88812767096E+02 -0.30705435001E+03 -0.81435641410E+03  0.87484081446E+03  0.00000000000E+00 0. -1.
<mgrwt>
<rscale>  0 0.12399202E+04</rscale>
<asrwt>0</asrwt>
<pdfrwt beam="1">  1        2 0.14084144E+00 0.12399202E+04</pdfrwt>
<pdfrwt beam="2">  1       -2 0.64590742E-01 0.12399202E+04</pdfrwt>
<totfact> 0.62361822E+01</totfact>
</mgrwt>
</event>
<event>
 6    1  0.1614874E-005  0.2413227E+04  0.7818608E-02  0.8434568E-01
         -2   -1    0    0    0  501 -0.00000000000E+00  0.00000000000E+00  0.11677834713E+04  0.11677834713E+04  0.00000000000E+00 0. -1.
          2   -1    0    0  501    0  0.00000000000E+00 -0.00000000000E+00 -0.12467342211E+04  0.12467342211E+04  0.00000000000E+00 0.  1.
         23    2    1    2    0    0 -0.26837020218E+03  0.84887965126E+03 -0.85188987725E+03  0.12355121274E+04  0.90302969531E+02 0.  0.
         13    1    3    3    0    0 -0.14260124186E+03  0.31009715443E+03 -0.31011655842E+03  0.46115901723E+03  0.00000000000E+00 0. -1.
        -13    1    3    3    0    0 -0.12576896032E+03  0.53878249683E+03 -0.54177331883E+03  0.77435311019E+03  0.00000000000E+00 0.  1.
         22    1    1    2    0    0  0.26837020218E+03 -0.84887965126E+03  0.77293912745E+03  0.11790055651E+04  0.00000000000E+00 0. -1.
<mgrwt>
<rscale>  0 0.24132266E+04</rscale>
<asrwt>0</asrwt>
<pdfrwt beam="1">  1        2 0.19180526E+00 0.24132266E+04</pdfrwt>
<pdfrwt beam="2">  1       -2 0.17965900E+00 0.24132266E+04</pdfrwt>
<totfact> 0.29096475E+00</totfact>
</mgrwt>
</event>
<event>
 6    1  0.1614874E-005  0.1978002E+04  0.7818608E-02  0.8616975E-01
         -2   -1    0    0    0  501 -0.00000000000E+00  0.00000000000E+00  0.37151315556E+03  0.37151315556E+03  0.00000000000E+00 0.  1.
          2   -1    0    0  501    0  0.00000000000E+00 -0.00000000000E+00 -0.26328071854E+04  0.26328071854E+04  0.00000000000E+00 0. -1.
         23    2    1    2    0    0 -0.77447335918E+03  0.60169698126E+03 -0.96647579481E+03  0.13800043301E+04  0.92131687291E+02 0.  0.
         13    1    3    3    0    0 -0.40307151837E+03  0.36419832243E+03 -0.50291901858E+03  0.74029359462E+03  0.00000000000E+00 0. -1.
        -13    1    3    3    0    0 -0.37140184081E+03  0.23749865883E+03 -0.46355677623E+03  0.63971073548E+03  0.00000000000E+00 0.  1.
         22    1    1    2    0    0  0.77447335918E+03 -0.60169698126E+03 -0.12948182350E+04  0.16243160108E+04  0.00000000000E+00 0. -1.
<mgrwt>
<rscale>  0 0.19780015E+04</rscale>
<asrwt>0</asrwt>
<pdfrwt beam="1">  1        2 0.40504727E+00 0.19780015E+04</pdfrwt>
<pdfrwt beam="2">  1       -2 0.57155869E-01 0.19780015E+04</pdfrwt>
<totfact> 0.77800703E+00</totfact>
</mgrwt>
</event>
<event>
 6    1  0.1614874E-005  0.2336087E+04  0.7818608E-02  0.8463827E-01
         -1   -1    0    0    0  501 -0.00000000000E+00  0.00000000000E+00  0.71716558201E+03  0.71716558201E+03  0.00000000000E+00 0.  1.
          1   -1    0    0  501    0  0.00000000000E+00 -0.00000000000E+00 -0.19023858113E+04  0.19023858113E+04  0.00000000000E+00 0. -1.
         23    2    1    2    0    0  0.42767952891E+03  0.31796221440E+03  0.56963304509E+03  0.78556127233E+03  0.92816794166E+02 0.  0.
         13    1    3    3    0    0  0.30457533147E+03  0.19126514624E+03  0.42866351211E+03  0.55955419337E+03  0.00000000000E+00 0.  1.
        -13    1    3    3    0    0  0.12310419744E+03  0.12669706816E+03  0.14096953299E+03  0.22600707895E+03  0.00000000000E+00 0. -1.
         22    1    1    2    0    0 -0.42767952891E+03 -0.31796221440E+03 -0.17548532744E+04  0.18339901210E+04  0.00000000000E+00 0. -1.
<mgrwt>
<rscale>  0 0.23360870E+04</rscale>
<asrwt>0</asrwt>
<pdfrwt beam="1">  1        1 0.29267474E+00 0.23360870E+04</pdfrwt>
<pdfrwt beam="2">  1       -1 0.11033317E+00 0.23360870E+04</pdfrwt>
<totfact> 0.23696314E+00</totfact>
</mgrwt>
</event>
<event>
 6    1  0.1614874E-005  0.2690268E+04  0.7818608E-02  0.8338170E-01
         -1   -1    0    0    0  501 -0.00000000000E+00  0.00000000000E+00  0.13319613903E+04  0.13319613903E+04  0.00000000000E+00 0.  1.
          1   -1    0    0  501    0  0.00000000000E+00 -0.00000000000E+00 -0.13584365373E+04  0.13584365373E+04  0.00000000000E+00 0. -1.
         23    2    1    2    0    0  0.16331781281E+03  0.36899916841E+03  0.12683983629E+04  0.13341050016E+04  0.90380606174E+02 0.  0.
         13    1    3    3    0    0  0.84824716845E+02  0.24408614899E+03  0.67856178850E+03  0.72609874089E+03  0.00000000000E+00 0.  1.
        -13    1    3    3    0    0  0.78493095969E+02  0.12491301942E+03  0.58983657443E+03  0.60800626072E+03  0.00000000000E+00 0. -1.
         22    1    1    2    0    0 -0.16331781281E+03 -0.36899916841E+03 -0.12948735099E+04  0.13562929260E+04  0.00000000000E+00 0. -1.
<mgrwt>
<rscale>  0 0.26902677E+04</rscale>
<asrwt>0</asrwt>
<pdfrwt beam="1">  1        1 0.20899024E+00 0.26902677E+04</pdfrwt>
<pdfrwt beam="2">  1       -1 0.20491714E+00 0.26902677E+04</pdfrwt>
<totfact> 0.10001479E+00</totfact>
</mgrwt>
</event>
<event>
 6    1  0.1614874E-005  0.3059450E+04  0.7818608E-02  0.8226956E-01
          2   -1    0    0  501    0  0.00000000000E+00  0.00000000000E+00  0.22289879340E+04  0.22289879340E+04  0.00000000000E+00 0.  1.
         -2   -1    0    0    0  501 -0.00000000000E+00 -0.00000000000E+00 -0.10498297399E+04  0.10498297399E+04  0.00000000000E+00 0. -1.
         23    2    1    2    0    0  0.50278241788E+03  0.38423290920E+03  0.20810857568E+04  0.21770470913E+04  0.90504265991E+02 0.  0.
         13    1    3    3    0    0  0.20521509020E+03  0.21357671150E+03  0.97064662328E+03  0.10148315684E+04  0.00000000000E+00 0.  1.
        -13    1    3    3    0    0  0.29756732768E+03  0.17065619770E+03  0.11104391335E+04  0.11622155229E+04  0.00000000000E+00 0. -1.
         22    1    1    2    0    0 -0.50278241788E+03 -0.38423290920E+03 -0.90192756275E+03  0.11017705826E+04  0.00000000000E+00 0. -1.
<mgrwt>
<rscale>  0 0.30594495E+04</rscale>
<asrwt>0</asrwt>
<pdfrwt beam="1">  1        2 0.34292122E+00 0.30594495E+04</pdfrwt>
<pdfrwt beam="2">  1       -2 0.16151227E+00 0.30594495E+04</pdfrwt>
<totfact> 0.10400241E+00</totfact>
</mgrwt>
</event>
<event>
 6    1  0.1614874E-005  0.2095276E+04  0.7818608E-02  0.8563327E-01
          1   -1    0    0  501    0  0.00000000000E+00  0.00000000000E+00  0.82342369869E+03  0.82342369869E+03  0.00000000000E+00 0. -1.
         -1   -1    0    0    0  501 -0.00000000000E+00 -0.00000000000E+00 -0.13329048115E+04  0.13329048115E+04  0.00000000000E+00 0.  1.
         23    2    1    2    0    0 -0.83255745530E+03  0.53869378919E+03 -0.59654869325E+03  0.11608770154E+04  0.91772472273E+02 0.  0.
         11    1    3    3    0    0 -0.60894991326E+03  0.41626889045E+03 -0.48375802644E+03  0.88211201906E+03  0.00000000000E+00 0. -1.
        -11    1    3    3    0    0 -0.22360754204E+03  0.12242489873E+03 -0.11279066680E+03  0.27876499638E+03  0.00000000000E+00 0.  1.
         22    1    1    2    0    0  0.83255745530E+03 -0.53869378919E+03  0.87067580423E+02  0.99545149477E+03  0.00000000000E+00 0. -1.
<mgrwt>
<rscale>  0 0.20952760E+04</rscale>
<asrwt>0</asrwt>
<pdfrwt beam="1">  1        1 0.12668057E+00 0.20952760E+04</pdfrwt>
<pdfrwt beam="2">  1       -1 0.20506228E+00 0.20952760E+04</pdfrwt>
<totfact> 0.26965506E+00</totfact>
</mgrwt>
</event>
<event>
 6    1  0.1614874E-005  0.2546654E+04  0.7818608E-02  0.8386551E-01
         -2   -1    0    0    0  501 -0.00000000000E+00  0.00000000000E+00  0.78040630448E+03  0.78040630448E+03  0.00000000000E+00 0.  1.
          2   -1    0    0  501    0  0.00000000000E+00 -0.00000000000E+00 -0.20775865161E+04  0.20775865161E+04  0.00000000000E+00 0. -1.
         23    2    1    2    0    0  0.23337839117E+03  0.72023242587E+03 -0.17960784633E+04  0.19512956902E+04  0.91960879876E+02 0.  0.
         13    1    3    3    0    0  0.13105459388E+03  0.27518435579E+03 -0.77327478810E+03  0.83117725796E+03  0.00000000000E+00 0.  1.
        -13    1    3    3    0    0  0.10232379730E+03  0.44504807008E+03 -0.10228036752E+04  0.11201184322E+04  0.00000000000E+00 0. -1.
         22    1    1    2    0    0 -0.23337839117E+03 -0.72023242587E+03  0.49889825169E+03  0.90669713040E+03  0.00000000000E+00 0.  1.
<mgrwt>
<rscale>  0 0.25466540E+04</rscale>
<asrwt>0</asrwt>
<pdfrwt beam="1">  1        2 0.31962869E+00 0.25466540E+04</pdfrwt>
<pdfrwt beam="2">  1       -2 0.12006251E+00 0.25466540E+04</pdfrwt>
<totfact> 0.28494177E+00</totfact>
</mgrwt>
</event>
<event>
 6    1  0.1614874E-005  0.2693998E+04  0.7818608E-02  0.8336955E-01
         -2   -1    0    0    0  501 -0.00000000000E+00  0.00000000000E+00  0.11807723618E+04  0.11807723618E+04  0.00000000000E+00 0. -1.
          2   -1    0    0  501    0  0.00000000000E+00 -0.00000000000E+00 -0.15366264941E+04  0.15366264941E+04  0.00000000000E+00 0.  1.
         23    2    1    2    0    0 -0.64811954014E+03 -0.84232212286E+03 -0.10105084366E+04  0.14691449734E+04  0.87716334107E+02 0.  0.
         11    1    3    3    0    0 -0.29329654288E+03 -0.36586116658E+03 -0.38754274089E+03  0.60833102115E+03  0.00000000000E+00 0.  1.
        -11    1    3    3    0    0 -0.35482299725E+03 -0.47646095628E+03 -0.62296569576E+03  0.86081395222E+03  0.00000000000E+00 0. -1.
         22    1    1    2    0    0  0.64811954014E+03  0.84232212286E+03  0.65465430442E+03  0.12482538825E+04  0.00000000000E+00 0. -1.
<mgrwt>
<rscale>  0 0.26939978E+04</rscale>
<asrwt>0</asrwt>
<pdfrwt beam="1">  1        2 0.23640407E+00 0.26939978E+04</pdfrwt>
<pdfrwt beam="2">  1       -2 0.18165729E+00 0.26939978E+04</pdfrwt>
<totfact> 0.18766604E+00</totfact>
</mgrwt>
</event>
<event>
 6    1  0.1614874E-005  0.3238991E+04  0.7818608E-02  0.8178595E-01
          2   -1    0    0  501    0  0.00000000000E+00  0.00000000000E+00  0.23461182262E+04  0.23461182262E+04  0.00000000000E+00 0. -1.
         -2   -1    0    0    0  501 -0.00000000000E+00 -0.00000000000E+00 -0.11179168481E+04  0.11179168481E+04  0.00000000000E+00 0.  1.
         23    2    1    2    0    0  0.73494606858E+03 -0.97003388178E+03  0.17553329897E+04  0.21377699456E+04  0.88062365619E+02 0.  0.
         11    1    3    3    0    0  0.10256608237E+03 -0.14623788721E+03  0.31419050414E+03  0.36141526503E+03  0.00000000000E+00 0. -1.
        -11    1    3    3    0    0  0.63237998621E+03 -0.82379599457E+03  0.14411424856E+04  0.17763546806E+04  0.00000000000E+00 0.  1.
         22    1    1    2    0    0 -0.73494606858E+03  0.97003388178E+03 -0.52713161163E+03  0.13262651287E+04  0.00000000000E+00 0.  1.
<mgrwt>
<rscale>  0 0.32389906E+04</rscale>
<asrwt>0</asrwt>
<pdfrwt beam="1">  1        2 0.36094126E+00 0.32389906E+04</pdfrwt>
<pdfrwt beam="2">  1       -2 0.17198721E+00 0.32389906E+04</pdfrwt>
<totfact> 0.73904609E-01</totfact>
</mgrwt>
</event>
<event>
 6    1  0.1614874E-005  0.2501302E+04  0.7818608E-02  0.8402522E-01
         -1   -1    0    0    0  501 -0.00000000000E+00  0.00000000000E+00  0.11706878054E+04  0.11706878054E+04  0.00000000000E+00 0.  1.
          1   -1    0    0  501    0  0.00000000000E+00 -0.00000000000E+00 -0.13360761766E+04  0.13360761766E+04  0.00000000000E+00 0. -1.
         23    2    1    2    0    0  0.70470158470E+02  0.59504591635E+03 -0.11810401748E+04  0.13275293692E+04  0.91829439592E+02 0.  0.
         13    1    3    3    0    0 -0.90951414447E+01  0.71480645235E+02 -0.94844042701E+02  0.11911169832E+03  0.00000000000E+00 0. -1.
        -13    1    3    3    0    0  0.79565299915E+02  0.52356527112E+03 -0.10861961321E+04  0.12084176709E+04  0.00000000000E+00 0.  1.
         22    1    1    2    0    0 -0.70470158470E+02 -0.59504591635E+03  0.10156518036E+04  0.11792346128E+04  0.00000000000E+00 0.  1.
<mgrwt>
<rscale>  0 0.25013021E+04</rscale>
<asrwt>0</asrwt>
<pdfrwt beam="1">  1        1 0.20555018E+00 0.25013021E+04</pdfrwt>
<pdfrwt beam="2">  1       -1 0.18010582E+00 0.25013021E+04</pdfrwt>
<totfact> 0.15733643E+00</totfact>
</mgrwt>
</event>
<event>
 6    1  0.1614874E-005  0.8101951E+03  0.7818608E-02  0.9545376E-01
         -2   -1    0    0    0  501 -0.00000000000E+00  0.00000000000E+00  0.20572254156E+03  0.20572254156E+03  0.00000000000E+00 0.  1.
          2   -1    0    0  501    0  0.00000000000E+00 -0.00000000000E+00 -0.79769581393E+03  0.79769581393E+03  0.00000000000E+00 0. -1.
         23    2    1    2    0    0  0.22990729322E+03 -0.10086697847E+03  0.85953023711E+02  0.28049680114E+03  0.90879163404E+02 0.  0.
         11    1    3    3    0    0  0.69330904322E+02 -0.31557359661E+02  0.72374076194E+02  0.10507448857E+03  0.00000000000E+00 0. -1.
        -11    1    3    3    0    0  0.16057638890E+03 -0.69309618807E+02  0.13578947517E+02  0.17542231257E+03  0.00000000000E+00 0.  1.
         22    1    1    2    0    0 -0.22990729322E+03  0.10086697847E+03 -0.67792629609E+03  0.72292155435E+03  0.00000000000E+00 0. -1.
<mgrwt>
<rscale>  0 0.81019506E+03</rscale>
<asrwt>0</asrwt>
<pdfrwt beam="1">  1        2 0.12272243E+00 0.81019506E+03</pdfrwt>
<pdfrwt beam="2">  1       -2 0.31649622E-01 0.81019506E+03</pdfrwt>
<totfact> 0.32207812E+02</totfact>
</mgrwt>
</event>
<event>
 6    1  0.1614874E-005  0.1403135E+04  0.7818608E-02  0.8951552E-01
         -2   -1    0    0    0  501 -0.00000000000E+00  0.00000000000E+00  0.28509663261E+03  0.28509663261E+03  0.00000000000E+00 0.  1.
          2   -1    0    0  501    0  0.00000000000E+00 -0.00000000000E+00 -0.17264221841E+04  0.17264221841E+04  0.00000000000E+00 0. -1.
         23    2    1    2    0    0  0.10317543059E+03 -0.33541656290E+03  0.14221415659E+03  0.38956091121E+03  0.91560892611E+02 0.  0.
         11    1    3    3    0    0  0.68330915909E+02 -0.21062876549E+03  0.13597074040E+03  0.25984925085E+03  0.00000000000E+00 0. -1.
        -11    1    3    3    0    0  0.34844514683E+02 -0.12478779741E+03  0.62434161911E+01  0.12971166036E+03  0.00000000000E+00 0.  1.
         22    1    1    2    0    0 -0.10317543059E+03  0.33541656290E+03 -0.15835397081E+04  0.16219579055E+04  0.00000000000E+00 0. -1.
<mgrwt>
<rscale>  0 0.14031353E+04</rscale>
<asrwt>0</asrwt>
<pdfrwt beam="1">  1        2 0.26560341E+00 0.14031353E+04</pdfrwt>
<pdfrwt beam="2">  1       -2 0.43861021E-01 0.14031353E+04</pdfrwt>
<totfact> 0.45470565E+01</totfact>
</mgrwt>
</event>
<event>
 6    1  0.1694034E-005  0.3593038E+04  0.7818608E-02  0.8092088E-01
         -3   -1    0    0    0  501 -0.00000000000E+00  0.00000000000E+00  0.11337807707E+04  0.11337807707E+04  0.00000000000E+00 0.  1.
          3   -1    0    0  501    0  0.00000000000E+00 -0.00000000000E+00 -0.28466524332E+04  0.28466524332E+04  0.00000000000E+00 0. -1.
         23    2    1    2    0    0 -0.86573895086E+03 -0.65581565809E+03  0.72685074367E+03  0.13098820385E+04  0.88774110839E+02 0.  0.
         11    1    3    3    0    0 -0.40951913088E+03 -0.31358343019E+03  0.39849219556E+03  0.65179484208E+03  0.00000000000E+00 0. -1.
        -11    1    3    3    0    0 -0.45621981998E+03 -0.34223222790E+03  0.32835854810E+03  0.65808719640E+03  0.00000000000E+00 0.  1.
         22    1    1    2    0    0  0.86573895086E+03  0.65581565809E+03 -0.24397224061E+04  0.26705511654E+04  0.00000000000E+00 0. -1.
<mgrwt>
<rscale>  0 0.35930376E+04</rscale>
<asrwt>0</asrwt>
<pdfrwt beam="1">  1        3 0.43794652E+00 0.35930376E+04</pdfrwt>
<pdfrwt beam="2">  1       -3 0.17442781E+00 0.35930376E+04</pdfrwt>
<totfact> 0.32003072E-03</totfact>
</mgrwt>
</event>
<event>
 6    1  0.1614874E-005  0.3328548E+04  0.7818608E-02  0.8155669E-01
         -2   -1    0    0    0  501 -0.00000000000E+00  0.00000000000E+00  0.14904195352E+04  0.14904195352E+04  0.00000000000E+00 0.  1.
          2   -1    0    0  501    0  0.00000000000E+00 -0.00000000000E+00 -0.18584086279E+04  0.18584086279E+04  0.00000000000E+00 0. -1.
         23    2    1    2    0    0 -0.20188376068E+03  0.11153071665E+04  0.10400612343E+04  0.15412682465E+04  0.95463648490E+02 0.  0.
         13    1    3    3    0    0 -0.70078592224E+02  0.18563586013E+03  0.17580318243E+03  0.26510081216E+03  0.00000000000E+00 0. -1.
        -13    1    3    3    0    0 -0.13180516846E+03  0.92967130636E+03  0.86425805189E+03  0.12761674344E+04  0.00000000000E+00 0.  1.
         22    1    1    2    0    0  0.20188376068E+03 -0.11153071665E+04 -0.14080503270E+04  0.18075599165E+04  0.00000000000E+00 0. -1.
<mgrwt>
<rscale>  0 0.33285483E+04</rscale>
<asrwt>0</asrwt>
<pdfrwt beam="1">  1        2 0.28590902E+00 0.33285483E+04</pdfrwt>
<pdfrwt beam="2">  1       -2 0.22929531E+00 0.33285483E+04</pdfrwt>
<totfact> 0.57639655E-01</totfact>
</mgrwt>
</event>
<event>
 6    1  0.1614874E-005  0.2388823E+04  0.7818608E-02  0.8443700E-01
         -2   -1    0    0    0  501 -0.00000000000E+00  0.00000000000E+00  0.69644128126E+03  0.69644128126E+03  0.00000000000E+00 0.  1.
          2   -1    0    0  501    0  0.00000000000E+00 -0.00000000000E+00 -0.20484407921E+04  0.20484407921E+04  0.00000000000E+00 0. -1.
         23    2    1    2    0    0 -0.33335469271E+03  0.72747528882E+03  0.33923666942E+03  0.87388622504E+03  0.90829342359E+02 0.  0.
         11    1    3    3    0    0 -0.28353678645E+03  0.55555652091E+03  0.23353348175E+03  0.66601354663E+03  0.00000000000E+00 0. -1.
        -11    1    3    3    0    0 -0.49817906262E+02  0.17191876791E+03  0.10570318768E+03  0.20787267841E+03  0.00000000000E+00 0.  1.
         22    1    1    2    0    0  0.33335469271E+03 -0.72747528882E+03 -0.16912361802E+04  0.18709958483E+04  0.00000000000E+00 0. -1.
<mgrwt>
<rscale>  0 0.23888229E+04</rscale>
<asrwt>0</asrwt>
<pdfrwt beam="1">  1        2 0.31514473E+00 0.23888229E+04</pdfrwt>
<pdfrwt beam="2">  1       -2 0.10714481E+00 0.23888229E+04</pdfrwt>
<totfact> 0.39564198E+00</totfact>
</mgrwt>
</event>
<event>
 6    1  0.1614874E-005  0.3027260E+04  0.7818608E-02  0.8235989E-01
         -2   -1    0    0    0  501 -0.00000000000E+00  0.00000000000E+00  0.14560574244E+04  0.14560574244E+04  0.00000000000E+00 0. -1.
          2   -1    0    0  501    0  0.00000000000E+00 -0.00000000000E+00 -0.15734788133E+04  0.15734788133E+04  0.00000000000E+00 0.  1.
         23    2    1    2    0    0  0.66520666494E+03  0.12099814605E+04  0.55878444932E+03  0.14920677413E+04  0.86435188832E+02 0.  0.
         13    1    3    3    0    0  0.35389158039E+03  0.67390710368E+03  0.35150194338E+03  0.83841734909E+03  0.00000000000E+00 0.  1.
        -13    1    3    3    0    0  0.31131508454E+03  0.53607435686E+03  0.20728250594E+03  0.65365039220E+03  0.00000000000E+00 0. -1.
         22    1    1    2    0    0 -0.66520666494E+03 -0.12099814605E+04 -0.67620583817E+03  0.15374684964E+04  0.00000000000E+00 0.  1.
<mgrwt>
<rscale>  0 0.30272598E+04</rscale>
<asrwt>0</asrwt>
<pdfrwt beam="1">  1        2 0.24207366E+00 0.30272598E+04</pdfrwt>
<pdfrwt beam="2">  1       -2 0.22400883E+00 0.30272598E+04</pdfrwt>
<totfact> 0.91903780E-01</totfact>
</mgrwt>
</event>
<event>
 6    1  0.1614874E-005  0.2994015E+04  0.7818608E-02  0.8245442E-01
         -2   -1    0    0    0  501 -0.00000000000E+00  0.00000000000E+00  0.17233583382E+04  0.17233583382E+04  0.00000000000E+00 0.  1.
          2   -1    0    0  501    0  0.00000000000E+00 -0.00000000000E+00 -0.13003859051E+04  0.13003859051E+04  0.00000000000E+00 0. -1.
         23    2    1    2    0    0 -0.43333229643E+03 -0.13556477959E+04 -0.25293040891E+03  0.14481800657E+04  0.87714796185E+02 0.  0.
         11    1    3    3    0    0 -0.31914818379E+03 -0.10788495674E+04 -0.17317456370E+03  0.11383151505E+04  0.00000000000E+00 0.  1.
        -11    1    3    3    0    0 -0.11418411263E+03 -0.27679822849E+03 -0.79755845216E+02  0.30986491527E+03  0.00000000000E+00 0. -1.
         22    1    1    2    0    0  0.43333229643E+03  0.13556477959E+04  0.67590284207E+03  0.15755641775E+04  0.00000000000E+00 0.  1.
<mgrwt>
<rscale>  0 0.29940146E+04</rscale>
<asrwt>0</asrwt>
<pdfrwt beam="1">  1        2 0.20005937E+00 0.29940146E+04</pdfrwt>
<pdfrwt beam="2">  1       -2 0.26513205E+00 0.29940146E+04</pdfrwt>
<totfact> 0.73446886E-01</totfact>
</mgrwt>
</event>
<event>
 6    1  0.1614874E-005  0.1817036E+04  0.7818608E-02  0.8697292E-01
         -1   -1    0    0    0  501 -0.00000000000E+00  0.00000000000E+00  0.47855059886E+03  0.47855059886E+03  0.00000000000E+00 0.  1.
          1   -1    0    0  501    0  0.00000000000E+00 -0.00000000000E+00 -0.17248009481E+04  0.17248009481E+04  0.00000000000E+00 0. -1.
         23    2    1    2    0    0 -0.56761500276E+03  0.31249311122E+03 -0.13931244448E+04  0.15389640577E+04  0.88181156285E+02 0.  0.
         11    1    3    3    0    0 -0.32991420166E+03  0.22683360862E+03 -0.89272407911E+03  0.97839314586E+03  0.00000000000E+00 0.  1.
        -11    1    3    3    0    0 -0.23770080109E+03  0.85659502594E+02 -0.50040036572E+03  0.56057091187E+03  0.00000000000E+00 0. -1.
         22    1    1    2    0    0  0.56761500276E+03 -0.31249311122E+03  0.14687409557E+03  0.66438748924E+03  0.00000000000E+00 0.  1.
<mgrwt>
<rscale>  0 0.18170355E+04</rscale>
<asrwt>0</asrwt>
<pdfrwt beam="1">  1        1 0.26535399E+00 0.18170355E+04</pdfrwt>
<pdfrwt beam="2">  1       -1 0.73623169E-01 0.18170355E+04</pdfrwt>
<totfact> 0.80263955E+00</totfact>
</mgrwt>
</event>
<event>
 6    1  0.1614874E-005  0.3537509E+04  0.7818608E-02  0.8104958E-01
         -1   -1    0    0    0  501 -0.00000000000E+00  0.00000000000E+00  0.16602340184E+04  0.16602340184E+04  0.00000000000E+00 0.  1.
          1   -1    0    0  501    0  0.00000000000E+00 -0.00000000000E+00 -0.18843682622E+04  0.18843682622E+04  0.00000000000E+00 0. -1.
         23    2    1    2    0    0 -0.14482565478E+04 -0.46605826558E+03  0.78950838363E+03  0.17164532955E+04  0.90725368545E+02 0.  0.
         13    1    3    3    0    0 -0.67751501911E+03 -0.25815658494E+03  0.34834481616E+03  0.80437275837E+03  0.00000000000E+00 0. -1.
        -13    1    3    3    0    0 -0.77074152873E+03 -0.20790168063E+03  0.44116356748E+03  0.91208053712E+03  0.00000000000E+00 0.  1.
         22    1    1    2    0    0  0.14482565478E+04  0.46605826558E+03 -0.10136426274E+04  0.18281489850E+04  0.00000000000E+00 0. -1.
<mgrwt>
<rscale>  0 0.35375089E+04</rscale>
<asrwt>0</asrwt>
<pdfrwt beam="1">  1        1 0.28990281E+00 0.35375089E+04</pdfrwt>
<pdfrwt beam="2">  1       -1 0.25542062E+00 0.35375089E+04</pdfrwt>
<totfact> 0.18661255E-01</totfact>
</mgrwt>
</event>
<event>
 6    1  0.1614874E-005  0.3053371E+04  0.7818608E-02  0.8228653E-01
         -2   -1    0    0    0  501 -0.00000000000E+00  0.00000000000E+00  0.20021422265E+04  0.20021422265E+04  0.00000000000E+00 0.  1.
          2   -1    0    0  501    0  0.00000000000E+00 -0.00000000000E+00 -0.11641371768E+04  0.11641371768E+04  0.00000000000E+00 0. -1.
         23    2    1    2    0    0  0.70819938730E+03 -0.11874099737E+04  0.10875457465E+04  0.17613739341E+04  0.90518325119E+02 0.  0.
         13    1    3    3    0    0  0.55271117222E+03 -0.85289547251E+03  0.78124886481E+03  0.12819009773E+04  0.00000000000E+00 0. -1.
        -13    1    3    3    0    0  0.15548821508E+03 -0.33451450121E+03  0.30629688174E+03  0.47947295681E+03  0.00000000000E+00 0.  1.
         22    1    1    2    0    0 -0.70819938730E+03  0.11874099737E+04 -0.24954069692E+03  0.14049054692E+04  0.00000000000E+00 0. -1.
<mgrwt>
<rscale>  0 0.30533707E+04</rscale>
<asrwt>0</asrwt>
<pdfrwt beam="1">  1        2 0.17909803E+00 0.30533707E+04</pdfrwt>
<pdfrwt beam="2">  1       -2 0.30802188E+00 0.30533707E+04</pdfrwt>
<totfact> 0.48139767E-01</totfact>
</mgrwt>
</event>
<event>
 6    1  0.1614874E-005  0.2278828E+04  0.7818608E-02  0.8486316E-01
         -2   -1    0    0    0  501 -0.00000000000E+00  0.00000000000E+00  0.78093052131E+03  0.78093052131E+03  0.00000000000E+00 0.  1.
          2   -1    0    0  501    0  0.00000000000E+00 -0.00000000000E+00 -0.16624575959E+04  0.16624575959E+04  0.00000000000E+00 0. -1.
         23    2    1    2    0    0 -0.21336941415E+03 -0.23094025490E+01 -0.16395865197E+04  0.16558692523E+04  0.90150900808E+02 0.  0.
         13    1    3    3    0    0 -0.15248948182E+03 -0.12067439888E+02 -0.83291094656E+03  0.84684078201E+03  0.00000000000E+00 0.  1.
        -13    1    3    3    0    0 -0.60879932328E+02  0.97580373393E+01 -0.80667557315E+03  0.80902847030E+03  0.00000000000E+00 0. -1.
         22    1    1    2    0    0  0.21336941415E+03  0.23094025490E+01  0.75805944512E+03  0.78751886489E+03  0.00000000000E+00 0.  1.
<mgrwt>
<rscale>  0 0.22788277E+04</rscale>
<asrwt>0</asrwt>
<pdfrwt beam="1">  1        2 0.25576271E+00 0.22788277E+04</pdfrwt>
<pdfrwt beam="2">  1       -2 0.12014316E+00 0.22788277E+04</pdfrwt>
<totfact> 0.49486312E+00</totfact>
</mgrwt>
</event>
<event>
 6    1  0.1614874E-005  0.3565906E+04  0.7818608E-02  0.8098346E-01
          1   -1    0    0  501    0  0.00000000000E+00  0.00000000000E+00  0.22436474788E+04  0.22436474788E+04  0.00000000000E+00 0. -1.
         -1   -1    0    0    0  501 -0.00000000000E+00 -0.00000000000E+00 -0.14168539353E+04  0.14168539353E+04  0.00000000000E+00 0.  1.
         23    2    1    2    0    0 -0.95928889584E+03 -0.68802635034E+03  0.17836142449E+04  0.21409220976E+04  0.93017251109E+02 0.  0.
         13    1    3    3    0    0 -0.53493455996E+03 -0.33222678864E+03  0.98541734834E+03  0.11694344671E+04  0.00000000000E+00 0.  1.
        -13    1    3    3    0    0 -0.42435433588E+03 -0.35579956170E+03  0.79819689660E+03  0.97148763051E+03  0.00000000000E+00 0. -1.
         22    1    1    2    0    0  0.95928889584E+03  0.68802635034E+03 -0.95682070144E+03  0.15195793165E+04  0.00000000000E+00 0.  1.
<mgrwt>
<rscale>  0 0.35659056E+04</rscale>
<asrwt>0</asrwt>
<pdfrwt beam="1">  1        1 0.34517653E+00 0.35659056E+04</pdfrwt>
<pdfrwt beam="2">  1       -1 0.21797753E+00 0.35659056E+04</pdfrwt>
<totfact> 0.18739470E-01</totfact>
</mgrwt>
</event>
<event>
 6    1  0.1614874E-005  0.8832949E+03  0.7818608E-02  0.9446708E-01
         -2   -1    0    0    0  501 -0.00000000000E+00  0.00000000000E+00  0.14306299209E+03  0.14306299209E+03  0.00000000000E+00 0.  1.
          2   -1    0    0  501    0  0.00000000000E+00 -0.00000000000E+00 -0.13634025838E+04  0.13634025838E+04  0.00000000000E+00 0. -1.
         23    2    1    2    0    0  0.21866655793E+03 -0.35430641303E+03 -0.38972998173E+03  0.57734748756E+03  0.89958684162E+02 0.  0.
         13    1    3    3    0    0  0.99925800814E+02 -0.24246210144E+03 -0.22536251571E+03  0.34577637251E+03  0.00000000000E+00 0. -1.
        -13    1    3    3    0    0  0.11874075712E+03 -0.11184431160E+03 -0.16436746602E+03  0.23157111504E+03  0.00000000000E+00 0.  1.
         22    1    1    2    0    0 -0.21866655793E+03  0.35430641303E+03 -0.83060960999E+03  0.92911808834E+03  0.00000000000E+00 0. -1.
<mgrwt>
<rscale>  0 0.88329486E+03</rscale>
<asrwt>0</asrwt>
<pdfrwt beam="1">  1        2 0.20975424E+00 0.88329486E+03</pdfrwt>
<pdfrwt beam="2">  1       -2 0.22009691E-01 0.88329486E+03</pdfrwt>
<totfact> 0.27467749E+02</totfact>
</mgrwt>
</event>
<event>
 6    1  0.1614874E-005  0.8664669E+03  0.7818608E-02  0.9468498E-01
         -2   -1    0    0    0  501 -0.00000000000E+00  0.00000000000E+00  0.20445896323E+03  0.20445896323E+03  0.00000000000E+00 0.  1.
          2   -1    0    0  501    0  0.00000000000E+00 -0.00000000000E+00 -0.91798959720E+03  0.91798959720E+03  0.00000000000E+00 0. -1.
         23    2    1    2    0    0  0.39033907374E+03 -0.66395767174E+02 -0.14850824127E+03  0.43250414627E+03  0.90731187717E+02 0.  0.
         13    1    3    3    0    0  0.20439825839E+03 -0.20288280058E+02 -0.12254411757E+03  0.23918052407E+03  0.00000000000E+00 0. -1.
        -13    1    3    3    0    0  0.18594081535E+03 -0.46107487116E+02 -0.25964123698E+02  0.19332362220E+03  0.00000000000E+00 0.  1.
         22    1    1    2    0    0 -0.39033907374E+03  0.66395767174E+02 -0.56502239269E+03  0.68994441416E+03  0.00000000000E+00 0. -1.
<mgrwt>
<rscale>  0 0.86646685E+03</rscale>
<asrwt>0</asrwt>
<pdfrwt beam="1">  1        2 0.14122917E+00 0.86646685E+03</pdfrwt>
<pdfrwt beam="2">  1       -2 0.31455225E-01 0.86646685E+03</pdfrwt>
<totfact> 0.26820395E+02</totfact>
</mgrwt>
</event>
<event>
 6    1  0.1614874E-005  0.8251549E+04  0.7818608E-02  0.7460547E-01
         -2   -1    0    0    0  501 -0.00000000000E+00  0.00000000000E+00  0.46394965131E+04  0.46394965131E+04  0.00000000000E+00 0.  1.
          2   -1    0    0  501    0  0.00000000000E+00 -0.00000000000E+00 -0.36689363171E+04  0.36689363171E+04  0.00000000000E+00 0. -1.
         23    2    1    2    0    0  0.37827249029E+04  0.11818276612E+04  0.16386400075E+04  0.42894709062E+04  0.93248429891E+02 0.  0.
         11    1    3    3    0    0  0.27651250538E+04  0.90624467748E+03  0.12114738951E+04  0.31519620837E+04  0.00000000000E+00 0. -1.
        -11    1    3    3    0    0  0.10175998490E+04  0.27558298367E+03  0.42716611242E+03  0.11375088225E+04  0.00000000000E+00 0.  1.
         22    1    1    2    0    0 -0.37827249029E+04 -0.11818276612E+04 -0.66807981151E+03  0.40189619239E+04  0.00000000000E+00 0. -1.
<mgrwt>
<rscale>  0 0.82515495E+04</rscale>
<asrwt>0</asrwt>
<pdfrwt beam="1">  1        2 0.56445174E+00 0.82515495E+04</pdfrwt>
<pdfrwt beam="2">  1       -2 0.71376870E+00 0.82515495E+04</pdfrwt>
<totfact> 0.72802128E-05</totfact>
</mgrwt>
</event>
<event>
 6    1  0.1614874E-005  0.3026480E+04  0.7818608E-02  0.8236210E-01
          1   -1    0    0  501    0  0.00000000000E+00  0.00000000000E+00  0.15946729470E+04  0.15946729470E+04  0.00000000000E+00 0. -1.
         -1   -1    0    0    0  501 -0.00000000000E+00 -0.00000000000E+00 -0.14359656190E+04  0.14359656190E+04  0.00000000000E+00 0.  1.
         23    2    1    2    0    0  0.91259567955E+03  0.35638067328E+03  0.12328313230E+04  0.15768227541E+04  0.81601887588E+02 0.  0.
         11    1    3    3    0    0  0.73491542004E+03  0.25164723265E+03  0.96770581980E+03  0.12409196420E+04  0.00000000000E+00 0. -1.
        -11    1    3    3    0    0  0.17768025951E+03  0.10473344063E+03  0.26512550323E+03  0.33590311203E+03  0.00000000000E+00 0.  1.
         22    1    1    2    0    0 -0.91259567955E+03 -0.35638067328E+03 -0.10741239950E+04  0.14538158120E+04  0.00000000000E+00 0.  1.
<mgrwt>
<rscale>  0 0.30264802E+04</rscale>
<asrwt>0</asrwt>
<pdfrwt beam="1">  1        1 0.24533430E+00 0.30264802E+04</pdfrwt>
<pdfrwt beam="2">  1       -1 0.22091779E+00 0.30264802E+04</pdfrwt>
<totfact> 0.51849586E-01</totfact>
</mgrwt>
</event>
<event>
 6    1  0.1614874E-005  0.2129444E+04  0.7818608E-02  0.8548383E-01
          1   -1    0    0  501    0  0.00000000000E+00  0.00000000000E+00  0.14113862361E+04  0.14113862361E+04  0.00000000000E+00 0. -1.
         -1   -1    0    0    0  501 -0.00000000000E+00 -0.00000000000E+00 -0.80320515988E+03  0.80320515988E+03  0.00000000000E+00 0.  1.
         23    2    1    2    0    0  0.89848332311E+03 -0.31995928933E+03  0.79223872428E+03  0.12432400453E+04  0.91418735873E+02 0.  0.
         11    1    3    3    0    0  0.25998435608E+03 -0.13511976293E+03  0.25925042262E+03  0.39122882994E+03  0.00000000000E+00 0. -1.
        -11    1    3    3    0    0  0.63849896702E+03 -0.18483952639E+03  0.53298830165E+03  0.85201121536E+03  0.00000000000E+00 0.  1.
         22    1    1    2    0    0 -0.89848332311E+03  0.31995928933E+03 -0.18405764802E+03  0.97135135071E+03  0.00000000000E+00 0.  1.
<mgrwt>
<rscale>  0 0.21294438E+04</rscale>
<asrwt>0</asrwt>
<pdfrwt beam="1">  1        1 0.21713634E+00 0.21294438E+04</pdfrwt>
<pdfrwt beam="2">  1       -1 0.12357002E+00 0.21294438E+04</pdfrwt>
<totfact> 0.39846502E+00</totfact>
</mgrwt>
</event>
<event>
 6    1  0.1614874E-005  0.1511794E+04  0.7818608E-02  0.8876648E-01
         -3   -1    0    0    0  501 -0.00000000000E+00  0.00000000000E+00  0.58856615362E+03  0.58856615362E+03  0.00000000000E+00 0.  1.
          3   -1    0    0  501    0  0.00000000000E+00 -0.00000000000E+00 -0.97080081103E+03  0.97080081103E+03  0.00000000000E+00 0. -1.
         23    2    1    2    0    0  0.32008808830E+03 -0.51150758109E+03 -0.65686870967E+03  0.89640372853E+03  0.89256669144E+02 0.  0.
         13    1    3    3    0    0  0.20448881130E+03 -0.37165960014E+03 -0.50711569760E+03  0.66114511499E+03  0.00000000000E+00 0.  1.
        -13    1    3    3    0    0  0.11559927700E+03 -0.13984798095E+03 -0.14975301207E+03  0.23525861354E+03  0.00000000000E+00 0. -1.
         22    1    1    2    0    0 -0.32008808830E+03  0.51150758109E+03  0.27463405226E+03  0.66296323612E+03  0.00000000000E+00 0.  1.
<mgrwt>
<rscale>  0 0.15117943E+04</rscale>
<asrwt>0</asrwt>
<pdfrwt beam="1">  1        3 0.14935397E+00 0.15117943E+04</pdfrwt>
<pdfrwt beam="2">  1       -3 0.90548640E-01 0.15117943E+04</pdfrwt>
<totfact> 0.90944187E-01</totfact>
</mgrwt>
</event>
<event>
 6    1  0.1614874E-005  0.2156076E+04  0.7818608E-02  0.8536936E-01
         -1   -1    0    0    0  501 -0.00000000000E+00  0.00000000000E+00  0.97593422932E+03  0.97593422932E+03  0.00000000000E+00 0.  1.
          1   -1    0    0  501    0  0.00000000000E+00 -0.00000000000E+00 -0.11908236363E+04  0.11908236363E+04  0.00000000000E+00 0. -1.
         23    2    1    2    0    0  0.54260408381E+03  0.91256982388E+03  0.68040429845E+02  0.10680075901E+04  0.93850078649E+02 0.  0.
         13    1    3    3    0    0  0.35130297724E+03  0.56273174043E+03 -0.77514623333E+00  0.66338630854E+03  0.00000000000E+00 0. -1.
        -13    1    3    3    0    0  0.19130110656E+03  0.34983808345E+03  0.68815576078E+02  0.40462128159E+03  0.00000000000E+00 0.  1.
         22    1    1    2    0    0 -0.54260408381E+03 -0.91256982388E+03 -0.28292983678E+03  0.10987502754E+04  0.00000000000E+00 0.  1.
<mgrwt>
<rscale>  0 0.21560756E+04</rscale>
<asrwt>0</asrwt>
<pdfrwt beam="1">  1        1 0.18320364E+00 0.21560756E+04</pdfrwt>
<pdfrwt beam="2">  1       -1 0.15014373E+00 0.21560756E+04</pdfrwt>
<totfact> 0.34567425E+00</totfact>
</mgrwt>
</event>
<event>
 6    1  0.1614874E-005  0.2919605E+03  0.7818608E-02  0.1089330E+00
         -1   -1    0    0    0  501 -0.00000000000E+00  0.00000000000E+00  0.35062648684E+02  0.35062648684E+02  0.00000000000E+00 0.  1.
          1   -1    0    0  501    0  0.00000000000E+00 -0.00000000000E+00 -0.60777598863E+03  0.60777598863E+03  0.00000000000E+00 0. -1.
         23    2    1    2    0    0 -0.19406847293E+02  0.93961344738E+02 -0.51272116376E+03  0.52968201475E+03  0.92058052086E+02 0.  0.
         13    1    3    3    0    0 -0.23550279922E+02  0.26678483301E+01 -0.25757505560E+03  0.25866318325E+03  0.00000000000E+00 0. -1.
        -13    1    3    3    0    0  0.41434326294E+01  0.91293496408E+02 -0.25514610816E+03  0.27101883150E+03  0.00000000000E+00 0.  1.
         22    1    1    2    0    0  0.19406847293E+02 -0.93961344738E+02 -0.59992176183E+02  0.11315662256E+03  0.00000000000E+00 0.  1.
<mgrwt>
<rscale>  0 0.29196052E+03</rscale>
<asrwt>0</asrwt>
<pdfrwt beam="1">  1        1 0.93503993E-01 0.29196052E+03</pdfrwt>
<pdfrwt beam="2">  1       -1 0.53942539E-02 0.29196052E+03</pdfrwt>
<totfact> 0.54145714E+03</totfact>
</mgrwt>
</event>
<event>
 6    1  0.1614874E-005  0.1919977E+04  0.7818608E-02  0.8644976E-01
          2   -1    0    0  501    0  0.00000000000E+00  0.00000000000E+00  0.31086715607E+04  0.31086715607E+04  0.00000000000E+00 0. -1.
         -2   -1    0    0    0  501 -0.00000000000E+00 -0.00000000000E+00 -0.29645386316E+03  0.29645386316E+03  0.00000000000E+00 0.  1.
         23    2    1    2    0    0  0.48539150989E+03 -0.37506273897E+03  0.10458944281E+03  0.62888196519E+03  0.90975813054E+02 0.  0.
         13    1    3    3    0    0  0.33258887922E+03 -0.20990009110E+03  0.89697415733E+02  0.40338447815E+03  0.00000000000E+00 0.  1.
        -13    1    3    3    0    0  0.15280263066E+03 -0.16516264787E+03  0.14892027080E+02  0.22549748704E+03  0.00000000000E+00 0. -1.
         22    1    1    2    0    0 -0.48539150989E+03  0.37506273897E+03  0.27076282547E+04  0.27762434587E+04  0.00000000000E+00 0. -1.
<mgrwt>
<rscale>  0 0.19199768E+04</rscale>
<asrwt>0</asrwt>
<pdfrwt beam="1">  1        2 0.47825714E+00 0.19199768E+04</pdfrwt>
<pdfrwt beam="2">  1       -2 0.45608289E-01 0.19199768E+04</pdfrwt>
<totfact> 0.63560695E+00</totfact>
</mgrwt>
</event>
<event>
 6    1  0.1614874E-005  0.5364680E+04  0.7818608E-02  0.7774589E-01
          2   -1    0    0  501    0  0.00000000000E+00  0.00000000000E+00  0.37004000896E+04  0.37004000896E+04  0.00000000000E+00 0. -1.
         -2   -1    0    0    0  501 -0.00000000000E+00 -0.00000000000E+00 -0.19443699785E+04  0.19443699785E+04  0.00000000000E+00 0.  1.
         23    2    1    2    0    0  0.64330586857E+03  0.21555302165E+04  0.24141582501E+04  0.33009941397E+04  0.90825652342E+02 0.  0.
         11    1    3    3    0    0  0.53212858417E+03  0.18651178915E+04  0.21103880066E+04  0.28662803627E+04  0.00000000000E+00 0.  1.
        -11    1    3    3    0    0  0.11117728440E+03  0.29041232496E+03  0.30377024352E+03  0.43471377699E+03  0.00000000000E+00 0. -1.
         22    1    1    2    0    0 -0.64330586857E+03 -0.21555302165E+04 -0.65812813909E+03  0.23437759283E+04  0.00000000000E+00 0.  1.
<mgrwt>
<rscale>  0 0.53646796E+04</rscale>
<asrwt>0</asrwt>
<pdfrwt beam="1">  1        2 0.56929232E+00 0.53646796E+04</pdfrwt>
<pdfrwt beam="2">  1       -2 0.29913384E+00 0.53646796E+04</pdfrwt>
<totfact> 0.13234201E-02</totfact>
</mgrwt>
</event>
<event>
 6    1  0.1614874E-005  0.1233174E+04  0.7818608E-02  0.9084305E-01
          2   -1    0    0  501    0  0.00000000000E+00  0.00000000000E+00  0.21366790439E+04  0.21366790439E+04  0.00000000000E+00 0. -1.
         -2   -1    0    0    0  501 -0.00000000000E+00 -0.00000000000E+00 -0.17793019458E+03  0.17793019458E+03  0.00000000000E+00 0.  1.
         23    2    1    2    0    0 -0.92048785469E+02  0.48499867354E+03  0.16675352291E+04  0.17414582419E+04  0.91139320494E+02 0.  0.
         13    1    3    3    0    0  0.17338482357E+02  0.69665209845E+02  0.27302097707E+03  0.28230182138E+03  0.00000000000E+00 0.  1.
        -13    1    3    3    0    0 -0.10938726783E+03  0.41533346369E+03  0.13945142521E+04  0.14591564205E+04  0.00000000000E+00 0. -1.
         22    1    1    2    0    0  0.92048785469E+02 -0.48499867354E+03  0.29121362016E+03  0.57315099651E+03  0.00000000000E+00 0.  1.
<mgrwt>
<rscale>  0 0.12331743E+04</rscale>
<asrwt>0</asrwt>
<pdfrwt beam="1">  1        2 0.32871984E+00 0.12331743E+04</pdfrwt>
<pdfrwt beam="2">  1       -2 0.27373878E-01 0.12331743E+04</pdfrwt>
<totfact> 0.67209662E+01</totfact>
</mgrwt>
</event>
<event>
 6    1  0.1614874E-005  0.2274823E+04  0.7818608E-02  0.8487915E-01
         -1   -1    0    0    0  501 -0.00000000000E+00  0.00000000000E+00  0.29939930522E+03  0.29939930522E+03  0.00000000000E+00 0.  1.
          1   -1    0    0  501    0  0.00000000000E+00 -0.00000000000E+00 -0.43210033295E+04  0.43210033295E+04  0.00000000000E+00 0. -1.
         23    2    1    2    0    0 -0.66461228943E+02  0.35600198735E+03 -0.42000144773E+04  0.42166888751E+04  0.95859008592E+02 0.  0.
         13    1    3    3    0    0 -0.74793983610E+02  0.19499319164E+03 -0.26888114799E+04  0.26969100206E+04  0.00000000000E+00 0. -1.
        -13    1    3    3    0    0  0.83327546664E+01  0.16100879571E+03 -0.15112029974E+04  0.15197788545E+04  0.00000000000E+00 0.  1.
         22    1    1    2    0    0  0.66461228943E+02 -0.35600198735E+03  0.17841045306E+03  0.40371375962E+03  0.00000000000E+00 0.  1.
<mgrwt>
<rscale>  0 0.22748234E+04</rscale>
<asrwt>0</asrwt>
<pdfrwt beam="1">  1        1 0.66476972E+00 0.22748234E+04</pdfrwt>
<pdfrwt beam="2">  1       -1 0.46061433E-01 0.22748234E+04</pdfrwt>
<totfact> 0.20766989E-01</totfact>
</mgrwt>
</event>
<event>
 6    1  0.1614874E-005  0.2555429E+04  0.7818608E-02  0.8383500E-01
          1   -1    0    0  501    0  0.00000000000E+00  0.00000000000E+00  0.19039253226E+04  0.19039253226E+04  0.00000000000E+00 0. -1.
         -1   -1    0    0    0  501 -0.00000000000E+00 -0.00000000000E+00 -0.85746795523E+03  0.85746795523E+03  0.00000000000E+00 0.  1.
         23    2    1    2    0    0 -0.45721266887E+03 -0.47289553308E+03 -0.65776792092E+03  0.93463181474E+03  0.90578041244E+02 0.  0.
         13    1    3    3    0    0 -0.32724214158E+03 -0.36454107787E+03 -0.43692785644E+03  0.65641722130E+03  0.00000000000E+00 0.  1.
        -13    1    3    3    0    0 -0.12997052729E+03 -0.10835445521E+03 -0.22084006447E+03  0.27821459344E+03  0.00000000000E+00 0. -1.
         22    1    1    2    0    0  0.45721266887E+03  0.47289553308E+03  0.17042252882E+04  0.18267614630E+04  0.00000000000E+00 0. -1.
<mgrwt>
<rscale>  0 0.25554295E+04</rscale>
<asrwt>0</asrwt>
<pdfrwt beam="1">  1        1 0.29291159E+00 0.25554295E+04</pdfrwt>
<pdfrwt beam="2">  1       -1 0.13191815E+00 0.25554295E+04</pdfrwt>
<totfact> 0.14958810E+00</totfact>
</mgrwt>
</event>
<event>
 6    1  0.1614874E-005  0.3574906E+04  0.7818608E-02  0.8096264E-01
          2   -1    0    0  501    0  0.00000000000E+00  0.00000000000E+00  0.25326761927E+04  0.25326761927E+04  0.00000000000E+00 0. -1.
         -2   -1    0    0    0  501 -0.00000000000E+00 -0.00000000000E+00 -0.12615070012E+04  0.12615070012E+04  0.00000000000E+00 0.  1.
         23    2    1    2    0    0 -0.80107044513E+03  0.48551597577E+03 -0.97833380558E+03  0.13574428806E+04  0.89858322271E+02 0.  0.
         11    1    3    3    0    0 -0.91588642891E+02  0.56771440617E+02 -0.74370685365E+02  0.13092927411E+03  0.00000000000E+00 0.  1.
        -11    1    3    3    0    0 -0.70948180223E+03  0.42874453515E+03 -0.90396312022E+03  0.12265136065E+04  0.00000000000E+00 0. -1.
         22    1    1    2    0    0  0.80107044513E+03 -0.48551597577E+03  0.22495029971E+04  0.24367403133E+04  0.00000000000E+00 0. -1.
<mgrwt>
<rscale>  0 0.35749063E+04</rscale>
<asrwt>0</asrwt>
<pdfrwt beam="1">  1        2 0.38964249E+00 0.35749063E+04</pdfrwt>
<pdfrwt beam="2">  1       -2 0.19407800E+00 0.35749063E+04</pdfrwt>
<totfact> 0.39607968E-01</totfact>
</mgrwt>
</event>
<event>
 6    1  0.1614874E-005  0.2084561E+04  0.7818608E-02  0.8568075E-01
         -3   -1    0    0    0  501 -0.00000000000E+00  0.00000000000E+00  0.12107357190E+04  0.12107357190E+04  0.00000000000E+00 0.  1.
          3   -1    0    0  501    0  0.00000000000E+00 -0.00000000000E+00 -0.89726315489E+03  0.89726315489E+03  0.00000000000E+00 0. -1.
         23    2    1    2    0    0  0.91353211967E+03  0.42861396866E+03 -0.98700074064E+02  0.10179818321E+04  0.91073805290E+02 0.  0.
         11    1    3    3    0    0  0.25145913189E+03  0.12681190570E+03  0.12575420814E+02  0.28190618235E+03  0.00000000000E+00 0. -1.
        -11    1    3    3    0    0  0.66207298777E+03  0.30180206296E+03 -0.11127549488E+03  0.73607564972E+03  0.00000000000E+00 0.  1.
         22    1    1    2    0    0 -0.91353211967E+03 -0.42861396866E+03  0.41217263818E+03  0.10900170418E+04  0.00000000000E+00 0.  1.
<mgrwt>
<rscale>  0 0.20845609E+04</rscale>
<asrwt>0</asrwt>
<pdfrwt beam="1">  1        3 0.13804049E+00 0.20845609E+04</pdfrwt>
<pdfrwt beam="2">  1       -3 0.18626703E+00 0.20845609E+04</pdfrwt>
<totfact> 0.17321385E-01</totfact>
</mgrwt>
</event>
<event>
 6    1  0.1614874E-005  0.1133332E+04  0.7818608E-02  0.9173299E-01
          2   -1    0    0  501    0  0.00000000000E+00  0.00000000000E+00  0.54157206253E+03  0.54157206253E+03  0.00000000000E+00 0. -1.
         -2   -1    0    0    0  501 -0.00000000000E+00 -0.00000000000E+00 -0.59292294455E+03  0.59292294455E+03  0.00000000000E+00 0.  1.
         23    2    1    2    0    0  0.11971512057E+03 -0.12407887040E+03 -0.56229353390E+03  0.59524583492E+03  0.91740446645E+02 0.  0.
         11    1    3    3    0    0  0.24063726435E+02 -0.90862354173E+02 -0.27770701099E+03  0.29318290245E+03  0.00000000000E+00 0. -1.
        -11    1    3    3    0    0  0.95651394139E+02 -0.33216516229E+02 -0.28458652291E+03  0.30206293247E+03  0.00000000000E+00 0.  1.
         22    1    1    2    0    0 -0.11971512057E+03  0.12407887040E+03  0.51094265187E+03  0.53924917216E+03  0.00000000000E+00 0. -1.
<mgrwt>
<rscale>  0 0.11333323E+04</rscale>
<asrwt>0</asrwt>
<pdfrwt beam="1">  1        2 0.83318779E-01 0.11333323E+04</pdfrwt>
<pdfrwt beam="2">  1       -2 0.91218915E-01 0.11333323E+04</pdfrwt>
<totfact> 0.56939872E+01</totfact>
</mgrwt>
</event>
<event>
 6    1  0.1614874E-005  0.2651691E+04  0.7818608E-02  0.8350852E-01
         -1   -1    0    0    0  501 -0.00000000000E+00  0.00000000000E+00  0.13747116152E+04  0.13747116152E+04  0.00000000000E+00 0.  1.
          1   -1    0    0  501    0  0.00000000000E+00 -0.00000000000E+00 -0.12787160801E+04  0.12787160801E+04  0.00000000000E+00 0. -1.
         23    2    1    2    0    0 -0.16903368604E+03  0.72644668134E+03 -0.10469208666E+04  0.12886731133E+04  0.91312234301E+02 0.  0.
         13    1    3    3    0    0 -0.19261454733E+02  0.16088308486E+03 -0.28756157458E+03  0.33006973476E+03  0.00000000000E+00 0.  1.
        -13    1    3    3    0    0 -0.14977223130E+03  0.56556359648E+03 -0.75935929207E+03  0.95860337856E+03  0.00000000000E+00 0. -1.
         22    1    1    2    0    0  0.16903368604E+03 -0.72644668134E+03  0.11429164017E+04  0.13647545820E+04  0.00000000000E+00 0.  1.
<mgrwt>
<rscale>  0 0.26516907E+04</rscale>
<asrwt>0</asrwt>
<pdfrwt beam="1">  1        1 0.19672555E+00 0.26516907E+04</pdfrwt>
<pdfrwt beam="2">  1       -1 0.21149409E+00 0.26516907E+04</pdfrwt>
<totfact> 0.10317536E+00</totfact>
</mgrwt>
</event>
<event>
 6    1  0.1614874E-005  0.1753387E+04  0.7818608E-02  0.8731488E-01
          2   -1    0    0  501    0  0.00000000000E+00  0.00000000000E+00  0.94081881535E+03  0.94081881535E+03  0.00000000000E+00 0. -1.
         -2   -1    0    0    0  501 -0.00000000000E+00 -0.00000000000E+00 -0.81693874484E+03  0.81693874484E+03  0.00000000000E+00 0.  1.
         23    2    1    2    0    0 -0.94002462152E+02  0.72284733418E+03  0.54612305757E+03  0.91535986816E+03  0.91041544424E+02 0.  0.
         13    1    3    3    0    0 -0.35954131393E+00  0.34732706555E+03  0.24638694863E+03  0.42584357244E+03  0.00000000000E+00 0.  1.
        -13    1    3    3    0    0 -0.93642920838E+02  0.37552026862E+03  0.29973610893E+03  0.48951629571E+03  0.00000000000E+00 0. -1.
         22    1    1    2    0    0  0.94002462152E+02 -0.72284733418E+03 -0.42224298706E+03  0.84239769203E+03  0.00000000000E+00 0.  1.
<mgrwt>
<rscale>  0 0.17533868E+04</rscale>
<asrwt>0</asrwt>
<pdfrwt beam="1">  1        2 0.14474136E+00 0.17533868E+04</pdfrwt>
<pdfrwt beam="2">  1       -2 0.12568288E+00 0.17533868E+04</pdfrwt>
<totfact> 0.12338569E+01</totfact>
</mgrwt>
</event>
<event>
 6    1  0.1614874E-005  0.1955068E+04  0.7818608E-02  0.8627921E-01
          2   -1    0    0  501    0  0.00000000000E+00  0.00000000000E+00  0.12523115319E+04  0.12523115319E+04  0.00000000000E+00 0. -1.
         -2   -1    0    0    0  501 -0.00000000000E+00 -0.00000000000E+00 -0.76304684286E+03  0.76304684286E+03  0.00000000000E+00 0.  1.
         23    2    1    2    0    0  0.59825731429E+03 -0.75404640209E+03  0.40812273639E+03  0.10493967776E+04  0.90397114351E+02 0.  0.
         11    1    3    3    0    0  0.32574589823E+03 -0.36592928772E+03  0.16864171197E+03  0.51812610516E+03  0.00000000000E+00 0. -1.
        -11    1    3    3    0    0  0.27251141606E+03 -0.38811711437E+03  0.23948102442E+03  0.53127067245E+03  0.00000000000E+00 0.  1.
         22    1    1    2    0    0 -0.59825731429E+03  0.75404640209E+03  0.81141952604E+02  0.96596159710E+03  0.00000000000E+00 0. -1.
<mgrwt>
<rscale>  0 0.19550676E+04</rscale>
<asrwt>0</asrwt>
<pdfrwt beam="1">  1        2 0.19266331E+00 0.19550676E+04</pdfrwt>
<pdfrwt beam="2">  1       -2 0.11739182E+00 0.19550676E+04</pdfrwt>
<totfact> 0.92193517E+00</totfact>
</mgrwt>
</event>
<event>
 6    1  0.1654762E-005  0.3741518E+04  0.7818608E-02  0.8058823E-01
          2   -1    0    0  501    0  0.00000000000E+00  0.00000000000E+00  0.20953145248E+04  0.20953145248E+04  0.00000000000E+00 0. -1.
         -2   -1    0    0    0  501 -0.00000000000E+00 -0.00000000000E+00 -0.16702691850E+04  0.16702691850E+04  0.00000000000E+00 0.  1.
         23    2    1    2    0    0 -0.17557028055E+04  0.54598087819E+03  0.55402343161E+03  0.19224280439E+04  0.90554738967E+02 0.  0.
         11    1    3    3    0    0 -0.77056855218E+03  0.19306017340E+03  0.24518725315E+03  0.83136328598E+03  0.00000000000E+00 0. -1.
        -11    1    3    3    0    0 -0.98513425328E+03  0.35292070480E+03  0.30883617845E+03  0.10910647579E+04  0.00000000000E+00 0.  1.
         22    1    1    2    0    0  0.17557028055E+04 -0.54598087819E+03 -0.12897809187E+03  0.18431556659E+04  0.00000000000E+00 0. -1.
<mgrwt>
<rscale>  0 0.37415180E+04</rscale>
<asrwt>0</asrwt>
<pdfrwt beam="1">  1        2 0.32235608E+00 0.37415180E+04</pdfrwt>
<pdfrwt beam="2">  1       -2 0.25696449E+00 0.37415180E+04</pdfrwt>
<totfact> 0.27736164E-01</totfact>
</mgrwt>
</event>
<event>
 6    1  0.1614874E-005  0.1064875E+04  0.7818608E-02  0.9240120E-01
         -2   -1    0    0    0  501 -0.00000000000E+00  0.00000000000E+00  0.31804203099E+03  0.31804203099E+03  0.00000000000E+00 0. -1.
          2   -1    0    0  501    0  0.00000000000E+00 -0.00000000000E+00 -0.89135878253E+03  0.89135878253E+03  0.00000000000E+00 0.  1.
         23    2    1    2    0    0 -0.93021572120E+02 -0.25990152933E+03  0.22312799794E+03  0.36647373673E+03  0.91187051841E+02 0.  0.
         11    1    3    3    0    0 -0.67007368394E+02 -0.12283181688E+03  0.61163433113E+02  0.15270431627E+03  0.00000000000E+00 0. -1.
        -11    1    3    3    0    0 -0.26014203726E+02 -0.13706971245E+03  0.16196456482E+03  0.21376942047E+03  0.00000000000E+00 0.  1.
         22    1    1    2    0    0  0.93021572120E+02  0.25990152933E+03 -0.79644474948E+03  0.84292707680E+03  0.00000000000E+00 0.  1.
<mgrwt>
<rscale>  0 0.10648747E+04</rscale>
<asrwt>0</asrwt>
<pdfrwt beam="1">  1        2 0.13713212E+00 0.10648747E+04</pdfrwt>
<pdfrwt beam="2">  1       -2 0.48929543E-01 0.10648747E+04</pdfrwt>
<totfact> 0.11692353E+02</totfact>
</mgrwt>
</event>
<event>
 6    1  0.1614874E-005  0.5280922E+03  0.7818608E-02  0.1006696E+00
          2   -1    0    0  501    0  0.00000000000E+00  0.00000000000E+00  0.71180118337E+03  0.71180118337E+03  0.00000000000E+00 0. -1.
         -2   -1    0    0    0  501 -0.00000000000E+00 -0.00000000000E+00 -0.97949168478E+02  0.97949168478E+02  0.00000000000E+00 0.  1.
         23    2    1    2    0    0  0.10812148955E+03 -0.47262400379E+02  0.66478375804E+03  0.68122785011E+03  0.90608762394E+02 0.  0.
         11    1    3    3    0    0  0.10229755783E+03 -0.65336229842E+02  0.46636059471E+03  0.48189814024E+03  0.00000000000E+00 0. -1.
        -11    1    3    3    0    0  0.58239317211E+01  0.18073829463E+02  0.19842316333E+03  0.19932970987E+03  0.00000000000E+00 0.  1.
         22    1    1    2    0    0 -0.10812148955E+03  0.47262400379E+02 -0.50931743148E+02  0.12852250174E+03  0.00000000000E+00 0.  1.
<mgrwt>
<rscale>  0 0.52809217E+03</rscale>
<asrwt>0</asrwt>
<pdfrwt beam="1">  1        2 0.10950787E+00 0.52809217E+03</pdfrwt>
<pdfrwt beam="2">  1       -2 0.15069103E-01 0.52809217E+03</pdfrwt>
<totfact> 0.13978211E+03</totfact>
</mgrwt>
</event>
<event>
 6    1  0.1614874E-005  0.1655996E+04  0.7818608E-02  0.8786867E-01
         -1   -1    0    0    0  501 -0.00000000000E+00  0.00000000000E+00  0.61103937519E+03  0.61103937519E+03  0.00000000000E+00 0.  1.
          1   -1    0    0  501    0  0.00000000000E+00 -0.00000000000E+00 -0.11219911203E+04  0.11219911203E+04  0.00000000000E+00 0. -1.
         23    2    1    2    0    0 -0.14824381183E+03  0.28951567649E+03  0.53750704247E+03  0.63527761624E+03  0.94171515380E+02 0.  0.
         13    1    3    3    0    0 -0.78445394422E+02  0.17624923040E+03  0.22982118126E+03  0.30005873838E+03  0.00000000000E+00 0. -1.
        -13    1    3    3    0    0 -0.69798417408E+02  0.11326644608E+03  0.30768586121E+03  0.33521887786E+03  0.00000000000E+00 0.  1.
         22    1    1    2    0    0  0.14824381183E+03 -0.28951567649E+03 -0.10484587876E+04  0.10977528793E+04  0.00000000000E+00 0. -1.
<mgrwt>
<rscale>  0 0.16559961E+04</rscale>
<asrwt>0</asrwt>
<pdfrwt beam="1">  1        1 0.17261402E+00 0.16559961E+04</pdfrwt>
<pdfrwt beam="2">  1       -1 0.94006059E-01 0.16559961E+04</pdfrwt>
<totfact> 0.12782634E+01</totfact>
</mgrwt>
</event>
<event>
 6    1  0.1614874E-005  0.3578877E+04  0.7818608E-02  0.8095347E-01
         -1   -1    0    0    0  501 -0.00000000000E+00  0.00000000000E+00  0.11403807310E+04  0.11403807310E+04  0.00000000000E+00 0.  1.
          1   -1    0    0  501    0  0.00000000000E+00 -0.00000000000E+00 -0.28079126609E+04  0.28079126609E+04  0.00000000000E+00 0. -1.
         23    2    1    2    0    0  0.16991214929E+02  0.74122411883E+03 -0.26296048879E+04  0.27336797611E+04  0.92093833104E+02 0.  0.
         11    1    3    3    0    0  0.43202396506E+02  0.18419058308E+03 -0.69900789392E+03  0.72415789281E+03  0.00000000000E+00 0. -1.
        -11    1    3    3    0    0 -0.26211181577E+02  0.55703353575E+03 -0.19305969939E+04  0.20095218683E+04  0.00000000000E+00 0.  1.
         22    1    1    2    0    0 -0.16991214929E+02 -0.74122411883E+03  0.96207295795E+03  0.12146136308E+04  0.00000000000E+00 0.  1.
<mgrwt>
<rscale>  0 0.35788766E+04</rscale>
<asrwt>0</asrwt>
<pdfrwt beam="1">  1        1 0.43198656E+00 0.35788766E+04</pdfrwt>
<pdfrwt beam="2">  1       -1 0.17544319E+00 0.35788766E+04</pdfrwt>
<totfact> 0.14962016E-01</totfact>
</mgrwt>
</event>
<event>
 6    1  0.1614874E-005  0.1964917E+04  0.7818608E-02  0.8623201E-01
          1   -1    0    0  501    0  0.00000000000E+00  0.00000000000E+00  0.26143969583E+04  0.26143969583E+04  0.00000000000E+00 0. -1.
         -1   -1    0    0    0  501 -0.00000000000E+00 -0.00000000000E+00 -0.36919598012E+03  0.36919598012E+03  0.00000000000E+00 0.  1.
         23    2    1    2    0    0  0.85934039709E+03 -0.47157432155E+03  0.11009020895E+04  0.14768520166E+04  0.90874691109E+02 0.  0.
         11    1    3    3    0    0  0.47572206518E+03 -0.20955558101E+03  0.58795174311E+03  0.78480078814E+03  0.00000000000E+00 0. -1.
        -11    1    3    3    0    0  0.38361833191E+03 -0.26201874054E+03  0.51295034639E+03  0.69205122847E+03  0.00000000000E+00 0.  1.
         22    1    1    2    0    0 -0.85934039709E+03  0.47157432155E+03  0.11442988887E+04  0.15067409218E+04  0.00000000000E+00 0.  1.
<mgrwt>
<rscale>  0 0.19649171E+04</rscale>
<asrwt>0</asrwt>
<pdfrwt beam="1">  1        1 0.40221490E+00 0.19649171E+04</pdfrwt>
<pdfrwt beam="2">  1       -1 0.56799383E-01 0.19649171E+04</pdfrwt>
<totfact> 0.32941213E+00</totfact>
</mgrwt>
</event>
<event>
 6    1  0.1614874E-005  0.7516255E+03  0.7818608E-02  0.9632804E-01
          2   -1    0    0  501    0  0.00000000000E+00  0.00000000000E+00  0.21625398211E+04  0.21625398211E+04  0.00000000000E+00 0.  1.
         -2   -1    0    0    0  501 -0.00000000000E+00 -0.00000000000E+00 -0.65309875760E+02  0.65309875760E+02  0.00000000000E+00 0. -1.
         23    2    1    2    0    0  0.43717587248E+02 -0.31568912291E+03  0.50612879749E+03  0.60514402039E+03  0.91989542903E+02 0.  0.
         11    1    3    3    0    0  0.79062336253E+01 -0.28327688164E+03  0.43495211565E+03  0.51912584515E+03  0.00000000000E+00 0. -1.
        -11    1    3    3    0    0  0.35811353622E+02 -0.32412241278E+02  0.71176681844E+02  0.86018175238E+02  0.00000000000E+00 0.  1.
         22    1    1    2    0    0 -0.43717587248E+02  0.31568912291E+03  0.15911011478E+04  0.16227056764E+04  0.00000000000E+00 0.  1.
<mgrwt>
<rscale>  0 0.75162546E+03</rscale>
<asrwt>0</asrwt>
<pdfrwt beam="1">  1        2 0.33269838E+00 0.75162546E+03</pdfrwt>
<pdfrwt beam="2">  1       -2 0.10047675E-01 0.75162546E+03</pdfrwt>
<totfact> 0.37943748E+02</totfact>
</mgrwt>
</event>
<event>
 6    1  0.1614874E-005  0.2239403E+04  0.7818608E-02  0.8502204E-01
         -3   -1    0    0    0  501 -0.00000000000E+00  0.00000000000E+00  0.20210185389E+04  0.20210185389E+04  0.00000000000E+00 0.  1.
          3   -1    0    0  501    0  0.00000000000E+00 -0.00000000000E+00 -0.62034632478E+03  0.62034632478E+03  0.00000000000E+00 0. -1.
         23    2    1    2    0    0 -0.64352945391E+03  0.15067891626E+03  0.17648918641E+04  0.18867190877E+04  0.89617687571E+02 0.  0.
         11    1    3    3    0    0 -0.35356948732E+02  0.20915726082E+02  0.16968105144E+03  0.17458304797E+03  0.00000000000E+00 0. -1.
        -11    1    3    3    0    0 -0.60817250518E+03  0.12976319018E+03  0.15952108127E+04  0.17121360397E+04  0.00000000000E+00 0.  1.
         22    1    1    2    0    0  0.64352945391E+03 -0.15067891626E+03 -0.36421964997E+03  0.75464577603E+03  0.00000000000E+00 0. -1.
<mgrwt>
<rscale>  0 0.22394030E+04</rscale>
<asrwt>0</asrwt>
<pdfrwt beam="1">  1        3 0.95437897E-01 0.22394030E+04</pdfrwt>
<pdfrwt beam="2">  1       -3 0.31092593E+00 0.22394030E+04</pdfrwt>
<totfact> 0.76572347E-02</totfact>
</mgrwt>
</event>
<event>
 6    1  0.1614874E-005  0.3142618E+04  0.7818608E-02  0.8204138E-01
          2   -1    0    0  501    0  0.00000000000E+00  0.00000000000E+00  0.24033320800E+04  0.24033320800E+04  0.00000000000E+00 0. -1.
         -2   -1    0    0    0  501 -0.00000000000E+00 -0.00000000000E+00 -0.10273284334E+04  0.10273284334E+04  0.00000000000E+00 0.  1.
         23    2    1    2    0    0  0.10062289206E+04 -0.74306900097E+03  0.17243462987E+04  0.21322034351E+04  0.90956857062E+02 0.  0.
         11    1    3    3    0    0  0.75134826472E+03 -0.51371474678E+03  0.12119937824E+04  0.15157031320E+04  0.00000000000E+00 0.  1.
        -11    1    3    3    0    0  0.25488065588E+03 -0.22935425418E+03  0.51235251637E+03  0.61650030307E+03  0.00000000000E+00 0. -1.
         22    1    1    2    0    0 -0.10062289206E+04  0.74306900097E+03 -0.34834265221E+03  0.12984570783E+04  0.00000000000E+00 0. -1.
<mgrwt>
<rscale>  0 0.31426176E+04</rscale>
<asrwt>0</asrwt>
<pdfrwt beam="1">  1        2 0.36974340E+00 0.31426176E+04</pdfrwt>
<pdfrwt beam="2">  1       -2 0.15805053E+00 0.31426176E+04</pdfrwt>
<totfact> 0.87199543E-01</totfact>
</mgrwt>
</event>
<event>
 6    1  0.1614874E-005  0.2533065E+04  0.7818608E-02  0.8391300E-01
          1   -1    0    0  501    0  0.00000000000E+00  0.00000000000E+00  0.11065114089E+04  0.11065114089E+04  0.00000000000E+00 0. -1.
         -1   -1    0    0    0  501 -0.00000000000E+00 -0.00000000000E+00 -0.14496949877E+04  0.14496949877E+04  0.00000000000E+00 0.  1.
         23    2    1    2    0    0  0.83980965821E+03 -0.54675988216E+03  0.60700438786E+03  0.11752343467E+04  0.92167303892E+02 0.  0.
         11    1    3    3    0    0  0.63664597365E+03 -0.41414396054E+03  0.41255738975E+03  0.86431297321E+03  0.00000000000E+00 0.  1.
        -11    1    3    3    0    0  0.20316368456E+03 -0.13261592162E+03  0.19444699811E+03  0.31092137344E+03  0.00000000000E+00 0. -1.
         22    1    1    2    0    0 -0.83980965821E+03  0.54675988216E+03 -0.95018796671E+03  0.13809720500E+04  0.00000000000E+00 0.  1.
<mgrwt>
<rscale>  0 0.25330646E+04</rscale>
<asrwt>0</asrwt>
<pdfrwt beam="1">  1        1 0.17023252E+00 0.25330646E+04</pdfrwt>
<pdfrwt beam="2">  1       -1 0.22303000E+00 0.25330646E+04</pdfrwt>
<totfact> 0.11663905E+00</totfact>
</mgrwt>
</event>
<event>
 6    1  0.1614874E-005  0.1601006E+04  0.7818608E-02  0.8819930E-01
          2   -1    0    0  501    0  0.00000000000E+00  0.00000000000E+00  0.17166300613E+04  0.17166300613E+04  0.00000000000E+00 0. -1.
         -2   -1    0    0    0  501 -0.00000000000E+00 -0.00000000000E+00 -0.37329238944E+03  0.37329238944E+03  0.00000000000E+00 0.  1.
         23    2    1    2    0    0 -0.13925965452E+03  0.42229573824E+03 -0.18786704766E+03  0.49545864275E+03  0.11161674232E+03 0.  0.
         11    1    3    3    0    0 -0.63052312616E+01  0.16655080611E+03 -0.39552784696E+02  0.17129900681E+03  0.00000000000E+00 0. -1.
        -11    1    3    3    0    0 -0.13295442326E+03  0.25574493213E+03 -0.14831426296E+03  0.32415963594E+03  0.00000000000E+00 0.  1.
         22    1    1    2    0    0  0.13925965452E+03 -0.42229573824E+03  0.15312047195E+04  0.15944638079E+04  0.00000000000E+00 0. -1.
<mgrwt>
<rscale>  0 0.16010059E+04</rscale>
<asrwt>0</asrwt>
<pdfrwt beam="1">  1        2 0.26409693E+00 0.16010059E+04</pdfrwt>
<pdfrwt beam="2">  1       -2 0.57429599E-01 0.16010059E+04</pdfrwt>
<totfact> 0.26142926E+01</totfact>
</mgrwt>
</event>
<event>
 6    1  0.1614874E-005  0.2132374E+04  0.7818608E-02  0.8547115E-01
          2   -1    0    0  501    0  0.00000000000E+00  0.00000000000E+00  0.20639465633E+04  0.20639465633E+04  0.00000000000E+00 0. -1.
         -2   -1    0    0    0  501 -0.00000000000E+00 -0.00000000000E+00 -0.55076746811E+03  0.55076746811E+03  0.00000000000E+00 0.  1.
         23    2    1    2    0    0  0.39879379652E+03  0.70321205844E+03 -0.90723148992E+02  0.81859429705E+03  0.91226323668E+02 0.  0.
         11    1    3    3    0    0  0.30854694132E+03  0.46217498490E+03 -0.74921617610E+02  0.56073182579E+03  0.00000000000E+00 0. -1.
        -11    1    3    3    0    0  0.90246855195E+02  0.24103707354E+03 -0.15801531382E+02  0.25786247126E+03  0.00000000000E+00 0.  1.
         22    1    1    2    0    0 -0.39879379652E+03 -0.70321205844E+03  0.16039022442E+04  0.17961197344E+04  0.00000000000E+00 0. -1.
<mgrwt>
<rscale>  0 0.21323739E+04</rscale>
<asrwt>0</asrwt>
<pdfrwt beam="1">  1        2 0.31753024E+00 0.21323739E+04</pdfrwt>
<pdfrwt beam="2">  1       -2 0.84733458E-01 0.21323739E+04</pdfrwt>
<totfact> 0.68644313E+00</totfact>
</mgrwt>
</event>
<event>
 6    1  0.1614874E-005  0.3581481E+04  0.7818608E-02  0.8094747E-01
         -1   -1    0    0    0  501 -0.00000000000E+00  0.00000000000E+00  0.11038575216E+04  0.11038575216E+04  0.00000000000E+00 0.  1.
          1   -1    0    0  501    0  0.00000000000E+00 -0.00000000000E+00 -0.29050408408E+04  0.29050408408E+04  0.00000000000E+00 0. -1.
         23    2    1    2    0    0  0.10178215912E+04  0.14720300718E+04 -0.90828295773E+03  0.20088722678E+04  0.88071181372E+02 0.  0.
         13    1    3    3    0    0  0.93361837074E+03  0.13126488057E+04 -0.79906069205E+03  0.17981068207E+04  0.00000000000E+00 0. -1.
        -13    1    3    3    0    0  0.84203220476E+02  0.15938126616E+03 -0.10922226567E+03  0.21076544702E+03  0.00000000000E+00 0.  1.
         22    1    1    2    0    0 -0.10178215912E+04 -0.14720300718E+04 -0.89290036147E+03  0.20000260947E+04  0.00000000000E+00 0. -1.
<mgrwt>
<rscale>  0 0.35814808E+04</rscale>
<asrwt>0</asrwt>
<pdfrwt beam="1">  1        1 0.44692936E+00 0.35814808E+04</pdfrwt>
<pdfrwt beam="2">  1       -1 0.16982423E+00 0.35814808E+04</pdfrwt>
<totfact> 0.14002261E-01</totfact>
</mgrwt>
</event>
<event>
 6    1  0.1614874E-005  0.3385877E+04  0.7818608E-02  0.8141381E-01
         -1   -1    0    0    0  501 -0.00000000000E+00  0.00000000000E+00  0.85674594036E+03  0.85674594036E+03  0.00000000000E+00 0.  1.
          1   -1    0    0  501    0  0.00000000000E+00 -0.00000000000E+00 -0.33452623661E+04  0.33452623661E+04  0.00000000000E+00 0. -1.
         23    2    1    2    0    0  0.42426549342E+03  0.89793228362E+03 -0.29447629222E+04  0.31091018784E+04  0.92748193323E+02 0.  0.
         13    1    3    3    0    0  0.14544283089E+03  0.36675971376E+03 -0.10524715571E+04  0.11239940761E+04  0.00000000000E+00 0. -1.
        -13    1    3    3    0    0  0.27882266253E+03  0.53117256986E+03 -0.18922913652E+04  0.19851078023E+04  0.00000000000E+00 0.  1.
         22    1    1    2    0    0 -0.42426549342E+03 -0.89793228362E+03  0.45624649649E+03  0.10929064280E+04  0.00000000000E+00 0.  1.
<mgrwt>
<rscale>  0 0.33858765E+04</rscale>
<asrwt>0</asrwt>
<pdfrwt beam="1">  1        1 0.51465574E+00 0.33858765E+04</pdfrwt>
<pdfrwt beam="2">  1       -1 0.13180707E+00 0.33858765E+04</pdfrwt>
<totfact> 0.13283762E-01</totfact>
</mgrwt>
</event>
<event>
 6    1  0.1614874E-005  0.1461766E+04  0.7818608E-02  0.8910284E-01
         -2   -1    0    0    0  501 -0.00000000000E+00  0.00000000000E+00  0.12330024563E+04  0.12330024563E+04  0.00000000000E+00 0.  1.
          2   -1    0    0  501    0  0.00000000000E+00 -0.00000000000E+00 -0.43324314267E+03  0.43324314267E+03  0.00000000000E+00 0. -1.
         23    2    1    2    0    0  0.34966915319E+03 -0.51417628038E+03 -0.30186647083E+02  0.62920362214E+03  0.91324697972E+02 0.  0.
         11    1    3    3    0    0  0.21453615726E+03 -0.34515643505E+03 -0.59850337910E+02  0.41078070838E+03  0.00000000000E+00 0.  1.
        -11    1    3    3    0    0  0.13513299593E+03 -0.16901984533E+03  0.29663690827E+02  0.21842291377E+03  0.00000000000E+00 0. -1.
         22    1    1    2    0    0 -0.34966915319E+03  0.51417628038E+03  0.82994596073E+03  0.10370419768E+04  0.00000000000E+00 0.  1.
<mgrwt>
<rscale>  0 0.14617659E+04</rscale>
<asrwt>0</asrwt>
<pdfrwt beam="1">  1        2 0.66652792E-01 0.14617659E+04</pdfrwt>
<pdfrwt beam="2">  1       -2 0.18969268E+00 0.14617659E+04</pdfrwt>
<totfact> 0.10947915E+01</totfact>
</mgrwt>
</event>
<event>
 6    1  0.1614874E-005  0.3409789E+04  0.7818608E-02  0.8135508E-01
          1   -1    0    0  501    0  0.00000000000E+00  0.00000000000E+00  0.33056367236E+04  0.33056367236E+04  0.00000000000E+00 0. -1.
         -1   -1    0    0    0  501 -0.00000000000E+00 -0.00000000000E+00 -0.87930580492E+03  0.87930580492E+03  0.00000000000E+00 0.  1.
         23    2    1    2    0    0  0.37011228035E+03 -0.16317645149E+04  0.82105669553E+03  0.18662049703E+04  0.94595780398E+02 0.  0.
         13    1    3    3    0    0  0.22813069644E+03 -0.81432510838E+03  0.39100313208E+03  0.93169332191E+03  0.00000000000E+00 0.  1.
        -13    1    3    3    0    0  0.14198158391E+03 -0.81743940657E+03  0.43005356345E+03  0.93451164841E+03  0.00000000000E+00 0. -1.
         22    1    1    2    0    0 -0.37011228035E+03  0.16317645149E+04  0.16052742232E+04  0.23187375582E+04  0.00000000000E+00 0.  1.
<mgrwt>
<rscale>  0 0.34097892E+04</rscale>
<asrwt>0</asrwt>
<pdfrwt beam="1">  1        1 0.50855949E+00 0.34097892E+04</pdfrwt>
<pdfrwt beam="2">  1       -1 0.13527782E+00 0.34097892E+04</pdfrwt>
<totfact> 0.13303161E-01</totfact>
</mgrwt>
</event>
<event>
 6    1  0.1614874E-005  0.1255606E+04  0.7818608E-02  0.9065530E-01
         -2   -1    0    0    0  501 -0.00000000000E+00  0.00000000000E+00  0.70029981401E+03  0.70029981401E+03  0.00000000000E+00 0.  1.
          2   -1    0    0  501    0  0.00000000000E+00 -0.00000000000E+00 -0.56281127733E+03  0.56281127733E+03  0.00000000000E+00 0. -1.
         23    2    1    2    0    0 -0.26953137723E+03 -0.41993495584E+03  0.44679726500E+03  0.67602981940E+03  0.91629636382E+02 0.  0.
         13    1    3    3    0    0 -0.15230827696E+03 -0.22929151050E+03  0.30615247762E+03  0.41170589936E+03  0.00000000000E+00 0. -1.
        -13    1    3    3    0    0 -0.11722310027E+03 -0.19064344534E+03  0.14064478738E+03  0.26432392004E+03  0.00000000000E+00 0.  1.
         22    1    1    2    0    0  0.26953137723E+03  0.41993495584E+03 -0.30930872832E+03  0.58708127194E+03  0.00000000000E+00 0. -1.
<mgrwt>
<rscale>  0 0.12556060E+04</rscale>
<asrwt>0</asrwt>
<pdfrwt beam="1">  1        2 0.86586350E-01 0.12556060E+04</pdfrwt>
<pdfrwt beam="2">  1       -2 0.10773843E+00 0.12556060E+04</pdfrwt>
<totfact> 0.36384210E+01</totfact>
</mgrwt>
</event>
<event>
 6    1  0.1614874E-005  0.2920015E+04  0.7818608E-02  0.8266947E-01
          2   -1    0    0  501    0  0.00000000000E+00  0.00000000000E+00  0.44860653483E+04  0.44860653483E+04  0.00000000000E+00 0. -1.
         -2   -1    0    0    0  501 -0.00000000000E+00 -0.00000000000E+00 -0.47516509750E+03  0.47516509750E+03  0.00000000000E+00 0.  1.
         23    2    1    2    0    0  0.10641764291E+04 -0.16376408279E+03  0.33563607989E+03  0.11314971818E+04  0.91346304366E+02 0.  0.
         11    1    3    3    0    0  0.77615586841E+03 -0.11722341701E+03  0.20164994538E+03  0.81044553304E+03  0.00000000000E+00 0.  1.
        -11    1    3    3    0    0  0.28802056070E+03 -0.46540665782E+02  0.13398613451E+03  0.32105164880E+03  0.00000000000E+00 0. -1.
         22    1    1    2    0    0 -0.10641764291E+04  0.16376408279E+03  0.36752641709E+04  0.38297332640E+04  0.00000000000E+00 0. -1.
<mgrwt>
<rscale>  0 0.29200148E+04</rscale>
<asrwt>0</asrwt>
<pdfrwt beam="1">  1        2 0.69016387E+00 0.29200148E+04</pdfrwt>
<pdfrwt beam="2">  1       -2 0.73102326E-01 0.29200148E+04</pdfrwt>
<totfact> 0.18494223E-01</totfact>
</mgrwt>
</event>
<event>
 6    1  0.1614874E-005  0.1651492E+04  0.7818608E-02  0.8789524E-01
         -1   -1    0    0    0  501 -0.00000000000E+00  0.00000000000E+00  0.29083082904E+03  0.29083082904E+03  0.00000000000E+00 0.  1.
          1   -1    0    0  501    0  0.00000000000E+00 -0.00000000000E+00 -0.23445133047E+04  0.23445133047E+04  0.00000000000E+00 0. -1.
         23    2    1    2    0    0  0.25855393673E+03 -0.20759110013E+03 -0.22323641029E+04  0.22586860303E+04  0.90933451379E+02 0.  0.
         13    1    3    3    0    0  0.12948663294E+03 -0.74797037053E+02 -0.12602626332E+04  0.12691033408E+04  0.00000000000E+00 0. -1.
        -13    1    3    3    0    0  0.12906730380E+03 -0.13279406308E+03 -0.97210146962E+03  0.98958268949E+03  0.00000000000E+00 0.  1.
         22    1    1    2    0    0 -0.25855393673E+03  0.20759110013E+03  0.17868162716E+03  0.37665810351E+03  0.00000000000E+00 0.  1.
<mgrwt>
<rscale>  0 0.16514924E+04</rscale>
<asrwt>0</asrwt>
<pdfrwt beam="1">  1        1 0.36069435E+00 0.16514924E+04</pdfrwt>
<pdfrwt beam="2">  1       -1 0.44743205E-01 0.16514924E+04</pdfrwt>
<totfact> 0.82145442E+00</totfact>
</mgrwt>
</event>
<event>
 6    1  0.1614874E-005  0.1674210E+04  0.7818608E-02  0.8776212E-01
          2   -1    0    0  501    0  0.00000000000E+00  0.00000000000E+00  0.25720636978E+03  0.25720636978E+03  0.00000000000E+00 0. -1.
         -2   -1    0    0    0  501 -0.00000000000E+00 -0.00000000000E+00 -0.27244458610E+04  0.27244458610E+04  0.00000000000E+00 0.  1.
         23    2    1    2    0    0 -0.76162482033E+03 -0.15866363321E+03 -0.69870877591E+03  0.10495685353E+04  0.90297515091E+02 0.  0.
         11    1    3    3    0    0 -0.54798555201E+03 -0.13988973763E+03 -0.54753809884E+03  0.78718185547E+03  0.00000000000E+00 0.  1.
        -11    1    3    3    0    0 -0.21363926833E+03 -0.18773895573E+02 -0.15117067707E+03  0.26238667979E+03  0.00000000000E+00 0. -1.
         22    1    1    2    0    0  0.76162482033E+03  0.15866363321E+03 -0.17685307153E+04  0.19320836955E+04  0.00000000000E+00 0.  1.
<mgrwt>
<rscale>  0 0.16742101E+04</rscale>
<asrwt>0</asrwt>
<pdfrwt beam="1">  1        2 0.39570208E-01 0.16742101E+04</pdfrwt>
<pdfrwt beam="2">  1       -2 0.41914555E+00 0.16742101E+04</pdfrwt>
<totfact> 0.69493515E-01</totfact>
</mgrwt>
</event>
<event>
 6    1  0.1614874E-005  0.3300538E+04  0.7818608E-02  0.8162758E-01
          2   -1    0    0  501    0  0.00000000000E+00  0.00000000000E+00  0.14787426679E+04  0.14787426679E+04  0.00000000000E+00 0. -1.
         -2   -1    0    0    0  501 -0.00000000000E+00 -0.00000000000E+00 -0.18416915676E+04  0.18416915676E+04  0.00000000000E+00 0.  1.
         23    2    1    2    0    0  0.15077591481E+04  0.27479303922E+03  0.43088211215E+03  0.15944514608E+04  0.88131736275E+02 0.  0.
         11    1    3    3    0    0  0.36529228230E+03  0.28437735938E+02  0.10141000185E+03  0.38017251979E+03  0.00000000000E+00 0. -1.
        -11    1    3    3    0    0  0.11424668658E+04  0.24635530328E+03  0.32947211030E+03  0.12142789410E+04  0.00000000000E+00 0.  1.
         22    1    1    2    0    0 -0.15077591481E+04 -0.27479303922E+03 -0.79383101185E+03  0.17259827747E+04  0.00000000000E+00 0.  1.
<mgrwt>
<rscale>  0 0.33005381E+04</rscale>
<asrwt>0</asrwt>
<pdfrwt beam="1">  1        2 0.22749887E+00 0.33005381E+04</pdfrwt>
<pdfrwt beam="2">  1       -2 0.28333717E+00 0.33005381E+04</pdfrwt>
<totfact> 0.43795683E-01</totfact>
</mgrwt>
</event>
<event>
 6    1  0.1614874E-005  0.1006425E+04  0.7818608E-02  0.9301526E-01
         -1   -1    0    0    0  501 -0.00000000000E+00  0.00000000000E+00  0.50957707814E+03  0.50957707814E+03  0.00000000000E+00 0.  1.
          1   -1    0    0  501    0  0.00000000000E+00 -0.00000000000E+00 -0.49692730285E+03  0.49692730285E+03  0.00000000000E+00 0. -1.
         23    2    1    2    0    0  0.44447232553E+03  0.19830494578E+03  0.11691204314E+03  0.50875834115E+03  0.91028150458E+02 0.  0.
         13    1    3    3    0    0  0.17668499162E+03  0.99419342915E+02  0.69657358764E+01  0.20285540043E+03  0.00000000000E+00 0.  1.
        -13    1    3    3    0    0  0.26778733391E+03  0.98885602860E+02  0.10994630727E+03  0.30590294072E+03  0.00000000000E+00 0. -1.
         22    1    1    2    0    0 -0.44447232553E+03 -0.19830494578E+03 -0.10426226785E+03  0.49774603984E+03  0.00000000000E+00 0. -1.
<mgrwt>
<rscale>  0 0.10064249E+04</rscale>
<asrwt>0</asrwt>
<pdfrwt beam="1">  1        1 0.76450354E-01 0.10064249E+04</pdfrwt>
<pdfrwt beam="2">  1       -1 0.78396474E-01 0.10064249E+04</pdfrwt>
<totfact> 0.73005137E+01</totfact>
</mgrwt>
</event>
<event>
 6    1  0.1614874E-005  0.3882439E+04  0.7818608E-02  0.8028692E-01
          2   -1    0    0  501    0  0.00000000000E+00  0.00000000000E+00  0.18395554788E+04  0.18395554788E+04  0.00000000000E+00 0. -1.
         -2   -1    0    0    0  501 -0.00000000000E+00 -0.00000000000E+00 -0.20485020169E+04  0.20485020169E+04  0.00000000000E+00 0.  1.
         23    2    1    2    0    0  0.62900965376E+03  0.53686633561E+03  0.16530841788E+04  0.18506481119E+04  0.91282664920E+02 0.  0.
         13    1    3    3    0    0  0.31879230400E+03  0.22837133012E+03  0.85093174942E+03  0.93694548383E+03  0.00000000000E+00 0. -1.
        -13    1    3    3    0    0  0.31021734976E+03  0.30849500550E+03  0.80215242937E+03  0.91370262802E+03  0.00000000000E+00 0.  1.
         22    1    1    2    0    0 -0.62900965376E+03 -0.53686633561E+03 -0.18620307169E+04  0.20374093839E+04  0.00000000000E+00 0.  1.
<mgrwt>
<rscale>  0 0.38824390E+04</rscale>
<asrwt>0</asrwt>
<pdfrwt beam="1">  1        2 0.28300853E+00 0.38824390E+04</pdfrwt>
<pdfrwt beam="2">  1       -2 0.31515416E+00 0.38824390E+04</pdfrwt>
<totfact> 0.16757323E-01</totfact>
</mgrwt>
</event>
<event>
 6    1  0.1614874E-005  0.2817434E+04  0.7818608E-02  0.8297876E-01
          2   -1    0    0  501    0  0.00000000000E+00  0.00000000000E+00  0.20687318330E+04  0.20687318330E+04  0.00000000000E+00 0. -1.
         -2   -1    0    0    0  501 -0.00000000000E+00 -0.00000000000E+00 -0.95927546041E+03  0.95927546041E+03  0.00000000000E+00 0.  1.
         23    2    1    2    0    0 -0.57689251587E+03 -0.42913712752E+03 -0.74423504172E+03  0.10397579357E+04  0.10122805141E+03 0.  0.
         13    1    3    3    0    0 -0.21155834285E+03 -0.21059547449E+03 -0.34384172619E+03  0.45534000371E+03  0.00000000000E+00 0. -1.
        -13    1    3    3    0    0 -0.36533417303E+03 -0.21854165303E+03 -0.40039331552E+03  0.58441793197E+03  0.00000000000E+00 0.  1.
         22    1    1    2    0    0  0.57689251587E+03  0.42913712752E+03  0.18536914143E+04  0.19882493577E+04  0.00000000000E+00 0. -1.
<mgrwt>
<rscale>  0 0.28174341E+04</rscale>
<asrwt>0</asrwt>
<pdfrwt beam="1">  1        2 0.31826643E+00 0.28174341E+04</pdfrwt>
<pdfrwt beam="2">  1       -2 0.14758084E+00 0.28174341E+04</pdfrwt>
<totfact> 0.16626414E+00</totfact>
</mgrwt>
</event>
<event>
 6    1  0.1614874E-005  0.1969205E+04  0.7818608E-02  0.8621155E-01
         -1   -1    0    0    0  501 -0.00000000000E+00  0.00000000000E+00  0.56571225094E+03  0.56571225094E+03  0.00000000000E+00 0.  1.
          1   -1    0    0  501    0  0.00000000000E+00 -0.00000000000E+00 -0.17136669120E+04  0.17136669120E+04  0.00000000000E+00 0. -1.
         23    2    1    2    0    0  0.10343053952E+03 -0.23735469644E+03 -0.16722715179E+04  0.16946199861E+04  0.90607611240E+02 0.  0.
         13    1    3    3    0    0 -0.10514404161E+02 -0.69966799398E+02 -0.37069152436E+03  0.37738324280E+03  0.00000000000E+00 0.  1.
        -13    1    3    3    0    0  0.11394494368E+03 -0.16738789704E+03 -0.13015799936E+04  0.13172367433E+04  0.00000000000E+00 0. -1.
         22    1    1    2    0    0 -0.10343053952E+03  0.23735469644E+03  0.52431685690E+03  0.58475917680E+03  0.00000000000E+00 0.  1.
<mgrwt>
<rscale>  0 0.19692053E+04</rscale>
<asrwt>0</asrwt>
<pdfrwt beam="1">  1        1 0.26364106E+00 0.19692053E+04</pdfrwt>
<pdfrwt beam="2">  1       -1 0.87032655E-01 0.19692053E+04</pdfrwt>
<totfact> 0.56412418E+00</totfact>
</mgrwt>
</event>
<event>
 6    1  0.1614874E-005  0.1570765E+04  0.7818608E-02  0.8838712E-01
         -2   -1    0    0    0  501 -0.00000000000E+00  0.00000000000E+00  0.34844417937E+03  0.34844417937E+03  0.00000000000E+00 0.  1.
          2   -1    0    0  501    0  0.00000000000E+00 -0.00000000000E+00 -0.17702288062E+04  0.17702288062E+04  0.00000000000E+00 0. -1.
         23    2    1    2    0    0 -0.23516252909E+03 -0.72178050395E+03 -0.45635254001E+03  0.89053308098E+03  0.92320185083E+02 0.  0.
         13    1    3    3    0    0 -0.46344947620E+02 -0.12096242716E+03 -0.40045539141E+02  0.13558542754E+03  0.00000000000E+00 0.  1.
        -13    1    3    3    0    0 -0.18881758147E+03 -0.60081807679E+03 -0.41630700087E+03  0.75494765345E+03  0.00000000000E+00 0. -1.
         22    1    1    2    0    0  0.23516252909E+03  0.72178050395E+03 -0.96543208684E+03  0.12281399046E+04  0.00000000000E+00 0. -1.
<mgrwt>
<rscale>  0 0.15707653E+04</rscale>
<asrwt>0</asrwt>
<pdfrwt beam="1">  1        2 0.27234289E+00 0.15707653E+04</pdfrwt>
<pdfrwt beam="2">  1       -2 0.53606798E-01 0.15707653E+04</pdfrwt>
<totfact> 0.28245968E+01</totfact>
</mgrwt>
</event>
<event>
 6    1  0.1614874E-005  0.3049128E+04  0.7818608E-02  0.8229840E-01
         -1   -1    0    0    0  501 -0.00000000000E+00  0.00000000000E+00  0.85489395214E+03  0.85489395214E+03  0.00000000000E+00 0.  1.
          1   -1    0    0  501    0  0.00000000000E+00 -0.00000000000E+00 -0.27188114290E+04  0.27188114290E+04  0.00000000000E+00 0. -1.
         23    2    1    2    0    0  0.46846245591E+03 -0.33711175237E+02 -0.26311111869E+04  0.26741612162E+04  0.88309775489E+02 0.  0.
         13    1    3    3    0    0  0.45136937295E+03 -0.13687847494E+02 -0.24857761122E+04  0.25264608740E+04  0.00000000000E+00 0. -1.
        -13    1    3    3    0    0  0.17093082964E+02 -0.20023327743E+02 -0.14533507471E+03  0.14770034218E+03  0.00000000000E+00 0.  1.
         22    1    1    2    0    0 -0.46846245591E+03  0.33711175237E+02  0.76719371004E+03  0.89954416493E+03  0.00000000000E+00 0.  1.
<mgrwt>
<rscale>  0 0.30491280E+04</rscale>
<asrwt>0</asrwt>
<pdfrwt beam="1">  1        1 0.41827868E+00 0.30491280E+04</pdfrwt>
<pdfrwt beam="2">  1       -1 0.13152215E+00 0.30491280E+04</pdfrwt>
<totfact> 0.39695569E-01</totfact>
</mgrwt>
</event>
<event>
 6    1  0.1614874E-005  0.1125648E+04  0.7818608E-02  0.9180548E-01
          1   -1    0    0  501    0  0.00000000000E+00  0.00000000000E+00  0.29465899614E+04  0.29465899614E+04  0.00000000000E+00 0. -1.
         -1   -1    0    0    0  501 -0.00000000000E+00 -0.00000000000E+00 -0.10750423271E+03  0.10750423271E+03  0.00000000000E+00 0.  1.
         23    2    1    2    0    0  0.82035228667E+02  0.44151549319E+03  0.23324273848E+04  0.23770651055E+04  0.92494868423E+02 0.  0.
         13    1    3    3    0    0 -0.17418127287E+02  0.85422688972E+02  0.52814676966E+03  0.53529378593E+03  0.00000000000E+00 0. -1.
        -13    1    3    3    0    0  0.99453355954E+02  0.35609280422E+03  0.18042806151E+04  0.18417713195E+04  0.00000000000E+00 0.  1.
         22    1    1    2    0    0 -0.82035228667E+02 -0.44151549319E+03  0.50665834389E+03  0.67702908866E+03  0.00000000000E+00 0.  1.
<mgrwt>
<rscale>  0 0.11256481E+04</rscale>
<asrwt>0</asrwt>
<pdfrwt beam="1">  1        1 0.45332147E+00 0.11256481E+04</pdfrwt>
<pdfrwt beam="2">  1       -1 0.16539115E-01 0.11256481E+04</pdfrwt>
<totfact> 0.18514357E+01</totfact>
</mgrwt>
</event>
<event>
 6    1  0.1614874E-005  0.3434110E+04  0.7818608E-02  0.8129585E-01
         -2   -1    0    0    0  501 -0.00000000000E+00  0.00000000000E+00  0.10252777427E+04  0.10252777427E+04  0.00000000000E+00 0.  1.
          2   -1    0    0  501    0  0.00000000000E+00 -0.00000000000E+00 -0.28755894197E+04  0.28755894197E+04  0.00000000000E+00 0. -1.
         23    2    1    2    0    0  0.49707460998E+03  0.65934658733E+03 -0.26343435727E+04  0.27622157216E+04  0.90821490334E+02 0.  0.
         11    1    3    3    0    0  0.33759492417E+03  0.37420855434E+03 -0.16051475174E+04  0.16824092628E+04  0.00000000000E+00 0.  1.
        -11    1    3    3    0    0  0.15947968582E+03  0.28513803300E+03 -0.10291960553E+04  0.10798064587E+04  0.00000000000E+00 0. -1.
         22    1    1    2    0    0 -0.49707460998E+03 -0.65934658733E+03  0.78403189578E+03  0.11386514408E+04  0.00000000000E+00 0.  1.
<mgrwt>
<rscale>  0 0.34341100E+04</rscale>
<asrwt>0</asrwt>
<pdfrwt beam="1">  1        2 0.44239837E+00 0.34341100E+04</pdfrwt>
<pdfrwt beam="2">  1       -2 0.15773504E+00 0.34341100E+04</pdfrwt>
<totfact> 0.44963910E-01</totfact>
</mgrwt>
</event>
<event>
 6    1  0.1614874E-005  0.3008956E+04  0.7818608E-02  0.8241178E-01
         -2   -1    0    0    0  501 -0.00000000000E+00  0.00000000000E+00  0.22503816194E+04  0.22503816194E+04  0.00000000000E+00 0. -1.
          2   -1    0    0  501    0  0.00000000000E+00 -0.00000000000E+00 -0.10058093065E+04  0.10058093065E+04  0.00000000000E+00 0.  1.
         23    2    1    2    0    0 -0.65206504803E+03  0.13490293965E+04  0.49377447760E+03  0.15802534184E+04  0.91205769137E+02 0.  0.
         11    1    3    3    0    0 -0.59349638869E+03  0.12694855188E+04  0.44678612605E+03  0.14708668493E+04  0.00000000000E+00 0.  1.
        -11    1    3    3    0    0 -0.58568659347E+02  0.79543877654E+02  0.46988351554E+02  0.10938656916E+03  0.00000000000E+00 0. -1.
         22    1    1    2    0    0  0.65206504803E+03 -0.13490293965E+04  0.75079783533E+03  0.16759375075E+04  0.00000000000E+00 0.  1.
<mgrwt>
<rscale>  0 0.30089565E+04</rscale>
<asrwt>0</asrwt>
<pdfrwt beam="1">  1        2 0.15473989E+00 0.30089565E+04</pdfrwt>
<pdfrwt beam="2">  1       -2 0.34621256E+00 0.30089565E+04</pdfrwt>
<totfact> 0.35102621E-01</totfact>
</mgrwt>
</event>
<event>
 6    1  0.1614874E-005  0.1698252E+04  0.7818608E-02  0.8762362E-01
         -2   -1    0    0    0  501 -0.00000000000E+00  0.00000000000E+00  0.36197226477E+03  0.36197226477E+03  0.00000000000E+00 0.  1.
          2   -1    0    0  501    0  0.00000000000E+00 -0.00000000000E+00 -0.19919064669E+04  0.19919064669E+04  0.00000000000E+00 0. -1.
         23    2    1    2    0    0  0.36519255159E+03  0.23463954000E+03  0.18861567704E+03  0.48424107253E+03  0.10243158319E+03 0.  0.
         11    1    3    3    0    0  0.78901016652E+02  0.74221150651E+02  0.92060856998E+02  0.14215959702E+03  0.00000000000E+00 0.  1.
        -11    1    3    3    0    0  0.28629153494E+03  0.16041838935E+03  0.96554820038E+02  0.34208147551E+03  0.00000000000E+00 0. -1.
         22    1    1    2    0    0 -0.36519255159E+03 -0.23463954000E+03 -0.18185498792E+04  0.18696376592E+04  0.00000000000E+00 0. -1.
<mgrwt>
<rscale>  0 0.16982519E+04</rscale>
<asrwt>0</asrwt>
<pdfrwt beam="1">  1        2 0.30644714E+00 0.16982519E+04</pdfrwt>
<pdfrwt beam="2">  1       -2 0.55688042E-01 0.16982519E+04</pdfrwt>
<totfact> 0.19465073E+01</totfact>
</mgrwt>
</event>
<event>
 6    1  0.1614874E-005  0.3150605E+04  0.7818608E-02  0.8201985E-01
          1   -1    0    0  501    0  0.00000000000E+00  0.00000000000E+00  0.31167599265E+04  0.31167599265E+04  0.00000000000E+00 0. -1.
         -1   -1    0    0    0  501 -0.00000000000E+00 -0.00000000000E+00 -0.79620433469E+03  0.79620433469E+03  0.00000000000E+00 0.  1.
         23    2    1    2    0    0  0.76918437956E+03  0.37082534949E+03 -0.48106892803E+03  0.98409826907E+03  0.88690698924E+02 0.  0.
         11    1    3    3    0    0  0.16339374119E+03  0.10723602042E+03 -0.79612913798E+02  0.21103387116E+03  0.00000000000E+00 0. -1.
        -11    1    3    3    0    0  0.60579063837E+03  0.26358932908E+03 -0.40145601424E+03  0.77306439791E+03  0.00000000000E+00 0.  1.
         22    1    1    2    0    0 -0.76918437956E+03 -0.37082534949E+03  0.28016245198E+04  0.29288659921E+04  0.00000000000E+00 0. -1.
<mgrwt>
<rscale>  0 0.31506049E+04</rscale>
<asrwt>0</asrwt>
<pdfrwt beam="1">  1        1 0.47950152E+00 0.31506049E+04</pdfrwt>
<pdfrwt beam="2">  1       -1 0.12249298E+00 0.31506049E+04</pdfrwt>
<totfact> 0.24227242E-01</totfact>
</mgrwt>
</event>
<event>
 6    1  0.1614874E-005  0.1699934E+04  0.7818608E-02  0.8761402E-01
          2   -1    0    0  501    0  0.00000000000E+00  0.00000000000E+00  0.78456169853E+03  0.78456169853E+03  0.00000000000E+00 0. -1.
         -2   -1    0    0    0  501 -0.00000000000E+00 -0.00000000000E+00 -0.92082492289E+03  0.92082492289E+03  0.00000000000E+00 0.  1.
         23    2    1    2    0    0 -0.56420852548E+03  0.15195503574E+03 -0.68435512000E+03  0.90424598510E+03  0.88866631457E+02 0.  0.
         13    1    3    3    0    0 -0.46306542583E+03  0.14526043032E+03 -0.60446916237E+03  0.77518588059E+03  0.00000000000E+00 0.  1.
        -13    1    3    3    0    0 -0.10114309965E+03  0.66946054197E+01 -0.79885957630E+02  0.12906010450E+03  0.00000000000E+00 0. -1.
         22    1    1    2    0    0  0.56420852548E+03 -0.15195503574E+03  0.54809189564E+03  0.80114063633E+03  0.00000000000E+00 0. -1.
<mgrwt>
<rscale>  0 0.16999341E+04</rscale>
<asrwt>0</asrwt>
<pdfrwt beam="1">  1        2 0.12070180E+00 0.16999341E+04</pdfrwt>
<pdfrwt beam="2">  1       -2 0.14166537E+00 0.16999341E+04</pdfrwt>
<totfact> 0.11710430E+01</totfact>
</mgrwt>
</event>
<event>
 6    1  0.1614874E-005  0.2341763E+04  0.7818608E-02  0.8461634E-01
         -2   -1    0    0    0  501 -0.00000000000E+00  0.00000000000E+00  0.21206298316E+04  0.21206298316E+04  0.00000000000E+00 0.  1.
          2   -1    0    0  501    0  0.00000000000E+00 -0.00000000000E+00 -0.64648898100E+03  0.64648898100E+03  0.00000000000E+00 0. -1.
         23    2    1    2    0    0  0.63210109321E+03 -0.61674390777E+02 -0.42182050524E+03  0.76761262722E+03  0.89112761778E+02 0.  0.
         13    1    3    3    0    0  0.16351514557E+03 -0.53244240887E+02 -0.12929969687E+03  0.21515241953E+03  0.00000000000E+00 0.  1.
        -13    1    3    3    0    0  0.46858594764E+03 -0.84301498896E+01 -0.29252080837E+03  0.55246020769E+03  0.00000000000E+00 0. -1.
         22    1    1    2    0    0 -0.63210109321E+03  0.61674390777E+02  0.18959613559E+04  0.19995061854E+04  0.00000000000E+00 0.  1.
<mgrwt>
<rscale>  0 0.23417633E+04</rscale>
<asrwt>0</asrwt>
<pdfrwt beam="1">  1        2 0.99459844E-01 0.23417633E+04</pdfrwt>
<pdfrwt beam="2">  1       -2 0.32625074E+00 0.23417633E+04</pdfrwt>
<totfact> 0.89637022E-01</totfact>
</mgrwt>
</event>
<event>
 6    1  0.1614874E-005  0.1445326E+04  0.7818608E-02  0.8921647E-01
          2   -1    0    0  501    0  0.00000000000E+00  0.00000000000E+00  0.84570480278E+03  0.84570480278E+03  0.00000000000E+00 0. -1.
         -2   -1    0    0    0  501 -0.00000000000E+00 -0.00000000000E+00 -0.61752293367E+03  0.61752293367E+03  0.00000000000E+00 0.  1.
         23    2    1    2    0    0  0.55766181401E+02  0.48543074702E+03  0.64971146339E+03  0.81790605233E+03  0.89958032608E+02 0.  0.
         13    1    3    3    0    0  0.48234539426E+02  0.13790082738E+03  0.15202624389E+03  0.21084398928E+03  0.00000000000E+00 0.  1.
        -13    1    3    3    0    0  0.75316419747E+01  0.34752991964E+03  0.49768521950E+03  0.60706206304E+03  0.00000000000E+00 0. -1.
         22    1    1    2    0    0 -0.55766181401E+02 -0.48543074702E+03 -0.42152959428E+03  0.64532168412E+03  0.00000000000E+00 0.  1.
<mgrwt>
<rscale>  0 0.14453264E+04</rscale>
<asrwt>0</asrwt>
<pdfrwt beam="1">  1        2 0.13010843E+00 0.14453264E+04</pdfrwt>
<pdfrwt beam="2">  1       -2 0.95003528E-01 0.14453264E+04</pdfrwt>
<totfact> 0.28901111E+01</totfact>
</mgrwt>
</event>
<event>
 6    1  0.1614874E-005  0.1406073E+04  0.7818608E-02  0.8949434E-01
          4   -1    0    0  501    0  0.00000000000E+00  0.00000000000E+00  0.19745085518E+04  0.19745085518E+04  0.00000000000E+00 0. -1.
         -4   -1    0    0    0  501 -0.00000000000E+00 -0.00000000000E+00 -0.25032083982E+03  0.25032083982E+03  0.00000000000E+00 0.  1.
         23    2    1    2    0    0  0.27144657635E+03 -0.63941636549E+03  0.72736554689E+03  0.10098433995E+04  0.90479392281E+02 0.  0.
         13    1    3    3    0    0  0.75588153886E+02 -0.10943688481E+03  0.17375258419E+03  0.21881490186E+03  0.00000000000E+00 0. -1.
        -13    1    3    3    0    0  0.19585842247E+03 -0.52997948068E+03  0.55361296271E+03  0.79102849764E+03  0.00000000000E+00 0.  1.
         22    1    1    2    0    0 -0.27144657635E+03  0.63941636549E+03  0.99682216507E+03  0.12149859921E+04  0.00000000000E+00 0. -1.
<mgrwt>
<rscale>  0 0.14060735E+04</rscale>
<asrwt>0</asrwt>
<pdfrwt beam="1">  1        4 0.30377054E+00 0.14060735E+04</pdfrwt>
<pdfrwt beam="2">  1       -4 0.38510900E-01 0.14060735E+04</pdfrwt>
<totfact> 0.37768828E-01</totfact>
</mgrwt>
</event>
<event>
 6    1  0.3085392E-005  0.1843826E+04  0.7818608E-02  0.8683334E-01
          1   -1    0    0  501    0  0.00000000000E+00  0.00000000000E+00  0.14175740867E+04  0.14175740867E+04  0.00000000000E+00 0. -1.
         -1   -1    0    0    0  501 -0.00000000000E+00 -0.00000000000E+00 -0.59956226414E+03  0.59956226414E+03  0.00000000000E+00 0.  1.
         23    2    1    2    0    0 -0.28754566674E+02 -0.38643252567E+03 -0.50243990746E+03  0.64100056781E+03  0.90988709906E+02 0.  0.
         11    1    3    3    0    0  0.21875070487E+02 -0.22925406876E+03 -0.25590762422E+03  0.34427410429E+03  0.00000000000E+00 0.  1.
        -11    1    3    3    0    0 -0.50629637161E+02 -0.15717845691E+03 -0.24653228324E+03  0.29672646353E+03  0.00000000000E+00 0. -1.
         22    1    1    2    0    0  0.28754566674E+02  0.38643252567E+03  0.13204517301E+04  0.13761357831E+04  0.00000000000E+00 0. -1.
<mgrwt>
<rscale>  0 0.18438264E+04</rscale>
<asrwt>0</asrwt>
<pdfrwt beam="1">  1        1 0.21808832E+00 0.18438264E+04</pdfrwt>
<pdfrwt beam="2">  1       -1 0.92240348E-01 0.18438264E+04</pdfrwt>
<totfact> 0.80296045E+00</totfact>
</mgrwt>
</event>
<event>
 6    1  0.1614874E-005  0.1925421E+04  0.7818608E-02  0.8642305E-01
         -1   -1    0    0    0  501 -0.00000000000E+00  0.00000000000E+00  0.10648181540E+04  0.10648181540E+04  0.00000000000E+00 0.  1.
          1   -1    0    0  501    0  0.00000000000E+00 -0.00000000000E+00 -0.87039457608E+03  0.87039457608E+03  0.00000000000E+00 0. -1.
         23    2    1    2    0    0 -0.71298949915E+03  0.33846247323E+03 -0.45312437706E+03  0.91431644462E+03  0.87988568179E+02 0.  0.
         13    1    3    3    0    0 -0.22958648716E+03  0.68470152924E+02 -0.15664849941E+03  0.28624616905E+03  0.00000000000E+00 0. -1.
        -13    1    3    3    0    0 -0.48340301199E+03  0.26999232030E+03 -0.29647587765E+03  0.62807027557E+03  0.00000000000E+00 0.  1.
         22    1    1    2    0    0  0.71298949915E+03 -0.33846247323E+03  0.64754795499E+03  0.10208962855E+04  0.00000000000E+00 0. -1.
<mgrwt>
<rscale>  0 0.19254215E+04</rscale>
<asrwt>0</asrwt>
<pdfrwt beam="1">  1        1 0.13390686E+00 0.19254215E+04</pdfrwt>
<pdfrwt beam="2">  1       -1 0.16381818E+00 0.19254215E+04</pdfrwt>
<totfact> 0.49161376E+00</totfact>
</mgrwt>
</event>
<event>
 6    1  0.1614874E-005  0.2986491E+04  0.7818608E-02  0.8247599E-01
         -2   -1    0    0    0  501 -0.00000000000E+00  0.00000000000E+00  0.17331167525E+04  0.17331167525E+04  0.00000000000E+00 0.  1.
          2   -1    0    0  501    0  0.00000000000E+00 -0.00000000000E+00 -0.12865732508E+04  0.12865732508E+04  0.00000000000E+00 0. -1.
         23    2    1    2    0    0  0.11831100822E+04  0.29800253547E+01 -0.69538062459E+03  0.13753819246E+04  0.91448773578E+02 0.  0.
         13    1    3    3    0    0  0.52182957876E+03 -0.13146629231E+02 -0.25704176241E+03  0.58184998990E+03  0.00000000000E+00 0. -1.
        -13    1    3    3    0    0  0.66128050348E+03  0.16126654586E+02 -0.43833886218E+03  0.79353193468E+03  0.00000000000E+00 0.  1.
         22    1    1    2    0    0 -0.11831100822E+04 -0.29800253547E+01  0.11419241263E+04  0.16443080786E+04  0.00000000000E+00 0.  1.
<mgrwt>
<rscale>  0 0.29864907E+04</rscale>
<asrwt>0</asrwt>
<pdfrwt beam="1">  1        2 0.19793435E+00 0.29864907E+04</pdfrwt>
<pdfrwt beam="2">  1       -2 0.26663335E+00 0.29864907E+04</pdfrwt>
<totfact> 0.73305779E-01</totfact>
</mgrwt>
</event>
<event>
 6    1  0.1614874E-005  0.3641797E+04  0.7818608E-02  0.8080984E-01
         -2   -1    0    0    0  501 -0.00000000000E+00  0.00000000000E+00  0.12786773773E+04  0.12786773773E+04  0.00000000000E+00 0.  1.
          2   -1    0    0  501    0  0.00000000000E+00 -0.00000000000E+00 -0.25930470446E+04  0.25930470446E+04  0.00000000000E+00 0. -1.
         23    2    1    2    0    0 -0.85114963061E+03  0.15987672837E+04 -0.47095391048E+03  0.18737597925E+04  0.93089488494E+02 0.  0.
         13    1    3    3    0    0 -0.20706662551E+03  0.38389238248E+03 -0.72664862123E+02  0.44218789096E+03  0.00000000000E+00 0. -1.
        -13    1    3    3    0    0 -0.64408300510E+03  0.12148749013E+04 -0.39828904835E+03  0.14315719015E+04  0.00000000000E+00 0.  1.
         22    1    1    2    0    0  0.85114963061E+03 -0.15987672837E+04 -0.84341575684E+03  0.19979646293E+04  0.00000000000E+00 0.  1.
<mgrwt>
<rscale>  0 0.36417966E+04</rscale>
<asrwt>0</asrwt>
<pdfrwt beam="1">  1        2 0.39893031E+00 0.36417966E+04</pdfrwt>
<pdfrwt beam="2">  1       -2 0.19671960E+00 0.36417966E+04</pdfrwt>
<totfact> 0.34877017E-01</totfact>
</mgrwt>
</event>
<event>
 6    1  0.1614874E-005  0.2143901E+04  0.7818608E-02  0.8542148E-01
          1   -1    0    0  501    0  0.00000000000E+00  0.00000000000E+00  0.21297483697E+04  0.21297483697E+04  0.00000000000E+00 0. -1.
         -1   -1    0    0    0  501 -0.00000000000E+00 -0.00000000000E+00 -0.53953675375E+03  0.53953675375E+03  0.00000000000E+00 0.  1.
         23    2    1    2    0    0 -0.80063453154E+03 -0.48420966761E+03  0.14928962767E+03  0.95122492904E+03  0.84064364538E+02 0.  0.
         13    1    3    3    0    0 -0.25122977533E+02 -0.35406516962E+02  0.77201563364E+01  0.44095195400E+02  0.00000000000E+00 0.  1.
        -13    1    3    3    0    0 -0.77551155401E+03 -0.44880315065E+03  0.14156947133E+03  0.90712973364E+03  0.00000000000E+00 0. -1.
         22    1    1    2    0    0  0.80063453154E+03  0.48420966761E+03  0.14409219882E+04  0.17180601944E+04  0.00000000000E+00 0. -1.
<mgrwt>
<rscale>  0 0.21439007E+04</rscale>
<asrwt>0</asrwt>
<pdfrwt beam="1">  1        1 0.32765359E+00 0.21439007E+04</pdfrwt>
<pdfrwt beam="2">  1       -1 0.83005656E-01 0.21439007E+04</pdfrwt>
<totfact> 0.32115269E+00</totfact>
</mgrwt>
</event>
<event>
 6    1  0.1614874E-005  0.3630586E+04  0.7818608E-02  0.8083521E-01
          2   -1    0    0  501    0  0.00000000000E+00  0.00000000000E+00  0.19176769902E+04  0.19176769902E+04  0.00000000000E+00 0.  1.
         -2   -1    0    0    0  501 -0.00000000000E+00 -0.00000000000E+00 -0.17183750011E+04  0.17183750011E+04  0.00000000000E+00 0. -1.
         23    2    1    2    0    0 -0.56845535861E+03 -0.88336196109E+03  0.15809845772E+04  0.19003917067E+04  0.92230995425E+02 0.  0.
         13    1    3    3    0    0 -0.24817457918E+03 -0.46491780028E+03  0.76001426269E+03  0.92485721183E+03  0.00000000000E+00 0. -1.
        -13    1    3    3    0    0 -0.32028077942E+03 -0.41844416080E+03  0.82097031454E+03  0.97553449490E+03  0.00000000000E+00 0.  1.
         22    1    1    2    0    0  0.56845535861E+03  0.88336196109E+03 -0.13816825881E+04  0.17356602846E+04  0.00000000000E+00 0. -1.
<mgrwt>
<rscale>  0 0.36305857E+04</rscale>
<asrwt>0</asrwt>
<pdfrwt beam="1">  1        2 0.29502723E+00 0.36305857E+04</pdfrwt>
<pdfrwt beam="2">  1       -2 0.26436538E+00 0.36305857E+04</pdfrwt>
<totfact> 0.31667806E-01</totfact>
</mgrwt>
</event>
<event>
 6    1  0.1614874E-005  0.2859698E+04  0.7818608E-02  0.8284970E-01
          2   -1    0    0  501    0  0.00000000000E+00  0.00000000000E+00  0.41658740667E+04  0.41658740667E+04  0.00000000000E+00 0. -1.
         -2   -1    0    0    0  501 -0.00000000000E+00 -0.00000000000E+00 -0.49076585128E+03  0.49076585128E+03  0.00000000000E+00 0.  1.
         23    2    1    2    0    0  0.61260821836E+03 -0.53302197118E+03 -0.74265466861E+02  0.82033906164E+03  0.89663624261E+02 0.  0.
         13    1    3    3    0    0  0.54565342584E+03 -0.44009562017E+03 -0.80575890012E+02  0.70563042032E+03  0.00000000000E+00 0.  1.
        -13    1    3    3    0    0  0.66954792523E+02 -0.92926351009E+02  0.63104231515E+01  0.11470864132E+03  0.00000000000E+00 0. -1.
         22    1    1    2    0    0 -0.61260821836E+03  0.53302197118E+03  0.37493736822E+04  0.38363008563E+04  0.00000000000E+00 0. -1.
<mgrwt>
<rscale>  0 0.28596984E+04</rscale>
<asrwt>0</asrwt>
<pdfrwt beam="1">  1        2 0.64090368E+00 0.28596984E+04</pdfrwt>
<pdfrwt beam="2">  1       -2 0.75502441E-01 0.28596984E+04</pdfrwt>
<totfact> 0.33918765E-01</totfact>
</mgrwt>
</event>
<event>
 6    1  0.1614874E-005  0.5084090E+03  0.7818608E-02  0.1011607E+00
          2   -1    0    0  501    0  0.00000000000E+00  0.00000000000E+00  0.52949813075E+03  0.52949813075E+03  0.00000000000E+00 0. -1.
         -2   -1    0    0    0  501 -0.00000000000E+00 -0.00000000000E+00 -0.12203995556E+03  0.12203995556E+03  0.00000000000E+00 0.  1.
         23    2    1    2    0    0 -0.20613172127E+02 -0.13702566815E+03 -0.49986494975E+02  0.17356678711E+03  0.91792392446E+02 0.  0.
         11    1    3    3    0    0 -0.32052752550E+02 -0.28652773936E+02  0.16341429245E+02  0.45993507260E+02  0.00000000000E+00 0.  1.
        -11    1    3    3    0    0  0.11439580423E+02 -0.10837289422E+03 -0.66327924220E+02  0.12757327985E+03  0.00000000000E+00 0. -1.
         22    1    1    2    0    0  0.20613172127E+02  0.13702566815E+03  0.45744467017E+03  0.47797129920E+03  0.00000000000E+00 0. -1.
<mgrwt>
<rscale>  0 0.50840900E+03</rscale>
<asrwt>0</asrwt>
<pdfrwt beam="1">  1        2 0.81461249E-01 0.50840900E+03</pdfrwt>
<pdfrwt beam="2">  1       -2 0.18775378E-01 0.50840900E+03</pdfrwt>
<totfact> 0.13723842E+03</totfact>
</mgrwt>
</event>
<event>
 6    1  0.1614874E-005  0.3126254E+04  0.7818608E-02  0.8208569E-01
         -2   -1    0    0    0  501 -0.00000000000E+00  0.00000000000E+00  0.84693732685E+03  0.84693732685E+03  0.00000000000E+00 0.  1.
          2   -1    0    0  501    0  0.00000000000E+00 -0.00000000000E+00 -0.28849429014E+04  0.28849429014E+04  0.00000000000E+00 0. -1.
         23    2    1    2    0    0  0.12508563777E+04 -0.30435768834E+03  0.35802020664E+02  0.12909883375E+04  0.89965676105E+02 0.  0.
         13    1    3    3    0    0  0.28941861616E+03 -0.46578890096E+02 -0.21610656851E+02  0.29393834195E+03  0.00000000000E+00 0.  1.
        -13    1    3    3    0    0  0.96143776156E+03 -0.25777879825E+03  0.57412677515E+02  0.99704999559E+03  0.00000000000E+00 0. -1.
         22    1    1    2    0    0 -0.12508563777E+04  0.30435768834E+03 -0.20738075952E+04  0.24408918907E+04  0.00000000000E+00 0. -1.
<mgrwt>
<rscale>  0 0.31262539E+04</rscale>
<asrwt>0</asrwt>
<pdfrwt beam="1">  1        2 0.44383738E+00 0.31262539E+04</pdfrwt>
<pdfrwt beam="2">  1       -2 0.13029805E+00 0.31262539E+04</pdfrwt>
<totfact> 0.75034472E-01</totfact>
</mgrwt>
</event>
<event>
 6    1  0.1614874E-005  0.1960244E+04  0.7818608E-02  0.8625437E-01
          4   -1    0    0  501    0  0.00000000000E+00  0.00000000000E+00  0.15401674323E+04  0.15401674323E+04  0.00000000000E+00 0. -1.
         -4   -1    0    0    0  501 -0.00000000000E+00 -0.00000000000E+00 -0.62372399023E+03  0.62372399023E+03  0.00000000000E+00 0.  1.
         23    2    1    2    0    0 -0.63286295832E+03 -0.25381485549E+03  0.12319689488E+04  0.14125633649E+04  0.11247339305E+03 0.  0.
         11    1    3    3    0    0 -0.10342350469E+03 -0.28531962650E+02  0.12300612040E+03  0.16322070907E+03  0.00000000000E+00 0.  1.
        -11    1    3    3    0    0 -0.52943945362E+03 -0.22528289284E+03  0.11089628284E+04  0.12493426558E+04  0.00000000000E+00 0. -1.
         22    1    1    2    0    0  0.63286295832E+03  0.25381485549E+03 -0.31552550670E+03  0.75132805768E+03  0.00000000000E+00 0.  1.
<mgrwt>
<rscale>  0 0.19602442E+04</rscale>
<asrwt>0</asrwt>
<pdfrwt beam="1">  1        4 0.23694883E+00 0.19602442E+04</pdfrwt>
<pdfrwt beam="2">  1       -4 0.95957538E-01 0.19602442E+04</pdfrwt>
<totfact> 0.12939933E-01</totfact>
</mgrwt>
</event>
<event>
 6    1  0.1614874E-005  0.2924842E+04  0.7818608E-02  0.8265525E-01
          2   -1    0    0  501    0  0.00000000000E+00  0.00000000000E+00  0.24143748058E+04  0.24143748058E+04  0.00000000000E+00 0. -1.
         -2   -1    0    0    0  501 -0.00000000000E+00 -0.00000000000E+00 -0.88580881597E+03  0.88580881597E+03  0.00000000000E+00 0.  1.
         23    2    1    2    0    0  0.30678658308E+03 -0.12583800833E+03  0.23704776352E+04  0.23953253839E+04  0.92012303593E+02 0.  0.
         13    1    3    3    0    0  0.17819069773E+03 -0.41391090154E+02  0.15284885786E+04  0.15393967916E+04  0.00000000000E+00 0.  1.
        -13    1    3    3    0    0  0.12859588536E+03 -0.84446918174E+02  0.84198905660E+03  0.85592859232E+03  0.00000000000E+00 0. -1.
         22    1    1    2    0    0 -0.30678658308E+03  0.12583800833E+03 -0.84191164539E+03  0.90485823782E+03  0.00000000000E+00 0.  1.
<mgrwt>
<rscale>  0 0.29248415E+04</rscale>
<asrwt>0</asrwt>
<pdfrwt beam="1">  1        2 0.37144227E+00 0.29248415E+04</pdfrwt>
<pdfrwt beam="2">  1       -2 0.13627828E+00 0.29248415E+04</pdfrwt>
<totfact> 0.12936344E+00</totfact>
</mgrwt>
</event>
<event>
 6    1  0.2246877E-005  0.4927358E+04  0.7818608E-02  0.7839812E-01
         -1   -1    0    0    0  501 -0.00000000000E+00  0.00000000000E+00  0.19020143665E+04  0.19020143665E+04  0.00000000000E+00 0.  1.
          1   -1    0    0  501    0  0.00000000000E+00 -0.00000000000E+00 -0.31912032593E+04  0.31912032593E+04  0.00000000000E+00 0. -1.
         23    2    1    2    0    0  0.62374563368E+03  0.23631468309E+04 -0.33091440117E+03  0.24679916238E+04  0.89200639641E+02 0.  0.
         13    1    3    3    0    0  0.24766710705E+03  0.77578022051E+03 -0.10332852839E+03  0.82088411560E+03  0.00000000000E+00 0.  1.
        -13    1    3    3    0    0  0.37607852662E+03  0.15873666104E+04 -0.22758587278E+03  0.16471075082E+04  0.00000000000E+00 0. -1.
         22    1    1    2    0    0 -0.62374563368E+03 -0.23631468309E+04 -0.95827449161E+03  0.26252260020E+04  0.00000000000E+00 0. -1.
<mgrwt>
<rscale>  0 0.49273581E+04</rscale>
<asrwt>0</asrwt>
<pdfrwt beam="1">  1        1 0.49095434E+00 0.49273581E+04</pdfrwt>
<pdfrwt beam="2">  1       -1 0.29261760E+00 0.49273581E+04</pdfrwt>
<totfact> 0.11550395E-02</totfact>
</mgrwt>
</event>
<event>
 6    1  0.1614874E-005  0.4332639E+04  0.7818608E-02  0.7940610E-01
          2   -1    0    0  501    0  0.00000000000E+00  0.00000000000E+00  0.15571870198E+04  0.15571870198E+04  0.00000000000E+00 0. -1.
         -2   -1    0    0    0  501 -0.00000000000E+00 -0.00000000000E+00 -0.30137292245E+04  0.30137292245E+04  0.00000000000E+00 0.  1.
         23    2    1    2    0    0 -0.12300534718E+04 -0.13785540495E+04  0.46280145617E+03  0.19068361217E+04  0.91629669173E+02 0.  0.
         11    1    3    3    0    0 -0.35770795206E+03 -0.40536747522E+03  0.92783548834E+02  0.54853127155E+03  0.00000000000E+00 0. -1.
        -11    1    3    3    0    0 -0.87234551979E+03 -0.97318657424E+03  0.37001790733E+03  0.13583048501E+04  0.00000000000E+00 0.  1.
         22    1    1    2    0    0  0.12300534718E+04  0.13785540495E+04 -0.19193436608E+04  0.26640801225E+04  0.00000000000E+00 0.  1.
<mgrwt>
<rscale>  0 0.43326389E+04</rscale>
<asrwt>0</asrwt>
<pdfrwt beam="1">  1        2 0.23956724E+00 0.43326389E+04</pdfrwt>
<pdfrwt beam="2">  1       -2 0.46365064E+00 0.43326389E+04</pdfrwt>
<totfact> 0.25573590E-02</totfact>
</mgrwt>
</event>
<event>
 6    1  0.1614874E-005  0.1906359E+04  0.7818608E-02  0.8651697E-01
         -2   -1    0    0    0  501 -0.00000000000E+00  0.00000000000E+00  0.80247632962E+03  0.80247632962E+03  0.00000000000E+00 0.  1.
          2   -1    0    0  501    0  0.00000000000E+00 -0.00000000000E+00 -0.11321846455E+04  0.11321846455E+04  0.00000000000E+00 0. -1.
         23    2    1    2    0    0  0.35185167378E+03  0.78330089435E+03 -0.57863390242E+03  0.10406118495E+04  0.10342116218E+03 0.  0.
         13    1    3    3    0    0  0.23897246463E+03  0.46587132516E+03 -0.30019487241E+03  0.60354029847E+03  0.00000000000E+00 0. -1.
        -13    1    3    3    0    0  0.11287920915E+03  0.31742956919E+03 -0.27843903001E+03  0.43707155099E+03  0.00000000000E+00 0.  1.
         22    1    1    2    0    0 -0.35185167378E+03 -0.78330089435E+03  0.24892558654E+03  0.89404912564E+03  0.00000000000E+00 0. -1.
<mgrwt>
<rscale>  0 0.19063592E+04</rscale>
<asrwt>0</asrwt>
<pdfrwt beam="1">  1        2 0.17418225E+00 0.19063592E+04</pdfrwt>
<pdfrwt beam="2">  1       -2 0.12345790E+00 0.19063592E+04</pdfrwt>
<totfact> 0.96398234E+00</totfact>
</mgrwt>
</event>
<event>
 6    1  0.1614874E-005  0.8613891E+03  0.7818608E-02  0.9475177E-01
          1   -1    0    0  501    0  0.00000000000E+00  0.00000000000E+00  0.58526187148E+03  0.58526187148E+03  0.00000000000E+00 0. -1.
         -1   -1    0    0    0  501 -0.00000000000E+00 -0.00000000000E+00 -0.31694834185E+03  0.31694834185E+03  0.00000000000E+00 0.  1.
         23    2    1    2    0    0 -0.42998410625E+02 -0.34936427523E+03 -0.11488100262E+03  0.38188117351E+03  0.93441563529E+02 0.  0.
         11    1    3    3    0    0 -0.34489633268E+02 -0.10061812283E+03 -0.74195213807E+02  0.12968604858E+03  0.00000000000E+00 0.  1.
        -11    1    3    3    0    0 -0.85087773568E+01 -0.24874615240E+03 -0.40685788814E+02  0.25219512493E+03  0.00000000000E+00 0. -1.
         22    1    1    2    0    0  0.42998410625E+02  0.34936427523E+03  0.38319453226E+03  0.52032903982E+03  0.00000000000E+00 0. -1.
<mgrwt>
<rscale>  0 0.86138906E+03</rscale>
<asrwt>0</asrwt>
<pdfrwt beam="1">  1        1 0.90040288E-01 0.86138906E+03</pdfrwt>
<pdfrwt beam="2">  1       -1 0.48761283E-01 0.86138906E+03</pdfrwt>
<totfact> 0.15082777E+02</totfact>
</mgrwt>
</event>
<event>
 6    1  0.1614874E-005  0.2088281E+04  0.7818608E-02  0.8566423E-01
          1   -1    0    0  501    0  0.00000000000E+00  0.00000000000E+00  0.21771401108E+04  0.21771401108E+04  0.00000000000E+00 0. -1.
         -1   -1    0    0    0  501 -0.00000000000E+00 -0.00000000000E+00 -0.50076234960E+03  0.50076234960E+03  0.00000000000E+00 0.  1.
         23    2    1    2    0    0 -0.18759077637E+03  0.82305933634E+03  0.56113688028E+02  0.85091788540E+03  0.91079806736E+02 0.  0.
         11    1    3    3    0    0 -0.17025874895E+03  0.61041014063E+03  0.67279106797E+02  0.63727157445E+03  0.00000000000E+00 0. -1.
        -11    1    3    3    0    0 -0.17332027418E+02  0.21264919570E+03 -0.11165418770E+02  0.21364631095E+03  0.00000000000E+00 0.  1.
         22    1    1    2    0    0  0.18759077637E+03 -0.82305933634E+03  0.16202640732E+04  0.18269845750E+04  0.00000000000E+00 0. -1.
<mgrwt>
<rscale>  0 0.20882814E+04</rscale>
<asrwt>0</asrwt>
<pdfrwt beam="1">  1        1 0.33494463E+00 0.20882814E+04</pdfrwt>
<pdfrwt beam="2">  1       -1 0.77040363E-01 0.20882814E+04</pdfrwt>
<totfact> 0.35126962E+00</totfact>
</mgrwt>
</event>
<event>
 6    1  0.1614874E-005  0.2365550E+04  0.7818608E-02  0.8452515E-01
         -2   -1    0    0    0  501 -0.00000000000E+00  0.00000000000E+00  0.95305677201E+03  0.95305677201E+03  0.00000000000E+00 0.  1.
          2   -1    0    0  501    0  0.00000000000E+00 -0.00000000000E+00 -0.14678627306E+04  0.14678627306E+04  0.00000000000E+00 0. -1.
         23    2    1    2    0    0 -0.19036922146E+03  0.10684273930E+04  0.21883577408E+03  0.11109547220E+04  0.92486559098E+02 0.  0.
         11    1    3    3    0    0 -0.66186158954E+02  0.48313832855E+03  0.14078948063E+03  0.50756766052E+03  0.00000000000E+00 0. -1.
        -11    1    3    3    0    0 -0.12418306251E+03  0.58528906447E+03  0.78046293451E+02  0.60338706145E+03  0.00000000000E+00 0.  1.
         22    1    1    2    0    0  0.19036922146E+03 -0.10684273930E+04 -0.73364173268E+03  0.13099647807E+04  0.00000000000E+00 0. -1.
<mgrwt>
<rscale>  0 0.23655498E+04</rscale>
<asrwt>0</asrwt>
<pdfrwt beam="1">  1        2 0.22582504E+00 0.23655498E+04</pdfrwt>
<pdfrwt beam="2">  1       -2 0.14662412E+00 0.23655498E+04</pdfrwt>
<totfact> 0.37990848E+00</totfact>
</mgrwt>
</event>
<event>
 6    1  0.1614874E-005  0.2108730E+04  0.7818608E-02  0.8557407E-01
         -2   -1    0    0    0  501 -0.00000000000E+00  0.00000000000E+00  0.69502094916E+03  0.69502094916E+03  0.00000000000E+00 0.  1.
          2   -1    0    0  501    0  0.00000000000E+00 -0.00000000000E+00 -0.15994993893E+04  0.15994993893E+04  0.00000000000E+00 0. -1.
         23    2    1    2    0    0 -0.95627534641E+03  0.26774583960E+02 -0.93057272572E+03  0.13375144198E+04  0.88316526489E+02 0.  0.
         11    1    3    3    0    0 -0.78106056694E+03  0.25134464680E+02 -0.80513760277E+03  0.11220222413E+04  0.00000000000E+00 0. -1.
        -11    1    3    3    0    0 -0.17521477947E+03  0.16401192794E+01 -0.12543512294E+03  0.21549217852E+03  0.00000000000E+00 0.  1.
         22    1    1    2    0    0  0.95627534641E+03 -0.26774583960E+02  0.26094285627E+02  0.95700591860E+03  0.00000000000E+00 0.  1.
<mgrwt>
<rscale>  0 0.21087300E+04</rscale>
<asrwt>0</asrwt>
<pdfrwt beam="1">  1        2 0.24607683E+00 0.21087300E+04</pdfrwt>
<pdfrwt beam="2">  1       -2 0.10692630E+00 0.21087300E+04</pdfrwt>
<totfact> 0.72313133E+00</totfact>
</mgrwt>
</event>
<event>
 6    1  0.1614874E-005  0.2971637E+04  0.7818608E-02  0.8251877E-01
         -2   -1    0    0    0  501 -0.00000000000E+00  0.00000000000E+00  0.15119665812E+04  0.15119665812E+04  0.00000000000E+00 0. -1.
          2   -1    0    0  501    0  0.00000000000E+00 -0.00000000000E+00 -0.14601231093E+04  0.14601231093E+04  0.00000000000E+00 0.  1.
         23    2    1    2    0    0 -0.46976006127E+03 -0.99111940013E+03 -0.97445590290E+03  0.14699969546E+04  0.91293807598E+02 0.  0.
         13    1    3    3    0    0 -0.30628483576E+02 -0.13434701403E+03 -0.11719429102E+03  0.18089147584E+03  0.00000000000E+00 0. -1.
        -13    1    3    3    0    0 -0.43913157769E+03 -0.85677238610E+03 -0.85726161188E+03  0.12891054787E+04  0.00000000000E+00 0.  1.
         22    1    1    2    0    0  0.46976006127E+03  0.99111940013E+03  0.10262993748E+04  0.15020927359E+04  0.00000000000E+00 0. -1.
<mgrwt>
<rscale>  0 0.29716375E+04</rscale>
<asrwt>0</asrwt>
<pdfrwt beam="1">  1        2 0.22463432E+00 0.29716375E+04</pdfrwt>
<pdfrwt beam="2">  1       -2 0.23261024E+00 0.29716375E+04</pdfrwt>
<totfact> 0.94479341E-01</totfact>
</mgrwt>
</event>
<event>
 6    1  0.1614874E-005  0.5446057E+04  0.7818608E-02  0.7763156E-01
          2   -1    0    0  501    0  0.00000000000E+00  0.00000000000E+00  0.37864857165E+04  0.37864857165E+04  0.00000000000E+00 0.  1.
         -2   -1    0    0    0  501 -0.00000000000E+00 -0.00000000000E+00 -0.19582497920E+04  0.19582497920E+04  0.00000000000E+00 0. -1.
         23    2    1    2    0    0  0.10802130340E+04  0.23636553796E+04  0.17696891541E+04  0.31452827436E+04  0.85304647372E+02 0.  0.
         11    1    3    3    0    0  0.42077471529E+03  0.99526871047E+03  0.77004799624E+03  0.13268704095E+04  0.00000000000E+00 0. -1.
        -11    1    3    3    0    0  0.65943831875E+03  0.13683866691E+04  0.99964115782E+03  0.18184123341E+04  0.00000000000E+00 0.  1.
         22    1    1    2    0    0 -0.10802130340E+04 -0.23636553796E+04  0.58546770388E+02  0.25994527649E+04  0.00000000000E+00 0. -1.
<mgrwt>
<rscale>  0 0.54460572E+04</rscale>
<asrwt>0</asrwt>
<pdfrwt beam="1">  1        2 0.58253626E+00 0.54460572E+04</pdfrwt>
<pdfrwt beam="2">  1       -2 0.30126920E+00 0.54460572E+04</pdfrwt>
<totfact> 0.10994132E-02</totfact>
</mgrwt>
</event>
<event>
 6    1  0.1614874E-005  0.1060181E+04  0.7818608E-02  0.9244895E-01
          2   -1    0    0  501    0  0.00000000000E+00  0.00000000000E+00  0.29516639898E+04  0.29516639898E+04  0.00000000000E+00 0.  1.
         -2   -1    0    0    0  501 -0.00000000000E+00 -0.00000000000E+00 -0.95199180402E+02  0.95199180402E+02  0.00000000000E+00 0. -1.
         23    2    1    2    0    0 -0.36207026896E+03 -0.36795309154E+02  0.25307763426E+04  0.25584762828E+04  0.92321279070E+02 0.  0.
         11    1    3    3    0    0 -0.13852496855E+03 -0.74246410410E+01  0.67913898519E+03  0.69316235718E+03  0.00000000000E+00 0. -1.
        -11    1    3    3    0    0 -0.22354530041E+03 -0.29370668113E+02  0.18516373574E+04  0.18653139256E+04  0.00000000000E+00 0.  1.
         22    1    1    2    0    0  0.36207026896E+03  0.36795309154E+02  0.32568846676E+03  0.48838688744E+03  0.00000000000E+00 0. -1.
<mgrwt>
<rscale>  0 0.10601811E+04</rscale>
<asrwt>0</asrwt>
<pdfrwt beam="1">  1        2 0.45410208E+00 0.10601811E+04</pdfrwt>
<pdfrwt beam="2">  1       -2 0.14646030E-01 0.10601811E+04</pdfrwt>
<totfact> 0.69257525E+01</totfact>
</mgrwt>
</event>
<event>
 6    1  0.1614874E-005  0.2986534E+04  0.7818608E-02  0.8247587E-01
          2   -1    0    0  501    0  0.00000000000E+00  0.00000000000E+00  0.12857313964E+04  0.12857313964E+04  0.00000000000E+00 0. -1.
         -2   -1    0    0    0  501 -0.00000000000E+00 -0.00000000000E+00 -0.17343015682E+04  0.17343015682E+04  0.00000000000E+00 0.  1.
         23    2    1    2    0    0 -0.12473879902E+04  0.66010696457E+03 -0.71362371527E+03  0.15840763553E+04  0.91220006823E+02 0.  0.
         11    1    3    3    0    0 -0.21972472716E+03  0.82691684857E+02 -0.13713410351E+03  0.27188716928E+03  0.00000000000E+00 0. -1.
        -11    1    3    3    0    0 -0.10276632630E+04  0.57741527972E+03 -0.57648961175E+03  0.13121891860E+04  0.00000000000E+00 0.  1.
         22    1    1    2    0    0  0.12473879902E+04 -0.66010696457E+03  0.26505354345E+03  0.14359566093E+04  0.00000000000E+00 0. -1.
<mgrwt>
<rscale>  0 0.29865338E+04</rscale>
<asrwt>0</asrwt>
<pdfrwt beam="1">  1        2 0.19780483E+00 0.29865338E+04</pdfrwt>
<pdfrwt beam="2">  1       -2 0.26681562E+00 0.29865338E+04</pdfrwt>
<totfact> 0.73200705E-01</totfact>
</mgrwt>
</event>
<event>
 6    1  0.1614874E-005  0.3136854E+04  0.7818608E-02  0.8205696E-01
          2   -1    0    0  501    0  0.00000000000E+00  0.00000000000E+00  0.12219931598E+04  0.12219931598E+04  0.00000000000E+00 0. -1.
         -2   -1    0    0    0  501 -0.00000000000E+00 -0.00000000000E+00 -0.20130746091E+04  0.20130746091E+04  0.00000000000E+00 0.  1.
         23    2    1    2    0    0  0.10281020895E+04  0.10746055964E+04  0.11361066681E+03  0.14943096239E+04  0.91009748343E+02 0.  0.
         13    1    3    3    0    0  0.50764293208E+03  0.59630427905E+03  0.61284255295E+02  0.78551632679E+03  0.00000000000E+00 0. -1.
        -13    1    3    3    0    0  0.52045915745E+03  0.47830131735E+03  0.52326411514E+02  0.70879329716E+03  0.00000000000E+00 0.  1.
         22    1    1    2    0    0 -0.10281020895E+04 -0.10746055964E+04 -0.90469211611E+03  0.17407581450E+04  0.00000000000E+00 0.  1.
<mgrwt>
<rscale>  0 0.31368541E+04</rscale>
<asrwt>0</asrwt>
<pdfrwt beam="1">  1        2 0.18799895E+00 0.31368541E+04</pdfrwt>
<pdfrwt beam="2">  1       -2 0.30970378E+00 0.31368541E+04</pdfrwt>
<totfact> 0.43099381E-01</totfact>
</mgrwt>
</event>
<event>
 6    1  0.1614874E-005  0.2562846E+04  0.7818608E-02  0.8380932E-01
          2   -1    0    0  501    0  0.00000000000E+00  0.00000000000E+00  0.23645330579E+04  0.23645330579E+04  0.00000000000E+00 0. -1.
         -2   -1    0    0    0  501 -0.00000000000E+00 -0.00000000000E+00 -0.69444804089E+03  0.69444804089E+03  0.00000000000E+00 0.  1.
         23    2    1    2    0    0  0.83539580620E+03 -0.73364258840E+03  0.15912959161E+04  0.19443846145E+04  0.11086584596E+03 0.  0.
         11    1    3    3    0    0  0.75651288984E+03 -0.66677922706E+03  0.14934204592E+04  0.18020019306E+04  0.00000000000E+00 0.  1.
        -11    1    3    3    0    0  0.78882916360E+02 -0.66863361345E+02  0.97875456929E+02  0.14238268382E+03  0.00000000000E+00 0. -1.
         22    1    1    2    0    0 -0.83539580620E+03  0.73364258840E+03  0.78789100930E+02  0.11145964844E+04  0.00000000000E+00 0.  1.
<mgrwt>
<rscale>  0 0.25628463E+04</rscale>
<asrwt>0</asrwt>
<pdfrwt beam="1">  1        2 0.36377431E+00 0.25628463E+04</pdfrwt>
<pdfrwt beam="2">  1       -2 0.10683816E+00 0.25628463E+04</pdfrwt>
<totfact> 0.26053704E+00</totfact>
</mgrwt>
</event>
<event>
 6    1  0.1614874E-005  0.5167806E+04  0.7818608E-02  0.7803130E-01
          2   -1    0    0  501    0  0.00000000000E+00  0.00000000000E+00  0.32324226415E+04  0.32324226415E+04  0.00000000000E+00 0.  1.
         -2   -1    0    0    0  501 -0.00000000000E+00 -0.00000000000E+00 -0.20654956181E+04  0.20654956181E+04  0.00000000000E+00 0. -1.
         23    2    1    2    0    0  0.15976155114E+03  0.14995052184E+04  0.27336870391E+04  0.31233432207E+04  0.90489740387E+02 0.  0.
         13    1    3    3    0    0  0.11921757383E+03  0.80612943058E+03  0.15388719253E+04  0.17413168267E+04  0.00000000000E+00 0.  1.
        -13    1    3    3    0    0  0.40543977302E+02  0.69337578785E+03  0.11948151138E+04  0.13820263939E+04  0.00000000000E+00 0. -1.
         22    1    1    2    0    0 -0.15976155114E+03 -0.14995052184E+04 -0.15667600157E+04  0.21745750390E+04  0.00000000000E+00 0. -1.
<mgrwt>
<rscale>  0 0.51678060E+04</rscale>
<asrwt>0</asrwt>
<pdfrwt beam="1">  1        2 0.49729579E+00 0.51678060E+04</pdfrwt>
<pdfrwt beam="2">  1       -2 0.31776856E+00 0.51678060E+04</pdfrwt>
<totfact> 0.21903374E-02</totfact>
</mgrwt>
</event>
<event>
 6    1  0.1614874E-005  0.2494316E+04  0.7818608E-02  0.8405013E-01
         -1   -1    0    0    0  501 -0.00000000000E+00  0.00000000000E+00  0.47998127803E+03  0.47998127803E+03  0.00000000000E+00 0.  1.
          1   -1    0    0  501    0  0.00000000000E+00 -0.00000000000E+00 -0.32405497169E+04  0.32405497169E+04  0.00000000000E+00 0. -1.
         23    2    1    2    0    0 -0.11106444322E+04  0.37659640240E+03 -0.75746374921E+03  0.13993708749E+04  0.95559452375E+02 0.  0.
         11    1    3    3    0    0 -0.76942834852E+03  0.22410340733E+03 -0.48329504444E+03  0.93585064014E+03  0.00000000000E+00 0. -1.
        -11    1    3    3    0    0 -0.34121608373E+03  0.15249299507E+03 -0.27416870477E+03  0.46352023475E+03  0.00000000000E+00 0.  1.
         22    1    1    2    0    0  0.11106444322E+04 -0.37659640240E+03 -0.20031046897E+04  0.23211601201E+04  0.00000000000E+00 0. -1.
<mgrwt>
<rscale>  0 0.24943161E+04</rscale>
<asrwt>0</asrwt>
<pdfrwt beam="1">  1        1 0.49854609E+00 0.24943161E+04</pdfrwt>
<pdfrwt beam="2">  1       -1 0.73843277E-01 0.24943161E+04</pdfrwt>
<totfact> 0.65068887E-01</totfact>
</mgrwt>
</event>
<event>
 6    1  0.1614874E-005  0.1609728E+04  0.7818608E-02  0.8814594E-01
         -2   -1    0    0    0  501 -0.00000000000E+00  0.00000000000E+00  0.50951832854E+03  0.50951832854E+03  0.00000000000E+00 0.  1.
          2   -1    0    0  501    0  0.00000000000E+00 -0.00000000000E+00 -0.12714083933E+04  0.12714083933E+04  0.00000000000E+00 0. -1.
         23    2    1    2    0    0 -0.55498088382E+03  0.57273481864E+03 -0.28428258056E+03  0.85133656331E+03  0.89041588790E+02 0.  0.
         11    1    3    3    0    0 -0.37197414508E+03  0.41587370533E+03 -0.23441435120E+03  0.60519896847E+03  0.00000000000E+00 0. -1.
        -11    1    3    3    0    0 -0.18300673874E+03  0.15686111331E+03 -0.49868229358E+02  0.24613759484E+03  0.00000000000E+00 0.  1.
         22    1    1    2    0    0  0.55498088382E+03 -0.57273481864E+03 -0.47760748424E+03  0.92959015856E+03  0.00000000000E+00 0. -1.
<mgrwt>
<rscale>  0 0.16097278E+04</rscale>
<asrwt>0</asrwt>
<pdfrwt beam="1">  1        2 0.19560129E+00 0.16097278E+04</pdfrwt>
<pdfrwt beam="2">  1       -2 0.78387436E-01 0.16097278E+04</pdfrwt>
<totfact> 0.23824588E+01</totfact>
</mgrwt>
</event>
<event>
 6    1  0.1614874E-005  0.2808141E+04  0.7818608E-02  0.8300745E-01
         -1   -1    0    0    0  501 -0.00000000000E+00  0.00000000000E+00  0.36520895356E+03  0.36520895356E+03  0.00000000000E+00 0.  1.
          1   -1    0    0  501    0  0.00000000000E+00 -0.00000000000E+00 -0.53980440683E+04  0.53980440683E+04  0.00000000000E+00 0. -1.
         23    2    1    2    0    0  0.10982461721E+04  0.15321654804E+03 -0.75638355181E+03  0.13453736737E+04  0.91072934317E+02 0.  0.
         13    1    3    3    0    0  0.42349075586E+03  0.15443332024E+02 -0.29946218154E+03  0.51890318459E+03  0.00000000000E+00 0.  1.
        -13    1    3    3    0    0  0.67475541620E+03  0.13777321602E+03 -0.45692137026E+03  0.82647048909E+03  0.00000000000E+00 0. -1.
         22    1    1    2    0    0 -0.10982461721E+04 -0.15321654804E+03 -0.42764515629E+04  0.44178793482E+04  0.00000000000E+00 0. -1.
<mgrwt>
<rscale>  0 0.28081410E+04</rscale>
<asrwt>0</asrwt>
<pdfrwt beam="1">  1        1 0.83046830E+00 0.28081410E+04</pdfrwt>
<pdfrwt beam="2">  1       -1 0.56185994E-01 0.28081410E+04</pdfrwt>
<totfact> 0.63515002E-03</totfact>
</mgrwt>
</event>
<event>
 6    1  0.1614874E-005  0.2564475E+04  0.7818608E-02  0.8380369E-01
          2   -1    0    0  501    0  0.00000000000E+00  0.00000000000E+00  0.12702436929E+04  0.12702436929E+04  0.00000000000E+00 0. -1.
         -2   -1    0    0    0  501 -0.00000000000E+00 -0.00000000000E+00 -0.12943441244E+04  0.12943441244E+04  0.00000000000E+00 0.  1.
         23    2    1    2    0    0 -0.13334641679E+03  0.51186647865E+03 -0.11782076920E+04  0.12950398159E+04  0.95740276620E+02 0.  0.
         13    1    3    3    0    0 -0.88600586197E+02  0.45513645664E+03 -0.10511335631E+04  0.11488607511E+04  0.00000000000E+00 0. -1.
        -13    1    3    3    0    0 -0.44745830589E+02  0.56730022008E+02 -0.12707412892E+03  0.14617906483E+03  0.00000000000E+00 0.  1.
         22    1    1    2    0    0  0.13334641679E+03 -0.51186647865E+03  0.11541072606E+04  0.12695480014E+04  0.00000000000E+00 0. -1.
<mgrwt>
<rscale>  0 0.25644746E+04</rscale>
<asrwt>0</asrwt>
<pdfrwt beam="1">  1        2 0.19542211E+00 0.25644746E+04</pdfrwt>
<pdfrwt beam="2">  1       -2 0.19912987E+00 0.25644746E+04</pdfrwt>
<totfact> 0.20574445E+00</totfact>
</mgrwt>
</event>
<event>
 6    1  0.1614874E-005  0.2915804E+04  0.7818608E-02  0.8268191E-01
         -2   -1    0    0    0  501 -0.00000000000E+00  0.00000000000E+00  0.73698787584E+03  0.73698787584E+03  0.00000000000E+00 0.  1.
          2   -1    0    0  501    0  0.00000000000E+00 -0.00000000000E+00 -0.28840069917E+04  0.28840069917E+04  0.00000000000E+00 0. -1.
         23    2    1    2    0    0 -0.10070728041E+04 -0.40040715190E+03 -0.22826643385E+04  0.25287855715E+04  0.98379186685E+02 0.  0.
         11    1    3    3    0    0 -0.21836930819E+03 -0.95419874743E+02 -0.59989013414E+03  0.64549072828E+03  0.00000000000E+00 0.  1.
        -11    1    3    3    0    0 -0.78870349589E+03 -0.30498727716E+03 -0.16827742043E+04  0.18832948432E+04  0.00000000000E+00 0. -1.
         22    1    1    2    0    0  0.10070728041E+04  0.40040715190E+03  0.13564522261E+03  0.10922092961E+04  0.00000000000E+00 0.  1.
<mgrwt>
<rscale>  0 0.29158040E+04</rscale>
<asrwt>0</asrwt>
<pdfrwt beam="1">  1        2 0.44369339E+00 0.29158040E+04</pdfrwt>
<pdfrwt beam="2">  1       -2 0.11338275E+00 0.29158040E+04</pdfrwt>
<totfact> 0.10807118E+00</totfact>
</mgrwt>
</event>
<event>
 6    1  0.1614874E-005  0.3416713E+04  0.7818608E-02  0.8133817E-01
         -1   -1    0    0    0  501 -0.00000000000E+00  0.00000000000E+00  0.14309937148E+04  0.14309937148E+04  0.00000000000E+00 0.  1.
          1   -1    0    0  501    0  0.00000000000E+00 -0.00000000000E+00 -0.20394788155E+04  0.20394788155E+04  0.00000000000E+00 0. -1.
         23    2    1    2    0    0 -0.42784306724E+02 -0.16415136595E+04 -0.77903844963E+03  0.18195679189E+04  0.86769315605E+02 0.  0.
         11    1    3    3    0    0  0.94251536005E+01 -0.11137562676E+04 -0.51341364800E+03  0.12264319920E+04  0.00000000000E+00 0. -1.
        -11    1    3    3    0    0 -0.52209460324E+02 -0.52775739189E+03 -0.26562480162E+03  0.59313592682E+03  0.00000000000E+00 0.  1.
         22    1    1    2    0    0  0.42784306724E+02  0.16415136595E+04  0.17055334899E+03  0.16509046114E+04  0.00000000000E+00 0.  1.
<mgrwt>
<rscale>  0 0.34167127E+04</rscale>
<asrwt>0</asrwt>
<pdfrwt beam="1">  1        1 0.31376597E+00 0.34167127E+04</pdfrwt>
<pdfrwt beam="2">  1       -1 0.22015288E+00 0.34167127E+04</pdfrwt>
<totfact> 0.25271870E-01</totfact>
</mgrwt>
</event>
<event>
 6    1  0.1614874E-005  0.3140403E+04  0.7818608E-02  0.8204736E-01
          2   -1    0    0  501    0  0.00000000000E+00  0.00000000000E+00  0.13854401538E+04  0.13854401538E+04  0.00000000000E+00 0.  1.
         -2   -1    0    0    0  501 -0.00000000000E+00 -0.00000000000E+00 -0.17796026218E+04  0.17796026218E+04  0.00000000000E+00 0. -1.
         23    2    1    2    0    0  0.13244221356E+04  0.73320151398E+03 -0.61256996805E+03  0.16355394936E+04  0.89827700880E+02 0.  0.
         13    1    3    3    0    0  0.90596194357E+03  0.48116108839E+03 -0.45565896387E+03  0.11224562920E+04  0.00000000000E+00 0. -1.
        -13    1    3    3    0    0  0.41846019207E+03  0.25204042558E+03 -0.15691100418E+03  0.51308320155E+03  0.00000000000E+00 0.  1.
         22    1    1    2    0    0 -0.13244221356E+04 -0.73320151398E+03  0.21840750000E+03  0.15295032820E+04  0.00000000000E+00 0.  1.
<mgrwt>
<rscale>  0 0.31404031E+04</rscale>
<asrwt>0</asrwt>
<pdfrwt beam="1">  1        2 0.21314464E+00 0.31404031E+04</pdfrwt>
<pdfrwt beam="2">  1       -2 0.27378502E+00 0.31404031E+04</pdfrwt>
<totfact> 0.57363537E-01</totfact>
</mgrwt>
</event>
<event>
 6    1  0.1614874E-005  0.2550342E+04  0.7818608E-02  0.8385267E-01
          1   -1    0    0  501    0  0.00000000000E+00  0.00000000000E+00  0.10770259597E+04  0.10770259597E+04  0.00000000000E+00 0. -1.
         -1   -1    0    0    0  501 -0.00000000000E+00 -0.00000000000E+00 -0.15097690333E+04  0.15097690333E+04  0.00000000000E+00 0.  1.
         23    2    1    2    0    0 -0.36867532026E+03 -0.35470122597E+03  0.96630222360E+03  0.10971432905E+04  0.90823790999E+02 0.  0.
         11    1    3    3    0    0 -0.23445566345E+03 -0.28245634800E+03  0.69185554818E+03  0.78320823935E+03  0.00000000000E+00 0.  1.
        -11    1    3    3    0    0 -0.13421965681E+03 -0.72244877970E+02  0.27444667542E+03  0.31393505111E+03  0.00000000000E+00 0. -1.
         22    1    1    2    0    0  0.36867532026E+03  0.35470122597E+03 -0.13990452972E+04  0.14896517026E+04  0.00000000000E+00 0.  1.
<mgrwt>
<rscale>  0 0.25503415E+04</rscale>
<asrwt>0</asrwt>
<pdfrwt beam="1">  1        1 0.16569630E+00 0.25503415E+04</pdfrwt>
<pdfrwt beam="2">  1       -1 0.23227216E+00 0.25503415E+04</pdfrwt>
<totfact> 0.10642503E+00</totfact>
</mgrwt>
</event>
<event>
 6    1  0.1614874E-005  0.2051464E+04  0.7818608E-02  0.8582930E-01
          2   -1    0    0  501    0  0.00000000000E+00  0.00000000000E+00  0.13684488943E+04  0.13684488943E+04  0.00000000000E+00 0. -1.
         -2   -1    0    0    0  501 -0.00000000000E+00 -0.00000000000E+00 -0.76884599512E+03  0.76884599512E+03  0.00000000000E+00 0.  1.
         23    2    1    2    0    0  0.88150414430E+03 -0.29277646387E+03 -0.14800498049E+03  0.94495049455E+03  0.90875457071E+02 0.  0.
         11    1    3    3    0    0  0.21060051744E+03 -0.10132130322E+03 -0.63396781662E+02  0.24215229992E+03  0.00000000000E+00 0. -1.
        -11    1    3    3    0    0  0.67090362686E+03 -0.19145516065E+03 -0.84608198824E+02  0.70279819463E+03  0.00000000000E+00 0.  1.
         22    1    1    2    0    0 -0.88150414430E+03  0.29277646387E+03  0.74760787963E+03  0.11923443948E+04  0.00000000000E+00 0. -1.
<mgrwt>
<rscale>  0 0.20514643E+04</rscale>
<asrwt>0</asrwt>
<pdfrwt beam="1">  1        2 0.21053060E+00 0.20514643E+04</pdfrwt>
<pdfrwt beam="2">  1       -2 0.11828400E+00 0.20514643E+04</pdfrwt>
<totfact> 0.76833668E+00</totfact>
</mgrwt>
</event>
<event>
 6    1  0.1614874E-005  0.1364558E+04  0.7818608E-02  0.8979880E-01
         -1   -1    0    0    0  501 -0.00000000000E+00  0.00000000000E+00  0.26564157653E+03  0.26564157653E+03  0.00000000000E+00 0.  1.
          1   -1    0    0  501    0  0.00000000000E+00 -0.00000000000E+00 -0.17523788508E+04  0.17523788508E+04  0.00000000000E+00 0. -1.
         23    2    1    2    0    0  0.56929107495E+02  0.64721441704E+03 -0.45096442506E+03  0.79533779472E+03  0.84058730278E+02 0.  0.
         13    1    3    3    0    0  0.56701930976E+02  0.20737713730E+03 -0.15946675280E+03  0.26767523475E+03  0.00000000000E+00 0.  1.
        -13    1    3    3    0    0  0.22717651935E+00  0.43983727975E+03 -0.29149767225E+03  0.52766255997E+03  0.00000000000E+00 0. -1.
         22    1    1    2    0    0 -0.56929107495E+02 -0.64721441704E+03 -0.10357728492E+04  0.12226826326E+04  0.00000000000E+00 0. -1.
<mgrwt>
<rscale>  0 0.13645581E+04</rscale>
<asrwt>0</asrwt>
<pdfrwt beam="1">  1        1 0.26959673E+00 0.13645581E+04</pdfrwt>
<pdfrwt beam="2">  1       -1 0.40867937E-01 0.13645581E+04</pdfrwt>
<totfact> 0.25138086E+01</totfact>
</mgrwt>
</event>
<event>
 6    1  0.1614874E-005  0.5793116E+03  0.7818608E-02  0.9949283E-01
         -2   -1    0    0    0  501 -0.00000000000E+00  0.00000000000E+00  0.18278589697E+03  0.18278589697E+03  0.00000000000E+00 0.  1.
          2   -1    0    0  501    0  0.00000000000E+00 -0.00000000000E+00 -0.45900954526E+03  0.45900954526E+03  0.00000000000E+00 0. -1.
         23    2    1    2    0    0  0.10927070353E+03 -0.25334806413E+03 -0.74619507415E+02  0.30007983259E+03  0.91402991148E+02 0.  0.
         13    1    3    3    0    0  0.72267405620E+02 -0.10908166603E+03  0.54937123628E+01  0.13096399755E+03  0.00000000000E+00 0.  1.
        -13    1    3    3    0    0  0.37003297906E+02 -0.14426639810E+03 -0.80113219778E+02  0.16911583504E+03  0.00000000000E+00 0. -1.
         22    1    1    2    0    0 -0.10927070353E+03  0.25334806413E+03 -0.20160414088E+03  0.34171560964E+03  0.00000000000E+00 0. -1.
<mgrwt>
<rscale>  0 0.57931156E+03</rscale>
<asrwt>0</asrwt>
<pdfrwt beam="1">  1        2 0.70616852E-01 0.57931156E+03</pdfrwt>
<pdfrwt beam="2">  1       -2 0.28120908E-01 0.57931156E+03</pdfrwt>
<totfact> 0.78952449E+02</totfact>
</mgrwt>
</event>
<event>
 6    1  0.1614874E-005  0.3287360E+04  0.7818608E-02  0.8166119E-01
          2   -1    0    0  501    0  0.00000000000E+00  0.00000000000E+00  0.26834479344E+04  0.26834479344E+04  0.00000000000E+00 0. -1.
         -2   -1    0    0    0  501 -0.00000000000E+00 -0.00000000000E+00 -0.10067956319E+04  0.10067956319E+04  0.00000000000E+00 0.  1.
         23    2    1    2    0    0 -0.90097600930E+03  0.13355981956E+04  0.11971618854E+04  0.20093237676E+04  0.92763751049E+02 0.  0.
         13    1    3    3    0    0 -0.12768206735E+03  0.13855428904E+03  0.15103451912E+03  0.24147759171E+03  0.00000000000E+00 0. -1.
        -13    1    3    3    0    0 -0.77329394195E+03  0.11970439066E+04  0.10461273663E+04  0.17678461758E+04  0.00000000000E+00 0.  1.
         22    1    1    2    0    0  0.90097600930E+03 -0.13355981956E+04  0.47949041712E+03  0.16809197987E+04  0.00000000000E+00 0.  1.
<mgrwt>
<rscale>  0 0.32873598E+04</rscale>
<asrwt>0</asrwt>
<pdfrwt beam="1">  1        2 0.41283814E+00 0.32873598E+04</pdfrwt>
<pdfrwt beam="2">  1       -2 0.15489164E+00 0.32873598E+04</pdfrwt>
<totfact> 0.62443970E-01</totfact>
</mgrwt>
</event>
<event>
 6    1  0.1614874E-005  0.2888482E+04  0.7818608E-02  0.8276313E-01
         -2   -1    0    0    0  501 -0.00000000000E+00  0.00000000000E+00  0.12333779128E+04  0.12333779128E+04  0.00000000000E+00 0.  1.
          2   -1    0    0  501    0  0.00000000000E+00 -0.00000000000E+00 -0.16911538464E+04  0.16911538464E+04  0.00000000000E+00 0. -1.
         23    2    1    2    0    0  0.13750082763E+04 -0.42576193283E+03 -0.13043527568E+03  0.14483634459E+04  0.93927242813E+02 0.  0.
         13    1    3    3    0    0  0.75149801765E+03 -0.27801512976E+03 -0.89980517145E+02  0.80631146362E+03  0.00000000000E+00 0. -1.
        -13    1    3    3    0    0  0.62351025860E+03 -0.14774680307E+03 -0.40454758539E+02  0.64205198223E+03  0.00000000000E+00 0.  1.
         22    1    1    2    0    0 -0.13750082763E+04  0.42576193283E+03 -0.32734065790E+03  0.14761683134E+04  0.00000000000E+00 0.  1.
<mgrwt>
<rscale>  0 0.28884818E+04</rscale>
<asrwt>0</asrwt>
<pdfrwt beam="1">  1        2 0.26017752E+00 0.28884818E+04</pdfrwt>
<pdfrwt beam="2">  1       -2 0.18975045E+00 0.28884818E+04</pdfrwt>
<totfact> 0.13334558E+00</totfact>
</mgrwt>
</event>
<event>
 6    1  0.1614874E-005  0.1669344E+04  0.7818608E-02  0.8779044E-01
          3   -1    0    0  501    0  0.00000000000E+00  0.00000000000E+00  0.87219442479E+03  0.87219442479E+03  0.00000000000E+00 0. -1.
         -3   -1    0    0    0  501 -0.00000000000E+00 -0.00000000000E+00 -0.79876393834E+03  0.79876393834E+03  0.00000000000E+00 0.  1.
         23    2    1    2    0    0  0.42501567017E+03  0.14388126102E+03 -0.66465189944E+03  0.80718423436E+03  0.91891803758E+02 0.  0.
         11    1    3    3    0    0  0.28037406574E+03  0.49548165696E+02 -0.39316430790E+03  0.48543054134E+03  0.00000000000E+00 0. -1.
        -11    1    3    3    0    0  0.14464160444E+03  0.94333095328E+02 -0.27148759154E+03  0.32175369301E+03  0.00000000000E+00 0.  1.
         22    1    1    2    0    0 -0.42501567017E+03 -0.14388126102E+03  0.73808238590E+03  0.86377412877E+03  0.00000000000E+00 0. -1.
<mgrwt>
<rscale>  0 0.16693441E+04</rscale>
<asrwt>0</asrwt>
<pdfrwt beam="1">  1        3 0.13418376E+00 0.16693441E+04</pdfrwt>
<pdfrwt beam="2">  1       -3 0.12288676E+00 0.16693441E+04</pdfrwt>
<totfact> 0.57237717E-01</totfact>
</mgrwt>
</event>
<event>
 6    1  0.2072992E-005  0.4057188E+04  0.7818608E-02  0.7993108E-01
         -2   -1    0    0    0  501 -0.00000000000E+00  0.00000000000E+00  0.15701798006E+04  0.15701798006E+04  0.00000000000E+00 0.  1.
          2   -1    0    0  501    0  0.00000000000E+00 -0.00000000000E+00 -0.26208422230E+04  0.26208422230E+04  0.00000000000E+00 0. -1.
         23    2    1    2    0    0 -0.94951844711E+03  0.17579274582E+04 -0.88199482760E+03  0.21859427266E+04  0.92393174481E+02 0.  0.
         11    1    3    3    0    0 -0.19395905188E+03  0.43958816127E+03 -0.20134425533E+03  0.52095813122E+03  0.00000000000E+00 0. -1.
        -11    1    3    3    0    0 -0.75555939523E+03  0.13183392969E+04 -0.68065057227E+03  0.16649845954E+04  0.00000000000E+00 0.  1.
         22    1    1    2    0    0  0.94951844711E+03 -0.17579274582E+04 -0.16866759475E+03  0.20050792970E+04  0.00000000000E+00 0. -1.
<mgrwt>
<rscale>  0 0.40571880E+04</rscale>
<asrwt>0</asrwt>
<pdfrwt beam="1">  1        2 0.40320649E+00 0.40571880E+04</pdfrwt>
<pdfrwt beam="2">  1       -2 0.24156613E+00 0.40571880E+04</pdfrwt>
<totfact> 0.16827640E-01</totfact>
</mgrwt>
</event>
<event>
 6    1  0.1614874E-005  0.2159260E+04  0.7818608E-02  0.8535579E-01
          2   -1    0    0  501    0  0.00000000000E+00  0.00000000000E+00  0.31845155727E+04  0.31845155727E+04  0.00000000000E+00 0. -1.
         -2   -1    0    0    0  501 -0.00000000000E+00 -0.00000000000E+00 -0.36602141220E+03  0.36602141220E+03  0.00000000000E+00 0.  1.
         23    2    1    2    0    0  0.81564205810E+03  0.70272525394E+03  0.13351959199E+04  0.17177062726E+04  0.93123278078E+02 0.  0.
         11    1    3    3    0    0  0.20810137905E+03  0.12811344224E+03  0.29707130287E+03  0.38466946464E+03  0.00000000000E+00 0.  1.
        -11    1    3    3    0    0  0.60754067905E+03  0.57461181170E+03  0.10381246171E+04  0.13330368080E+04  0.00000000000E+00 0. -1.
         22    1    1    2    0    0 -0.81564205810E+03 -0.70272525394E+03  0.14832982406E+04  0.18328307123E+04  0.00000000000E+00 0.  1.
<mgrwt>
<rscale>  0 0.21592600E+04</rscale>
<asrwt>0</asrwt>
<pdfrwt beam="1">  1        2 0.48992545E+00 0.21592600E+04</pdfrwt>
<pdfrwt beam="2">  1       -2 0.56310989E-01 0.21592600E+04</pdfrwt>
<totfact> 0.36108289E+00</totfact>
</mgrwt>
</event>
<event>
 6    1  0.1614874E-005  0.2722198E+04  0.7818608E-02  0.8327838E-01
          1   -1    0    0  501    0  0.00000000000E+00  0.00000000000E+00  0.19172082976E+04  0.19172082976E+04  0.00000000000E+00 0. -1.
         -1   -1    0    0    0  501 -0.00000000000E+00 -0.00000000000E+00 -0.96629610235E+03  0.96629610235E+03  0.00000000000E+00 0.  1.
         23    2    1    2    0    0 -0.12759157051E+04 -0.46282585118E+03  0.39444629625E+03  0.14165950804E+04  0.94789695463E+02 0.  0.
         13    1    3    3    0    0 -0.62608435976E+03 -0.20024590050E+03  0.14919112928E+03  0.67404602161E+03  0.00000000000E+00 0.  1.
        -13    1    3    3    0    0 -0.64983134529E+03 -0.26257995068E+03  0.24525516697E+03  0.74254905882E+03  0.00000000000E+00 0. -1.
         22    1    1    2    0    0  0.12759157051E+04  0.46282585118E+03  0.55646589899E+03  0.14669093195E+04  0.00000000000E+00 0.  1.
<mgrwt>
<rscale>  0 0.27221983E+04</rscale>
<asrwt>0</asrwt>
<pdfrwt beam="1">  1        1 0.29495512E+00 0.27221983E+04</pdfrwt>
<pdfrwt beam="2">  1       -1 0.14866094E+00 0.27221983E+04</pdfrwt>
<totfact> 0.10564290E+00</totfact>
</mgrwt>
</event>
<event>
 6    1  0.1614874E-005  0.9780676E+03  0.7818608E-02  0.9332932E-01
          1   -1    0    0  501    0  0.00000000000E+00  0.00000000000E+00  0.31437135950E+03  0.31437135950E+03  0.00000000000E+00 0. -1.
         -1   -1    0    0    0  501 -0.00000000000E+00 -0.00000000000E+00 -0.76073736987E+03  0.76073736987E+03  0.00000000000E+00 0.  1.
         23    2    1    2    0    0 -0.42979746548E+03 -0.11281762725E+03 -0.12479746454E+02  0.45405239669E+03  0.92488683221E+02 0.  0.
         11    1    3    3    0    0 -0.30141244975E+03 -0.12177282932E+03 -0.45951512735E+01  0.32511413725E+03  0.00000000000E+00 0. -1.
        -11    1    3    3    0    0 -0.12838501572E+03  0.89552020719E+01 -0.78845951809E+01  0.12893825944E+03  0.00000000000E+00 0.  1.
         22    1    1    2    0    0  0.42979746548E+03  0.11281762725E+03 -0.43388626392E+03  0.62105633268E+03  0.00000000000E+00 0.  1.
<mgrwt>
<rscale>  0 0.97806757E+03</rscale>
<asrwt>0</asrwt>
<pdfrwt beam="1">  1        1 0.48364825E-01 0.97806757E+03</pdfrwt>
<pdfrwt beam="2">  1       -1 0.11703652E+00 0.97806757E+03</pdfrwt>
<totfact> 0.54494754E+01</totfact>
</mgrwt>
</event>
<event>
 6    1  0.1614874E-005  0.1262698E+04  0.7818608E-02  0.9059680E-01
         -2   -1    0    0    0  501 -0.00000000000E+00  0.00000000000E+00  0.19980940691E+04  0.19980940691E+04  0.00000000000E+00 0. -1.
          2   -1    0    0  501    0  0.00000000000E+00 -0.00000000000E+00 -0.19949099785E+03  0.19949099785E+03  0.00000000000E+00 0.  1.
         23    2    1    2    0    0 -0.49187258347E+03  0.27135205919E+03  0.13927271271E+04  0.15045440433E+04  0.91615223973E+02 0.  0.
         13    1    3    3    0    0 -0.28534342616E+03  0.20381901297E+03  0.90718427560E+03  0.97259774357E+03  0.00000000000E+00 0.  1.
        -13    1    3    3    0    0 -0.20652915731E+03  0.67533046221E+02  0.48554285154E+03  0.53194629977E+03  0.00000000000E+00 0. -1.
         22    1    1    2    0    0  0.49187258347E+03 -0.27135205919E+03  0.40587594408E+03  0.69304102359E+03  0.00000000000E+00 0.  1.
<mgrwt>
<rscale>  0 0.12626983E+04</rscale>
<asrwt>0</asrwt>
<pdfrwt beam="1">  1        2 0.30690924E-01 0.12626983E+04</pdfrwt>
<pdfrwt beam="2">  1       -2 0.30739907E+00 0.12626983E+04</pdfrwt>
<totfact> 0.49206603E+00</totfact>
</mgrwt>
</event>
<event>
 6    1  0.1614874E-005  0.2946650E+04  0.7818608E-02  0.8259131E-01
         -1   -1    0    0    0  501 -0.00000000000E+00  0.00000000000E+00  0.75537715239E+03  0.75537715239E+03  0.00000000000E+00 0.  1.
          1   -1    0    0  501    0  0.00000000000E+00 -0.00000000000E+00 -0.28736466841E+04  0.28736466841E+04  0.00000000000E+00 0. -1.
         23    2    1    2    0    0 -0.24131198515E+02 -0.98352012833E+03 -0.24084172866E+04  0.26033143858E+04  0.94222119060E+02 0.  0.
         13    1    3    3    0    0 -0.56634729138E+02 -0.71054071431E+03 -0.16962276916E+04  0.18399086882E+04  0.00000000000E+00 0. -1.
        -13    1    3    3    0    0  0.32503530622E+02 -0.27297941402E+03 -0.71218959494E+03  0.76340569760E+03  0.00000000000E+00 0.  1.
         22    1    1    2    0    0  0.24131198515E+02  0.98352012833E+03  0.29014775483E+03  0.10257094507E+04  0.00000000000E+00 0.  1.
<mgrwt>
<rscale>  0 0.29466503E+04</rscale>
<asrwt>0</asrwt>
<pdfrwt beam="1">  1        1 0.44209950E+00 0.29466503E+04</pdfrwt>
<pdfrwt beam="2">  1       -1 0.11621187E+00 0.29466503E+04</pdfrwt>
<totfact> 0.42204646E-01</totfact>
</mgrwt>
</event>
<event>
 6    1  0.1614874E-005  0.2660906E+04  0.7818608E-02  0.8347802E-01
         -2   -1    0    0    0  501 -0.00000000000E+00  0.00000000000E+00  0.14453484944E+04  0.14453484944E+04  0.00000000000E+00 0.  1.
          2   -1    0    0  501    0  0.00000000000E+00 -0.00000000000E+00 -0.12246910544E+04  0.12246910544E+04  0.00000000000E+00 0. -1.
         23    2    1    2    0    0  0.47538579453E+03 -0.37033567418E+03 -0.10780062415E+04  0.12383735532E+04  0.91276696947E+02 0.  0.
         11    1    3    3    0    0  0.10774738232E+03 -0.13369686541E+03 -0.32832231025E+03  0.37051300871E+03  0.00000000000E+00 0. -1.
        -11    1    3    3    0    0  0.36763841222E+03 -0.23663880878E+03 -0.74968393121E+03  0.86786054448E+03  0.00000000000E+00 0.  1.
         22    1    1    2    0    0 -0.47538579453E+03  0.37033567418E+03  0.12986636814E+04  0.14316659955E+04  0.00000000000E+00 0.  1.
<mgrwt>
<rscale>  0 0.26609061E+04</rscale>
<asrwt>0</asrwt>
<pdfrwt beam="1">  1        2 0.18841401E+00 0.26609061E+04</pdfrwt>
<pdfrwt beam="2">  1       -2 0.22236131E+00 0.26609061E+04</pdfrwt>
<totfact> 0.15387775E+00</totfact>
</mgrwt>
</event>
<event>
 6    1  0.1614874E-005  0.1398254E+04  0.7818608E-02  0.8955084E-01
          2   -1    0    0  501    0  0.00000000000E+00  0.00000000000E+00  0.47000634960E+04  0.47000634960E+04  0.00000000000E+00 0.  1.
         -2   -1    0    0    0  501 -0.00000000000E+00 -0.00000000000E+00 -0.10399397994E+03  0.10399397994E+03  0.00000000000E+00 0. -1.
         23    2    1    2    0    0  0.38583315223E+03  0.54306643230E+03  0.16165346525E+04  0.17509580058E+04  0.94240565572E+02 0.  0.
         13    1    3    3    0    0  0.14237539237E+03  0.12722214986E+03  0.46100520930E+03  0.49898099240E+03  0.00000000000E+00 0.  1.
        -13    1    3    3    0    0  0.24345775985E+03  0.41584428244E+03  0.11555294432E+04  0.12519770134E+04  0.00000000000E+00 0. -1.
         22    1    1    2    0    0 -0.38583315223E+03 -0.54306643230E+03  0.29795348635E+04  0.30530994701E+04  0.00000000000E+00 0.  1.
<mgrwt>
<rscale>  0 0.13982536E+04</rscale>
<asrwt>0</asrwt>
<pdfrwt beam="1">  1        2 0.72308653E+00 0.13982536E+04</pdfrwt>
<pdfrwt beam="2">  1       -2 0.15999077E-01 0.13982536E+04</pdfrwt>
<totfact> 0.24673198E+00</totfact>
</mgrwt>
</event>
<event>
 6    1  0.1614874E-005  0.1184540E+04  0.7818608E-02  0.9126498E-01
         -1   -1    0    0    0  501 -0.00000000000E+00  0.00000000000E+00  0.55214850815E+03  0.55214850815E+03  0.00000000000E+00 0.  1.
          1   -1    0    0  501    0  0.00000000000E+00 -0.00000000000E+00 -0.63530637711E+03  0.63530637711E+03  0.00000000000E+00 0. -1.
         23    2    1    2    0    0  0.50154882784E+03 -0.30786972395E+03 -0.61747151652E+02  0.59856320384E+03  0.90167647328E+02 0.  0.
         13    1    3    3    0    0  0.38214332139E+02 -0.32392633334E+02  0.18857539483E+02  0.53527793440E+02  0.00000000000E+00 0. -1.
        -13    1    3    3    0    0  0.46333449570E+03 -0.27547709062E+03 -0.80604691135E+02  0.54503541040E+03  0.00000000000E+00 0.  1.
         22    1    1    2    0    0 -0.50154882784E+03  0.30786972395E+03 -0.21410717308E+02  0.58889168142E+03  0.00000000000E+00 0. -1.
<mgrwt>
<rscale>  0 0.11845395E+04</rscale>
<asrwt>0</asrwt>
<pdfrwt beam="1">  1        1 0.97739443E-01 0.11845395E+04</pdfrwt>
<pdfrwt beam="2">  1       -1 0.84945924E-01 0.11845395E+04</pdfrwt>
<totfact> 0.42817691E+01</totfact>
</mgrwt>
</event>
<event>
 6    1  0.1614874E-005  0.3863890E+04  0.7818608E-02  0.8032581E-01
         -1   -1    0    0    0  501 -0.00000000000E+00  0.00000000000E+00  0.10887071772E+04  0.10887071772E+04  0.00000000000E+00 0.  1.
          1   -1    0    0  501    0  0.00000000000E+00 -0.00000000000E+00 -0.34282976106E+04  0.34282976106E+04  0.00000000000E+00 0. -1.
         23    2    1    2    0    0  0.60857424858E+03  0.11311918804E+04  0.51493587633E+03  0.13867846455E+04  0.89749706225E+02 0.  0.
         13    1    3    3    0    0  0.18389666753E+03  0.26409728807E+03  0.14208487954E+03  0.35178612094E+03  0.00000000000E+00 0. -1.
        -13    1    3    3    0    0  0.42467758106E+03  0.86709459237E+03  0.37285099679E+03  0.10349985245E+04  0.00000000000E+00 0.  1.
         22    1    1    2    0    0 -0.60857424858E+03 -0.11311918804E+04 -0.28545263098E+04  0.31302201423E+04  0.00000000000E+00 0. -1.
<mgrwt>
<rscale>  0 0.38638904E+04</rscale>
<asrwt>0</asrwt>
<pdfrwt beam="1">  1        1 0.52743040E+00 0.38638904E+04</pdfrwt>
<pdfrwt beam="2">  1       -1 0.16749341E+00 0.38638904E+04</pdfrwt>
<totfact> 0.57719922E-02</totfact>
</mgrwt>
</event>
<event>
 6    1  0.1897848E-005  0.4916076E+04  0.7818608E-02  0.7841585E-01
          1   -1    0    0  501    0  0.00000000000E+00  0.00000000000E+00  0.30626201999E+04  0.30626201999E+04  0.00000000000E+00 0. -1.
         -1   -1    0    0    0  501 -0.00000000000E+00 -0.00000000000E+00 -0.19728044145E+04  0.19728044145E+04  0.00000000000E+00 0.  1.
         23    2    1    2    0    0  0.21453434631E+04  0.68393365702E+03  0.15526115076E+04  0.27366328224E+04  0.91065301866E+02 0.  0.
         11    1    3    3    0    0  0.14818488587E+04  0.46619040737E+03  0.10199995396E+04  0.18583887097E+04  0.00000000000E+00 0.  1.
        -11    1    3    3    0    0  0.66349460449E+03  0.21774324965E+03  0.53261196808E+03  0.87824411270E+03  0.00000000000E+00 0. -1.
         22    1    1    2    0    0 -0.21453434631E+04 -0.68393365702E+03 -0.46279572220E+03  0.22987917919E+04  0.00000000000E+00 0.  1.
<mgrwt>
<rscale>  0 0.49160759E+04</rscale>
<asrwt>0</asrwt>
<pdfrwt beam="1">  1        1 0.47117234E+00 0.49160759E+04</pdfrwt>
<pdfrwt beam="2">  1       -1 0.30350837E+00 0.49160759E+04</pdfrwt>
<totfact> 0.12245623E-02</totfact>
</mgrwt>
</event>
<event>
 6    1  0.1936490E-005  0.2856863E+04  0.7818608E-02  0.8285829E-01
          1   -1    0    0  501    0  0.00000000000E+00  0.00000000000E+00  0.21239772388E+04  0.21239772388E+04  0.00000000000E+00 0. -1.
         -1   -1    0    0    0  501 -0.00000000000E+00 -0.00000000000E+00 -0.96065811768E+03  0.96065811768E+03  0.00000000000E+00 0.  1.
         23    2    1    2    0    0  0.13542849309E+04 -0.22938538531E+03  0.16311156220E+03  0.13854824823E+04  0.79063253549E+02 0.  0.
         11    1    3    3    0    0  0.54607289575E+03 -0.68471947400E+02  0.96219836269E+02  0.55869694106E+03  0.00000000000E+00 0.  1.
        -11    1    3    3    0    0  0.80821203510E+03 -0.16091343791E+03  0.66891725934E+02  0.82678554123E+03  0.00000000000E+00 0. -1.
         22    1    1    2    0    0 -0.13542849309E+04  0.22938538531E+03  0.10002075589E+04  0.16991528742E+04  0.00000000000E+00 0. -1.
<mgrwt>
<rscale>  0 0.28568626E+04</rscale>
<asrwt>0</asrwt>
<pdfrwt beam="1">  1        1 0.32676573E+00 0.28568626E+04</pdfrwt>
<pdfrwt beam="2">  1       -1 0.14779356E+00 0.28568626E+04</pdfrwt>
<totfact> 0.76769361E-01</totfact>
</mgrwt>
</event>
<event>
 6    1  0.1614874E-005  0.1077212E+04  0.7818608E-02  0.9227692E-01
          1   -1    0    0  501    0  0.00000000000E+00  0.00000000000E+00  0.51285244223E+03  0.51285244223E+03  0.00000000000E+00 0. -1.
         -1   -1    0    0    0  501 -0.00000000000E+00 -0.00000000000E+00 -0.56565237118E+03  0.56565237118E+03  0.00000000000E+00 0.  1.
         23    2    1    2    0    0 -0.45839014515E+03 -0.18382948587E+03 -0.23206427974E+03  0.55309971968E+03  0.90281033093E+02 0.  0.
         13    1    3    3    0    0 -0.21817414380E+03 -0.13520381789E+03 -0.12829647027E+03  0.28694949674E+03  0.00000000000E+00 0. -1.
        -13    1    3    3    0    0 -0.24021600135E+03 -0.48625667982E+02 -0.10376780947E+03  0.26615022294E+03  0.00000000000E+00 0.  1.
         22    1    1    2    0    0  0.45839014515E+03  0.18382948587E+03  0.17926435079E+03  0.52540509372E+03  0.00000000000E+00 0. -1.
<mgrwt>
<rscale>  0 0.10772116E+04</rscale>
<asrwt>0</asrwt>
<pdfrwt beam="1">  1        1 0.78900376E-01 0.10772116E+04</pdfrwt>
<pdfrwt beam="2">  1       -1 0.87023441E-01 0.10772116E+04</pdfrwt>
<totfact> 0.55572589E+01</totfact>
</mgrwt>
</event>
<event>
 6    1  0.1614874E-005  0.1225074E+04  0.7818608E-02  0.9091188E-01
          1   -1    0    0  501    0  0.00000000000E+00  0.00000000000E+00  0.32389053657E+03  0.32389053657E+03  0.00000000000E+00 0. -1.
         -1   -1    0    0    0  501 -0.00000000000E+00 -0.00000000000E+00 -0.11584204098E+04  0.11584204098E+04  0.00000000000E+00 0.  1.
         23    2    1    2    0    0 -0.59818443848E+03  0.74528978470E+00 -0.55951251479E+03  0.82393436317E+03  0.89377864772E+02 0.  0.
         11    1    3    3    0    0 -0.26046818779E+03 -0.32939801152E+02 -0.20447854987E+03  0.33277647860E+03  0.00000000000E+00 0.  1.
        -11    1    3    3    0    0 -0.33771625068E+03  0.33685090936E+02 -0.35503396493E+03  0.49115788457E+03  0.00000000000E+00 0. -1.
         22    1    1    2    0    0  0.59818443848E+03 -0.74528978470E+00 -0.27501735849E+03  0.65837658324E+03  0.00000000000E+00 0.  1.
<mgrwt>
<rscale>  0 0.12250737E+04</rscale>
<asrwt>0</asrwt>
<pdfrwt beam="1">  1        1 0.49829314E-01 0.12250737E+04</pdfrwt>
<pdfrwt beam="2">  1       -1 0.17821852E+00 0.12250737E+04</pdfrwt>
<totfact> 0.16794442E+01</totfact>
</mgrwt>
</event>
<event>
 6    1  0.1614874E-005  0.3560004E+04  0.7818608E-02  0.8099715E-01
          1   -1    0    0  501    0  0.00000000000E+00  0.00000000000E+00  0.18523342782E+04  0.18523342782E+04  0.00000000000E+00 0. -1.
         -1   -1    0    0    0  501 -0.00000000000E+00 -0.00000000000E+00 -0.17104938463E+04  0.17104938463E+04  0.00000000000E+00 0.  1.
         23    2    1    2    0    0 -0.64735299168E+03 -0.93125339908E+03 -0.13004889501E+04  0.17279949344E+04  0.91630751836E+02 0.  0.
         11    1    3    3    0    0 -0.18522136439E+03 -0.20541938085E+03 -0.34439713752E+03  0.44171649753E+03  0.00000000000E+00 0.  1.
        -11    1    3    3    0    0 -0.46213162729E+03 -0.72583401823E+03 -0.95609181261E+03  0.12862784369E+04  0.00000000000E+00 0. -1.
         22    1    1    2    0    0  0.64735299168E+03  0.93125339908E+03  0.14423293820E+04  0.18348331901E+04  0.00000000000E+00 0. -1.
<mgrwt>
<rscale>  0 0.35600036E+04</rscale>
<asrwt>0</asrwt>
<pdfrwt beam="1">  1        1 0.28497451E+00 0.35600036E+04</pdfrwt>
<pdfrwt beam="2">  1       -1 0.26315290E+00 0.35600036E+04</pdfrwt>
<totfact> 0.17441181E-01</totfact>
</mgrwt>
</event>
<event>
 6    1  0.1614874E-005  0.1669699E+04  0.7818608E-02  0.8778837E-01
          2   -1    0    0  501    0  0.00000000000E+00  0.00000000000E+00  0.22577495626E+04  0.22577495626E+04  0.00000000000E+00 0. -1.
         -2   -1    0    0    0  501 -0.00000000000E+00 -0.00000000000E+00 -0.30870282300E+03  0.30870282300E+03  0.00000000000E+00 0.  1.
         23    2    1    2    0    0  0.12953939732E+03 -0.20058089442E+03  0.22031330811E+04  0.22177791581E+04  0.87953795819E+02 0.  0.
         11    1    3    3    0    0  0.96025878599E+02 -0.18831064918E+03  0.16481723614E+04  0.16616720503E+04  0.00000000000E+00 0. -1.
        -11    1    3    3    0    0  0.33513518721E+02 -0.12270245246E+02  0.55496071971E+03  0.55610710774E+03  0.00000000000E+00 0.  1.
         22    1    1    2    0    0 -0.12953939732E+03  0.20058089442E+03 -0.25408634150E+03  0.34867322754E+03  0.00000000000E+00 0.  1.
<mgrwt>
<rscale>  0 0.16696990E+04</rscale>
<asrwt>0</asrwt>
<pdfrwt beam="1">  1        2 0.34734608E+00 0.16696990E+04</pdfrwt>
<pdfrwt beam="2">  1       -2 0.47492743E-01 0.16696990E+04</pdfrwt>
<totfact> 0.19212492E+01</totfact>
</mgrwt>
</event>
<event>
 6    1  0.1614874E-005  0.2792540E+04  0.7818608E-02  0.8305588E-01
         -2   -1    0    0    0  501 -0.00000000000E+00  0.00000000000E+00  0.18210903135E+04  0.18210903135E+04  0.00000000000E+00 0.  1.
          2   -1    0    0  501    0  0.00000000000E+00 -0.00000000000E+00 -0.10705506175E+04  0.10705506175E+04  0.00000000000E+00 0. -1.
         23    2    1    2    0    0  0.99325166839E+03 -0.29846977690E+03 -0.59010763791E+03  0.11966576395E+04  0.90163170912E+02 0.  0.
         13    1    3    3    0    0  0.40326429568E+03 -0.16395776880E+03 -0.22705972213E+03  0.49097898075E+03  0.00000000000E+00 0.  1.
        -13    1    3    3    0    0  0.58998737271E+03 -0.13451200810E+03 -0.36304791578E+03  0.70567865876E+03  0.00000000000E+00 0. -1.
         22    1    1    2    0    0 -0.99325166839E+03  0.29846977690E+03  0.13406473339E+04  0.16949832915E+04  0.00000000000E+00 0.  1.
<mgrwt>
<rscale>  0 0.27925396E+04</rscale>
<asrwt>0</asrwt>
<pdfrwt beam="1">  1        2 0.16470010E+00 0.27925396E+04</pdfrwt>
<pdfrwt beam="2">  1       -2 0.28016774E+00 0.27925396E+04</pdfrwt>
<totfact> 0.83122206E-01</totfact>
</mgrwt>
</event>
<event>
 6    1  0.1614874E-005  0.1169029E+04  0.7818608E-02  0.9140406E-01
          2   -1    0    0  501    0  0.00000000000E+00  0.00000000000E+00  0.10353178243E+04  0.10353178243E+04  0.00000000000E+00 0. -1.
         -2   -1    0    0    0  501 -0.00000000000E+00 -0.00000000000E+00 -0.33000237442E+03  0.33000237442E+03  0.00000000000E+00 0.  1.
         23    2    1    2    0    0 -0.47065515245E+02  0.52549217241E+03  0.63895987480E+03  0.83356814337E+03  0.90603212160E+02 0.  0.
         11    1    3    3    0    0 -0.46048166186E+02  0.10370454193E+03  0.13032945095E+03  0.17280286864E+03  0.00000000000E+00 0. -1.
        -11    1    3    3    0    0 -0.10173490585E+01  0.42178763048E+03  0.50863042385E+03  0.66076527473E+03  0.00000000000E+00 0.  1.
         22    1    1    2    0    0  0.47065515245E+02 -0.52549217241E+03  0.66355575055E+02  0.53175205531E+03  0.00000000000E+00 0.  1.
<mgrwt>
<rscale>  0 0.11690292E+04</rscale>
<asrwt>0</asrwt>
<pdfrwt beam="1">  1        2 0.15927966E+00 0.11690292E+04</pdfrwt>
<pdfrwt beam="2">  1       -2 0.50769596E-01 0.11690292E+04</pdfrwt>
<totfact> 0.86703728E+01</totfact>
</mgrwt>
</event>
<event>
 6    1  0.1614874E-005  0.2284161E+04  0.7818608E-02  0.8484192E-01
         -2   -1    0    0    0  501 -0.00000000000E+00  0.00000000000E+00  0.63237328422E+03  0.63237328422E+03  0.00000000000E+00 0.  1.
          2   -1    0    0  501    0  0.00000000000E+00 -0.00000000000E+00 -0.20626240065E+04  0.20626240065E+04  0.00000000000E+00 0. -1.
         23    2    1    2    0    0 -0.10887239109E+04  0.26123239221E+03 -0.97058811144E+03  0.14846866559E+04  0.93225893895E+02 0.  0.
         11    1    3    3    0    0 -0.32103731725E+03  0.34464799578E+02 -0.28961703055E+03  0.43374048216E+03  0.00000000000E+00 0. -1.
        -11    1    3    3    0    0 -0.76768659365E+03  0.22676759264E+03 -0.68097108089E+03  0.10509461738E+04  0.00000000000E+00 0.  1.
         22    1    1    2    0    0  0.10887239109E+04 -0.26123239221E+03 -0.45966261085E+03  0.12103106348E+04  0.00000000000E+00 0.  1.
<mgrwt>
<rscale>  0 0.22841614E+04</rscale>
<asrwt>0</asrwt>
<pdfrwt beam="1">  1        2 0.31732677E+00 0.22841614E+04</pdfrwt>
<pdfrwt beam="2">  1       -2 0.97288197E-01 0.22841614E+04</pdfrwt>
<totfact> 0.49325006E+00</totfact>
</mgrwt>
</event>
<event>
 6    1  0.1614874E-005  0.3427283E+04  0.7818608E-02  0.8131243E-01
         -1   -1    0    0    0  501 -0.00000000000E+00  0.00000000000E+00  0.19843125437E+04  0.19843125437E+04  0.00000000000E+00 0.  1.
          1   -1    0    0  501    0  0.00000000000E+00 -0.00000000000E+00 -0.14798910937E+04  0.14798910937E+04  0.00000000000E+00 0. -1.
         23    2    1    2    0    0  0.25566786112E+03  0.16684715296E+04  0.54437402474E+03  0.17757844037E+04  0.88903709282E+02 0.  0.
         11    1    3    3    0    0  0.58938519620E+02  0.20315716916E+03  0.79108136858E+02  0.22584216124E+03  0.00000000000E+00 0.  1.
        -11    1    3    3    0    0  0.19672934150E+03  0.14653143604E+04  0.46526588788E+03  0.15499422425E+04  0.00000000000E+00 0. -1.
         22    1    1    2    0    0 -0.25566786112E+03 -0.16684715296E+04 -0.39952574783E+02  0.16884192336E+04  0.00000000000E+00 0. -1.
<mgrwt>
<rscale>  0 0.34272826E+04</rscale>
<asrwt>0</asrwt>
<pdfrwt beam="1">  1        1 0.22767555E+00 0.34272826E+04</pdfrwt>
<pdfrwt beam="2">  1       -1 0.30527885E+00 0.34272826E+04</pdfrwt>
<totfact> 0.16920347E-01</totfact>
</mgrwt>
</event>
<event>
 6    1  0.1614874E-005  0.2349715E+04  0.7818608E-02  0.8458573E-01
          2   -1    0    0  501    0  0.00000000000E+00  0.00000000000E+00  0.13695568809E+04  0.13695568809E+04  0.00000000000E+00 0. -1.
         -2   -1    0    0    0  501 -0.00000000000E+00 -0.00000000000E+00 -0.10078367276E+04  0.10078367276E+04  0.00000000000E+00 0.  1.
         23    2    1    2    0    0  0.15714902197E+03  0.78301430629E+03 -0.68830110937E+03  0.10581696430E+04  0.90318088867E+02 0.  0.
         13    1    3    3    0    0  0.32998547422E+02  0.34656271845E+03 -0.33432955271E+03  0.48267056236E+03  0.00000000000E+00 0. -1.
        -13    1    3    3    0    0  0.12415047455E+03  0.43645158784E+03 -0.35397155666E+03  0.57549908061E+03  0.00000000000E+00 0.  1.
         22    1    1    2    0    0 -0.15714902197E+03 -0.78301430629E+03  0.10500212627E+04  0.13192239654E+04  0.00000000000E+00 0. -1.
<mgrwt>
<rscale>  0 0.23497146E+04</rscale>
<asrwt>0</asrwt>
<pdfrwt beam="1">  1        2 0.21070106E+00 0.23497146E+04</pdfrwt>
<pdfrwt beam="2">  1       -2 0.15505180E+00 0.23497146E+04</pdfrwt>
<totfact> 0.37315577E+00</totfact>
</mgrwt>
</event>
<event>
 6    1  0.1614874E-005  0.4365648E+04  0.7818608E-02  0.7934590E-01
         -2   -1    0    0    0  501 -0.00000000000E+00  0.00000000000E+00  0.17453931666E+04  0.17453931666E+04  0.00000000000E+00 0.  1.
          2   -1    0    0  501    0  0.00000000000E+00 -0.00000000000E+00 -0.27298832669E+04  0.27298832669E+04  0.00000000000E+00 0. -1.
         23    2    1    2    0    0  0.63221148979E+03 -0.19956720024E+04  0.13790876675E+03  0.20999496505E+04  0.91496433971E+02 0.  0.
         11    1    3    3    0    0  0.25795854470E+03 -0.85755197002E+03  0.15570809418E+02  0.89564526582E+03  0.00000000000E+00 0. -1.
        -11    1    3    3    0    0  0.37425294509E+03 -0.11381200324E+04  0.12233795734E+03  0.12043043847E+04  0.00000000000E+00 0.  1.
         22    1    1    2    0    0 -0.63221148979E+03  0.19956720024E+04 -0.11223988671E+04  0.23753267830E+04  0.00000000000E+00 0. -1.
<mgrwt>
<rscale>  0 0.43656475E+04</rscale>
<asrwt>0</asrwt>
<pdfrwt beam="1">  1        2 0.41998204E+00 0.43656475E+04</pdfrwt>
<pdfrwt beam="2">  1       -2 0.26852203E+00 0.43656475E+04</pdfrwt>
<totfact> 0.96585317E-02</totfact>
</mgrwt>
</event>
<event>
 6    1  0.1614874E-005  0.2385318E+04  0.7818608E-02  0.8445021E-01
          2   -1    0    0  501    0  0.00000000000E+00  0.00000000000E+00  0.12253272482E+04  0.12253272482E+04  0.00000000000E+00 0. -1.
         -2   -1    0    0    0  501 -0.00000000000E+00 -0.00000000000E+00 -0.11608620048E+04  0.11608620048E+04  0.00000000000E+00 0.  1.
         23    2    1    2    0    0  0.92468087310E+02  0.71644589522E+03  0.97937107751E+03  0.12204715541E+04  0.92401510064E+02 0.  0.
         11    1    3    3    0    0  0.33174259319E+02  0.40171905032E+03  0.47461636057E+03  0.62268725424E+03  0.00000000000E+00 0. -1.
        -11    1    3    3    0    0  0.59293827992E+02  0.31472684490E+03  0.50475471694E+03  0.59778429991E+03  0.00000000000E+00 0.  1.
         22    1    1    2    0    0 -0.92468087310E+02 -0.71644589522E+03 -0.91490583419E+03  0.11657176988E+04  0.00000000000E+00 0.  1.
<mgrwt>
<rscale>  0 0.23853183E+04</rscale>
<asrwt>0</asrwt>
<pdfrwt beam="1">  1        2 0.18851189E+00 0.23853183E+04</pdfrwt>
<pdfrwt beam="2">  1       -2 0.17859415E+00 0.23853183E+04</pdfrwt>
<totfact> 0.30542365E+00</totfact>
</mgrwt>
</event>
<event>
 6    1  0.1864299E-005  0.3918914E+04  0.7818608E-02  0.8021107E-01
          3   -1    0    0  501    0  0.00000000000E+00  0.00000000000E+00  0.26153501686E+04  0.26153501686E+04  0.00000000000E+00 0. -1.
         -3   -1    0    0    0  501 -0.00000000000E+00 -0.00000000000E+00 -0.14680527202E+04  0.14680527202E+04  0.00000000000E+00 0.  1.
         23    2    1    2    0    0 -0.19092807384E+04 -0.43453798496E+03  0.59674656374E+03  0.20493717988E+04  0.98194246235E+02 0.  0.
         11    1    3    3    0    0 -0.88105519356E+03 -0.15088169734E+03  0.27940030660E+03  0.93652980306E+03  0.00000000000E+00 0. -1.
        -11    1    3    3    0    0 -0.10282255449E+04 -0.28365628762E+03  0.31734625715E+03  0.11128419958E+04  0.00000000000E+00 0.  1.
         22    1    1    2    0    0  0.19092807384E+04  0.43453798496E+03  0.55055088466E+03  0.20340310900E+04  0.00000000000E+00 0.  1.
<mgrwt>
<rscale>  0 0.39189141E+04</rscale>
<asrwt>0</asrwt>
<pdfrwt beam="1">  1        3 0.40236156E+00 0.39189141E+04</pdfrwt>
<pdfrwt beam="2">  1       -3 0.22585427E+00 0.39189141E+04</pdfrwt>
<totfact> 0.22459069E-03</totfact>
</mgrwt>
</event>
<event>
 6    1  0.1614874E-005  0.1270105E+04  0.7818608E-02  0.9053614E-01
          2   -1    0    0  501    0  0.00000000000E+00  0.00000000000E+00  0.24192819337E+04  0.24192819337E+04  0.00000000000E+00 0.  1.
         -2   -1    0    0    0  501 -0.00000000000E+00 -0.00000000000E+00 -0.16669896398E+03  0.16669896398E+03  0.00000000000E+00 0. -1.
         23    2    1    2    0    0 -0.36193929277E+03 -0.42903957276E+03  0.17225973457E+04  0.18139965920E+04  0.90371530423E+02 0.  0.
         11    1    3    3    0    0 -0.17325803672E+03 -0.22011361117E+03  0.10001602506E+04  0.10386476188E+04  0.00000000000E+00 0.  1.
        -11    1    3    3    0    0 -0.18868125604E+03 -0.20892596159E+03  0.72243709516E+03  0.77534897322E+03  0.00000000000E+00 0. -1.
         22    1    1    2    0    0  0.36193929277E+03  0.42903957276E+03  0.52998562401E+03  0.77198430573E+03  0.00000000000E+00 0. -1.
<mgrwt>
<rscale>  0 0.12701052E+04</rscale>
<asrwt>0</asrwt>
<pdfrwt beam="1">  1        2 0.37219720E+00 0.12701052E+04</pdfrwt>
<pdfrwt beam="2">  1       -2 0.25645996E-01 0.12701052E+04</pdfrwt>
<totfact> 0.52354930E+01</totfact>
</mgrwt>
</event>
<event>
 6    1  0.1614874E-005  0.1118895E+04  0.7818608E-02  0.9186969E-01
          2   -1    0    0  501    0  0.00000000000E+00  0.00000000000E+00  0.14775846953E+04  0.14775846953E+04  0.00000000000E+00 0. -1.
         -2   -1    0    0    0  501 -0.00000000000E+00 -0.00000000000E+00 -0.21181968151E+03  0.21181968151E+03  0.00000000000E+00 0.  1.
         23    2    1    2    0    0 -0.75929591267E+02 -0.31774017416E+03 -0.40832896295E+02  0.34258507945E+03  0.94726396189E+02 0.  0.
         11    1    3    3    0    0 -0.79351993443E+02 -0.24061001265E+03 -0.65223254488E+02  0.26161802303E+03  0.00000000000E+00 0.  1.
        -11    1    3    3    0    0  0.34224021755E+01 -0.77130161514E+02  0.24390358194E+02  0.80967056416E+02  0.00000000000E+00 0. -1.
         22    1    1    2    0    0  0.75929591267E+02  0.31774017416E+03  0.13065979100E+04  0.13468192973E+04  0.00000000000E+00 0. -1.
<mgrwt>
<rscale>  0 0.11188950E+04</rscale>
<asrwt>0</asrwt>
<pdfrwt beam="1">  1        2 0.22732072E+00 0.11188950E+04</pdfrwt>
<pdfrwt beam="2">  1       -2 0.32587644E-01 0.11188950E+04</pdfrwt>
<totfact> 0.11368055E+02</totfact>
</mgrwt>
</event>
<event>
 6    1  0.1614874E-005  0.3169138E+04  0.7818608E-02  0.8197016E-01
          2   -1    0    0  501    0  0.00000000000E+00  0.00000000000E+00  0.13573106041E+04  0.13573106041E+04  0.00000000000E+00 0. -1.
         -2   -1    0    0    0  501 -0.00000000000E+00 -0.00000000000E+00 -0.18498783862E+04  0.18498783862E+04  0.00000000000E+00 0.  1.
         23    2    1    2    0    0 -0.30866334975E+03  0.15585712569E+03  0.13170455576E+04  0.13648358899E+04  0.92755044990E+02 0.  0.
         11    1    3    3    0    0 -0.13264117455E+03  0.29608922651E+02  0.62826137588E+03  0.64279291059E+03  0.00000000000E+00 0. -1.
        -11    1    3    3    0    0 -0.17602217521E+03  0.12624820304E+03  0.68878418177E+03  0.72204297932E+03  0.00000000000E+00 0.  1.
         22    1    1    2    0    0  0.30866334975E+03 -0.15585712569E+03 -0.18096133397E+04  0.18423531004E+04  0.00000000000E+00 0.  1.
<mgrwt>
<rscale>  0 0.31691384E+04</rscale>
<asrwt>0</asrwt>
<pdfrwt beam="1">  1        2 0.20881702E+00 0.31691384E+04</pdfrwt>
<pdfrwt beam="2">  1       -2 0.28459667E+00 0.31691384E+04</pdfrwt>
<totfact> 0.51030215E-01</totfact>
</mgrwt>
</event>
<event>
 6    1  0.1614874E-005  0.1397390E+04  0.7818608E-02  0.8955710E-01
          1   -1    0    0  501    0  0.00000000000E+00  0.00000000000E+00  0.28516296192E+04  0.28516296192E+04  0.00000000000E+00 0. -1.
         -1   -1    0    0    0  501 -0.00000000000E+00 -0.00000000000E+00 -0.17119156599E+03  0.17119156599E+03  0.00000000000E+00 0.  1.
         23    2    1    2    0    0 -0.26118904109E+03  0.45955669560E+03  0.36651414911E+03  0.64928881642E+03  0.88494485549E+02 0.  0.
         11    1    3    3    0    0 -0.14754036870E+03  0.30148865657E+03  0.18573941086E+03  0.38361790780E+03  0.00000000000E+00 0.  1.
        -11    1    3    3    0    0 -0.11364867238E+03  0.15806803904E+03  0.18077473825E+03  0.26567090863E+03  0.00000000000E+00 0. -1.
         22    1    1    2    0    0  0.26118904109E+03 -0.45955669560E+03  0.23139239041E+04  0.23735323687E+04  0.00000000000E+00 0. -1.
<mgrwt>
<rscale>  0 0.13973903E+04</rscale>
<asrwt>0</asrwt>
<pdfrwt beam="1">  1        1 0.43871221E+00 0.13973903E+04</pdfrwt>
<pdfrwt beam="2">  1       -1 0.26337166E-01 0.13973903E+04</pdfrwt>
<totfact> 0.96202115E+00</totfact>
</mgrwt>
</event>
<event>
 6    1  0.1614874E-005  0.1477217E+04  0.7818608E-02  0.8899747E-01
         -2   -1    0    0    0  501 -0.00000000000E+00  0.00000000000E+00  0.18053089516E+03  0.18053089516E+03  0.00000000000E+00 0.  1.
          2   -1    0    0  501    0  0.00000000000E+00 -0.00000000000E+00 -0.30218775847E+04  0.30218775847E+04  0.00000000000E+00 0. -1.
         23    2    1    2    0    0 -0.13939651926E+03  0.62288729366E+03 -0.63306783789E+03  0.90373158720E+03  0.92390065115E+02 0.  0.
         11    1    3    3    0    0 -0.19686991921E+02  0.15055544982E+03 -0.10156375602E+03  0.18267380123E+03  0.00000000000E+00 0. -1.
        -11    1    3    3    0    0 -0.11970952734E+03  0.47233184385E+03 -0.53150408188E+03  0.72105778596E+03  0.00000000000E+00 0.  1.
         22    1    1    2    0    0  0.13939651926E+03 -0.62288729366E+03 -0.22082788516E+04  0.22986768926E+04  0.00000000000E+00 0.  1.
<mgrwt>
<rscale>  0 0.14772167E+04</rscale>
<asrwt>0</asrwt>
<pdfrwt beam="1">  1        2 0.46490419E+00 0.14772167E+04</pdfrwt>
<pdfrwt beam="2">  1       -2 0.27773987E-01 0.14772167E+04</pdfrwt>
<totfact> 0.19473398E+01</totfact>
</mgrwt>
</event>
<event>
 6    1  0.1614874E-005  0.2291471E+04  0.7818608E-02  0.8481291E-01
          2   -1    0    0  501    0  0.00000000000E+00  0.00000000000E+00  0.22149924317E+04  0.22149924317E+04  0.00000000000E+00 0.  1.
         -2   -1    0    0    0  501 -0.00000000000E+00 -0.00000000000E+00 -0.59264775845E+03  0.59264775845E+03  0.00000000000E+00 0. -1.
         23    2    1    2    0    0 -0.18141172155E+03  0.87867674369E+03 -0.57070970461E+02  0.90358663603E+03  0.90712074816E+02 0.  0.
         13    1    3    3    0    0 -0.82503336531E+02  0.58036065124E+03 -0.13992683233E+02  0.58636258512E+03  0.00000000000E+00 0.  1.
        -13    1    3    3    0    0 -0.98908385018E+02  0.29831609245E+03 -0.43078287228E+02  0.31722405091E+03  0.00000000000E+00 0. -1.
         22    1    1    2    0    0  0.18141172155E+03 -0.87867674369E+03  0.16794156437E+04  0.19040535541E+04  0.00000000000E+00 0.  1.
<mgrwt>
<rscale>  0 0.22914714E+04</rscale>
<asrwt>0</asrwt>
<pdfrwt beam="1">  1        2 0.34076806E+00 0.22914714E+04</pdfrwt>
<pdfrwt beam="2">  1       -2 0.91176579E-01 0.22914714E+04</pdfrwt>
<totfact> 0.47113120E+00</totfact>
</mgrwt>
</event>
<event>
 6    1  0.1614874E-005  0.1100190E+04  0.7818608E-02  0.9205006E-01
          2   -1    0    0  501    0  0.00000000000E+00  0.00000000000E+00  0.43724501093E+04  0.43724501093E+04  0.00000000000E+00 0. -1.
         -2   -1    0    0    0  501 -0.00000000000E+00 -0.00000000000E+00 -0.69207122748E+02  0.69207122748E+02  0.00000000000E+00 0.  1.
         23    2    1    2    0    0  0.48620094512E+03 -0.94917486877E+02  0.30962032707E+04  0.31369175784E+04  0.91523283061E+02 0.  0.
         13    1    3    3    0    0  0.64563968812E+01 -0.16375421321E+02  0.10213138429E+03  0.10363715135E+03  0.00000000000E+00 0.  1.
        -13    1    3    3    0    0  0.47974454824E+03 -0.78542065556E+02  0.29940718865E+04  0.30332804270E+04  0.00000000000E+00 0. -1.
         22    1    1    2    0    0 -0.48620094512E+03  0.94917486877E+02  0.12070397158E+04  0.13047396537E+04  0.00000000000E+00 0. -1.
<mgrwt>
<rscale>  0 0.11001903E+04</rscale>
<asrwt>0</asrwt>
<pdfrwt beam="1">  1        2 0.67268441E+00 0.11001903E+04</pdfrwt>
<pdfrwt beam="2">  1       -2 0.10647253E-01 0.11001903E+04</pdfrwt>
<totfact> 0.10684973E+01</totfact>
</mgrwt>
</event>
<event>
 6    1  0.1614874E-005  0.1016205E+04  0.7818608E-02  0.9290947E-01
         -2   -1    0    0    0  501 -0.00000000000E+00  0.00000000000E+00  0.46970627578E+03  0.46970627578E+03  0.00000000000E+00 0.  1.
          2   -1    0    0  501    0  0.00000000000E+00 -0.00000000000E+00 -0.54963793806E+03  0.54963793806E+03  0.00000000000E+00 0. -1.
         23    2    1    2    0    0 -0.55562294607E+02 -0.18038232214E+03  0.42864060852E+03  0.47687697487E+03  0.89743674777E+02 0.  0.
         13    1    3    3    0    0 -0.56248783677E+01 -0.11840048034E+03  0.32672512063E+03  0.34756239361E+03  0.00000000000E+00 0.  1.
        -13    1    3    3    0    0 -0.49937416240E+02 -0.61981841802E+02  0.10191548789E+03  0.12931458126E+03  0.00000000000E+00 0. -1.
         22    1    1    2    0    0  0.55562294607E+02  0.18038232214E+03 -0.50857227081E+03  0.54246723897E+03  0.00000000000E+00 0. -1.
<mgrwt>
<rscale>  0 0.10162055E+04</rscale>
<asrwt>0</asrwt>
<pdfrwt beam="1">  1        2 0.84559683E-01 0.10162055E+04</pdfrwt>
<pdfrwt beam="2">  1       -2 0.72262504E-01 0.10162055E+04</pdfrwt>
<totfact> 0.95350425E+01</totfact>
</mgrwt>
</event>
<event>
 6    1  0.1614874E-005  0.2418312E+04  0.7818608E-02  0.8432679E-01
         -2   -1    0    0    0  501 -0.00000000000E+00  0.00000000000E+00  0.12629530755E+04  0.12629530755E+04  0.00000000000E+00 0. -1.
          2   -1    0    0  501    0  0.00000000000E+00 -0.00000000000E+00 -0.11576509339E+04  0.11576509339E+04  0.00000000000E+00 0.  1.
         23    2    1    2    0    0  0.33653297623E+03  0.91231662691E+03 -0.66364183006E+03  0.11809061012E+04  0.92426562839E+02 0.  0.
         11    1    3    3    0    0  0.25171464812E+03  0.61463903696E+03 -0.49557329021E+03  0.82869433195E+03  0.00000000000E+00 0. -1.
        -11    1    3    3    0    0  0.84818328110E+02  0.29767758994E+03 -0.16806853985E+03  0.35221176929E+03  0.00000000000E+00 0.  1.
         22    1    1    2    0    0 -0.33653297623E+03 -0.91231662691E+03  0.76894397174E+03  0.12396979082E+04  0.00000000000E+00 0. -1.
<mgrwt>
<rscale>  0 0.24183125E+04</rscale>
<asrwt>0</asrwt>
<pdfrwt beam="1">  1        2 0.17810014E+00 0.24183125E+04</pdfrwt>
<pdfrwt beam="2">  1       -2 0.19430047E+00 0.24183125E+04</pdfrwt>
<totfact> 0.26161432E+00</totfact>
</mgrwt>
</event>
<event>
 6    1  0.1614874E-005  0.3082133E+04  0.7818608E-02  0.8220659E-01
          2   -1    0    0  501    0  0.00000000000E+00  0.00000000000E+00  0.10756244777E+04  0.10756244777E+04  0.00000000000E+00 0.  1.
         -2   -1    0    0    0  501 -0.00000000000E+00 -0.00000000000E+00 -0.22079130670E+04  0.22079130670E+04  0.00000000000E+00 0. -1.
         23    2    1    2    0    0 -0.28597485372E+03 -0.67449396927E+03  0.87612074548E+03  0.11456807236E+04  0.90956188120E+02 0.  0.
         11    1    3    3    0    0 -0.16886006004E+03 -0.43114369120E+03  0.61691149986E+03  0.77134843035E+03  0.00000000000E+00 0. -1.
        -11    1    3    3    0    0 -0.11711479368E+03 -0.24335027807E+03  0.25920924563E+03  0.37433229323E+03  0.00000000000E+00 0.  1.
         22    1    1    2    0    0  0.28597485372E+03  0.67449396927E+03 -0.20084093348E+04  0.21378568211E+04  0.00000000000E+00 0. -1.
<mgrwt>
<rscale>  0 0.30821326E+04</rscale>
<asrwt>0</asrwt>
<pdfrwt beam="1">  1        2 0.16548069E+00 0.30821326E+04</pdfrwt>
<pdfrwt beam="2">  1       -2 0.33967893E+00 0.30821326E+04</pdfrwt>
<totfact> 0.34639728E-01</totfact>
</mgrwt>
</event>
<event>
 6    1  0.1614874E-005  0.2898130E+04  0.7818608E-02  0.8273434E-01
         -2   -1    0    0    0  501 -0.00000000000E+00  0.00000000000E+00  0.80063672454E+03  0.80063672454E+03  0.00000000000E+00 0.  1.
          2   -1    0    0  501    0  0.00000000000E+00 -0.00000000000E+00 -0.26226498664E+04  0.26226498664E+04  0.00000000000E+00 0. -1.
         23    2    1    2    0    0  0.10541738651E+03  0.94232254378E+03  0.38023838560E+03  0.10255801051E+04  0.90270262412E+02 0.  0.
         13    1    3    3    0    0  0.41519351255E+02  0.61437280472E+03  0.28233495366E+03  0.67741481071E+03  0.00000000000E+00 0.  1.
        -13    1    3    3    0    0  0.63898035260E+02  0.32794973906E+03  0.97903431935E+02  0.34816529443E+03  0.00000000000E+00 0. -1.
         22    1    1    2    0    0 -0.10541738651E+03 -0.94232254378E+03 -0.22022515275E+04  0.23977064858E+04  0.00000000000E+00 0. -1.
<mgrwt>
<rscale>  0 0.28981303E+04</rscale>
<asrwt>0</asrwt>
<pdfrwt beam="1">  1        2 0.40348460E+00 0.28981303E+04</pdfrwt>
<pdfrwt beam="2">  1       -2 0.12317488E+00 0.28981303E+04</pdfrwt>
<totfact> 0.12669851E+00</totfact>
</mgrwt>
</event>
<event>
 6    1  0.1614874E-005  0.1695344E+04  0.7818608E-02  0.8764024E-01
          2   -1    0    0  501    0  0.00000000000E+00  0.00000000000E+00  0.19763635912E+04  0.19763635912E+04  0.00000000000E+00 0. -1.
         -2   -1    0    0    0  501 -0.00000000000E+00 -0.00000000000E+00 -0.36357068041E+03  0.36357068041E+03  0.00000000000E+00 0.  1.
         23    2    1    2    0    0  0.46868310116E+02  0.79659558175E+03  0.11936074474E+04  0.14385588714E+04  0.89396469162E+02 0.  0.
         11    1    3    3    0    0  0.73222793504E+02  0.55323731587E+03  0.81806964493E+03  0.99028836665E+03  0.00000000000E+00 0. -1.
        -11    1    3    3    0    0 -0.26354483388E+02  0.24335826588E+03  0.37553780247E+03  0.44827050478E+03  0.00000000000E+00 0.  1.
         22    1    1    2    0    0 -0.46868310116E+02 -0.79659558175E+03  0.41918546340E+03  0.90137540020E+03  0.00000000000E+00 0.  1.
<mgrwt>
<rscale>  0 0.16953440E+04</rscale>
<asrwt>0</asrwt>
<pdfrwt beam="1">  1        2 0.30405593E+00 0.16953440E+04</pdfrwt>
<pdfrwt beam="2">  1       -2 0.55933952E-01 0.16953440E+04</pdfrwt>
<totfact> 0.19678782E+01</totfact>
</mgrwt>
</event>
<event>
 6    1  0.1614874E-005  0.4070977E+04  0.7818608E-02  0.7990379E-01
          1   -1    0    0  501    0  0.00000000000E+00  0.00000000000E+00  0.40552932146E+04  0.40552932146E+04  0.00000000000E+00 0. -1.
         -1   -1    0    0    0  501 -0.00000000000E+00 -0.00000000000E+00 -0.10216804238E+04  0.10216804238E+04  0.00000000000E+00 0.  1.
         23    2    1    2    0    0  0.13067925888E+04  0.12421511016E+04  0.34161189768E+03  0.18369867500E+04  0.84707742747E+02 0.  0.
         13    1    3    3    0    0  0.12012606458E+04  0.11076956082E+04  0.30893226423E+03  0.16629659778E+04  0.00000000000E+00 0. -1.
        -13    1    3    3    0    0  0.10553194296E+03  0.13445549338E+03  0.32679633444E+02  0.17402077211E+03  0.00000000000E+00 0.  1.
         22    1    1    2    0    0 -0.13067925888E+04 -0.12421511016E+04  0.26920008931E+04  0.32399868885E+04  0.00000000000E+00 0. -1.
<mgrwt>
<rscale>  0 0.40709771E+04</rscale>
<asrwt>0</asrwt>
<pdfrwt beam="1">  1        1 0.62389125E+00 0.40709771E+04</pdfrwt>
<pdfrwt beam="2">  1       -1 0.15718161E+00 0.40709771E+04</pdfrwt>
<totfact> 0.20403313E-02</totfact>
</mgrwt>
</event>
<event>
 6    1  0.1614874E-005  0.2678256E+04  0.7818608E-02  0.8342095E-01
          2   -1    0    0  501    0  0.00000000000E+00  0.00000000000E+00  0.27071897309E+04  0.27071897309E+04  0.00000000000E+00 0. -1.
         -2   -1    0    0    0  501 -0.00000000000E+00 -0.00000000000E+00 -0.66240796614E+03  0.66240796614E+03  0.00000000000E+00 0.  1.
         23    2    1    2    0    0 -0.33360907237E+03  0.82384895310E+03 -0.23413835193E+03  0.92347852394E+03  0.89273207918E+02 0.  0.
         11    1    3    3    0    0 -0.30435485221E+03  0.75743520662E+03 -0.18859311447E+03  0.83779909950E+03  0.00000000000E+00 0. -1.
        -11    1    3    3    0    0 -0.29254220154E+02  0.66413746482E+02 -0.45545237459E+02  0.85679424448E+02  0.00000000000E+00 0.  1.
         22    1    1    2    0    0  0.33360907237E+03 -0.82384895310E+03  0.22789201167E+04  0.24461191731E+04  0.00000000000E+00 0. -1.
<mgrwt>
<rscale>  0 0.26782562E+04</rscale>
<asrwt>0</asrwt>
<pdfrwt beam="1">  1        2 0.41649072E+00 0.26782562E+04</pdfrwt>
<pdfrwt beam="2">  1       -2 0.10190892E+00 0.26782562E+04</pdfrwt>
<totfact> 0.18242030E+00</totfact>
</mgrwt>
</event>
<event>
 6    1  0.2296906E-005  0.1640616E+04  0.7818608E-02  0.8795977E-01
          1   -1    0    0  501    0  0.00000000000E+00  0.00000000000E+00  0.14686780354E+04  0.14686780354E+04  0.00000000000E+00 0. -1.
         -1   -1    0    0    0  501 -0.00000000000E+00 -0.00000000000E+00 -0.45817089727E+03  0.45817089727E+03  0.00000000000E+00 0.  1.
         23    2    1    2    0    0 -0.42233599057E+03  0.31849490495E+03 -0.22601048452E+03  0.58193907527E+03  0.88122952760E+02 0.  0.
         13    1    3    3    0    0 -0.17207521299E+03  0.18359988281E+03 -0.96025429671E+02  0.26933191241E+03  0.00000000000E+00 0. -1.
        -13    1    3    3    0    0 -0.25026077758E+03  0.13489502213E+03 -0.12998505484E+03  0.31260716286E+03  0.00000000000E+00 0.  1.
         22    1    1    2    0    0  0.42233599057E+03 -0.31849490495E+03  0.12365176227E+04  0.13449098574E+04  0.00000000000E+00 0. -1.
<mgrwt>
<rscale>  0 0.16406164E+04</rscale>
<asrwt>0</asrwt>
<pdfrwt beam="1">  1        1 0.22595046E+00 0.16406164E+04</pdfrwt>
<pdfrwt beam="2">  1       -1 0.70487831E-01 0.16406164E+04</pdfrwt>
<totfact> 0.13378024E+01</totfact>
</mgrwt>
</event>
<event>
 6    1  0.1614874E-005  0.4618997E+04  0.7818608E-02  0.7890129E-01
         -2   -1    0    0    0  501 -0.00000000000E+00  0.00000000000E+00  0.23874947756E+04  0.23874947756E+04  0.00000000000E+00 0.  1.
          2   -1    0    0  501    0  0.00000000000E+00 -0.00000000000E+00 -0.22340505070E+04  0.22340505070E+04  0.00000000000E+00 0. -1.
         23    2    1    2    0    0  0.18495075684E+04  0.12835012908E+04  0.58914770356E+03  0.23285360606E+04  0.83254787202E+02 0.  0.
         11    1    3    3    0    0  0.12194126435E+04  0.80227018966E+03  0.39893606371E+03  0.15131935221E+04  0.00000000000E+00 0. -1.
        -11    1    3    3    0    0  0.63009492493E+03  0.48123110118E+03  0.19021163985E+03  0.81534253851E+03  0.00000000000E+00 0.  1.
         22    1    1    2    0    0 -0.18495075684E+04 -0.12835012908E+04 -0.43570343496E+03  0.22930092221E+04  0.00000000000E+00 0.  1.
<mgrwt>
<rscale>  0 0.46189973E+04</rscale>
<asrwt>0</asrwt>
<pdfrwt beam="1">  1        2 0.34370008E+00 0.46189973E+04</pdfrwt>
<pdfrwt beam="2">  1       -2 0.36730689E+00 0.46189973E+04</pdfrwt>
<totfact> 0.44790980E-02</totfact>
</mgrwt>
</event>
<event>
 6    1  0.1614874E-005  0.2790785E+04  0.7818608E-02  0.8306135E-01
          2   -1    0    0  501    0  0.00000000000E+00  0.00000000000E+00  0.10386184956E+04  0.10386184956E+04  0.00000000000E+00 0. -1.
         -2   -1    0    0    0  501 -0.00000000000E+00 -0.00000000000E+00 -0.18747219523E+04  0.18747219523E+04  0.00000000000E+00 0.  1.
         23    2    1    2    0    0  0.11197386972E+03 -0.98631993648E+03 -0.14397289847E+04  0.17515620943E+04  0.98919444580E+02 0.  0.
         11    1    3    3    0    0  0.10756351353E+03 -0.62934212621E+03 -0.97702217173E+03  0.11671391285E+04  0.00000000000E+00 0.  1.
        -11    1    3    3    0    0  0.44103561914E+01 -0.35697781027E+03 -0.46270681292E+03  0.58442296582E+03  0.00000000000E+00 0. -1.
         22    1    1    2    0    0 -0.11197386972E+03  0.98631993648E+03  0.60362552795E+03  0.11617783535E+04  0.00000000000E+00 0. -1.
<mgrwt>
<rscale>  0 0.27907855E+04</rscale>
<asrwt>0</asrwt>
<pdfrwt beam="1">  1        2 0.15978746E+00 0.27907855E+04</pdfrwt>
<pdfrwt beam="2">  1       -2 0.28841876E+00 0.27907855E+04</pdfrwt>
<totfact> 0.77534216E-01</totfact>
</mgrwt>
</event>
<event>
 6    1  0.1614874E-005  0.2825371E+04  0.7818608E-02  0.8295435E-01
          1   -1    0    0  501    0  0.00000000000E+00  0.00000000000E+00  0.12912491153E+04  0.12912491153E+04  0.00000000000E+00 0. -1.
         -1   -1    0    0    0  501 -0.00000000000E+00 -0.00000000000E+00 -0.15455427564E+04  0.15455427564E+04  0.00000000000E+00 0.  1.
         23    2    1    2    0    0  0.32932106313E+03 -0.13456983934E+04 -0.39689426316E+03  0.14440638056E+04  0.91862342935E+02 0.  0.
         13    1    3    3    0    0  0.57792146849E+02 -0.41299013433E+03 -0.11690742972E+03  0.43309136497E+03  0.00000000000E+00 0.  1.
        -13    1    3    3    0    0  0.27152891628E+03 -0.93270825906E+03 -0.27998683344E+03  0.10109724407E+04  0.00000000000E+00 0. -1.
         22    1    1    2    0    0 -0.32932106313E+03  0.13456983934E+04  0.14260062199E+03  0.13927280661E+04  0.00000000000E+00 0. -1.
<mgrwt>
<rscale>  0 0.28253713E+04</rscale>
<asrwt>0</asrwt>
<pdfrwt beam="1">  1        1 0.19865371E+00 0.28253713E+04</pdfrwt>
<pdfrwt beam="2">  1       -1 0.23777581E+00 0.28253713E+04</pdfrwt>
<totfact> 0.66475592E-01</totfact>
</mgrwt>
</event>
<event>
 6    1  0.1614874E-005  0.4680410E+04  0.7818608E-02  0.7879792E-01
         -2   -1    0    0    0  501 -0.00000000000E+00  0.00000000000E+00  0.28149390934E+04  0.28149390934E+04  0.00000000000E+00 0. -1.
          2   -1    0    0  501    0  0.00000000000E+00 -0.00000000000E+00 -0.19455340635E+04  0.19455340635E+04  0.00000000000E+00 0.  1.
         23    2    1    2    0    0 -0.42181022196E+03 -0.24705181036E+03 -0.18919449293E+04  0.19561885677E+04  0.90882544112E+02 0.  0.
         13    1    3    3    0    0 -0.19222702463E+03 -0.16321881698E+03 -0.91165688217E+03  0.94589105188E+03  0.00000000000E+00 0.  1.
        -13    1    3    3    0    0 -0.22958319733E+03 -0.83832993381E+02 -0.98028804710E+03  0.10102975159E+04  0.00000000000E+00 0. -1.
         22    1    1    2    0    0  0.42181022196E+03  0.24705181036E+03  0.27613499592E+04  0.28042845892E+04  0.00000000000E+00 0. -1.
<mgrwt>
<rscale>  0 0.46804102E+04</rscale>
<asrwt>0</asrwt>
<pdfrwt beam="1">  1        2 0.29931293E+00 0.46804102E+04</pdfrwt>
<pdfrwt beam="2">  1       -2 0.43306755E+00 0.46804102E+04</pdfrwt>
<totfact> 0.24064979E-02</totfact>
</mgrwt>
</event>
<event>
 6    1  0.1614874E-005  0.2841056E+04  0.7818608E-02  0.8290634E-01
         -2   -1    0    0    0  501 -0.00000000000E+00  0.00000000000E+00  0.22180362094E+04  0.22180362094E+04  0.00000000000E+00 0.  1.
          2   -1    0    0  501    0  0.00000000000E+00 -0.00000000000E+00 -0.90976840404E+03  0.90976840404E+03  0.00000000000E+00 0. -1.
         23    2    1    2    0    0 -0.14508521510E+03  0.60797974759E+02  0.22074263247E+04  0.22149891030E+04  0.93271828610E+02 0.  0.
         13    1    3    3    0    0 -0.76167027406E+02  0.11528255840E+02  0.15789997104E+04  0.15808777316E+04  0.00000000000E+00 0. -1.
        -13    1    3    3    0    0 -0.68918187698E+02  0.49269718919E+02  0.62842661429E+03  0.63411137140E+03  0.00000000000E+00 0.  1.
         22    1    1    2    0    0  0.14508521510E+03 -0.60797974759E+02 -0.89915851929E+03  0.91281551049E+03  0.00000000000E+00 0. -1.
<mgrwt>
<rscale>  0 0.28410556E+04</rscale>
<asrwt>0</asrwt>
<pdfrwt beam="1">  1        2 0.13996437E+00 0.28410556E+04</pdfrwt>
<pdfrwt beam="2">  1       -2 0.34123634E+00 0.28410556E+04</pdfrwt>
<totfact> 0.44234234E-01</totfact>
</mgrwt>
</event>
<event>
 6    1  0.1614874E-005  0.4271413E+04  0.7818608E-02  0.7951925E-01
          2   -1    0    0  501    0  0.00000000000E+00  0.00000000000E+00  0.32685370192E+04  0.32685370192E+04  0.00000000000E+00 0. -1.
         -2   -1    0    0    0  501 -0.00000000000E+00 -0.00000000000E+00 -0.13954993284E+04  0.13954993284E+04  0.00000000000E+00 0.  1.
         23    2    1    2    0    0 -0.19014344331E+04 -0.94494400392E+03  0.69998396926E+03  0.22382525347E+04  0.10688675294E+03 0.  0.
         11    1    3    3    0    0 -0.91779747961E+03 -0.39735583781E+03  0.32002787098E+03  0.10500770037E+04  0.00000000000E+00 0.  1.
        -11    1    3    3    0    0 -0.98363695345E+03 -0.54758816611E+03  0.37995609828E+03  0.11881755310E+04  0.00000000000E+00 0. -1.
         22    1    1    2    0    0  0.19014344331E+04  0.94494400392E+03  0.11730537215E+04  0.24257838130E+04  0.00000000000E+00 0.  1.
<mgrwt>
<rscale>  0 0.42714125E+04</rscale>
<asrwt>0</asrwt>
<pdfrwt beam="1">  1        2 0.50285185E+00 0.42714125E+04</pdfrwt>
<pdfrwt beam="2">  1       -2 0.21469220E+00 0.42714125E+04</pdfrwt>
<totfact> 0.96266407E-02</totfact>
</mgrwt>
</event>
<event>
 6    1  0.1614874E-005  0.2886709E+04  0.7818608E-02  0.8276843E-01
          2   -1    0    0  501    0  0.00000000000E+00  0.00000000000E+00  0.20620161836E+04  0.20620161836E+04  0.00000000000E+00 0. -1.
         -2   -1    0    0    0  501 -0.00000000000E+00 -0.00000000000E+00 -0.10103080763E+04  0.10103080763E+04  0.00000000000E+00 0.  1.
         23    2    1    2    0    0 -0.21961045199E+03  0.26953210302E+03  0.20157208197E+04  0.20475331520E+04  0.91571177925E+02 0.  0.
         11    1    3    3    0    0 -0.16692426879E+03  0.19319594510E+03  0.12203802958E+04  0.12468024908E+04  0.00000000000E+00 0.  1.
        -11    1    3    3    0    0 -0.52686183206E+02  0.76336157915E+02  0.79534052388E+03  0.80073066123E+03  0.00000000000E+00 0. -1.
         22    1    1    2    0    0  0.21961045199E+03 -0.26953210302E+03 -0.96401271240E+03  0.10247911079E+04  0.00000000000E+00 0.  1.
<mgrwt>
<rscale>  0 0.28867086E+04</rscale>
<asrwt>0</asrwt>
<pdfrwt beam="1">  1        2 0.31723326E+00 0.28867086E+04</pdfrwt>
<pdfrwt beam="2">  1       -2 0.15543201E+00 0.28867086E+04</pdfrwt>
<totfact> 0.14526280E+00</totfact>
</mgrwt>
</event>
<event>
 6    1  0.1614874E-005  0.2874681E+04  0.7818608E-02  0.8280451E-01
          2   -1    0    0  501    0  0.00000000000E+00  0.00000000000E+00  0.87831698156E+03  0.87831698156E+03  0.00000000000E+00 0.  1.
         -2   -1    0    0    0  501 -0.00000000000E+00 -0.00000000000E+00 -0.23521660789E+04  0.23521660789E+04  0.00000000000E+00 0. -1.
         23    2    1    2    0    0  0.64014282595E+03 -0.84066174210E+03  0.35493521769E+03  0.11183876381E+04  0.91197028652E+02 0.  0.
         13    1    3    3    0    0  0.17420554332E+03 -0.17621032360E+03  0.60269772860E+02  0.25500998998E+03  0.00000000000E+00 0. -1.
        -13    1    3    3    0    0  0.46593728263E+03 -0.66445141850E+03  0.29466544483E+03  0.86337764811E+03  0.00000000000E+00 0.  1.
         22    1    1    2    0    0 -0.64014282595E+03  0.84066174210E+03 -0.18287843150E+04  0.21120954224E+04  0.00000000000E+00 0. -1.
<mgrwt>
<rscale>  0 0.28746808E+04</rscale>
<asrwt>0</asrwt>
<pdfrwt beam="1">  1        2 0.13512569E+00 0.28746808E+04</pdfrwt>
<pdfrwt beam="2">  1       -2 0.36187170E+00 0.28746808E+04</pdfrwt>
<totfact> 0.34321765E-01</totfact>
</mgrwt>
</event>
<event>
 6    1  0.1614874E-005  0.1310382E+04  0.7818608E-02  0.9021372E-01
         -2   -1    0    0    0  501 -0.00000000000E+00  0.00000000000E+00  0.68935191948E+03  0.68935191948E+03  0.00000000000E+00 0.  1.
          2   -1    0    0  501    0  0.00000000000E+00 -0.00000000000E+00 -0.62272289417E+03  0.62272289417E+03  0.00000000000E+00 0. -1.
         23    2    1    2    0    0 -0.45254990937E+03  0.36250874630E+03 -0.26552899815E+03  0.64383611067E+03  0.88347478333E+02 0.  0.
         13    1    3    3    0    0 -0.38302054220E+03  0.31651364207E+03 -0.25870600220E+03  0.56019141098E+03  0.00000000000E+00 0. -1.
        -13    1    3    3    0    0 -0.69529367166E+02  0.45995104232E+02 -0.68229959521E+01  0.83644699686E+02  0.00000000000E+00 0.  1.
         22    1    1    2    0    0  0.45254990937E+03 -0.36250874630E+03  0.33215802346E+03  0.66823870298E+03  0.00000000000E+00 0.  1.
<mgrwt>
<rscale>  0 0.13103820E+04</rscale>
<asrwt>0</asrwt>
<pdfrwt beam="1">  1        2 0.95803522E-01 0.13103820E+04</pdfrwt>
<pdfrwt beam="2">  1       -2 0.10605414E+00 0.13103820E+04</pdfrwt>
<totfact> 0.33322184E+01</totfact>
</mgrwt>
</event>
<event>
 6    1  0.1614874E-005  0.1916865E+04  0.7818608E-02  0.8646507E-01
          2   -1    0    0  501    0  0.00000000000E+00  0.00000000000E+00  0.69531163659E+03  0.69531163659E+03  0.00000000000E+00 0. -1.
         -2   -1    0    0    0  501 -0.00000000000E+00 -0.00000000000E+00 -0.13211240747E+04  0.13211240747E+04  0.00000000000E+00 0.  1.
         23    2    1    2    0    0  0.72192497752E+03  0.57899980760E+03 -0.59775625312E+02  0.93162507166E+03  0.89082537005E+02 0.  0.
         11    1    3    3    0    0  0.34362386022E+03  0.26459178930E+03  0.15682694505E+02  0.43397248667E+03  0.00000000000E+00 0. -1.
        -11    1    3    3    0    0  0.37830111729E+03  0.31440801830E+03 -0.75458319817E+02  0.49765258499E+03  0.00000000000E+00 0.  1.
         22    1    1    2    0    0 -0.72192497752E+03 -0.57899980760E+03 -0.56603681277E+03  0.10848106396E+04  0.00000000000E+00 0.  1.
<mgrwt>
<rscale>  0 0.19168651E+04</rscale>
<asrwt>0</asrwt>
<pdfrwt beam="1">  1        2 0.10697102E+00 0.19168651E+04</pdfrwt>
<pdfrwt beam="2">  1       -2 0.20324986E+00 0.19168651E+04</pdfrwt>
<totfact> 0.48913334E+00</totfact>
</mgrwt>
</event>
<event>
 6    1  0.1614874E-005  0.1307722E+04  0.7818608E-02  0.9023464E-01
          1   -1    0    0  501    0  0.00000000000E+00  0.00000000000E+00  0.20018041471E+04  0.20018041471E+04  0.00000000000E+00 0. -1.
         -1   -1    0    0    0  501 -0.00000000000E+00 -0.00000000000E+00 -0.21357450560E+03  0.21357450560E+03  0.00000000000E+00 0.  1.
         23    2    1    2    0    0 -0.29764733804E+03  0.90025637724E+02  0.18667315627E+04  0.18946589856E+04  0.91364057906E+02 0.  0.
         13    1    3    3    0    0 -0.13996051023E+03 -0.48461363727E+01  0.82088989261E+03  0.83275004968E+03  0.00000000000E+00 0. -1.
        -13    1    3    3    0    0 -0.15768682781E+03  0.94871774097E+02  0.10458416701E+04  0.10619089359E+04  0.00000000000E+00 0.  1.
         22    1    1    2    0    0  0.29764733804E+03 -0.90025637724E+02 -0.78501921162E+02  0.32071966718E+03  0.00000000000E+00 0.  1.
<mgrwt>
<rscale>  0 0.13077222E+04</rscale>
<asrwt>0</asrwt>
<pdfrwt beam="1">  1        1 0.30796986E+00 0.13077222E+04</pdfrwt>
<pdfrwt beam="2">  1       -1 0.32857618E-01 0.13077222E+04</pdfrwt>
<totfact> 0.25381324E+01</totfact>
</mgrwt>
</event>
<event>
 6    1  0.1614874E-005  0.1672821E+04  0.7818608E-02  0.8777019E-01
         -2   -1    0    0    0  501 -0.00000000000E+00  0.00000000000E+00  0.21672434069E+03  0.21672434069E+03  0.00000000000E+00 0.  1.
          2   -1    0    0  501    0  0.00000000000E+00 -0.00000000000E+00 -0.32279838662E+04  0.32279838662E+04  0.00000000000E+00 0. -1.
         23    2    1    2    0    0  0.73731980168E+03  0.19295289769E+03 -0.81336966380E+03  0.11184255167E+04  0.91837441501E+02 0.  0.
         13    1    3    3    0    0  0.42682908889E+03  0.15164418611E+03 -0.44657461486E+03  0.63608797893E+03  0.00000000000E+00 0. -1.
        -13    1    3    3    0    0  0.31049071279E+03  0.41308711587E+02 -0.36679504894E+03  0.48233753773E+03  0.00000000000E+00 0.  1.
         22    1    1    2    0    0 -0.73731980168E+03 -0.19295289769E+03 -0.21978898617E+04  0.23262826902E+04  0.00000000000E+00 0. -1.
<mgrwt>
<rscale>  0 0.16728212E+04</rscale>
<asrwt>0</asrwt>
<pdfrwt beam="1">  1        2 0.49661288E+00 0.16728212E+04</pdfrwt>
<pdfrwt beam="2">  1       -2 0.33342207E-01 0.16728212E+04</pdfrwt>
<totfact> 0.10035420E+01</totfact>
</mgrwt>
</event>
<event>
 6    1  0.1614874E-005  0.2310908E+04  0.7818608E-02  0.8473633E-01
          1   -1    0    0  501    0  0.00000000000E+00  0.00000000000E+00  0.13171498452E+04  0.13171498452E+04  0.00000000000E+00 0. -1.
         -1   -1    0    0    0  501 -0.00000000000E+00 -0.00000000000E+00 -0.10136084928E+04  0.10136084928E+04  0.00000000000E+00 0.  1.
         23    2    1    2    0    0  0.64324302282E+03 -0.17306620426E+03  0.11019948983E+04  0.12909306780E+04  0.91628391219E+02 0.  0.
         11    1    3    3    0    0  0.23653047148E+03 -0.35845341575E+02  0.32942453937E+03  0.40712661371E+03  0.00000000000E+00 0. -1.
        -11    1    3    3    0    0  0.40671255135E+03 -0.13722086269E+03  0.77257035893E+03  0.88380406430E+03  0.00000000000E+00 0.  1.
         22    1    1    2    0    0 -0.64324302282E+03  0.17306620426E+03 -0.79845354593E+03  0.10398276600E+04  0.00000000000E+00 0.  1.
<mgrwt>
<rscale>  0 0.23109083E+04</rscale>
<asrwt>0</asrwt>
<pdfrwt beam="1">  1        1 0.20263844E+00 0.23109083E+04</pdfrwt>
<pdfrwt beam="2">  1       -1 0.15593977E+00 0.23109083E+04</pdfrwt>
<totfact> 0.24926161E+00</totfact>
</mgrwt>
</event>
<event>
 6    1  0.1614874E-005  0.2895678E+04  0.7818608E-02  0.8274165E-01
         -2   -1    0    0    0  501 -0.00000000000E+00  0.00000000000E+00  0.61385609513E+03  0.61385609513E+03  0.00000000000E+00 0.  1.
          2   -1    0    0  501    0  0.00000000000E+00 -0.00000000000E+00 -0.34148676753E+04  0.34148676753E+04  0.00000000000E+00 0. -1.
         23    2    1    2    0    0 -0.35865781916E+03  0.12072676537E+04 -0.23914360191E+04  0.27043813830E+04  0.92638071284E+02 0.  0.
         11    1    3    3    0    0 -0.21197391034E+03  0.77782749875E+03 -0.16154409765E+04  0.18054357106E+04  0.00000000000E+00 0. -1.
        -11    1    3    3    0    0 -0.14668390882E+03  0.42944015498E+03 -0.77599504261E+03  0.89894567243E+03  0.00000000000E+00 0.  1.
         22    1    1    2    0    0  0.35865781916E+03 -0.12072676537E+04 -0.40957556110E+03  0.13243423875E+04  0.00000000000E+00 0.  1.
<mgrwt>
<rscale>  0 0.28956777E+04</rscale>
<asrwt>0</asrwt>
<pdfrwt beam="1">  1        2 0.52536426E+00 0.28956777E+04</pdfrwt>
<pdfrwt beam="2">  1       -2 0.94439399E-01 0.28956777E+04</pdfrwt>
<totfact> 0.75943768E-01</totfact>
</mgrwt>
</event>
<event>
 6    1  0.1614874E-005  0.1201816E+04  0.7818608E-02  0.9111269E-01
         -2   -1    0    0    0  501 -0.00000000000E+00  0.00000000000E+00  0.19751826057E+03  0.19751826057E+03  0.00000000000E+00 0.  1.
          2   -1    0    0  501    0  0.00000000000E+00 -0.00000000000E+00 -0.18281356772E+04  0.18281356772E+04  0.00000000000E+00 0. -1.
         23    2    1    2    0    0  0.51721988764E+03 -0.28167822418E+03 -0.98940273171E+03  0.11550131931E+04  0.90987232627E+02 0.  0.
         11    1    3    3    0    0  0.14299125052E+03 -0.11264226388E+03 -0.36177254723E+03  0.40498660875E+03  0.00000000000E+00 0. -1.
        -11    1    3    3    0    0  0.37422863713E+03 -0.16903596030E+03 -0.62763018449E+03  0.75002658433E+03  0.00000000000E+00 0.  1.
         22    1    1    2    0    0 -0.51721988764E+03  0.28167822418E+03 -0.64121468487E+03  0.87064074465E+03  0.00000000000E+00 0. -1.
<mgrwt>
<rscale>  0 0.12018156E+04</rscale>
<asrwt>0</asrwt>
<pdfrwt beam="1">  1        2 0.28125163E+00 0.12018156E+04</pdfrwt>
<pdfrwt beam="2">  1       -2 0.30387426E-01 0.12018156E+04</pdfrwt>
<totfact> 0.82248935E+01</totfact>
</mgrwt>
</event>
<event>
 6    1  0.1614874E-005  0.8186504E+03  0.7818608E-02  0.9533407E-01
         -1   -1    0    0    0  501 -0.00000000000E+00  0.00000000000E+00  0.76119689625E+02  0.76119689625E+02  0.00000000000E+00 0.  1.
          1   -1    0    0  501    0  0.00000000000E+00 -0.00000000000E+00 -0.22011007166E+04  0.22011007166E+04  0.00000000000E+00 0. -1.
         23    2    1    2    0    0  0.43812841944E+02  0.37296108950E+03 -0.14908890525E+04  0.15402725306E+04  0.93111556828E+02 0.  0.
         13    1    3    3    0    0  0.20303375429E+02  0.13510187378E+02 -0.60670358622E+02  0.65388413592E+02  0.00000000000E+00 0. -1.
        -13    1    3    3    0    0  0.23509466515E+02  0.35945090212E+03 -0.14302186939E+04  0.14748841170E+04  0.00000000000E+00 0.  1.
         22    1    1    2    0    0 -0.43812841944E+02 -0.37296108950E+03 -0.63409197443E+03  0.73694787566E+03  0.00000000000E+00 0.  1.
<mgrwt>
<rscale>  0 0.81865036E+03</rscale>
<asrwt>0</asrwt>
<pdfrwt beam="1">  1        1 0.33863089E+00 0.81865036E+03</pdfrwt>
<pdfrwt beam="2">  1       -1 0.11710721E-01 0.81865036E+03</pdfrwt>
<totfact> 0.10968118E+02</totfact>
</mgrwt>
</event>
<event>
 6    1  0.1614874E-005  0.2172800E+04  0.7818608E-02  0.8529835E-01
          2   -1    0    0  501    0  0.00000000000E+00  0.00000000000E+00  0.87067201812E+03  0.87067201812E+03  0.00000000000E+00 0. -1.
         -2   -1    0    0    0  501 -0.00000000000E+00 -0.00000000000E+00 -0.13555795721E+04  0.13555795721E+04  0.00000000000E+00 0.  1.
         23    2    1    2    0    0  0.96668709669E+03 -0.49163817841E+03 -0.23829861185E+03  0.11140429714E+04  0.90074815611E+02 0.  0.
         13    1    3    3    0    0  0.67475388587E+03 -0.35326144990E+03 -0.12583351186E+03  0.77195889217E+03  0.00000000000E+00 0. -1.
        -13    1    3    3    0    0  0.29193321082E+03 -0.13837672851E+03 -0.11246509999E+03  0.34208407926E+03  0.00000000000E+00 0.  1.
         22    1    1    2    0    0 -0.96668709669E+03  0.49163817841E+03 -0.24660894215E+03  0.11122086188E+04  0.00000000000E+00 0. -1.
<mgrwt>
<rscale>  0 0.21728002E+04</rscale>
<asrwt>0</asrwt>
<pdfrwt beam="1">  1        2 0.13394954E+00 0.21728002E+04</pdfrwt>
<pdfrwt beam="2">  1       -2 0.20855070E+00 0.21728002E+04</pdfrwt>
<totfact> 0.32899416E+00</totfact>
</mgrwt>
</event>
<event>
 6    1  0.1614874E-005  0.2039769E+04  0.7818608E-02  0.8588250E-01
         -1   -1    0    0    0  501 -0.00000000000E+00  0.00000000000E+00  0.71994363629E+03  0.71994363629E+03  0.00000000000E+00 0.  1.
          1   -1    0    0  501    0  0.00000000000E+00 -0.00000000000E+00 -0.14447863880E+04  0.14447863880E+04  0.00000000000E+00 0. -1.
         23    2    1    2    0    0 -0.30963886909E+03  0.84908501334E+03 -0.86009049652E+03  0.12508845551E+04  0.90193784354E+02 0.  0.
         13    1    3    3    0    0 -0.13185399364E+03  0.49220055395E+03 -0.48293794225E+03  0.70205122108E+03  0.00000000000E+00 0.  1.
        -13    1    3    3    0    0 -0.17778487545E+03  0.35688445939E+03 -0.37715255427E+03  0.54883333398E+03  0.00000000000E+00 0. -1.
         22    1    1    2    0    0  0.30963886909E+03 -0.84908501334E+03  0.13524774483E+03  0.91384546922E+03  0.00000000000E+00 0.  1.
<mgrwt>
<rscale>  0 0.20397694E+04</rscale>
<asrwt>0</asrwt>
<pdfrwt beam="1">  1        1 0.22227483E+00 0.20397694E+04</pdfrwt>
<pdfrwt beam="2">  1       -1 0.11076056E+00 0.20397694E+04</pdfrwt>
<totfact> 0.49608993E+00</totfact>
</mgrwt>
</event>
<event>
 6    1  0.1614874E-005  0.1070413E+04  0.7818608E-02  0.9234519E-01
         -1   -1    0    0    0  501 -0.00000000000E+00  0.00000000000E+00  0.10469520086E+03  0.10469520086E+03  0.00000000000E+00 0. -1.
          1   -1    0    0  501    0  0.00000000000E+00 -0.00000000000E+00 -0.27360018154E+04  0.27360018154E+04  0.00000000000E+00 0.  1.
         23    2    1    2    0    0 -0.25027842431E+03  0.15305253284E+03 -0.25006592662E+04  0.25195535948E+04  0.93750649897E+02 0.  0.
         11    1    3    3    0    0 -0.17371821809E+03  0.63845086045E+02 -0.17477554052E+04  0.17575275733E+04  0.00000000000E+00 0. -1.
        -11    1    3    3    0    0 -0.76560206221E+02  0.89207446796E+02 -0.75290386093E+03  0.76202602157E+03  0.00000000000E+00 0.  1.
         22    1    1    2    0    0  0.25027842431E+03 -0.15305253284E+03 -0.13064734840E+03  0.32114342143E+03  0.00000000000E+00 0. -1.
<mgrwt>
<rscale>  0 0.10704135E+04</rscale>
<asrwt>0</asrwt>
<pdfrwt beam="1">  1        1 0.42092330E+00 0.10704135E+04</pdfrwt>
<pdfrwt beam="2">  1       -1 0.16106956E-01 0.10704135E+04</pdfrwt>
<totfact> 0.27435074E+01</totfact>
</mgrwt>
</event>
<event>
 6    1  0.1614874E-005  0.2824679E+04  0.7818608E-02  0.8295647E-01
         -1   -1    0    0    0  501 -0.00000000000E+00  0.00000000000E+00  0.15039213957E+04  0.15039213957E+04  0.00000000000E+00 0.  1.
          1   -1    0    0  501    0  0.00000000000E+00 -0.00000000000E+00 -0.13263349693E+04  0.13263349693E+04  0.00000000000E+00 0. -1.
         23    2    1    2    0    0  0.81120679103E+03 -0.18534867664E+03 -0.10527087752E+04  0.13449830322E+04  0.91504108019E+02 0.  0.
         11    1    3    3    0    0  0.47077512182E+03 -0.13081936648E+03 -0.67897653147E+03  0.83651183629E+03  0.00000000000E+00 0.  1.
        -11    1    3    3    0    0  0.34043166921E+03 -0.54529310155E+02 -0.37373224377E+03  0.50847119594E+03  0.00000000000E+00 0. -1.
         22    1    1    2    0    0 -0.81120679103E+03  0.18534867664E+03  0.12302952016E+04  0.14852733327E+04  0.00000000000E+00 0.  1.
<mgrwt>
<rscale>  0 0.28246795E+04</rscale>
<asrwt>0</asrwt>
<pdfrwt beam="1">  1        1 0.20405153E+00 0.28246795E+04</pdfrwt>
<pdfrwt beam="2">  1       -1 0.23137252E+00 0.28246795E+04</pdfrwt>
<totfact> 0.69173196E-01</totfact>
</mgrwt>
</event>
<event>
 6    1  0.1614874E-005  0.1306199E+04  0.7818608E-02  0.9024664E-01
          2   -1    0    0  501    0  0.00000000000E+00  0.00000000000E+00  0.70408234928E+03  0.70408234928E+03  0.00000000000E+00 0. -1.
         -2   -1    0    0    0  501 -0.00000000000E+00 -0.00000000000E+00 -0.60580820001E+03  0.60580820001E+03  0.00000000000E+00 0.  1.
         23    2    1    2    0    0 -0.24668411500E+03  0.27963304924E+03 -0.48442080746E+03  0.61809498164E+03  0.91269889974E+02 0.  0.
         11    1    3    3    0    0 -0.92143776369E+02  0.13857024480E+03 -0.15244652842E+03  0.22568148417E+03  0.00000000000E+00 0.  1.
        -11    1    3    3    0    0 -0.15454033863E+03  0.14106280443E+03 -0.33197427904E+03  0.39241349748E+03  0.00000000000E+00 0. -1.
         22    1    1    2    0    0  0.24668411500E+03 -0.27963304924E+03  0.58269495673E+03  0.69179556765E+03  0.00000000000E+00 0. -1.
<mgrwt>
<rscale>  0 0.13061989E+04</rscale>
<asrwt>0</asrwt>
<pdfrwt beam="1">  1        2 0.10832036E+00 0.13061989E+04</pdfrwt>
<pdfrwt beam="2">  1       -2 0.93201262E-01 0.13061989E+04</pdfrwt>
<totfact> 0.38846771E+01</totfact>
</mgrwt>
</event>
<event>
 6    1  0.1614874E-005  0.2342605E+04  0.7818608E-02  0.8461309E-01
          2   -1    0    0  501    0  0.00000000000E+00  0.00000000000E+00  0.18307878759E+04  0.18307878759E+04  0.00000000000E+00 0. -1.
         -2   -1    0    0    0  501 -0.00000000000E+00 -0.00000000000E+00 -0.74937671114E+03  0.74937671114E+03  0.00000000000E+00 0.  1.
         23    2    1    2    0    0 -0.41841073719E+03 -0.87743572659E+03  0.12579038735E+04  0.15921814518E+04  0.88083036845E+02 0.  0.
         11    1    3    3    0    0 -0.78465772152E+02 -0.96915533965E+02  0.16550697228E+03  0.20722465103E+03  0.00000000000E+00 0. -1.
        -11    1    3    3    0    0 -0.33994496504E+03 -0.78052019262E+03  0.10923969012E+04  0.13849568008E+04  0.00000000000E+00 0.  1.
         22    1    1    2    0    0  0.41841073719E+03  0.87743572659E+03 -0.17649270868E+03  0.98798313523E+03  0.00000000000E+00 0. -1.
<mgrwt>
<rscale>  0 0.23426052E+04</rscale>
<asrwt>0</asrwt>
<pdfrwt beam="1">  1        2 0.28165967E+00 0.23426052E+04</pdfrwt>
<pdfrwt beam="2">  1       -2 0.11528873E+00 0.23426052E+04</pdfrwt>
<totfact> 0.43926232E+00</totfact>
</mgrwt>
</event>
<event>
 6    1  0.1614874E-005  0.1596642E+04  0.7818608E-02  0.8822614E-01
         -2   -1    0    0    0  501 -0.00000000000E+00  0.00000000000E+00  0.21890300626E+03  0.21890300626E+03  0.00000000000E+00 0.  1.
          2   -1    0    0  501    0  0.00000000000E+00 -0.00000000000E+00 -0.29114100374E+04  0.29114100374E+04  0.00000000000E+00 0. -1.
         23    2    1    2    0    0  0.76044250908E+03  0.17761194393E+03 -0.10513174540E+04  0.13128086997E+04  0.91539503214E+02 0.  0.
         13    1    3    3    0    0  0.42288995518E+03  0.53463719473E+02 -0.58942056373E+03  0.72740008554E+03  0.00000000000E+00 0. -1.
        -13    1    3    3    0    0  0.33755255389E+03  0.12414822446E+03 -0.46189689026E+03  0.58540861414E+03  0.00000000000E+00 0.  1.
         22    1    1    2    0    0 -0.76044250908E+03 -0.17761194393E+03 -0.16411895771E+04  0.18175043439E+04  0.00000000000E+00 0. -1.
<mgrwt>
<rscale>  0 0.15966420E+04</rscale>
<asrwt>0</asrwt>
<pdfrwt beam="1">  1        2 0.44790921E+00 0.15966420E+04</pdfrwt>
<pdfrwt beam="2">  1       -2 0.33677387E-01 0.15966420E+04</pdfrwt>
<totfact> 0.15715630E+01</totfact>
</mgrwt>
</event>
<event>
 6    1  0.1614874E-005  0.2069857E+04  0.7818608E-02  0.8574639E-01
         -1   -1    0    0    0  501 -0.00000000000E+00  0.00000000000E+00  0.10400294456E+04  0.10400294456E+04  0.00000000000E+00 0.  1.
          1   -1    0    0  501    0  0.00000000000E+00 -0.00000000000E+00 -0.10298530220E+04  0.10298530220E+04  0.00000000000E+00 0. -1.
         23    2    1    2    0    0  0.84109152955E+03  0.13569001501E+03 -0.57904205875E+03  0.10340131896E+04  0.89704120721E+02 0.  0.
         11    1    3    3    0    0  0.75910811105E+03  0.14146339860E+03 -0.49957919239E+03  0.91969363751E+03  0.00000000000E+00 0. -1.
        -11    1    3    3    0    0  0.81983418497E+02 -0.57733835874E+01 -0.79462866366E+02  0.11431955212E+03  0.00000000000E+00 0.  1.
         22    1    1    2    0    0 -0.84109152955E+03 -0.13569001501E+03  0.58921848235E+03  0.10358692780E+04  0.00000000000E+00 0.  1.
<mgrwt>
<rscale>  0 0.20698575E+04</rscale>
<asrwt>0</asrwt>
<pdfrwt beam="1">  1        1 0.15843893E+00 0.20698575E+04</pdfrwt>
<pdfrwt beam="2">  1       -1 0.16000453E+00 0.20698575E+04</pdfrwt>
<totfact> 0.38648804E+00</totfact>
</mgrwt>
</event>
<event>
 6    1  0.1614874E-005  0.4747688E+04  0.7818608E-02  0.7868653E-01
          1   -1    0    0  501    0  0.00000000000E+00  0.00000000000E+00  0.34446398467E+04  0.34446398467E+04  0.00000000000E+00 0. -1.
         -1   -1    0    0    0  501 -0.00000000000E+00 -0.00000000000E+00 -0.16359140496E+04  0.16359140496E+04  0.00000000000E+00 0.  1.
         23    2    1    2    0    0  0.18768117898E+04 -0.82970488212E+03  0.21798556256E+04  0.29952313708E+04  0.93849509756E+02 0.  0.
         11    1    3    3    0    0  0.82753207759E+03 -0.32534392797E+03  0.90306045003E+03  0.12673500650E+04  0.00000000000E+00 0. -1.
        -11    1    3    3    0    0  0.10492797122E+04 -0.50436095415E+03  0.12767951755E+04  0.17278813057E+04  0.00000000000E+00 0.  1.
         22    1    1    2    0    0 -0.18768117898E+04  0.82970488212E+03 -0.37112982849E+03  0.20853225255E+04  0.00000000000E+00 0.  1.
<mgrwt>
<rscale>  0 0.47476877E+04</rscale>
<asrwt>0</asrwt>
<pdfrwt beam="1">  1        1 0.52994459E+00 0.47476877E+04</pdfrwt>
<pdfrwt beam="2">  1       -1 0.25167908E+00 0.47476877E+04</pdfrwt>
<totfact> 0.13814094E-02</totfact>
</mgrwt>
</event>
<event>
 6    1  0.1614874E-005  0.1825982E+04  0.7818608E-02  0.8692603E-01
         -2   -1    0    0    0  501 -0.00000000000E+00  0.00000000000E+00  0.27775899263E+03  0.27775899263E+03  0.00000000000E+00 0.  1.
          2   -1    0    0  501    0  0.00000000000E+00 -0.00000000000E+00 -0.30009933091E+04  0.30009933091E+04  0.00000000000E+00 0. -1.
         23    2    1    2    0    0  0.73914489934E+03  0.48740737705E+03 -0.17481011033E+04  0.19616395818E+04  0.90946403460E+02 0.  0.
         11    1    3    3    0    0  0.45284834348E+03  0.25450425624E+03 -0.10777792292E+04  0.11964330761E+04  0.00000000000E+00 0. -1.
        -11    1    3    3    0    0  0.28629655585E+03  0.23290312081E+03 -0.67032187406E+03  0.76520650573E+03  0.00000000000E+00 0.  1.
         22    1    1    2    0    0 -0.73914489934E+03 -0.48740737705E+03 -0.97513321316E+03  0.13171127199E+04  0.00000000000E+00 0.  1.
<mgrwt>
<rscale>  0 0.18259823E+04</rscale>
<asrwt>0</asrwt>
<pdfrwt beam="1">  1        2 0.46169130E+00 0.18259823E+04</pdfrwt>
<pdfrwt beam="2">  1       -2 0.42732151E-01 0.18259823E+04</pdfrwt>
<totfact> 0.85349644E+00</totfact>
</mgrwt>
</event>
<event>
 6    1  0.1614874E-005  0.3345506E+04  0.7818608E-02  0.8151412E-01
          1   -1    0    0  501    0  0.00000000000E+00  0.00000000000E+00  0.23102329070E+04  0.23102329070E+04  0.00000000000E+00 0. -1.
         -1   -1    0    0    0  501 -0.00000000000E+00 -0.00000000000E+00 -0.12111777939E+04  0.12111777939E+04  0.00000000000E+00 0.  1.
         23    2    1    2    0    0  0.65261852128E+03 -0.81440192535E+03  0.19239942923E+04  0.21911152151E+04  0.10035147671E+03 0.  0.
         13    1    3    3    0    0  0.30291453929E+03 -0.43973402077E+03  0.91468848185E+03  0.10591403335E+04  0.00000000000E+00 0.  1.
        -13    1    3    3    0    0  0.34970398198E+03 -0.37466790459E+03  0.10093058104E+04  0.11319748817E+04  0.00000000000E+00 0. -1.
         22    1    1    2    0    0 -0.65261852128E+03  0.81440192535E+03 -0.82493917911E+03  0.13302954858E+04  0.00000000000E+00 0.  1.
<mgrwt>
<rscale>  0 0.33455061E+04</rscale>
<asrwt>0</asrwt>
<pdfrwt beam="1">  1        1 0.35542045E+00 0.33455061E+04</pdfrwt>
<pdfrwt beam="2">  1       -1 0.18633505E+00 0.33455061E+04</pdfrwt>
<totfact> 0.28381851E-01</totfact>
</mgrwt>
</event>
<event>
 6    1  0.1614874E-005  0.2439348E+04  0.7818608E-02  0.8424918E-01
          1   -1    0    0  501    0  0.00000000000E+00  0.00000000000E+00  0.13907621592E+04  0.13907621592E+04  0.00000000000E+00 0. -1.
         -1   -1    0    0    0  501 -0.00000000000E+00 -0.00000000000E+00 -0.10696324744E+04  0.10696324744E+04  0.00000000000E+00 0.  1.
         23    2    1    2    0    0 -0.48035746584E+03 -0.85993728627E+03  0.88390249127E+03  0.13259570360E+04  0.81504698720E+02 0.  0.
         13    1    3    3    0    0 -0.33502937430E+03 -0.66465367418E+03  0.64540864961E+03  0.98517080409E+03  0.00000000000E+00 0. -1.
        -13    1    3    3    0    0 -0.14532809153E+03 -0.19528361209E+03  0.23849384166E+03  0.34078623190E+03  0.00000000000E+00 0.  1.
         22    1    1    2    0    0  0.48035746584E+03  0.85993728627E+03 -0.56277280640E+03  0.11344375976E+04  0.00000000000E+00 0.  1.
<mgrwt>
<rscale>  0 0.24393478E+04</rscale>
<asrwt>0</asrwt>
<pdfrwt beam="1">  1        1 0.21396341E+00 0.24393478E+04</pdfrwt>
<pdfrwt beam="2">  1       -1 0.16455884E+00 0.24393478E+04</pdfrwt>
<totfact> 0.18808286E+00</totfact>
</mgrwt>
</event>
<event>
 6    1  0.1614874E-005  0.3160562E+04  0.7818608E-02  0.8199311E-01
          2   -1    0    0  501    0  0.00000000000E+00  0.00000000000E+00  0.29096085042E+04  0.29096085042E+04  0.00000000000E+00 0.  1.
         -2   -1    0    0    0  501 -0.00000000000E+00 -0.00000000000E+00 -0.85829000785E+03  0.85829000785E+03  0.00000000000E+00 0. -1.
         23    2    1    2    0    0 -0.78988124283E+03 -0.10533413981E+03  0.26515515324E+04  0.27702576165E+04  0.92704227307E+02 0.  0.
         13    1    3    3    0    0 -0.58155388991E+03 -0.67893917489E+02  0.20773522069E+04  0.21582879100E+04  0.00000000000E+00 0.  1.
        -13    1    3    3    0    0 -0.20832735292E+03 -0.37440222321E+02  0.57419932548E+03  0.61196970644E+03  0.00000000000E+00 0. -1.
         22    1    1    2    0    0  0.78988124283E+03  0.10533413981E+03 -0.60023303613E+03  0.99764089553E+03  0.00000000000E+00 0. -1.
<mgrwt>
<rscale>  0 0.31605619E+04</rscale>
<asrwt>0</asrwt>
<pdfrwt beam="1">  1        2 0.44763207E+00 0.31605619E+04</pdfrwt>
<pdfrwt beam="2">  1       -2 0.13204462E+00 0.31605619E+04</pdfrwt>
<totfact> 0.69846727E-01</totfact>
</mgrwt>
</event>
<event>
 6    1  0.1614874E-005  0.2315466E+04  0.7818608E-02  0.8471848E-01
          2   -1    0    0  501    0  0.00000000000E+00  0.00000000000E+00  0.24891433821E+04  0.24891433821E+04  0.00000000000E+00 0. -1.
         -2   -1    0    0    0  501 -0.00000000000E+00 -0.00000000000E+00 -0.53847678979E+03  0.53847678979E+03  0.00000000000E+00 0.  1.
         23    2    1    2    0    0 -0.85278961166E+03 -0.76023237020E+03  0.12068720125E+04  0.16643763362E+04  0.91679635510E+02 0.  0.
         13    1    3    3    0    0 -0.25469022754E+03 -0.18634293659E+03  0.37346775642E+03  0.48894679374E+03  0.00000000000E+00 0. -1.
        -13    1    3    3    0    0 -0.59809938412E+03 -0.57388943361E+03  0.83340425609E+03  0.11754295425E+04  0.00000000000E+00 0.  1.
         22    1    1    2    0    0  0.85278961166E+03  0.76023237020E+03  0.74379457976E+03  0.13632438356E+04  0.00000000000E+00 0.  1.
<mgrwt>
<rscale>  0 0.23154662E+04</rscale>
<asrwt>0</asrwt>
<pdfrwt beam="1">  1        2 0.38294513E+00 0.23154662E+04</pdfrwt>
<pdfrwt beam="2">  1       -2 0.82842584E-01 0.23154662E+04</pdfrwt>
<totfact> 0.40850813E+00</totfact>
</mgrwt>
</event>
<event>
 6    1  0.1614874E-005  0.3072441E+04  0.7818608E-02  0.8223342E-01
         -2   -1    0    0    0  501 -0.00000000000E+00  0.00000000000E+00  0.16030354088E+04  0.16030354088E+04  0.00000000000E+00 0.  1.
          2   -1    0    0  501    0  0.00000000000E+00 -0.00000000000E+00 -0.14721909308E+04  0.14721909308E+04  0.00000000000E+00 0. -1.
         23    2    1    2    0    0  0.94130895455E+03 -0.11749472373E+04  0.36425692181E+03  0.15517287428E+04  0.92819329539E+02 0.  0.
         13    1    3    3    0    0  0.84610040834E+03 -0.10066929462E+04  0.31560505614E+03  0.13523768485E+04  0.00000000000E+00 0.  1.
        -13    1    3    3    0    0  0.95208546209E+02 -0.16825429105E+03  0.48651865663E+02  0.19935189429E+03  0.00000000000E+00 0. -1.
         22    1    1    2    0    0 -0.94130895455E+03  0.11749472373E+04 -0.23341244381E+03  0.15234975967E+04  0.00000000000E+00 0. -1.
<mgrwt>
<rscale>  0 0.30724415E+04</rscale>
<asrwt>0</asrwt>
<pdfrwt beam="1">  1        2 0.22649091E+00 0.30724415E+04</pdfrwt>
<pdfrwt beam="2">  1       -2 0.24662083E+00 0.30724415E+04</pdfrwt>
<totfact> 0.75513470E-01</totfact>
</mgrwt>
</event>
<event>
 6    1  0.1614874E-005  0.7018508E+04  0.7818608E-02  0.7575530E-01
         -1   -1    0    0    0  501 -0.00000000000E+00  0.00000000000E+00  0.32012558543E+04  0.32012558543E+04  0.00000000000E+00 0.  1.
          1   -1    0    0  501    0  0.00000000000E+00 -0.00000000000E+00 -0.38468846790E+04  0.38468846790E+04  0.00000000000E+00 0. -1.
         23    2    1    2    0    0  0.31520692675E+04  0.14836890255E+04 -0.74167293118E+03  0.35630152469E+04  0.90139455553E+02 0.  0.
         13    1    3    3    0    0  0.18651149032E+04  0.84962831116E+03 -0.39920082441E+03  0.20880333253E+04  0.00000000000E+00 0. -1.
        -13    1    3    3    0    0  0.12869543643E+04  0.63406071433E+03 -0.34247210676E+03  0.14749819216E+04  0.00000000000E+00 0.  1.
         22    1    1    2    0    0 -0.31520692675E+04 -0.14836890255E+04  0.96044106449E+02  0.34851252864E+04  0.00000000000E+00 0. -1.
<mgrwt>
<rscale>  0 0.70185076E+04</rscale>
<asrwt>0</asrwt>
<pdfrwt beam="1">  1        1 0.59182841E+00 0.70185076E+04</pdfrwt>
<pdfrwt beam="2">  1       -1 0.49250090E+00 0.70185076E+04</pdfrwt>
<totfact> 0.13554438E-04</totfact>
</mgrwt>
</event>
<event>
 6    1  0.1614874E-005  0.3287523E+04  0.7818608E-02  0.8166077E-01
          2   -1    0    0  501    0  0.00000000000E+00  0.00000000000E+00  0.36154123294E+04  0.36154123294E+04  0.00000000000E+00 0. -1.
         -2   -1    0    0    0  501 -0.00000000000E+00 -0.00000000000E+00 -0.74734273055E+03  0.74734273055E+03  0.00000000000E+00 0.  1.
         23    2    1    2    0    0  0.13041638281E+04  0.40017248213E+03  0.22123769555E+03  0.13850545326E+04  0.91916453389E+02 0.  0.
         13    1    3    3    0    0  0.95296703561E+03  0.32072495928E+03  0.19329318003E+03  0.10239008369E+04  0.00000000000E+00 0.  1.
        -13    1    3    3    0    0  0.35119679253E+03  0.79447522855E+02  0.27944515521E+02  0.36115369570E+03  0.00000000000E+00 0. -1.
         22    1    1    2    0    0 -0.13041638281E+04 -0.40017248213E+03  0.26468319033E+04  0.29777005273E+04  0.00000000000E+00 0. -1.
<mgrwt>
<rscale>  0 0.32875232E+04</rscale>
<asrwt>0</asrwt>
<pdfrwt beam="1">  1        2 0.55621727E+00 0.32875232E+04</pdfrwt>
<pdfrwt beam="2">  1       -2 0.11497581E+00 0.32875232E+04</pdfrwt>
<totfact> 0.33141007E-01</totfact>
</mgrwt>
</event>
<event>
 6    1  0.5184995E-005  0.3576427E+04  0.7818608E-02  0.8095913E-01
          2   -1    0    0  501    0  0.00000000000E+00  0.00000000000E+00  0.16769248681E+04  0.16769248681E+04  0.00000000000E+00 0. -1.
         -2   -1    0    0    0  501 -0.00000000000E+00 -0.00000000000E+00 -0.19068875152E+04  0.19068875152E+04  0.00000000000E+00 0.  1.
         23    2    1    2    0    0 -0.17753204706E+03 -0.31023307590E+03 -0.18696287950E+04  0.19056385945E+04  0.90467853562E+02 0.  0.
         13    1    3    3    0    0 -0.53095774698E+02 -0.18232543223E+03 -0.92178542730E+03  0.94114297453E+03  0.00000000000E+00 0.  1.
        -13    1    3    3    0    0 -0.12443627236E+03 -0.12790764367E+03 -0.94784336771E+03  0.96449561995E+03  0.00000000000E+00 0. -1.
         22    1    1    2    0    0  0.17753204706E+03  0.31023307590E+03  0.16396661479E+04  0.16781737889E+04  0.00000000000E+00 0. -1.
<mgrwt>
<rscale>  0 0.35764268E+04</rscale>
<asrwt>0</asrwt>
<pdfrwt beam="1">  1        2 0.25798844E+00 0.35764268E+04</pdfrwt>
<pdfrwt beam="2">  1       -2 0.29336731E+00 0.35764268E+04</pdfrwt>
<totfact> 0.28784204E-01</totfact>
</mgrwt>
</event>
<event>
 6    1  0.1614874E-005  0.1276990E+04  0.7818608E-02  0.9048014E-01
         -2   -1    0    0    0  501 -0.00000000000E+00  0.00000000000E+00  0.20728522097E+03  0.20728522097E+03  0.00000000000E+00 0.  1.
          2   -1    0    0  501    0  0.00000000000E+00 -0.00000000000E+00 -0.19667374072E+04  0.19667374072E+04  0.00000000000E+00 0. -1.
         23    2    1    2    0    0  0.71493544398E+02 -0.61840892223E+01 -0.19587531035E+04  0.19621962241E+04  0.91382335343E+02 0.  0.
         11    1    3    3    0    0  0.49943518380E+02  0.38655549541E+02 -0.85904996713E+03  0.86136836055E+03  0.00000000000E+00 0.  1.
        -11    1    3    3    0    0  0.21550026019E+02 -0.44839638764E+02 -0.10997031364E+04  0.11008278635E+04  0.00000000000E+00 0. -1.
         22    1    1    2    0    0 -0.71493544398E+02  0.61840892223E+01  0.19930091730E+03  0.21182640413E+03  0.00000000000E+00 0.  1.
<mgrwt>
<rscale>  0 0.12769896E+04</rscale>
<asrwt>0</asrwt>
<pdfrwt beam="1">  1        2 0.30257499E+00 0.12769896E+04</pdfrwt>
<pdfrwt beam="2">  1       -2 0.31890033E-01 0.12769896E+04</pdfrwt>
<totfact> 0.62631201E+01</totfact>
</mgrwt>
</event>
<event>
 6    1  0.1614874E-005  0.3334918E+04  0.7818608E-02  0.8154067E-01
          1   -1    0    0  501    0  0.00000000000E+00  0.00000000000E+00  0.24133642033E+04  0.24133642033E+04  0.00000000000E+00 0. -1.
         -1   -1    0    0    0  501 -0.00000000000E+00 -0.00000000000E+00 -0.11520926437E+04  0.11520926437E+04  0.00000000000E+00 0.  1.
         23    2    1    2    0    0  0.13991924152E+03 -0.13401414878E+04 -0.41694241760E+03  0.14132582606E+04  0.88889425903E+02 0.  0.
         11    1    3    3    0    0  0.89082707762E+01 -0.42660308997E+03 -0.15415885141E+03  0.45368987770E+03  0.00000000000E+00 0.  1.
        -11    1    3    3    0    0  0.13101097074E+03 -0.91353839788E+03 -0.26278356620E+03  0.95956838293E+03  0.00000000000E+00 0. -1.
         22    1    1    2    0    0 -0.13991924152E+03  0.13401414878E+04  0.16782139773E+04  0.21521985863E+04  0.00000000000E+00 0. -1.
<mgrwt>
<rscale>  0 0.33349178E+04</rscale>
<asrwt>0</asrwt>
<pdfrwt beam="1">  1        1 0.37128680E+00 0.33349178E+04</pdfrwt>
<pdfrwt beam="2">  1       -1 0.17724502E+00 0.33349178E+04</pdfrwt>
<totfact> 0.28023732E-01</totfact>
</mgrwt>
</event>
<event>
 6    1  0.1614874E-005  0.3523279E+04  0.7818608E-02  0.8108295E-01
          1   -1    0    0  501    0  0.00000000000E+00  0.00000000000E+00  0.17363741160E+04  0.17363741160E+04  0.00000000000E+00 0. -1.
         -1   -1    0    0    0  501 -0.00000000000E+00 -0.00000000000E+00 -0.17872728191E+04  0.17872728191E+04  0.00000000000E+00 0.  1.
         23    2    1    2    0    0 -0.10195482077E+04  0.12486991637E+04 -0.73292653203E+03  0.17732498062E+04  0.92224859685E+02 0.  0.
         11    1    3    3    0    0 -0.99237377289E+02  0.85165427572E+02 -0.70546642127E+02  0.14858679558E+03  0.00000000000E+00 0. -1.
        -11    1    3    3    0    0 -0.92031083039E+03  0.11635337361E+04 -0.66237988990E+03  0.16246630107E+04  0.00000000000E+00 0.  1.
         22    1    1    2    0    0  0.10195482077E+04 -0.12486991637E+04  0.68202782895E+03  0.17503971289E+04  0.00000000000E+00 0. -1.
<mgrwt>
<rscale>  0 0.35232793E+04</rscale>
<asrwt>0</asrwt>
<pdfrwt beam="1">  1        1 0.26713448E+00 0.35232793E+04</pdfrwt>
<pdfrwt beam="2">  1       -1 0.27496505E+00 0.35232793E+04</pdfrwt>
<totfact> 0.17584579E-01</totfact>
</mgrwt>
</event>
<event>
 6    1  0.1614874E-005  0.9865072E+03  0.7818608E-02  0.9323468E-01
          2   -1    0    0  501    0  0.00000000000E+00  0.00000000000E+00  0.13563298908E+04  0.13563298908E+04  0.00000000000E+00 0.  1.
         -2   -1    0    0    0  501 -0.00000000000E+00 -0.00000000000E+00 -0.17938050324E+03  0.17938050324E+03  0.00000000000E+00 0. -1.
         23    2    1    2    0    0 -0.35797914668E+03 -0.15954597497E+03  0.10483446257E+04  0.11232262460E+04  0.94903940372E+02 0.  0.
         11    1    3    3    0    0 -0.52081970645E+02 -0.42967541680E+02  0.28049334910E+03  0.28850521692E+03  0.00000000000E+00 0. -1.
        -11    1    3    3    0    0 -0.30589717604E+03 -0.11657843329E+03  0.76785127664E+03  0.83472102912E+03  0.00000000000E+00 0.  1.
         22    1    1    2    0    0  0.35797914668E+03  0.15954597497E+03  0.12860476182E+03  0.41248414800E+03  0.00000000000E+00 0. -1.
<mgrwt>
<rscale>  0 0.98650725E+03</rscale>
<asrwt>0</asrwt>
<pdfrwt beam="1">  1        2 0.20866613E+00 0.98650725E+03</pdfrwt>
<pdfrwt beam="2">  1       -2 0.27597001E-01 0.98650725E+03</pdfrwt>
<totfact> 0.18315914E+02</totfact>
</mgrwt>
</event>
<event>
 6    1  0.1614874E-005  0.1804874E+04  0.7818608E-02  0.8703712E-01
          2   -1    0    0  501    0  0.00000000000E+00  0.00000000000E+00  0.24733224682E+04  0.24733224682E+04  0.00000000000E+00 0. -1.
         -2   -1    0    0    0  501 -0.00000000000E+00 -0.00000000000E+00 -0.32927067719E+03  0.32927067719E+03  0.00000000000E+00 0.  1.
         23    2    1    2    0    0 -0.72771577414E+03 -0.27236789064E+03  0.17804836286E+04  0.19447258337E+04  0.89900504233E+02 0.  0.
         13    1    3    3    0    0 -0.49950061941E+03 -0.17667224284E+03  0.11081540881E+04  0.12282994070E+04  0.00000000000E+00 0. -1.
        -13    1    3    3    0    0 -0.22821515473E+03 -0.95695647804E+02  0.67232954048E+03  0.71642642669E+03  0.00000000000E+00 0.  1.
         22    1    1    2    0    0  0.72771577414E+03  0.27236789064E+03  0.36356816239E+03  0.85786731170E+03  0.00000000000E+00 0.  1.
<mgrwt>
<rscale>  0 0.18048740E+04</rscale>
<asrwt>0</asrwt>
<pdfrwt beam="1">  1        2 0.38051114E+00 0.18048740E+04</pdfrwt>
<pdfrwt beam="2">  1       -2 0.50657029E-01 0.18048740E+04</pdfrwt>
<totfact> 0.12555871E+01</totfact>
</mgrwt>
</event>
<event>
 6    1  0.1614874E-005  0.1350163E+04  0.7818608E-02  0.8990705E-01
          1   -1    0    0  501    0  0.00000000000E+00  0.00000000000E+00  0.26999981777E+03  0.26999981777E+03  0.00000000000E+00 0. -1.
         -1   -1    0    0    0  501 -0.00000000000E+00 -0.00000000000E+00 -0.16879087668E+04  0.16879087668E+04  0.00000000000E+00 0.  1.
         23    2    1    2    0    0 -0.72656742947E+02 -0.66396487096E+03 -0.82125529576E+03  0.10622948653E+04  0.88779321524E+02 0.  0.
         13    1    3    3    0    0  0.12167748591E+02 -0.29161715201E+03 -0.34973093018E+03  0.45552205323E+03  0.00000000000E+00 0. -1.
        -13    1    3    3    0    0 -0.84824491538E+02 -0.37234771894E+03 -0.47152436559E+03  0.60677281211E+03  0.00000000000E+00 0.  1.
         22    1    1    2    0    0  0.72656742947E+02  0.66396487096E+03 -0.59665365331E+03  0.89561371928E+03  0.00000000000E+00 0. -1.
<mgrwt>
<rscale>  0 0.13501630E+04</rscale>
<asrwt>0</asrwt>
<pdfrwt beam="1">  1        1 0.41538435E-01 0.13501630E+04</pdfrwt>
<pdfrwt beam="2">  1       -1 0.25967826E+00 0.13501630E+04</pdfrwt>
<totfact> 0.59468041E+00</totfact>
</mgrwt>
</event>
<event>
 6    1  0.1614874E-005  0.9525582E+03  0.7818608E-02  0.9362165E-01
          2   -1    0    0  501    0  0.00000000000E+00  0.00000000000E+00  0.53776804673E+03  0.53776804673E+03  0.00000000000E+00 0. -1.
         -2   -1    0    0    0  501 -0.00000000000E+00 -0.00000000000E+00 -0.42182090157E+03  0.42182090157E+03  0.00000000000E+00 0.  1.
         23    2    1    2    0    0  0.23276624584E+03 -0.40477292927E+03  0.12801853259E+03  0.49250547839E+03  0.90286500023E+02 0.  0.
         11    1    3    3    0    0  0.86701919205E+02 -0.16380458421E+03  0.59784164876E+01  0.18543167493E+03  0.00000000000E+00 0.  1.
        -11    1    3    3    0    0  0.14606432663E+03 -0.24096834506E+03  0.12204011610E+03  0.30707380346E+03  0.00000000000E+00 0. -1.
         22    1    1    2    0    0 -0.23276624584E+03  0.40477292927E+03 -0.12071387435E+02  0.46708346991E+03  0.00000000000E+00 0.  1.
<mgrwt>
<rscale>  0 0.95255824E+03</rscale>
<asrwt>0</asrwt>
<pdfrwt beam="1">  1        2 0.82733546E-01 0.95255824E+03</pdfrwt>
<pdfrwt beam="2">  1       -2 0.64895523E-01 0.95255824E+03</pdfrwt>
<totfact> 0.12404919E+02</totfact>
</mgrwt>
</event>
<event>
 6    1  0.1614874E-005  0.1869504E+04  0.7818608E-02  0.8670187E-01
          2   -1    0    0  501    0  0.00000000000E+00  0.00000000000E+00  0.19846967159E+04  0.19846967159E+04  0.00000000000E+00 0. -1.
         -2   -1    0    0    0  501 -0.00000000000E+00 -0.00000000000E+00 -0.44024946953E+03  0.44024946953E+03  0.00000000000E+00 0.  1.
         23    2    1    2    0    0 -0.23405718842E+03 -0.73051979615E+03  0.14625660711E+04  0.16534888199E+04  0.80522201971E+02 0.  0.
         13    1    3    3    0    0 -0.18130118702E+03 -0.65184614020E+03  0.12832822056E+04  0.14507193837E+04  0.00000000000E+00 0. -1.
        -13    1    3    3    0    0 -0.52756001401E+02 -0.78673655942E+02  0.17928386548E+03  0.20276943617E+03  0.00000000000E+00 0.  1.
         22    1    1    2    0    0  0.23405718842E+03  0.73051979615E+03  0.81881175242E+02  0.77145736556E+03  0.00000000000E+00 0.  1.
<mgrwt>
<rscale>  0 0.18695044E+04</rscale>
<asrwt>0</asrwt>
<pdfrwt beam="1">  1        2 0.30533795E+00 0.18695044E+04</pdfrwt>
<pdfrwt beam="2">  1       -2 0.67730689E-01 0.18695044E+04</pdfrwt>
<totfact> 0.12775760E+01</totfact>
</mgrwt>
</event>
<event>
 6    1  0.1614874E-005  0.1067504E+04  0.7818608E-02  0.9237457E-01
         -1   -1    0    0    0  501 -0.00000000000E+00  0.00000000000E+00  0.10904070894E+03  0.10904070894E+03  0.00000000000E+00 0.  1.
          1   -1    0    0  501    0  0.00000000000E+00 -0.00000000000E+00 -0.26127027935E+04  0.26127027935E+04  0.00000000000E+00 0. -1.
         23    2    1    2    0    0 -0.21279291371E+03 -0.63479265862E+02 -0.24875597943E+04  0.24991009075E+04  0.90780913288E+02 0.  0.
         11    1    3    3    0    0 -0.26909264123E+02 -0.45414481250E+02 -0.60631799609E+03  0.60861161342E+03  0.00000000000E+00 0.  1.
        -11    1    3    3    0    0 -0.18588364959E+03 -0.18064784612E+02 -0.18812417983E+04  0.18904892941E+04  0.00000000000E+00 0. -1.
         22    1    1    2    0    0  0.21279291371E+03  0.63479265862E+02 -0.16102290216E+02  0.22264259491E+03  0.00000000000E+00 0.  1.
<mgrwt>
<rscale>  0 0.10675036E+04</rscale>
<asrwt>0</asrwt>
<pdfrwt beam="1">  1        1 0.40195426E+00 0.10675036E+04</pdfrwt>
<pdfrwt beam="2">  1       -1 0.16775494E-01 0.10675036E+04</pdfrwt>
<totfact> 0.31287135E+01</totfact>
</mgrwt>
</event>
<event>
 6    1  0.1614874E-005  0.2091016E+04  0.7818608E-02  0.8565211E-01
         -2   -1    0    0    0  501 -0.00000000000E+00  0.00000000000E+00  0.92975754477E+03  0.92975754477E+03  0.00000000000E+00 0.  1.
          2   -1    0    0  501    0  0.00000000000E+00 -0.00000000000E+00 -0.11756684793E+04  0.11756684793E+04  0.00000000000E+00 0. -1.
         23    2    1    2    0    0  0.37357337523E+03 -0.86657306887E+03 -0.57124318275E+03  0.11072541841E+04  0.95849381306E+02 0.  0.
         11    1    3    3    0    0  0.10344124644E+03 -0.18739870488E+03 -0.90460901604E+02  0.23238231596E+03  0.00000000000E+00 0. -1.
        -11    1    3    3    0    0  0.27013212879E+03 -0.67917436399E+03 -0.48078228115E+03  0.87487186809E+03  0.00000000000E+00 0.  1.
         22    1    1    2    0    0 -0.37357337523E+03  0.86657306887E+03  0.32533224826E+03  0.99817183998E+03  0.00000000000E+00 0. -1.
<mgrwt>
<rscale>  0 0.20910157E+04</rscale>
<asrwt>0</asrwt>
<pdfrwt beam="1">  1        2 0.18087207E+00 0.20910157E+04</pdfrwt>
<pdfrwt beam="2">  1       -2 0.14303962E+00 0.20910157E+04</pdfrwt>
<totfact> 0.61353181E+00</totfact>
</mgrwt>
</event>
<event>
 6    1  0.1614874E-005  0.8371073E+03  0.7818608E-02  0.9507806E-01
         -2   -1    0    0    0  501 -0.00000000000E+00  0.00000000000E+00  0.13039700136E+03  0.13039700136E+03  0.00000000000E+00 0.  1.
          2   -1    0    0  501    0  0.00000000000E+00 -0.00000000000E+00 -0.13434907433E+04  0.13434907433E+04  0.00000000000E+00 0. -1.
         23    2    1    2    0    0 -0.70727098719E+02  0.34182193688E+03 -0.10043866681E+04  0.10671898203E+04  0.90867895288E+02 0.  0.
         11    1    3    3    0    0 -0.38978835490E+02  0.68690307653E+02 -0.14818965712E+03  0.16792225123E+03  0.00000000000E+00 0.  1.
        -11    1    3    3    0    0 -0.31748263228E+02  0.27313162923E+03 -0.85619701098E+03  0.89926756904E+03  0.00000000000E+00 0. -1.
         22    1    1    2    0    0  0.70727098719E+02 -0.34182193688E+03 -0.20870707380E+03  0.40669792437E+03  0.00000000000E+00 0.  1.
<mgrwt>
<rscale>  0 0.83710732E+03</rscale>
<asrwt>0</asrwt>
<pdfrwt beam="1">  1        2 0.20669088E+00 0.83710732E+03</pdfrwt>
<pdfrwt beam="2">  1       -2 0.20061078E-01 0.83710732E+03</pdfrwt>
<totfact> 0.33296563E+02</totfact>
</mgrwt>
</event>
<event>
 6    1  0.1959578E-005  0.3753879E+04  0.7818608E-02  0.8056125E-01
         -2   -1    0    0    0  501 -0.00000000000E+00  0.00000000000E+00  0.10499867258E+04  0.10499867258E+04  0.00000000000E+00 0.  1.
          2   -1    0    0  501    0  0.00000000000E+00 -0.00000000000E+00 -0.33551868141E+04  0.33551868141E+04  0.00000000000E+00 0. -1.
         23    2    1    2    0    0  0.12791622555E+04  0.87956247321E+03 -0.23891321350E+04  0.28505254097E+04  0.87501616319E+02 0.  0.
         11    1    3    3    0    0  0.63365648325E+03  0.41160135208E+03 -0.12340154797E+04  0.14469728456E+04  0.00000000000E+00 0. -1.
        -11    1    3    3    0    0  0.64550577227E+03  0.46796112113E+03 -0.11551166553E+04  0.14035525642E+04  0.00000000000E+00 0.  1.
         22    1    1    2    0    0 -0.12791622555E+04 -0.87956247321E+03  0.83932046708E+02  0.15546481302E+04  0.00000000000E+00 0.  1.
<mgrwt>
<rscale>  0 0.37538789E+04</rscale>
<asrwt>0</asrwt>
<pdfrwt beam="1">  1        2 0.51618258E+00 0.37538789E+04</pdfrwt>
<pdfrwt beam="2">  1       -2 0.16153642E+00 0.37538789E+04</pdfrwt>
<totfact> 0.20171227E-01</totfact>
</mgrwt>
</event>
<event>
 6    1  0.1614874E-005  0.5799366E+04  0.7818608E-02  0.7715788E-01
         -2   -1    0    0    0  501 -0.00000000000E+00  0.00000000000E+00  0.20272890020E+04  0.20272890020E+04  0.00000000000E+00 0.  1.
          2   -1    0    0  501    0  0.00000000000E+00 -0.00000000000E+00 -0.41474898867E+04  0.41474898867E+04  0.00000000000E+00 0. -1.
         23    2    1    2    0    0 -0.89194578444E+02 -0.28973680171E+04 -0.10946528694E+04  0.30999706294E+04  0.94105789786E+02 0.  0.
         11    1    3    3    0    0 -0.21511102602E+02 -0.12195342392E+03 -0.54022087205E+02  0.13510644340E+03  0.00000000000E+00 0. -1.
        -11    1    3    3    0    0 -0.67683475842E+02 -0.27754145931E+04 -0.10406307822E+04  0.29648641860E+04  0.00000000000E+00 0.  1.
         22    1    1    2    0    0  0.89194578444E+02  0.28973680171E+04 -0.10255480153E+04  0.30748082592E+04  0.00000000000E+00 0. -1.
<mgrwt>
<rscale>  0 0.57993657E+04</rscale>
<asrwt>0</asrwt>
<pdfrwt beam="1">  1        2 0.63807536E+00 0.57993657E+04</pdfrwt>
<pdfrwt beam="2">  1       -2 0.31189062E+00 0.57993657E+04</pdfrwt>
<totfact> 0.47067228E-03</totfact>
</mgrwt>
</event>
<event>
 6    1  0.1614874E-005  0.2763225E+04  0.7818608E-02  0.8314777E-01
          2   -1    0    0  501    0  0.00000000000E+00  0.00000000000E+00  0.29939298715E+04  0.29939298715E+04  0.00000000000E+00 0.  1.
         -2   -1    0    0    0  501 -0.00000000000E+00 -0.00000000000E+00 -0.63757421053E+03  0.63757421053E+03  0.00000000000E+00 0. -1.
         23    2    1    2    0    0 -0.10718220974E+03  0.40914829057E+03  0.29059380219E+04  0.29380121058E+04  0.92460786045E+02 0.  0.
         11    1    3    3    0    0 -0.27071166627E+02  0.15476348850E+02  0.21662274760E+03  0.21885561500E+03  0.00000000000E+00 0.  1.
        -11    1    3    3    0    0 -0.80111043117E+02  0.39367194172E+03  0.26893152743E+04  0.27191564908E+04  0.00000000000E+00 0. -1.
         22    1    1    2    0    0  0.10718220974E+03 -0.40914829057E+03 -0.54958236088E+03  0.69349197627E+03  0.00000000000E+00 0. -1.
<mgrwt>
<rscale>  0 0.27632245E+04</rscale>
<asrwt>0</asrwt>
<pdfrwt beam="1">  1        2 0.46060459E+00 0.27632245E+04</pdfrwt>
<pdfrwt beam="2">  1       -2 0.98088342E-01 0.27632245E+04</pdfrwt>
<totfact> 0.13248958E+00</totfact>
</mgrwt>
</event>
<event>
 6    1  0.1614874E-005  0.2126048E+04  0.7818608E-02  0.8549855E-01
          2   -1    0    0  501    0  0.00000000000E+00  0.00000000000E+00  0.16040345204E+04  0.16040345204E+04  0.00000000000E+00 0.  1.
         -2   -1    0    0    0  501 -0.00000000000E+00 -0.00000000000E+00 -0.70448601040E+03  0.70448601040E+03  0.00000000000E+00 0. -1.
         23    2    1    2    0    0 -0.44120407743E+03  0.71018874906E+03  0.11600533462E+04  0.14327969061E+04  0.90300115490E+02 0.  0.
         13    1    3    3    0    0 -0.76602854284E+02  0.12580381283E+03  0.26750058556E+03  0.30537052884E+03  0.00000000000E+00 0.  1.
        -13    1    3    3    0    0 -0.36460122315E+03  0.58438493623E+03  0.89255276059E+03  0.11274263772E+04  0.00000000000E+00 0. -1.
         22    1    1    2    0    0  0.44120407743E+03 -0.71018874906E+03 -0.26050483618E+03  0.87572362472E+03  0.00000000000E+00 0. -1.
<mgrwt>
<rscale>  0 0.21260479E+04</rscale>
<asrwt>0</asrwt>
<pdfrwt beam="1">  1        2 0.24677454E+00 0.21260479E+04</pdfrwt>
<pdfrwt beam="2">  1       -2 0.10838246E+00 0.21260479E+04</pdfrwt>
<totfact> 0.69483750E+00</totfact>
</mgrwt>
</event>
<event>
 6    1  0.1614874E-005  0.4572427E+04  0.7818608E-02  0.7898078E-01
         -2   -1    0    0    0  501 -0.00000000000E+00  0.00000000000E+00  0.19956454974E+04  0.19956454974E+04  0.00000000000E+00 0.  1.
          2   -1    0    0  501    0  0.00000000000E+00 -0.00000000000E+00 -0.26190888823E+04  0.26190888823E+04  0.00000000000E+00 0. -1.
         23    2    1    2    0    0 -0.23616011068E+03  0.14967587664E+04  0.14146952952E+04  0.20750360350E+04  0.91396748298E+02 0.  0.
         11    1    3    3    0    0 -0.15447446379E+03  0.88581503518E+03  0.78084001559E+03  0.11908995619E+04  0.00000000000E+00 0.  1.
        -11    1    3    3    0    0 -0.81685646887E+02  0.61094373125E+03  0.63385527961E+03  0.88413647314E+03  0.00000000000E+00 0. -1.
         22    1    1    2    0    0  0.23616011068E+03 -0.14967587664E+04 -0.20381386801E+04  0.25396983447E+04  0.00000000000E+00 0. -1.
<mgrwt>
<rscale>  0 0.45724273E+04</rscale>
<asrwt>0</asrwt>
<pdfrwt beam="1">  1        2 0.40293675E+00 0.45724273E+04</pdfrwt>
<pdfrwt beam="2">  1       -2 0.30702238E+00 0.45724273E+04</pdfrwt>
<totfact> 0.64295209E-02</totfact>
</mgrwt>
</event>
<event>
 6    1  0.1614874E-005  0.2191573E+04  0.7818608E-02  0.8521944E-01
         -2   -1    0    0    0  501 -0.00000000000E+00  0.00000000000E+00  0.41404469666E+03  0.41404469666E+03  0.00000000000E+00 0.  1.
          2   -1    0    0  501    0  0.00000000000E+00 -0.00000000000E+00 -0.29000451915E+04  0.29000451915E+04  0.00000000000E+00 0. -1.
         23    2    1    2    0    0 -0.28203358418E+03 -0.16345775136E+03 -0.28241517459E+04  0.28444010043E+04  0.92317987382E+02 0.  0.
         13    1    3    3    0    0 -0.20065415926E+03 -0.66824776845E+02 -0.16616806102E+04  0.16750851001E+04  0.00000000000E+00 0.  1.
        -13    1    3    3    0    0 -0.81379424925E+02 -0.96632974514E+02 -0.11624711357E+04  0.11693159042E+04  0.00000000000E+00 0. -1.
         22    1    1    2    0    0  0.28203358418E+03  0.16345775136E+03  0.33815125098E+03  0.46968888386E+03  0.00000000000E+00 0.  1.
<mgrwt>
<rscale>  0 0.21915733E+04</rscale>
<asrwt>0</asrwt>
<pdfrwt beam="1">  1        2 0.44616079E+00 0.21915733E+04</pdfrwt>
<pdfrwt beam="2">  1       -2 0.63699185E-01 0.21915733E+04</pdfrwt>
<totfact> 0.41936309E+00</totfact>
</mgrwt>
</event>
<event>
 6    1  0.1614874E-005  0.1581885E+04  0.7818608E-02  0.8831754E-01
          1   -1    0    0  501    0  0.00000000000E+00  0.00000000000E+00  0.18980218142E+04  0.18980218142E+04  0.00000000000E+00 0. -1.
         -1   -1    0    0    0  501 -0.00000000000E+00 -0.00000000000E+00 -0.32960119488E+03  0.32960119488E+03  0.00000000000E+00 0.  1.
         23    2    1    2    0    0  0.48221596114E+02 -0.34446733482E+03  0.17830325088E+04  0.18189161090E+04  0.90927537208E+02 0.  0.
         13    1    3    3    0    0 -0.59367295010E+01 -0.17366988198E+03  0.70536381663E+03  0.72645343035E+03  0.00000000000E+00 0. -1.
        -13    1    3    3    0    0  0.54158325615E+02 -0.17079745283E+03  0.10776686921E+04  0.10924626786E+04  0.00000000000E+00 0.  1.
         22    1    1    2    0    0 -0.48221596114E+02  0.34446733482E+03 -0.21461188947E+03  0.40870690010E+03  0.00000000000E+00 0.  1.
<mgrwt>
<rscale>  0 0.15818853E+04</rscale>
<asrwt>0</asrwt>
<pdfrwt beam="1">  1        1 0.29200335E+00 0.15818853E+04</pdfrwt>
<pdfrwt beam="2">  1       -1 0.50707877E-01 0.15818853E+04</pdfrwt>
<totfact> 0.13126811E+01</totfact>
</mgrwt>
</event>
<event>
 6    1  0.1614874E-005  0.3035412E+04  0.7818608E-02  0.8233690E-01
          1   -1    0    0  501    0  0.00000000000E+00  0.00000000000E+00  0.22810767685E+04  0.22810767685E+04  0.00000000000E+00 0. -1.
         -1   -1    0    0    0  501 -0.00000000000E+00 -0.00000000000E+00 -0.10098001967E+04  0.10098001967E+04  0.00000000000E+00 0.  1.
         23    2    1    2    0    0 -0.40975056500E+03  0.11439731105E+04  0.16195395849E+04  0.20268132289E+04  0.92159615290E+02 0.  0.
         11    1    3    3    0    0 -0.39637122442E+02  0.14989017822E+03  0.25561947010E+03  0.29896401204E+03  0.00000000000E+00 0. -1.
        -11    1    3    3    0    0 -0.37011344255E+03  0.99408293231E+03  0.13639201148E+04  0.17278492169E+04  0.00000000000E+00 0.  1.
         22    1    1    2    0    0  0.40975056500E+03 -0.11439731105E+04 -0.34826301304E+03  0.12640637363E+04  0.00000000000E+00 0.  1.
<mgrwt>
<rscale>  0 0.30354122E+04</rscale>
<asrwt>0</asrwt>
<pdfrwt beam="1">  1        1 0.35093489E+00 0.30354122E+04</pdfrwt>
<pdfrwt beam="2">  1       -1 0.15535388E+00 0.30354122E+04</pdfrwt>
<totfact> 0.51587965E-01</totfact>
</mgrwt>
</event>
<event>
 6    1  0.1614874E-005  0.1864119E+04  0.7818608E-02  0.8672926E-01
          1   -1    0    0  501    0  0.00000000000E+00  0.00000000000E+00  0.72435524759E+03  0.72435524759E+03  0.00000000000E+00 0. -1.
         -1   -1    0    0    0  501 -0.00000000000E+00 -0.00000000000E+00 -0.11993209933E+04  0.11993209933E+04  0.00000000000E+00 0.  1.
         23    2    1    2    0    0 -0.40688056030E+03 -0.64224555870E+03  0.31411999458E+03  0.82791739264E+03  0.93513047332E+02 0.  0.
         11    1    3    3    0    0 -0.17002772119E+03 -0.22146004208E+03  0.15596173446E+03  0.31980937889E+03  0.00000000000E+00 0. -1.
        -11    1    3    3    0    0 -0.23685283911E+03 -0.42078551662E+03  0.15815826012E+03  0.50810801375E+03  0.00000000000E+00 0.  1.
         22    1    1    2    0    0  0.40688056030E+03  0.64224555870E+03 -0.78908574032E+03  0.10957588483E+04  0.00000000000E+00 0.  1.
<mgrwt>
<rscale>  0 0.18641185E+04</rscale>
<asrwt>0</asrwt>
<pdfrwt beam="1">  1        1 0.11143927E+00 0.18641185E+04</pdfrwt>
<pdfrwt beam="2">  1       -1 0.18451092E+00 0.18641185E+04</pdfrwt>
<totfact> 0.46871976E+00</totfact>
</mgrwt>
</event>
<event>
 6    1  0.1614874E-005  0.1695573E+04  0.7818608E-02  0.8763893E-01
          2   -1    0    0  501    0  0.00000000000E+00  0.00000000000E+00  0.82457958303E+03  0.82457958303E+03  0.00000000000E+00 0. -1.
         -2   -1    0    0    0  501 -0.00000000000E+00 -0.00000000000E+00 -0.87164628778E+03  0.87164628778E+03  0.00000000000E+00 0.  1.
         23    2    1    2    0    0 -0.69189214487E+03  0.48489843767E+03 -0.96422064756E+01  0.85050616071E+03  0.97090278997E+02 0.  0.
         11    1    3    3    0    0 -0.22277944096E+03  0.11139734973E+03  0.21874616119E+02  0.25003709259E+03  0.00000000000E+00 0. -1.
        -11    1    3    3    0    0 -0.46911270390E+03  0.37350108794E+03 -0.31516822595E+02  0.60046906811E+03  0.00000000000E+00 0.  1.
         22    1    1    2    0    0  0.69189214487E+03 -0.48489843767E+03 -0.37424498265E+02  0.84571971010E+03  0.00000000000E+00 0.  1.
<mgrwt>
<rscale>  0 0.16955727E+04</rscale>
<asrwt>0</asrwt>
<pdfrwt beam="1">  1        2 0.12685840E+00 0.16955727E+04</pdfrwt>
<pdfrwt beam="2">  1       -2 0.13409943E+00 0.16955727E+04</pdfrwt>
<totfact> 0.12632552E+01</totfact>
</mgrwt>
</event>
<event>
 6    1  0.1614874E-005  0.2299158E+04  0.7818608E-02  0.8478253E-01
         -2   -1    0    0    0  501 -0.00000000000E+00  0.00000000000E+00  0.36919736001E+03  0.36919736001E+03  0.00000000000E+00 0.  1.
          2   -1    0    0  501    0  0.00000000000E+00 -0.00000000000E+00 -0.35794734199E+04  0.35794734199E+04  0.00000000000E+00 0. -1.
         23    2    1    2    0    0 -0.46232572971E+03 -0.10137604408E+04 -0.20806815021E+04  0.23620267819E+04  0.92085250233E+02 0.  0.
         11    1    3    3    0    0 -0.12767024051E+03 -0.38670340754E+03 -0.75659334959E+03  0.85922797461E+03  0.00000000000E+00 0. -1.
        -11    1    3    3    0    0 -0.33465548920E+03 -0.62705703325E+03 -0.13240881525E+04  0.15027988072E+04  0.00000000000E+00 0.  1.
         22    1    1    2    0    0  0.46232572971E+03  0.10137604408E+04 -0.11295945578E+04  0.15866439981E+04  0.00000000000E+00 0.  1.
<mgrwt>
<rscale>  0 0.22991582E+04</rscale>
<asrwt>0</asrwt>
<pdfrwt beam="1">  1        2 0.55068824E+00 0.22991582E+04</pdfrwt>
<pdfrwt beam="2">  1       -2 0.56799592E-01 0.22991582E+04</pdfrwt>
<totfact> 0.18881599E+00</totfact>
</mgrwt>
</event>
<event>
 6    1  0.1614874E-005  0.9997016E+03  0.7818608E-02  0.9308872E-01
         -2   -1    0    0    0  501 -0.00000000000E+00  0.00000000000E+00  0.71435067667E+03  0.71435067667E+03  0.00000000000E+00 0.  1.
          2   -1    0    0  501    0  0.00000000000E+00 -0.00000000000E+00 -0.34975935415E+03  0.34975935415E+03  0.00000000000E+00 0. -1.
         23    2    1    2    0    0  0.47980171498E+03  0.11272513114E+03  0.24820191245E+03  0.55768813589E+03  0.80592969150E+02 0.  0.
         13    1    3    3    0    0  0.34712045921E+02  0.18907337057E+02  0.40758438892E-01  0.39527397939E+02  0.00000000000E+00 0. -1.
        -13    1    3    3    0    0  0.44508966906E+03  0.93817794085E+02  0.24816115401E+03  0.51816073795E+03  0.00000000000E+00 0.  1.
         22    1    1    2    0    0 -0.47980171498E+03 -0.11272513114E+03  0.11638941007E+03  0.50642189493E+03  0.00000000000E+00 0.  1.
<mgrwt>
<rscale>  0 0.99970162E+03</rscale>
<asrwt>0</asrwt>
<pdfrwt beam="1">  1        2 0.53809132E-01 0.99970162E+03</pdfrwt>
<pdfrwt beam="2">  1       -2 0.10990010E+00 0.99970162E+03</pdfrwt>
<totfact> 0.60794704E+01</totfact>
</mgrwt>
</event>
<event>
 6    1  0.1614874E-005  0.3586273E+04  0.7818608E-02  0.8093643E-01
          1   -1    0    0  501    0  0.00000000000E+00  0.00000000000E+00  0.30053096059E+04  0.30053096059E+04  0.00000000000E+00 0. -1.
         -1   -1    0    0    0  501 -0.00000000000E+00 -0.00000000000E+00 -0.10698858113E+04  0.10698858113E+04  0.00000000000E+00 0.  1.
         23    2    1    2    0    0 -0.60264476790E+03 -0.32032870555E+03 -0.91435734262E+03  0.11448296165E+04  0.93777954987E+02 0.  0.
         13    1    3    3    0    0 -0.50923681098E+03 -0.26244483336E+03 -0.70530872334E+03  0.90865825008E+03  0.00000000000E+00 0.  1.
        -13    1    3    3    0    0 -0.93407956921E+02 -0.57883872191E+02 -0.20904861928E+03  0.23617136638E+03  0.00000000000E+00 0. -1.
         22    1    1    2    0    0  0.60264476790E+03  0.32032870555E+03  0.28497811373E+04  0.29303658007E+04  0.00000000000E+00 0. -1.
<mgrwt>
<rscale>  0 0.35862728E+04</rscale>
<asrwt>0</asrwt>
<pdfrwt beam="1">  1        1 0.46235532E+00 0.35862728E+04</pdfrwt>
<pdfrwt beam="2">  1       -1 0.16459782E+00 0.35862728E+04</pdfrwt>
<totfact> 0.12939243E-01</totfact>
</mgrwt>
</event>
<event>
 6    1  0.1614874E-005  0.9280538E+03  0.7818608E-02  0.9391177E-01
          2   -1    0    0  501    0  0.00000000000E+00  0.00000000000E+00  0.12263982761E+04  0.12263982761E+04  0.00000000000E+00 0. -1.
         -2   -1    0    0    0  501 -0.00000000000E+00 -0.00000000000E+00 -0.17557179440E+03  0.17557179440E+03  0.00000000000E+00 0.  1.
         23    2    1    2    0    0 -0.13540067799E+03 -0.40898141198E+03  0.28986612964E+03  0.52752178938E+03  0.93046903335E+02 0.  0.
         11    1    3    3    0    0 -0.96359631389E+02 -0.25526088659E+03  0.23376839444E+03  0.35929230583E+03  0.00000000000E+00 0. -1.
        -11    1    3    3    0    0 -0.39041046602E+02 -0.15372052538E+03  0.56097735196E+02  0.16822948356E+03  0.00000000000E+00 0.  1.
         22    1    1    2    0    0  0.13540067799E+03  0.40898141198E+03  0.76096035208E+03  0.87444828113E+03  0.00000000000E+00 0. -1.
<mgrwt>
<rscale>  0 0.92805376E+03</rscale>
<asrwt>0</asrwt>
<pdfrwt beam="1">  1        2 0.18867665E+00 0.92805376E+03</pdfrwt>
<pdfrwt beam="2">  1       -2 0.27011046E-01 0.92805376E+03</pdfrwt>
<totfact> 0.22753201E+02</totfact>
</mgrwt>
</event>
<event>
 6    1  0.1614874E-005  0.4076772E+04  0.7818608E-02  0.7989236E-01
         -2   -1    0    0    0  501 -0.00000000000E+00  0.00000000000E+00  0.22101300923E+04  0.22101300923E+04  0.00000000000E+00 0.  1.
          2   -1    0    0  501    0  0.00000000000E+00 -0.00000000000E+00 -0.18799874245E+04  0.18799874245E+04  0.00000000000E+00 0. -1.
         23    2    1    2    0    0  0.97197942453E+03 -0.15915673229E+04  0.98770911651E+03  0.21126888380E+04  0.10027104457E+03 0.  0.
         11    1    3    3    0    0  0.81725259614E+02 -0.88119734388E+02  0.57121351469E+02  0.13306748078E+03  0.00000000000E+00 0. -1.
        -11    1    3    3    0    0  0.89025416492E+03 -0.15034475885E+04  0.93058776504E+03  0.19796213572E+04  0.00000000000E+00 0.  1.
         22    1    1    2    0    0 -0.97197942453E+03  0.15915673229E+04 -0.65756644870E+03  0.19774286787E+04  0.00000000000E+00 0. -1.
<mgrwt>
<rscale>  0 0.40767717E+04</rscale>
<asrwt>0</asrwt>
<pdfrwt beam="1">  1        2 0.28922883E+00 0.40767717E+04</pdfrwt>
<pdfrwt beam="2">  1       -2 0.34002002E+00 0.40767717E+04</pdfrwt>
<totfact> 0.10977231E-01</totfact>
</mgrwt>
</event>
<event>
 6    1  0.1614874E-005  0.1855865E+04  0.7818608E-02  0.8677142E-01
         -2   -1    0    0    0  501 -0.00000000000E+00  0.00000000000E+00  0.47036617283E+03  0.47036617283E+03  0.00000000000E+00 0.  1.
          2   -1    0    0  501    0  0.00000000000E+00 -0.00000000000E+00 -0.18306145772E+04  0.18306145772E+04  0.00000000000E+00 0. -1.
         23    2    1    2    0    0 -0.17286666192E+03 -0.29531896081E+03 -0.17481684174E+04  0.17837012240E+04  0.91657348105E+02 0.  0.
         13    1    3    3    0    0 -0.49014752195E+02 -0.91874397250E+02 -0.76706740755E+03  0.77410319630E+03  0.00000000000E+00 0. -1.
        -13    1    3    3    0    0 -0.12385190973E+03 -0.20344456356E+03 -0.98110100988E+03  0.10095980277E+04  0.00000000000E+00 0.  1.
         22    1    1    2    0    0  0.17286666192E+03  0.29531896081E+03  0.38792001311E+03  0.51727952597E+03  0.00000000000E+00 0.  1.
<mgrwt>
<rscale>  0 0.18558655E+04</rscale>
<asrwt>0</asrwt>
<pdfrwt beam="1">  1        2 0.28163301E+00 0.18558655E+04</pdfrwt>
<pdfrwt beam="2">  1       -2 0.72364027E-01 0.18558655E+04</pdfrwt>
<totfact> 0.13476658E+01</totfact>
</mgrwt>
</event>
<event>
 6    1  0.1614874E-005  0.1676854E+04  0.7818608E-02  0.8774677E-01
         -2   -1    0    0    0  501 -0.00000000000E+00  0.00000000000E+00  0.42329142639E+03  0.42329142639E+03  0.00000000000E+00 0.  1.
          2   -1    0    0  501    0  0.00000000000E+00 -0.00000000000E+00 -0.16606986430E+04  0.16606986430E+04  0.00000000000E+00 0. -1.
         23    2    1    2    0    0 -0.14798161279E+03 -0.36768167610E+03 -0.15352937121E+04  0.15881829125E+04  0.90054475656E+02 0.  0.
         11    1    3    3    0    0 -0.13922679884E+03 -0.28592140631E+03 -0.13187345763E+04  0.13565382541E+04  0.00000000000E+00 0. -1.
        -11    1    3    3    0    0 -0.87548139522E+01 -0.81760269796E+02 -0.21655913582E+03  0.23164465846E+03  0.00000000000E+00 0.  1.
         22    1    1    2    0    0  0.14798161279E+03  0.36768167610E+03  0.29788649545E+03  0.49580715690E+03  0.00000000000E+00 0.  1.
<mgrwt>
<rscale>  0 0.16768536E+04</rscale>
<asrwt>0</asrwt>
<pdfrwt beam="1">  1        2 0.25549210E+00 0.16768536E+04</pdfrwt>
<pdfrwt beam="2">  1       -2 0.65121757E-01 0.16768536E+04</pdfrwt>
<totfact> 0.21376273E+01</totfact>
</mgrwt>
</event>
<event>
 6    1  0.1614874E-005  0.3186061E+04  0.7818608E-02  0.8192508E-01
         -1   -1    0    0    0  501 -0.00000000000E+00  0.00000000000E+00  0.11845719646E+04  0.11845719646E+04  0.00000000000E+00 0.  1.
          1   -1    0    0  501    0  0.00000000000E+00 -0.00000000000E+00 -0.21423318535E+04  0.21423318535E+04  0.00000000000E+00 0. -1.
         23    2    1    2    0    0  0.26153679026E+03 -0.13066718907E+04  0.43014422075E+03  0.14028272240E+04  0.84304490285E+02 0.  0.
         13    1    3    3    0    0  0.13912188488E+03 -0.70900017046E+03  0.18911267618E+03  0.74685992319E+03  0.00000000000E+00 0. -1.
        -13    1    3    3    0    0  0.12241490538E+03 -0.59767172023E+03  0.24103154457E+03  0.65596730078E+03  0.00000000000E+00 0.  1.
         22    1    1    2    0    0 -0.26153679026E+03  0.13066718907E+04 -0.13879041096E+04  0.19240765941E+04  0.00000000000E+00 0. -1.
<mgrwt>
<rscale>  0 0.31860610E+04</rscale>
<asrwt>0</asrwt>
<pdfrwt beam="1">  1        1 0.32958952E+00 0.31860610E+04</pdfrwt>
<pdfrwt beam="2">  1       -1 0.18224184E+00 0.31860610E+04</pdfrwt>
<totfact> 0.40062233E-01</totfact>
</mgrwt>
</event>
<event>
 6    1  0.1614874E-005  0.5342819E+03  0.7818608E-02  0.1005199E+00
          3   -1    0    0  501    0  0.00000000000E+00  0.00000000000E+00  0.17113223833E+03  0.17113223833E+03  0.00000000000E+00 0. -1.
         -3   -1    0    0    0  501 -0.00000000000E+00 -0.00000000000E+00 -0.41701259862E+03  0.41701259862E+03  0.00000000000E+00 0.  1.
         23    2    1    2    0    0  0.19420126140E+03  0.16175522796E+03 -0.63960182578E+02  0.27673861550E+03  0.92814183467E+02 0.  0.
         13    1    3    3    0    0  0.25496003122E+02  0.36836605282E+02  0.21989408191E+02  0.49905067243E+02  0.00000000000E+00 0.  1.
        -13    1    3    3    0    0  0.16870525828E+03  0.12491862268E+03 -0.85949590769E+02  0.22683354826E+03  0.00000000000E+00 0. -1.
         22    1    1    2    0    0 -0.19420126140E+03 -0.16175522796E+03 -0.18192017771E+03  0.31140622145E+03  0.00000000000E+00 0.  1.
<mgrwt>
<rscale>  0 0.53428195E+03</rscale>
<asrwt>0</asrwt>
<pdfrwt beam="1">  1        3 0.26328037E-01 0.53428195E+03</pdfrwt>
<pdfrwt beam="2">  1       -3 0.64155784E-01 0.53428195E+03</pdfrwt>
<totfact> 0.85352391E+01</totfact>
</mgrwt>
</event>
<event>
 6    1  0.1614874E-005  0.1725597E+04  0.7818608E-02  0.8746898E-01
         -1   -1    0    0    0  501 -0.00000000000E+00  0.00000000000E+00  0.33707882850E+03  0.33707882850E+03  0.00000000000E+00 0.  1.
          1   -1    0    0  501    0  0.00000000000E+00 -0.00000000000E+00 -0.22084491856E+04  0.22084491856E+04  0.00000000000E+00 0. -1.
         23    2    1    2    0    0  0.52709462117E+03 -0.64144022804E+03 -0.60466130252E+03  0.10309897562E+04  0.89723356573E+02 0.  0.
         11    1    3    3    0    0  0.13242039641E+03 -0.15638712581E+03 -0.10328651269E+03  0.22947809963E+03  0.00000000000E+00 0. -1.
        -11    1    3    3    0    0  0.39467422475E+03 -0.48505310223E+03 -0.50137478983E+03  0.80151165653E+03  0.00000000000E+00 0.  1.
         22    1    1    2    0    0 -0.52709462117E+03  0.64144022804E+03 -0.12667090545E+04  0.15145382579E+04  0.00000000000E+00 0. -1.
<mgrwt>
<rscale>  0 0.17255972E+04</rscale>
<asrwt>0</asrwt>
<pdfrwt beam="1">  1        1 0.33976140E+00 0.17255972E+04</pdfrwt>
<pdfrwt beam="2">  1       -1 0.51858283E-01 0.17255972E+04</pdfrwt>
<totfact> 0.76458028E+00</totfact>
</mgrwt>
</event>
<event>
 6    1  0.1614874E-005  0.1959077E+04  0.7818608E-02  0.8625996E-01
         -1   -1    0    0    0  501 -0.00000000000E+00  0.00000000000E+00  0.85570213119E+03  0.85570213119E+03  0.00000000000E+00 0.  1.
          1   -1    0    0  501    0  0.00000000000E+00 -0.00000000000E+00 -0.11212960720E+04  0.11212960720E+04  0.00000000000E+00 0. -1.
         23    2    1    2    0    0 -0.55161831425E+02  0.91266578683E+03 -0.48130915425E+03  0.10375650127E+04  0.94238991778E+02 0.  0.
         11    1    3    3    0    0 -0.72488384396E+02  0.42057633303E+03 -0.22482121014E+03  0.48237287891E+03  0.00000000000E+00 0. -1.
        -11    1    3    3    0    0  0.17326552971E+02  0.49208945380E+03 -0.25648794411E+03  0.55519213381E+03  0.00000000000E+00 0.  1.
         22    1    1    2    0    0  0.55161831425E+02 -0.91266578683E+03  0.21571521341E+03  0.93943319049E+03  0.00000000000E+00 0. -1.
<mgrwt>
<rscale>  0 0.19590768E+04</rscale>
<asrwt>0</asrwt>
<pdfrwt beam="1">  1        1 0.17250709E+00 0.19590768E+04</pdfrwt>
<pdfrwt beam="2">  1       -1 0.13164648E+00 0.19590768E+04</pdfrwt>
<totfact> 0.55885375E+00</totfact>
</mgrwt>
</event>
<event>
 6    1  0.1614874E-005  0.1603614E+04  0.7818608E-02  0.8818331E-01
         -3   -1    0    0    0  501 -0.00000000000E+00  0.00000000000E+00  0.60207023377E+03  0.60207023377E+03  0.00000000000E+00 0. -1.
          3   -1    0    0  501    0  0.00000000000E+00 -0.00000000000E+00 -0.10678066262E+04  0.10678066262E+04  0.00000000000E+00 0.  1.
         23    2    1    2    0    0 -0.62683693757E+03 -0.33980717298E+02 -0.74649067033E+03  0.98219801054E+03  0.11569518386E+03 0.  0.
         13    1    3    3    0    0 -0.31329630107E+03  0.24079246509E+02 -0.43333284349E+03  0.53526791013E+03  0.00000000000E+00 0.  1.
        -13    1    3    3    0    0 -0.31354063650E+03 -0.58059963807E+02 -0.31315782685E+03  0.44693010041E+03  0.00000000000E+00 0. -1.
         22    1    1    2    0    0  0.62683693757E+03  0.33980717298E+02  0.28075427787E+03  0.68767884946E+03  0.00000000000E+00 0. -1.
<mgrwt>
<rscale>  0 0.16036141E+04</rscale>
<asrwt>0</asrwt>
<pdfrwt beam="1">  1        3 0.16427794E+00 0.16036141E+04</pdfrwt>
<pdfrwt beam="2">  1       -3 0.92626191E-01 0.16036141E+04</pdfrwt>
<totfact> 0.66710023E-01</totfact>
</mgrwt>
</event>
<event>
 6    1  0.4394284E-005  0.2659072E+04  0.7818608E-02  0.8348408E-01
         -2   -1    0    0    0  501 -0.00000000000E+00  0.00000000000E+00  0.16124268486E+04  0.16124268486E+04  0.00000000000E+00 0. -1.
          2   -1    0    0  501    0  0.00000000000E+00 -0.00000000000E+00 -0.10962763648E+04  0.10962763648E+04  0.00000000000E+00 0.  1.
         23    2    1    2    0    0 -0.28730767060E+03  0.71070749139E+01  0.15791688231E+04  0.16075201233E+04  0.88037303931E+02 0.  0.
         11    1    3    3    0    0 -0.10075504782E+03  0.40002922322E+02  0.68296871746E+03  0.69151867834E+03  0.00000000000E+00 0.  1.
        -11    1    3    3    0    0 -0.18655262277E+03 -0.32895847408E+02  0.89620010564E+03  0.91600144497E+03  0.00000000000E+00 0. -1.
         22    1    1    2    0    0  0.28730767060E+03 -0.71070749139E+01 -0.10630183393E+04  0.11011830900E+04  0.00000000000E+00 0.  1.
<mgrwt>
<rscale>  0 0.26590716E+04</rscale>
<asrwt>0</asrwt>
<pdfrwt beam="1">  1        2 0.16865790E+00 0.26590716E+04</pdfrwt>
<pdfrwt beam="2">  1       -2 0.24806567E+00 0.26590716E+04</pdfrwt>
<totfact> 0.12733051E+00</totfact>
</mgrwt>
</event>
<event>
 6    1  0.1614874E-005  0.3068630E+04  0.7818608E-02  0.8224400E-01
         -2   -1    0    0    0  501 -0.00000000000E+00  0.00000000000E+00  0.95018069116E+03  0.95018069116E+03  0.00000000000E+00 0. -1.
          2   -1    0    0  501    0  0.00000000000E+00 -0.00000000000E+00 -0.24775526826E+04  0.24775526826E+04  0.00000000000E+00 0.  1.
         23    2    1    2    0    0 -0.44145095807E+03  0.13370406890E+04 -0.87503156758E+02  0.14138368983E+04  0.93387473009E+02 0.  0.
         11    1    3    3    0    0 -0.24099349380E+03  0.86675325938E+03 -0.42588169810E+02  0.90064023279E+03  0.00000000000E+00 0.  1.
        -11    1    3    3    0    0 -0.20045746428E+03  0.47028742966E+03 -0.44914986948E+02  0.51319666555E+03  0.00000000000E+00 0. -1.
         22    1    1    2    0    0  0.44145095807E+03 -0.13370406890E+04 -0.14398688346E+04  0.20138964754E+04  0.00000000000E+00 0.  1.
<mgrwt>
<rscale>  0 0.30686301E+04</rscale>
<asrwt>0</asrwt>
<pdfrwt beam="1">  1        2 0.38116195E+00 0.30686301E+04</pdfrwt>
<pdfrwt beam="2">  1       -2 0.14618165E+00 0.30686301E+04</pdfrwt>
<totfact> 0.97915042E-01</totfact>
</mgrwt>
</event>
<event>
 6    1  0.1614874E-005  0.1501290E+04  0.7818608E-02  0.8883596E-01
          3   -1    0    0  501    0  0.00000000000E+00  0.00000000000E+00  0.24360580818E+03  0.24360580818E+03  0.00000000000E+00 0. -1.
         -3   -1    0    0    0  501 -0.00000000000E+00 -0.00000000000E+00 -0.23130309895E+04  0.23130309895E+04  0.00000000000E+00 0.  1.
         23    2    1    2    0    0 -0.14891339070E+03  0.67292974124E+03 -0.15336587899E+04  0.16836790319E+04  0.87499509933E+02 0.  0.
         11    1    3    3    0    0 -0.49531018097E+02  0.84351963696E+02 -0.21957097911E+03  0.24037468752E+03  0.00000000000E+00 0.  1.
        -11    1    3    3    0    0 -0.99382372606E+02  0.58857777755E+03 -0.13140878107E+04  0.14433043444E+04  0.00000000000E+00 0. -1.
         22    1    1    2    0    0  0.14891339070E+03 -0.67292974124E+03 -0.53576639145E+03  0.87295776575E+03  0.00000000000E+00 0. -1.
<mgrwt>
<rscale>  0 0.15012898E+04</rscale>
<asrwt>0</asrwt>
<pdfrwt beam="1">  1        3 0.37477817E-01 0.15012898E+04</pdfrwt>
<pdfrwt beam="2">  1       -3 0.35585092E+00 0.15012898E+04</pdfrwt>
<totfact> 0.33470075E-01</totfact>
</mgrwt>
</event>
<event>
 6    1  0.1614874E-005  0.1073956E+04  0.7818608E-02  0.9230955E-01
          1   -1    0    0  501    0  0.00000000000E+00  0.00000000000E+00  0.29688722836E+03  0.29688722836E+03  0.00000000000E+00 0. -1.
         -1   -1    0    0    0  501 -0.00000000000E+00 -0.00000000000E+00 -0.97122804367E+03  0.97122804367E+03  0.00000000000E+00 0.  1.
         23    2    1    2    0    0  0.27185028461E+03  0.45299903162E+03 -0.42269380196E+03  0.68293417253E+03  0.92834982065E+02 0.  0.
         13    1    3    3    0    0  0.12847139512E+03  0.15512141545E+03 -0.20323924295E+03  0.28613588165E+03  0.00000000000E+00 0. -1.
        -13    1    3    3    0    0  0.14337888949E+03  0.29787761618E+03 -0.21945455901E+03  0.39679829088E+03  0.00000000000E+00 0.  1.
         22    1    1    2    0    0 -0.27185028461E+03 -0.45299903162E+03 -0.25164701335E+03  0.58518109951E+03  0.00000000000E+00 0.  1.
<mgrwt>
<rscale>  0 0.10739557E+04</rscale>
<asrwt>0</asrwt>
<pdfrwt beam="1">  1        1 0.45674959E-01 0.10739557E+04</pdfrwt>
<pdfrwt beam="2">  1       -1 0.14941970E+00 0.10739557E+04</pdfrwt>
<totfact> 0.31282085E+01</totfact>
</mgrwt>
</event>
<event>
 6    1  0.1614874E-005  0.8352950E+03  0.7818608E-02  0.9510289E-01
         -2   -1    0    0    0  501 -0.00000000000E+00  0.00000000000E+00  0.39383982008E+03  0.39383982008E+03  0.00000000000E+00 0.  1.
          2   -1    0    0  501    0  0.00000000000E+00 -0.00000000000E+00 -0.44289431917E+03  0.44289431917E+03  0.00000000000E+00 0. -1.
         23    2    1    2    0    0  0.14140874185E+03  0.93341606887E+02  0.35200013881E+03  0.40135624543E+03  0.92052431651E+02 0.  0.
         13    1    3    3    0    0  0.86794552596E+02  0.45816785331E+02  0.10397075871E+03  0.14297688920E+03  0.00000000000E+00 0.  1.
        -13    1    3    3    0    0  0.54614189253E+02  0.47524821556E+02  0.24802938010E+03  0.25837935623E+03  0.00000000000E+00 0. -1.
         22    1    1    2    0    0 -0.14140874185E+03 -0.93341606887E+02 -0.40105463790E+03  0.43537789382E+03  0.00000000000E+00 0. -1.
<mgrwt>
<rscale>  0 0.83529496E+03</rscale>
<asrwt>0</asrwt>
<pdfrwt beam="1">  1        2 0.68137588E-01 0.83529496E+03</pdfrwt>
<pdfrwt beam="2">  1       -2 0.60590742E-01 0.83529496E+03</pdfrwt>
<totfact> 0.18083348E+02</totfact>
</mgrwt>
</event>
<event>
 6    1  0.1614874E-005  0.4379806E+03  0.7818608E-02  0.1031368E+00
         -2   -1    0    0    0  501 -0.00000000000E+00  0.00000000000E+00  0.81614061288E+02  0.81614061288E+02  0.00000000000E+00 0.  1.
          2   -1    0    0  501    0  0.00000000000E+00 -0.00000000000E+00 -0.58760390611E+03  0.58760390611E+03  0.00000000000E+00 0. -1.
         23    2    1    2    0    0 -0.17396097154E+03 -0.42659602721E+01 -0.85155191404E+02  0.21382536364E+03  0.90494538398E+02 0.  0.
         13    1    3    3    0    0 -0.74827907788E+02 -0.44435548518E+02 -0.22600632293E+02  0.89913971862E+02  0.00000000000E+00 0.  1.
        -13    1    3    3    0    0 -0.99133063748E+02  0.40169588245E+02 -0.62554559111E+02  0.12391139178E+03  0.00000000000E+00 0. -1.
         22    1    1    2    0    0  0.17396097154E+03  0.42659602721E+01 -0.42083465341E+03  0.45539260375E+03  0.00000000000E+00 0. -1.
<mgrwt>
<rscale>  0 0.43798055E+03</rscale>
<asrwt>0</asrwt>
<pdfrwt beam="1">  1        2 0.90400599E-01 0.43798055E+03</pdfrwt>
<pdfrwt beam="2">  1       -2 0.12556010E-01 0.43798055E+03</pdfrwt>
<totfact> 0.23878617E+03</totfact>
</mgrwt>
</event>
<event>
 6    1  0.1614874E-005  0.3707285E+04  0.7818608E-02  0.8066349E-01
         -1   -1    0    0    0  501 -0.00000000000E+00  0.00000000000E+00  0.17651299396E+04  0.17651299396E+04  0.00000000000E+00 0.  1.
          1   -1    0    0  501    0  0.00000000000E+00 -0.00000000000E+00 -0.19465930757E+04  0.19465930757E+04  0.00000000000E+00 0. -1.
         23    2    1    2    0    0  0.10177370837E+04 -0.10118795904E+04  0.10818207922E+04  0.17997671162E+04  0.95584355420E+02 0.  0.
         11    1    3    3    0    0  0.29825476318E+03 -0.30858521930E+03  0.27067266254E+03  0.50738982210E+03  0.00000000000E+00 0.  1.
        -11    1    3    3    0    0  0.71948232053E+03 -0.70329437112E+03  0.81114812963E+03  0.12923772941E+04  0.00000000000E+00 0. -1.
         22    1    1    2    0    0 -0.10177370837E+04  0.10118795904E+04 -0.12632839282E+04  0.19119558991E+04  0.00000000000E+00 0. -1.
<mgrwt>
<rscale>  0 0.37072846E+04</rscale>
<asrwt>0</asrwt>
<pdfrwt beam="1">  1        1 0.29947586E+00 0.37072846E+04</pdfrwt>
<pdfrwt beam="2">  1       -1 0.27155845E+00 0.37072846E+04</pdfrwt>
<totfact> 0.13112702E-01</totfact>
</mgrwt>
</event>
<event>
 6    1  0.1614874E-005  0.1391863E+04  0.7818608E-02  0.8959730E-01
          1   -1    0    0  501    0  0.00000000000E+00  0.00000000000E+00  0.55158270821E+03  0.55158270821E+03  0.00000000000E+00 0. -1.
         -1   -1    0    0    0  501 -0.00000000000E+00 -0.00000000000E+00 -0.87805608181E+03  0.87805608181E+03  0.00000000000E+00 0.  1.
         23    2    1    2    0    0 -0.37310763708E+03 -0.54651781941E+03 -0.37506154870E+03  0.76612402263E+03  0.91563185590E+02 0.  0.
         11    1    3    3    0    0 -0.26069539965E+03 -0.43290355783E+03 -0.25373851134E+03  0.56546513059E+03  0.00000000000E+00 0. -1.
        -11    1    3    3    0    0 -0.11241223743E+03 -0.11361426158E+03 -0.12132303736E+03  0.20065889204E+03  0.00000000000E+00 0.  1.
         22    1    1    2    0    0  0.37310763708E+03  0.54651781941E+03  0.48588175104E+02  0.66351476739E+03  0.00000000000E+00 0. -1.
<mgrwt>
<rscale>  0 0.13918629E+04</rscale>
<asrwt>0</asrwt>
<pdfrwt beam="1">  1        1 0.84858879E-01 0.13918629E+04</pdfrwt>
<pdfrwt beam="2">  1       -1 0.13508555E+00 0.13918629E+04</pdfrwt>
<totfact> 0.17338887E+01</totfact>
</mgrwt>
</event>
<event>
 6    1  0.1614874E-005  0.2404395E+04  0.7818608E-02  0.8437860E-01
          2   -1    0    0  501    0  0.00000000000E+00  0.00000000000E+00  0.34405174477E+04  0.34405174477E+04  0.00000000000E+00 0. -1.
         -2   -1    0    0    0  501 -0.00000000000E+00 -0.00000000000E+00 -0.42007596353E+03  0.42007596353E+03  0.00000000000E+00 0.  1.
         23    2    1    2    0    0  0.41479950676E+03  0.89134589082E+03  0.26186200099E+04  0.27985121408E+04  0.89125292862E+02 0.  0.
         11    1    3    3    0    0  0.25830026817E+03  0.51347692498E+03  0.16426223712E+04  0.17402832630E+04  0.00000000000E+00 0.  1.
        -11    1    3    3    0    0  0.15649923859E+03  0.37786896584E+03  0.97599763870E+03  0.10582288778E+04  0.00000000000E+00 0. -1.
         22    1    1    2    0    0 -0.41479950676E+03 -0.89134589082E+03  0.40182147426E+03  0.10620812705E+04  0.00000000000E+00 0. -1.
<mgrwt>
<rscale>  0 0.24043949E+04</rscale>
<asrwt>0</asrwt>
<pdfrwt beam="1">  1        2 0.52931036E+00 0.24043949E+04</pdfrwt>
<pdfrwt beam="2">  1       -2 0.64627074E-01 0.24043949E+04</pdfrwt>
<totfact> 0.17797433E+00</totfact>
</mgrwt>
</event>
<event>
 6    1  0.1614874E-005  0.8112655E+03  0.7818608E-02  0.9543852E-01
         -1   -1    0    0    0  501 -0.00000000000E+00  0.00000000000E+00  0.65962980807E+03  0.65962980807E+03  0.00000000000E+00 0.  1.
          1   -1    0    0  501    0  0.00000000000E+00 -0.00000000000E+00 -0.24943977001E+03  0.24943977001E+03  0.00000000000E+00 0. -1.
         23    2    1    2    0    0 -0.15687099991E+03  0.19606887471E+03 -0.14050757581E+03  0.30382634090E+03  0.97552818088E+02 0.  0.
         11    1    3    3    0    0 -0.67633295470E+02  0.18521271342E+02 -0.28269078280E+02  0.75607148703E+02  0.00000000000E+00 0. -1.
        -11    1    3    3    0    0 -0.89237704443E+02  0.17754760337E+03 -0.11223849753E+03  0.22821919219E+03  0.00000000000E+00 0.  1.
         22    1    1    2    0    0  0.15687099991E+03 -0.19606887471E+03  0.55069761387E+03  0.60524323719E+03  0.00000000000E+00 0.  1.
<mgrwt>
<rscale>  0 0.81126545E+03</rscale>
<asrwt>0</asrwt>
<pdfrwt beam="1">  1        1 0.38375349E-01 0.81126545E+03</pdfrwt>
<pdfrwt beam="2">  1       -1 0.10148151E+00 0.81126545E+03</pdfrwt>
<totfact> 0.10403340E+02</totfact>
</mgrwt>
</event>
<event>
 6    1  0.1614874E-005  0.2600232E+04  0.7818608E-02  0.8368122E-01
          2   -1    0    0  501    0  0.00000000000E+00  0.00000000000E+00  0.10693642910E+04  0.10693642910E+04  0.00000000000E+00 0. -1.
         -2   -1    0    0    0  501 -0.00000000000E+00 -0.00000000000E+00 -0.15806607099E+04  0.15806607099E+04  0.00000000000E+00 0.  1.
         23    2    1    2    0    0  0.56826925570E+03  0.10329449326E+04  0.29855603941E+03  0.12197221710E+04  0.93173414485E+02 0.  0.
         11    1    3    3    0    0  0.10101588029E+03  0.19166308553E+03  0.18365504533E+02  0.21743099637E+03  0.00000000000E+00 0.  1.
        -11    1    3    3    0    0  0.46725337541E+03  0.84128184705E+03  0.28019053487E+03  0.10022911747E+04  0.00000000000E+00 0. -1.
         22    1    1    2    0    0 -0.56826925570E+03 -0.10329449326E+04 -0.80985245831E+03  0.14303028298E+04  0.00000000000E+00 0.  1.
<mgrwt>
<rscale>  0 0.26002324E+04</rscale>
<asrwt>0</asrwt>
<pdfrwt beam="1">  1        2 0.16451758E+00 0.26002324E+04</pdfrwt>
<pdfrwt beam="2">  1       -2 0.24317857E+00 0.26002324E+04</pdfrwt>
<totfact> 0.14253181E+00</totfact>
</mgrwt>
</event>
<event>
 6    1  0.1614874E-005  0.2879631E+04  0.7818608E-02  0.8278964E-01
         -1   -1    0    0    0  501 -0.00000000000E+00  0.00000000000E+00  0.72246087636E+03  0.72246087636E+03  0.00000000000E+00 0.  1.
          1   -1    0    0  501    0  0.00000000000E+00 -0.00000000000E+00 -0.28694546670E+04  0.28694546670E+04  0.00000000000E+00 0. -1.
         23    2    1    2    0    0  0.37013791631E+03 -0.52326784900E+03  0.53156862674E+03  0.83773545797E+03  0.91783297607E+02 0.  0.
         13    1    3    3    0    0  0.10648874140E+03 -0.20095854533E+03  0.23111753227E+03  0.32425222082E+03  0.00000000000E+00 0.  1.
        -13    1    3    3    0    0  0.26364917491E+03 -0.32230930367E+03  0.30045109447E+03  0.51348323715E+03  0.00000000000E+00 0. -1.
         22    1    1    2    0    0 -0.37013791631E+03  0.52326784900E+03 -0.26785624173E+04  0.27541800853E+04  0.00000000000E+00 0. -1.
<mgrwt>
<rscale>  0 0.28796310E+04</rscale>
<asrwt>0</asrwt>
<pdfrwt beam="1">  1        1 0.44145457E+00 0.28796310E+04</pdfrwt>
<pdfrwt beam="2">  1       -1 0.11114783E+00 0.28796310E+04</pdfrwt>
<totfact> 0.47553769E-01</totfact>
</mgrwt>
</event>
<event>
 6    1  0.1614874E-005  0.3183621E+04  0.7818608E-02  0.8193156E-01
         -1   -1    0    0    0  501 -0.00000000000E+00  0.00000000000E+00  0.95583928000E+03  0.95583928000E+03  0.00000000000E+00 0.  1.
          1   -1    0    0  501    0  0.00000000000E+00 -0.00000000000E+00 -0.26509278343E+04  0.26509278343E+04  0.00000000000E+00 0. -1.
         23    2    1    2    0    0 -0.99599298469E+03 -0.24704647276E+03  0.52837750137E+03  0.11579234513E+04  0.92574023401E+02 0.  0.
         11    1    3    3    0    0 -0.37371562201E+03 -0.80690371986E+02  0.14873741540E+03  0.41024032104E+03  0.00000000000E+00 0.  1.
        -11    1    3    3    0    0 -0.62227736268E+03 -0.16635610078E+03  0.37964008597E+03  0.74768313024E+03  0.00000000000E+00 0. -1.
         22    1    1    2    0    0  0.99599298469E+03  0.24704647276E+03 -0.22234660557E+04  0.24488436631E+04  0.00000000000E+00 0. -1.
<mgrwt>
<rscale>  0 0.31836212E+04</rscale>
<asrwt>0</asrwt>
<pdfrwt beam="1">  1        1 0.40783505E+00 0.31836212E+04</pdfrwt>
<pdfrwt beam="2">  1       -1 0.14705220E+00 0.31836212E+04</pdfrwt>
<totfact> 0.32751780E-01</totfact>
</mgrwt>
</event>
<event>
 6    1  0.1614874E-005  0.2860632E+04  0.7818608E-02  0.8284688E-01
         -2   -1    0    0    0  501 -0.00000000000E+00  0.00000000000E+00  0.56499651757E+03  0.56499651757E+03  0.00000000000E+00 0.  1.
          2   -1    0    0  501    0  0.00000000000E+00 -0.00000000000E+00 -0.36209145562E+04  0.36209145562E+04  0.00000000000E+00 0. -1.
         23    2    1    2    0    0  0.78458210387E+03 -0.11847711947E+04 -0.13106299656E+04  0.19352928655E+04  0.91409556661E+02 0.  0.
         13    1    3    3    0    0  0.33667922060E+03 -0.43734635657E+03 -0.53701814726E+03  0.77007351836E+03  0.00000000000E+00 0. -1.
        -13    1    3    3    0    0  0.44790288328E+03 -0.74742483812E+03 -0.77361181829E+03  0.11652193471E+04  0.00000000000E+00 0.  1.
         22    1    1    2    0    0 -0.78458210387E+03  0.11847711947E+04 -0.17452880731E+04  0.22506182083E+04  0.00000000000E+00 0. -1.
<mgrwt>
<rscale>  0 0.28606322E+04</rscale>
<asrwt>0</asrwt>
<pdfrwt beam="1">  1        2 0.55706375E+00 0.28606322E+04</pdfrwt>
<pdfrwt beam="2">  1       -2 0.86922546E-01 0.28606322E+04</pdfrwt>
<totfact> 0.66084024E-01</totfact>
</mgrwt>
</event>
<event>
 6    1  0.1614874E-005  0.1464365E+04  0.7818608E-02  0.8908502E-01
         -2   -1    0    0    0  501 -0.00000000000E+00  0.00000000000E+00  0.17634598477E+03  0.17634598477E+03  0.00000000000E+00 0.  1.
          2   -1    0    0  501    0  0.00000000000E+00 -0.00000000000E+00 -0.30399967314E+04  0.30399967314E+04  0.00000000000E+00 0. -1.
         23    2    1    2    0    0 -0.66949791639E+03 -0.28547540976E+03 -0.13339437111E+04  0.15223157730E+04  0.91191110902E+02 0.  0.
         13    1    3    3    0    0 -0.37999136638E+03 -0.20826060757E+03 -0.75906413214E+03  0.87403905856E+03  0.00000000000E+00 0. -1.
        -13    1    3    3    0    0 -0.28950655001E+03 -0.77214802189E+02 -0.57487957897E+03  0.64827671445E+03  0.00000000000E+00 0.  1.
         22    1    1    2    0    0  0.66949791639E+03  0.28547540976E+03 -0.15297070355E+04  0.16940269431E+04  0.00000000000E+00 0. -1.
<mgrwt>
<rscale>  0 0.14643650E+04</rscale>
<asrwt>0</asrwt>
<pdfrwt beam="1">  1        2 0.46769186E+00 0.14643650E+04</pdfrwt>
<pdfrwt beam="2">  1       -2 0.27130149E-01 0.14643650E+04</pdfrwt>
<totfact> 0.19832749E+01</totfact>
</mgrwt>
</event>
<event>
 6    1  0.1614874E-005  0.1364156E+04  0.7818608E-02  0.8980181E-01
          2   -1    0    0  501    0  0.00000000000E+00  0.00000000000E+00  0.33961861716E+03  0.33961861716E+03  0.00000000000E+00 0. -1.
         -2   -1    0    0    0  501 -0.00000000000E+00 -0.00000000000E+00 -0.13698617652E+04  0.13698617652E+04  0.00000000000E+00 0.  1.
         23    2    1    2    0    0  0.14327195786E+03  0.18234158120E+03 -0.13171255576E+04  0.13405944610E+04  0.92727926310E+02 0.  0.
         13    1    3    3    0    0  0.33129744788E+02  0.11659013534E+03 -0.67087537345E+03  0.68173646400E+03  0.00000000000E+00 0. -1.
        -13    1    3    3    0    0  0.11014221308E+03  0.65751445853E+02 -0.64625018412E+03  0.65885799700E+03  0.00000000000E+00 0.  1.
         22    1    1    2    0    0 -0.14327195786E+03 -0.18234158120E+03  0.28688240948E+03  0.36888592140E+03  0.00000000000E+00 0. -1.
<mgrwt>
<rscale>  0 0.13641562E+04</rscale>
<asrwt>0</asrwt>
<pdfrwt beam="1">  1        2 0.52249019E-01 0.13641562E+04</pdfrwt>
<pdfrwt beam="2">  1       -2 0.21074796E+00 0.13641562E+04</pdfrwt>
<totfact> 0.10555412E+01</totfact>
</mgrwt>
</event>
<event>
 6    1  0.1614874E-005  0.9386264E+03  0.7818608E-02  0.9378544E-01
          2   -1    0    0  501    0  0.00000000000E+00  0.00000000000E+00  0.15763475737E+04  0.15763475737E+04  0.00000000000E+00 0. -1.
         -2   -1    0    0    0  501 -0.00000000000E+00 -0.00000000000E+00 -0.13972482385E+03  0.13972482385E+03  0.00000000000E+00 0.  1.
         23    2    1    2    0    0 -0.13005238307E+03 -0.39939763745E+03  0.36020072323E+03  0.56059999437E+03  0.89976094219E+02 0.  0.
         13    1    3    3    0    0  0.11839169455E+02 -0.44985695884E+02  0.26401061992E+02  0.53487333472E+02  0.00000000000E+00 0.  1.
        -13    1    3    3    0    0 -0.14189155252E+03 -0.35441194156E+03  0.33379966123E+03  0.50711266089E+03  0.00000000000E+00 0. -1.
         22    1    1    2    0    0  0.13005238307E+03  0.39939763745E+03  0.10764220266E+04  0.11554724032E+04  0.00000000000E+00 0. -1.
<mgrwt>
<rscale>  0 0.93862642E+03</rscale>
<asrwt>0</asrwt>
<pdfrwt beam="1">  1        2 0.24251500E+00 0.93862642E+03</pdfrwt>
<pdfrwt beam="2">  1       -2 0.21496128E-01 0.93862642E+03</pdfrwt>
<totfact> 0.21660921E+02</totfact>
</mgrwt>
</event>
<event>
 6    1  0.1614874E-005  0.2205716E+04  0.7818608E-02  0.8516053E-01
         -2   -1    0    0    0  501 -0.00000000000E+00  0.00000000000E+00  0.49776857641E+03  0.49776857641E+03  0.00000000000E+00 0. -1.
          2   -1    0    0  501    0  0.00000000000E+00 -0.00000000000E+00 -0.24434974238E+04  0.24434974238E+04  0.00000000000E+00 0.  1.
         23    2    1    2    0    0  0.62919868006E+03  0.63750395261E+03 -0.18281185077E+04  0.20378643949E+04  0.92583718578E+02 0.  0.
         11    1    3    3    0    0  0.20566987900E+03  0.22475775684E+03 -0.52861251613E+03  0.61012075903E+03  0.00000000000E+00 0.  1.
        -11    1    3    3    0    0  0.42352880105E+03  0.41274619577E+03 -0.12995059916E+04  0.14277436358E+04  0.00000000000E+00 0. -1.
         22    1    1    2    0    0 -0.62919868006E+03 -0.63750395261E+03 -0.11761033967E+03  0.90340160537E+03  0.00000000000E+00 0. -1.
<mgrwt>
<rscale>  0 0.22057164E+04</rscale>
<asrwt>0</asrwt>
<pdfrwt beam="1">  1        2 0.37592267E+00 0.22057164E+04</pdfrwt>
<pdfrwt beam="2">  1       -2 0.76579783E-01 0.22057164E+04</pdfrwt>
<totfact> 0.52272493E+00</totfact>
</mgrwt>
</event>
<event>
 6    1  0.1614874E-005  0.1635106E+04  0.7818608E-02  0.8799267E-01
         -2   -1    0    0    0  501 -0.00000000000E+00  0.00000000000E+00  0.35974583553E+03  0.35974583553E+03  0.00000000000E+00 0. -1.
          2   -1    0    0  501    0  0.00000000000E+00 -0.00000000000E+00 -0.18579576882E+04  0.18579576882E+04  0.00000000000E+00 0.  1.
         23    2    1    2    0    0 -0.31769759378E+03 -0.61356331242E+03 -0.16526457174E+03  0.71632410693E+03  0.91739566448E+02 0.  0.
         13    1    3    3    0    0 -0.51195157940E+02 -0.93287015971E+02 -0.60632304383E+02  0.12247321291E+03  0.00000000000E+00 0.  1.
        -13    1    3    3    0    0 -0.26650243584E+03 -0.52027629645E+03 -0.10463226736E+03  0.59385089402E+03  0.00000000000E+00 0. -1.
         22    1    1    2    0    0  0.31769759378E+03  0.61356331242E+03 -0.13329472809E+04  0.15013794168E+04  0.00000000000E+00 0.  1.
<mgrwt>
<rscale>  0 0.16351056E+04</rscale>
<asrwt>0</asrwt>
<pdfrwt beam="1">  1        2 0.28583964E+00 0.16351056E+04</pdfrwt>
<pdfrwt beam="2">  1       -2 0.55345514E-01 0.16351056E+04</pdfrwt>
<totfact> 0.23514750E+01</totfact>
</mgrwt>
</event>
<event>
 6    1  0.2358489E-005  0.2933579E+04  0.7818608E-02  0.8262956E-01
         -2   -1    0    0    0  501 -0.00000000000E+00  0.00000000000E+00  0.10040039097E+04  0.10040039097E+04  0.00000000000E+00 0.  1.
          2   -1    0    0  501    0  0.00000000000E+00 -0.00000000000E+00 -0.21428909794E+04  0.21428909794E+04  0.00000000000E+00 0. -1.
         23    2    1    2    0    0 -0.30876315470E+03  0.13305046793E+04 -0.77971094907E+00  0.13690125119E+04  0.92829211820E+02 0.  0.
         11    1    3    3    0    0 -0.21248527911E+03  0.85316527425E+03 -0.42667265509E+02  0.88026216241E+03  0.00000000000E+00 0. -1.
        -11    1    3    3    0    0 -0.96277875588E+02  0.47733940501E+03  0.41887554560E+02  0.48875034949E+03  0.00000000000E+00 0.  1.
         22    1    1    2    0    0  0.30876315470E+03 -0.13305046793E+04 -0.11381073588E+04  0.17778823773E+04  0.00000000000E+00 0. -1.
<mgrwt>
<rscale>  0 0.29335786E+04</rscale>
<asrwt>0</asrwt>
<pdfrwt beam="1">  1        2 0.32967553E+00 0.29335786E+04</pdfrwt>
<pdfrwt beam="2">  1       -2 0.15446214E+00 0.29335786E+04</pdfrwt>
<totfact> 0.13259721E+00</totfact>
</mgrwt>
</event>
<event>
 6    1  0.1614874E-005  0.3566968E+04  0.7818608E-02  0.8098100E-01
          2   -1    0    0  501    0  0.00000000000E+00  0.00000000000E+00  0.30934084306E+04  0.30934084306E+04  0.00000000000E+00 0. -1.
         -2   -1    0    0    0  501 -0.00000000000E+00 -0.00000000000E+00 -0.10282559338E+04  0.10282559338E+04  0.00000000000E+00 0.  1.
         23    2    1    2    0    0 -0.99170087810E+02  0.73707085858E+03 -0.83830852633E+03  0.11244666616E+04  0.92498274947E+02 0.  0.
         11    1    3    3    0    0 -0.56762406886E+01  0.32750458364E+03 -0.32901253242E+03  0.46426363039E+03  0.00000000000E+00 0. -1.
        -11    1    3    3    0    0 -0.93493847121E+02  0.40956627494E+03 -0.50929599391E+03  0.66020303122E+03  0.00000000000E+00 0.  1.
         22    1    1    2    0    0  0.99170087810E+02 -0.73707085858E+03  0.29034610231E+04  0.29971977028E+04  0.00000000000E+00 0. -1.
<mgrwt>
<rscale>  0 0.35669682E+04</rscale>
<asrwt>0</asrwt>
<pdfrwt beam="1">  1        2 0.47590899E+00 0.35669682E+04</pdfrwt>
<pdfrwt beam="2">  1       -2 0.15819322E+00 0.35669682E+04</pdfrwt>
<totfact> 0.32233913E-01</totfact>
</mgrwt>
</event>
<event>
 6    1  0.1614874E-005  0.2653571E+04  0.7818608E-02  0.8350229E-01
          1   -1    0    0  501    0  0.00000000000E+00  0.00000000000E+00  0.23653245303E+04  0.23653245303E+04  0.00000000000E+00 0. -1.
         -1   -1    0    0    0  501 -0.00000000000E+00 -0.00000000000E+00 -0.74423621678E+03  0.74423621678E+03  0.00000000000E+00 0.  1.
         23    2    1    2    0    0  0.68784816184E+03  0.72898779854E+03  0.18270457739E+04  0.20863419143E+04  0.10083659686E+03 0.  0.
         11    1    3    3    0    0  0.20493559023E+03  0.28642475068E+03  0.62391018365E+03  0.71645073188E+03  0.00000000000E+00 0.  1.
        -11    1    3    3    0    0  0.48291257161E+03  0.44256304786E+03  0.12031355903E+04  0.13698911824E+04  0.00000000000E+00 0. -1.
         22    1    1    2    0    0 -0.68784816184E+03 -0.72898779854E+03 -0.20595746042E+03  0.10232188327E+04  0.00000000000E+00 0.  1.
<mgrwt>
<rscale>  0 0.26535713E+04</rscale>
<asrwt>0</asrwt>
<pdfrwt beam="1">  1        1 0.36389608E+00 0.26535713E+04</pdfrwt>
<pdfrwt beam="2">  1       -1 0.11449788E+00 0.26535713E+04</pdfrwt>
<totfact> 0.10203246E+00</totfact>
</mgrwt>
</event>
<event>
 6    1  0.1614874E-005  0.2118395E+04  0.7818608E-02  0.8553183E-01
          2   -1    0    0  501    0  0.00000000000E+00  0.00000000000E+00  0.30128656106E+04  0.30128656106E+04  0.00000000000E+00 0. -1.
         -2   -1    0    0    0  501 -0.00000000000E+00 -0.00000000000E+00 -0.37236963138E+03  0.37236963138E+03  0.00000000000E+00 0.  1.
         23    2    1    2    0    0 -0.79770931775E+03 -0.31277933954E+03  0.23124781713E+04  0.24677567664E+04  0.89983855481E+02 0.  0.
         13    1    3    3    0    0 -0.21826829969E+03 -0.44497494931E+02  0.57202464839E+03  0.61386747435E+03  0.00000000000E+00 0.  1.
        -13    1    3    3    0    0 -0.57944101806E+03 -0.26828184461E+03  0.17404535229E+04  0.18538892920E+04  0.00000000000E+00 0. -1.
         22    1    1    2    0    0  0.79770931775E+03  0.31277933954E+03  0.32801780785E+03  0.91747847557E+03  0.00000000000E+00 0.  1.
<mgrwt>
<rscale>  0 0.21183953E+04</rscale>
<asrwt>0</asrwt>
<pdfrwt beam="1">  1        2 0.46351777E+00 0.21183953E+04</pdfrwt>
<pdfrwt beam="2">  1       -2 0.57287638E-01 0.21183953E+04</pdfrwt>
<totfact> 0.44978164E+00</totfact>
</mgrwt>
</event>
<event>
 6    1  0.1614874E-005  0.2424196E+04  0.7818608E-02  0.8430500E-01
         -2   -1    0    0    0  501 -0.00000000000E+00  0.00000000000E+00  0.38893822870E+03  0.38893822870E+03  0.00000000000E+00 0.  1.
          2   -1    0    0  501    0  0.00000000000E+00 -0.00000000000E+00 -0.37774156547E+04  0.37774156547E+04  0.00000000000E+00 0. -1.
         23    2    1    2    0    0  0.93319936432E+03  0.76816313581E+03 -0.18016950501E+04  0.21716574240E+04  0.95159112764E+02 0.  0.
         11    1    3    3    0    0  0.46532382141E+03  0.32895713466E+03 -0.80692688490E+03  0.98786135302E+03  0.00000000000E+00 0. -1.
        -11    1    3    3    0    0  0.46787554290E+03  0.43920600115E+03 -0.99476816520E+03  0.11837960709E+04  0.00000000000E+00 0.  1.
         22    1    1    2    0    0 -0.93319936432E+03 -0.76816313581E+03 -0.15867823759E+04  0.19946964594E+04  0.00000000000E+00 0. -1.
<mgrwt>
<rscale>  0 0.24241958E+04</rscale>
<asrwt>0</asrwt>
<pdfrwt beam="1">  1        2 0.58114086E+00 0.24241958E+04</pdfrwt>
<pdfrwt beam="2">  1       -2 0.59836652E-01 0.24241958E+04</pdfrwt>
<totfact> 0.11979856E+00</totfact>
</mgrwt>
</event>
<event>
 6    1  0.1614874E-005  0.1063452E+04  0.7818608E-02  0.9241564E-01
         -2   -1    0    0    0  501 -0.00000000000E+00  0.00000000000E+00  0.12134360923E+03  0.12134360923E+03  0.00000000000E+00 0.  1.
          2   -1    0    0  501    0  0.00000000000E+00 -0.00000000000E+00 -0.23300175043E+04  0.23300175043E+04  0.00000000000E+00 0. -1.
         23    2    1    2    0    0 -0.37977272559E+03 -0.34825415027E+03 -0.13786970091E+04  0.14744425358E+04  0.87561819125E+02 0.  0.
         13    1    3    3    0    0 -0.32455126542E+03 -0.25607371205E+03 -0.11410134715E+04  0.12135975494E+04  0.00000000000E+00 0.  1.
        -13    1    3    3    0    0 -0.55221460172E+02 -0.92180438222E+02 -0.23768353765E+03  0.26084498639E+03  0.00000000000E+00 0. -1.
         22    1    1    2    0    0  0.37977272559E+03  0.34825415027E+03 -0.82997688590E+03  0.97691857768E+03  0.00000000000E+00 0.  1.
<mgrwt>
<rscale>  0 0.10634524E+04</rscale>
<asrwt>0</asrwt>
<pdfrwt beam="1">  1        2 0.35846426E+00 0.10634524E+04</pdfrwt>
<pdfrwt beam="2">  1       -2 0.18668246E-01 0.10634524E+04</pdfrwt>
<totfact> 0.10532568E+02</totfact>
</mgrwt>
</event>
<event>
 6    1  0.1614874E-005  0.1065075E+04  0.7818608E-02  0.9239917E-01
          1   -1    0    0  501    0  0.00000000000E+00  0.00000000000E+00  0.12318120258E+04  0.12318120258E+04  0.00000000000E+00 0. -1.
         -1   -1    0    0    0  501 -0.00000000000E+00 -0.00000000000E+00 -0.23022698768E+03  0.23022698768E+03  0.00000000000E+00 0.  1.
         23    2    1    2    0    0 -0.20021530051E+03 -0.44390556386E+03  0.22359500445E+03  0.54421179191E+03  0.95044369930E+02 0.  0.
         13    1    3    3    0    0 -0.17139057082E+03 -0.38606080986E+03  0.15492100929E+03  0.44990909726E+03  0.00000000000E+00 0.  1.
        -13    1    3    3    0    0 -0.28824729682E+02 -0.57844753995E+02  0.68673995164E+02  0.94302694647E+02  0.00000000000E+00 0. -1.
         22    1    1    2    0    0  0.20021530051E+03  0.44390556386E+03  0.77799003366E+03  0.91782722157E+03  0.00000000000E+00 0. -1.
<mgrwt>
<rscale>  0 0.10650753E+04</rscale>
<asrwt>0</asrwt>
<pdfrwt beam="1">  1        1 0.18950954E+00 0.10650753E+04</pdfrwt>
<pdfrwt beam="2">  1       -1 0.35419537E-01 0.10650753E+04</pdfrwt>
<totfact> 0.76775245E+01</totfact>
</mgrwt>
</event>
<event>
 6    1  0.1614874E-005  0.1862319E+04  0.7818608E-02  0.8673843E-01
          2   -1    0    0  501    0  0.00000000000E+00  0.00000000000E+00  0.52261295133E+03  0.52261295133E+03  0.00000000000E+00 0. -1.
         -2   -1    0    0    0  501 -0.00000000000E+00 -0.00000000000E+00 -0.16590827715E+04  0.16590827715E+04  0.00000000000E+00 0.  1.
         23    2    1    2    0    0 -0.24877171369E+03 -0.79428337976E+03 -0.86446077280E+02  0.84179896802E+03  0.91537562740E+02 0.  0.
         11    1    3    3    0    0 -0.10706712445E+03 -0.37157098449E+03  0.48318889944E+01  0.38671916529E+03  0.00000000000E+00 0.  1.
        -11    1    3    3    0    0 -0.14170458924E+03 -0.42271239527E+03 -0.91277966274E+02  0.45507980273E+03  0.00000000000E+00 0. -1.
         22    1    1    2    0    0  0.24877171369E+03  0.79428337976E+03 -0.10500237429E+04  0.13398967548E+04  0.00000000000E+00 0.  1.
<mgrwt>
<rscale>  0 0.18623191E+04</rscale>
<asrwt>0</asrwt>
<pdfrwt beam="1">  1        2 0.80401994E-01 0.18623191E+04</pdfrwt>
<pdfrwt beam="2">  1       -2 0.25524350E+00 0.18623191E+04</pdfrwt>
<totfact> 0.32774705E+00</totfact>
</mgrwt>
</event>
<event>
 6    1  0.1614874E-005  0.2713785E+04  0.7818608E-02  0.8330546E-01
          2   -1    0    0  501    0  0.00000000000E+00  0.00000000000E+00  0.26900601370E+04  0.26900601370E+04  0.00000000000E+00 0. -1.
         -2   -1    0    0    0  501 -0.00000000000E+00 -0.00000000000E+00 -0.68442976510E+03  0.68442976510E+03  0.00000000000E+00 0.  1.
         23    2    1    2    0    0  0.81942905258E+03  0.31594917140E+03  0.22876326175E+04  0.24520945869E+04  0.90647775785E+02 0.  0.
         13    1    3    3    0    0  0.92231081461E+02  0.56198152407E+02  0.34903372390E+03  0.36536193718E+03  0.00000000000E+00 0. -1.
        -13    1    3    3    0    0  0.72719797112E+03  0.25975101899E+03  0.19385988936E+04  0.20867326497E+04  0.00000000000E+00 0.  1.
         22    1    1    2    0    0 -0.81942905258E+03 -0.31594917140E+03 -0.28200224556E+03  0.92239531526E+03  0.00000000000E+00 0.  1.
<mgrwt>
<rscale>  0 0.27137850E+04</rscale>
<asrwt>0</asrwt>
<pdfrwt beam="1">  1        2 0.41385540E+00 0.27137850E+04</pdfrwt>
<pdfrwt beam="2">  1       -2 0.10529689E+00 0.27137850E+04</pdfrwt>
<totfact> 0.17217982E+00</totfact>
</mgrwt>
</event>
<event>
 6    1  0.1614874E-005  0.1196527E+04  0.7818608E-02  0.9115902E-01
         -1   -1    0    0    0  501 -0.00000000000E+00  0.00000000000E+00  0.52741190432E+03  0.52741190432E+03  0.00000000000E+00 0.  1.
          1   -1    0    0  501    0  0.00000000000E+00 -0.00000000000E+00 -0.67863359260E+03  0.67863359260E+03  0.00000000000E+00 0. -1.
         23    2    1    2    0    0 -0.55087084419E+03 -0.20530596372E+03  0.14850633604E+02  0.59515332819E+03  0.91529869501E+02 0.  0.
         11    1    3    3    0    0 -0.28871649944E+03 -0.98411426102E+02 -0.37233831587E+02  0.30729201755E+03  0.00000000000E+00 0. -1.
        -11    1    3    3    0    0 -0.26215434475E+03 -0.10689453762E+03  0.52084465192E+02  0.28786131063E+03  0.00000000000E+00 0.  1.
         22    1    1    2    0    0  0.55087084419E+03  0.20530596372E+03 -0.16607232189E+03  0.61089216873E+03  0.00000000000E+00 0. -1.
<mgrwt>
<rscale>  0 0.11965274E+04</rscale>
<asrwt>0</asrwt>
<pdfrwt beam="1">  1        1 0.10440517E+00 0.11965274E+04</pdfrwt>
<pdfrwt beam="2">  1       -1 0.81140294E-01 0.11965274E+04</pdfrwt>
<totfact> 0.42802480E+01</totfact>
</mgrwt>
</event>
<event>
 6    1  0.1614874E-005  0.1786981E+04  0.7818608E-02  0.8713253E-01
          1   -1    0    0  501    0  0.00000000000E+00  0.00000000000E+00  0.11653344966E+04  0.11653344966E+04  0.00000000000E+00 0. -1.
         -1   -1    0    0    0  501 -0.00000000000E+00 -0.00000000000E+00 -0.68506135094E+03  0.68506135094E+03  0.00000000000E+00 0.  1.
         23    2    1    2    0    0 -0.11731074221E+03  0.20938014898E+03  0.11294457731E+04  0.11582781139E+04  0.91425257415E+02 0.  0.
         13    1    3    3    0    0 -0.12322642328E+03  0.14088105940E+03  0.78108632211E+03  0.80319864721E+03  0.00000000000E+00 0. -1.
        -13    1    3    3    0    0  0.59156810726E+01  0.68499089583E+02  0.34835945100E+03  0.35507946668E+03  0.00000000000E+00 0.  1.
         22    1    1    2    0    0  0.11731074221E+03 -0.20938014898E+03 -0.64917262744E+03  0.69211773366E+03  0.00000000000E+00 0.  1.
<mgrwt>
<rscale>  0 0.17869814E+04</rscale>
<asrwt>0</asrwt>
<pdfrwt beam="1">  1        1 0.17928223E+00 0.17869814E+04</pdfrwt>
<pdfrwt beam="2">  1       -1 0.10539405E+00 0.17869814E+04</pdfrwt>
<totfact> 0.90354396E+00</totfact>
</mgrwt>
</event>
<event>
 6    1  0.1614874E-005  0.1323980E+04  0.7818608E-02  0.9010762E-01
          2   -1    0    0  501    0  0.00000000000E+00  0.00000000000E+00  0.30422875707E+03  0.30422875707E+03  0.00000000000E+00 0. -1.
         -2   -1    0    0    0  501 -0.00000000000E+00 -0.00000000000E+00 -0.14404640811E+04  0.14404640811E+04  0.00000000000E+00 0.  1.
         23    2    1    2    0    0  0.47835525836E+03 -0.93218800894E+02 -0.11550482056E+04  0.12569762991E+04  0.91321198079E+02 0.  0.
         13    1    3    3    0    0  0.10140869521E+03 -0.17586109650E+02 -0.16006825419E+03  0.19030197244E+03  0.00000000000E+00 0.  1.
        -13    1    3    3    0    0  0.37694656315E+03 -0.75632691244E+02 -0.99497995138E+03  0.10666743266E+04  0.00000000000E+00 0. -1.
         22    1    1    2    0    0 -0.47835525836E+03  0.93218800894E+02  0.18812881495E+02  0.48771653914E+03  0.00000000000E+00 0. -1.
<mgrwt>
<rscale>  0 0.13239798E+04</rscale>
<asrwt>0</asrwt>
<pdfrwt beam="1">  1        2 0.46804424E-01 0.13239798E+04</pdfrwt>
<pdfrwt beam="2">  1       -2 0.22160986E+00 0.13239798E+04</pdfrwt>
<totfact> 0.10210499E+01</totfact>
</mgrwt>
</event>
<event>
 6    1  0.1614874E-005  0.2618945E+04  0.7818608E-02  0.8361794E-01
          2   -1    0    0  501    0  0.00000000000E+00  0.00000000000E+00  0.16254703936E+04  0.16254703936E+04  0.00000000000E+00 0. -1.
         -2   -1    0    0    0  501 -0.00000000000E+00 -0.00000000000E+00 -0.10549056630E+04  0.10549056630E+04  0.00000000000E+00 0.  1.
         23    2    1    2    0    0  0.78961004191E+03 -0.81515751303E+03 -0.37971614504E+03  0.12001735258E+04  0.90919480644E+02 0.  0.
         11    1    3    3    0    0  0.26232205671E+03 -0.23918324204E+03 -0.81101154679E+02  0.36414129401E+03  0.00000000000E+00 0. -1.
        -11    1    3    3    0    0  0.52728798520E+03 -0.57597427099E+03 -0.29861499036E+03  0.83603223182E+03  0.00000000000E+00 0.  1.
         22    1    1    2    0    0 -0.78961004191E+03  0.81515751303E+03  0.95028087561E+03  0.14802025307E+04  0.00000000000E+00 0. -1.
<mgrwt>
<rscale>  0 0.26189448E+04</rscale>
<asrwt>0</asrwt>
<pdfrwt beam="1">  1        2 0.25007237E+00 0.26189448E+04</pdfrwt>
<pdfrwt beam="2">  1       -2 0.16229318E+00 0.26189448E+04</pdfrwt>
<totfact> 0.23096518E+00</totfact>
</mgrwt>
</event>
<event>
 6    1  0.1614874E-005  0.6479713E+03  0.7818608E-02  0.9810593E-01
         -1   -1    0    0    0  501 -0.00000000000E+00  0.00000000000E+00  0.86648883050E+03  0.86648883050E+03  0.00000000000E+00 0.  1.
          1   -1    0    0  501    0  0.00000000000E+00 -0.00000000000E+00 -0.12114028331E+03  0.12114028331E+03  0.00000000000E+00 0. -1.
         23    2    1    2    0    0 -0.66906976234E+02  0.30784048922E+03  0.31484789588E+03  0.45417515980E+03  0.88902013305E+02 0.  0.
         13    1    3    3    0    0  0.14605629780E+02  0.20290992094E+02  0.90845851959E+01  0.26600347170E+02  0.00000000000E+00 0. -1.
        -13    1    3    3    0    0 -0.81512606014E+02  0.28754949712E+03  0.30576331068E+03  0.42757481263E+03  0.00000000000E+00 0.  1.
         22    1    1    2    0    0  0.66906976234E+02 -0.30784048922E+03  0.43050065131E+03  0.53345395401E+03  0.00000000000E+00 0.  1.
<mgrwt>
<rscale>  0 0.64797130E+03</rscale>
<asrwt>0</asrwt>
<pdfrwt beam="1">  1        1 0.18636967E-01 0.64797130E+03</pdfrwt>
<pdfrwt beam="2">  1       -1 0.13330597E+00 0.64797130E+03</pdfrwt>
<totfact> 0.13985179E+02</totfact>
</mgrwt>
</event>
<event>
 6    1  0.1614874E-005  0.1659494E+04  0.7818608E-02  0.8784810E-01
          2   -1    0    0  501    0  0.00000000000E+00  0.00000000000E+00  0.26840835514E+04  0.26840835514E+04  0.00000000000E+00 0. -1.
         -2   -1    0    0    0  501 -0.00000000000E+00 -0.00000000000E+00 -0.25650470276E+03  0.25650470276E+03  0.00000000000E+00 0.  1.
         23    2    1    2    0    0  0.73929947678E+03  0.33497504954E+03  0.15009688887E+04  0.17087692667E+04  0.90624508759E+02 0.  0.
         11    1    3    3    0    0  0.47448999798E+03  0.26136498382E+03  0.10100221081E+04  0.11461226251E+04  0.00000000000E+00 0.  1.
        -11    1    3    3    0    0  0.26480947880E+03  0.73610065713E+02  0.49094678063E+03  0.56264664155E+03  0.00000000000E+00 0. -1.
         22    1    1    2    0    0 -0.73929947678E+03 -0.33497504954E+03  0.92660995993E+03  0.12318189875E+04  0.00000000000E+00 0.  1.
<mgrwt>
<rscale>  0 0.16594940E+04</rscale>
<asrwt>0</asrwt>
<pdfrwt beam="1">  1        2 0.41293591E+00 0.16594940E+04</pdfrwt>
<pdfrwt beam="2">  1       -2 0.39462264E-01 0.16594940E+04</pdfrwt>
<totfact> 0.15779535E+01</totfact>
</mgrwt>
</event>
<event>
 6    1  0.1614874E-005  0.3311809E+04  0.7818608E-02  0.8159897E-01
          1   -1    0    0  501    0  0.00000000000E+00  0.00000000000E+00  0.24158286438E+04  0.24158286438E+04  0.00000000000E+00 0. -1.
         -1   -1    0    0    0  501 -0.00000000000E+00 -0.00000000000E+00 -0.11350226023E+04  0.11350226023E+04  0.00000000000E+00 0.  1.
         23    2    1    2    0    0 -0.84258556017E+03  0.45777735599E+03 -0.80493250155E+03  0.12552433084E+04  0.90602965375E+02 0.  0.
         11    1    3    3    0    0 -0.33778895007E+03  0.14006776697E+03 -0.33456657625E+03  0.49563610449E+03  0.00000000000E+00 0. -1.
        -11    1    3    3    0    0 -0.50479661010E+03  0.31770958903E+03 -0.47036592530E+03  0.75960720390E+03  0.00000000000E+00 0.  1.
         22    1    1    2    0    0  0.84258556017E+03 -0.45777735599E+03  0.20857385430E+04  0.22956079377E+04  0.00000000000E+00 0. -1.
<mgrwt>
<rscale>  0 0.33118092E+04</rscale>
<asrwt>0</asrwt>
<pdfrwt beam="1">  1        1 0.37166594E+00 0.33118092E+04</pdfrwt>
<pdfrwt beam="2">  1       -1 0.17461886E+00 0.33118092E+04</pdfrwt>
<totfact> 0.29223759E-01</totfact>
</mgrwt>
</event>
<event>
 6    1  0.1614874E-005  0.1136942E+04  0.7818608E-02  0.9169915E-01
         -1   -1    0    0    0  501 -0.00000000000E+00  0.00000000000E+00  0.10558593728E+04  0.10558593728E+04  0.00000000000E+00 0.  1.
          1   -1    0    0  501    0  0.00000000000E+00 -0.00000000000E+00 -0.30606296969E+03  0.30606296969E+03  0.00000000000E+00 0. -1.
         23    2    1    2    0    0  0.10465230125E+03 -0.78524541536E+02  0.10355233899E+04  0.10476642976E+04  0.90407862989E+02 0.  0.
         13    1    3    3    0    0  0.46645459993E+02 -0.49828425217E+02  0.24011540105E+03  0.24962787648E+03  0.00000000000E+00 0. -1.
        -13    1    3    3    0    0  0.58006841261E+02 -0.28696116319E+02  0.79540798885E+03  0.79803642113E+03  0.00000000000E+00 0.  1.
         22    1    1    2    0    0 -0.10465230125E+03  0.78524541536E+02 -0.28572698679E+03  0.31425804487E+03  0.00000000000E+00 0. -1.
<mgrwt>
<rscale>  0 0.11369423E+04</rscale>
<asrwt>0</asrwt>
<pdfrwt beam="1">  1        1 0.47086611E-01 0.11369423E+04</pdfrwt>
<pdfrwt beam="2">  1       -1 0.16243990E+00 0.11369423E+04</pdfrwt>
<totfact> 0.23782222E+01</totfact>
</mgrwt>
</event>
<event>
 6    1  0.1614874E-005  0.2546094E+04  0.7818608E-02  0.8386746E-01
          1   -1    0    0  501    0  0.00000000000E+00  0.00000000000E+00  0.10725985586E+04  0.10725985586E+04  0.00000000000E+00 0. -1.
         -1   -1    0    0    0  501 -0.00000000000E+00 -0.00000000000E+00 -0.15109556815E+04  0.15109556815E+04  0.00000000000E+00 0.  1.
         23    2    1    2    0    0 -0.21679411842E+03 -0.52920047782E+03 -0.13715293400E+04  0.14890848607E+04  0.96063294415E+02 0.  0.
         13    1    3    3    0    0 -0.17938446040E+02 -0.15580665059E+03 -0.37605123277E+03  0.40744573857E+03  0.00000000000E+00 0. -1.
        -13    1    3    3    0    0 -0.19885567238E+03 -0.37339382722E+03 -0.99547810720E+03  0.10816391221E+04  0.00000000000E+00 0.  1.
         22    1    1    2    0    0  0.21679411842E+03  0.52920047782E+03  0.93317221712E+03  0.10944693793E+04  0.00000000000E+00 0. -1.
<mgrwt>
<rscale>  0 0.25460942E+04</rscale>
<asrwt>0</asrwt>
<pdfrwt beam="1">  1        1 0.16501516E+00 0.25460942E+04</pdfrwt>
<pdfrwt beam="2">  1       -1 0.23245472E+00 0.25460942E+04</pdfrwt>
<totfact> 0.10699467E+00</totfact>
</mgrwt>
</event>
<event>
 6    1  0.1614874E-005  0.4244222E+04  0.7818608E-02  0.7957013E-01
          2   -1    0    0  501    0  0.00000000000E+00  0.00000000000E+00  0.19725678524E+04  0.19725678524E+04  0.00000000000E+00 0. -1.
         -2   -1    0    0    0  501 -0.00000000000E+00 -0.00000000000E+00 -0.22829913303E+04  0.22829913303E+04  0.00000000000E+00 0.  1.
         23    2    1    2    0    0  0.77141367977E+03  0.19190939063E+04 -0.62646718803E+03  0.21632197950E+04  0.95174878405E+02 0.  0.
         11    1    3    3    0    0  0.40588844105E+03  0.10931587560E+04 -0.31588694725E+03  0.12081084620E+04  0.00000000000E+00 0. -1.
        -11    1    3    3    0    0  0.36552523872E+03  0.82593515023E+03 -0.31058024079E+03  0.95511133303E+03  0.00000000000E+00 0.  1.
         22    1    1    2    0    0 -0.77141367977E+03 -0.19190939063E+04  0.31604371015E+03  0.20923393877E+04  0.00000000000E+00 0. -1.
<mgrwt>
<rscale>  0 0.42442221E+04</rscale>
<asrwt>0</asrwt>
<pdfrwt beam="1">  1        2 0.30347198E+00 0.42442221E+04</pdfrwt>
<pdfrwt beam="2">  1       -2 0.35122943E+00 0.42442221E+04</pdfrwt>
<totfact> 0.81793871E-02</totfact>
</mgrwt>
</event>
<event>
 6    1  0.1614874E-005  0.2674610E+03  0.7818608E-02  0.1102742E+00
          2   -1    0    0  501    0  0.00000000000E+00  0.00000000000E+00  0.28067965374E+02  0.28067965374E+02  0.00000000000E+00 0. -1.
         -2   -1    0    0    0  501 -0.00000000000E+00 -0.00000000000E+00 -0.63716197305E+03  0.63716197305E+03  0.00000000000E+00 0.  1.
         23    2    1    2    0    0 -0.18497448304E+02  0.11541549961E+03 -0.29536774910E+03  0.33043588462E+03  0.91010293318E+02 0.  0.
         11    1    3    3    0    0 -0.54521658223E+01  0.14230658783E+02  0.26238602971E+01  0.15463583169E+02  0.00000000000E+00 0. -1.
        -11    1    3    3    0    0 -0.13045282481E+02  0.10118484083E+03 -0.29799160940E+03  0.31497230145E+03  0.00000000000E+00 0.  1.
         22    1    1    2    0    0  0.18497448304E+02 -0.11541549961E+03 -0.31372625858E+03  0.33479405381E+03  0.00000000000E+00 0.  1.
<mgrwt>
<rscale>  0 0.26746095E+03</rscale>
<asrwt>0</asrwt>
<pdfrwt beam="1">  1        2 0.43181488E-02 0.26746095E+03</pdfrwt>
<pdfrwt beam="2">  1       -2 0.98024912E-01 0.26746095E+03</pdfrwt>
<totfact> 0.17142860E+03</totfact>
</mgrwt>
</event>
<event>
 6    1  0.1614874E-005  0.2103495E+04  0.7818608E-02  0.8559705E-01
         -1   -1    0    0    0  501 -0.00000000000E+00  0.00000000000E+00  0.88448834969E+03  0.88448834969E+03  0.00000000000E+00 0.  1.
          1   -1    0    0  501    0  0.00000000000E+00 -0.00000000000E+00 -0.12506360516E+04  0.12506360516E+04  0.00000000000E+00 0. -1.
         23    2    1    2    0    0  0.60772992014E+03 -0.54154943622E+03  0.48953286970E+03  0.95410759855E+03  0.89818881019E+02 0.  0.
         13    1    3    3    0    0  0.15116823342E+03 -0.13616336422E+03  0.78442497162E+02  0.21804935660E+03  0.00000000000E+00 0.  1.
        -13    1    3    3    0    0  0.45656168672E+03 -0.40538607200E+03  0.41109037254E+03  0.73605824196E+03  0.00000000000E+00 0. -1.
         22    1    1    2    0    0 -0.60772992014E+03  0.54154943622E+03 -0.85568057157E+03  0.11810168027E+04  0.00000000000E+00 0. -1.
<mgrwt>
<rscale>  0 0.21034952E+04</rscale>
<asrwt>0</asrwt>
<pdfrwt beam="1">  1        1 0.19240555E+00 0.21034952E+04</pdfrwt>
<pdfrwt beam="2">  1       -1 0.13607513E+00 0.21034952E+04</pdfrwt>
<totfact> 0.40737692E+00</totfact>
</mgrwt>
</event>
<event>
 6    1  0.1614874E-005  0.1641710E+04  0.7818608E-02  0.8795326E-01
         -2   -1    0    0    0  501 -0.00000000000E+00  0.00000000000E+00  0.72770514190E+03  0.72770514190E+03  0.00000000000E+00 0.  1.
          2   -1    0    0  501    0  0.00000000000E+00 -0.00000000000E+00 -0.92592842978E+03  0.92592842978E+03  0.00000000000E+00 0. -1.
         23    2    1    2    0    0 -0.44004938977E+03  0.59850608060E+03  0.24595562208E+03  0.78810026903E+03  0.93567473251E+02 0.  0.
         11    1    3    3    0    0 -0.14430237044E+03  0.13042587998E+03  0.77207485657E+02  0.20927274100E+03  0.00000000000E+00 0.  1.
        -11    1    3    3    0    0 -0.29574701933E+03  0.46808020062E+03  0.16874813642E+03  0.57882752803E+03  0.00000000000E+00 0. -1.
         22    1    1    2    0    0  0.44004938977E+03 -0.59850608060E+03 -0.44417890996E+03  0.86553330266E+03  0.00000000000E+00 0. -1.
<mgrwt>
<rscale>  0 0.16417099E+04</rscale>
<asrwt>0</asrwt>
<pdfrwt beam="1">  1        2 0.14245053E+00 0.16417099E+04</pdfrwt>
<pdfrwt beam="2">  1       -2 0.11195464E+00 0.16417099E+04</pdfrwt>
<totfact> 0.16950804E+01</totfact>
</mgrwt>
</event>
<event>
 6    1  0.1614874E-005  0.3774258E+04  0.7818608E-02  0.8051702E-01
          1   -1    0    0  501    0  0.00000000000E+00  0.00000000000E+00  0.21247555366E+04  0.21247555366E+04  0.00000000000E+00 0. -1.
         -1   -1    0    0    0  501 -0.00000000000E+00 -0.00000000000E+00 -0.16760778589E+04  0.16760778589E+04  0.00000000000E+00 0.  1.
         23    2    1    2    0    0  0.89796004845E+03  0.14322488127E+04 -0.61794679806E+03  0.18019945619E+04  0.87505689732E+02 0.  0.
         13    1    3    3    0    0  0.26685808794E+03  0.44263090916E+03 -0.23106383431E+03  0.56615002991E+03  0.00000000000E+00 0. -1.
        -13    1    3    3    0    0  0.63110196051E+03  0.98961790358E+03 -0.38688296375E+03  0.12358445320E+04  0.00000000000E+00 0.  1.
         22    1    1    2    0    0 -0.89796004845E+03 -0.14322488127E+04  0.10666244757E+04  0.19988388335E+04  0.00000000000E+00 0. -1.
<mgrwt>
<rscale>  0 0.37742579E+04</rscale>
<asrwt>0</asrwt>
<pdfrwt beam="1">  1        1 0.32688547E+00 0.37742579E+04</pdfrwt>
<pdfrwt beam="2">  1       -1 0.25785813E+00 0.37742579E+04</pdfrwt>
<totfact> 0.12112339E-01</totfact>
</mgrwt>
</event>
<event>
 6    1  0.1614874E-005  0.1532533E+04  0.7818608E-02  0.8863102E-01
          2   -1    0    0  501    0  0.00000000000E+00  0.00000000000E+00  0.87768297014E+03  0.87768297014E+03  0.00000000000E+00 0.  1.
         -2   -1    0    0    0  501 -0.00000000000E+00 -0.00000000000E+00 -0.66899387767E+03  0.66899387767E+03  0.00000000000E+00 0. -1.
         23    2    1    2    0    0  0.56325930604E+03  0.50235026696E+03  0.22218555945E+03  0.79182653736E+03  0.89476286746E+02 0.  0.
         11    1    3    3    0    0  0.45729709902E+03  0.35854472080E+03  0.17915770660E+03  0.60808916898E+03  0.00000000000E+00 0.  1.
        -11    1    3    3    0    0  0.10596220702E+03  0.14380554616E+03  0.43027852847E+02  0.18373736839E+03  0.00000000000E+00 0. -1.
         22    1    1    2    0    0 -0.56325930604E+03 -0.50235026696E+03 -0.13496466987E+02  0.75485031044E+03  0.00000000000E+00 0.  1.
<mgrwt>
<rscale>  0 0.15325332E+04</rscale>
<asrwt>0</asrwt>
<pdfrwt beam="1">  1        2 0.13502815E+00 0.15325332E+04</pdfrwt>
<pdfrwt beam="2">  1       -2 0.10292213E+00 0.15325332E+04</pdfrwt>
<totfact> 0.22576001E+01</totfact>
</mgrwt>
</event>
<event>
 6    1  0.1614874E-005  0.2259108E+04  0.7818608E-02  0.8494221E-01
         -2   -1    0    0    0  501 -0.00000000000E+00  0.00000000000E+00  0.52657702866E+03  0.52657702866E+03  0.00000000000E+00 0.  1.
          2   -1    0    0  501    0  0.00000000000E+00 -0.00000000000E+00 -0.24229933655E+04  0.24229933655E+04  0.00000000000E+00 0. -1.
         23    2    1    2    0    0  0.89377620144E+03 -0.63484294579E+02 -0.18436565675E+04  0.20519904550E+04  0.93429837795E+02 0.  0.
         11    1    3    3    0    0  0.77305726537E+03 -0.36858284401E+02 -0.16457933922E+04  0.18186841282E+04  0.00000000000E+00 0. -1.
        -11    1    3    3    0    0  0.12071893607E+03 -0.26626010179E+02 -0.19786317533E+03  0.23330632674E+03  0.00000000000E+00 0.  1.
         22    1    1    2    0    0 -0.89377620144E+03  0.63484294579E+02 -0.52759769329E+02  0.89757993916E+03  0.00000000000E+00 0.  1.
<mgrwt>
<rscale>  0 0.22591084E+04</rscale>
<asrwt>0</asrwt>
<pdfrwt beam="1">  1        2 0.37276821E+00 0.22591084E+04</pdfrwt>
<pdfrwt beam="2">  1       -2 0.81011851E-01 0.22591084E+04</pdfrwt>
<totfact> 0.47133887E+00</totfact>
</mgrwt>
</event>
<event>
 6    1  0.1614874E-005  0.7877656E+03  0.7818608E-02  0.9577897E-01
          2   -1    0    0  501    0  0.00000000000E+00  0.00000000000E+00  0.58751781763E+03  0.58751781763E+03  0.00000000000E+00 0. -1.
         -2   -1    0    0    0  501 -0.00000000000E+00 -0.00000000000E+00 -0.26406628020E+03  0.26406628020E+03  0.00000000000E+00 0.  1.
         23    2    1    2    0    0 -0.20835361459E+03  0.14701904013E+03 -0.15709253143E+03  0.30757267425E+03  0.69978994293E+02 0.  0.
         13    1    3    3    0    0 -0.91213328734E+02  0.59561906799E+02 -0.10790411610E+03  0.15333228738E+03  0.00000000000E+00 0. -1.
        -13    1    3    3    0    0 -0.11714028586E+03  0.87457133326E+02 -0.49188415324E+02  0.15424038687E+03  0.00000000000E+00 0.  1.
         22    1    1    2    0    0  0.20835361459E+03 -0.14701904013E+03  0.48054406885E+03  0.54401142358E+03  0.00000000000E+00 0. -1.
<mgrwt>
<rscale>  0 0.78776556E+03</rscale>
<asrwt>0</asrwt>
<pdfrwt beam="1">  1        2 0.90387356E-01 0.78776556E+03</pdfrwt>
<pdfrwt beam="2">  1       -2 0.40625582E-01 0.78776556E+03</pdfrwt>
<totfact> 0.29370491E+02</totfact>
</mgrwt>
</event>
<event>
 6    1  0.1614874E-005  0.1507844E+04  0.7818608E-02  0.8879253E-01
          2   -1    0    0  501    0  0.00000000000E+00  0.00000000000E+00  0.15046523736E+04  0.15046523736E+04  0.00000000000E+00 0. -1.
         -2   -1    0    0    0  501 -0.00000000000E+00 -0.00000000000E+00 -0.37776072469E+03  0.37776072469E+03  0.00000000000E+00 0.  1.
         23    2    1    2    0    0  0.50436084991E+02  0.25922870189E+03  0.14433686840E+04  0.14702225693E+04  0.92184200437E+02 0.  0.
         11    1    3    3    0    0  0.52825238121E+01  0.36633950476E+02  0.43590877830E+03  0.43747733014E+03  0.00000000000E+00 0. -1.
        -11    1    3    3    0    0  0.45153561178E+02  0.22259475141E+03  0.10074599057E+04  0.10327452391E+04  0.00000000000E+00 0.  1.
         22    1    1    2    0    0 -0.50436084991E+02 -0.25922870189E+03 -0.31647703501E+03  0.41219052905E+03  0.00000000000E+00 0.  1.
<mgrwt>
<rscale>  0 0.15078443E+04</rscale>
<asrwt>0</asrwt>
<pdfrwt beam="1">  1        2 0.23148498E+00 0.15078443E+04</pdfrwt>
<pdfrwt beam="2">  1       -2 0.58117036E-01 0.15078443E+04</pdfrwt>
<totfact> 0.33745994E+01</totfact>
</mgrwt>
</event>
<event>
 6    1  0.1614874E-005  0.1793947E+04  0.7818608E-02  0.8709525E-01
         -1   -1    0    0    0  501 -0.00000000000E+00  0.00000000000E+00  0.11014993855E+04  0.11014993855E+04  0.00000000000E+00 0.  1.
          1   -1    0    0  501    0  0.00000000000E+00 -0.00000000000E+00 -0.73042389874E+03  0.73042389874E+03  0.00000000000E+00 0. -1.
         23    2    1    2    0    0 -0.56373057439E+03  0.14630595725E+03  0.87786390077E+03  0.10598921384E+04  0.11631303919E+03 0.  0.
         11    1    3    3    0    0 -0.46925405629E+03  0.13448498352E+03  0.64960684467E+03  0.81257284767E+03  0.00000000000E+00 0. -1.
        -11    1    3    3    0    0 -0.94476518093E+02  0.11820973734E+02  0.22825705611E+03  0.24731929070E+03  0.00000000000E+00 0.  1.
         22    1    1    2    0    0  0.56373057439E+03 -0.14630595725E+03 -0.50678841401E+03  0.77203114587E+03  0.00000000000E+00 0. -1.
<mgrwt>
<rscale>  0 0.17939470E+04</rscale>
<asrwt>0</asrwt>
<pdfrwt beam="1">  1        1 0.11237291E+00 0.17939470E+04</pdfrwt>
<pdfrwt beam="2">  1       -1 0.16946144E+00 0.17939470E+04</pdfrwt>
<totfact> 0.59829560E+00</totfact>
</mgrwt>
</event>
<event>
 6    1  0.1614874E-005  0.2385752E+04  0.7818608E-02  0.8444857E-01
          2   -1    0    0  501    0  0.00000000000E+00  0.00000000000E+00  0.29937058113E+04  0.29937058113E+04  0.00000000000E+00 0. -1.
         -2   -1    0    0    0  501 -0.00000000000E+00 -0.00000000000E+00 -0.47531500902E+03  0.47531500902E+03  0.00000000000E+00 0.  1.
         23    2    1    2    0    0 -0.10869010791E+04  0.44042320598E+03  0.95809473928E+03  0.15171370225E+04  0.91829512134E+02 0.  0.
         13    1    3    3    0    0 -0.27331059081E+03  0.15344509067E+03  0.26692194200E+03  0.41169333007E+03  0.00000000000E+00 0.  1.
        -13    1    3    3    0    0 -0.81359048831E+03  0.28697811531E+03  0.69117279728E+03  0.11054436924E+04  0.00000000000E+00 0. -1.
         22    1    1    2    0    0  0.10869010791E+04 -0.44042320598E+03  0.15602960630E+04  0.19518837979E+04  0.00000000000E+00 0. -1.
<mgrwt>
<rscale>  0 0.23857521E+04</rscale>
<asrwt>0</asrwt>
<pdfrwt beam="1">  1        2 0.46057012E+00 0.23857521E+04</pdfrwt>
<pdfrwt beam="2">  1       -2 0.73125387E-01 0.23857521E+04</pdfrwt>
<totfact> 0.26727705E+00</totfact>
</mgrwt>
</event>
<event>
 6    1  0.1614874E-005  0.3569280E+04  0.7818608E-02  0.8097565E-01
         -2   -1    0    0    0  501 -0.00000000000E+00  0.00000000000E+00  0.92305976696E+03  0.92305976696E+03  0.00000000000E+00 0.  1.
          2   -1    0    0  501    0  0.00000000000E+00 -0.00000000000E+00 -0.34504155257E+04  0.34504155257E+04  0.00000000000E+00 0. -1.
         23    2    1    2    0    0 -0.91963423417E+03 -0.15274540659E+04 -0.12094994646E+04  0.21563626974E+04  0.90377429679E+02 0.  0.
         13    1    3    3    0    0 -0.88175684844E+02 -0.15936040324E+03 -0.92569273584E+02  0.20430310798E+03  0.00000000000E+00 0. -1.
        -13    1    3    3    0    0 -0.83145854932E+03 -0.13680936627E+04 -0.11169301910E+04  0.19520595894E+04  0.00000000000E+00 0.  1.
         22    1    1    2    0    0  0.91963423417E+03  0.15274540659E+04 -0.13178562942E+04  0.22171125953E+04  0.00000000000E+00 0. -1.
<mgrwt>
<rscale>  0 0.35692799E+04</rscale>
<asrwt>0</asrwt>
<pdfrwt beam="1">  1        2 0.53083314E+00 0.35692799E+04</pdfrwt>
<pdfrwt beam="2">  1       -2 0.14200920E+00 0.35692799E+04</pdfrwt>
<totfact> 0.24851558E-01</totfact>
</mgrwt>
</event>
<event>
 6    1  0.1614874E-005  0.2107415E+04  0.7818608E-02  0.8557984E-01
          1   -1    0    0  501    0  0.00000000000E+00  0.00000000000E+00  0.70551826844E+03  0.70551826844E+03  0.00000000000E+00 0. -1.
         -1   -1    0    0    0  501 -0.00000000000E+00 -0.00000000000E+00 -0.15737353744E+04  0.15737353744E+04  0.00000000000E+00 0.  1.
         23    2    1    2    0    0  0.60538031496E+03 -0.38091100788E+03 -0.12688486879E+04  0.14594462349E+04  0.91803039378E+02 0.  0.
         13    1    3    3    0    0  0.22870602001E+03 -0.16769465464E+03 -0.58521384028E+03  0.65031006423E+03  0.00000000000E+00 0.  1.
        -13    1    3    3    0    0  0.37667429496E+03 -0.21321635325E+03 -0.68363484764E+03  0.80913617067E+03  0.00000000000E+00 0. -1.
         22    1    1    2    0    0 -0.60538031496E+03  0.38091100788E+03  0.40063158195E+03  0.81980740795E+03  0.00000000000E+00 0. -1.
<mgrwt>
<rscale>  0 0.21074146E+04</rscale>
<asrwt>0</asrwt>
<pdfrwt beam="1">  1        1 0.10854127E+00 0.21074146E+04</pdfrwt>
<pdfrwt beam="2">  1       -1 0.24211313E+00 0.21074146E+04</pdfrwt>
<totfact> 0.19426514E+00</totfact>
</mgrwt>
</event>
<event>
 6    1  0.1614874E-005  0.4117994E+04  0.7818608E-02  0.7981157E-01
         -4   -1    0    0    0  501 -0.00000000000E+00  0.00000000000E+00  0.22571368799E+04  0.22571368799E+04  0.00000000000E+00 0.  1.
          4   -1    0    0  501    0  0.00000000000E+00 -0.00000000000E+00 -0.18782506677E+04  0.18782506677E+04  0.00000000000E+00 0. -1.
         23    2    1    2    0    0  0.76767888231E+02 -0.20558580474E+04  0.13407197516E+03  0.20635816613E+04  0.89153568291E+02 0.  0.
         11    1    3    3    0    0  0.35181510500E+02 -0.13968344971E+04  0.12909703456E+03  0.14032285613E+04  0.00000000000E+00 0. -1.
        -11    1    3    3    0    0  0.41586377731E+02 -0.65902355023E+03  0.49749406021E+01  0.66035309995E+03  0.00000000000E+00 0.  1.
         22    1    1    2    0    0 -0.76767888231E+02  0.20558580474E+04  0.24481423703E+03  0.20718058862E+04  0.00000000000E+00 0.  1.
<mgrwt>
<rscale>  0 0.41179941E+04</rscale>
<asrwt>0</asrwt>
<pdfrwt beam="1">  1        4 0.28896164E+00 0.41179941E+04</pdfrwt>
<pdfrwt beam="2">  1       -4 0.34725183E+00 0.41179941E+04</pdfrwt>
<totfact> 0.85347656E-04</totfact>
</mgrwt>
</event>
<event>
 6    1  0.2153283E-005  0.2925446E+04  0.7818608E-02  0.8265346E-01
          1   -1    0    0  501    0  0.00000000000E+00  0.00000000000E+00  0.14038751514E+04  0.14038751514E+04  0.00000000000E+00 0. -1.
         -1   -1    0    0    0  501 -0.00000000000E+00 -0.00000000000E+00 -0.15240379835E+04  0.15240379835E+04  0.00000000000E+00 0.  1.
         23    2    1    2    0    0  0.13239713924E+03 -0.92638012445E+03 -0.11834564557E+04  0.15114730665E+04  0.90953343052E+02 0.  0.
         13    1    3    3    0    0  0.26893458472E+02 -0.24097583689E+03 -0.37217780810E+03  0.44419470158E+03  0.00000000000E+00 0. -1.
        -13    1    3    3    0    0  0.10550368077E+03 -0.68540428756E+03 -0.81127864763E+03  0.10672783649E+04  0.00000000000E+00 0.  1.
         22    1    1    2    0    0 -0.13239713924E+03  0.92638012445E+03  0.10632936236E+04  0.14164400684E+04  0.00000000000E+00 0. -1.
<mgrwt>
<rscale>  0 0.29254463E+04</rscale>
<asrwt>0</asrwt>
<pdfrwt beam="1">  1        1 0.21598079E+00 0.29254463E+04</pdfrwt>
<pdfrwt beam="2">  1       -1 0.23446738E+00 0.29254463E+04</pdfrwt>
<totfact> 0.57660418E-01</totfact>
</mgrwt>
</event>
<event>
 6    1  0.1614874E-005  0.1866175E+04  0.7818608E-02  0.8671879E-01
         -2   -1    0    0    0  501 -0.00000000000E+00  0.00000000000E+00  0.40814174671E+03  0.40814174671E+03  0.00000000000E+00 0.  1.
          2   -1    0    0  501    0  0.00000000000E+00 -0.00000000000E+00 -0.21332105336E+04  0.21332105336E+04  0.00000000000E+00 0. -1.
         23    2    1    2    0    0 -0.59125853840E+03 -0.39086381224E+02 -0.18422618911E+04  0.19373252709E+04  0.90476103842E+02 0.  0.
         11    1    3    3    0    0 -0.51175624553E+02  0.19518291774E+02 -0.13398040125E+03  0.14474341499E+03  0.00000000000E+00 0.  1.
        -11    1    3    3    0    0 -0.54008291385E+03 -0.58604672998E+02 -0.17082814898E+04  0.17925818559E+04  0.00000000000E+00 0. -1.
         22    1    1    2    0    0  0.59125853840E+03  0.39086381224E+02  0.11719310422E+03  0.60402700941E+03  0.00000000000E+00 0.  1.
<mgrwt>
<rscale>  0 0.18661750E+04</rscale>
<asrwt>0</asrwt>
<pdfrwt beam="1">  1        2 0.32818625E+00 0.18661750E+04</pdfrwt>
<pdfrwt beam="2">  1       -2 0.62791036E-01 0.18661750E+04</pdfrwt>
<totfact> 0.12431242E+01</totfact>
</mgrwt>
</event>
<event>
 6    1  0.1614874E-005  0.1764064E+04  0.7818608E-02  0.8725647E-01
          1   -1    0    0  501    0  0.00000000000E+00  0.00000000000E+00  0.17458335552E+04  0.17458335552E+04  0.00000000000E+00 0. -1.
         -1   -1    0    0    0  501 -0.00000000000E+00 -0.00000000000E+00 -0.44562135949E+03  0.44562135949E+03  0.00000000000E+00 0.  1.
         23    2    1    2    0    0  0.82312649068E+03 -0.16105152101E+03  0.98140426509E+03  0.12941738502E+04  0.90866996051E+02 0.  0.
         13    1    3    3    0    0  0.18453666642E+03 -0.54156933501E+01  0.25079056383E+03  0.31141454349E+03  0.00000000000E+00 0.  1.
        -13    1    3    3    0    0  0.63858982427E+03 -0.15563582766E+03  0.73061370126E+03  0.98275930674E+03  0.00000000000E+00 0. -1.
         22    1    1    2    0    0 -0.82312649068E+03  0.16105152101E+03  0.31880793066E+03  0.89728106451E+03  0.00000000000E+00 0. -1.
<mgrwt>
<rscale>  0 0.17640643E+04</rscale>
<asrwt>0</asrwt>
<pdfrwt beam="1">  1        1 0.26858977E+00 0.17640643E+04</pdfrwt>
<pdfrwt beam="2">  1       -1 0.68557133E-01 0.17640643E+04</pdfrwt>
<totfact> 0.90386295E+00</totfact>
</mgrwt>
</event>
<event>
 6    1  0.1614874E-005  0.1909587E+04  0.7818608E-02  0.8650099E-01
         -1   -1    0    0    0  501 -0.00000000000E+00  0.00000000000E+00  0.93627447413E+03  0.93627447413E+03  0.00000000000E+00 0.  1.
          1   -1    0    0  501    0  0.00000000000E+00 -0.00000000000E+00 -0.97367913200E+03  0.97367913200E+03  0.00000000000E+00 0. -1.
         23    2    1    2    0    0 -0.36687071024E+03 -0.25236123405E+03 -0.86101117325E+03  0.97368014038E+03  0.91828453227E+02 0.  0.
         13    1    3    3    0    0 -0.29363091018E+03 -0.17684328956E+03 -0.72306858394E+03  0.80020049835E+03  0.00000000000E+00 0.  1.
        -13    1    3    3    0    0 -0.73239800061E+02 -0.75517944497E+02 -0.13794258931E+03  0.17347964203E+03  0.00000000000E+00 0. -1.
         22    1    1    2    0    0  0.36687071024E+03  0.25236123405E+03  0.82360651538E+03  0.93627346575E+03  0.00000000000E+00 0.  1.
<mgrwt>
<rscale>  0 0.19095873E+04</rscale>
<asrwt>0</asrwt>
<pdfrwt beam="1">  1        1 0.14979679E+00 0.19095873E+04</pdfrwt>
<pdfrwt beam="2">  1       -1 0.14404223E+00 0.19095873E+04</pdfrwt>
<totfact> 0.57700365E+00</totfact>
</mgrwt>
</event>
<event>
 6    1  0.1614874E-005  0.2724841E+04  0.7818608E-02  0.8326990E-01
         -2   -1    0    0    0  501 -0.00000000000E+00  0.00000000000E+00  0.10566191926E+04  0.10566191926E+04  0.00000000000E+00 0.  1.
          2   -1    0    0  501    0  0.00000000000E+00 -0.00000000000E+00 -0.17567253985E+04  0.17567253985E+04  0.00000000000E+00 0. -1.
         23    2    1    2    0    0  0.38212155585E+03 -0.19072915221E+03 -0.16846184802E+04  0.17401908691E+04  0.89052479433E+02 0.  0.
         13    1    3    3    0    0  0.18185788216E+03 -0.13245591618E+03 -0.97057681024E+03  0.99631129855E+03  0.00000000000E+00 0. -1.
        -13    1    3    3    0    0  0.20026367368E+03 -0.58273236025E+02 -0.71404166995E+03  0.74387957054E+03  0.00000000000E+00 0.  1.
         22    1    1    2    0    0 -0.38212155585E+03  0.19072915221E+03  0.98451227431E+03  0.10731537221E+04  0.00000000000E+00 0.  1.
<mgrwt>
<rscale>  0 0.27248411E+04</rscale>
<asrwt>0</asrwt>
<pdfrwt beam="1">  1        2 0.27026544E+00 0.27248411E+04</pdfrwt>
<pdfrwt beam="2">  1       -2 0.16255680E+00 0.27248411E+04</pdfrwt>
<totfact> 0.19262426E+00</totfact>
</mgrwt>
</event>
<event>
 6    1  0.1614874E-005  0.1744827E+04  0.7818608E-02  0.8736203E-01
         -2   -1    0    0    0  501 -0.00000000000E+00  0.00000000000E+00  0.87277870422E+03  0.87277870422E+03  0.00000000000E+00 0.  1.
          2   -1    0    0  501    0  0.00000000000E+00 -0.00000000000E+00 -0.87204802065E+03  0.87204802065E+03  0.00000000000E+00 0. -1.
         23    2    1    2    0    0  0.18121508324E+03  0.84870405719E+03 -0.60963196308E+02  0.87480165747E+03  0.91782054539E+02 0.  0.
         11    1    3    3    0    0  0.14813222181E+03  0.51753747672E+03 -0.62891639121E+02  0.54198113733E+03  0.00000000000E+00 0.  1.
        -11    1    3    3    0    0  0.33082861431E+02  0.33116658047E+03  0.19284428130E+01  0.33282052015E+03  0.00000000000E+00 0. -1.
         22    1    1    2    0    0 -0.18121508324E+03 -0.84870405719E+03  0.61693879884E+02  0.87002506740E+03  0.00000000000E+00 0.  1.
<mgrwt>
<rscale>  0 0.17448266E+04</rscale>
<asrwt>0</asrwt>
<pdfrwt beam="1">  1        2 0.13416123E+00 0.17448266E+04</pdfrwt>
<pdfrwt beam="2">  1       -2 0.13427365E+00 0.17448266E+04</pdfrwt>
<totfact> 0.11619159E+01</totfact>
</mgrwt>
</event>
<event>
 6    1  0.1614874E-005  0.2989211E+04  0.7818608E-02  0.8246819E-01
          2   -1    0    0  501    0  0.00000000000E+00  0.00000000000E+00  0.19136656910E+04  0.19136656910E+04  0.00000000000E+00 0. -1.
         -2   -1    0    0    0  501 -0.00000000000E+00 -0.00000000000E+00 -0.11673120093E+04  0.11673120093E+04  0.00000000000E+00 0.  1.
         23    2    1    2    0    0  0.19399128523E+03  0.73922844924E+03 -0.94857360884E+03  0.12217117594E+04  0.93254558393E+02 0.  0.
         11    1    3    3    0    0  0.34238574708E+02  0.30849928121E+03 -0.37135421027E+03  0.48399177265E+03  0.00000000000E+00 0. -1.
        -11    1    3    3    0    0  0.15975271052E+03  0.43072916803E+03 -0.57721939856E+03  0.73771998671E+03  0.00000000000E+00 0.  1.
         22    1    1    2    0    0 -0.19399128523E+03 -0.73922844924E+03  0.16949272905E+04  0.18592659409E+04  0.00000000000E+00 0. -1.
<mgrwt>
<rscale>  0 0.29892106E+04</rscale>
<asrwt>0</asrwt>
<pdfrwt beam="1">  1        2 0.29441011E+00 0.29892106E+04</pdfrwt>
<pdfrwt beam="2">  1       -2 0.17958646E+00 0.29892106E+04</pdfrwt>
<totfact> 0.11670519E+00</totfact>
</mgrwt>
</event>
<event>
 6    1  0.1614874E-005  0.1489675E+04  0.7818608E-02  0.8891348E-01
          1   -1    0    0  501    0  0.00000000000E+00  0.00000000000E+00  0.13418285048E+04  0.13418285048E+04  0.00000000000E+00 0. -1.
         -1   -1    0    0    0  501 -0.00000000000E+00 -0.00000000000E+00 -0.41345283552E+03  0.41345283552E+03  0.00000000000E+00 0.  1.
         23    2    1    2    0    0 -0.64724718280E+03  0.36281853499E+03  0.47653780562E+03  0.88653301084E+03  0.91029084018E+02 0.  0.
         13    1    3    3    0    0 -0.42462490420E+03  0.19862885023E+03  0.33186896469E+03  0.57436638058E+03  0.00000000000E+00 0.  1.
        -13    1    3    3    0    0 -0.22262227860E+03  0.16418968476E+03  0.14466884093E+03  0.31216663026E+03  0.00000000000E+00 0. -1.
         22    1    1    2    0    0  0.64724718280E+03 -0.36281853499E+03  0.45183786369E+03  0.86874832952E+03  0.00000000000E+00 0. -1.
<mgrwt>
<rscale>  0 0.14896749E+04</rscale>
<asrwt>0</asrwt>
<pdfrwt beam="1">  1        1 0.20643515E+00 0.14896749E+04</pdfrwt>
<pdfrwt beam="2">  1       -1 0.63608129E-01 0.14896749E+04</pdfrwt>
<totfact> 0.20494907E+01</totfact>
</mgrwt>
</event>
<event>
 6    1  0.1614874E-005  0.3494612E+04  0.7818608E-02  0.8115068E-01
         -2   -1    0    0    0  501 -0.00000000000E+00  0.00000000000E+00  0.15610888521E+04  0.15610888521E+04  0.00000000000E+00 0.  1.
          2   -1    0    0  501    0  0.00000000000E+00 -0.00000000000E+00 -0.19557365375E+04  0.19557365375E+04  0.00000000000E+00 0. -1.
         23    2    1    2    0    0  0.15112144278E+04 -0.81858027848E+03  0.11264319647E+03  0.17248469417E+04  0.92551411214E+02 0.  0.
         11    1    3    3    0    0  0.11882502175E+04 -0.68178189128E+03  0.10594644512E+03  0.13740414025E+04  0.00000000000E+00 0. -1.
        -11    1    3    3    0    0  0.32296421029E+03 -0.13679838720E+03  0.66967513579E+01  0.35080553922E+03  0.00000000000E+00 0.  1.
         22    1    1    2    0    0 -0.15112144278E+04  0.81858027848E+03 -0.50729088185E+03  0.17919784479E+04  0.00000000000E+00 0.  1.
<mgrwt>
<rscale>  0 0.34946121E+04</rscale>
<asrwt>0</asrwt>
<pdfrwt beam="1">  1        2 0.30088254E+00 0.34946121E+04</pdfrwt>
<pdfrwt beam="2">  1       -2 0.24016752E+00 0.34946121E+04</pdfrwt>
<totfact> 0.42958720E-01</totfact>
</mgrwt>
</event>
<event>
 6    1  0.1614874E-005  0.3996629E+04  0.7818608E-02  0.8005227E-01
          2   -1    0    0  501    0  0.00000000000E+00  0.00000000000E+00  0.30261113552E+04  0.30261113552E+04  0.00000000000E+00 0. -1.
         -2   -1    0    0    0  501 -0.00000000000E+00 -0.00000000000E+00 -0.13196012345E+04  0.13196012345E+04  0.00000000000E+00 0.  1.
         23    2    1    2    0    0 -0.12132464506E+04  0.14504673737E+04  0.15525972984E+04  0.24484746740E+04  0.92990892615E+02 0.  0.
         11    1    3    3    0    0 -0.49992115574E+03  0.65845683628E+03  0.71011223560E+03  0.10898375816E+04  0.00000000000E+00 0. -1.
        -11    1    3    3    0    0 -0.71332529490E+03  0.79201053740E+03  0.84248506280E+03  0.13586370924E+04  0.00000000000E+00 0.  1.
         22    1    1    2    0    0  0.12132464506E+04 -0.14504673737E+04  0.15391282226E+03  0.18972379158E+04  0.00000000000E+00 0.  1.
<mgrwt>
<rscale>  0 0.39966287E+04</rscale>
<asrwt>0</asrwt>
<pdfrwt beam="1">  1        2 0.46555559E+00 0.39966287E+04</pdfrwt>
<pdfrwt beam="2">  1       -2 0.20301557E+00 0.39966287E+04</pdfrwt>
<totfact> 0.16802090E-01</totfact>
</mgrwt>
</event>
<event>
 6    1  0.1614874E-005  0.1019235E+04  0.7818608E-02  0.9287696E-01
         -2   -1    0    0    0  501 -0.00000000000E+00  0.00000000000E+00  0.15812946366E+03  0.15812946366E+03  0.00000000000E+00 0.  1.
          2   -1    0    0  501    0  0.00000000000E+00 -0.00000000000E+00 -0.16423877243E+04  0.16423877243E+04  0.00000000000E+00 0. -1.
         23    2    1    2    0    0  0.21898173180E+03  0.76816026519E+02 -0.15415021048E+04  0.15614971920E+04  0.90504367926E+02 0.  0.
         11    1    3    3    0    0  0.96212161141E+02  0.70788373907E+02 -0.94045103698E+03  0.94800629048E+03  0.00000000000E+00 0. -1.
        -11    1    3    3    0    0  0.12276957066E+03  0.60276526113E+01 -0.60105106784E+03  0.61349090150E+03  0.00000000000E+00 0.  1.
         22    1    1    2    0    0 -0.21898173180E+03 -0.76816026519E+02  0.57243844155E+02  0.23901999600E+03  0.00000000000E+00 0.  1.
<mgrwt>
<rscale>  0 0.10192348E+04</rscale>
<asrwt>0</asrwt>
<pdfrwt beam="1">  1        2 0.25267503E+00 0.10192348E+04</pdfrwt>
<pdfrwt beam="2">  1       -2 0.24327611E-01 0.10192348E+04</pdfrwt>
<totfact> 0.15872923E+02</totfact>
</mgrwt>
</event>
<event>
 6    1  0.2197818E-005  0.2072585E+04  0.7818608E-02  0.8573417E-01
          2   -1    0    0  501    0  0.00000000000E+00  0.00000000000E+00  0.24537568662E+04  0.24537568662E+04  0.00000000000E+00 0. -1.
         -2   -1    0    0    0  501 -0.00000000000E+00 -0.00000000000E+00 -0.43765615907E+03  0.43765615907E+03  0.00000000000E+00 0.  1.
         23    2    1    2    0    0  0.68958289219E+03 -0.23064748881E+03 -0.16300152553E+02  0.73285422743E+03  0.89926605641E+02 0.  0.
         13    1    3    3    0    0  0.37209505067E+03 -0.17116187617E+03 -0.35336978131E+01  0.40958955261E+03  0.00000000000E+00 0. -1.
        -13    1    3    3    0    0  0.31748784152E+03 -0.59485612644E+02 -0.12766454740E+02  0.32326467483E+03  0.00000000000E+00 0.  1.
         22    1    1    2    0    0 -0.68958289219E+03  0.23064748881E+03  0.20324008596E+04  0.21585587978E+04  0.00000000000E+00 0. -1.
<mgrwt>
<rscale>  0 0.20725847E+04</rscale>
<asrwt>0</asrwt>
<pdfrwt beam="1">  1        2 0.37750105E+00 0.20725847E+04</pdfrwt>
<pdfrwt beam="2">  1       -2 0.67331718E-01 0.20725847E+04</pdfrwt>
<totfact> 0.69198215E+00</totfact>
</mgrwt>
</event>
<event>
 6    1  0.1614874E-005  0.3363574E+04  0.7818608E-02  0.8146905E-01
         -1   -1    0    0    0  501 -0.00000000000E+00  0.00000000000E+00  0.99515582306E+03  0.99515582306E+03  0.00000000000E+00 0.  1.
          1   -1    0    0  501    0  0.00000000000E+00 -0.00000000000E+00 -0.28421753533E+04  0.28421753533E+04  0.00000000000E+00 0. -1.
         23    2    1    2    0    0 -0.27945363153E+03 -0.16524815318E+04 -0.10668221132E+04  0.19886836830E+04  0.89240263729E+02 0.  0.
         11    1    3    3    0    0 -0.20136252459E+03 -0.11939117651E+04 -0.72268316443E+03  0.14100507527E+04  0.00000000000E+00 0. -1.
        -11    1    3    3    0    0 -0.78091106934E+02 -0.45856976676E+03 -0.34413894876E+03  0.57863293029E+03  0.00000000000E+00 0.  1.
         22    1    1    2    0    0  0.27945363153E+03  0.16524815318E+04 -0.78019741709E+03  0.18486474934E+04  0.00000000000E+00 0.  1.
<mgrwt>
<rscale>  0 0.33635739E+04</rscale>
<asrwt>0</asrwt>
<pdfrwt beam="1">  1        1 0.43725774E+00 0.33635739E+04</pdfrwt>
<pdfrwt beam="2">  1       -1 0.15310090E+00 0.33635739E+04</pdfrwt>
<totfact> 0.21163237E-01</totfact>
</mgrwt>
</event>
<event>
 6    1  0.1614874E-005  0.3376639E+04  0.7818608E-02  0.8143664E-01
         -2   -1    0    0    0  501 -0.00000000000E+00  0.00000000000E+00  0.12519517299E+04  0.12519517299E+04  0.00000000000E+00 0.  1.
          2   -1    0    0  501    0  0.00000000000E+00 -0.00000000000E+00 -0.22767835029E+04  0.22767835029E+04  0.00000000000E+00 0. -1.
         23    2    1    2    0    0 -0.34221466928E+03 -0.31793771449E+03 -0.22069543920E+04  0.22576690832E+04  0.90701327691E+02 0.  0.
         11    1    3    3    0    0 -0.30818222097E+03 -0.24129662194E+03 -0.17735885090E+04  0.18162644467E+04  0.00000000000E+00 0.  1.
        -11    1    3    3    0    0 -0.34032448312E+02 -0.76641092552E+02 -0.43336588297E+03  0.44140463650E+03  0.00000000000E+00 0. -1.
         22    1    1    2    0    0  0.34221466928E+03  0.31793771449E+03  0.11821226191E+04  0.12710661496E+04  0.00000000000E+00 0.  1.
<mgrwt>
<rscale>  0 0.33766392E+04</rscale>
<asrwt>0</asrwt>
<pdfrwt beam="1">  1        2 0.35027438E+00 0.33766392E+04</pdfrwt>
<pdfrwt beam="2">  1       -2 0.19260796E+00 0.33766392E+04</pdfrwt>
<totfact> 0.57750369E-01</totfact>
</mgrwt>
</event>
<event>
 6    1  0.1614874E-005  0.1766627E+04  0.7818608E-02  0.8724251E-01
          2   -1    0    0  501    0  0.00000000000E+00  0.00000000000E+00  0.70072604815E+03  0.70072604815E+03  0.00000000000E+00 0. -1.
         -2   -1    0    0    0  501 -0.00000000000E+00 -0.00000000000E+00 -0.11134770262E+04  0.11134770262E+04  0.00000000000E+00 0.  1.
         23    2    1    2    0    0 -0.69533139541E+03  0.30526494487E+03  0.25139545697E+03  0.80536070651E+03  0.93454565418E+02 0.  0.
         13    1    3    3    0    0 -0.23565239758E+03  0.15218581920E+03  0.85955969006E+02  0.29339564526E+03  0.00000000000E+00 0. -1.
        -13    1    3    3    0    0 -0.45967899783E+03  0.15307912567E+03  0.16543948796E+03  0.51196506124E+03  0.00000000000E+00 0.  1.
         22    1    1    2    0    0  0.69533139541E+03 -0.30526494487E+03 -0.66414643500E+03  0.10088423678E+04  0.00000000000E+00 0.  1.
<mgrwt>
<rscale>  0 0.17666266E+04</rscale>
<asrwt>0</asrwt>
<pdfrwt beam="1">  1        2 0.10780401E+00 0.17666266E+04</pdfrwt>
<pdfrwt beam="2">  1       -2 0.17130416E+00 0.17666266E+04</pdfrwt>
<totfact> 0.80753947E+00</totfact>
</mgrwt>
</event>
<event>
 6    1  0.1614874E-005  0.2856983E+04  0.7818608E-02  0.8285793E-01
         -1   -1    0    0    0  501 -0.00000000000E+00  0.00000000000E+00  0.81669764545E+03  0.81669764545E+03  0.00000000000E+00 0.  1.
          1   -1    0    0  501    0  0.00000000000E+00 -0.00000000000E+00 -0.24985843437E+04  0.24985843437E+04  0.00000000000E+00 0. -1.
         23    2    1    2    0    0  0.10511126576E+04 -0.38548147150E+03 -0.18685637173E+04  0.21802568382E+04  0.92497194912E+02 0.  0.
         11    1    3    3    0    0  0.54442371493E+03 -0.18367208562E+03 -0.87360171052E+03  0.10456158783E+04  0.00000000000E+00 0. -1.
        -11    1    3    3    0    0  0.50668894268E+03 -0.20180938588E+03 -0.99496200679E+03  0.11346409599E+04  0.00000000000E+00 0.  1.
         22    1    1    2    0    0 -0.10511126576E+04  0.38548147150E+03  0.18667701905E+03  0.11350251510E+04  0.00000000000E+00 0.  1.
<mgrwt>
<rscale>  0 0.28569830E+04</rscale>
<asrwt>0</asrwt>
<pdfrwt beam="1">  1        1 0.38439759E+00 0.28569830E+04</pdfrwt>
<pdfrwt beam="2">  1       -1 0.12564579E+00 0.28569830E+04</pdfrwt>
<totfact> 0.64600409E-01</totfact>
</mgrwt>
</event>
<event>
 6    1  0.1614874E-005  0.8716971E+03  0.7818608E-02  0.9461670E-01
         -1   -1    0    0    0  501 -0.00000000000E+00  0.00000000000E+00  0.17972692403E+03  0.17972692403E+03  0.00000000000E+00 0.  1.
          1   -1    0    0  501    0  0.00000000000E+00 -0.00000000000E+00 -0.10569589122E+04  0.10569589122E+04  0.00000000000E+00 0. -1.
         23    2    1    2    0    0  0.16370939002E+03  0.17261428845E+03 -0.95346950291E+03  0.98686867183E+03  0.90604776354E+02 0.  0.
         13    1    3    3    0    0  0.10307624466E+03  0.16320794158E+03 -0.73896802893E+03  0.76376389820E+03  0.00000000000E+00 0. -1.
        -13    1    3    3    0    0  0.60633145356E+02  0.94063468697E+01 -0.21450147398E+03  0.22310477363E+03  0.00000000000E+00 0.  1.
         22    1    1    2    0    0 -0.16370939002E+03 -0.17261428845E+03  0.76237514770E+02  0.24981716437E+03  0.00000000000E+00 0.  1.
<mgrwt>
<rscale>  0 0.87169714E+03</rscale>
<asrwt>0</asrwt>
<pdfrwt beam="1">  1        1 0.16260906E+00 0.87169714E+03</pdfrwt>
<pdfrwt beam="2">  1       -1 0.27650296E-01 0.87169714E+03</pdfrwt>
<totfact> 0.16206644E+02</totfact>
</mgrwt>
</event>
<event>
 6    1  0.1614874E-005  0.1593558E+04  0.7818608E-02  0.8824515E-01
          2   -1    0    0  501    0  0.00000000000E+00  0.00000000000E+00  0.19880223337E+04  0.19880223337E+04  0.00000000000E+00 0. -1.
         -2   -1    0    0    0  501 -0.00000000000E+00 -0.00000000000E+00 -0.31934099058E+03  0.31934099058E+03  0.00000000000E+00 0.  1.
         23    2    1    2    0    0  0.26395575219E+03 -0.73891153307E+03  0.10167678074E+04  0.12872387481E+04  0.86625213705E+02 0.  0.
         11    1    3    3    0    0  0.91709151926E+02 -0.20119334193E+03  0.23238766866E+03  0.32076994548E+03  0.00000000000E+00 0.  1.
        -11    1    3    3    0    0  0.17224660026E+03 -0.53771819114E+03  0.78438013877E+03  0.96646880264E+03  0.00000000000E+00 0. -1.
         22    1    1    2    0    0 -0.26395575219E+03  0.73891153307E+03  0.65191353568E+03  0.10201245761E+04  0.00000000000E+00 0.  1.
<mgrwt>
<rscale>  0 0.15935583E+04</rscale>
<asrwt>0</asrwt>
<pdfrwt beam="1">  1        2 0.30584958E+00 0.15935583E+04</pdfrwt>
<pdfrwt beam="2">  1       -2 0.49129384E-01 0.15935583E+04</pdfrwt>
<totfact> 0.25536074E+01</totfact>
</mgrwt>
</event>
<event>
 6    1  0.1614874E-005  0.3362324E+04  0.7818608E-02  0.8147216E-01
         -2   -1    0    0    0  501 -0.00000000000E+00  0.00000000000E+00  0.10836012183E+04  0.10836012183E+04  0.00000000000E+00 0.  1.
          2   -1    0    0  501    0  0.00000000000E+00 -0.00000000000E+00 -0.26082529408E+04  0.26082529408E+04  0.00000000000E+00 0. -1.
         23    2    1    2    0    0 -0.16114826248E+04  0.20837374556E+03 -0.12311184277E+04  0.20406553028E+04  0.91244803213E+02 0.  0.
         13    1    3    3    0    0 -0.79481919347E+03  0.11172548315E+03 -0.55200036791E+03  0.97412757895E+03  0.00000000000E+00 0. -1.
        -13    1    3    3    0    0 -0.81666343133E+03  0.96648262408E+02 -0.67911805977E+03  0.10665277239E+04  0.00000000000E+00 0.  1.
         22    1    1    2    0    0  0.16114826248E+04 -0.20837374556E+03 -0.29353329487E+03  0.16511988563E+04  0.00000000000E+00 0. -1.
<mgrwt>
<rscale>  0 0.33623242E+04</rscale>
<asrwt>0</asrwt>
<pdfrwt beam="1">  1        2 0.40126967E+00 0.33623242E+04</pdfrwt>
<pdfrwt beam="2">  1       -2 0.16670788E+00 0.33623242E+04</pdfrwt>
<totfact> 0.56260114E-01</totfact>
</mgrwt>
</event>
<event>
 6    1  0.1614874E-005  0.2754192E+04  0.7818608E-02  0.8317633E-01
          1   -1    0    0  501    0  0.00000000000E+00  0.00000000000E+00  0.26977840738E+04  0.26977840738E+04  0.00000000000E+00 0. -1.
         -1   -1    0    0    0  501 -0.00000000000E+00 -0.00000000000E+00 -0.70294494023E+03  0.70294494023E+03  0.00000000000E+00 0.  1.
         23    2    1    2    0    0  0.96497843616E+03  0.21177420581E+03 -0.18193519653E+03  0.10102524547E+04  0.10713500833E+03 0.  0.
         13    1    3    3    0    0  0.76529456245E+03  0.15758125127E+03 -0.10004258706E+03  0.78772846673E+03  0.00000000000E+00 0.  1.
        -13    1    3    3    0    0  0.19968387371E+03  0.54192954544E+02 -0.81892609469E+02  0.22252398798E+03  0.00000000000E+00 0. -1.
         22    1    1    2    0    0 -0.96497843616E+03 -0.21177420581E+03  0.21767743301E+04  0.23904765594E+04  0.00000000000E+00 0. -1.
<mgrwt>
<rscale>  0 0.27541922E+04</rscale>
<asrwt>0</asrwt>
<pdfrwt beam="1">  1        1 0.41504370E+00 0.27541922E+04</pdfrwt>
<pdfrwt beam="2">  1       -1 0.10814538E+00 0.27541922E+04</pdfrwt>
<totfact> 0.67970842E-01</totfact>
</mgrwt>
</event>
<event>
 6    1  0.1614874E-005  0.1837579E+04  0.7818608E-02  0.8686567E-01
         -2   -1    0    0    0  501 -0.00000000000E+00  0.00000000000E+00  0.16629139208E+04  0.16629139208E+04  0.00000000000E+00 0.  1.
          2   -1    0    0  501    0  0.00000000000E+00 -0.00000000000E+00 -0.50764732238E+03  0.50764732238E+03  0.00000000000E+00 0. -1.
         23    2    1    2    0    0 -0.18826105434E+03  0.84485337339E+03  0.93490367416E+03  0.12773763432E+04  0.91793219869E+02 0.  0.
         13    1    3    3    0    0 -0.35903313506E+02  0.27842604536E+03  0.35452215631E+03  0.45221241687E+03  0.00000000000E+00 0.  1.
        -13    1    3    3    0    0 -0.15235774083E+03  0.56642732803E+03  0.58038151785E+03  0.82516392637E+03  0.00000000000E+00 0. -1.
         22    1    1    2    0    0  0.18826105434E+03 -0.84485337339E+03  0.22036292426E+03  0.89318489995E+03  0.00000000000E+00 0. -1.
<mgrwt>
<rscale>  0 0.18375786E+04</rscale>
<asrwt>0</asrwt>
<pdfrwt beam="1">  1        2 0.78099589E-01 0.18375786E+04</pdfrwt>
<pdfrwt beam="2">  1       -2 0.25583291E+00 0.18375786E+04</pdfrwt>
<totfact> 0.33695925E+00</totfact>
</mgrwt>
</event>
<event>
 6    1  0.1614874E-005  0.2937347E+04  0.7818608E-02  0.8261852E-01
          2   -1    0    0  501    0  0.00000000000E+00  0.00000000000E+00  0.91844782183E+03  0.91844782183E+03  0.00000000000E+00 0. -1.
         -2   -1    0    0    0  501 -0.00000000000E+00 -0.00000000000E+00 -0.23485287575E+04  0.23485287575E+04  0.00000000000E+00 0.  1.
         23    2    1    2    0    0 -0.14511197462E+04 -0.18444458043E+03 -0.58896564661E+03  0.15795989540E+04  0.92108638919E+02 0.  0.
         11    1    3    3    0    0 -0.28227092942E+03 -0.65360107278E+02 -0.92907756906E+02  0.30427072240E+03  0.00000000000E+00 0.  1.
        -11    1    3    3    0    0 -0.11688488168E+04 -0.11908447315E+03 -0.49605788970E+03  0.12753282316E+04  0.00000000000E+00 0. -1.
         22    1    1    2    0    0  0.14511197462E+04  0.18444458043E+03 -0.84111528908E+03  0.16873776254E+04  0.00000000000E+00 0.  1.
<mgrwt>
<rscale>  0 0.29373465E+04</rscale>
<asrwt>0</asrwt>
<pdfrwt beam="1">  1        2 0.14129967E+00 0.29373465E+04</pdfrwt>
<pdfrwt beam="2">  1       -2 0.36131212E+00 0.29373465E+04</pdfrwt>
<totfact> 0.32332866E-01</totfact>
</mgrwt>
</event>
<event>
 6    1  0.1614874E-005  0.1841032E+04  0.7818608E-02  0.8684779E-01
         -2   -1    0    0    0  501 -0.00000000000E+00  0.00000000000E+00  0.51169912118E+03  0.51169912118E+03  0.00000000000E+00 0. -1.
          2   -1    0    0  501    0  0.00000000000E+00 -0.00000000000E+00 -0.16559521330E+04  0.16559521330E+04  0.00000000000E+00 0.  1.
         23    2    1    2    0    0  0.19693708368E+02  0.38922244257E+03 -0.15525366987E+04  0.16032245353E+04  0.89870784496E+02 0.  0.
         13    1    3    3    0    0 -0.27646946061E+02  0.24521974562E+03 -0.89092362506E+03  0.92446848674E+03  0.00000000000E+00 0. -1.
        -13    1    3    3    0    0  0.47340654428E+02  0.14400269695E+03 -0.66161307366E+03  0.67875604861E+03  0.00000000000E+00 0.  1.
         22    1    1    2    0    0 -0.19693708368E+02 -0.38922244257E+03  0.40828368690E+03  0.56442671884E+03  0.00000000000E+00 0. -1.
<mgrwt>
<rscale>  0 0.18410315E+04</rscale>
<asrwt>0</asrwt>
<pdfrwt beam="1">  1        2 0.25476186E+00 0.18410315E+04</pdfrwt>
<pdfrwt beam="2">  1       -2 0.78722943E-01 0.18410315E+04</pdfrwt>
<totfact> 0.13993787E+01</totfact>
</mgrwt>
</event>
<event>
 6    1  0.1614874E-005  0.1984513E+04  0.7818608E-02  0.8613896E-01
          4   -1    0    0  501    0  0.00000000000E+00  0.00000000000E+00  0.12667050960E+04  0.12667050960E+04  0.00000000000E+00 0. -1.
         -4   -1    0    0    0  501 -0.00000000000E+00 -0.00000000000E+00 -0.77727047513E+03  0.77727047513E+03  0.00000000000E+00 0.  1.
         23    2    1    2    0    0  0.67054107012E+03  0.71775407853E+02  0.99204323130E+03  0.12029093126E+04  0.89799808852E+02 0.  0.
         11    1    3    3    0    0  0.18310700299E+03 -0.89295197112E+01  0.22083414807E+03  0.28701155346E+03  0.00000000000E+00 0.  1.
        -11    1    3    3    0    0  0.48743406713E+03  0.80704927564E+02  0.77120908322E+03  0.91589775913E+03  0.00000000000E+00 0. -1.
         22    1    1    2    0    0 -0.67054107012E+03 -0.71775407853E+02 -0.50260861046E+03  0.84106625851E+03  0.00000000000E+00 0.  1.
<mgrwt>
<rscale>  0 0.19845125E+04</rscale>
<asrwt>0</asrwt>
<pdfrwt beam="1">  1        4 0.19487771E+00 0.19845125E+04</pdfrwt>
<pdfrwt beam="2">  1       -4 0.11958007E+00 0.19845125E+04</pdfrwt>
<totfact> 0.14143797E-01</totfact>
</mgrwt>
</event>
<event>
 6    1  0.1614874E-005  0.1075390E+04  0.7818608E-02  0.9229516E-01
         -1   -1    0    0    0  501 -0.00000000000E+00  0.00000000000E+00  0.14578520906E+03  0.14578520906E+03  0.00000000000E+00 0.  1.
          1   -1    0    0  501    0  0.00000000000E+00 -0.00000000000E+00 -0.19831645173E+04  0.19831645173E+04  0.00000000000E+00 0. -1.
         23    2    1    2    0    0  0.39148128886E+03 -0.73167871547E+02 -0.16283446503E+04  0.16791646386E+04  0.97347041511E+02 0.  0.
         13    1    3    3    0    0  0.89662963406E+02  0.20960394251E+02 -0.43595952334E+03  0.44557770492E+03  0.00000000000E+00 0.  1.
        -13    1    3    3    0    0  0.30181832545E+03 -0.94128265798E+02 -0.11923851269E+04  0.12335869337E+04  0.00000000000E+00 0. -1.
         22    1    1    2    0    0 -0.39148128886E+03  0.73167871547E+02 -0.20903465798E+03  0.44978508778E+03  0.00000000000E+00 0.  1.
<mgrwt>
<rscale>  0 0.10753903E+04</rscale>
<asrwt>0</asrwt>
<pdfrwt beam="1">  1        1 0.30510222E+00 0.10753903E+04</pdfrwt>
<pdfrwt beam="2">  1       -1 0.22428495E-01 0.10753903E+04</pdfrwt>
<totfact> 0.51641040E+01</totfact>
</mgrwt>
</event>
<event>
 6    1  0.1614874E-005  0.2050309E+04  0.7818608E-02  0.8583454E-01
         -2   -1    0    0    0  501 -0.00000000000E+00  0.00000000000E+00  0.11507698352E+04  0.11507698352E+04  0.00000000000E+00 0.  1.
          2   -1    0    0  501    0  0.00000000000E+00 -0.00000000000E+00 -0.91325130242E+03  0.91325130242E+03  0.00000000000E+00 0. -1.
         23    2    1    2    0    0 -0.55668025328E+03  0.68544768138E+02  0.98023407933E+03  0.11333129811E+04  0.94594784505E+02 0.  0.
         13    1    3    3    0    0 -0.12509275204E+03  0.59618407970E+01  0.30242337310E+03  0.32732802623E+03  0.00000000000E+00 0.  1.
        -13    1    3    3    0    0 -0.43158750124E+03  0.62582927341E+02  0.67781070623E+03  0.80598495489E+03  0.00000000000E+00 0. -1.
         22    1    1    2    0    0  0.55668025328E+03 -0.68544768138E+02 -0.74271554651E+03  0.93070815654E+03  0.00000000000E+00 0. -1.
<mgrwt>
<rscale>  0 0.20503093E+04</rscale>
<asrwt>0</asrwt>
<pdfrwt beam="1">  1        2 0.14050020E+00 0.20503093E+04</pdfrwt>
<pdfrwt beam="2">  1       -2 0.17704151E+00 0.20503093E+04</pdfrwt>
<totfact> 0.50511551E+00</totfact>
</mgrwt>
</event>
<event>
 6    1  0.1614874E-005  0.3791178E+04  0.7818608E-02  0.8048051E-01
         -1   -1    0    0    0  501 -0.00000000000E+00  0.00000000000E+00  0.19903688582E+04  0.19903688582E+04  0.00000000000E+00 0.  1.
          1   -1    0    0  501    0  0.00000000000E+00 -0.00000000000E+00 -0.18053228315E+04  0.18053228315E+04  0.00000000000E+00 0. -1.
         23    2    1    2    0    0 -0.15875055796E+04  0.60211474059E+03 -0.74943557952E+03  0.18576586667E+04  0.80783092386E+02 0.  0.
         11    1    3    3    0    0 -0.49639814741E+03  0.15082156147E+03 -0.24251003817E+03  0.57268611191E+03  0.00000000000E+00 0. -1.
        -11    1    3    3    0    0 -0.10911074322E+04  0.45129317912E+03 -0.50692554135E+03  0.12849725548E+04  0.00000000000E+00 0.  1.
         22    1    1    2    0    0  0.15875055796E+04 -0.60211474059E+03  0.93448160613E+03  0.19380330230E+04  0.00000000000E+00 0.  1.
<mgrwt>
<rscale>  0 0.37911784E+04</rscale>
<asrwt>0</asrwt>
<pdfrwt beam="1">  1        1 0.27774197E+00 0.37911784E+04</pdfrwt>
<pdfrwt beam="2">  1       -1 0.30621059E+00 0.37911784E+04</pdfrwt>
<totfact> 0.96812290E-02</totfact>
</mgrwt>
</event>
<event>
 6    1  0.1614874E-005  0.3633813E+04  0.7818608E-02  0.8082790E-01
         -2   -1    0    0    0  501 -0.00000000000E+00  0.00000000000E+00  0.11354666823E+04  0.11354666823E+04  0.00000000000E+00 0.  1.
          2   -1    0    0  501    0  0.00000000000E+00 -0.00000000000E+00 -0.29073064029E+04  0.29073064029E+04  0.00000000000E+00 0. -1.
         23    2    1    2    0    0  0.94488764642E+03  0.14830400815E+04 -0.13898865377E+04  0.22432985003E+04  0.91558865788E+02 0.  0.
         11    1    3    3    0    0  0.67324709389E+03  0.10655013113E+04 -0.94314846888E+03  0.15741930403E+04  0.00000000000E+00 0. -1.
        -11    1    3    3    0    0  0.27164055253E+03  0.41753877018E+03 -0.44673806884E+03  0.66910545995E+03  0.00000000000E+00 0.  1.
         22    1    1    2    0    0 -0.94488764642E+03 -0.14830400815E+04 -0.38195318282E+03  0.17994745849E+04  0.00000000000E+00 0.  1.
<mgrwt>
<rscale>  0 0.36338132E+04</rscale>
<asrwt>0</asrwt>
<pdfrwt beam="1">  1        2 0.44727791E+00 0.36338132E+04</pdfrwt>
<pdfrwt beam="2">  1       -2 0.17468718E+00 0.36338132E+04</pdfrwt>
<totfact> 0.31896822E-01</totfact>
</mgrwt>
</event>
<event>
 6    1  0.1614874E-005  0.3047611E+04  0.7818608E-02  0.8230264E-01
         -2   -1    0    0    0  501 -0.00000000000E+00  0.00000000000E+00  0.17074609779E+04  0.17074609779E+04  0.00000000000E+00 0.  1.
          2   -1    0    0  501    0  0.00000000000E+00 -0.00000000000E+00 -0.13599042354E+04  0.13599042354E+04  0.00000000000E+00 0. -1.
         23    2    1    2    0    0  0.25655697803E+03  0.46373140912E+03 -0.12625289197E+04  0.13723005707E+04  0.91440037968E+02 0.  0.
         13    1    3    3    0    0  0.21335381342E+03  0.33172198732E+03 -0.85080894942E+03  0.93778206156E+03  0.00000000000E+00 0.  1.
        -13    1    3    3    0    0  0.43203164607E+02  0.13200942180E+03 -0.41171997025E+03  0.43451850914E+03  0.00000000000E+00 0. -1.
         22    1    1    2    0    0 -0.25655697803E+03 -0.46373140912E+03  0.16100856622E+04  0.16950646425E+04  0.00000000000E+00 0.  1.
<mgrwt>
<rscale>  0 0.30476111E+04</rscale>
<asrwt>0</asrwt>
<pdfrwt beam="1">  1        2 0.20921604E+00 0.30476111E+04</pdfrwt>
<pdfrwt beam="2">  1       -2 0.26268630E+00 0.30476111E+04</pdfrwt>
<totfact> 0.69898954E-01</totfact>
</mgrwt>
</event>
<event>
 6    1  0.1614874E-005  0.4202890E+04  0.7818608E-02  0.7964823E-01
         -1   -1    0    0    0  501 -0.00000000000E+00  0.00000000000E+00  0.17154471569E+04  0.17154471569E+04  0.00000000000E+00 0.  1.
          1   -1    0    0  501    0  0.00000000000E+00 -0.00000000000E+00 -0.25742968144E+04  0.25742968144E+04  0.00000000000E+00 0. -1.
         23    2    1    2    0    0 -0.13056626260E+04 -0.15575139615E+04  0.11175980379E+03  0.20374812514E+04  0.90746696218E+02 0.  0.
         13    1    3    3    0    0 -0.11389982594E+04 -0.13608069835E+04  0.67245401163E+02  0.17758475794E+04  0.00000000000E+00 0. -1.
        -13    1    3    3    0    0 -0.16666436662E+03 -0.19670697797E+03  0.44514402624E+02  0.26163367199E+03  0.00000000000E+00 0.  1.
         22    1    1    2    0    0  0.13056626260E+04  0.15575139615E+04 -0.97060946132E+03  0.22522627199E+04  0.00000000000E+00 0.  1.
<mgrwt>
<rscale>  0 0.42028896E+04</rscale>
<asrwt>0</asrwt>
<pdfrwt beam="1">  1        1 0.39604566E+00 0.42028896E+04</pdfrwt>
<pdfrwt beam="2">  1       -1 0.26391495E+00 0.42028896E+04</pdfrwt>
<totfact> 0.52388593E-02</totfact>
</mgrwt>
</event>
<event>
 6    1  0.1614874E-005  0.2029344E+04  0.7818608E-02  0.8593023E-01
          2   -1    0    0  501    0  0.00000000000E+00  0.00000000000E+00  0.96856982475E+03  0.96856982475E+03  0.00000000000E+00 0. -1.
         -2   -1    0    0    0  501 -0.00000000000E+00 -0.00000000000E+00 -0.10629686459E+04  0.10629686459E+04  0.00000000000E+00 0.  1.
         23    2    1    2    0    0 -0.21989571329E+02  0.10018506405E+04  0.98210638684E+02  0.10111039302E+04  0.92182324704E+02 0.  0.
         11    1    3    3    0    0  0.35598418319E+02  0.30293915836E+03  0.32651552627E+02  0.30676620568E+03  0.00000000000E+00 0. -1.
        -11    1    3    3    0    0 -0.57587989648E+02  0.69891148218E+03  0.65559086057E+02  0.70433772457E+03  0.00000000000E+00 0.  1.
         22    1    1    2    0    0  0.21989571329E+02 -0.10018506405E+04 -0.19260945982E+03  0.10204345404E+04  0.00000000000E+00 0.  1.
<mgrwt>
<rscale>  0 0.20293441E+04</rscale>
<asrwt>0</asrwt>
<pdfrwt beam="1">  1        2 0.14901074E+00 0.20293441E+04</pdfrwt>
<pdfrwt beam="2">  1       -2 0.16353364E+00 0.20293441E+04</pdfrwt>
<totfact> 0.58043862E+00</totfact>
</mgrwt>
</event>
<event>
 6    1  0.1614874E-005  0.2289693E+04  0.7818608E-02  0.8481996E-01
         -2   -1    0    0    0  501 -0.00000000000E+00  0.00000000000E+00  0.86215915938E+03  0.86215915938E+03  0.00000000000E+00 0.  1.
          2   -1    0    0  501    0  0.00000000000E+00 -0.00000000000E+00 -0.15202228580E+04  0.15202228580E+04  0.00000000000E+00 0. -1.
         23    2    1    2    0    0 -0.10974836407E+04  0.28043659085E+03 -0.17779192739E+03  0.11520259724E+04  0.11152958613E+03 0.  0.
         13    1    3    3    0    0 -0.77541161498E+03  0.24928393261E+03 -0.13571568248E+03  0.82572658803E+03  0.00000000000E+00 0.  1.
        -13    1    3    3    0    0 -0.32207202572E+03  0.31152658243E+02 -0.42076244909E+02  0.32629938438E+03  0.00000000000E+00 0. -1.
         22    1    1    2    0    0  0.10974836407E+04 -0.28043659085E+03 -0.48027177119E+03  0.12303560449E+04  0.00000000000E+00 0. -1.
<mgrwt>
<rscale>  0 0.22896935E+04</rscale>
<asrwt>0</asrwt>
<pdfrwt beam="1">  1        2 0.23388044E+00 0.22896935E+04</pdfrwt>
<pdfrwt beam="2">  1       -2 0.13263987E+00 0.22896935E+04</pdfrwt>
<totfact> 0.46307114E+00</totfact>
</mgrwt>
</event>
<event>
 6    1  0.1614874E-005  0.1946286E+04  0.7818608E-02  0.8632154E-01
          2   -1    0    0  501    0  0.00000000000E+00  0.00000000000E+00  0.24013282139E+04  0.24013282139E+04  0.00000000000E+00 0.  1.
         -2   -1    0    0    0  501 -0.00000000000E+00 -0.00000000000E+00 -0.39436802516E+03  0.39436802516E+03  0.00000000000E+00 0. -1.
         23    2    1    2    0    0  0.72292436837E+03  0.34130262458E+03  0.17973046767E+04  0.19692202517E+04  0.91745161860E+02 0.  0.
         11    1    3    3    0    0  0.32090783341E+03  0.11040662559E+03  0.82366479002E+03  0.89083957413E+03  0.00000000000E+00 0. -1.
        -11    1    3    3    0    0  0.40201653496E+03  0.23089599900E+03  0.97363988671E+03  0.10783806776E+04  0.00000000000E+00 0.  1.
         22    1    1    2    0    0 -0.72292436837E+03 -0.34130262458E+03  0.20965551197E+03  0.82647598733E+03  0.00000000000E+00 0. -1.
<mgrwt>
<rscale>  0 0.19462858E+04</rscale>
<asrwt>0</asrwt>
<pdfrwt beam="1">  1        2 0.36943510E+00 0.19462858E+04</pdfrwt>
<pdfrwt beam="2">  1       -2 0.60672005E-01 0.19462858E+04</pdfrwt>
<totfact> 0.93709804E+00</totfact>
</mgrwt>
</event>
<event>
 6    1  0.1614874E-005  0.1633254E+04  0.7818608E-02  0.8800375E-01
          3   -1    0    0  501    0  0.00000000000E+00  0.00000000000E+00  0.13548257521E+04  0.13548257521E+04  0.00000000000E+00 0. -1.
         -3   -1    0    0    0  501 -0.00000000000E+00 -0.00000000000E+00 -0.49222537176E+03  0.49222537176E+03  0.00000000000E+00 0.  1.
         23    2    1    2    0    0  0.52362839659E+03  0.48119958869E+03 -0.15695251755E+02  0.71694362488E+03  0.89566056405E+02 0.  0.
         13    1    3    3    0    0  0.13255579935E+03  0.16591989815E+03 -0.29576016110E+02  0.21441826712E+03  0.00000000000E+00 0.  1.
        -13    1    3    3    0    0  0.39107259725E+03  0.31527969054E+03  0.13880764355E+02  0.50252535777E+03  0.00000000000E+00 0. -1.
         22    1    1    2    0    0 -0.52362839659E+03 -0.48119958869E+03  0.87829563206E+03  0.11301074989E+04  0.00000000000E+00 0. -1.
<mgrwt>
<rscale>  0 0.16332539E+04</rscale>
<asrwt>0</asrwt>
<pdfrwt beam="1">  1        3 0.20843473E+00 0.16332539E+04</pdfrwt>
<pdfrwt beam="2">  1       -3 0.75726981E-01 0.16332539E+04</pdfrwt>
<totfact> 0.53684456E-01</totfact>
</mgrwt>
</event>
<event>
 6    1  0.1614874E-005  0.1287715E+04  0.7818608E-02  0.9039365E-01
          2   -1    0    0  501    0  0.00000000000E+00  0.00000000000E+00  0.23659063089E+04  0.23659063089E+04  0.00000000000E+00 0. -1.
         -2   -1    0    0    0  501 -0.00000000000E+00 -0.00000000000E+00 -0.17521921441E+03  0.17521921441E+03  0.00000000000E+00 0.  1.
         23    2    1    2    0    0  0.62070780222E+03  0.13236657474E+02  0.77595142442E+03  0.99615613817E+03  0.69087290601E+02 0.  0.
         13    1    3    3    0    0  0.32260028032E+03 -0.10278268021E+02  0.45041374478E+03  0.55412013602E+03  0.00000000000E+00 0. -1.
        -13    1    3    3    0    0  0.29810752190E+03  0.23514925495E+02  0.32553767965E+03  0.44203600216E+03  0.00000000000E+00 0.  1.
         22    1    1    2    0    0 -0.62070780222E+03 -0.13236657474E+02  0.14147356701E+04  0.15449693851E+04  0.00000000000E+00 0.  1.
<mgrwt>
<rscale>  0 0.12877146E+04</rscale>
<asrwt>0</asrwt>
<pdfrwt beam="1">  1        2 0.36398556E+00 0.12877146E+04</pdfrwt>
<pdfrwt beam="2">  1       -2 0.26956804E-01 0.12877146E+04</pdfrwt>
<totfact> 0.51180595E+01</totfact>
</mgrwt>
</event>
<event>
 6    1  0.1614874E-005  0.2085786E+04  0.7818608E-02  0.8567531E-01
          2   -1    0    0  501    0  0.00000000000E+00  0.00000000000E+00  0.18340696717E+04  0.18340696717E+04  0.00000000000E+00 0. -1.
         -2   -1    0    0    0  501 -0.00000000000E+00 -0.00000000000E+00 -0.59301249927E+03  0.59301249927E+03  0.00000000000E+00 0.  1.
         23    2    1    2    0    0 -0.34936217903E+03  0.97440681478E+03  0.49567788593E+03  0.11514988324E+04  0.93436725477E+02 0.  0.
         13    1    3    3    0    0 -0.20701215192E+03  0.45107455876E+03  0.21581275619E+03  0.54119999477E+03  0.00000000000E+00 0. -1.
        -13    1    3    3    0    0 -0.14235002711E+03  0.52333225602E+03  0.27986512975E+03  0.61029883766E+03  0.00000000000E+00 0.  1.
         22    1    1    2    0    0  0.34936217903E+03 -0.97440681478E+03  0.74537928650E+03  0.12755833385E+04  0.00000000000E+00 0.  1.
<mgrwt>
<rscale>  0 0.20857864E+04</rscale>
<asrwt>0</asrwt>
<pdfrwt beam="1">  1        2 0.28216456E+00 0.20857864E+04</pdfrwt>
<pdfrwt beam="2">  1       -2 0.91232693E-01 0.20857864E+04</pdfrwt>
<totfact> 0.78049661E+00</totfact>
</mgrwt>
</event>
<event>
 6    1  0.1614874E-005  0.6188717E+03  0.7818608E-02  0.9867009E-01
         -1   -1    0    0    0  501 -0.00000000000E+00  0.00000000000E+00  0.44789911140E+03  0.44789911140E+03  0.00000000000E+00 0.  1.
          1   -1    0    0  501    0  0.00000000000E+00 -0.00000000000E+00 -0.21377700497E+03  0.21377700497E+03  0.00000000000E+00 0. -1.
         23    2    1    2    0    0 -0.88688014464E+02  0.20715201388E+03  0.33570231665E+03  0.41449994463E+03  0.91305191162E+02 0.  0.
         13    1    3    3    0    0  0.27662917301E+01  0.68077932532E+02  0.52538747712E+02  0.86038231496E+02  0.00000000000E+00 0.  1.
        -13    1    3    3    0    0 -0.91454306194E+02  0.13907408135E+03  0.28316356894E+03  0.32846171314E+03  0.00000000000E+00 0. -1.
         22    1    1    2    0    0  0.88688014464E+02 -0.20715201388E+03 -0.10158021022E+03  0.24717617173E+03  0.00000000000E+00 0. -1.
<mgrwt>
<rscale>  0 0.61887165E+03</rscale>
<asrwt>0</asrwt>
<pdfrwt beam="1">  1        1 0.32888770E-01 0.61887165E+03</pdfrwt>
<pdfrwt beam="2">  1       -1 0.68907555E-01 0.61887165E+03</pdfrwt>
<totfact> 0.29491459E+02</totfact>
</mgrwt>
</event>
<event>
 6    1  0.1614874E-005  0.1649908E+04  0.7818608E-02  0.8790461E-01
         -2   -1    0    0    0  501 -0.00000000000E+00  0.00000000000E+00  0.67780588061E+03  0.67780588061E+03  0.00000000000E+00 0.  1.
          2   -1    0    0  501    0  0.00000000000E+00 -0.00000000000E+00 -0.10040473735E+04  0.10040473735E+04  0.00000000000E+00 0. -1.
         23    2    1    2    0    0  0.47050479494E+03  0.54072336230E+03  0.24734833544E+03  0.76383266188E+03  0.92209650895E+02 0.  0.
         13    1    3    3    0    0  0.11319000905E+03  0.18313357364E+03  0.99286797875E+02  0.23708174155E+03  0.00000000000E+00 0. -1.
        -13    1    3    3    0    0  0.35731478589E+03  0.35758978866E+03  0.14806153756E+03  0.52675092033E+03  0.00000000000E+00 0.  1.
         22    1    1    2    0    0 -0.47050479494E+03 -0.54072336230E+03 -0.57358982833E+03  0.91802059223E+03  0.00000000000E+00 0.  1.
<mgrwt>
<rscale>  0 0.16499081E+04</rscale>
<asrwt>0</asrwt>
<pdfrwt beam="1">  1        2 0.15446883E+00 0.16499081E+04</pdfrwt>
<pdfrwt beam="2">  1       -2 0.10427783E+00 0.16499081E+04</pdfrwt>
<totfact> 0.17878378E+01</totfact>
</mgrwt>
</event>
<event>
 6    1  0.1614874E-005  0.2472442E+04  0.7818608E-02  0.8412869E-01
          2   -1    0    0  501    0  0.00000000000E+00  0.00000000000E+00  0.27085184775E+04  0.27085184775E+04  0.00000000000E+00 0. -1.
         -2   -1    0    0    0  501 -0.00000000000E+00 -0.00000000000E+00 -0.56423550895E+03  0.56423550895E+03  0.00000000000E+00 0.  1.
         23    2    1    2    0    0  0.11334582597E+04  0.56651274669E+02  0.17169358256E+04  0.20600864417E+04  0.90280256833E+02 0.  0.
         11    1    3    3    0    0  0.46328723459E+03 -0.20486463944E+02  0.71434593771E+03  0.85167181218E+03  0.00000000000E+00 0. -1.
        -11    1    3    3    0    0  0.67017102511E+03  0.77137738613E+02  0.10025898879E+04  0.12084146295E+04  0.00000000000E+00 0.  1.
         22    1    1    2    0    0 -0.11334582597E+04 -0.56651274669E+02  0.42734714296E+03  0.12126675447E+04  0.00000000000E+00 0.  1.
<mgrwt>
<rscale>  0 0.24724420E+04</rscale>
<asrwt>0</asrwt>
<pdfrwt beam="1">  1        2 0.41669514E+00 0.24724420E+04</pdfrwt>
<pdfrwt beam="2">  1       -2 0.86805464E-01 0.24724420E+04</pdfrwt>
<totfact> 0.26941440E+00</totfact>
</mgrwt>
</event>
<event>
 6    1  0.1614874E-005  0.3327236E+04  0.7818608E-02  0.8156000E-01
         -2   -1    0    0    0  501 -0.00000000000E+00  0.00000000000E+00  0.13884989830E+04  0.13884989830E+04  0.00000000000E+00 0.  1.
          2   -1    0    0  501    0  0.00000000000E+00 -0.00000000000E+00 -0.19932493188E+04  0.19932493188E+04  0.00000000000E+00 0. -1.
         23    2    1    2    0    0 -0.11152850625E+04 -0.12327209633E+04 -0.29741370066E+03  0.16912106503E+04  0.90976977184E+02 0.  0.
         13    1    3    3    0    0 -0.97589112661E+03 -0.10565553949E+04 -0.22918220330E+03  0.14564330660E+04  0.00000000000E+00 0.  1.
        -13    1    3    3    0    0 -0.13939393593E+03 -0.17616556841E+03 -0.68231497361E+02  0.23477758433E+03  0.00000000000E+00 0. -1.
         22    1    1    2    0    0  0.11152850625E+04  0.12327209633E+04 -0.30733663511E+03  0.16905376515E+04  0.00000000000E+00 0.  1.
<mgrwt>
<rscale>  0 0.33272359E+04</rscale>
<asrwt>0</asrwt>
<pdfrwt beam="1">  1        2 0.30665374E+00 0.33272359E+04</pdfrwt>
<pdfrwt beam="2">  1       -2 0.21361523E+00 0.33272359E+04</pdfrwt>
<totfact> 0.60964960E-01</totfact>
</mgrwt>
</event>
<event>
 6    1  0.2070122E-005  0.2554671E+04  0.7818608E-02  0.8383763E-01
         -1   -1    0    0    0  501 -0.00000000000E+00  0.00000000000E+00  0.10559868355E+04  0.10559868355E+04  0.00000000000E+00 0.  1.
          1   -1    0    0  501    0  0.00000000000E+00 -0.00000000000E+00 -0.15450822838E+04  0.15450822838E+04  0.00000000000E+00 0. -1.
         23    2    1    2    0    0  0.11474472177E+04 -0.47920624470E+02 -0.81038588206E+03  0.14085260188E+04  0.91042649654E+02 0.  0.
         11    1    3    3    0    0  0.60228342826E+03 -0.67938360360E+02 -0.44539199162E+03  0.75215355811E+03  0.00000000000E+00 0. -1.
        -11    1    3    3    0    0  0.54516378947E+03  0.20017735890E+02 -0.36499389044E+03  0.65637246069E+03  0.00000000000E+00 0.  1.
         22    1    1    2    0    0 -0.11474472177E+04  0.47920624470E+02  0.32129043372E+03  0.11925431005E+04  0.00000000000E+00 0.  1.
<mgrwt>
<rscale>  0 0.25546714E+04</rscale>
<asrwt>0</asrwt>
<pdfrwt beam="1">  1        1 0.23770497E+00 0.25546714E+04</pdfrwt>
<pdfrwt beam="2">  1       -1 0.16245951E+00 0.25546714E+04</pdfrwt>
<totfact> 0.15073358E+00</totfact>
</mgrwt>
</event>
<event>
 6    1  0.1614874E-005  0.2182599E+04  0.7818608E-02  0.8525706E-01
         -2   -1    0    0    0  501 -0.00000000000E+00  0.00000000000E+00  0.31657240932E+03  0.31657240932E+03  0.00000000000E+00 0. -1.
          2   -1    0    0  501    0  0.00000000000E+00 -0.00000000000E+00 -0.37619672365E+04  0.37619672365E+04  0.00000000000E+00 0.  1.
         23    2    1    2    0    0  0.64337497053E+03 -0.84857416415E+02 -0.90628895541E+02  0.66158389692E+03  0.91364775066E+02 0.  0.
         11    1    3    3    0    0  0.42599555137E+03 -0.94351719895E+02 -0.39737734501E+02  0.43812503281E+03  0.00000000000E+00 0. -1.
        -11    1    3    3    0    0  0.21737941917E+03  0.94943034804E+01 -0.50891161040E+02  0.22345886411E+03  0.00000000000E+00 0.  1.
         22    1    1    2    0    0 -0.64337497053E+03  0.84857416415E+02 -0.33547659317E+04  0.34169557489E+04  0.00000000000E+00 0.  1.
<mgrwt>
<rscale>  0 0.21825994E+04</rscale>
<asrwt>0</asrwt>
<pdfrwt beam="1">  1        2 0.57876415E+00 0.21825994E+04</pdfrwt>
<pdfrwt beam="2">  1       -2 0.48703451E-01 0.21825994E+04</pdfrwt>
<totfact> 0.19282899E+00</totfact>
</mgrwt>
</event>
<event>
 6    1  0.1614874E-005  0.1434904E+04  0.7818608E-02  0.8928934E-01
         -2   -1    0    0    0  501 -0.00000000000E+00  0.00000000000E+00  0.56429992312E+03  0.56429992312E+03  0.00000000000E+00 0.  1.
          2   -1    0    0  501    0  0.00000000000E+00 -0.00000000000E+00 -0.91216954172E+03  0.91216954172E+03  0.00000000000E+00 0. -1.
         23    2    1    2    0    0 -0.69238437547E+03 -0.70126793805E+02 -0.75883505915E+01  0.70180487163E+03  0.90324991962E+02 0.  0.
         13    1    3    3    0    0 -0.21972487535E+03 -0.30074523228E-01  0.33281790135E+02  0.22223118437E+03  0.00000000000E+00 0.  1.
        -13    1    3    3    0    0 -0.47265950012E+03 -0.70096719282E+02 -0.40870140727E+02  0.47957368726E+03  0.00000000000E+00 0. -1.
         22    1    1    2    0    0  0.69238437547E+03  0.70126793805E+02 -0.34028126801E+03  0.77466459320E+03  0.00000000000E+00 0. -1.
<mgrwt>
<rscale>  0 0.14349038E+04</rscale>
<asrwt>0</asrwt>
<pdfrwt beam="1">  1        2 0.14033377E+00 0.14349038E+04</pdfrwt>
<pdfrwt beam="2">  1       -2 0.86815373E-01 0.14349038E+04</pdfrwt>
<totfact> 0.32079757E+01</totfact>
</mgrwt>
</event>
<event>
 6    1  0.1614874E-005  0.3797656E+04  0.7818608E-02  0.8046658E-01
          2   -1    0    0  501    0  0.00000000000E+00  0.00000000000E+00  0.12126100941E+04  0.12126100941E+04  0.00000000000E+00 0. -1.
         -2   -1    0    0    0  501 -0.00000000000E+00 -0.00000000000E+00 -0.29733773452E+04  0.29733773452E+04  0.00000000000E+00 0.  1.
         23    2    1    2    0    0 -0.80415131940E+03 -0.12127250680E+04 -0.22229061067E+04  0.26592478554E+04  0.11369328156E+03 0.  0.
         13    1    3    3    0    0 -0.47119901260E+03 -0.61602574062E+03 -0.12218721966E+04  0.14472345655E+04  0.00000000000E+00 0. -1.
        -13    1    3    3    0    0 -0.33295230680E+03 -0.59669932741E+03 -0.10010339101E+04  0.12120132900E+04  0.00000000000E+00 0.  1.
         22    1    1    2    0    0  0.80415131940E+03  0.12127250680E+04  0.46213885557E+03  0.15267395839E+04  0.00000000000E+00 0.  1.
<mgrwt>
<rscale>  0 0.37976558E+04</rscale>
<asrwt>0</asrwt>
<pdfrwt beam="1">  1        2 0.18655540E+00 0.37976558E+04</pdfrwt>
<pdfrwt beam="2">  1       -2 0.45744266E+00 0.37976558E+04</pdfrwt>
<totfact> 0.46252301E-02</totfact>
</mgrwt>
</event>
<event>
 6    1  0.1614874E-005  0.1581868E+04  0.7818608E-02  0.8831765E-01
         -2   -1    0    0    0  501 -0.00000000000E+00  0.00000000000E+00  0.81400482471E+03  0.81400482471E+03  0.00000000000E+00 0.  1.
          2   -1    0    0  501    0  0.00000000000E+00 -0.00000000000E+00 -0.76851720174E+03  0.76851720174E+03  0.00000000000E+00 0. -1.
         23    2    1    2    0    0 -0.20849934849E+02  0.59924466672E+03 -0.48917635554E+03  0.77915756353E+03  0.90907159281E+02 0.  0.
         13    1    3    3    0    0 -0.48573041975E+02  0.48146771309E+03 -0.36826420155E+03  0.60810280488E+03  0.00000000000E+00 0. -1.
        -13    1    3    3    0    0  0.27723107126E+02  0.11777695363E+03 -0.12091215399E+03  0.17105475865E+03  0.00000000000E+00 0.  1.
         22    1    1    2    0    0  0.20849934849E+02 -0.59924466672E+03  0.53466397850E+03  0.80336446292E+03  0.00000000000E+00 0.  1.
<mgrwt>
<rscale>  0 0.15818681E+04</rscale>
<asrwt>0</asrwt>
<pdfrwt beam="1">  1        2 0.11823342E+00 0.15818681E+04</pdfrwt>
<pdfrwt beam="2">  1       -2 0.12523151E+00 0.15818681E+04</pdfrwt>
<totfact> 0.16644647E+01</totfact>
</mgrwt>
</event>
<event>
 6    1  0.1614874E-005  0.2475587E+04  0.7818608E-02  0.8411735E-01
          1   -1    0    0  501    0  0.00000000000E+00  0.00000000000E+00  0.53140754333E+03  0.53140754333E+03  0.00000000000E+00 0. -1.
         -1   -1    0    0    0  501 -0.00000000000E+00 -0.00000000000E+00 -0.28831598734E+04  0.28831598734E+04  0.00000000000E+00 0.  1.
         23    2    1    2    0    0  0.12298479038E+04 -0.72513602340E+02 -0.13166353345E+04  0.18054523545E+04  0.91353771103E+02 0.  0.
         13    1    3    3    0    0  0.83992811631E+03 -0.19119588994E+02 -0.93962383922E+03  0.12604514106E+04  0.00000000000E+00 0.  1.
        -13    1    3    3    0    0  0.38991978746E+03 -0.53394013346E+02 -0.37701149531E+03  0.54500094395E+03  0.00000000000E+00 0. -1.
         22    1    1    2    0    0 -0.12298479038E+04  0.72513602340E+02 -0.10351169956E+04  0.16091150622E+04  0.00000000000E+00 0. -1.
<mgrwt>
<rscale>  0 0.24755871E+04</rscale>
<asrwt>0</asrwt>
<pdfrwt beam="1">  1        1 0.81755007E-01 0.24755871E+04</pdfrwt>
<pdfrwt beam="2">  1       -1 0.44356306E+00 0.24755871E+04</pdfrwt>
<totfact> 0.12984755E-01</totfact>
</mgrwt>
</event>
<event>
 6    1  0.1614874E-005  0.2391117E+04  0.7818608E-02  0.8442837E-01
          1   -1    0    0  501    0  0.00000000000E+00  0.00000000000E+00  0.14934588520E+04  0.14934588520E+04  0.00000000000E+00 0. -1.
         -1   -1    0    0    0  501 -0.00000000000E+00 -0.00000000000E+00 -0.95708072326E+03  0.95708072326E+03  0.00000000000E+00 0.  1.
         23    2    1    2    0    0 -0.94139246779E+03 -0.61895391133E+03 -0.13605404666E+03  0.11384844113E+04  0.91171971741E+02 0.  0.
         13    1    3    3    0    0 -0.82454954187E+03 -0.56448314960E+03 -0.14269047593E+03  0.10093977140E+04  0.00000000000E+00 0. -1.
        -13    1    3    3    0    0 -0.11684292592E+03 -0.54470761737E+02  0.66364292698E+01  0.12908669728E+03  0.00000000000E+00 0.  1.
         22    1    1    2    0    0  0.94139246779E+03  0.61895391133E+03  0.67243217544E+03  0.13120551640E+04  0.00000000000E+00 0. -1.
<mgrwt>
<rscale>  0 0.23911175E+04</rscale>
<asrwt>0</asrwt>
<pdfrwt beam="1">  1        1 0.22976290E+00 0.23911175E+04</pdfrwt>
<pdfrwt beam="2">  1       -1 0.14724319E+00 0.23911175E+04</pdfrwt>
<totfact> 0.21742400E+00</totfact>
</mgrwt>
</event>
<event>
 6    1  0.1614874E-005  0.2042914E+04  0.7818608E-02  0.8586816E-01
         -2   -1    0    0    0  501 -0.00000000000E+00  0.00000000000E+00  0.78686513619E+03  0.78686513619E+03  0.00000000000E+00 0.  1.
          2   -1    0    0  501    0  0.00000000000E+00 -0.00000000000E+00 -0.13259890364E+04  0.13259890364E+04  0.00000000000E+00 0. -1.
         23    2    1    2    0    0 -0.92034318874E+03 -0.36904526061E+03 -0.26295444399E+02  0.99651237255E+03  0.95495909894E+02 0.  0.
         11    1    3    3    0    0 -0.60503614035E+03 -0.26173256871E+03  0.24053459560E+02  0.65965994086E+03  0.00000000000E+00 0. -1.
        -11    1    3    3    0    0 -0.31530704839E+03 -0.10731269190E+03 -0.50348903959E+02  0.33685243169E+03  0.00000000000E+00 0.  1.
         22    1    1    2    0    0  0.92034318874E+03  0.36904526061E+03 -0.51282845582E+03  0.11163418000E+04  0.00000000000E+00 0.  1.
<mgrwt>
<rscale>  0 0.20429141E+04</rscale>
<asrwt>0</asrwt>
<pdfrwt beam="1">  1        2 0.20399831E+00 0.20429141E+04</pdfrwt>
<pdfrwt beam="2">  1       -2 0.12105618E+00 0.20429141E+04</pdfrwt>
<totfact> 0.76807914E+00</totfact>
</mgrwt>
</event>
<event>
 6    1  0.1614874E-005  0.2395536E+04  0.7818608E-02  0.8441177E-01
          1   -1    0    0  501    0  0.00000000000E+00  0.00000000000E+00  0.13677997904E+04  0.13677997904E+04  0.00000000000E+00 0. -1.
         -1   -1    0    0    0  501 -0.00000000000E+00 -0.00000000000E+00 -0.10488726004E+04  0.10488726004E+04  0.00000000000E+00 0.  1.
         23    2    1    2    0    0  0.15562596000E+03  0.78941221320E+03 -0.73280866687E+03  0.10924596457E+04  0.95228428418E+02 0.  0.
         11    1    3    3    0    0 -0.12992469799E+02  0.39892470879E+02 -0.39403610427E+02  0.57557432352E+02  0.00000000000E+00 0. -1.
        -11    1    3    3    0    0  0.16861842980E+03  0.74951974232E+03 -0.69340505644E+03  0.10349022134E+04  0.00000000000E+00 0.  1.
         22    1    1    2    0    0 -0.15562596000E+03 -0.78941221320E+03  0.10517358569E+04  0.13242127451E+04  0.00000000000E+00 0. -1.
<mgrwt>
<rscale>  0 0.23955356E+04</rscale>
<asrwt>0</asrwt>
<pdfrwt beam="1">  1        1 0.21043074E+00 0.23955356E+04</pdfrwt>
<pdfrwt beam="2">  1       -1 0.16136502E+00 0.23955356E+04</pdfrwt>
<totfact> 0.20710731E+00</totfact>
</mgrwt>
</event>
<event>
 6    1  0.1614874E-005  0.2785643E+04  0.7818608E-02  0.8307740E-01
         -2   -1    0    0    0  501 -0.00000000000E+00  0.00000000000E+00  0.77677922277E+03  0.77677922277E+03  0.00000000000E+00 0.  1.
          2   -1    0    0  501    0  0.00000000000E+00 -0.00000000000E+00 -0.24974296769E+04  0.24974296769E+04  0.00000000000E+00 0. -1.
         23    2    1    2    0    0 -0.34229841197E+02 -0.12595391628E+04 -0.16774757776E+03  0.12744294298E+04  0.91763485022E+02 0.  0.
         11    1    3    3    0    0  0.64573019560E+01 -0.10730302661E+03 -0.38807379315E+02  0.11428757132E+03  0.00000000000E+00 0. -1.
        -11    1    3    3    0    0 -0.40687143153E+02 -0.11522361362E+04 -0.12894019845E+03  0.11601418585E+04  0.00000000000E+00 0.  1.
         22    1    1    2    0    0  0.34229841197E+02  0.12595391628E+04 -0.15529028764E+04  0.19997794698E+04  0.00000000000E+00 0. -1.
<mgrwt>
<rscale>  0 0.27856428E+04</rscale>
<asrwt>0</asrwt>
<pdfrwt beam="1">  1        2 0.38421995E+00 0.27856428E+04</pdfrwt>
<pdfrwt beam="2">  1       -2 0.11950450E+00 0.27856428E+04</pdfrwt>
<totfact> 0.16322392E+00</totfact>
</mgrwt>
</event>
<event>
 6    1  0.1614874E-005  0.1983852E+04  0.7818608E-02  0.8614208E-01
          1   -1    0    0  501    0  0.00000000000E+00  0.00000000000E+00  0.21477907889E+04  0.21477907889E+04  0.00000000000E+00 0. -1.
         -1   -1    0    0    0  501 -0.00000000000E+00 -0.00000000000E+00 -0.45810647312E+03  0.45810647312E+03  0.00000000000E+00 0.  1.
         23    2    1    2    0    0 -0.43332682550E+03  0.25869876596E+02  0.20149793152E+04  0.20634415266E+04  0.95957826524E+02 0.  0.
         11    1    3    3    0    0 -0.10646999488E+03 -0.34773835177E+02  0.48580452319E+03  0.49854900880E+03  0.00000000000E+00 0. -1.
        -11    1    3    3    0    0 -0.32685683061E+03  0.60643711773E+02  0.15291747921E+04  0.15648925178E+04  0.00000000000E+00 0.  1.
         22    1    1    2    0    0  0.43332682550E+03 -0.25869876596E+02 -0.32529499949E+03  0.54245573543E+03  0.00000000000E+00 0.  1.
<mgrwt>
<rscale>  0 0.19838517E+04</rscale>
<asrwt>0</asrwt>
<pdfrwt beam="1">  1        1 0.33042935E+00 0.19838517E+04</pdfrwt>
<pdfrwt beam="2">  1       -1 0.70477920E-01 0.19838517E+04</pdfrwt>
<totfact> 0.44690900E+00</totfact>
</mgrwt>
</event>
<event>
 6    1  0.1614874E-005  0.5306753E+04  0.7818608E-02  0.7782855E-01
          2   -1    0    0  501    0  0.00000000000E+00  0.00000000000E+00  0.33223169714E+04  0.33223169714E+04  0.00000000000E+00 0. -1.
         -2   -1    0    0    0  501 -0.00000000000E+00 -0.00000000000E+00 -0.21191254095E+04  0.21191254095E+04  0.00000000000E+00 0.  1.
         23    2    1    2    0    0 -0.11420307141E+04 -0.13240615949E+04  0.26471224220E+04  0.31737762705E+04  0.90694207275E+02 0.  0.
         13    1    3    3    0    0 -0.33709089099E+03 -0.33149130218E+03  0.69520727223E+03  0.84073176672E+03  0.00000000000E+00 0.  1.
        -13    1    3    3    0    0 -0.80493982309E+03 -0.99257029270E+03  0.19519151498E+04  0.23330445038E+04  0.00000000000E+00 0. -1.
         22    1    1    2    0    0  0.11420307141E+04  0.13240615949E+04 -0.14439308602E+04  0.22676661103E+04  0.00000000000E+00 0.  1.
<mgrwt>
<rscale>  0 0.53067528E+04</rscale>
<asrwt>0</asrwt>
<pdfrwt beam="1">  1        2 0.51112569E+00 0.53067528E+04</pdfrwt>
<pdfrwt beam="2">  1       -2 0.32601929E+00 0.53067528E+04</pdfrwt>
<totfact> 0.16781860E-02</totfact>
</mgrwt>
</event>
<event>
 6    1  0.1614874E-005  0.2997041E+04  0.7818608E-02  0.8244576E-01
          1   -1    0    0  501    0  0.00000000000E+00  0.00000000000E+00  0.14474124952E+04  0.14474124952E+04  0.00000000000E+00 0. -1.
         -1   -1    0    0    0  501 -0.00000000000E+00 -0.00000000000E+00 -0.15514326426E+04  0.15514326426E+04  0.00000000000E+00 0.  1.
         23    2    1    2    0    0  0.87164310162E+03  0.62179625993E+03  0.99501075616E+03  0.14644849414E+04  0.90980509710E+02 0.  0.
         13    1    3    3    0    0  0.73066240408E+03  0.53442485005E+03  0.79621541148E+03  0.12055855219E+04  0.00000000000E+00 0. -1.
        -13    1    3    3    0    0  0.14098069755E+03  0.87371409876E+02  0.19879534469E+03  0.25889941949E+03  0.00000000000E+00 0.  1.
         22    1    1    2    0    0 -0.87164310162E+03 -0.62179625993E+03 -0.10990309036E+04  0.15343601965E+04  0.00000000000E+00 0.  1.
<mgrwt>
<rscale>  0 0.29970405E+04</rscale>
<asrwt>0</asrwt>
<pdfrwt beam="1">  1        1 0.22267885E+00 0.29970405E+04</pdfrwt>
<pdfrwt beam="2">  1       -1 0.23868194E+00 0.29970405E+04</pdfrwt>
<totfact> 0.50109863E-01</totfact>
</mgrwt>
</event>
<event>
 6    1  0.1958497E-005  0.2927142E+04  0.7818608E-02  0.8264847E-01
          1   -1    0    0  501    0  0.00000000000E+00  0.00000000000E+00  0.29882862417E+04  0.29882862417E+04  0.00000000000E+00 0. -1.
         -1   -1    0    0    0  501 -0.00000000000E+00 -0.00000000000E+00 -0.71681244148E+03  0.71681244148E+03  0.00000000000E+00 0.  1.
         23    2    1    2    0    0 -0.53191170194E+02 -0.10060684047E+04  0.24781375800E+04  0.26766470055E+04  0.90941691102E+02 0.  0.
         11    1    3    3    0    0  0.10102032370E+02 -0.48661226519E+03  0.11202072825E+04  0.12213754147E+04  0.00000000000E+00 0.  1.
        -11    1    3    3    0    0 -0.63293202563E+02 -0.51945613952E+03  0.13579302974E+04  0.14552715908E+04  0.00000000000E+00 0. -1.
         22    1    1    2    0    0  0.53191170194E+02  0.10060684047E+04 -0.20666377973E+03  0.10284516777E+04  0.00000000000E+00 0.  1.
<mgrwt>
<rscale>  0 0.29271425E+04</rscale>
<asrwt>0</asrwt>
<pdfrwt beam="1">  1        1 0.45973634E+00 0.29271425E+04</pdfrwt>
<pdfrwt beam="2">  1       -1 0.11027884E+00 0.29271425E+04</pdfrwt>
<totfact> 0.39576691E-01</totfact>
</mgrwt>
</event>
<event>
 6    1  0.1614874E-005  0.2393357E+04  0.7818608E-02  0.8441995E-01
          2   -1    0    0  501    0  0.00000000000E+00  0.00000000000E+00  0.10768154140E+04  0.10768154140E+04  0.00000000000E+00 0.  1.
         -2   -1    0    0    0  501 -0.00000000000E+00 -0.00000000000E+00 -0.13298837291E+04  0.13298837291E+04  0.00000000000E+00 0. -1.
         23    2    1    2    0    0 -0.72087315618E+03  0.10990119320E+03 -0.10778491198E+04  0.13057905386E+04  0.10767463049E+03 0.  0.
         11    1    3    3    0    0 -0.25885656349E+03  0.82112439883E+02 -0.34576431537E+03  0.43966138678E+03  0.00000000000E+00 0. -1.
        -11    1    3    3    0    0 -0.46201659269E+03  0.27788753316E+02 -0.73208480445E+03  0.86612915182E+03  0.00000000000E+00 0.  1.
         22    1    1    2    0    0  0.72087315618E+03 -0.10990119320E+03  0.82478080476E+03  0.11009086045E+04  0.00000000000E+00 0.  1.
<mgrwt>
<rscale>  0 0.23933569E+04</rscale>
<asrwt>0</asrwt>
<pdfrwt beam="1">  1        2 0.16566391E+00 0.23933569E+04</pdfrwt>
<pdfrwt beam="2">  1       -2 0.20459750E+00 0.23933569E+04</pdfrwt>
<totfact> 0.25142397E+00</totfact>
</mgrwt>
</event>
<event>
 6    1  0.1614874E-005  0.4609262E+03  0.7818608E-02  0.1024513E+00
          2   -1    0    0  501    0  0.00000000000E+00  0.00000000000E+00  0.49803943404E+03  0.49803943404E+03  0.00000000000E+00 0. -1.
         -2   -1    0    0    0  501 -0.00000000000E+00 -0.00000000000E+00 -0.10664462558E+03  0.10664462558E+03  0.00000000000E+00 0.  1.
         23    2    1    2    0    0 -0.66797474060E+02  0.16866660393E+02  0.47960009661E+03  0.49276194549E+03  0.89731240250E+02 0.  0.
         13    1    3    3    0    0 -0.42109016532E+02  0.54019998049E+02  0.28514244052E+03  0.29325337312E+03  0.00000000000E+00 0. -1.
        -13    1    3    3    0    0 -0.24688457529E+02 -0.37153337656E+02  0.19445765609E+03  0.19950857236E+03  0.00000000000E+00 0.  1.
         22    1    1    2    0    0  0.66797474060E+02 -0.16866660393E+02 -0.88205288154E+02  0.11192211413E+03  0.00000000000E+00 0.  1.
<mgrwt>
<rscale>  0 0.46092615E+03</rscale>
<asrwt>0</asrwt>
<pdfrwt beam="1">  1        2 0.76621450E-01 0.46092615E+03</pdfrwt>
<pdfrwt beam="2">  1       -2 0.16406866E-01 0.46092615E+03</pdfrwt>
<totfact> 0.18529173E+03</totfact>
</mgrwt>
</event>
<event>
 6    1  0.1614874E-005  0.3777218E+04  0.7818608E-02  0.8051062E-01
          2   -1    0    0  501    0  0.00000000000E+00  0.00000000000E+00  0.38018075520E+04  0.38018075520E+04  0.00000000000E+00 0. -1.
         -2   -1    0    0    0  501 -0.00000000000E+00 -0.00000000000E+00 -0.93819688502E+03  0.93819688502E+03  0.00000000000E+00 0.  1.
         23    2    1    2    0    0  0.41152462186E+03 -0.10249921622E+04  0.33534295174E+04  0.35317478611E+04  0.88272190734E+02 0.  0.
         11    1    3    3    0    0  0.21169553821E+03 -0.56827904495E+03  0.17082866509E+04  0.18127325659E+04  0.00000000000E+00 0. -1.
        -11    1    3    3    0    0  0.19982908366E+03 -0.45671311724E+03  0.16451428664E+04  0.17190152952E+04  0.00000000000E+00 0.  1.
         22    1    1    2    0    0 -0.41152462186E+03  0.10249921622E+04 -0.48981885040E+03  0.12082565759E+04  0.00000000000E+00 0.  1.
<mgrwt>
<rscale>  0 0.37772180E+04</rscale>
<asrwt>0</asrwt>
<pdfrwt beam="1">  1        2 0.58489346E+00 0.37772180E+04</pdfrwt>
<pdfrwt beam="2">  1       -2 0.14433798E+00 0.37772180E+04</pdfrwt>
<totfact> 0.13008129E-01</totfact>
</mgrwt>
</event>
<event>
 6    1  0.1614874E-005  0.3095531E+04  0.7818608E-02  0.8216966E-01
          1   -1    0    0  501    0  0.00000000000E+00  0.00000000000E+00  0.13899875798E+04  0.13899875798E+04  0.00000000000E+00 0. -1.
         -1   -1    0    0    0  501 -0.00000000000E+00 -0.00000000000E+00 -0.17234524762E+04  0.17234524762E+04  0.00000000000E+00 0.  1.
         23    2    1    2    0    0  0.99291900889E+03  0.11536799285E+04 -0.44143713220E+03  0.15874900112E+04  0.91609271103E+02 0.  0.
         11    1    3    3    0    0  0.67999014195E+03  0.73077049320E+03 -0.26822602370E+03  0.10336137125E+04  0.00000000000E+00 0. -1.
        -11    1    3    3    0    0  0.31292886695E+03  0.42290943525E+03 -0.17321110850E+03  0.55387629874E+03  0.00000000000E+00 0.  1.
         22    1    1    2    0    0 -0.99291900889E+03 -0.11536799285E+04  0.10797223581E+03  0.15259500448E+04  0.00000000000E+00 0. -1.
<mgrwt>
<rscale>  0 0.30955307E+04</rscale>
<asrwt>0</asrwt>
<pdfrwt beam="1">  1        1 0.21384424E+00 0.30955307E+04</pdfrwt>
<pdfrwt beam="2">  1       -1 0.26514654E+00 0.30955307E+04</pdfrwt>
<totfact> 0.36618734E-01</totfact>
</mgrwt>
</event>
<event>
 6    1  0.1614874E-005  0.5876206E+04  0.7818608E-02  0.7705943E-01
         -2   -1    0    0    0  501 -0.00000000000E+00  0.00000000000E+00  0.24047654069E+04  0.24047654069E+04  0.00000000000E+00 0.  1.
          2   -1    0    0  501    0  0.00000000000E+00 -0.00000000000E+00 -0.35897263565E+04  0.35897263565E+04  0.00000000000E+00 0. -1.
         23    2    1    2    0    0  0.10382296088E+04  0.18448189548E+04  0.14843500284E+04  0.25876605680E+04  0.10683871751E+03 0.  0.
         13    1    3    3    0    0  0.65055369383E+03  0.10633992858E+04  0.90557914842E+03  0.15408152854E+04  0.00000000000E+00 0. -1.
        -13    1    3    3    0    0  0.38767591492E+03  0.78141966897E+03  0.57877088002E+03  0.10468452826E+04  0.00000000000E+00 0.  1.
         22    1    1    2    0    0 -0.10382296088E+04 -0.18448189548E+04 -0.26693109781E+04  0.34068311955E+04  0.00000000000E+00 0. -1.
<mgrwt>
<rscale>  0 0.58762062E+04</rscale>
<asrwt>0</asrwt>
<pdfrwt beam="1">  1        2 0.55226559E+00 0.58762062E+04</pdfrwt>
<pdfrwt beam="2">  1       -2 0.36996391E+00 0.58762062E+04</pdfrwt>
<totfact> 0.55312544E-03</totfact>
</mgrwt>
</event>
<event>
 6    1  0.1614874E-005  0.1499038E+04  0.7818608E-02  0.8885093E-01
          2   -1    0    0  501    0  0.00000000000E+00  0.00000000000E+00  0.75231465263E+03  0.75231465263E+03  0.00000000000E+00 0. -1.
         -2   -1    0    0    0  501 -0.00000000000E+00 -0.00000000000E+00 -0.74673399389E+03  0.74673399389E+03  0.00000000000E+00 0.  1.
         23    2    1    2    0    0  0.63942257429E+03  0.34286718506E+03  0.17998378484E+03  0.75283447786E+03  0.89142880526E+02 0.  0.
         13    1    3    3    0    0  0.23104782515E+03  0.13335037478E+03  0.23052418733E+02  0.26776264483E+03  0.00000000000E+00 0.  1.
        -13    1    3    3    0    0  0.40837474915E+03  0.20951681027E+03  0.15693136611E+03  0.48507183303E+03  0.00000000000E+00 0. -1.
         22    1    1    2    0    0 -0.63942257429E+03 -0.34286718506E+03 -0.17440312610E+03  0.74621416865E+03  0.00000000000E+00 0.  1.
<mgrwt>
<rscale>  0 0.14990383E+04</rscale>
<asrwt>0</asrwt>
<pdfrwt beam="1">  1        2 0.11574072E+00 0.14990383E+04</pdfrwt>
<pdfrwt beam="2">  1       -2 0.11488215E+00 0.14990383E+04</pdfrwt>
<totfact> 0.21333659E+01</totfact>
</mgrwt>
</event>
<event>
 6    1  0.1614874E-005  0.3377690E+04  0.7818608E-02  0.8143404E-01
         -1   -1    0    0    0  501 -0.00000000000E+00  0.00000000000E+00  0.13769247882E+04  0.13769247882E+04  0.00000000000E+00 0.  1.
          1   -1    0    0  501    0  0.00000000000E+00 -0.00000000000E+00 -0.20714255162E+04  0.20714255162E+04  0.00000000000E+00 0. -1.
         23    2    1    2    0    0  0.45797960145E+03  0.39877495753E+03 -0.19549329441E+04  0.20492591159E+04  0.94516273359E+02 0.  0.
         11    1    3    3    0    0  0.41280692916E+03  0.37852082386E+03 -0.17104053850E+04  0.17997705842E+04  0.00000000000E+00 0.  1.
        -11    1    3    3    0    0  0.45172672289E+02  0.20254133677E+02 -0.24452755915E+03  0.24948853168E+03  0.00000000000E+00 0. -1.
         22    1    1    2    0    0 -0.45797960145E+03 -0.39877495753E+03  0.12604322161E+04  0.13990911884E+04  0.00000000000E+00 0.  1.
<mgrwt>
<rscale>  0 0.33776898E+04</rscale>
<asrwt>0</asrwt>
<pdfrwt beam="1">  1        1 0.31868085E+00 0.33776898E+04</pdfrwt>
<pdfrwt beam="2">  1       -1 0.21183458E+00 0.33776898E+04</pdfrwt>
<totfact> 0.27442796E-01</totfact>
</mgrwt>
</event>
<event>
 6    1  0.1614874E-005  0.2581314E+04  0.7818608E-02  0.8374576E-01
          1   -1    0    0  501    0  0.00000000000E+00  0.00000000000E+00  0.14394254784E+04  0.14394254784E+04  0.00000000000E+00 0. -1.
         -1   -1    0    0    0  501 -0.00000000000E+00 -0.00000000000E+00 -0.11572645208E+04  0.11572645208E+04  0.00000000000E+00 0.  1.
         23    2    1    2    0    0  0.93518893277E+02  0.45907002053E+03 -0.10667603558E+04  0.11687264923E+04  0.91939598678E+02 0.  0.
         11    1    3    3    0    0  0.10996036616E+03  0.39298549700E+03 -0.94194157863E+03  0.10265392445E+04  0.00000000000E+00 0. -1.
        -11    1    3    3    0    0 -0.16441472887E+02  0.66084523537E+02 -0.12481877720E+03  0.14218724775E+03  0.00000000000E+00 0.  1.
         22    1    1    2    0    0 -0.93518893277E+02 -0.45907002053E+03  0.13489213134E+04  0.14279635069E+04  0.00000000000E+00 0. -1.
<mgrwt>
<rscale>  0 0.25813144E+04</rscale>
<asrwt>0</asrwt>
<pdfrwt beam="1">  1        1 0.22145007E+00 0.25813144E+04</pdfrwt>
<pdfrwt beam="2">  1       -1 0.17804070E+00 0.25813144E+04</pdfrwt>
<totfact> 0.13673254E+00</totfact>
</mgrwt>
</event>
<event>
 6    1  0.1614874E-005  0.2046736E+04  0.7818608E-02  0.8585076E-01
          2   -1    0    0  501    0  0.00000000000E+00  0.00000000000E+00  0.14078040109E+04  0.14078040109E+04  0.00000000000E+00 0.  1.
         -2   -1    0    0    0  501 -0.00000000000E+00 -0.00000000000E+00 -0.74391203237E+03  0.74391203237E+03  0.00000000000E+00 0. -1.
         23    2    1    2    0    0 -0.31007529832E+03  0.18360063366E+03  0.13373455043E+04  0.13879127081E+04  0.89178496170E+02 0.  0.
         13    1    3    3    0    0 -0.22019123633E+03  0.10544722426E+03  0.75430030191E+03  0.79282548088E+03  0.00000000000E+00 0. -1.
        -13    1    3    3    0    0 -0.89884061990E+02  0.78153409403E+02  0.58304520241E+03  0.59508722726E+03  0.00000000000E+00 0.  1.
         22    1    1    2    0    0  0.31007529832E+03 -0.18360063366E+03 -0.67345352581E+03  0.76380333512E+03  0.00000000000E+00 0. -1.
<mgrwt>
<rscale>  0 0.20467363E+04</rscale>
<asrwt>0</asrwt>
<pdfrwt beam="1">  1        2 0.21658523E+00 0.20467363E+04</pdfrwt>
<pdfrwt beam="2">  1       -2 0.11444801E+00 0.20467363E+04</pdfrwt>
<totfact> 0.79102557E+00</totfact>
</mgrwt>
</event>
<event>
 6    1  0.1614874E-005  0.3086592E+04  0.7818608E-02  0.8219427E-01
         -2   -1    0    0    0  501 -0.00000000000E+00  0.00000000000E+00  0.15433823985E+04  0.15433823985E+04  0.00000000000E+00 0.  1.
          2   -1    0    0  501    0  0.00000000000E+00 -0.00000000000E+00 -0.15432097604E+04  0.15432097604E+04  0.00000000000E+00 0. -1.
         23    2    1    2    0    0  0.26923869964E+03 -0.83208033720E+03 -0.12698774471E+04  0.15445563669E+04  0.90655805160E+02 0.  0.
         13    1    3    3    0    0  0.22339726376E+03 -0.55560179229E+03 -0.85137989828E+03  0.10408878039E+04  0.00000000000E+00 0.  1.
        -13    1    3    3    0    0  0.45841435886E+02 -0.27647854491E+03 -0.41849754883E+03  0.50366856306E+03  0.00000000000E+00 0. -1.
         22    1    1    2    0    0 -0.26923869964E+03  0.83208033720E+03  0.12700500852E+04  0.15420357920E+04  0.00000000000E+00 0.  1.
<mgrwt>
<rscale>  0 0.30865922E+04</rscale>
<asrwt>0</asrwt>
<pdfrwt beam="1">  1        2 0.23741689E+00 0.30865922E+04</pdfrwt>
<pdfrwt beam="2">  1       -2 0.23744344E+00 0.30865922E+04</pdfrwt>
<totfact> 0.78374580E-01</totfact>
</mgrwt>
</event>
<event>
 6    1  0.1614874E-005  0.4839290E+04  0.7818608E-02  0.7853788E-01
          2   -1    0    0  501    0  0.00000000000E+00  0.00000000000E+00  0.33077742115E+04  0.33077742115E+04  0.00000000000E+00 0.  1.
         -2   -1    0    0    0  501 -0.00000000000E+00 -0.00000000000E+00 -0.17699759981E+04  0.17699759981E+04  0.00000000000E+00 0. -1.
         23    2    1    2    0    0  0.22253165000E+03 -0.20366867357E+04 -0.58001160183E+03  0.21311026895E+04  0.87017356681E+02 0.  0.
         13    1    3    3    0    0  0.12303434002E+03 -0.94478076080E+03 -0.22950585876E+03  0.98001075198E+03  0.00000000000E+00 0.  1.
        -13    1    3    3    0    0  0.99497309977E+02 -0.10919059749E+04 -0.35050574306E+03  0.11510919375E+04  0.00000000000E+00 0. -1.
         22    1    1    2    0    0 -0.22253165000E+03  0.20366867357E+04  0.21178098152E+04  0.29466475201E+04  0.00000000000E+00 0.  1.
<mgrwt>
<rscale>  0 0.48392896E+04</rscale>
<asrwt>0</asrwt>
<pdfrwt beam="1">  1        2 0.50888834E+00 0.48392896E+04</pdfrwt>
<pdfrwt beam="2">  1       -2 0.27230400E+00 0.48392896E+04</pdfrwt>
<totfact> 0.38030392E-02</totfact>
</mgrwt>
</event>
<event>
 6    1  0.1614874E-005  0.2939099E+04  0.7818608E-02  0.8261339E-01
          2   -1    0    0  501    0  0.00000000000E+00  0.00000000000E+00  0.18362353153E+04  0.18362353153E+04  0.00000000000E+00 0. -1.
         -2   -1    0    0    0  501 -0.00000000000E+00 -0.00000000000E+00 -0.11760884736E+04  0.11760884736E+04  0.00000000000E+00 0.  1.
         23    2    1    2    0    0  0.48443442897E+03 -0.88649305592E+03 -0.76115374813E+03  0.12685801090E+04  0.96921672294E+02 0.  0.
         11    1    3    3    0    0  0.39303826641E+03 -0.62978310044E+03 -0.55635865248E+03  0.92770727207E+03  0.00000000000E+00 0. -1.
        -11    1    3    3    0    0  0.91396162566E+02 -0.25670995548E+03 -0.20479509565E+03  0.34087283696E+03  0.00000000000E+00 0.  1.
         22    1    1    2    0    0 -0.48443442897E+03  0.88649305592E+03  0.14213005898E+04  0.17437436798E+04  0.00000000000E+00 0. -1.
<mgrwt>
<rscale>  0 0.29390986E+04</rscale>
<asrwt>0</asrwt>
<pdfrwt beam="1">  1        2 0.28249774E+00 0.29390986E+04</pdfrwt>
<pdfrwt beam="2">  1       -2 0.18093669E+00 0.29390986E+04</pdfrwt>
<totfact> 0.12662991E+00</totfact>
</mgrwt>
</event>
<event>
 6    1  0.1614874E-005  0.1253175E+04  0.7818608E-02  0.9067545E-01
         -2   -1    0    0    0  501 -0.00000000000E+00  0.00000000000E+00  0.96047653998E+02  0.96047653998E+02  0.00000000000E+00 0.  1.
          2   -1    0    0  501    0  0.00000000000E+00 -0.00000000000E+00 -0.40876768711E+04  0.40876768711E+04  0.00000000000E+00 0. -1.
         23    2    1    2    0    0  0.41811643971E+03  0.42113600092E+03 -0.26417732041E+04  0.27091777662E+04  0.92204220986E+02 0.  0.
         11    1    3    3    0    0  0.23403145121E+03  0.29773562721E+03 -0.17033241359E+04  0.17449155670E+04  0.00000000000E+00 0. -1.
        -11    1    3    3    0    0  0.18408498850E+03  0.12340037371E+03 -0.93844906818E+03  0.96426219919E+03  0.00000000000E+00 0.  1.
         22    1    1    2    0    0 -0.41811643971E+03 -0.42113600092E+03 -0.13498560130E+04  0.14745467589E+04  0.00000000000E+00 0.  1.
<mgrwt>
<rscale>  0 0.12531748E+04</rscale>
<asrwt>0</asrwt>
<pdfrwt beam="1">  1        2 0.62887328E+00 0.12531748E+04</pdfrwt>
<pdfrwt beam="2">  1       -2 0.14776564E-01 0.12531748E+04</pdfrwt>
<totfact> 0.10672788E+01</totfact>
</mgrwt>
</event>
<event>
 6    1  0.1614874E-005  0.2866736E+04  0.7818608E-02  0.8282844E-01
          2   -1    0    0  501    0  0.00000000000E+00  0.00000000000E+00  0.23841425094E+04  0.23841425094E+04  0.00000000000E+00 0. -1.
         -2   -1    0    0    0  501 -0.00000000000E+00 -0.00000000000E+00 -0.86175380391E+03  0.86175380391E+03  0.00000000000E+00 0.  1.
         23    2    1    2    0    0  0.64528604011E+03 -0.26648381396E+03 -0.65350708256E+03  0.96074201281E+03  0.92444640550E+02 0.  0.
         13    1    3    3    0    0  0.25305369214E+03 -0.72246653113E+02 -0.29172626645E+03  0.39288670699E+03  0.00000000000E+00 0.  1.
        -13    1    3    3    0    0  0.39223234797E+03 -0.19423716085E+03 -0.36178081610E+03  0.56785530582E+03  0.00000000000E+00 0. -1.
         22    1    1    2    0    0 -0.64528604011E+03  0.26648381396E+03  0.21758957880E+04  0.22851543005E+04  0.00000000000E+00 0. -1.
<mgrwt>
<rscale>  0 0.28667360E+04</rscale>
<asrwt>0</asrwt>
<pdfrwt beam="1">  1        2 0.36679115E+00 0.28667360E+04</pdfrwt>
<pdfrwt beam="2">  1       -2 0.13257751E+00 0.28667360E+04</pdfrwt>
<totfact> 0.14513354E+00</totfact>
</mgrwt>
</event>
<event>
 6    1  0.1614874E-005  0.1801076E+04  0.7818608E-02  0.8705727E-01
         -1   -1    0    0    0  501 -0.00000000000E+00  0.00000000000E+00  0.61794948288E+03  0.61794948288E+03  0.00000000000E+00 0.  1.
          1   -1    0    0  501    0  0.00000000000E+00 -0.00000000000E+00 -0.13123549944E+04  0.13123549944E+04  0.00000000000E+00 0. -1.
         23    2    1    2    0    0 -0.63067706127E+03 -0.41469523382E+03 -0.86994899791E+03  0.11553585384E+04  0.91194302146E+02 0.  0.
         13    1    3    3    0    0 -0.48366373474E+03 -0.33875955875E+03 -0.62573752258E+03  0.86036974268E+03  0.00000000000E+00 0.  1.
        -13    1    3    3    0    0 -0.14701332653E+03 -0.75935675073E+02 -0.24421147532E+03  0.29498879573E+03  0.00000000000E+00 0. -1.
         22    1    1    2    0    0  0.63067706127E+03  0.41469523382E+03  0.17554348639E+03  0.77494593888E+03  0.00000000000E+00 0.  1.
<mgrwt>
<rscale>  0 0.18010764E+04</rscale>
<asrwt>0</asrwt>
<pdfrwt beam="1">  1        1 0.20190077E+00 0.18010764E+04</pdfrwt>
<pdfrwt beam="2">  1       -1 0.95069151E-01 0.18010764E+04</pdfrwt>
<totfact> 0.89404632E+00</totfact>
</mgrwt>
</event>
<event>
 6    1  0.1614874E-005  0.1554915E+04  0.7818608E-02  0.8848734E-01
         -2   -1    0    0    0  501 -0.00000000000E+00  0.00000000000E+00  0.18974772535E+03  0.18974772535E+03  0.00000000000E+00 0.  1.
          2   -1    0    0  501    0  0.00000000000E+00 -0.00000000000E+00 -0.31854951168E+04  0.31854951168E+04  0.00000000000E+00 0. -1.
         23    2    1    2    0    0 -0.42017436194E+03  0.22294455244E+03 -0.17543706711E+03  0.51510279428E+03  0.91115071571E+02 0.  0.
         11    1    3    3    0    0 -0.32347100776E+02  0.24596192614E+02  0.97145914725E+01  0.41781346403E+02  0.00000000000E+00 0.  1.
        -11    1    3    3    0    0 -0.38782726116E+03  0.19834835983E+03 -0.18515165859E+03  0.47332144788E+03  0.00000000000E+00 0. -1.
         22    1    1    2    0    0  0.42017436194E+03 -0.22294455244E+03 -0.28203103243E+04  0.28601400478E+04  0.00000000000E+00 0. -1.
<mgrwt>
<rscale>  0 0.15549154E+04</rscale>
<asrwt>0</asrwt>
<pdfrwt beam="1">  1        2 0.49007616E+00 0.15549154E+04</pdfrwt>
<pdfrwt beam="2">  1       -2 0.29191958E-01 0.15549154E+04</pdfrwt>
<totfact> 0.13878830E+01</totfact>
</mgrwt>
</event>
<event>
 6    1  0.1614874E-005  0.4230113E+03  0.7818608E-02  0.1036091E+00
          2   -1    0    0  501    0  0.00000000000E+00  0.00000000000E+00  0.65228349665E+03  0.65228349665E+03  0.00000000000E+00 0. -1.
         -2   -1    0    0    0  501 -0.00000000000E+00 -0.00000000000E+00 -0.68581586561E+02  0.68581586561E+02  0.00000000000E+00 0.  1.
         23    2    1    2    0    0  0.18661177756E+02 -0.11841346039E+03  0.28864089712E+02  0.15322523782E+03  0.90966206211E+02 0.  0.
         13    1    3    3    0    0  0.39720399452E+02 -0.67384095523E+02 -0.18623891402E+02  0.80406316873E+02  0.00000000000E+00 0.  1.
        -13    1    3    3    0    0 -0.21059221696E+02 -0.51029364868E+02  0.47487981114E+02  0.72818920945E+02  0.00000000000E+00 0. -1.
         22    1    1    2    0    0 -0.18661177756E+02  0.11841346039E+03  0.55483782038E+03  0.56763984540E+03  0.00000000000E+00 0.  1.
<mgrwt>
<rscale>  0 0.42301129E+03</rscale>
<asrwt>0</asrwt>
<pdfrwt beam="1">  1        2 0.10035130E+00 0.42301129E+03</pdfrwt>
<pdfrwt beam="2">  1       -2 0.10551014E-01 0.42301129E+03</pdfrwt>
<totfact> 0.27975382E+03</totfact>
</mgrwt>
</event>
<event>
 6    1  0.1614874E-005  0.2443502E+04  0.7818608E-02  0.8423394E-01
         -1   -1    0    0    0  501 -0.00000000000E+00  0.00000000000E+00  0.87638024591E+03  0.87638024591E+03  0.00000000000E+00 0.  1.
          1   -1    0    0  501    0  0.00000000000E+00 -0.00000000000E+00 -0.17032277473E+04  0.17032277473E+04  0.00000000000E+00 0. -1.
         23    2    1    2    0    0 -0.70254232018E+03 -0.59077482328E+03 -0.12624285456E+04  0.15635807054E+04  0.92077065067E+02 0.  0.
         11    1    3    3    0    0 -0.56492038480E+03 -0.51981406946E+03 -0.10490020701E+04  0.12999027083E+04  0.00000000000E+00 0. -1.
        -11    1    3    3    0    0 -0.13762193538E+03 -0.70960753820E+02 -0.21342647552E+03  0.26367799706E+03  0.00000000000E+00 0.  1.
         22    1    1    2    0    0  0.70254232018E+03  0.59077482328E+03  0.43558104427E+03  0.10160272878E+04  0.00000000000E+00 0.  1.
<mgrwt>
<rscale>  0 0.24435017E+04</rscale>
<asrwt>0</asrwt>
<pdfrwt beam="1">  1        1 0.26203503E+00 0.24435017E+04</pdfrwt>
<pdfrwt beam="2">  1       -1 0.13482773E+00 0.24435017E+04</pdfrwt>
<totfact> 0.19563803E+00</totfact>
</mgrwt>
</event>
<event>
 6    1  0.1614874E-005  0.3197896E+04  0.7818608E-02  0.8189373E-01
          2   -1    0    0  501    0  0.00000000000E+00  0.00000000000E+00  0.29187139802E+04  0.29187139802E+04  0.00000000000E+00 0. -1.
         -2   -1    0    0    0  501 -0.00000000000E+00 -0.00000000000E+00 -0.87594564524E+03  0.87594564524E+03  0.00000000000E+00 0.  1.
         23    2    1    2    0    0 -0.11677293159E+04  0.42246984386E+03 -0.17071796326E+03  0.12566300518E+04  0.88892856904E+02 0.  0.
         13    1    3    3    0    0 -0.60488721993E+03  0.23174536974E+03 -0.45902394813E+02  0.64938547495E+03  0.00000000000E+00 0.  1.
        -13    1    3    3    0    0 -0.56284209597E+03  0.19072447412E+03 -0.12481556845E+03  0.60724457688E+03  0.00000000000E+00 0. -1.
         22    1    1    2    0    0  0.11677293159E+04 -0.42246984386E+03  0.22134862983E+04  0.25380295737E+04  0.00000000000E+00 0. -1.
<mgrwt>
<rscale>  0 0.31978961E+04</rscale>
<asrwt>0</asrwt>
<pdfrwt beam="1">  1        2 0.44903292E+00 0.31978961E+04</pdfrwt>
<pdfrwt beam="2">  1       -2 0.13476087E+00 0.31978961E+04</pdfrwt>
<totfact> 0.65257387E-01</totfact>
</mgrwt>
</event>
<event>
 6    1  0.1614874E-005  0.3257743E+04  0.7818608E-02  0.8173732E-01
         -2   -1    0    0    0  501 -0.00000000000E+00  0.00000000000E+00  0.18154245379E+04  0.18154245379E+04  0.00000000000E+00 0.  1.
          2   -1    0    0  501    0  0.00000000000E+00 -0.00000000000E+00 -0.14614885785E+04  0.14614885785E+04  0.00000000000E+00 0. -1.
         23    2    1    2    0    0  0.40691167084E+03  0.68051295017E+03 -0.12526396483E+04  0.14853327620E+04  0.91827785637E+02 0.  0.
         13    1    3    3    0    0  0.25592259549E+03  0.43346902193E+03 -0.87516271194E+03  0.10096046455E+04  0.00000000000E+00 0. -1.
        -13    1    3    3    0    0  0.15098907535E+03  0.24704392824E+03 -0.37747693633E+03  0.47572811648E+03  0.00000000000E+00 0.  1.
         22    1    1    2    0    0 -0.40691167084E+03 -0.68051295017E+03  0.16065756077E+04  0.17915803545E+04  0.00000000000E+00 0.  1.
<mgrwt>
<rscale>  0 0.32577429E+04</rscale>
<asrwt>0</asrwt>
<pdfrwt beam="1">  1        2 0.22484440E+00 0.32577429E+04</pdfrwt>
<pdfrwt beam="2">  1       -2 0.27929608E+00 0.32577429E+04</pdfrwt>
<totfact> 0.47575881E-01</totfact>
</mgrwt>
</event>
<event>
 6    1  0.1614874E-005  0.9135560E+03  0.7818608E-02  0.9408793E-01
         -2   -1    0    0    0  501 -0.00000000000E+00  0.00000000000E+00  0.24435283230E+03  0.24435283230E+03  0.00000000000E+00 0. -1.
          2   -1    0    0  501    0  0.00000000000E+00 -0.00000000000E+00 -0.85387242338E+03  0.85387242338E+03  0.00000000000E+00 0.  1.
         23    2    1    2    0    0  0.22899157307E+03  0.24284141130E+03  0.59156681218E+02  0.35087189300E+03  0.90567548189E+02 0.  0.
         13    1    3    3    0    0  0.82940429526E+02  0.35583135291E+02  0.32505240730E+02  0.95926352177E+02  0.00000000000E+00 0. -1.
        -13    1    3    3    0    0  0.14605114354E+03  0.20725827601E+03  0.26651440488E+02  0.25494554082E+03  0.00000000000E+00 0.  1.
         22    1    1    2    0    0 -0.22899157307E+03 -0.24284141130E+03 -0.66867627230E+03  0.74735336268E+03  0.00000000000E+00 0.  1.
<mgrwt>
<rscale>  0 0.91355601E+03</rscale>
<asrwt>0</asrwt>
<pdfrwt beam="1">  1        2 0.13136499E+00 0.91355601E+03</pdfrwt>
<pdfrwt beam="2">  1       -2 0.37592743E-01 0.91355601E+03</pdfrwt>
<totfact> 0.21083571E+02</totfact>
</mgrwt>
</event>
<event>
 6    1  0.1642351E-005  0.1973092E+04  0.7818608E-02  0.8619305E-01
         -1   -1    0    0    0  501 -0.00000000000E+00  0.00000000000E+00  0.80970302567E+03  0.80970302567E+03  0.00000000000E+00 0.  1.
          1   -1    0    0  501    0  0.00000000000E+00 -0.00000000000E+00 -0.12020124499E+04  0.12020124499E+04  0.00000000000E+00 0. -1.
         23    2    1    2    0    0 -0.52936601775E+03  0.29945893901E+03 -0.98600641666E+03  0.11617859752E+04  0.87372544930E+02 0.  0.
         11    1    3    3    0    0 -0.14778688227E+03  0.10693362683E+03 -0.36317630451E+03  0.40641455594E+03  0.00000000000E+00 0. -1.
        -11    1    3    3    0    0 -0.38157913547E+03  0.19252531218E+03 -0.62283011214E+03  0.75537141927E+03  0.00000000000E+00 0.  1.
         22    1    1    2    0    0  0.52936601775E+03 -0.29945893901E+03  0.59369699238E+03  0.84992950040E+03  0.00000000000E+00 0.  1.
<mgrwt>
<rscale>  0 0.19730921E+04</rscale>
<asrwt>0</asrwt>
<pdfrwt beam="1">  1        1 0.18492499E+00 0.19730921E+04</pdfrwt>
<pdfrwt beam="2">  1       -1 0.12456970E+00 0.19730921E+04</pdfrwt>
<totfact> 0.55896737E+00</totfact>
</mgrwt>
</event>
<event>
 6    1  0.1614874E-005  0.2877890E+03  0.7818608E-02  0.1091509E+00
         -2   -1    0    0    0  501 -0.00000000000E+00  0.00000000000E+00  0.26134662413E+03  0.26134662413E+03  0.00000000000E+00 0.  1.
          2   -1    0    0  501    0  0.00000000000E+00 -0.00000000000E+00 -0.79226695480E+02  0.79226695480E+02  0.00000000000E+00 0. -1.
         23    2    1    2    0    0 -0.11384118547E+03  0.14594226067E+02  0.15244664052E+02  0.13803897468E+03  0.75163500477E+02 0.  0.
         11    1    3    3    0    0 -0.44944320173E+02  0.43149106287E+02  0.11562857834E+02  0.63368264695E+02  0.00000000000E+00 0.  1.
        -11    1    3    3    0    0 -0.68896865297E+02 -0.28554880220E+02  0.36818062181E+01  0.74670709981E+02  0.00000000000E+00 0. -1.
         22    1    1    2    0    0  0.11384118547E+03 -0.14594226067E+02  0.16687526460E+03  0.20253434494E+03  0.00000000000E+00 0.  1.
<mgrwt>
<rscale>  0 0.28778902E+03</rscale>
<asrwt>0</asrwt>
<pdfrwt beam="1">  1        2 0.12188723E-01 0.28778902E+03</pdfrwt>
<pdfrwt beam="2">  1       -2 0.40207173E-01 0.28778902E+03</pdfrwt>
<totfact> 0.29505617E+03</totfact>
</mgrwt>
</event>
<event>
 6    1  0.1614874E-005  0.2245435E+04  0.7818608E-02  0.8499752E-01
          2   -1    0    0  501    0  0.00000000000E+00  0.00000000000E+00  0.15609210676E+04  0.15609210676E+04  0.00000000000E+00 0. -1.
         -2   -1    0    0    0  501 -0.00000000000E+00 -0.00000000000E+00 -0.80753242226E+03  0.80753242226E+03  0.00000000000E+00 0.  1.
         23    2    1    2    0    0 -0.88635506506E+03 -0.33036744775E+03 -0.25726683851E+03  0.98418745368E+03  0.87582908697E+02 0.  0.
         13    1    3    3    0    0 -0.13999685779E+03 -0.42862056121E+02 -0.88492276942E+01  0.14667850857E+03  0.00000000000E+00 0. -1.
        -13    1    3    3    0    0 -0.74635820727E+03 -0.28750539163E+03 -0.24841761082E+03  0.83750894511E+03  0.00000000000E+00 0.  1.
         22    1    1    2    0    0  0.88635506506E+03  0.33036744775E+03  0.10106554839E+04  0.13842660362E+04  0.00000000000E+00 0.  1.
<mgrwt>
<rscale>  0 0.22454348E+04</rscale>
<asrwt>0</asrwt>
<pdfrwt beam="1">  1        2 0.24014170E+00 0.22454348E+04</pdfrwt>
<pdfrwt beam="2">  1       -2 0.12423576E+00 0.22454348E+04</pdfrwt>
<totfact> 0.52017184E+00</totfact>
</mgrwt>
</event>
<event>
 6    1  0.1614874E-005  0.5986741E+04  0.7818608E-02  0.7692048E-01
          2   -1    0    0  501    0  0.00000000000E+00  0.00000000000E+00  0.32231400623E+04  0.32231400623E+04  0.00000000000E+00 0. -1.
         -2   -1    0    0    0  501 -0.00000000000E+00 -0.00000000000E+00 -0.27799810258E+04  0.27799810258E+04  0.00000000000E+00 0.  1.
         23    2    1    2    0    0 -0.10203461921E+04 -0.26958004603E+04 -0.58543092837E+03  0.29426564519E+04  0.89728191623E+02 0.  0.
         11    1    3    3    0    0 -0.74150609853E+03 -0.19950459904E+04 -0.47023284340E+03  0.21797152853E+04  0.00000000000E+00 0.  1.
        -11    1    3    3    0    0 -0.27884009359E+03 -0.70075446992E+03 -0.11519808497E+03  0.76294116660E+03  0.00000000000E+00 0. -1.
         22    1    1    2    0    0  0.10203461921E+04  0.26958004603E+04  0.10285899649E+04  0.30604646362E+04  0.00000000000E+00 0.  1.
<mgrwt>
<rscale>  0 0.59867414E+04</rscale>
<asrwt>0</asrwt>
<pdfrwt beam="1">  1        2 0.49586770E+00 0.59867414E+04</pdfrwt>
<pdfrwt beam="2">  1       -2 0.42768939E+00 0.59867414E+04</pdfrwt>
<totfact> 0.41228704E-03</totfact>
</mgrwt>
</event>
<event>
 6    1  0.1614874E-005  0.3307307E+04  0.7818608E-02  0.8161039E-01
          1   -1    0    0  501    0  0.00000000000E+00  0.00000000000E+00  0.22265819147E+04  0.22265819147E+04  0.00000000000E+00 0. -1.
         -1   -1    0    0    0  501 -0.00000000000E+00 -0.00000000000E+00 -0.12281472813E+04  0.12281472813E+04  0.00000000000E+00 0.  1.
         23    2    1    2    0    0 -0.76490385010E+03  0.11952737307E+04 -0.38523714835E+03  0.14727340418E+04  0.82345043613E+02 0.  0.
         11    1    3    3    0    0 -0.15778647675E+03  0.29732799386E+03 -0.68789280552E+02  0.34355854420E+03  0.00000000000E+00 0.  1.
        -11    1    3    3    0    0 -0.60711737336E+03  0.89794573687E+03 -0.31644786780E+03  0.11291754976E+04  0.00000000000E+00 0. -1.
         22    1    1    2    0    0  0.76490385010E+03 -0.11952737307E+04  0.13836717818E+04  0.19819951542E+04  0.00000000000E+00 0. -1.
<mgrwt>
<rscale>  0 0.33073074E+04</rscale>
<asrwt>0</asrwt>
<pdfrwt beam="1">  1        1 0.34255106E+00 0.33073074E+04</pdfrwt>
<pdfrwt beam="2">  1       -1 0.18894574E+00 0.33073074E+04</pdfrwt>
<totfact> 0.31136030E-01</totfact>
</mgrwt>
</event>
<event>
 6    1  0.1614874E-005  0.3328670E+03  0.7818608E-02  0.1069875E+00
          3   -1    0    0  501    0  0.00000000000E+00  0.00000000000E+00  0.31263557130E+03  0.31263557130E+03  0.00000000000E+00 0. -1.
         -3   -1    0    0    0  501 -0.00000000000E+00 -0.00000000000E+00 -0.88601923827E+02  0.88601923827E+02  0.00000000000E+00 0.  1.
         23    2    1    2    0    0  0.10275885938E+03  0.88530070457E+02  0.20918018109E+03  0.26479123457E+03  0.89224958345E+02 0.  0.
         13    1    3    3    0    0  0.17191015273E+02  0.27929165529E+02  0.23242861467E+01  0.32878132541E+02  0.00000000000E+00 0.  1.
        -13    1    3    3    0    0  0.85567844104E+02  0.60600904928E+02  0.20685589494E+03  0.23191310203E+03  0.00000000000E+00 0. -1.
         22    1    1    2    0    0 -0.10275885938E+03 -0.88530070457E+02  0.14853466386E+02  0.13644626055E+03  0.00000000000E+00 0.  1.
<mgrwt>
<rscale>  0 0.33286702E+03</rscale>
<asrwt>0</asrwt>
<pdfrwt beam="1">  1        3 0.48097780E-01 0.33286702E+03</pdfrwt>
<pdfrwt beam="2">  1       -3 0.13631065E-01 0.33286702E+03</pdfrwt>
<totfact> 0.48802432E+02</totfact>
</mgrwt>
</event>
<event>
 6    1  0.1614874E-005  0.2246322E+04  0.7818608E-02  0.8499392E-01
          2   -1    0    0  501    0  0.00000000000E+00  0.00000000000E+00  0.11113850452E+04  0.11113850452E+04  0.00000000000E+00 0. -1.
         -2   -1    0    0    0  501 -0.00000000000E+00 -0.00000000000E+00 -0.11350615707E+04  0.11350615707E+04  0.00000000000E+00 0.  1.
         23    2    1    2    0    0 -0.78587340072E+03  0.16946765039E+03 -0.79350970817E+03  0.11333610775E+04  0.92376342443E+02 0.  0.
         11    1    3    3    0    0 -0.69780704784E+03  0.12866797001E+03 -0.66643916653E+03  0.97346355104E+03  0.00000000000E+00 0. -1.
        -11    1    3    3    0    0 -0.88066352874E+02  0.40799680372E+02 -0.12707054164E+03  0.15989752650E+03  0.00000000000E+00 0.  1.
         22    1    1    2    0    0  0.78587340072E+03 -0.16946765039E+03  0.76983318269E+03  0.11130855383E+04  0.00000000000E+00 0. -1.
<mgrwt>
<rscale>  0 0.22463218E+04</rscale>
<asrwt>0</asrwt>
<pdfrwt beam="1">  1        2 0.17098231E+00 0.22463218E+04</pdfrwt>
<pdfrwt beam="2">  1       -2 0.17462486E+00 0.22463218E+04</pdfrwt>
<totfact> 0.38583897E+00</totfact>
</mgrwt>
</event>
<event>
 6    1  0.1614874E-005  0.1047536E+04  0.7818608E-02  0.9257891E-01
          1   -1    0    0  501    0  0.00000000000E+00  0.00000000000E+00  0.12240919536E+03  0.12240919536E+03  0.00000000000E+00 0. -1.
         -1   -1    0    0    0  501 -0.00000000000E+00 -0.00000000000E+00 -0.22411156126E+04  0.22411156126E+04  0.00000000000E+00 0.  1.
         23    2    1    2    0    0 -0.41755418449E+03  0.23904406689E+03 -0.15131226902E+04  0.15900746070E+04  0.85460033393E+02 0.  0.
         13    1    3    3    0    0 -0.24665268867E+02  0.57116090478E+01 -0.15716815229E+03  0.15919430285E+03  0.00000000000E+00 0.  1.
        -13    1    3    3    0    0 -0.39288891563E+03  0.23333245784E+03 -0.13559545379E+04  0.14308803041E+04  0.00000000000E+00 0. -1.
         22    1    1    2    0    0  0.41755418449E+03 -0.23904406689E+03 -0.60558372704E+03  0.77345020095E+03  0.00000000000E+00 0. -1.
<mgrwt>
<rscale>  0 0.10475365E+04</rscale>
<asrwt>0</asrwt>
<pdfrwt beam="1">  1        1 0.18832184E-01 0.10475365E+04</pdfrwt>
<pdfrwt beam="2">  1       -1 0.34478702E+00 0.10475365E+04</pdfrwt>
<totfact> 0.48619284E+00</totfact>
</mgrwt>
</event>
<event>
 6    1  0.1614874E-005  0.4667176E+04  0.7818608E-02  0.7882005E-01
         -2   -1    0    0    0  501 -0.00000000000E+00  0.00000000000E+00  0.32646153098E+04  0.32646153098E+04  0.00000000000E+00 0.  1.
          2   -1    0    0  501    0  0.00000000000E+00 -0.00000000000E+00 -0.16680779949E+04  0.16680779949E+04  0.00000000000E+00 0. -1.
         23    2    1    2    0    0  0.93043104731E+03 -0.33937040342E+03  0.30306210379E+04  0.31898593112E+04  0.98307402848E+02 0.  0.
         11    1    3    3    0    0  0.39084315919E+03 -0.16368065224E+03  0.14396805640E+04  0.15007431017E+04  0.00000000000E+00 0. -1.
        -11    1    3    3    0    0  0.53958788812E+03 -0.17568975119E+03  0.15909404739E+04  0.16891162095E+04  0.00000000000E+00 0.  1.
         22    1    1    2    0    0 -0.93043104731E+03  0.33937040342E+03 -0.14340837229E+04  0.17428339935E+04  0.00000000000E+00 0. -1.
<mgrwt>
<rscale>  0 0.46671760E+04</rscale>
<asrwt>0</asrwt>
<pdfrwt beam="1">  1        2 0.25662738E+00 0.46671760E+04</pdfrwt>
<pdfrwt beam="2">  1       -2 0.50224851E+00 0.46671760E+04</pdfrwt>
<totfact> 0.12263455E-02</totfact>
</mgrwt>
</event>
<event>
 6    1  0.1614874E-005  0.3607180E+04  0.7818608E-02  0.8088849E-01
          1   -1    0    0  501    0  0.00000000000E+00  0.00000000000E+00  0.20458670133E+04  0.20458670133E+04  0.00000000000E+00 0. -1.
         -1   -1    0    0    0  501 -0.00000000000E+00 -0.00000000000E+00 -0.15900044708E+04  0.15900044708E+04  0.00000000000E+00 0.  1.
         23    2    1    2    0    0 -0.21425597337E+03 -0.10956677706E+04 -0.11982687243E+04  0.16402403224E+04  0.90260147166E+02 0.  0.
         11    1    3    3    0    0 -0.85417479600E+02 -0.52110836670E+03 -0.50512991857E+03  0.73075735391E+03  0.00000000000E+00 0. -1.
        -11    1    3    3    0    0 -0.12883849377E+03 -0.57455940390E+03 -0.69313880569E+03  0.90948296852E+03  0.00000000000E+00 0.  1.
         22    1    1    2    0    0  0.21425597337E+03  0.10956677706E+04  0.16541312668E+04  0.19956311617E+04  0.00000000000E+00 0. -1.
<mgrwt>
<rscale>  0 0.36071804E+04</rscale>
<asrwt>0</asrwt>
<pdfrwt beam="1">  1        1 0.31474877E+00 0.36071804E+04</pdfrwt>
<pdfrwt beam="2">  1       -1 0.24461607E+00 0.36071804E+04</pdfrwt>
<totfact> 0.16959209E-01</totfact>
</mgrwt>
</event>
<event>
 6    1  0.1614874E-005  0.3869556E+04  0.7818608E-02  0.8031391E-01
          2   -1    0    0  501    0  0.00000000000E+00  0.00000000000E+00  0.15679087786E+04  0.15679087786E+04  0.00000000000E+00 0. -1.
         -2   -1    0    0    0  501 -0.00000000000E+00 -0.00000000000E+00 -0.23874895967E+04  0.23874895967E+04  0.00000000000E+00 0.  1.
         23    2    1    2    0    0  0.27851083184E+03  0.18992687780E+04 -0.17137912165E+03  0.19293293701E+04  0.90282005326E+02 0.  0.
         11    1    3    3    0    0  0.10855526034E+03  0.10392901506E+04 -0.10507084789E+03  0.10502133805E+04  0.00000000000E+00 0. -1.
        -11    1    3    3    0    0  0.16995557150E+03  0.85997862747E+03 -0.66308273766E+02  0.87911598959E+03  0.00000000000E+00 0.  1.
         22    1    1    2    0    0 -0.27851083184E+03 -0.18992687780E+04 -0.64820169645E+03  0.20260690052E+04  0.00000000000E+00 0.  1.
<mgrwt>
<rscale>  0 0.38695560E+04</rscale>
<asrwt>0</asrwt>
<pdfrwt beam="1">  1        2 0.24121673E+00 0.38695560E+04</pdfrwt>
<pdfrwt beam="2">  1       -2 0.36730609E+00 0.38695560E+04</pdfrwt>
<totfact> 0.11189630E-01</totfact>
</mgrwt>
</event>
<event>
 6    1  0.1614874E-005  0.4736111E+04  0.7818608E-02  0.7870556E-01
         -3   -1    0    0    0  501 -0.00000000000E+00  0.00000000000E+00  0.24513142497E+04  0.24513142497E+04  0.00000000000E+00 0.  1.
          3   -1    0    0  501    0  0.00000000000E+00 -0.00000000000E+00 -0.22876248734E+04  0.22876248734E+04  0.00000000000E+00 0. -1.
         23    2    1    2    0    0 -0.13548882833E+03 -0.19473215001E+04 -0.12580115159E+04  0.23240578270E+04  0.90738976470E+02 0.  0.
         13    1    3    3    0    0 -0.60746904908E+02 -0.59936559602E+03 -0.43301101765E+03  0.74190824604E+03  0.00000000000E+00 0. -1.
        -13    1    3    3    0    0 -0.74741923425E+02 -0.13479559041E+04 -0.82500049825E+03  0.15821495810E+04  0.00000000000E+00 0.  1.
         22    1    1    2    0    0  0.13548882833E+03  0.19473215001E+04  0.14217008921E+04  0.24148812961E+04  0.00000000000E+00 0. -1.
<mgrwt>
<rscale>  0 0.47361113E+04</rscale>
<asrwt>0</asrwt>
<pdfrwt beam="1">  1        3 0.35194229E+00 0.47361113E+04</pdfrwt>
<pdfrwt beam="2">  1       -3 0.37712527E+00 0.47361113E+04</pdfrwt>
<totfact> 0.54280371E-04</totfact>
</mgrwt>
</event>
<event>
 6    1  0.1614874E-005  0.1029782E+04  0.7818608E-02  0.9276470E-01
         -1   -1    0    0    0  501 -0.00000000000E+00  0.00000000000E+00  0.12374276484E+03  0.12374276484E+03  0.00000000000E+00 0.  1.
          1   -1    0    0  501    0  0.00000000000E+00 -0.00000000000E+00 -0.21424520529E+04  0.21424520529E+04  0.00000000000E+00 0. -1.
         23    2    1    2    0    0 -0.16095244735E+03 -0.42648788583E+03 -0.50654121509E+03  0.68681206236E+03  0.85610743197E+02 0.  0.
         13    1    3    3    0    0 -0.92982192333E+02 -0.13122644284E+03 -0.17706745445E+03  0.23920483025E+03  0.00000000000E+00 0.  1.
        -13    1    3    3    0    0 -0.67970255019E+02 -0.29526144299E+03 -0.32947376065E+03  0.44760723211E+03  0.00000000000E+00 0. -1.
         22    1    1    2    0    0  0.16095244735E+03  0.42648788583E+03 -0.15121680730E+04  0.15793827554E+04  0.00000000000E+00 0. -1.
<mgrwt>
<rscale>  0 0.10297824E+04</rscale>
<asrwt>0</asrwt>
<pdfrwt beam="1">  1        1 0.32960797E+00 0.10297824E+04</pdfrwt>
<pdfrwt beam="2">  1       -1 0.19037351E-01 0.10297824E+04</pdfrwt>
<totfact> 0.53326392E+01</totfact>
</mgrwt>
</event>
<event>
 6    1  0.1614874E-005  0.6175626E+04  0.7818608E-02  0.7669000E-01
         -1   -1    0    0    0  501 -0.00000000000E+00  0.00000000000E+00  0.23991662048E+04  0.23991662048E+04  0.00000000000E+00 0. -1.
          1   -1    0    0  501    0  0.00000000000E+00 -0.00000000000E+00 -0.39741265705E+04  0.39741265705E+04  0.00000000000E+00 0.  1.
         23    2    1    2    0    0  0.58161240295E+03  0.27901103967E+04 -0.20120343978E+04  0.34898880651E+04  0.89706611346E+02 0.  0.
         11    1    3    3    0    0  0.35539173065E+03  0.19019425620E+04 -0.13509035919E+04  0.23597943355E+04  0.00000000000E+00 0. -1.
        -11    1    3    3    0    0  0.22622067230E+03  0.88816783470E+03 -0.66113080582E+03  0.11300937296E+04  0.00000000000E+00 0.  1.
         22    1    1    2    0    0 -0.58161240295E+03 -0.27901103967E+04  0.43707403205E+03  0.28834047101E+04  0.00000000000E+00 0.  1.
<mgrwt>
<rscale>  0 0.61756263E+04</rscale>
<asrwt>0</asrwt>
<pdfrwt beam="1">  1        1 0.61140409E+00 0.61756263E+04</pdfrwt>
<pdfrwt beam="2">  1       -1 0.36910249E+00 0.61756263E+04</pdfrwt>
<totfact> 0.76958286E-04</totfact>
</mgrwt>
</event>
<event>
 6    1  0.1614874E-005  0.2941087E+04  0.7818608E-02  0.8260757E-01
          2   -1    0    0  501    0  0.00000000000E+00  0.00000000000E+00  0.37982514694E+03  0.37982514694E+03  0.00000000000E+00 0. -1.
         -2   -1    0    0    0  501 -0.00000000000E+00 -0.00000000000E+00 -0.56934029113E+04  0.56934029113E+04  0.00000000000E+00 0.  1.
         23    2    1    2    0    0  0.69478528817E+03 -0.12749911950E+04 -0.31204009350E+04  0.34429516947E+04  0.93194597028E+02 0.  0.
         13    1    3    3    0    0  0.23530282231E+03 -0.51158163477E+03 -0.11506570570E+04  0.12810522433E+04  0.00000000000E+00 0. -1.
        -13    1    3    3    0    0  0.45948246585E+03 -0.76340956020E+03 -0.19697438780E+04  0.21618994514E+04  0.00000000000E+00 0.  1.
         22    1    1    2    0    0 -0.69478528817E+03  0.12749911950E+04 -0.21931768294E+04  0.26302763636E+04  0.00000000000E+00 0.  1.
<mgrwt>
<rscale>  0 0.29410866E+04</rscale>
<asrwt>0</asrwt>
<pdfrwt beam="1">  1        2 0.58434643E-01 0.29410866E+04</pdfrwt>
<pdfrwt beam="2">  1       -2 0.87590807E+00 0.29410866E+04</pdfrwt>
<totfact> 0.13175431E-03</totfact>
</mgrwt>
</event>
<event>
 6    1  0.1614874E-005  0.1192786E+04  0.7818608E-02  0.9119195E-01
          2   -1    0    0  501    0  0.00000000000E+00  0.00000000000E+00  0.72410062053E+03  0.72410062053E+03  0.00000000000E+00 0. -1.
         -2   -1    0    0    0  501 -0.00000000000E+00 -0.00000000000E+00 -0.49120871295E+03  0.49120871295E+03  0.00000000000E+00 0.  1.
         23    2    1    2    0    0  0.19107569299E+03 -0.16700962757E+03  0.66310342685E+03  0.71582551246E+03  0.91092664044E+02 0.  0.
         13    1    3    3    0    0  0.34055952354E+02 -0.86904492390E+02  0.22568449260E+03  0.24422466888E+03  0.00000000000E+00 0.  1.
        -13    1    3    3    0    0  0.15701974064E+03 -0.80105135180E+02  0.43741893425E+03  0.47160084359E+03  0.00000000000E+00 0. -1.
         22    1    1    2    0    0 -0.19107569299E+03  0.16700962757E+03 -0.43021151927E+03  0.49948382102E+03  0.00000000000E+00 0.  1.
<mgrwt>
<rscale>  0 0.11927859E+04</rscale>
<asrwt>0</asrwt>
<pdfrwt beam="1">  1        2 0.11140010E+00 0.11927859E+04</pdfrwt>
<pdfrwt beam="2">  1       -2 0.75570571E-01 0.11927859E+04</pdfrwt>
<totfact> 0.60857378E+01</totfact>
</mgrwt>
</event>
<event>
 6    1  0.1614874E-005  0.1936350E+04  0.7818608E-02  0.8636971E-01
         -2   -1    0    0    0  501 -0.00000000000E+00  0.00000000000E+00  0.98734572713E+03  0.98734572713E+03  0.00000000000E+00 0.  1.
          2   -1    0    0  501    0  0.00000000000E+00 -0.00000000000E+00 -0.94937676606E+03  0.94937676606E+03  0.00000000000E+00 0. -1.
         23    2    1    2    0    0 -0.74759444301E+03  0.54295120565E+03  0.30131045671E+03  0.97597163774E+03  0.89661493523E+02 0.  0.
         13    1    3    3    0    0 -0.55252922630E+03  0.43773482329E+03  0.20335725171E+03  0.73365829461E+03  0.00000000000E+00 0. -1.
        -13    1    3    3    0    0 -0.19506521671E+03  0.10521638235E+03  0.97953205001E+02  0.24231334313E+03  0.00000000000E+00 0.  1.
         22    1    1    2    0    0  0.74759444301E+03 -0.54295120565E+03 -0.26334149564E+03  0.96075085545E+03  0.00000000000E+00 0. -1.
<mgrwt>
<rscale>  0 0.19363503E+04</rscale>
<asrwt>0</asrwt>
<pdfrwt beam="1">  1        2 0.14605796E+00 0.19363503E+04</pdfrwt>
<pdfrwt beam="2">  1       -2 0.15189934E+00 0.19363503E+04</pdfrwt>
<totfact> 0.73520885E+00</totfact>
</mgrwt>
</event>
<event>
 6    1  0.1614874E-005  0.6947903E+03  0.7818608E-02  0.9726183E-01
          2   -1    0    0  501    0  0.00000000000E+00  0.00000000000E+00  0.58432656019E+03  0.58432656019E+03  0.00000000000E+00 0. -1.
         -2   -1    0    0    0  501 -0.00000000000E+00 -0.00000000000E+00 -0.20653413467E+03  0.20653413467E+03  0.00000000000E+00 0.  1.
         23    2    1    2    0    0 -0.16812695523E+03  0.27505821406E+03  0.84502430809E+02  0.35503651564E+03  0.12241965704E+03 0.  0.
         11    1    3    3    0    0 -0.45215247729E+02  0.18989220218E+03  0.52043548317E+02  0.20201979605E+03  0.00000000000E+00 0. -1.
        -11    1    3    3    0    0 -0.12291170751E+03  0.85166011876E+02  0.32458882493E+02  0.15301671959E+03  0.00000000000E+00 0.  1.
         22    1    1    2    0    0  0.16812695523E+03 -0.27505821406E+03  0.29328999471E+03  0.43582417922E+03  0.00000000000E+00 0. -1.
<mgrwt>
<rscale>  0 0.69479027E+03</rscale>
<asrwt>0</asrwt>
<pdfrwt beam="1">  1        2 0.89896393E-01 0.69479027E+03</pdfrwt>
<pdfrwt beam="2">  1       -2 0.31774482E-01 0.69479027E+03</pdfrwt>
<totfact> 0.47444328E+02</totfact>
</mgrwt>
</event>
<event>
 6    1  0.1614874E-005  0.1318326E+04  0.7818608E-02  0.9015158E-01
          2   -1    0    0  501    0  0.00000000000E+00  0.00000000000E+00  0.12054712882E+04  0.12054712882E+04  0.00000000000E+00 0. -1.
         -2   -1    0    0    0  501 -0.00000000000E+00 -0.00000000000E+00 -0.36043644404E+03  0.36043644404E+03  0.00000000000E+00 0.  1.
         23    2    1    2    0    0  0.39001471853E+03  0.42929581894E+02  0.10502250029E+04  0.11231240030E+04  0.66936832715E+02 0.  0.
         11    1    3    3    0    0  0.14297147399E+03  0.64630474231E+00  0.46509655748E+03  0.48657586034E+03  0.00000000000E+00 0. -1.
        -11    1    3    3    0    0  0.24704324454E+03  0.42283277152E+02  0.58512844545E+03  0.63654814262E+03  0.00000000000E+00 0.  1.
         22    1    1    2    0    0 -0.39001471853E+03 -0.42929581894E+02 -0.20519015876E+03  0.44278372929E+03  0.00000000000E+00 0.  1.
<mgrwt>
<rscale>  0 0.13183259E+04</rscale>
<asrwt>0</asrwt>
<pdfrwt beam="1">  1        2 0.18545712E+00 0.13183259E+04</pdfrwt>
<pdfrwt beam="2">  1       -2 0.55451761E-01 0.13183259E+04</pdfrwt>
<totfact> 0.56240969E+01</totfact>
</mgrwt>
</event>
<event>
 6    1  0.1614874E-005  0.3111399E+04  0.7818608E-02  0.8212616E-01
         -1   -1    0    0    0  501 -0.00000000000E+00  0.00000000000E+00  0.16986893376E+04  0.16986893376E+04  0.00000000000E+00 0.  1.
          1   -1    0    0  501    0  0.00000000000E+00 -0.00000000000E+00 -0.14247462794E+04  0.14247462794E+04  0.00000000000E+00 0. -1.
         23    2    1    2    0    0  0.94555021547E+03 -0.27357080302E+03 -0.10705521316E+04  0.14571302699E+04  0.90777545076E+02 0.  0.
         11    1    3    3    0    0  0.45736826361E+03 -0.17032461597E+03 -0.48960490712E+03  0.69130974855E+03  0.00000000000E+00 0.  1.
        -11    1    3    3    0    0  0.48818195186E+03 -0.10324618705E+03 -0.58094722448E+03  0.76582052133E+03  0.00000000000E+00 0. -1.
         22    1    1    2    0    0 -0.94555021547E+03  0.27357080302E+03  0.13444951899E+04  0.16663053471E+04  0.00000000000E+00 0.  1.
<mgrwt>
<rscale>  0 0.31113992E+04</rscale>
<asrwt>0</asrwt>
<pdfrwt beam="1">  1        1 0.21919173E+00 0.31113992E+04</pdfrwt>
<pdfrwt beam="2">  1       -1 0.26133682E+00 0.31113992E+04</pdfrwt>
<totfact> 0.36596619E-01</totfact>
</mgrwt>
</event>
<event>
 6    1  0.1614874E-005  0.3781553E+04  0.7818608E-02  0.8050125E-01
         -2   -1    0    0    0  501 -0.00000000000E+00  0.00000000000E+00  0.29310987824E+04  0.29310987824E+04  0.00000000000E+00 0.  1.
          2   -1    0    0  501    0  0.00000000000E+00 -0.00000000000E+00 -0.12196914241E+04  0.12196914241E+04  0.00000000000E+00 0. -1.
         23    2    1    2    0    0 -0.93645892333E+03  0.87378930222E+03  0.23812626313E+04  0.27053943623E+04  0.91015803519E+02 0.  0.
         13    1    3    3    0    0 -0.17982454241E+03  0.21524261090E+03  0.55126047090E+03  0.61850978519E+03  0.00000000000E+00 0.  1.
        -13    1    3    3    0    0 -0.75663438092E+03  0.65854669132E+03  0.18300021604E+04  0.20868845771E+04  0.00000000000E+00 0. -1.
         22    1    1    2    0    0  0.93645892333E+03 -0.87378930222E+03 -0.66985527305E+03  0.14453958443E+04  0.00000000000E+00 0. -1.
<mgrwt>
<rscale>  0 0.37815531E+04</rscale>
<asrwt>0</asrwt>
<pdfrwt beam="1">  1        2 0.18764484E+00 0.37815531E+04</pdfrwt>
<pdfrwt beam="2">  1       -2 0.45093827E+00 0.37815531E+04</pdfrwt>
<totfact> 0.50626617E-02</totfact>
</mgrwt>
</event>
<event>
 6    1  0.1614874E-005  0.2976543E+04  0.7818608E-02  0.8250461E-01
          2   -1    0    0  501    0  0.00000000000E+00  0.00000000000E+00  0.20578951682E+04  0.20578951682E+04  0.00000000000E+00 0. -1.
         -2   -1    0    0    0  501 -0.00000000000E+00 -0.00000000000E+00 -0.10763191803E+04  0.10763191803E+04  0.00000000000E+00 0.  1.
         23    2    1    2    0    0  0.34189167728E+02  0.13161516208E+04 -0.23628405658E+03  0.13407241545E+04  0.91033592260E+02 0.  0.
         13    1    3    3    0    0  0.30946713125E+02  0.49289204395E+03 -0.12952151221E+03  0.51056447993E+03  0.00000000000E+00 0. -1.
        -13    1    3    3    0    0  0.32424546032E+01  0.82325957685E+03 -0.10676254438E+03  0.83015967456E+03  0.00000000000E+00 0.  1.
         22    1    1    2    0    0 -0.34189167728E+02 -0.13161516208E+04  0.12178600445E+04  0.17934901940E+04  0.00000000000E+00 0. -1.
<mgrwt>
<rscale>  0 0.29765430E+04</rscale>
<asrwt>0</asrwt>
<pdfrwt beam="1">  1        2 0.31659926E+00 0.29765430E+04</pdfrwt>
<pdfrwt beam="2">  1       -2 0.16558757E+00 0.29765430E+04</pdfrwt>
<totfact> 0.12197239E+00</totfact>
</mgrwt>
</event>
<event>
 6    1  0.1614874E-005  0.2907229E+04  0.7818608E-02  0.8270730E-01
          2   -1    0    0  501    0  0.00000000000E+00  0.00000000000E+00  0.17374019911E+04  0.17374019911E+04  0.00000000000E+00 0. -1.
         -2   -1    0    0    0  501 -0.00000000000E+00 -0.00000000000E+00 -0.12161811845E+04  0.12161811845E+04  0.00000000000E+00 0.  1.
         23    2    1    2    0    0 -0.13429299522E+04  0.18324334368E+03 -0.26881877113E+03  0.13847614795E+04  0.90894685917E+02 0.  0.
         13    1    3    3    0    0 -0.29028729645E+03  0.28945850907E+02 -0.21605540613E+02  0.29252585552E+03  0.00000000000E+00 0.  1.
        -13    1    3    3    0    0 -0.10526426558E+04  0.15429749277E+03 -0.24721323052E+03  0.10922356240E+04  0.00000000000E+00 0. -1.
         22    1    1    2    0    0  0.13429299522E+04 -0.18324334368E+03  0.79003957771E+03  0.15688216960E+04  0.00000000000E+00 0. -1.
<mgrwt>
<rscale>  0 0.29072293E+04</rscale>
<asrwt>0</asrwt>
<pdfrwt beam="1">  1        2 0.26729261E+00 0.29072293E+04</pdfrwt>
<pdfrwt beam="2">  1       -2 0.18710480E+00 0.29072293E+04</pdfrwt>
<totfact> 0.13074483E+00</totfact>
</mgrwt>
</event>
<event>
 6    1  0.1614874E-005  0.3373963E+04  0.7818608E-02  0.8144326E-01
          2   -1    0    0  501    0  0.00000000000E+00  0.00000000000E+00  0.25447099288E+04  0.25447099288E+04  0.00000000000E+00 0. -1.
         -2   -1    0    0    0  501 -0.00000000000E+00 -0.00000000000E+00 -0.11183617813E+04  0.11183617813E+04  0.00000000000E+00 0.  1.
         23    2    1    2    0    0  0.11400360631E+04  0.82734985646E+03 -0.29163103845E+03  0.14414411167E+04  0.92270364423E+02 0.  0.
         11    1    3    3    0    0  0.13125165793E+03  0.12191398395E+03 -0.14943989890E+02  0.17975911667E+03  0.00000000000E+00 0.  1.
        -11    1    3    3    0    0  0.10087844052E+04  0.70543587250E+03 -0.27668704856E+03  0.12616820000E+04  0.00000000000E+00 0. -1.
         22    1    1    2    0    0 -0.11400360631E+04 -0.82734985646E+03  0.17179791859E+04  0.22216305934E+04  0.00000000000E+00 0. -1.
<mgrwt>
<rscale>  0 0.33739629E+04</rscale>
<asrwt>0</asrwt>
<pdfrwt beam="1">  1        2 0.39149383E+00 0.33739629E+04</pdfrwt>
<pdfrwt beam="2">  1       -2 0.17205566E+00 0.33739629E+04</pdfrwt>
<totfact> 0.56088641E-01</totfact>
</mgrwt>
</event>
<event>
 6    1  0.1614874E-005  0.2079280E+04  0.7818608E-02  0.8570426E-01
          2   -1    0    0  501    0  0.00000000000E+00  0.00000000000E+00  0.15634782551E+04  0.15634782551E+04  0.00000000000E+00 0.  1.
         -2   -1    0    0    0  501 -0.00000000000E+00 -0.00000000000E+00 -0.69131199826E+03  0.69131199826E+03  0.00000000000E+00 0. -1.
         23    2    1    2    0    0  0.62402893320E+03  0.57868492200E+03 -0.20682388701E+03  0.88056025844E+03  0.91224448895E+02 0.  0.
         11    1    3    3    0    0  0.26205837903E+03  0.26529531773E+03 -0.13410793920E+03  0.39628416444E+03  0.00000000000E+00 0. -1.
        -11    1    3    3    0    0  0.36197055417E+03  0.31338960428E+03 -0.72715947818E+02  0.48427609400E+03  0.00000000000E+00 0.  1.
         22    1    1    2    0    0 -0.62402893320E+03 -0.57868492200E+03  0.10789901439E+04  0.13742299950E+04  0.00000000000E+00 0.  1.
<mgrwt>
<rscale>  0 0.20792799E+04</rscale>
<asrwt>0</asrwt>
<pdfrwt beam="1">  1        2 0.24053512E+00 0.20792799E+04</pdfrwt>
<pdfrwt beam="2">  1       -2 0.10635569E+00 0.20792799E+04</pdfrwt>
<totfact> 0.76924438E+00</totfact>
</mgrwt>
</event>
<event>
 6    1  0.1862234E-005  0.2456803E+04  0.7818608E-02  0.8418538E-01
          2   -1    0    0  501    0  0.00000000000E+00  0.00000000000E+00  0.17040999791E+04  0.17040999791E+04  0.00000000000E+00 0.  1.
         -2   -1    0    0    0  501 -0.00000000000E+00 -0.00000000000E+00 -0.88549368007E+03  0.88549368007E+03  0.00000000000E+00 0. -1.
         23    2    1    2    0    0 -0.85661487726E+03  0.84470329551E+03  0.15772282486E+03  0.12169758421E+04  0.94026620072E+02 0.  0.
         11    1    3    3    0    0 -0.28555757520E+03  0.24630576200E+03  0.13553625726E+02  0.37735044444E+03  0.00000000000E+00 0.  1.
        -11    1    3    3    0    0 -0.57105730206E+03  0.59839753351E+03  0.14416919914E+03  0.83962539762E+03  0.00000000000E+00 0. -1.
         22    1    1    2    0    0  0.85661487726E+03 -0.84470329551E+03  0.66088347416E+03  0.13726178171E+04  0.00000000000E+00 0.  1.
<mgrwt>
<rscale>  0 0.24568026E+04</rscale>
<asrwt>0</asrwt>
<pdfrwt beam="1">  1        2 0.26216923E+00 0.24568026E+04</pdfrwt>
<pdfrwt beam="2">  1       -2 0.13622980E+00 0.24568026E+04</pdfrwt>
<totfact> 0.33661867E+00</totfact>
</mgrwt>
</event>
<event>
 6    1  0.1614874E-005  0.2719546E+04  0.7818608E-02  0.8328691E-01
         -2   -1    0    0    0  501 -0.00000000000E+00  0.00000000000E+00  0.10181359465E+04  0.10181359465E+04  0.00000000000E+00 0.  1.
          2   -1    0    0  501    0  0.00000000000E+00 -0.00000000000E+00 -0.18160474296E+04  0.18160474296E+04  0.00000000000E+00 0. -1.
         23    2    1    2    0    0  0.80460598710E+02 -0.77981776604E+03  0.75649208017E+03  0.10932755401E+04  0.91550439325E+02 0.  0.
         11    1    3    3    0    0  0.90151425252E+02 -0.43871615710E+03  0.41833473912E+03  0.61286466690E+03  0.00000000000E+00 0. -1.
        -11    1    3    3    0    0 -0.96908265424E+01 -0.34110160894E+03  0.33815734104E+03  0.48041087315E+03  0.00000000000E+00 0.  1.
         22    1    1    2    0    0 -0.80460598710E+02  0.77981776604E+03 -0.15544035633E+04  0.17409078361E+04  0.00000000000E+00 0. -1.
<mgrwt>
<rscale>  0 0.27195464E+04</rscale>
<asrwt>0</asrwt>
<pdfrwt beam="1">  1        2 0.27939191E+00 0.27195464E+04</pdfrwt>
<pdfrwt beam="2">  1       -2 0.15663630E+00 0.27195464E+04</pdfrwt>
<totfact> 0.19761805E+00</totfact>
</mgrwt>
</event>
<event>
 6    1  0.1614874E-005  0.1861247E+04  0.7818608E-02  0.8674390E-01
         -2   -1    0    0    0  501 -0.00000000000E+00  0.00000000000E+00  0.51307701817E+03  0.51307701817E+03  0.00000000000E+00 0.  1.
          2   -1    0    0  501    0  0.00000000000E+00 -0.00000000000E+00 -0.16879736324E+04  0.16879736324E+04  0.00000000000E+00 0. -1.
         23    2    1    2    0    0  0.51559732997E+03  0.24290424405E+03 -0.14553648286E+04  0.15658298246E+04  0.94303640560E+02 0.  0.
         11    1    3    3    0    0  0.37992611071E+03  0.20609098913E+03 -0.11797532868E+04  0.12564374887E+04  0.00000000000E+00 0. -1.
        -11    1    3    3    0    0  0.13567121927E+03  0.36813254913E+02 -0.27561154182E+03  0.30939233581E+03  0.00000000000E+00 0.  1.
         22    1    1    2    0    0 -0.51559732997E+03 -0.24290424405E+03  0.28046821442E+03  0.63522082598E+03  0.00000000000E+00 0.  1.
<mgrwt>
<rscale>  0 0.18612474E+04</rscale>
<asrwt>0</asrwt>
<pdfrwt beam="1">  1        2 0.25968824E+00 0.18612474E+04</pdfrwt>
<pdfrwt beam="2">  1       -2 0.78934928E-01 0.18612474E+04</pdfrwt>
<totfact> 0.13327985E+01</totfact>
</mgrwt>
</event>
<event>
 6    1  0.1614874E-005  0.1673455E+04  0.7818608E-02  0.8776650E-01
          2   -1    0    0  501    0  0.00000000000E+00  0.00000000000E+00  0.14759312896E+04  0.14759312896E+04  0.00000000000E+00 0. -1.
         -2   -1    0    0    0  501 -0.00000000000E+00 -0.00000000000E+00 -0.47435330368E+03  0.47435330368E+03  0.00000000000E+00 0.  1.
         23    2    1    2    0    0  0.36823844426E+03  0.60328392826E+03  0.10189867970E+04  0.12432809747E+04  0.88670399160E+02 0.  0.
         11    1    3    3    0    0  0.20706004783E+03  0.41556933422E+03  0.68909133041E+03  0.83091431364E+03  0.00000000000E+00 0.  1.
        -11    1    3    3    0    0  0.16117839644E+03  0.18771459403E+03  0.32989546658E+03  0.41236666107E+03  0.00000000000E+00 0. -1.
         22    1    1    2    0    0 -0.36823844426E+03 -0.60328392826E+03 -0.17408811113E+02  0.70700361854E+03  0.00000000000E+00 0.  1.
<mgrwt>
<rscale>  0 0.16734550E+04</rscale>
<asrwt>0</asrwt>
<pdfrwt beam="1">  1        2 0.22706635E+00 0.16734550E+04</pdfrwt>
<pdfrwt beam="2">  1       -2 0.72977432E-01 0.16734550E+04</pdfrwt>
<totfact> 0.21186302E+01</totfact>
</mgrwt>
</event>
<event>
 6    1  0.1614874E-005  0.3165774E+04  0.7818608E-02  0.8197915E-01
          2   -1    0    0  501    0  0.00000000000E+00  0.00000000000E+00  0.18811360078E+04  0.18811360078E+04  0.00000000000E+00 0.  1.
         -2   -1    0    0    0  501 -0.00000000000E+00 -0.00000000000E+00 -0.13319242330E+04  0.13319242330E+04  0.00000000000E+00 0. -1.
         23    2    1    2    0    0  0.62289598365E+03 -0.10251453047E+04  0.13210447687E+04  0.17866491946E+04  0.89631253136E+02 0.  0.
         13    1    3    3    0    0  0.41781282526E+03 -0.61806276686E+03  0.78377951355E+03  0.10820718398E+04  0.00000000000E+00 0. -1.
        -13    1    3    3    0    0  0.20508315839E+03 -0.40708253781E+03  0.53726525517E+03  0.70457735477E+03  0.00000000000E+00 0.  1.
         22    1    1    2    0    0 -0.62289598365E+03  0.10251453047E+04 -0.77183299390E+03  0.14264110462E+04  0.00000000000E+00 0. -1.
<mgrwt>
<rscale>  0 0.31657736E+04</rscale>
<asrwt>0</asrwt>
<pdfrwt beam="1">  1        2 0.28940554E+00 0.31657736E+04</pdfrwt>
<pdfrwt beam="2">  1       -2 0.20491142E+00 0.31657736E+04</pdfrwt>
<totfact> 0.81146553E-01</totfact>
</mgrwt>
</event>
<event>
 6    1  0.1614874E-005  0.8512776E+03  0.7818608E-02  0.9488624E-01
          1   -1    0    0  501    0  0.00000000000E+00  0.00000000000E+00  0.39813312024E+03  0.39813312024E+03  0.00000000000E+00 0. -1.
         -1   -1    0    0    0  501 -0.00000000000E+00 -0.00000000000E+00 -0.45504472534E+03  0.45504472534E+03  0.00000000000E+00 0.  1.
         23    2    1    2    0    0  0.13768857402E+03 -0.39670170531E+03 -0.38898459339E+01  0.42992650966E+03  0.92148176340E+02 0.  0.
         13    1    3    3    0    0  0.64086496116E+02 -0.27251166325E+03  0.30270641660E+02  0.28157769326E+03  0.00000000000E+00 0.  1.
        -13    1    3    3    0    0  0.73602077903E+02 -0.12419004205E+03 -0.34160487594E+02  0.14834881641E+03  0.00000000000E+00 0. -1.
         22    1    1    2    0    0 -0.13768857402E+03  0.39670170531E+03 -0.53021759170E+02  0.42325133591E+03  0.00000000000E+00 0. -1.
<mgrwt>
<rscale>  0 0.85127757E+03</rscale>
<asrwt>0</asrwt>
<pdfrwt beam="1">  1        1 0.61251249E-01 0.85127757E+03</pdfrwt>
<pdfrwt beam="2">  1       -1 0.70006881E-01 0.85127757E+03</pdfrwt>
<totfact> 0.12584868E+02</totfact>
</mgrwt>
</event>
<event>
 6    1  0.1614874E-005  0.2033098E+04  0.7818608E-02  0.8591301E-01
          1   -1    0    0  501    0  0.00000000000E+00  0.00000000000E+00  0.21013834252E+04  0.21013834252E+04  0.00000000000E+00 0. -1.
         -1   -1    0    0    0  501 -0.00000000000E+00 -0.00000000000E+00 -0.49175811309E+03  0.49175811309E+03  0.00000000000E+00 0.  1.
         23    2    1    2    0    0 -0.63286284880E+03 -0.60375310208E+03  0.15069257431E+03  0.89210716853E+03  0.90076381660E+02 0.  0.
         13    1    3    3    0    0 -0.63988698471E+02 -0.28233936108E+02  0.79330530340E+01  0.70389218000E+02  0.00000000000E+00 0. -1.
        -13    1    3    3    0    0 -0.56887415033E+03 -0.57551916597E+03  0.14275952127E+03  0.82171795053E+03  0.00000000000E+00 0.  1.
         22    1    1    2    0    0  0.63286284880E+03  0.60375310208E+03  0.14589327378E+04  0.17010343698E+04  0.00000000000E+00 0.  1.
<mgrwt>
<rscale>  0 0.20330985E+04</rscale>
<asrwt>0</asrwt>
<pdfrwt beam="1">  1        1 0.32328975E+00 0.20330985E+04</pdfrwt>
<pdfrwt beam="2">  1       -1 0.75655095E-01 0.20330985E+04</pdfrwt>
<totfact> 0.41293790E+00</totfact>
</mgrwt>
</event>
<event>
 6    1  0.1614874E-005  0.1592108E+04  0.7818608E-02  0.8825411E-01
         -2   -1    0    0    0  501 -0.00000000000E+00  0.00000000000E+00  0.16605721613E+03  0.16605721613E+03  0.00000000000E+00 0.  1.
          2   -1    0    0  501    0  0.00000000000E+00 -0.00000000000E+00 -0.38161669340E+04  0.38161669340E+04  0.00000000000E+00 0. -1.
         23    2    1    2    0    0  0.42505450194E+02 -0.61314423831E+03 -0.57597528893E+03  0.84725125432E+03  0.91293944041E+02 0.  0.
         11    1    3    3    0    0  0.48551747641E+02 -0.31241362157E+03 -0.24473014555E+03  0.39981544153E+03  0.00000000000E+00 0.  1.
        -11    1    3    3    0    0 -0.60462974473E+01 -0.30073061674E+03 -0.33124514338E+03  0.44743581279E+03  0.00000000000E+00 0. -1.
         22    1    1    2    0    0 -0.42505450194E+02  0.61314423831E+03 -0.30741344290E+04  0.31349728959E+04  0.00000000000E+00 0. -1.
<mgrwt>
<rscale>  0 0.15921081E+04</rscale>
<asrwt>0</asrwt>
<pdfrwt beam="1">  1        2 0.58710263E+00 0.15921081E+04</pdfrwt>
<pdfrwt beam="2">  1       -2 0.25547263E-01 0.15921081E+04</pdfrwt>
<totfact> 0.64261781E+00</totfact>
</mgrwt>
</event>
<event>
 6    1  0.1614874E-005  0.3441008E+04  0.7818608E-02  0.8127914E-01
         -2   -1    0    0    0  501 -0.00000000000E+00  0.00000000000E+00  0.17204080502E+04  0.17204080502E+04  0.00000000000E+00 0.  1.
          2   -1    0    0  501    0  0.00000000000E+00 -0.00000000000E+00 -0.17206003073E+04  0.17206003073E+04  0.00000000000E+00 0. -1.
         23    2    1    2    0    0  0.98120461899E+03  0.92366711917E+03 -0.10678156963E+04  0.17217808393E+04  0.91517462820E+02 0.  0.
         11    1    3    3    0    0  0.40926215613E+03  0.37938998981E+03 -0.38540939175E+03  0.67821285454E+03  0.00000000000E+00 0.  1.
        -11    1    3    3    0    0  0.57194246286E+03  0.54427712936E+03 -0.68240630452E+03  0.10435679848E+04  0.00000000000E+00 0. -1.
         22    1    1    2    0    0 -0.98120461899E+03 -0.92366711917E+03  0.10676234391E+04  0.17192275181E+04  0.00000000000E+00 0.  1.
<mgrwt>
<rscale>  0 0.34410084E+04</rscale>
<asrwt>0</asrwt>
<pdfrwt beam="1">  1        2 0.26470774E+00 0.34410084E+04</pdfrwt>
<pdfrwt beam="2">  1       -2 0.26467816E+00 0.34410084E+04</pdfrwt>
<totfact> 0.41196225E-01</totfact>
</mgrwt>
</event>
<event>
 6    1  0.1614874E-005  0.2705020E+04  0.7818608E-02  0.8333378E-01
         -1   -1    0    0    0  501 -0.00000000000E+00  0.00000000000E+00  0.69164224399E+03  0.69164224399E+03  0.00000000000E+00 0.  1.
          1   -1    0    0  501    0  0.00000000000E+00 -0.00000000000E+00 -0.26448405483E+04  0.26448405483E+04  0.00000000000E+00 0. -1.
         23    2    1    2    0    0  0.58125316100E+03 -0.11182020661E+04 -0.37863722724E+03  0.13196849137E+04  0.99855013211E+02 0.  0.
         11    1    3    3    0    0  0.36736278905E+03 -0.75793259944E+03 -0.21009231175E+03  0.86807604709E+03  0.00000000000E+00 0. -1.
        -11    1    3    3    0    0  0.21389037195E+03 -0.36026946667E+03 -0.16854491549E+03  0.45160886657E+03  0.00000000000E+00 0.  1.
         22    1    1    2    0    0 -0.58125316100E+03  0.11182020661E+04 -0.15745610771E+04  0.20167978786E+04  0.00000000000E+00 0. -1.
<mgrwt>
<rscale>  0 0.27050201E+04</rscale>
<asrwt>0</asrwt>
<pdfrwt beam="1">  1        1 0.40689855E+00 0.27050201E+04</pdfrwt>
<pdfrwt beam="2">  1       -1 0.10640650E+00 0.27050201E+04</pdfrwt>
<totfact> 0.77267095E-01</totfact>
</mgrwt>
</event>
<event>
 6    1  0.1614874E-005  0.3851643E+04  0.7818608E-02  0.8035162E-01
          1   -1    0    0  501    0  0.00000000000E+00  0.00000000000E+00  0.19887242131E+04  0.19887242131E+04  0.00000000000E+00 0. -1.
         -1   -1    0    0    0  501 -0.00000000000E+00 -0.00000000000E+00 -0.18649086820E+04  0.18649086820E+04  0.00000000000E+00 0.  1.
         23    2    1    2    0    0  0.62450920427E+03 -0.13986042411E+04  0.12280723886E+04  0.19653827059E+04  0.91988149523E+02 0.  0.
         13    1    3    3    0    0  0.50226991723E+03 -0.11493455538E+04  0.96062906671E+03  0.15798982485E+04  0.00000000000E+00 0.  1.
        -13    1    3    3    0    0  0.12223928704E+03 -0.24925868728E+03  0.26744332192E+03  0.38548445743E+03  0.00000000000E+00 0. -1.
         22    1    1    2    0    0 -0.62450920427E+03  0.13986042411E+04 -0.11042568575E+04  0.18882501891E+04  0.00000000000E+00 0.  1.
<mgrwt>
<rscale>  0 0.38516433E+04</rscale>
<asrwt>0</asrwt>
<pdfrwt beam="1">  1        1 0.30595757E+00 0.38516433E+04</pdfrwt>
<pdfrwt beam="2">  1       -1 0.28690903E+00 0.38516433E+04</pdfrwt>
<totfact> 0.96477450E-02</totfact>
</mgrwt>
</event>
<event>
 6    1  0.1614874E-005  0.1272959E+04  0.7818608E-02  0.9051288E-01
         -1   -1    0    0    0  501 -0.00000000000E+00  0.00000000000E+00  0.41667538420E+03  0.41667538420E+03  0.00000000000E+00 0.  1.
          1   -1    0    0  501    0  0.00000000000E+00 -0.00000000000E+00 -0.97223401140E+03  0.97223401140E+03  0.00000000000E+00 0. -1.
         23    2    1    2    0    0 -0.41436539317E+03 -0.46631065503E+03 -0.15949742380E+03  0.64998532448E+03  0.88866122797E+02 0.  0.
         13    1    3    3    0    0 -0.28071957750E+03 -0.30800775948E+03 -0.63127251585E+02  0.42149414110E+03  0.00000000000E+00 0. -1.
        -13    1    3    3    0    0 -0.13364581568E+03 -0.15830289555E+03 -0.96370172213E+02  0.22849118338E+03  0.00000000000E+00 0.  1.
         22    1    1    2    0    0  0.41436539317E+03  0.46631065503E+03 -0.39606120340E+03  0.73892407113E+03  0.00000000000E+00 0. -1.
<mgrwt>
<rscale>  0 0.12729587E+04</rscale>
<asrwt>0</asrwt>
<pdfrwt beam="1">  1        1 0.14957446E+00 0.12729587E+04</pdfrwt>
<pdfrwt beam="2">  1       -1 0.64103906E-01 0.12729587E+04</pdfrwt>
<totfact> 0.38663933E+01</totfact>
</mgrwt>
</event>
<event>
 6    1  0.1614874E-005  0.1960082E+04  0.7818608E-02  0.8625515E-01
         -2   -1    0    0    0  501 -0.00000000000E+00  0.00000000000E+00  0.37222235469E+03  0.37222235469E+03  0.00000000000E+00 0. -1.
          2   -1    0    0  501    0  0.00000000000E+00 -0.00000000000E+00 -0.25803933832E+04  0.25803933832E+04  0.00000000000E+00 0.  1.
         23    2    1    2    0    0 -0.44207699708E+03  0.64713589059E+03 -0.19875752085E+04  0.21384416484E+04  0.90887522779E+02 0.  0.
         11    1    3    3    0    0 -0.31641650213E+03  0.38625088298E+03 -0.12421639896E+04  0.13387608167E+04  0.00000000000E+00 0. -1.
        -11    1    3    3    0    0 -0.12566049496E+03  0.26088500760E+03 -0.74541121898E+03  0.79968083169E+03  0.00000000000E+00 0.  1.
         22    1    1    2    0    0  0.44207699708E+03 -0.64713589059E+03 -0.22059582001E+03  0.81417408952E+03  0.00000000000E+00 0. -1.
<mgrwt>
<rscale>  0 0.19600817E+04</rscale>
<asrwt>0</asrwt>
<pdfrwt beam="1">  1        2 0.39698358E+00 0.19600817E+04</pdfrwt>
<pdfrwt beam="2">  1       -2 0.57264980E-01 0.19600817E+04</pdfrwt>
<totfact> 0.83302800E+00</totfact>
</mgrwt>
</event>
<event>
 6    1  0.1614874E-005  0.2870337E+04  0.7818608E-02  0.8281758E-01
         -1   -1    0    0    0  501 -0.00000000000E+00  0.00000000000E+00  0.31028883824E+04  0.31028883824E+04  0.00000000000E+00 0.  1.
          1   -1    0    0  501    0  0.00000000000E+00 -0.00000000000E+00 -0.66380368208E+03  0.66380368208E+03  0.00000000000E+00 0. -1.
         23    2    1    2    0    0  0.13780410056E+04 -0.35328477193E+03  0.98670231473E+03  0.17336594191E+04  0.90478617543E+02 0.  0.
         11    1    3    3    0    0  0.53296415711E+03 -0.12538154116E+03  0.43200987538E+03  0.69742659545E+03  0.00000000000E+00 0.  1.
        -11    1    3    3    0    0  0.84507684852E+03 -0.22790323078E+03  0.55469243936E+03  0.10362328236E+04  0.00000000000E+00 0. -1.
         22    1    1    2    0    0 -0.13780410056E+04  0.35328477193E+03  0.14523823856E+04  0.20330326454E+04  0.00000000000E+00 0.  1.
<mgrwt>
<rscale>  0 0.28703371E+04</rscale>
<asrwt>0</asrwt>
<pdfrwt beam="1">  1        1 0.10212365E+00 0.28703371E+04</pdfrwt>
<pdfrwt beam="2">  1       -1 0.47736743E+00 0.28703371E+04</pdfrwt>
<totfact> 0.53328126E-02</totfact>
</mgrwt>
</event>
<event>
 6    1  0.1614874E-005  0.4455475E+04  0.7818608E-02  0.7918478E-01
          2   -1    0    0  501    0  0.00000000000E+00  0.00000000000E+00  0.19729712745E+04  0.19729712745E+04  0.00000000000E+00 0. -1.
         -2   -1    0    0    0  501 -0.00000000000E+00 -0.00000000000E+00 -0.25154017861E+04  0.25154017861E+04  0.00000000000E+00 0.  1.
         23    2    1    2    0    0 -0.16611311103E+03  0.16728712446E+04  0.11997942588E+04  0.20673321859E+04  0.90908395970E+02 0.  0.
         13    1    3    3    0    0 -0.71340579249E+02  0.77697543330E+03  0.50175010779E+03  0.92764943425E+03  0.00000000000E+00 0.  1.
        -13    1    3    3    0    0 -0.94772531780E+02  0.89589581130E+03  0.69804415106E+03  0.11396827516E+04  0.00000000000E+00 0. -1.
         22    1    1    2    0    0  0.16611311103E+03 -0.16728712446E+04 -0.17422247704E+04  0.24210408748E+04  0.00000000000E+00 0.  1.
<mgrwt>
<rscale>  0 0.44554755E+04</rscale>
<asrwt>0</asrwt>
<pdfrwt beam="1">  1        2 0.30353404E+00 0.44554755E+04</pdfrwt>
<pdfrwt beam="2">  1       -2 0.38698489E+00 0.44554755E+04</pdfrwt>
<totfact> 0.47454999E-02</totfact>
</mgrwt>
</event>
<event>
 6    1  0.1614874E-005  0.2268910E+04  0.7818608E-02  0.8490281E-01
         -2   -1    0    0    0  501 -0.00000000000E+00  0.00000000000E+00  0.17378152101E+04  0.17378152101E+04  0.00000000000E+00 0.  1.
          2   -1    0    0  501    0  0.00000000000E+00 -0.00000000000E+00 -0.74057850614E+03  0.74057850614E+03  0.00000000000E+00 0. -1.
         23    2    1    2    0    0 -0.62203303561E+03  0.79999221901E+03 -0.53526226424E+02  0.10185939410E+04  0.88067655116E+02 0.  0.
         11    1    3    3    0    0 -0.43680312285E+03  0.58787109569E+03 -0.74705584794E+02  0.73618633353E+03  0.00000000000E+00 0.  1.
        -11    1    3    3    0    0 -0.18522991277E+03  0.21212112331E+03  0.21179358370E+02  0.28240760748E+03  0.00000000000E+00 0. -1.
         22    1    1    2    0    0  0.62203303561E+03 -0.79999221901E+03  0.10507629303E+04  0.14597997752E+04  0.00000000000E+00 0. -1.
<mgrwt>
<rscale>  0 0.22689104E+04</rscale>
<asrwt>0</asrwt>
<pdfrwt beam="1">  1        2 0.11393516E+00 0.22689104E+04</pdfrwt>
<pdfrwt beam="2">  1       -2 0.26735618E+00 0.22689104E+04</pdfrwt>
<totfact> 0.17428697E+00</totfact>
</mgrwt>
</event>
<event>
 6    1  0.1614874E-005  0.4568922E+04  0.7818608E-02  0.7898680E-01
         -2   -1    0    0    0  501 -0.00000000000E+00  0.00000000000E+00  0.14843453241E+04  0.14843453241E+04  0.00000000000E+00 0.  1.
          2   -1    0    0  501    0  0.00000000000E+00 -0.00000000000E+00 -0.35158676435E+04  0.35158676435E+04  0.00000000000E+00 0. -1.
         23    2    1    2    0    0  0.32802604415E+03 -0.16257985616E+04 -0.27343108251E+04  0.31988985219E+04  0.75326069962E+02 0.  0.
         11    1    3    3    0    0  0.63214000379E+02 -0.37424974518E+03 -0.57055128447E+03  0.68526465677E+03  0.00000000000E+00 0. -1.
        -11    1    3    3    0    0  0.26481204377E+03 -0.12515488164E+04 -0.21637595406E+04  0.25136338651E+04  0.00000000000E+00 0.  1.
         22    1    1    2    0    0 -0.32802604415E+03  0.16257985616E+04  0.70278850572E+03  0.18013144457E+04  0.00000000000E+00 0.  1.
<mgrwt>
<rscale>  0 0.45689218E+04</rscale>
<asrwt>0</asrwt>
<pdfrwt beam="1">  1        2 0.54090271E+00 0.45689218E+04</pdfrwt>
<pdfrwt beam="2">  1       -2 0.22836082E+00 0.45689218E+04</pdfrwt>
<totfact> 0.52167531E-02</totfact>
</mgrwt>
</event>
<event>
 6    1  0.1614874E-005  0.1856024E+04  0.7818608E-02  0.8677061E-01
          2   -1    0    0  501    0  0.00000000000E+00  0.00000000000E+00  0.23039014760E+04  0.23039014760E+04  0.00000000000E+00 0. -1.
         -2   -1    0    0    0  501 -0.00000000000E+00 -0.00000000000E+00 -0.37380346456E+03  0.37380346456E+03  0.00000000000E+00 0.  1.
         23    2    1    2    0    0 -0.19065462441E+03 -0.65520671782E+03  0.18699785738E+04  0.19926798493E+04  0.91148705340E+02 0.  0.
         13    1    3    3    0    0 -0.62525171543E+02 -0.36674864552E+03  0.10583889189E+04  0.11218739099E+04  0.00000000000E+00 0. -1.
        -13    1    3    3    0    0 -0.12812945287E+03 -0.28845807230E+03  0.81158965492E+03  0.87080593942E+03  0.00000000000E+00 0.  1.
         22    1    1    2    0    0  0.19065462441E+03  0.65520671782E+03  0.60119437669E+02  0.68502509128E+03  0.00000000000E+00 0.  1.
<mgrwt>
<rscale>  0 0.18560241E+04</rscale>
<asrwt>0</asrwt>
<pdfrwt beam="1">  1        2 0.35444637E+00 0.18560241E+04</pdfrwt>
<pdfrwt beam="2">  1       -2 0.57508227E-01 0.18560241E+04</pdfrwt>
<totfact> 0.12011238E+01</totfact>
</mgrwt>
</event>
<event>
 6    1  0.1614874E-005  0.3234489E+04  0.7818608E-02  0.8179768E-01
          2   -1    0    0  501    0  0.00000000000E+00  0.00000000000E+00  0.32327118156E+04  0.32327118156E+04  0.00000000000E+00 0. -1.
         -2   -1    0    0    0  501 -0.00000000000E+00 -0.00000000000E+00 -0.80906677259E+03  0.80906677259E+03  0.00000000000E+00 0.  1.
         23    2    1    2    0    0 -0.15955861223E+04  0.87590072779E+02  0.91303041780E+03  0.18427961780E+04  0.93306565510E+02 0.  0.
         11    1    3    3    0    0 -0.13650536599E+04  0.79745222174E+02  0.74275481240E+03  0.15560898130E+04  0.00000000000E+00 0. -1.
        -11    1    3    3    0    0 -0.23053246241E+03  0.78448506055E+01  0.17027560540E+03  0.28670636495E+03  0.00000000000E+00 0.  1.
         22    1    1    2    0    0  0.15955861223E+04 -0.87590072779E+02  0.15106146252E+04  0.21989824102E+04  0.00000000000E+00 0. -1.
<mgrwt>
<rscale>  0 0.32344890E+04</rscale>
<asrwt>0</asrwt>
<pdfrwt beam="1">  1        2 0.49734027E+00 0.32344890E+04</pdfrwt>
<pdfrwt beam="2">  1       -2 0.12447181E+00 0.32344890E+04</pdfrwt>
<totfact> 0.50173861E-01</totfact>
</mgrwt>
</event>
<event>
 6    1  0.1614874E-005  0.4303999E+04  0.7818608E-02  0.7945879E-01
         -2   -1    0    0    0  501 -0.00000000000E+00  0.00000000000E+00  0.13263638259E+04  0.13263638259E+04  0.00000000000E+00 0. -1.
          2   -1    0    0  501    0  0.00000000000E+00 -0.00000000000E+00 -0.34915774151E+04  0.34915774151E+04  0.00000000000E+00 0.  1.
         23    2    1    2    0    0 -0.11121365986E+04  0.12446809484E+04  0.43573885830E+03  0.17274668257E+04  0.90525156660E+02 0.  0.
         13    1    3    3    0    0 -0.20112951844E+03  0.21769495232E+03  0.11319391740E+03  0.31726493407E+03  0.00000000000E+00 0. -1.
        -13    1    3    3    0    0 -0.91100708017E+03  0.10269859961E+04  0.32254494090E+03  0.14102018916E+04  0.00000000000E+00 0.  1.
         22    1    1    2    0    0  0.11121365986E+04 -0.12446809484E+04 -0.26009524475E+04  0.30904744153E+04  0.00000000000E+00 0.  1.
<mgrwt>
<rscale>  0 0.43039991E+04</rscale>
<asrwt>0</asrwt>
<pdfrwt beam="1">  1        2 0.53716576E+00 0.43039991E+04</pdfrwt>
<pdfrwt beam="2">  1       -2 0.20405597E+00 0.43039991E+04</pdfrwt>
<totfact> 0.79224189E-02</totfact>
</mgrwt>
</event>
<event>
 6    1  0.1614874E-005  0.1569985E+04  0.7818608E-02  0.8839203E-01
         -2   -1    0    0    0  501 -0.00000000000E+00  0.00000000000E+00  0.35410288989E+03  0.35410288989E+03  0.00000000000E+00 0.  1.
          2   -1    0    0  501    0  0.00000000000E+00 -0.00000000000E+00 -0.17402085344E+04  0.17402085344E+04  0.00000000000E+00 0. -1.
         23    2    1    2    0    0  0.68716351843E+02 -0.77817066608E+03 -0.75128184605E+03  0.10876969114E+04  0.91589498251E+02 0.  0.
         11    1    3    3    0    0  0.60609313847E+02 -0.23890661091E+03 -0.21388237365E+03  0.32633652480E+03  0.00000000000E+00 0.  1.
        -11    1    3    3    0    0  0.81070379955E+01 -0.53926405518E+03 -0.53739947240E+03  0.76136038655E+03  0.00000000000E+00 0. -1.
         22    1    1    2    0    0 -0.68716351843E+02  0.77817066608E+03 -0.63482379847E+03  0.10066145129E+04  0.00000000000E+00 0.  1.
<mgrwt>
<rscale>  0 0.15699845E+04</rscale>
<asrwt>0</asrwt>
<pdfrwt beam="1">  1        2 0.26772440E+00 0.15699845E+04</pdfrwt>
<pdfrwt beam="2">  1       -2 0.54477366E-01 0.15699845E+04</pdfrwt>
<totfact> 0.28388417E+01</totfact>
</mgrwt>
</event>
<event>
 6    1  0.1614874E-005  0.3497870E+04  0.7818608E-02  0.8114295E-01
         -2   -1    0    0    0  501 -0.00000000000E+00  0.00000000000E+00  0.14063791882E+04  0.14063791882E+04  0.00000000000E+00 0.  1.
          2   -1    0    0  501    0  0.00000000000E+00 -0.00000000000E+00 -0.21749280135E+04  0.21749280135E+04  0.00000000000E+00 0. -1.
         23    2    1    2    0    0  0.13015789874E+04  0.92999951339E+03 -0.11048101171E+04  0.19466578167E+04  0.99319209121E+02 0.  0.
         11    1    3    3    0    0  0.68193106406E+03  0.45945046758E+03 -0.51394938472E+03  0.96967452186E+03  0.00000000000E+00 0.  1.
        -11    1    3    3    0    0  0.61964792329E+03  0.47054904581E+03 -0.59086073239E+03  0.97698329486E+03  0.00000000000E+00 0. -1.
         22    1    1    2    0    0 -0.13015789874E+04 -0.92999951339E+03  0.33626129182E+03  0.16346493849E+04  0.00000000000E+00 0.  1.
<mgrwt>
<rscale>  0 0.34978699E+04</rscale>
<asrwt>0</asrwt>
<pdfrwt beam="1">  1        2 0.33460431E+00 0.34978699E+04</pdfrwt>
<pdfrwt beam="2">  1       -2 0.21636603E+00 0.34978699E+04</pdfrwt>
<totfact> 0.45698633E-01</totfact>
</mgrwt>
</event>
<event>
 6    1  0.1614874E-005  0.1170395E+04  0.7818608E-02  0.9139171E-01
          4   -1    0    0  501    0  0.00000000000E+00  0.00000000000E+00  0.43500455347E+03  0.43500455347E+03  0.00000000000E+00 0. -1.
         -4   -1    0    0    0  501 -0.00000000000E+00 -0.00000000000E+00 -0.78724779097E+03  0.78724779097E+03  0.00000000000E+00 0.  1.
         23    2    1    2    0    0  0.13482752321E+03  0.32017579210E+01  0.41374739952E+03  0.44447964739E+03  0.90479467673E+02 0.  0.
         11    1    3    3    0    0  0.14569889022E+03 -0.35210586772E+01  0.34445967752E+03  0.37402277191E+03  0.00000000000E+00 0.  1.
        -11    1    3    3    0    0 -0.10871367016E+02  0.67228165982E+01  0.69287721992E+02  0.70456875482E+02  0.00000000000E+00 0. -1.
         22    1    1    2    0    0 -0.13482752321E+03 -0.32017579210E+01 -0.76599063702E+03  0.77777269704E+03  0.00000000000E+00 0.  1.
<mgrwt>
<rscale>  0 0.11703954E+04</rscale>
<asrwt>0</asrwt>
<pdfrwt beam="1">  1        4 0.66923778E-01 0.11703954E+04</pdfrwt>
<pdfrwt beam="2">  1       -4 0.12111504E+00 0.11703954E+04</pdfrwt>
<totfact> 0.21074427E+00</totfact>
</mgrwt>
</event>
<event>
 6    1  0.1614874E-005  0.1667556E+04  0.7818608E-02  0.8780088E-01
         -1   -1    0    0    0  501 -0.00000000000E+00  0.00000000000E+00  0.14554722879E+04  0.14554722879E+04  0.00000000000E+00 0.  1.
          1   -1    0    0  501    0  0.00000000000E+00 -0.00000000000E+00 -0.47763558034E+03  0.47763558034E+03  0.00000000000E+00 0. -1.
         23    2    1    2    0    0  0.47039517163E+03 -0.19962737674E+03 -0.26957812696E+03  0.58508469469E+03  0.92352728096E+02 0.  0.
         13    1    3    3    0    0  0.36371279126E+03 -0.18507550191E+03 -0.18451840299E+03  0.44786937490E+03  0.00000000000E+00 0. -1.
        -13    1    3    3    0    0  0.10668238037E+03 -0.14551874831E+02 -0.85059723966E+02  0.13721531978E+03  0.00000000000E+00 0.  1.
         22    1    1    2    0    0 -0.47039517163E+03  0.19962737674E+03  0.12474148345E+04  0.13480231735E+04  0.00000000000E+00 0.  1.
<mgrwt>
<rscale>  0 0.16675555E+04</rscale>
<asrwt>0</asrwt>
<pdfrwt beam="1">  1        1 0.73482397E-01 0.16675555E+04</pdfrwt>
<pdfrwt beam="2">  1       -1 0.22391881E+00 0.16675555E+04</pdfrwt>
<totfact> 0.46663586E+00</totfact>
</mgrwt>
</event>
<event>
 6    1  0.1614874E-005  0.9996928E+03  0.7818608E-02  0.9308882E-01
         -2   -1    0    0    0  501 -0.00000000000E+00  0.00000000000E+00  0.46009840593E+03  0.46009840593E+03  0.00000000000E+00 0.  1.
          2   -1    0    0  501    0  0.00000000000E+00 -0.00000000000E+00 -0.54302820832E+03  0.54302820832E+03  0.00000000000E+00 0. -1.
         23    2    1    2    0    0 -0.44364189090E+02  0.31341726769E+03  0.34113460770E+03  0.47394877187E+03  0.89755516977E+02 0.  0.
         13    1    3    3    0    0  0.99437036188E+01  0.22023115438E+03  0.24342162662E+03  0.32841243415E+03  0.00000000000E+00 0. -1.
        -13    1    3    3    0    0 -0.54307892709E+02  0.93186113314E+02  0.97712981076E+02  0.14553633772E+03  0.00000000000E+00 0.  1.
         22    1    1    2    0    0  0.44364189090E+02 -0.31341726769E+03 -0.42406441009E+03  0.52917784238E+03  0.00000000000E+00 0. -1.
<mgrwt>
<rscale>  0 0.99969278E+03</rscale>
<asrwt>0</asrwt>
<pdfrwt beam="1">  1        2 0.83542802E-01 0.99969278E+03</pdfrwt>
<pdfrwt beam="2">  1       -2 0.70784370E-01 0.99969278E+03</pdfrwt>
<totfact> 0.10131001E+02</totfact>
</mgrwt>
</event>
<event>
 6    1  0.1614874E-005  0.2640865E+04  0.7818608E-02  0.8354451E-01
          2   -1    0    0  501    0  0.00000000000E+00  0.00000000000E+00  0.37522403425E+04  0.37522403425E+04  0.00000000000E+00 0. -1.
         -2   -1    0    0    0  501 -0.00000000000E+00 -0.00000000000E+00 -0.46466677081E+03  0.46466677081E+03  0.00000000000E+00 0.  1.
         23    2    1    2    0    0 -0.90447900288E+03  0.24691351904E+03  0.31268574907E+04  0.32656562467E+04  0.90688489234E+02 0.  0.
         11    1    3    3    0    0 -0.43167010970E+03  0.74810708073E+02  0.15178410012E+04  0.15798028455E+04  0.00000000000E+00 0. -1.
        -11    1    3    3    0    0 -0.47280889318E+03  0.17210281097E+03  0.16090164895E+04  0.16858534012E+04  0.00000000000E+00 0.  1.
         22    1    1    2    0    0  0.90447900288E+03 -0.24691351904E+03  0.16071608101E+03  0.95125086661E+03  0.00000000000E+00 0.  1.
<mgrwt>
<rscale>  0 0.26408646E+04</rscale>
<asrwt>0</asrwt>
<pdfrwt beam="1">  1        2 0.57726773E+00 0.26408646E+04</pdfrwt>
<pdfrwt beam="2">  1       -2 0.71487198E-01 0.26408646E+04</pdfrwt>
<totfact> 0.83616810E-01</totfact>
</mgrwt>
</event>
<event>
 6    1  0.1614874E-005  0.1557389E+04  0.7818608E-02  0.8847162E-01
          1   -1    0    0  501    0  0.00000000000E+00  0.00000000000E+00  0.94721668276E+03  0.94721668276E+03  0.00000000000E+00 0. -1.
         -1   -1    0    0    0  501 -0.00000000000E+00 -0.00000000000E+00 -0.64015472994E+03  0.64015472994E+03  0.00000000000E+00 0.  1.
         23    2    1    2    0    0 -0.54678878671E+03 -0.54993288963E+03  0.12486314693E+03  0.79075320726E+03  0.91080562974E+02 0.  0.
         11    1    3    3    0    0 -0.33283558950E+03 -0.29730089250E+03  0.34651674804E+02  0.44762494221E+03  0.00000000000E+00 0.  1.
        -11    1    3    3    0    0 -0.21395319721E+03 -0.25263199713E+03  0.90211472126E+02  0.34312826504E+03  0.00000000000E+00 0. -1.
         22    1    1    2    0    0  0.54678878671E+03  0.54993288963E+03  0.18219880590E+03  0.79661820544E+03  0.00000000000E+00 0. -1.
<mgrwt>
<rscale>  0 0.15573891E+04</rscale>
<asrwt>0</asrwt>
<pdfrwt beam="1">  1        1 0.14572564E+00 0.15573891E+04</pdfrwt>
<pdfrwt beam="2">  1       -1 0.98485343E-01 0.15573891E+04</pdfrwt>
<totfact> 0.15836070E+01</totfact>
</mgrwt>
</event>
<event>
 6    1  0.1614874E-005  0.1595024E+04  0.7818608E-02  0.8823611E-01
         -1   -1    0    0    0  501 -0.00000000000E+00  0.00000000000E+00  0.57471358263E+03  0.57471358263E+03  0.00000000000E+00 0.  1.
          1   -1    0    0  501    0  0.00000000000E+00 -0.00000000000E+00 -0.11066823495E+04  0.11066823495E+04  0.00000000000E+00 0. -1.
         23    2    1    2    0    0  0.24308219239E+03  0.48402923272E+03 -0.88015364906E+03  0.10374969008E+04  0.91411831335E+02 0.  0.
         13    1    3    3    0    0  0.31010847967E+02  0.82549385457E+02 -0.21260279134E+03  0.23016520288E+03  0.00000000000E+00 0.  1.
        -13    1    3    3    0    0  0.21207134442E+03  0.40147984727E+03 -0.66755085771E+03  0.80733169795E+03  0.00000000000E+00 0. -1.
         22    1    1    2    0    0 -0.24308219239E+03 -0.48402923272E+03  0.34818488216E+03  0.64389903133E+03  0.00000000000E+00 0.  1.
<mgrwt>
<rscale>  0 0.15950240E+04</rscale>
<asrwt>0</asrwt>
<pdfrwt beam="1">  1        1 0.17025882E+00 0.15950240E+04</pdfrwt>
<pdfrwt beam="2">  1       -1 0.88417474E-01 0.15950240E+04</pdfrwt>
<totfact> 0.15113974E+01</totfact>
</mgrwt>
</event>
<event>
 6    1  0.1614874E-005  0.2743684E+04  0.7818608E-02  0.8320969E-01
          2   -1    0    0  501    0  0.00000000000E+00  0.00000000000E+00  0.19755350058E+04  0.19755350058E+04  0.00000000000E+00 0. -1.
         -2   -1    0    0    0  501 -0.00000000000E+00 -0.00000000000E+00 -0.95262852692E+03  0.95262852692E+03  0.00000000000E+00 0.  1.
         23    2    1    2    0    0  0.10291994342E+04  0.46004402819E+03  0.13433920535E+04  0.17561554326E+04  0.92128773786E+02 0.  0.
         13    1    3    3    0    0  0.13098310911E+03  0.27871443001E+02  0.17463402281E+03  0.22006915761E+03  0.00000000000E+00 0. -1.
        -13    1    3    3    0    0  0.89821632505E+03  0.43217258518E+03  0.11687580307E+04  0.15360862750E+04  0.00000000000E+00 0.  1.
         22    1    1    2    0    0 -0.10291994342E+04 -0.46004402819E+03 -0.32048557462E+03  0.11720081001E+04  0.00000000000E+00 0.  1.
<mgrwt>
<rscale>  0 0.27436844E+04</rscale>
<asrwt>0</asrwt>
<pdfrwt beam="1">  1        2 0.30392846E+00 0.27436844E+04</pdfrwt>
<pdfrwt beam="2">  1       -2 0.14655823E+00 0.27436844E+04</pdfrwt>
<totfact> 0.19201133E+00</totfact>
</mgrwt>
</event>
<event>
 6    1  0.1614874E-005  0.9803652E+03  0.7818608E-02  0.9330346E-01
         -2   -1    0    0    0  501 -0.00000000000E+00  0.00000000000E+00  0.31207527328E+03  0.31207527328E+03  0.00000000000E+00 0.  1.
          2   -1    0    0  501    0  0.00000000000E+00 -0.00000000000E+00 -0.76993915337E+03  0.76993915337E+03  0.00000000000E+00 0. -1.
         23    2    1    2    0    0  0.15915858686E+03  0.46010435623E+03 -0.25111228019E+03  0.55307804252E+03  0.76226435452E+02 0.  0.
         13    1    3    3    0    0  0.45576379139E+02  0.83011215409E+02 -0.21171709238E+02  0.97037670475E+02  0.00000000000E+00 0.  1.
        -13    1    3    3    0    0  0.11358220772E+03  0.37709314082E+03 -0.22994057095E+03  0.45604037205E+03  0.00000000000E+00 0. -1.
         22    1    1    2    0    0 -0.15915858686E+03 -0.46010435623E+03 -0.20675159989E+03  0.52893638413E+03  0.00000000000E+00 0. -1.
<mgrwt>
<rscale>  0 0.98036518E+03</rscale>
<asrwt>0</asrwt>
<pdfrwt beam="1">  1        2 0.11845218E+00 0.98036518E+03</pdfrwt>
<pdfrwt beam="2">  1       -2 0.48011581E-01 0.98036518E+03</pdfrwt>
<totfact> 0.14882888E+02</totfact>
</mgrwt>
</event>
<event>
 6    1  0.1614874E-005  0.2029213E+04  0.7818608E-02  0.8593083E-01
         -1   -1    0    0    0  501 -0.00000000000E+00  0.00000000000E+00  0.69935073139E+03  0.69935073139E+03  0.00000000000E+00 0.  1.
          1   -1    0    0  501    0  0.00000000000E+00 -0.00000000000E+00 -0.14719748739E+04  0.14719748739E+04  0.00000000000E+00 0. -1.
         23    2    1    2    0    0 -0.40510770260E+03 -0.62666780666E+03  0.34527321856E+03  0.82725741487E+03  0.91194541394E+02 0.  0.
         11    1    3    3    0    0 -0.11911492694E+03 -0.11913143742E+03  0.92795622719E+02  0.19233224586E+03  0.00000000000E+00 0.  1.
        -11    1    3    3    0    0 -0.28599277567E+03 -0.50753636925E+03  0.25247759584E+03  0.63492516901E+03  0.00000000000E+00 0. -1.
         22    1    1    2    0    0  0.40510770260E+03  0.62666780666E+03 -0.11178973611E+04  0.13440681904E+04  0.00000000000E+00 0. -1.
<mgrwt>
<rscale>  0 0.20292133E+04</rscale>
<asrwt>0</asrwt>
<pdfrwt beam="1">  1        1 0.22645767E+00 0.20292133E+04</pdfrwt>
<pdfrwt beam="2">  1       -1 0.10759242E+00 0.20292133E+04</pdfrwt>
<totfact> 0.50904763E+00</totfact>
</mgrwt>
</event>
<event>
 6    1  0.1614874E-005  0.4954715E+04  0.7818608E-02  0.7835531E-01
         -2   -1    0    0    0  501 -0.00000000000E+00  0.00000000000E+00  0.15680846913E+04  0.15680846913E+04  0.00000000000E+00 0. -1.
          2   -1    0    0  501    0  0.00000000000E+00 -0.00000000000E+00 -0.39138828068E+04  0.39138828068E+04  0.00000000000E+00 0.  1.
         23    2    1    2    0    0  0.14948747137E+04  0.97332552006E+03  0.72742855331E+03  0.19285557382E+04  0.90343552988E+02 0.  0.
         11    1    3    3    0    0  0.38341385486E+03  0.24316743623E+03  0.14348885194E+03  0.47615715554E+03  0.00000000000E+00 0.  1.
        -11    1    3    3    0    0  0.11114608588E+04  0.73015808382E+03  0.58393970137E+03  0.14523985827E+04  0.00000000000E+00 0. -1.
         22    1    1    2    0    0 -0.14948747137E+04 -0.97332552006E+03 -0.30732266688E+04  0.35534117599E+04  0.00000000000E+00 0.  1.
<mgrwt>
<rscale>  0 0.49547148E+04</rscale>
<asrwt>0</asrwt>
<pdfrwt beam="1">  1        2 0.60213581E+00 0.49547148E+04</pdfrwt>
<pdfrwt beam="2">  1       -2 0.24124380E+00 0.49547148E+04</pdfrwt>
<totfact> 0.21228290E-02</totfact>
</mgrwt>
</event>
<event>
 6    1  0.1614874E-005  0.3103485E+04  0.7818608E-02  0.8214782E-01
          2   -1    0    0  501    0  0.00000000000E+00  0.00000000000E+00  0.21063358620E+04  0.21063358620E+04  0.00000000000E+00 0. -1.
         -2   -1    0    0    0  501 -0.00000000000E+00 -0.00000000000E+00 -0.11431722716E+04  0.11431722716E+04  0.00000000000E+00 0.  1.
         23    2    1    2    0    0  0.45496615721E+03  0.13113476755E+04 -0.24074556762E+03  0.14121120981E+04  0.97340736837E+02 0.  0.
         11    1    3    3    0    0  0.18732441909E+03  0.56769109875E+03 -0.15179267137E+03  0.61676951665E+03  0.00000000000E+00 0.  1.
        -11    1    3    3    0    0  0.26764173813E+03  0.74365657678E+03 -0.88952896247E+02  0.79534258149E+03  0.00000000000E+00 0. -1.
         22    1    1    2    0    0 -0.45496615721E+03 -0.13113476755E+04  0.12039091581E+04  0.18373960355E+04  0.00000000000E+00 0. -1.
<mgrwt>
<rscale>  0 0.31034850E+04</rscale>
<asrwt>0</asrwt>
<pdfrwt beam="1">  1        2 0.32405167E+00 0.31034850E+04</pdfrwt>
<pdfrwt beam="2">  1       -2 0.17587266E+00 0.31034850E+04</pdfrwt>
<totfact> 0.95836545E-01</totfact>
</mgrwt>
</event>
<event>
 6    1  0.1614874E-005  0.1051314E+04  0.7818608E-02  0.9253988E-01
         -2   -1    0    0    0  501 -0.00000000000E+00  0.00000000000E+00  0.45299934018E+03  0.45299934018E+03  0.00000000000E+00 0.  1.
          2   -1    0    0  501    0  0.00000000000E+00 -0.00000000000E+00 -0.60996892035E+03  0.60996892035E+03  0.00000000000E+00 0. -1.
         23    2    1    2    0    0 -0.95066585902E+02 -0.51241891441E+03 -0.10665273672E+03  0.53938198843E+03  0.89147762694E+02 0.  0.
         11    1    3    3    0    0 -0.31208340813E+02 -0.38435433473E+03 -0.79295574725E+02  0.39368769771E+03  0.00000000000E+00 0.  1.
        -11    1    3    3    0    0 -0.63858245089E+02 -0.12806457968E+03 -0.27357161999E+02  0.14569429072E+03  0.00000000000E+00 0. -1.
         22    1    1    2    0    0  0.95066585902E+02  0.51241891441E+03 -0.50316843440E+02  0.52358627210E+03  0.00000000000E+00 0. -1.
<mgrwt>
<rscale>  0 0.10513145E+04</rscale>
<asrwt>0</asrwt>
<pdfrwt beam="1">  1        2 0.93841372E-01 0.10513145E+04</pdfrwt>
<pdfrwt beam="2">  1       -2 0.69692207E-01 0.10513145E+04</pdfrwt>
<totfact> 0.90908514E+01</totfact>
</mgrwt>
</event>
<event>
 6    1  0.1614874E-005  0.3304024E+04  0.7818608E-02  0.8161872E-01
          2   -1    0    0  501    0  0.00000000000E+00  0.00000000000E+00  0.16183133238E+04  0.16183133238E+04  0.00000000000E+00 0. -1.
         -2   -1    0    0    0  501 -0.00000000000E+00 -0.00000000000E+00 -0.16864126897E+04  0.16864126897E+04  0.00000000000E+00 0.  1.
         23    2    1    2    0    0  0.75044409985E+03 -0.11964418724E+04  0.82057978349E+03  0.16360768198E+04  0.93577123543E+02 0.  0.
         11    1    3    3    0    0  0.46227567730E+03 -0.79978674561E+03  0.56993459814E+03  0.10854414247E+04  0.00000000000E+00 0. -1.
        -11    1    3    3    0    0  0.28816842255E+03 -0.39665512678E+03  0.25064518535E+03  0.55063539507E+03  0.00000000000E+00 0.  1.
         22    1    1    2    0    0 -0.75044409985E+03  0.11964418724E+04 -0.88867914948E+03  0.16686491937E+04  0.00000000000E+00 0.  1.
<mgrwt>
<rscale>  0 0.33040243E+04</rscale>
<asrwt>0</asrwt>
<pdfrwt beam="1">  1        2 0.24897128E+00 0.33040243E+04</pdfrwt>
<pdfrwt beam="2">  1       -2 0.25944810E+00 0.33040243E+04</pdfrwt>
<totfact> 0.51135119E-01</totfact>
</mgrwt>
</event>
<event>
 6    1  0.1614874E-005  0.2243470E+04  0.7818608E-02  0.8500550E-01
          2   -1    0    0  501    0  0.00000000000E+00  0.00000000000E+00  0.17264351159E+04  0.17264351159E+04  0.00000000000E+00 0. -1.
         -2   -1    0    0    0  501 -0.00000000000E+00 -0.00000000000E+00 -0.72883674245E+03  0.72883674245E+03  0.00000000000E+00 0.  1.
         23    2    1    2    0    0  0.95024716943E+03  0.16100440413E+03  0.11239112767E+04  0.14832394254E+04  0.89053546031E+02 0.  0.
         11    1    3    3    0    0  0.26480079913E+03  0.24565372949E+02  0.25863963118E+03  0.37096816519E+03  0.00000000000E+00 0.  1.
        -11    1    3    3    0    0  0.68544637030E+03  0.13643903118E+03  0.86527164551E+03  0.11122712602E+04  0.00000000000E+00 0. -1.
         22    1    1    2    0    0 -0.95024716943E+03 -0.16100440413E+03 -0.12631290324E+03  0.97203243293E+03  0.00000000000E+00 0.  1.
<mgrwt>
<rscale>  0 0.22434699E+04</rscale>
<asrwt>0</asrwt>
<pdfrwt beam="1">  1        2 0.26560540E+00 0.22434699E+04</pdfrwt>
<pdfrwt beam="2">  1       -2 0.11212873E+00 0.22434699E+04</pdfrwt>
<totfact> 0.54155714E+00</totfact>
</mgrwt>
</event>
<event>
 6    1  0.1614874E-005  0.4389595E+04  0.7818608E-02  0.7930256E-01
         -2   -1    0    0    0  501 -0.00000000000E+00  0.00000000000E+00  0.22256304452E+04  0.22256304452E+04  0.00000000000E+00 0.  1.
          2   -1    0    0  501    0  0.00000000000E+00 -0.00000000000E+00 -0.21643916099E+04  0.21643916099E+04  0.00000000000E+00 0. -1.
         23    2    1    2    0    0  0.77673865141E+03 -0.38453140832E+03 -0.19850055258E+04  0.21677926966E+04  0.88830746302E+02 0.  0.
         11    1    3    3    0    0  0.38131319612E+03 -0.14486640746E+03 -0.87971912367E+03  0.96968642669E+03  0.00000000000E+00 0.  1.
        -11    1    3    3    0    0  0.39542545529E+03 -0.23966500086E+03 -0.11052864021E+04  0.11981062699E+04  0.00000000000E+00 0. -1.
         22    1    1    2    0    0 -0.77673865141E+03  0.38453140832E+03  0.20462443610E+04  0.22222293585E+04  0.00000000000E+00 0.  1.
<mgrwt>
<rscale>  0 0.43895949E+04</rscale>
<asrwt>0</asrwt>
<pdfrwt beam="1">  1        2 0.33298333E+00 0.43895949E+04</pdfrwt>
<pdfrwt beam="2">  1       -2 0.34240468E+00 0.43895949E+04</pdfrwt>
<totfact> 0.71792554E-02</totfact>
</mgrwt>
</event>
<event>
 6    1  0.1614874E-005  0.2494316E+04  0.7818608E-02  0.8405013E-01
          2   -1    0    0  501    0  0.00000000000E+00  0.00000000000E+00  0.10733179184E+04  0.10733179184E+04  0.00000000000E+00 0. -1.
         -2   -1    0    0    0  501 -0.00000000000E+00 -0.00000000000E+00 -0.14491537070E+04  0.14491537070E+04  0.00000000000E+00 0.  1.
         23    2    1    2    0    0  0.11769165736E+04  0.36566516991E+03 -0.63497140428E+01  0.12358622842E+04  0.92041452434E+02 0.  0.
         11    1    3    3    0    0  0.68111155508E+02  0.63607281080E+01 -0.16001829837E+02  0.70254159484E+02  0.00000000000E+00 0. -1.
        -11    1    3    3    0    0  0.11088054181E+04  0.35930444180E+03  0.96521157942E+01  0.11656081247E+04  0.00000000000E+00 0.  1.
         22    1    1    2    0    0 -0.11769165736E+04 -0.36566516991E+03 -0.36948607456E+03  0.12866093412E+04  0.00000000000E+00 0.  1.
<mgrwt>
<rscale>  0 0.24943156E+04</rscale>
<asrwt>0</asrwt>
<pdfrwt beam="1">  1        2 0.16512583E+00 0.24943156E+04</pdfrwt>
<pdfrwt beam="2">  1       -2 0.22294673E+00 0.24943156E+04</pdfrwt>
<totfact> 0.19119543E+00</totfact>
</mgrwt>
</event>
<event>
 6    1  0.1614874E-005  0.3607841E+04  0.7818608E-02  0.8088698E-01
         -2   -1    0    0    0  501 -0.00000000000E+00  0.00000000000E+00  0.96258457272E+03  0.96258457272E+03  0.00000000000E+00 0.  1.
          2   -1    0    0  501    0  0.00000000000E+00 -0.00000000000E+00 -0.33806165723E+04  0.33806165723E+04  0.00000000000E+00 0. -1.
         23    2    1    2    0    0 -0.10107947193E+04 -0.14767752067E+04 -0.94775091298E+03  0.20271058427E+04  0.91407488386E+02 0.  0.
         13    1    3    3    0    0 -0.97259186543E+03 -0.13955969261E+04 -0.88405084220E+03  0.19170737097E+04  0.00000000000E+00 0.  1.
        -13    1    3    3    0    0 -0.38202853906E+02 -0.81178280536E+02 -0.63700070776E+02  0.11003213301E+03  0.00000000000E+00 0. -1.
         22    1    1    2    0    0  0.10107947193E+04  0.14767752067E+04 -0.14702810866E+04  0.23160953023E+04  0.00000000000E+00 0.  1.
<mgrwt>
<rscale>  0 0.36078411E+04</rscale>
<asrwt>0</asrwt>
<pdfrwt beam="1">  1        2 0.52009485E+00 0.36078411E+04</pdfrwt>
<pdfrwt beam="2">  1       -2 0.14808994E+00 0.36078411E+04</pdfrwt>
<totfact> 0.24779086E-01</totfact>
</mgrwt>
</event>
<event>
 6    1  0.1614874E-005  0.1913214E+04  0.7818608E-02  0.8648307E-01
         -1   -1    0    0    0  501 -0.00000000000E+00  0.00000000000E+00  0.58166327228E+03  0.58166327228E+03  0.00000000000E+00 0.  1.
          1   -1    0    0  501    0  0.00000000000E+00 -0.00000000000E+00 -0.15732411555E+04  0.15732411555E+04  0.00000000000E+00 0. -1.
         23    2    1    2    0    0  0.69732097564E+03  0.64859454579E+03 -0.56791667011E+03  0.11125895755E+04  0.91623094085E+02 0.  0.
         13    1    3    3    0    0  0.92578538260E+02  0.80436939424E+02 -0.39473681161E+02  0.12883733339E+03  0.00000000000E+00 0. -1.
        -13    1    3    3    0    0  0.60474243737E+03  0.56815760637E+03 -0.52844298895E+03  0.98375224208E+03  0.00000000000E+00 0.  1.
         22    1    1    2    0    0 -0.69732097564E+03 -0.64859454579E+03 -0.42366121314E+03  0.10423148523E+04  0.00000000000E+00 0.  1.
<mgrwt>
<rscale>  0 0.19132136E+04</rscale>
<asrwt>0</asrwt>
<pdfrwt beam="1">  1        1 0.24203709E+00 0.19132136E+04</pdfrwt>
<pdfrwt beam="2">  1       -1 0.89486660E-01 0.19132136E+04</pdfrwt>
<totfact> 0.66553115E+00</totfact>
</mgrwt>
</event>
<event>
 6    1  0.1614874E-005  0.5168227E+04  0.7818608E-02  0.7803068E-01
          1   -1    0    0  501    0  0.00000000000E+00  0.00000000000E+00  0.19776774053E+04  0.19776774053E+04  0.00000000000E+00 0. -1.
         -1   -1    0    0    0  501 -0.00000000000E+00 -0.00000000000E+00 -0.33765077577E+04  0.33765077577E+04  0.00000000000E+00 0.  1.
         23    2    1    2    0    0  0.18324567340E+04  0.79391056475E+03  0.99804317673E+03  0.22343783770E+04  0.90359736935E+02 0.  0.
         13    1    3    3    0    0  0.58393558009E+03  0.26270881983E+03  0.27425966481E+03  0.69657379326E+03  0.00000000000E+00 0.  1.
        -13    1    3    3    0    0  0.12485211539E+04  0.53120174492E+03  0.72378351192E+03  0.15378045837E+04  0.00000000000E+00 0. -1.
         22    1    1    2    0    0 -0.18324567340E+04 -0.79391056475E+03 -0.23968735292E+04  0.31198067860E+04  0.00000000000E+00 0.  1.
<mgrwt>
<rscale>  0 0.51682272E+04</rscale>
<asrwt>0</asrwt>
<pdfrwt beam="1">  1        1 0.30425806E+00 0.51682272E+04</pdfrwt>
<pdfrwt beam="2">  1       -1 0.51946273E+00 0.51682272E+04</pdfrwt>
<totfact> 0.24921180E-03</totfact>
</mgrwt>
</event>
<event>
 6    1  0.1614874E-005  0.1039057E+04  0.7818608E-02  0.9266715E-01
         -2   -1    0    0    0  501 -0.00000000000E+00  0.00000000000E+00  0.32041453315E+03  0.32041453315E+03  0.00000000000E+00 0.  1.
          2   -1    0    0  501    0  0.00000000000E+00 -0.00000000000E+00 -0.84237788374E+03  0.84237788374E+03  0.00000000000E+00 0. -1.
         23    2    1    2    0    0  0.10746622914E+03 -0.93583672572E+02 -0.81778757478E+03  0.83443458495E+03  0.84839053015E+02 0.  0.
         13    1    3    3    0    0  0.86808236050E+02 -0.45119901156E+02 -0.67849335614E+03  0.68551054671E+03  0.00000000000E+00 0. -1.
        -13    1    3    3    0    0  0.20657993094E+02 -0.48463771416E+02 -0.13929421864E+03  0.14892403824E+03  0.00000000000E+00 0.  1.
         22    1    1    2    0    0 -0.10746622914E+03  0.93583672572E+02  0.29582422419E+03  0.32835783194E+03  0.00000000000E+00 0.  1.
<mgrwt>
<rscale>  0 0.10390575E+04</rscale>
<asrwt>0</asrwt>
<pdfrwt beam="1">  1        2 0.12959660E+00 0.10390575E+04</pdfrwt>
<pdfrwt beam="2">  1       -2 0.49294544E-01 0.10390575E+04</pdfrwt>
<totfact> 0.12469699E+02</totfact>
</mgrwt>
</event>
<event>
 6    1  0.1614874E-005  0.2706516E+04  0.7818608E-02  0.8332894E-01
         -1   -1    0    0    0  501 -0.00000000000E+00  0.00000000000E+00  0.17627121880E+04  0.17627121880E+04  0.00000000000E+00 0.  1.
          1   -1    0    0  501    0  0.00000000000E+00 -0.00000000000E+00 -0.10389148030E+04  0.10389148030E+04  0.00000000000E+00 0. -1.
         23    2    1    2    0    0 -0.34902284184E+03  0.10964825752E+03 -0.98466942418E+03  0.10544296574E+04  0.91697017515E+02 0.  0.
         11    1    3    3    0    0 -0.16328242905E+03  0.11581169385E+02 -0.50274176232E+03  0.52871973171E+03  0.00000000000E+00 0.  1.
        -11    1    3    3    0    0 -0.18574041279E+03  0.98067088136E+02 -0.48192766186E+03  0.52570992571E+03  0.00000000000E+00 0. -1.
         22    1    1    2    0    0  0.34902284184E+03 -0.10964825752E+03  0.17084668092E+04  0.17471973336E+04  0.00000000000E+00 0.  1.
<mgrwt>
<rscale>  0 0.27065164E+04</rscale>
<asrwt>0</asrwt>
<pdfrwt beam="1">  1        1 0.15983305E+00 0.27065164E+04</pdfrwt>
<pdfrwt beam="2">  1       -1 0.27118649E+00 0.27065164E+04</pdfrwt>
<totfact> 0.62516720E-01</totfact>
</mgrwt>
</event>
<event>
 6    1  0.1614874E-005  0.2006944E+04  0.7818608E-02  0.8603381E-01
         -1   -1    0    0    0  501 -0.00000000000E+00  0.00000000000E+00  0.31719654491E+03  0.31719654491E+03  0.00000000000E+00 0.  1.
          1   -1    0    0  501    0  0.00000000000E+00 -0.00000000000E+00 -0.31745485271E+04  0.31745485271E+04  0.00000000000E+00 0. -1.
         23    2    1    2    0    0  0.49901037618E+03 -0.57577321583E+03 -0.30109145830E+03  0.82435045973E+03  0.91495697120E+02 0.  0.
         13    1    3    3    0    0  0.12329363796E+02 -0.25712844848E+02  0.44766425794E+01  0.28865272050E+02  0.00000000000E+00 0.  1.
        -13    1    3    3    0    0  0.48668101239E+03 -0.55006037098E+03 -0.30556810088E+03  0.79548518768E+03  0.00000000000E+00 0. -1.
         22    1    1    2    0    0 -0.49901037618E+03  0.57577321583E+03 -0.25562605239E+04  0.26673946123E+04  0.00000000000E+00 0. -1.
<mgrwt>
<rscale>  0 0.20069438E+04</rscale>
<asrwt>0</asrwt>
<pdfrwt beam="1">  1        1 0.48839207E+00 0.20069438E+04</pdfrwt>
<pdfrwt beam="2">  1       -1 0.48799470E-01 0.20069438E+04</pdfrwt>
<totfact> 0.17355479E+00</totfact>
</mgrwt>
</event>
<event>
 6    1  0.1614874E-005  0.6394221E+03  0.7818608E-02  0.9826833E-01
          2   -1    0    0  501    0  0.00000000000E+00  0.00000000000E+00  0.54825167828E+03  0.54825167828E+03  0.00000000000E+00 0. -1.
         -2   -1    0    0    0  501 -0.00000000000E+00 -0.00000000000E+00 -0.18643836175E+03  0.18643836175E+03  0.00000000000E+00 0.  1.
         23    2    1    2    0    0 -0.90089627343E+02 -0.26580470383E+03  0.33808201298E+03  0.45303163647E+03  0.11031742661E+03 0.  0.
         13    1    3    3    0    0 -0.42354065050E+02 -0.16649068308E+03  0.27992049355E+03  0.32843339825E+03  0.00000000000E+00 0. -1.
        -13    1    3    3    0    0 -0.47735562292E+02 -0.99314020749E+02  0.58161519424E+02  0.12459823822E+03  0.00000000000E+00 0.  1.
         22    1    1    2    0    0  0.90089627343E+02  0.26580470383E+03  0.23731303552E+02  0.28165840357E+03  0.00000000000E+00 0. -1.
<mgrwt>
<rscale>  0 0.63942207E+03</rscale>
<asrwt>0</asrwt>
<pdfrwt beam="1">  1        2 0.84346411E-01 0.63942207E+03</pdfrwt>
<pdfrwt beam="2">  1       -2 0.28682825E-01 0.63942207E+03</pdfrwt>
<totfact> 0.61949757E+02</totfact>
</mgrwt>
</event>
<event>
 6    1  0.1938934E-005  0.3732803E+04  0.7818608E-02  0.8060731E-01
          2   -1    0    0  501    0  0.00000000000E+00  0.00000000000E+00  0.24066088049E+04  0.24066088049E+04  0.00000000000E+00 0. -1.
         -2   -1    0    0    0  501 -0.00000000000E+00 -0.00000000000E+00 -0.14474535011E+04  0.14474535011E+04  0.00000000000E+00 0.  1.
         23    2    1    2    0    0 -0.12222435807E+04 -0.98138132628E+03 -0.56415214893E+03  0.16683234667E+04  0.89704315108E+02 0.  0.
         13    1    3    3    0    0 -0.87674604878E+03 -0.74732031948E+03 -0.39204659702E+03  0.12169107725E+04  0.00000000000E+00 0.  1.
        -13    1    3    3    0    0 -0.34549753193E+03 -0.23406100680E+03 -0.17210555191E+03  0.45141269419E+03  0.00000000000E+00 0. -1.
         22    1    1    2    0    0  0.12222435807E+04  0.98138132628E+03  0.15233074527E+04  0.21857388393E+04  0.00000000000E+00 0. -1.
<mgrwt>
<rscale>  0 0.37328029E+04</rscale>
<asrwt>0</asrwt>
<pdfrwt beam="1">  1        2 0.37024751E+00 0.37328029E+04</pdfrwt>
<pdfrwt beam="2">  1       -2 0.22268515E+00 0.37328029E+04</pdfrwt>
<totfact> 0.30198445E-01</totfact>
</mgrwt>
</event>
<event>
 6    1  0.1614874E-005  0.2270178E+04  0.7818608E-02  0.8489773E-01
          1   -1    0    0  501    0  0.00000000000E+00  0.00000000000E+00  0.28218856497E+04  0.28218856497E+04  0.00000000000E+00 0. -1.
         -1   -1    0    0    0  501 -0.00000000000E+00 -0.00000000000E+00 -0.45658386601E+03  0.45658386601E+03  0.00000000000E+00 0.  1.
         23    2    1    2    0    0  0.44354805199E+03 -0.62528392898E+03 -0.20641748965E+02  0.77238862968E+03  0.91887143829E+02 0.  0.
         11    1    3    3    0    0  0.21936699228E+02 -0.14870666488E+02 -0.15106543580E+02  0.30505133236E+02  0.00000000000E+00 0. -1.
        -11    1    3    3    0    0  0.42161135276E+03 -0.61041326249E+03 -0.55352053844E+01  0.74188349645E+03  0.00000000000E+00 0.  1.
         22    1    1    2    0    0 -0.44354805199E+03  0.62528392898E+03  0.23859435326E+04  0.25060808860E+04  0.00000000000E+00 0. -1.
<mgrwt>
<rscale>  0 0.22701784E+04</rscale>
<asrwt>0</asrwt>
<pdfrwt beam="1">  1        1 0.43413624E+00 0.22701784E+04</pdfrwt>
<pdfrwt beam="2">  1       -1 0.70243673E-01 0.22701784E+04</pdfrwt>
<totfact> 0.14928637E+00</totfact>
</mgrwt>
</event>
<event>
 6    1  0.1614874E-005  0.4361008E+04  0.7818608E-02  0.7935432E-01
          1   -1    0    0  501    0  0.00000000000E+00  0.00000000000E+00  0.22468389273E+04  0.22468389273E+04  0.00000000000E+00 0.  1.
         -1   -1    0    0    0  501 -0.00000000000E+00 -0.00000000000E+00 -0.21161273432E+04  0.21161273432E+04  0.00000000000E+00 0. -1.
         23    2    1    2    0    0  0.47079719823E+03 -0.10403136955E+04 -0.17917761743E+04  0.21269292029E+04  0.97279948850E+02 0.  0.
         13    1    3    3    0    0  0.40307903469E+03 -0.87769944628E+03 -0.14463768356E+04  0.17392052716E+04  0.00000000000E+00 0. -1.
        -13    1    3    3    0    0  0.67718163534E+02 -0.16261424918E+03 -0.34539933871E+03  0.38772393128E+03  0.00000000000E+00 0.  1.
         22    1    1    2    0    0 -0.47079719823E+03  0.10403136955E+04  0.19224877584E+04  0.22360370676E+04  0.00000000000E+00 0.  1.
<mgrwt>
<rscale>  0 0.43610078E+04</rscale>
<asrwt>0</asrwt>
<pdfrwt beam="1">  1        1 0.34566753E+00 0.43610078E+04</pdfrwt>
<pdfrwt beam="2">  1       -1 0.32555805E+00 0.43610078E+04</pdfrwt>
<totfact> 0.34621581E-02</totfact>
</mgrwt>
</event>
<event>
 6    1  0.1614874E-005  0.5487988E+03  0.7818608E-02  0.1001772E+00
         -2   -1    0    0    0  501 -0.00000000000E+00  0.00000000000E+00  0.45463130185E+02  0.45463130185E+02  0.00000000000E+00 0.  1.
          2   -1    0    0  501    0  0.00000000000E+00 -0.00000000000E+00 -0.16561779095E+04  0.16561779095E+04  0.00000000000E+00 0. -1.
         23    2    1    2    0    0 -0.25479366255E+02 -0.12828946905E+03 -0.15488904215E+04  0.15569702507E+04  0.89372466987E+02 0.  0.
         13    1    3    3    0    0 -0.52686255388E+02 -0.53057854796E+02 -0.58363115415E+03  0.58840147991E+03  0.00000000000E+00 0. -1.
        -13    1    3    3    0    0  0.27206889133E+02 -0.75231614256E+02 -0.96525926730E+03  0.96856877077E+03  0.00000000000E+00 0.  1.
         22    1    1    2    0    0  0.25479366255E+02  0.12828946905E+03 -0.61824357908E+02  0.14467078905E+03  0.00000000000E+00 0.  1.
<mgrwt>
<rscale>  0 0.54879880E+03</rscale>
<asrwt>0</asrwt>
<pdfrwt beam="1">  1        2 0.25479656E+00 0.54879880E+03</pdfrwt>
<pdfrwt beam="2">  1       -2 0.69943290E-02 0.54879880E+03</pdfrwt>
<totfact> 0.12949163E+03</totfact>
</mgrwt>
</event>
<event>
 6    1  0.1614874E-005  0.2598844E+04  0.7818608E-02  0.8368594E-01
         -3   -1    0    0    0  501 -0.00000000000E+00  0.00000000000E+00  0.11502224058E+04  0.11502224058E+04  0.00000000000E+00 0.  1.
          3   -1    0    0  501    0  0.00000000000E+00 -0.00000000000E+00 -0.14679747499E+04  0.14679747499E+04  0.00000000000E+00 0. -1.
         23    2    1    2    0    0 -0.77641316615E+03 -0.17156634438E+03 -0.11924232705E+04  0.14361220123E+04  0.91218216755E+02 0.  0.
         13    1    3    3    0    0 -0.31064058804E+03 -0.46625295026E+02 -0.54169298195E+03  0.62618110781E+03  0.00000000000E+00 0. -1.
        -13    1    3    3    0    0 -0.46577257811E+03 -0.12494104935E+03 -0.65073028859E+03  0.80994090452E+03  0.00000000000E+00 0.  1.
         22    1    1    2    0    0  0.77641316615E+03  0.17156634438E+03  0.87467092641E+03  0.11820751434E+04  0.00000000000E+00 0.  1.
<mgrwt>
<rscale>  0 0.25988439E+04</rscale>
<asrwt>0</asrwt>
<pdfrwt beam="1">  1        3 0.22584227E+00 0.25988439E+04</pdfrwt>
<pdfrwt beam="2">  1       -3 0.17695729E+00 0.25988439E+04</pdfrwt>
<totfact> 0.48808131E-02</totfact>
</mgrwt>
</event>
<event>
 6    1  0.1614874E-005  0.4749136E+04  0.7818608E-02  0.7868415E-01
          2   -1    0    0  501    0  0.00000000000E+00  0.00000000000E+00  0.34756802687E+04  0.34756802687E+04  0.00000000000E+00 0. -1.
         -2   -1    0    0    0  501 -0.00000000000E+00 -0.00000000000E+00 -0.16222930970E+04  0.16222930970E+04  0.00000000000E+00 0.  1.
         23    2    1    2    0    0  0.96434877466E+03 -0.17895653489E+04 -0.38854513651E+03  0.20716268601E+04  0.90320691978E+02 0.  0.
         11    1    3    3    0    0  0.60378878500E+03 -0.11010562627E+04 -0.28360880976E+03  0.12873693128E+04  0.00000000000E+00 0. -1.
        -11    1    3    3    0    0  0.36055998966E+03 -0.68850908619E+03 -0.10493632676E+03  0.78425754736E+03  0.00000000000E+00 0.  1.
         22    1    1    2    0    0 -0.96434877466E+03  0.17895653489E+04  0.22419323083E+04  0.30263465056E+04  0.00000000000E+00 0. -1.
<mgrwt>
<rscale>  0 0.47491355E+04</rscale>
<asrwt>0</asrwt>
<pdfrwt beam="1">  1        2 0.53472004E+00 0.47491355E+04</pdfrwt>
<pdfrwt beam="2">  1       -2 0.24958355E+00 0.47491355E+04</pdfrwt>
<totfact> 0.40510042E-02</totfact>
</mgrwt>
</event>
<event>
 6    1  0.1614874E-005  0.8912029E+03  0.7818608E-02  0.9436646E-01
         -1   -1    0    0    0  501 -0.00000000000E+00  0.00000000000E+00  0.21713891377E+03  0.21713891377E+03  0.00000000000E+00 0.  1.
          1   -1    0    0  501    0  0.00000000000E+00 -0.00000000000E+00 -0.91444058711E+03  0.91444058711E+03  0.00000000000E+00 0. -1.
         23    2    1    2    0    0 -0.18857672716E+03  0.39562316577E+03 -0.29285962340E+03  0.53521363745E+03  0.92779347788E+02 0.  0.
         13    1    3    3    0    0 -0.14463769329E+03  0.32014039892E+03 -0.18697973049E+03  0.39795898903E+03  0.00000000000E+00 0.  1.
        -13    1    3    3    0    0 -0.43939033869E+02  0.75482766850E+02 -0.10587989291E+03  0.13725464842E+03  0.00000000000E+00 0. -1.
         22    1    1    2    0    0  0.18857672716E+03 -0.39562316577E+03 -0.40444204993E+03  0.59636586343E+03  0.00000000000E+00 0. -1.
<mgrwt>
<rscale>  0 0.89120286E+03</rscale>
<asrwt>0</asrwt>
<pdfrwt beam="1">  1        1 0.14068317E+00 0.89120286E+03</pdfrwt>
<pdfrwt beam="2">  1       -1 0.33405987E-01 0.89120286E+03</pdfrwt>
<totfact> 0.15036008E+02</totfact>
</mgrwt>
</event>
<event>
 6    1  0.1614874E-005  0.2727126E+04  0.7818608E-02  0.8326257E-01
          2   -1    0    0  501    0  0.00000000000E+00  0.00000000000E+00  0.10710131065E+04  0.10710131065E+04  0.00000000000E+00 0. -1.
         -2   -1    0    0    0  501 -0.00000000000E+00 -0.00000000000E+00 -0.17360230924E+04  0.17360230924E+04  0.00000000000E+00 0.  1.
         23    2    1    2    0    0 -0.11598862815E+04 -0.70324062748E+03 -0.46071868940E+03  0.14353151995E+04  0.89355722248E+02 0.  0.
         13    1    3    3    0    0 -0.62103758983E+02 -0.53999779694E+02 -0.45453797887E+02  0.94015428676E+02  0.00000000000E+00 0.  1.
        -13    1    3    3    0    0 -0.10977825225E+04 -0.64924084779E+03 -0.41526489152E+03  0.13412997709E+04  0.00000000000E+00 0. -1.
         22    1    1    2    0    0  0.11598862815E+04  0.70324062748E+03 -0.20429129653E+03  0.13717209993E+04  0.00000000000E+00 0.  1.
<mgrwt>
<rscale>  0 0.27271256E+04</rscale>
<asrwt>0</asrwt>
<pdfrwt beam="1">  1        2 0.16477125E+00 0.27271256E+04</pdfrwt>
<pdfrwt beam="2">  1       -2 0.26708047E+00 0.27271256E+04</pdfrwt>
<totfact> 0.10037910E+00</totfact>
</mgrwt>
</event>
<event>
 6    1  0.1614874E-005  0.4133516E+03  0.7818608E-02  0.1039252E+00
          1   -1    0    0  501    0  0.00000000000E+00  0.00000000000E+00  0.35456107662E+03  0.35456107662E+03  0.00000000000E+00 0. -1.
         -1   -1    0    0    0  501 -0.00000000000E+00 -0.00000000000E+00 -0.12047256035E+03  0.12047256035E+03  0.00000000000E+00 0.  1.
         23    2    1    2    0    0 -0.63691683675E+02 -0.32392218357E+02 -0.86846999221E+02  0.14623964146E+03  0.93475906413E+02 0.  0.
         11    1    3    3    0    0  0.19623321334E+02 -0.22353919261E+01 -0.43129592650E+02  0.47436625927E+02  0.00000000000E+00 0. -1.
        -11    1    3    3    0    0 -0.83315005009E+02 -0.30156826430E+02 -0.43717406571E+02  0.98803015528E+02  0.00000000000E+00 0.  1.
         22    1    1    2    0    0  0.63691683675E+02  0.32392218357E+02  0.32093551549E+03  0.32879399551E+03  0.00000000000E+00 0. -1.
<mgrwt>
<rscale>  0 0.41335157E+03</rscale>
<asrwt>0</asrwt>
<pdfrwt beam="1">  1        1 0.54547857E-01 0.41335157E+03</pdfrwt>
<pdfrwt beam="2">  1       -1 0.18534240E-01 0.41335157E+03</pdfrwt>
<totfact> 0.16242599E+03</totfact>
</mgrwt>
</event>
<event>
 6    1  0.1614874E-005  0.1313650E+04  0.7818608E-02  0.9018810E-01
         -2   -1    0    0    0  501 -0.00000000000E+00  0.00000000000E+00  0.53662858171E+03  0.53662858171E+03  0.00000000000E+00 0.  1.
          2   -1    0    0  501    0  0.00000000000E+00 -0.00000000000E+00 -0.80394399663E+03  0.80394399663E+03  0.00000000000E+00 0. -1.
         23    2    1    2    0    0 -0.32523962506E+03 -0.26707698617E+03  0.37653222310E+03  0.57138423260E+03  0.87134929713E+02 0.  0.
         13    1    3    3    0    0 -0.23806697759E+03 -0.14163770143E+03  0.24347260788E+03  0.36880351825E+03  0.00000000000E+00 0. -1.
        -13    1    3    3    0    0 -0.87172647471E+02 -0.12543928474E+03  0.13305961522E+03  0.20258071434E+03  0.00000000000E+00 0.  1.
         22    1    1    2    0    0  0.32523962506E+03  0.26707698617E+03 -0.64384763802E+03  0.76918834575E+03  0.00000000000E+00 0. -1.
<mgrwt>
<rscale>  0 0.13136504E+04</rscale>
<asrwt>0</asrwt>
<pdfrwt beam="1">  1        2 0.12368369E+00 0.13136504E+04</pdfrwt>
<pdfrwt beam="2">  1       -2 0.82558243E-01 0.13136504E+04</pdfrwt>
<totfact> 0.43159870E+01</totfact>
</mgrwt>
</event>
<event>
 6    1  0.1614874E-005  0.2373079E+04  0.7818608E-02  0.8449652E-01
         -1   -1    0    0    0  501 -0.00000000000E+00  0.00000000000E+00  0.55637094127E+03  0.55637094127E+03  0.00000000000E+00 0.  1.
          1   -1    0    0  501    0  0.00000000000E+00 -0.00000000000E+00 -0.25304631364E+04  0.25304631364E+04  0.00000000000E+00 0. -1.
         23    2    1    2    0    0 -0.44413225550E+03 -0.54974022792E+03 -0.22254714746E+04  0.23367278714E+04  0.90033784740E+02 0.  0.
         13    1    3    3    0    0 -0.39507866159E+03 -0.50021816633E+03 -0.19067340742E+04  0.20104577072E+04  0.00000000000E+00 0. -1.
        -13    1    3    3    0    0 -0.49053593909E+02 -0.49522061589E+02 -0.31873740041E+03  0.32627016425E+03  0.00000000000E+00 0.  1.
         22    1    1    2    0    0  0.44413225550E+03  0.54974022792E+03  0.25137927942E+03  0.75010620627E+03  0.00000000000E+00 0.  1.
<mgrwt>
<rscale>  0 0.23730791E+04</rscale>
<asrwt>0</asrwt>
<pdfrwt beam="1">  1        1 0.38930202E+00 0.23730791E+04</pdfrwt>
<pdfrwt beam="2">  1       -1 0.85595530E-01 0.23730791E+04</pdfrwt>
<totfact> 0.15624891E+00</totfact>
</mgrwt>
</event>
<event>
 6    1  0.1614874E-005  0.1748015E+04  0.7818608E-02  0.8734443E-01
          2   -1    0    0  501    0  0.00000000000E+00  0.00000000000E+00  0.42834754608E+04  0.42834754608E+04  0.00000000000E+00 0.  1.
         -2   -1    0    0    0  501 -0.00000000000E+00 -0.00000000000E+00 -0.17833405312E+03  0.17833405312E+03  0.00000000000E+00 0. -1.
         23    2    1    2    0    0 -0.34189737524E+03 -0.78581904646E+03  0.24634948810E+04  0.26099432371E+04  0.92689172770E+02 0.  0.
         11    1    3    3    0    0 -0.21883297206E+03 -0.42756365637E+03  0.12708684789E+04  0.13586041515E+04  0.00000000000E+00 0. -1.
        -11    1    3    3    0    0 -0.12306440319E+03 -0.35825539009E+03  0.11926264022E+04  0.12513390855E+04  0.00000000000E+00 0.  1.
         22    1    1    2    0    0  0.34189737524E+03  0.78581904646E+03  0.16416465266E+04  0.18518662769E+04  0.00000000000E+00 0. -1.
<mgrwt>
<rscale>  0 0.17480155E+04</rscale>
<asrwt>0</asrwt>
<pdfrwt beam="1">  1        2 0.65899615E+00 0.17480155E+04</pdfrwt>
<pdfrwt beam="2">  1       -2 0.27436011E-01 0.17480155E+04</pdfrwt>
<totfact> 0.22987969E+00</totfact>
</mgrwt>
</event>
<event>
 6    1  0.1614874E-005  0.1467297E+04  0.7818608E-02  0.8906496E-01
          2   -1    0    0  501    0  0.00000000000E+00  0.00000000000E+00  0.46914093390E+03  0.46914093390E+03  0.00000000000E+00 0. -1.
         -2   -1    0    0    0  501 -0.00000000000E+00 -0.00000000000E+00 -0.11472882750E+04  0.11472882750E+04  0.00000000000E+00 0.  1.
         23    2    1    2    0    0 -0.55220121271E+03  0.38836919886E+03 -0.32455194649E+02  0.68225836697E+03  0.93093102365E+02 0.  0.
         11    1    3    3    0    0 -0.16147836189E+03  0.15908308328E+03  0.12376934568E+02  0.22701514763E+03  0.00000000000E+00 0.  1.
        -11    1    3    3    0    0 -0.39072285082E+03  0.22928611558E+03 -0.44832129217E+02  0.45524321934E+03  0.00000000000E+00 0. -1.
         22    1    1    2    0    0  0.55220121271E+03 -0.38836919886E+03 -0.64569214650E+03  0.93417084197E+03  0.00000000000E+00 0. -1.
<mgrwt>
<rscale>  0 0.14672967E+04</rscale>
<asrwt>0</asrwt>
<pdfrwt beam="1">  1        2 0.72175529E-01 0.14672967E+04</pdfrwt>
<pdfrwt beam="2">  1       -2 0.17650589E+00 0.14672967E+04</pdfrwt>
<totfact> 0.12299446E+01</totfact>
</mgrwt>
</event>
<event>
 6    1  0.1793786E-005  0.3373399E+04  0.7818608E-02  0.8144466E-01
          2   -1    0    0  501    0  0.00000000000E+00  0.00000000000E+00  0.17649151170E+04  0.17649151170E+04  0.00000000000E+00 0.  1.
         -2   -1    0    0    0  501 -0.00000000000E+00 -0.00000000000E+00 -0.16119500338E+04  0.16119500338E+04  0.00000000000E+00 0. -1.
         23    2    1    2    0    0 -0.47969497511E+03  0.15758873140E+04  0.43401503141E+03  0.17057825170E+04  0.88299785670E+02 0.  0.
         11    1    3    3    0    0 -0.17411156149E+03  0.71941951874E+03  0.20431532534E+03  0.76786980144E+03  0.00000000000E+00 0. -1.
        -11    1    3    3    0    0 -0.30558341363E+03  0.85646779529E+03  0.22969970607E+03  0.93791271557E+03  0.00000000000E+00 0.  1.
         22    1    1    2    0    0  0.47969497511E+03 -0.15758873140E+04 -0.28104994814E+03  0.16710826338E+04  0.00000000000E+00 0.  1.
<mgrwt>
<rscale>  0 0.33733989E+04</rscale>
<asrwt>0</asrwt>
<pdfrwt beam="1">  1        2 0.27152540E+00 0.33733989E+04</pdfrwt>
<pdfrwt beam="2">  1       -2 0.24799231E+00 0.33733989E+04</pdfrwt>
<totfact> 0.49542378E-01</totfact>
</mgrwt>
</event>
<event>
 6    1  0.1614874E-005  0.8023894E+03  0.7818608E-02  0.9556565E-01
         -2   -1    0    0    0  501 -0.00000000000E+00  0.00000000000E+00  0.16415275938E+03  0.16415275938E+03  0.00000000000E+00 0.  1.
          2   -1    0    0  501    0  0.00000000000E+00 -0.00000000000E+00 -0.98053284690E+03  0.98053284690E+03  0.00000000000E+00 0. -1.
         23    2    1    2    0    0  0.37749065002E+03  0.64057376417E+02 -0.55787247825E+03  0.68270214080E+03  0.90873388558E+02 0.  0.
         13    1    3    3    0    0  0.20238688304E+03  0.79620102821E+02 -0.29651797240E+03  0.36772641890E+03  0.00000000000E+00 0. -1.
        -13    1    3    3    0    0  0.17510376698E+03 -0.15562726404E+02 -0.26135450585E+03  0.31497572191E+03  0.00000000000E+00 0.  1.
         22    1    1    2    0    0 -0.37749065002E+03 -0.64057376417E+02 -0.25850760927E+03  0.46198346548E+03  0.00000000000E+00 0.  1.
<mgrwt>
<rscale>  0 0.80238936E+03</rscale>
<asrwt>0</asrwt>
<pdfrwt beam="1">  1        2 0.15085120E+00 0.80238936E+03</pdfrwt>
<pdfrwt beam="2">  1       -2 0.25254271E-01 0.80238936E+03</pdfrwt>
<totfact> 0.36656658E+02</totfact>
</mgrwt>
</event>
<event>
 6    1  0.1614874E-005  0.1624003E+04  0.7818608E-02  0.8805936E-01
          2   -1    0    0  501    0  0.00000000000E+00  0.00000000000E+00  0.10569943948E+04  0.10569943948E+04  0.00000000000E+00 0. -1.
         -2   -1    0    0    0  501 -0.00000000000E+00 -0.00000000000E+00 -0.62379344062E+03  0.62379344062E+03  0.00000000000E+00 0.  1.
         23    2    1    2    0    0  0.36753057508E+02  0.21636178798E+03 -0.58924562546E+03  0.63505353898E+03  0.88990896833E+02 0.  0.
         13    1    3    3    0    0 -0.10789383771E+02  0.71052427280E+02 -0.29296361583E+03  0.30164969488E+03  0.00000000000E+00 0. -1.
        -13    1    3    3    0    0  0.47542441279E+02  0.14530936070E+03 -0.29628200964E+03  0.33340384410E+03  0.00000000000E+00 0.  1.
         22    1    1    2    0    0 -0.36753057508E+02 -0.21636178798E+03  0.10224465796E+04  0.10457342964E+04  0.00000000000E+00 0. -1.
<mgrwt>
<rscale>  0 0.16240027E+04</rscale>
<asrwt>0</asrwt>
<pdfrwt beam="1">  1        2 0.16261452E+00 0.16240027E+04</pdfrwt>
<pdfrwt beam="2">  1       -2 0.95968222E-01 0.16240027E+04</pdfrwt>
<totfact> 0.20190776E+01</totfact>
</mgrwt>
</event>
<event>
 6    1  0.1614874E-005  0.1437615E+04  0.7818608E-02  0.8927032E-01
          3   -1    0    0  501    0  0.00000000000E+00  0.00000000000E+00  0.35300546754E+03  0.35300546754E+03  0.00000000000E+00 0. -1.
         -3   -1    0    0    0  501 -0.00000000000E+00 -0.00000000000E+00 -0.14636720486E+04  0.14636720486E+04  0.00000000000E+00 0.  1.
         23    2    1    2    0    0  0.59134159848E+03 -0.40265928028E+03 -0.59857261150E+03  0.93687093753E+03  0.87284593511E+02 0.  0.
         13    1    3    3    0    0  0.33210053278E+03 -0.27750527565E+03 -0.36577235134E+03  0.56664746968E+03  0.00000000000E+00 0.  1.
        -13    1    3    3    0    0  0.25924106569E+03 -0.12515400463E+03 -0.23280026016E+03  0.37022346785E+03  0.00000000000E+00 0. -1.
         22    1    1    2    0    0 -0.59134159848E+03  0.40265928028E+03 -0.51209396955E+03  0.87980657859E+03  0.00000000000E+00 0. -1.
<mgrwt>
<rscale>  0 0.14376150E+04</rscale>
<asrwt>0</asrwt>
<pdfrwt beam="1">  1        3 0.54308535E-01 0.14376150E+04</pdfrwt>
<pdfrwt beam="2">  1       -3 0.22518031E+00 0.14376150E+04</pdfrwt>
<totfact> 0.87255930E-01</totfact>
</mgrwt>
</event>
<event>
 6    1  0.1614874E-005  0.1120445E+04  0.7818608E-02  0.9185490E-01
          1   -1    0    0  501    0  0.00000000000E+00  0.00000000000E+00  0.39145435446E+04  0.39145435446E+04  0.00000000000E+00 0. -1.
         -1   -1    0    0    0  501 -0.00000000000E+00 -0.00000000000E+00 -0.80175226012E+02  0.80175226012E+02  0.00000000000E+00 0.  1.
         23    2    1    2    0    0  0.44367188489E+03  0.13135663446E+02  0.31264761358E+04  0.31591778503E+04  0.92381680496E+02 0.  0.
         13    1    3    3    0    0  0.28294545333E+03 -0.31934188180E+02  0.21002950389E+04  0.21195087102E+04  0.00000000000E+00 0.  1.
        -13    1    3    3    0    0  0.16072643156E+03  0.45069851626E+02  0.10261810969E+04  0.10396691402E+04  0.00000000000E+00 0. -1.
         22    1    1    2    0    0 -0.44367188489E+03 -0.13135663446E+02  0.70789218280E+03  0.83554092034E+03  0.00000000000E+00 0.  1.
<mgrwt>
<rscale>  0 0.11204453E+04</rscale>
<asrwt>0</asrwt>
<pdfrwt beam="1">  1        1 0.60223732E+00 0.11204453E+04</pdfrwt>
<pdfrwt beam="2">  1       -1 0.12334653E-01 0.11204453E+04</pdfrwt>
<totfact> 0.53149309E+00</totfact>
</mgrwt>
</event>
<event>
 6    1  0.1614874E-005  0.2014060E+04  0.7818608E-02  0.8600075E-01
          1   -1    0    0  501    0  0.00000000000E+00  0.00000000000E+00  0.13071435609E+04  0.13071435609E+04  0.00000000000E+00 0. -1.
         -1   -1    0    0    0  501 -0.00000000000E+00 -0.00000000000E+00 -0.77582134164E+03  0.77582134164E+03  0.00000000000E+00 0.  1.
         23    2    1    2    0    0  0.89630669591E+03 -0.14595298310E+03 -0.17902553232E+03  0.93002869676E+03  0.90748383766E+02 0.  0.
         11    1    3    3    0    0  0.48155683197E+03 -0.10753478849E+03 -0.61465256085E+02  0.49723102363E+03  0.00000000000E+00 0.  1.
        -11    1    3    3    0    0  0.41474986394E+03 -0.38418194609E+02 -0.11756027624E+03  0.43279767313E+03  0.00000000000E+00 0. -1.
         22    1    1    2    0    0 -0.89630669591E+03  0.14595298310E+03  0.71034775158E+03  0.11529362058E+04  0.00000000000E+00 0. -1.
<mgrwt>
<rscale>  0 0.20140604E+04</rscale>
<asrwt>0</asrwt>
<pdfrwt beam="1">  1        1 0.20109901E+00 0.20140604E+04</pdfrwt>
<pdfrwt beam="2">  1       -1 0.11935713E+00 0.20140604E+04</pdfrwt>
<totfact> 0.51961585E+00</totfact>
</mgrwt>
</event>
<event>
 6    1  0.1614874E-005  0.3838611E+04  0.7818608E-02  0.8037919E-01
          2   -1    0    0  501    0  0.00000000000E+00  0.00000000000E+00  0.15921404173E+04  0.15921404173E+04  0.00000000000E+00 0. -1.
         -2   -1    0    0    0  501 -0.00000000000E+00 -0.00000000000E+00 -0.23136994493E+04  0.23136994493E+04  0.00000000000E+00 0.  1.
         23    2    1    2    0    0  0.74663144188E+03 -0.17602388374E+04 -0.51745371215E+03  0.19829362662E+04  0.91534784460E+02 0.  0.
         11    1    3    3    0    0  0.47209869805E+03 -0.10938732180E+04 -0.27697782455E+03  0.12231731329E+04  0.00000000000E+00 0. -1.
        -11    1    3    3    0    0  0.27453274382E+03 -0.66636561940E+03 -0.24047588760E+03  0.75976313327E+03  0.00000000000E+00 0.  1.
         22    1    1    2    0    0 -0.74663144188E+03  0.17602388374E+04 -0.20410531984E+03  0.19229036004E+04  0.00000000000E+00 0.  1.
<mgrwt>
<rscale>  0 0.38386114E+04</rscale>
<asrwt>0</asrwt>
<pdfrwt beam="1">  1        2 0.24494468E+00 0.38386114E+04</pdfrwt>
<pdfrwt beam="2">  1       -2 0.35595376E+00 0.38386114E+04</pdfrwt>
<totfact> 0.12841433E-01</totfact>
</mgrwt>
</event>
<event>
 6    1  0.1614874E-005  0.7270338E+03  0.7818608E-02  0.9672086E-01
          3   -1    0    0  501    0  0.00000000000E+00  0.00000000000E+00  0.19812893912E+03  0.19812893912E+03  0.00000000000E+00 0. -1.
         -3   -1    0    0    0  501 -0.00000000000E+00 -0.00000000000E+00 -0.66696231104E+03  0.66696231104E+03  0.00000000000E+00 0.  1.
         23    2    1    2    0    0 -0.14381430590E+03 -0.26108046510E+03 -0.68045091979E+00  0.31010231218E+03  0.85541902998E+02 0.  0.
         11    1    3    3    0    0 -0.10947971271E+03 -0.11283537959E+03  0.10168050751E+02  0.15754688076E+03  0.00000000000E+00 0.  1.
        -11    1    3    3    0    0 -0.34334593197E+02 -0.14824508551E+03 -0.10848501671E+02  0.15255543142E+03  0.00000000000E+00 0. -1.
         22    1    1    2    0    0  0.14381430590E+03  0.26108046510E+03 -0.46815292100E+03  0.55498893798E+03  0.00000000000E+00 0.  1.
<mgrwt>
<rscale>  0 0.72703380E+03</rscale>
<asrwt>0</asrwt>
<pdfrwt beam="1">  1        3 0.30481375E-01 0.72703380E+03</pdfrwt>
<pdfrwt beam="2">  1       -3 0.10260959E+00 0.72703380E+03</pdfrwt>
<totfact> 0.22810003E+01</totfact>
</mgrwt>
</event>
<event>
 6    1  0.1614874E-005  0.4503510E+04  0.7818608E-02  0.7910023E-01
         -2   -1    0    0    0  501 -0.00000000000E+00  0.00000000000E+00  0.20239168305E+04  0.20239168305E+04  0.00000000000E+00 0.  1.
          2   -1    0    0  501    0  0.00000000000E+00 -0.00000000000E+00 -0.25052420311E+04  0.25052420311E+04  0.00000000000E+00 0. -1.
         23    2    1    2    0    0 -0.17768209994E+04  0.71435133455E+03  0.94865494533E+03  0.21391308469E+04  0.92433121515E+02 0.  0.
         13    1    3    3    0    0 -0.40140564266E+03  0.12570472831E+03  0.18696457160E+03  0.46030850493E+03  0.00000000000E+00 0.  1.
        -13    1    3    3    0    0 -0.13754153567E+04  0.58864660625E+03  0.76169037373E+03  0.16788223420E+04  0.00000000000E+00 0. -1.
         22    1    1    2    0    0  0.17768209994E+04 -0.71435133455E+03 -0.14299801460E+04  0.23900280147E+04  0.00000000000E+00 0. -1.
<mgrwt>
<rscale>  0 0.45035104E+04</rscale>
<asrwt>0</asrwt>
<pdfrwt beam="1">  1        2 0.38542185E+00 0.45035104E+04</pdfrwt>
<pdfrwt beam="2">  1       -2 0.31137182E+00 0.45035104E+04</pdfrwt>
<totfact> 0.70868113E-02</totfact>
</mgrwt>
</event>
<event>
 6    1  0.1614874E-005  0.4253951E+04  0.7818608E-02  0.7955188E-01
         -1   -1    0    0    0  501 -0.00000000000E+00  0.00000000000E+00  0.31933644721E+04  0.31933644721E+04  0.00000000000E+00 0.  1.
          1   -1    0    0  501    0  0.00000000000E+00 -0.00000000000E+00 -0.14166953725E+04  0.14166953725E+04  0.00000000000E+00 0. -1.
         23    2    1    2    0    0 -0.22641373600E+03 -0.92277090887E+03 -0.11722871297E+04  0.15118164435E+04  0.92533854491E+02 0.  0.
         11    1    3    3    0    0 -0.60666151648E+02 -0.34691312010E+03 -0.49490867788E+03  0.60742381769E+03  0.00000000000E+00 0. -1.
        -11    1    3    3    0    0 -0.16574758435E+03 -0.57585778878E+03 -0.67737845179E+03  0.90439262578E+03  0.00000000000E+00 0.  1.
         22    1    1    2    0    0  0.22641373600E+03  0.92277090887E+03  0.29489562293E+04  0.30982434011E+04  0.00000000000E+00 0.  1.
<mgrwt>
<rscale>  0 0.42539509E+04</rscale>
<asrwt>0</asrwt>
<pdfrwt beam="1">  1        1 0.21795314E+00 0.42539509E+04</pdfrwt>
<pdfrwt beam="2">  1       -1 0.49128684E+00 0.42539509E+04</pdfrwt>
<totfact> 0.97567982E-03</totfact>
</mgrwt>
</event>
<event>
 6    1  0.1614874E-005  0.2490841E+04  0.7818608E-02  0.8406256E-01
         -2   -1    0    0    0  501 -0.00000000000E+00  0.00000000000E+00  0.76490260822E+03  0.76490260822E+03  0.00000000000E+00 0.  1.
          2   -1    0    0  501    0  0.00000000000E+00 -0.00000000000E+00 -0.20278042213E+04  0.20278042213E+04  0.00000000000E+00 0. -1.
         23    2    1    2    0    0  0.77619662019E+03  0.22432293322E+03  0.42701443012E+03  0.91957624021E+03  0.10235803080E+03 0.  0.
         11    1    3    3    0    0  0.40451529638E+03  0.64798557098E+02  0.20285263045E+03  0.45714403386E+03  0.00000000000E+00 0.  1.
        -11    1    3    3    0    0  0.37168132381E+03  0.15952437612E+03  0.22416179967E+03  0.46243220635E+03  0.00000000000E+00 0. -1.
         22    1    1    2    0    0 -0.77619662019E+03 -0.22432293322E+03 -0.16899160432E+04  0.18731305893E+04  0.00000000000E+00 0. -1.
<mgrwt>
<rscale>  0 0.24908414E+04</rscale>
<asrwt>0</asrwt>
<pdfrwt beam="1">  1        2 0.31196988E+00 0.24908414E+04</pdfrwt>
<pdfrwt beam="2">  1       -2 0.11767732E+00 0.24908414E+04</pdfrwt>
<totfact> 0.32070672E+00</totfact>
</mgrwt>
</event>
<event>
 6    1  0.1614874E-005  0.2810484E+04  0.7818608E-02  0.8300021E-01
          1   -1    0    0  501    0  0.00000000000E+00  0.00000000000E+00  0.24540739527E+04  0.24540739527E+04  0.00000000000E+00 0. -1.
         -1   -1    0    0    0  501 -0.00000000000E+00 -0.00000000000E+00 -0.80466415669E+03  0.80466415669E+03  0.00000000000E+00 0.  1.
         23    2    1    2    0    0  0.90997453658E+03  0.10079474544E+04  0.12380373654E+04  0.18398515725E+04  0.91134859003E+02 0.  0.
         11    1    3    3    0    0  0.14744868453E+03  0.15894949889E+03  0.24457432046E+03  0.32683735404E+03  0.00000000000E+00 0. -1.
        -11    1    3    3    0    0  0.76252585205E+03  0.84899795550E+03  0.99346304498E+03  0.15130142185E+04  0.00000000000E+00 0.  1.
         22    1    1    2    0    0 -0.90997453658E+03 -0.10079474544E+04  0.41137243059E+03  0.14188865369E+04  0.00000000000E+00 0.  1.
<mgrwt>
<rscale>  0 0.28104842E+04</rscale>
<asrwt>0</asrwt>
<pdfrwt beam="1">  1        1 0.37754983E+00 0.28104842E+04</pdfrwt>
<pdfrwt beam="2">  1       -1 0.12379449E+00 0.28104842E+04</pdfrwt>
<totfact> 0.72256411E-01</totfact>
</mgrwt>
</event>
<event>
 6    1  0.1614874E-005  0.1055745E+04  0.7818608E-02  0.9249433E-01
         -2   -1    0    0    0  501 -0.00000000000E+00  0.00000000000E+00  0.22701230875E+03  0.22701230875E+03  0.00000000000E+00 0.  1.
          2   -1    0    0  501    0  0.00000000000E+00 -0.00000000000E+00 -0.12274638849E+04  0.12274638849E+04  0.00000000000E+00 0. -1.
         23    2    1    2    0    0 -0.27988604950E+03 -0.28938193446E+03 -0.96657619927E+03  0.10504642559E+04  0.84424517493E+02 0.  0.
         11    1    3    3    0    0 -0.10117417388E+03 -0.13838121983E+03 -0.32282387261E+03  0.36551447056E+03  0.00000000000E+00 0.  1.
        -11    1    3    3    0    0 -0.17871187561E+03 -0.15100071463E+03 -0.64375232666E+03  0.68494978530E+03  0.00000000000E+00 0. -1.
         22    1    1    2    0    0  0.27988604950E+03  0.28938193446E+03 -0.33875376850E+02  0.40401193776E+03  0.00000000000E+00 0.  1.
<mgrwt>
<rscale>  0 0.10557451E+04</rscale>
<asrwt>0</asrwt>
<pdfrwt beam="1">  1        2 0.18884060E+00 0.10557451E+04</pdfrwt>
<pdfrwt beam="2">  1       -2 0.34924971E-01 0.10557451E+04</pdfrwt>
<totfact> 0.13950468E+02</totfact>
</mgrwt>
</event>
<event>
 6    1  0.1614874E-005  0.9509282E+03  0.7818608E-02  0.9364066E-01
          1   -1    0    0  501    0  0.00000000000E+00  0.00000000000E+00  0.79450104253E+03  0.79450104253E+03  0.00000000000E+00 0. -1.
         -1   -1    0    0    0  501 -0.00000000000E+00 -0.00000000000E+00 -0.28453849889E+03  0.28453849889E+03  0.00000000000E+00 0.  1.
         23    2    1    2    0    0  0.23847645839E+02 -0.30397372516E+03  0.66477600214E+03  0.73708056327E+03  0.91607248205E+02 0.  0.
         13    1    3    3    0    0  0.45888782407E+02 -0.24339723759E+03  0.57924506573E+03  0.62997844549E+03  0.00000000000E+00 0. -1.
        -13    1    3    3    0    0 -0.22041136567E+02 -0.60576487577E+02  0.85530936414E+02  0.10710211778E+03  0.00000000000E+00 0.  1.
         22    1    1    2    0    0 -0.23847645839E+02  0.30397372516E+03 -0.15481345850E+03  0.34195897815E+03  0.00000000000E+00 0.  1.
<mgrwt>
<rscale>  0 0.95092825E+03</rscale>
<asrwt>0</asrwt>
<pdfrwt beam="1">  1        1 0.12223093E+00 0.95092825E+03</pdfrwt>
<pdfrwt beam="2">  1       -1 0.43775154E-01 0.95092825E+03</pdfrwt>
<totfact> 0.11579561E+02</totfact>
</mgrwt>
</event>
<event>
 6    1  0.1614874E-005  0.1919018E+04  0.7818608E-02  0.8645447E-01
         -2   -1    0    0    0  501 -0.00000000000E+00  0.00000000000E+00  0.61086753825E+03  0.61086753825E+03  0.00000000000E+00 0.  1.
          2   -1    0    0  501    0  0.00000000000E+00 -0.00000000000E+00 -0.15071311783E+04  0.15071311783E+04  0.00000000000E+00 0. -1.
         23    2    1    2    0    0  0.41351775032E+03 -0.75653615219E+03 -0.90846048825E+03  0.12557385224E+04  0.90746341300E+02 0.  0.
         11    1    3    3    0    0  0.23800058810E+03 -0.50696106981E+03 -0.62591488863E+03  0.83989478749E+03  0.00000000000E+00 0.  1.
        -11    1    3    3    0    0  0.17551716222E+03 -0.24957508238E+03 -0.28254559962E+03  0.41584373489E+03  0.00000000000E+00 0. -1.
         22    1    1    2    0    0 -0.41351775032E+03  0.75653615219E+03  0.12196848174E+02  0.86226019420E+03  0.00000000000E+00 0.  1.
<mgrwt>
<rscale>  0 0.19190180E+04</rscale>
<asrwt>0</asrwt>
<pdfrwt beam="1">  1        2 0.23186634E+00 0.19190180E+04</pdfrwt>
<pdfrwt beam="2">  1       -2 0.93979620E-01 0.19190180E+04</pdfrwt>
<totfact> 0.11242083E+01</totfact>
</mgrwt>
</event>
<event>
 6    1  0.1614874E-005  0.1553547E+04  0.7818608E-02  0.8849606E-01
          2   -1    0    0  501    0  0.00000000000E+00  0.00000000000E+00  0.38363889808E+04  0.38363889808E+04  0.00000000000E+00 0. -1.
         -2   -1    0    0    0  501 -0.00000000000E+00 -0.00000000000E+00 -0.15727725615E+03  0.15727725615E+03  0.00000000000E+00 0.  1.
         23    2    1    2    0    0 -0.60000436810E+03  0.45720003447E+03  0.13998471431E+04  0.15928155239E+04  0.91935608453E+02 0.  0.
         11    1    3    3    0    0 -0.24413725104E+03  0.21577633486E+03  0.68599994518E+03  0.75944608026E+03  0.00000000000E+00 0. -1.
        -11    1    3    3    0    0 -0.35586711706E+03  0.24142369962E+03  0.71384719789E+03  0.83336944369E+03  0.00000000000E+00 0.  1.
         22    1    1    2    0    0  0.60000436810E+03 -0.45720003447E+03  0.22792645816E+04  0.24008507130E+04  0.00000000000E+00 0.  1.
<mgrwt>
<rscale>  0 0.15535466E+04</rscale>
<asrwt>0</asrwt>
<pdfrwt beam="1">  1        2 0.59021362E+00 0.15535466E+04</pdfrwt>
<pdfrwt beam="2">  1       -2 0.24196504E-01 0.15535466E+04</pdfrwt>
<totfact> 0.68731420E+00</totfact>
</mgrwt>
</event>
<event>
 6    1  0.1614874E-005  0.2182187E+04  0.7818608E-02  0.8525879E-01
         -2   -1    0    0    0  501 -0.00000000000E+00  0.00000000000E+00  0.88913493684E+03  0.88913493684E+03  0.00000000000E+00 0.  1.
          2   -1    0    0  501    0  0.00000000000E+00 -0.00000000000E+00 -0.13389245958E+04  0.13389245958E+04  0.00000000000E+00 0. -1.
         23    2    1    2    0    0 -0.64779337977E+02  0.10657646473E+04 -0.44463281508E+03  0.11603155375E+04  0.92645346791E+02 0.  0.
         11    1    3    3    0    0  0.19365267815E+02  0.40698299860E+03 -0.15915933360E+03  0.43742641463E+03  0.00000000000E+00 0. -1.
        -11    1    3    3    0    0 -0.84144605793E+02  0.65878164872E+03 -0.28547348148E+03  0.72288912290E+03  0.00000000000E+00 0.  1.
         22    1    1    2    0    0  0.64779337977E+02 -0.10657646473E+04 -0.51568439006E+01  0.10677439951E+04  0.00000000000E+00 0. -1.
<mgrwt>
<rscale>  0 0.21821866E+04</rscale>
<asrwt>0</asrwt>
<pdfrwt beam="1">  1        2 0.20598840E+00 0.21821866E+04</pdfrwt>
<pdfrwt beam="2">  1       -2 0.13678999E+00 0.21821866E+04</pdfrwt>
<totfact> 0.54796027E+00</totfact>
</mgrwt>
</event>
<event>
 6    1  0.1614874E-005  0.2060694E+04  0.7818608E-02  0.8578758E-01
         -1   -1    0    0    0  501 -0.00000000000E+00  0.00000000000E+00  0.46805057714E+03  0.46805057714E+03  0.00000000000E+00 0.  1.
          1   -1    0    0  501    0  0.00000000000E+00 -0.00000000000E+00 -0.22681625790E+04  0.22681625790E+04  0.00000000000E+00 0. -1.
         23    2    1    2    0    0 -0.16348074628E+03 -0.45373099155E+03 -0.21077664750E+04  0.21641563042E+04  0.91078147779E+02 0.  0.
         13    1    3    3    0    0 -0.51545406346E+02 -0.15019451125E+03 -0.51745365951E+03  0.54127036670E+03  0.00000000000E+00 0. -1.
        -13    1    3    3    0    0 -0.11193533993E+03 -0.30353648030E+03 -0.15903128154E+04  0.16228859375E+04  0.00000000000E+00 0.  1.
         22    1    1    2    0    0  0.16348074628E+03  0.45373099155E+03  0.30765447305E+03  0.57205685197E+03  0.00000000000E+00 0.  1.
<mgrwt>
<rscale>  0 0.20606939E+04</rscale>
<asrwt>0</asrwt>
<pdfrwt beam="1">  1        1 0.34894809E+00 0.20606939E+04</pdfrwt>
<pdfrwt beam="2">  1       -1 0.72007782E-01 0.20606939E+04</pdfrwt>
<totfact> 0.35148687E+00</totfact>
</mgrwt>
</event>
<event>
 6    1  0.1614874E-005  0.1653744E+04  0.7818608E-02  0.8788195E-01
         -2   -1    0    0    0  501 -0.00000000000E+00  0.00000000000E+00  0.48234525798E+03  0.48234525798E+03  0.00000000000E+00 0.  1.
          2   -1    0    0  501    0  0.00000000000E+00 -0.00000000000E+00 -0.14174856634E+04  0.14174856634E+04  0.00000000000E+00 0. -1.
         23    2    1    2    0    0 -0.50902100511E+03  0.64573541159E+03 -0.53748296627E+03  0.98648101890E+03  0.90444768684E+02 0.  0.
         13    1    3    3    0    0 -0.13460097838E+03  0.16612472069E+03 -0.18856679496E+03  0.28508293945E+03  0.00000000000E+00 0. -1.
        -13    1    3    3    0    0 -0.37442002674E+03  0.47961069091E+03 -0.34891617131E+03  0.70139807945E+03  0.00000000000E+00 0.  1.
         22    1    1    2    0    0  0.50902100511E+03 -0.64573541159E+03 -0.39765743913E+03  0.91334990246E+03  0.00000000000E+00 0.  1.
<mgrwt>
<rscale>  0 0.16537442E+04</rscale>
<asrwt>0</asrwt>
<pdfrwt beam="1">  1        2 0.21807472E+00 0.16537442E+04</pdfrwt>
<pdfrwt beam="2">  1       -2 0.74206963E-01 0.16537442E+04</pdfrwt>
<totfact> 0.22077900E+01</totfact>
</mgrwt>
</event>
<event>
 6    1  0.1614874E-005  0.2780490E+04  0.7818608E-02  0.8309351E-01
          2   -1    0    0  501    0  0.00000000000E+00  0.00000000000E+00  0.27937616320E+04  0.27937616320E+04  0.00000000000E+00 0. -1.
         -2   -1    0    0    0  501 -0.00000000000E+00 -0.00000000000E+00 -0.69182040087E+03  0.69182040087E+03  0.00000000000E+00 0.  1.
         23    2    1    2    0    0 -0.72416911618E+03 -0.11069243578E+04  0.15821990680E+04  0.20643732661E+04  0.92631788441E+02 0.  0.
         13    1    3    3    0    0 -0.39224823668E+03 -0.52824083101E+03  0.82440410422E+03  0.10547697293E+04  0.00000000000E+00 0. -1.
        -13    1    3    3    0    0 -0.33192087950E+03 -0.57868352676E+03  0.75779496375E+03  0.10096035368E+04  0.00000000000E+00 0.  1.
         22    1    1    2    0    0  0.72416911618E+03  0.11069243578E+04  0.51974216314E+03  0.14212087668E+04  0.00000000000E+00 0.  1.
<mgrwt>
<rscale>  0 0.27804901E+04</rscale>
<asrwt>0</asrwt>
<pdfrwt beam="1">  1        2 0.42980948E+00 0.27804901E+04</pdfrwt>
<pdfrwt beam="2">  1       -2 0.10643391E+00 0.27804901E+04</pdfrwt>
<totfact> 0.14458934E+00</totfact>
</mgrwt>
</event>
<event>
 6    1  0.1614874E-005  0.2843212E+04  0.7818608E-02  0.8289977E-01
          2   -1    0    0  501    0  0.00000000000E+00  0.00000000000E+00  0.15523803175E+04  0.15523803175E+04  0.00000000000E+00 0.  1.
         -2   -1    0    0    0  501 -0.00000000000E+00 -0.00000000000E+00 -0.13018479469E+04  0.13018479469E+04  0.00000000000E+00 0. -1.
         23    2    1    2    0    0  0.39049390324E+03  0.10912591419E+04 -0.69984581396E+03  0.13553784731E+04  0.62726699886E+02 0.  0.
         13    1    3    3    0    0  0.14233333479E+03  0.33607342207E+03 -0.19656766424E+03  0.41453946717E+03  0.00000000000E+00 0. -1.
        -13    1    3    3    0    0  0.24816056845E+03  0.75518571982E+03 -0.50327814972E+03  0.94083900596E+03  0.00000000000E+00 0.  1.
         22    1    1    2    0    0 -0.39049390324E+03 -0.10912591419E+04  0.95037818455E+03  0.14988497913E+04  0.00000000000E+00 0.  1.
<mgrwt>
<rscale>  0 0.28432117E+04</rscale>
<asrwt>0</asrwt>
<pdfrwt beam="1">  1        2 0.23882774E+00 0.28432117E+04</pdfrwt>
<pdfrwt beam="2">  1       -2 0.20028430E+00 0.28432117E+04</pdfrwt>
<totfact> 0.13619469E+00</totfact>
</mgrwt>
</event>
<event>
 6    1  0.1614874E-005  0.9383496E+03  0.7818608E-02  0.9378873E-01
         -2   -1    0    0    0  501 -0.00000000000E+00  0.00000000000E+00  0.17669194252E+03  0.17669194252E+03  0.00000000000E+00 0.  1.
          2   -1    0    0  501    0  0.00000000000E+00 -0.00000000000E+00 -0.12458123711E+04  0.12458123711E+04  0.00000000000E+00 0. -1.
         23    2    1    2    0    0  0.15943915778E+03 -0.25800239040E+03 -0.10735070612E+04  0.11191805245E+04  0.90341338769E+02 0.  0.
         11    1    3    3    0    0  0.11789335479E+03 -0.17176945438E+03 -0.57528064279E+03  0.61184263216E+03  0.00000000000E+00 0.  1.
        -11    1    3    3    0    0  0.41545802990E+02 -0.86232936021E+02 -0.49822641846E+03  0.50733789239E+03  0.00000000000E+00 0. -1.
         22    1    1    2    0    0 -0.15943915778E+03  0.25800239040E+03  0.43866326506E+01  0.30332378910E+03  0.00000000000E+00 0.  1.
<mgrwt>
<rscale>  0 0.93834963E+03</rscale>
<asrwt>0</asrwt>
<pdfrwt beam="1">  1        2 0.19166343E+00 0.93834963E+03</pdfrwt>
<pdfrwt beam="2">  1       -2 0.27183377E-01 0.93834963E+03</pdfrwt>
<totfact> 0.21892130E+02</totfact>
</mgrwt>
</event>
<event>
 6    1  0.1614874E-005  0.3035860E+04  0.7818608E-02  0.8233564E-01
         -2   -1    0    0    0  501 -0.00000000000E+00  0.00000000000E+00  0.68408522809E+03  0.68408522809E+03  0.00000000000E+00 0.  1.
          2   -1    0    0  501    0  0.00000000000E+00 -0.00000000000E+00 -0.33681643948E+04  0.33681643948E+04  0.00000000000E+00 0. -1.
         23    2    1    2    0    0 -0.47466916719E+03  0.13799090711E+03 -0.32568129907E+04  0.32956940454E+04  0.10205917775E+03 0.  0.
         11    1    3    3    0    0 -0.26095391419E+03  0.97299369665E+02 -0.15194597135E+04  0.15447724536E+04  0.00000000000E+00 0.  1.
        -11    1    3    3    0    0 -0.21371525299E+03  0.40691537447E+02 -0.17373532773E+04  0.17509215918E+04  0.00000000000E+00 0. -1.
         22    1    1    2    0    0  0.47466916719E+03 -0.13799090711E+03  0.57273382398E+03  0.75655557750E+03  0.00000000000E+00 0.  1.
<mgrwt>
<rscale>  0 0.30358600E+04</rscale>
<asrwt>0</asrwt>
<pdfrwt beam="1">  1        2 0.51817913E+00 0.30358600E+04</pdfrwt>
<pdfrwt beam="2">  1       -2 0.10524388E+00 0.30358600E+04</pdfrwt>
<totfact> 0.62474328E-01</totfact>
</mgrwt>
</event>
<event>
 6    1  0.1614874E-005  0.2537300E+04  0.7818608E-02  0.8389816E-01
         -1   -1    0    0    0  501 -0.00000000000E+00  0.00000000000E+00  0.92808537193E+03  0.92808537193E+03  0.00000000000E+00 0.  1.
          1   -1    0    0  501    0  0.00000000000E+00 -0.00000000000E+00 -0.17341860259E+04  0.17341860259E+04  0.00000000000E+00 0. -1.
         23    2    1    2    0    0  0.12574061114E+04  0.12590305403E+03 -0.30756515349E+03  0.13037945474E+04  0.91445012075E+02 0.  0.
         11    1    3    3    0    0  0.34509806804E+03 -0.45026071363E+01 -0.71421797364E+02  0.35244009871E+03  0.00000000000E+00 0. -1.
        -11    1    3    3    0    0  0.91230804334E+03  0.13040566116E+03 -0.23614335613E+03  0.95135444870E+03  0.00000000000E+00 0.  1.
         22    1    1    2    0    0 -0.12574061114E+04 -0.12590305403E+03 -0.49853550050E+03  0.13584768505E+04  0.00000000000E+00 0. -1.
<mgrwt>
<rscale>  0 0.25372999E+04</rscale>
<asrwt>0</asrwt>
<pdfrwt beam="1">  1        1 0.26679785E+00 0.25372999E+04</pdfrwt>
<pdfrwt beam="2">  1       -1 0.14278236E+00 0.25372999E+04</pdfrwt>
<totfact> 0.15919252E+00</totfact>
</mgrwt>
</event>
<event>
 6    1  0.1614874E-005  0.2686357E+04  0.7818608E-02  0.8339445E-01
          2   -1    0    0  501    0  0.00000000000E+00  0.00000000000E+00  0.32030403126E+04  0.32030403126E+04  0.00000000000E+00 0. -1.
         -2   -1    0    0    0  501 -0.00000000000E+00 -0.00000000000E+00 -0.56325504117E+03  0.56325504117E+03  0.00000000000E+00 0.  1.
         23    2    1    2    0    0 -0.12845211239E+04  0.29759135173E+03  0.97415228056E+03  0.16419393594E+04  0.91853491838E+02 0.  0.
         13    1    3    3    0    0 -0.21115214211E+03  0.69888241148E+02  0.13080331657E+03  0.25802926383E+03  0.00000000000E+00 0.  1.
        -13    1    3    3    0    0 -0.10733689818E+04  0.22770311058E+03  0.84334896400E+03  0.13839100956E+04  0.00000000000E+00 0. -1.
         22    1    1    2    0    0  0.12845211239E+04 -0.29759135173E+03  0.16656329908E+04  0.21243559943E+04  0.00000000000E+00 0.  1.
<mgrwt>
<rscale>  0 0.26863571E+04</rscale>
<asrwt>0</asrwt>
<pdfrwt beam="1">  1        2 0.49277542E+00 0.26863571E+04</pdfrwt>
<pdfrwt beam="2">  1       -2 0.86654624E-01 0.26863571E+04</pdfrwt>
<totfact> 0.13069967E+00</totfact>
</mgrwt>
</event>
<event>
 6    1  0.1614874E-005  0.3893065E+04  0.7818608E-02  0.8026473E-01
          2   -1    0    0  501    0  0.00000000000E+00  0.00000000000E+00  0.40361131134E+04  0.40361131134E+04  0.00000000000E+00 0. -1.
         -2   -1    0    0    0  501 -0.00000000000E+00 -0.00000000000E+00 -0.93877151013E+03  0.93877151013E+03  0.00000000000E+00 0.  1.
         23    2    1    2    0    0  0.97629059732E+01 -0.16168426689E+04  0.16702336594E+03  0.16280890662E+04  0.92204513653E+02 0.  0.
         13    1    3    3    0    0 -0.32705722022E+02 -0.84637936447E+03  0.60974556392E+02  0.84920291413E+03  0.00000000000E+00 0.  1.
        -13    1    3    3    0    0  0.42468627995E+02 -0.77046330447E+03  0.10604880955E+03  0.77888615208E+03  0.00000000000E+00 0. -1.
         22    1    1    2    0    0 -0.97629059732E+01  0.16168426689E+04  0.29303182374E+04  0.33467955573E+04  0.00000000000E+00 0. -1.
<mgrwt>
<rscale>  0 0.38930646E+04</rscale>
<asrwt>0</asrwt>
<pdfrwt beam="1">  1        2 0.62094047E+00 0.38930646E+04</pdfrwt>
<pdfrwt beam="2">  1       -2 0.14442639E+00 0.38930646E+04</pdfrwt>
<totfact> 0.83919561E-02</totfact>
</mgrwt>
</event>
<event>
 6    1  0.1614874E-005  0.2863618E+04  0.7818608E-02  0.8283785E-01
          2   -1    0    0  501    0  0.00000000000E+00  0.00000000000E+00  0.52226754057E+03  0.52226754057E+03  0.00000000000E+00 0. -1.
         -2   -1    0    0    0  501 -0.00000000000E+00 -0.00000000000E+00 -0.39253379158E+04  0.39253379158E+04  0.00000000000E+00 0.  1.
         23    2    1    2    0    0 -0.39355318901E+03 -0.86355155888E+03 -0.40976587977E+02  0.95414298459E+03  0.90024145973E+02 0.  0.
         13    1    3    3    0    0 -0.19589487244E+03 -0.37254643857E+03  0.19753840561E+02  0.42137378200E+03  0.00000000000E+00 0.  1.
        -13    1    3    3    0    0 -0.19765831657E+03 -0.49100512032E+03 -0.60730428539E+02  0.53276920260E+03  0.00000000000E+00 0. -1.
         22    1    1    2    0    0  0.39355318901E+03  0.86355155888E+03 -0.33620937872E+04  0.34934624717E+04  0.00000000000E+00 0.  1.
<mgrwt>
<rscale>  0 0.28636177E+04</rscale>
<asrwt>0</asrwt>
<pdfrwt beam="1">  1        2 0.80348853E-01 0.28636177E+04</pdfrwt>
<pdfrwt beam="2">  1       -2 0.60389813E+00 0.28636177E+04</pdfrwt>
<totfact> 0.24479044E-02</totfact>
</mgrwt>
</event>
<event>
 6    1  0.1614874E-005  0.1520657E+04  0.7818608E-02  0.8870831E-01
          1   -1    0    0  501    0  0.00000000000E+00  0.00000000000E+00  0.56027920204E+03  0.56027920204E+03  0.00000000000E+00 0. -1.
         -1   -1    0    0    0  501 -0.00000000000E+00 -0.00000000000E+00 -0.10318062697E+04  0.10318062697E+04  0.00000000000E+00 0.  1.
         23    2    1    2    0    0 -0.56560245183E+03  0.24376143194E+02 -0.76372590669E+03  0.95499796491E+03  0.90793846416E+02 0.  0.
         13    1    3    3    0    0 -0.37327433946E+03 -0.59436086656E+00 -0.56624169995E+03  0.67820627285E+03  0.00000000000E+00 0. -1.
        -13    1    3    3    0    0 -0.19232811237E+03  0.24970504060E+02 -0.19748420674E+03  0.27679169206E+03  0.00000000000E+00 0.  1.
         22    1    1    2    0    0  0.56560245183E+03 -0.24376143194E+02  0.29219883900E+03  0.63708750686E+03  0.00000000000E+00 0. -1.
<mgrwt>
<rscale>  0 0.15206572E+04</rscale>
<asrwt>0</asrwt>
<pdfrwt beam="1">  1        1 0.86196801E-01 0.15206572E+04</pdfrwt>
<pdfrwt beam="2">  1       -1 0.15873943E+00 0.15206572E+04</pdfrwt>
<totfact> 0.10901771E+01</totfact>
</mgrwt>
</event>
<event>
 6    1  0.1614874E-005  0.1806526E+04  0.7818608E-02  0.8702837E-01
         -2   -1    0    0    0  501 -0.00000000000E+00  0.00000000000E+00  0.35630915141E+03  0.35630915141E+03  0.00000000000E+00 0. -1.
          2   -1    0    0  501    0  0.00000000000E+00 -0.00000000000E+00 -0.22898198731E+04  0.22898198731E+04  0.00000000000E+00 0.  1.
         23    2    1    2    0    0 -0.86511763796E+03  0.24802962272E+03 -0.90365796288E+03  0.12784507268E+04  0.88833133843E+02 0.  0.
         13    1    3    3    0    0 -0.60740873962E+03  0.14682230616E+03 -0.66969134137E+03  0.91596324121E+03  0.00000000000E+00 0. -1.
        -13    1    3    3    0    0 -0.25770889834E+03  0.10120731656E+03 -0.23396662152E+03  0.36248748557E+03  0.00000000000E+00 0.  1.
         22    1    1    2    0    0  0.86511763796E+03 -0.24802962272E+03 -0.10298527588E+04  0.13676782977E+04  0.00000000000E+00 0.  1.
<mgrwt>
<rscale>  0 0.18065257E+04</rscale>
<asrwt>0</asrwt>
<pdfrwt beam="1">  1        2 0.35227998E+00 0.18065257E+04</pdfrwt>
<pdfrwt beam="2">  1       -2 0.54816793E-01 0.18065257E+04</pdfrwt>
<totfact> 0.13578201E+01</totfact>
</mgrwt>
</event>
<event>
 6    1  0.1614874E-005  0.1675871E+04  0.7818608E-02  0.8775247E-01
         -2   -1    0    0    0  501 -0.00000000000E+00  0.00000000000E+00  0.17576316649E+03  0.17576316649E+03  0.00000000000E+00 0. -1.
          2   -1    0    0  501    0  0.00000000000E+00 -0.00000000000E+00 -0.39947855546E+04  0.39947855546E+04  0.00000000000E+00 0.  1.
         23    2    1    2    0    0 -0.32947869494E+03 -0.70835612574E+03 -0.11779600018E+04  0.14163636983E+04  0.90397725332E+02 0.  0.
         13    1    3    3    0    0 -0.15801330747E+03 -0.35423856970E+03 -0.66549000152E+03  0.77027924269E+03  0.00000000000E+00 0. -1.
        -13    1    3    3    0    0 -0.17146538747E+03 -0.35411755604E+03 -0.51247000024E+03  0.64608445558E+03  0.00000000000E+00 0.  1.
         22    1    1    2    0    0  0.32947869494E+03  0.70835612574E+03 -0.26410623864E+04  0.27541850228E+04  0.00000000000E+00 0.  1.
<mgrwt>
<rscale>  0 0.16758713E+04</rscale>
<asrwt>0</asrwt>
<pdfrwt beam="1">  1        2 0.61458236E+00 0.16758713E+04</pdfrwt>
<pdfrwt beam="2">  1       -2 0.27040489E-01 0.16758713E+04</pdfrwt>
<totfact> 0.41677865E+00</totfact>
</mgrwt>
</event>
<event>
 6    1  0.1614874E-005  0.2055345E+04  0.7818608E-02  0.8581173E-01
          2   -1    0    0  501    0  0.00000000000E+00  0.00000000000E+00  0.22782707575E+04  0.22782707575E+04  0.00000000000E+00 0. -1.
         -2   -1    0    0    0  501 -0.00000000000E+00 -0.00000000000E+00 -0.46355802669E+03  0.46355802669E+03  0.00000000000E+00 0.  1.
         23    2    1    2    0    0  0.10834567322E+03 -0.21300550177E+03  0.22397659599E+04  0.22542014919E+04  0.88106087425E+02 0.  0.
         11    1    3    3    0    0  0.52607608384E+02 -0.81849649951E+02  0.55897058034E+03  0.56737556816E+03  0.00000000000E+00 0.  1.
        -11    1    3    3    0    0  0.55738064840E+02 -0.13115585182E+03  0.16807953795E+04  0.16868259238E+04  0.00000000000E+00 0. -1.
         22    1    1    2    0    0 -0.10834567322E+03  0.21300550177E+03 -0.42505322901E+03  0.48762729229E+03  0.00000000000E+00 0.  1.
<mgrwt>
<rscale>  0 0.20553449E+04</rscale>
<asrwt>0</asrwt>
<pdfrwt beam="1">  1        2 0.35050319E+00 0.20553449E+04</pdfrwt>
<pdfrwt beam="2">  1       -2 0.71316621E-01 0.20553449E+04</pdfrwt>
<totfact> 0.76986834E+00</totfact>
</mgrwt>
</event>
<event>
 6    1  0.1614874E-005  0.2136217E+04  0.7818608E-02  0.8545455E-01
         -2   -1    0    0    0  501 -0.00000000000E+00  0.00000000000E+00  0.62280166240E+03  0.62280166240E+03  0.00000000000E+00 0.  1.
          2   -1    0    0  501    0  0.00000000000E+00 -0.00000000000E+00 -0.18318126550E+04  0.18318126550E+04  0.00000000000E+00 0. -1.
         23    2    1    2    0    0 -0.92277312478E+03 -0.48643045948E+03 -0.86224353816E+03  0.13553543394E+04  0.73461789706E+02 0.  0.
         11    1    3    3    0    0 -0.49114164639E+03 -0.26387825032E+03 -0.50784723074E+03  0.75416222232E+03  0.00000000000E+00 0. -1.
        -11    1    3    3    0    0 -0.43163147839E+03 -0.22255220917E+03 -0.35439630742E+03  0.60119211709E+03  0.00000000000E+00 0.  1.
         22    1    1    2    0    0  0.92277312478E+03  0.48643045948E+03 -0.34676745445E+03  0.10992599780E+04  0.00000000000E+00 0.  1.
<mgrwt>
<rscale>  0 0.21362172E+04</rscale>
<asrwt>0</asrwt>
<pdfrwt beam="1">  1        2 0.28181733E+00 0.21362172E+04</pdfrwt>
<pdfrwt beam="2">  1       -2 0.95815641E-01 0.21362172E+04</pdfrwt>
<totfact> 0.69541022E+00</totfact>
</mgrwt>
</event>
<event>
 6    1  0.1614874E-005  0.2943232E+04  0.7818608E-02  0.8260130E-01
          2   -1    0    0  501    0  0.00000000000E+00  0.00000000000E+00  0.16503553732E+04  0.16503553732E+04  0.00000000000E+00 0. -1.
         -2   -1    0    0    0  501 -0.00000000000E+00 -0.00000000000E+00 -0.13122345041E+04  0.13122345041E+04  0.00000000000E+00 0.  1.
         23    2    1    2    0    0 -0.36743123471E+03  0.44545967477E+02 -0.12630435304E+04  0.13192038940E+04  0.89609702121E+02 0.  0.
         13    1    3    3    0    0 -0.14463292713E+03  0.39005859229E+02 -0.37975544195E+03  0.40823318870E+03  0.00000000000E+00 0.  1.
        -13    1    3    3    0    0 -0.22279830758E+03  0.55401082484E+01 -0.88328808850E+03  0.91097070532E+03  0.00000000000E+00 0. -1.
         22    1    1    2    0    0  0.36743123471E+03 -0.44545967477E+02  0.16011643996E+04  0.16433859833E+04  0.00000000000E+00 0. -1.
<mgrwt>
<rscale>  0 0.29432317E+04</rscale>
<asrwt>0</asrwt>
<pdfrwt beam="1">  1        2 0.25390083E+00 0.29432317E+04</pdfrwt>
<pdfrwt beam="2">  1       -2 0.20188223E+00 0.29432317E+04</pdfrwt>
<totfact> 0.11621516E+00</totfact>
</mgrwt>
</event>
<event>
 6    1  0.1614874E-005  0.1447405E+04  0.7818608E-02  0.8920202E-01
         -2   -1    0    0    0  501 -0.00000000000E+00  0.00000000000E+00  0.41626768473E+03  0.41626768473E+03  0.00000000000E+00 0.  1.
          2   -1    0    0  501    0  0.00000000000E+00 -0.00000000000E+00 -0.12581928813E+04  0.12581928813E+04  0.00000000000E+00 0. -1.
         23    2    1    2    0    0 -0.59649513742E+03 -0.39654719125E+03 -0.51583913759E+03  0.88744834141E+03  0.91751942460E+02 0.  0.
         11    1    3    3    0    0 -0.46902215171E+03 -0.31654275029E+03 -0.45093908219E+03  0.72355175862E+03  0.00000000000E+00 0. -1.
        -11    1    3    3    0    0 -0.12747298571E+03 -0.80004440958E+02 -0.64900055403E+02  0.16389658279E+03  0.00000000000E+00 0.  1.
         22    1    1    2    0    0  0.59649513742E+03  0.39654719125E+03 -0.32608605899E+03  0.78701222463E+03  0.00000000000E+00 0.  1.
<mgrwt>
<rscale>  0 0.14474046E+04</rscale>
<asrwt>0</asrwt>
<pdfrwt beam="1">  1        2 0.19356813E+00 0.14474046E+04</pdfrwt>
<pdfrwt beam="2">  1       -2 0.64041184E-01 0.14474046E+04</pdfrwt>
<totfact> 0.38242518E+01</totfact>
</mgrwt>
</event>
<event>
 6    1  0.1614874E-005  0.2612149E+04  0.7818608E-02  0.8364086E-01
         -1   -1    0    0    0  501 -0.00000000000E+00  0.00000000000E+00  0.25893391628E+04  0.25893391628E+04  0.00000000000E+00 0.  1.
          1   -1    0    0  501    0  0.00000000000E+00 -0.00000000000E+00 -0.65878999920E+03  0.65878999920E+03  0.00000000000E+00 0. -1.
         23    2    1    2    0    0  0.51288601520E+03 -0.68382712693E+03  0.21917682310E+04  0.23543131825E+04  0.90944922661E+02 0.  0.
         11    1    3    3    0    0  0.43674879965E+03 -0.60359901380E+03  0.18246528676E+04  0.19708981127E+04  0.00000000000E+00 0.  1.
        -11    1    3    3    0    0  0.76137215552E+02 -0.80228113139E+02  0.36711536340E+03  0.38341506983E+03  0.00000000000E+00 0. -1.
         22    1    1    2    0    0 -0.51288601520E+03  0.68382712693E+03 -0.26121906733E+03  0.89381597953E+03  0.00000000000E+00 0. -1.
<mgrwt>
<rscale>  0 0.26121491E+04</rscale>
<asrwt>0</asrwt>
<pdfrwt beam="1">  1        1 0.10135231E+00 0.26121491E+04</pdfrwt>
<pdfrwt beam="2">  1       -1 0.39835987E+00 0.26121491E+04</pdfrwt>
<totfact> 0.19277603E-01</totfact>
</mgrwt>
</event>
<event>
 6    1  0.1614874E-005  0.2045036E+04  0.7818608E-02  0.8585849E-01
          1   -1    0    0  501    0  0.00000000000E+00  0.00000000000E+00  0.74598249438E+03  0.74598249438E+03  0.00000000000E+00 0. -1.
         -1   -1    0    0    0  501 -0.00000000000E+00 -0.00000000000E+00 -0.14015654820E+04  0.14015654820E+04  0.00000000000E+00 0.  1.
         23    2    1    2    0    0  0.27384066557E+03 -0.48240348191E+03 -0.12279739592E+04  0.13504700292E+04  0.90263092092E+02 0.  0.
         11    1    3    3    0    0  0.17287901552E+03 -0.29535201905E+03 -0.64887317553E+03  0.73359141699E+03  0.00000000000E+00 0. -1.
        -11    1    3    3    0    0  0.10096165005E+03 -0.18705146285E+03 -0.57910078371E+03  0.61687861223E+03  0.00000000000E+00 0.  1.
         22    1    1    2    0    0 -0.27384066557E+03  0.48240348191E+03  0.57239097161E+03  0.79707794716E+03  0.00000000000E+00 0. -1.
<mgrwt>
<rscale>  0 0.20450362E+04</rscale>
<asrwt>0</asrwt>
<pdfrwt beam="1">  1        1 0.11476654E+00 0.20450362E+04</pdfrwt>
<pdfrwt beam="2">  1       -1 0.21562546E+00 0.20450362E+04</pdfrwt>
<totfact> 0.26873930E+00</totfact>
</mgrwt>
</event>
<event>
 6    1  0.1614874E-005  0.4158324E+04  0.7818608E-02  0.7973348E-01
         -2   -1    0    0    0  501 -0.00000000000E+00  0.00000000000E+00  0.10111029235E+04  0.10111029235E+04  0.00000000000E+00 0.  1.
          2   -1    0    0  501    0  0.00000000000E+00 -0.00000000000E+00 -0.42754449329E+04  0.42754449329E+04  0.00000000000E+00 0. -1.
         23    2    1    2    0    0 -0.19544474682E+04 -0.70462139174E+03 -0.16972640227E+04  0.26842239665E+04  0.89425541983E+02 0.  0.
         11    1    3    3    0    0 -0.10442444158E+04 -0.35689660262E+03 -0.84884200626E+03  0.13922479436E+04  0.00000000000E+00 0. -1.
        -11    1    3    3    0    0 -0.91020305244E+03 -0.34772478912E+03 -0.84842201649E+03  0.12919760229E+04  0.00000000000E+00 0.  1.
         22    1    1    2    0    0  0.19544474682E+04  0.70462139174E+03 -0.15670779867E+04  0.26023238899E+04  0.00000000000E+00 0. -1.
<mgrwt>
<rscale>  0 0.41583241E+04</rscale>
<asrwt>0</asrwt>
<pdfrwt beam="1">  1        2 0.65776076E+00 0.41583241E+04</pdfrwt>
<pdfrwt beam="2">  1       -2 0.15555430E+00 0.41583241E+04</pdfrwt>
<totfact> 0.42019725E-02</totfact>
</mgrwt>
</event>
<event>
 6    1  0.1614874E-005  0.2345527E+04  0.7818608E-02  0.8460184E-01
         -1   -1    0    0    0  501 -0.00000000000E+00  0.00000000000E+00  0.18079226747E+04  0.18079226747E+04  0.00000000000E+00 0.  1.
          1   -1    0    0  501    0  0.00000000000E+00 -0.00000000000E+00 -0.76074866191E+03  0.76074866191E+03  0.00000000000E+00 0. -1.
         23    2    1    2    0    0 -0.43999950971E+03 -0.84753382090E+03 -0.21778503090E+03  0.98373142344E+03  0.91564445367E+02 0.  0.
         11    1    3    3    0    0 -0.21670829996E+03 -0.41345775101E+03 -0.59584054121E+02  0.47059542990E+03  0.00000000000E+00 0.  1.
        -11    1    3    3    0    0 -0.22329120976E+03 -0.43407606990E+03 -0.15820097678E+03  0.51313599354E+03  0.00000000000E+00 0. -1.
         22    1    1    2    0    0  0.43999950971E+03  0.84753382090E+03  0.12649590437E+04  0.15849399131E+04  0.00000000000E+00 0.  1.
<mgrwt>
<rscale>  0 0.23455275E+04</rscale>
<asrwt>0</asrwt>
<pdfrwt beam="1">  1        1 0.11703826E+00 0.23455275E+04</pdfrwt>
<pdfrwt beam="2">  1       -1 0.27814195E+00 0.23455275E+04</pdfrwt>
<totfact> 0.98682358E-01</totfact>
</mgrwt>
</event>
<event>
 6    1  0.1614874E-005  0.4841973E+03  0.7818608E-02  0.1017988E+00
         -1   -1    0    0    0  501 -0.00000000000E+00  0.00000000000E+00  0.69748600607E+02  0.69748600607E+02  0.00000000000E+00 0.  1.
          1   -1    0    0  501    0  0.00000000000E+00 -0.00000000000E+00 -0.84032882845E+03  0.84032882845E+03  0.00000000000E+00 0. -1.
         23    2    1    2    0    0 -0.23120210243E+03 -0.12221673582E+02 -0.33802184479E+03  0.41945482845E+03  0.89887730426E+02 0.  0.
         11    1    3    3    0    0 -0.60847012514E+02 -0.23351394778E+02 -0.41394296950E+02  0.77208382900E+02  0.00000000000E+00 0. -1.
        -11    1    3    3    0    0 -0.17035508992E+03  0.11129721197E+02 -0.29662754784E+03  0.34224644555E+03  0.00000000000E+00 0.  1.
         22    1    1    2    0    0  0.23120210243E+03  0.12221673582E+02 -0.43255838305E+03  0.49062260060E+03  0.00000000000E+00 0. -1.
<mgrwt>
<rscale>  0 0.48419731E+03</rscale>
<asrwt>0</asrwt>
<pdfrwt beam="1">  1        1 0.12928135E+00 0.48419731E+03</pdfrwt>
<pdfrwt beam="2">  1       -1 0.10730554E-01 0.48419731E+03</pdfrwt>
<totfact> 0.11622967E+03</totfact>
</mgrwt>
</event>
<event>
 6    1  0.1614874E-005  0.2740966E+04  0.7818608E-02  0.8321834E-01
         -1   -1    0    0    0  501 -0.00000000000E+00  0.00000000000E+00  0.11169214347E+04  0.11169214347E+04  0.00000000000E+00 0.  1.
          1   -1    0    0  501    0  0.00000000000E+00 -0.00000000000E+00 -0.16816079565E+04  0.16816079565E+04  0.00000000000E+00 0. -1.
         23    2    1    2    0    0 -0.53870162911E+03  0.12123243975E+04 -0.62750820508E+03  0.14704192851E+04  0.91850077326E+02 0.  0.
         11    1    3    3    0    0 -0.52641464231E+02  0.16909961245E+03 -0.58302381680E+02  0.18645366823E+03  0.00000000000E+00 0. -1.
        -11    1    3    3    0    0 -0.48606016488E+03  0.10432247850E+04 -0.56920582340E+03  0.12839656169E+04  0.00000000000E+00 0.  1.
         22    1    1    2    0    0  0.53870162911E+03 -0.12123243975E+04  0.62821683285E+02  0.13281101060E+04  0.00000000000E+00 0.  1.
<mgrwt>
<rscale>  0 0.27409662E+04</rscale>
<asrwt>0</asrwt>
<pdfrwt beam="1">  1        1 0.25870891E+00 0.27409662E+04</pdfrwt>
<pdfrwt beam="2">  1       -1 0.17183407E+00 0.27409662E+04</pdfrwt>
<totfact> 0.10183263E+00</totfact>
</mgrwt>
</event>
<event>
 6    1  0.1614874E-005  0.7196171E+03  0.7818608E-02  0.9684260E-01
          3   -1    0    0  501    0  0.00000000000E+00  0.00000000000E+00  0.82793128868E+02  0.82793128868E+02  0.00000000000E+00 0. -1.
         -3   -1    0    0    0  501 -0.00000000000E+00 -0.00000000000E+00 -0.15636830222E+04  0.15636830222E+04  0.00000000000E+00 0.  1.
         23    2    1    2    0    0  0.16320579786E+03  0.23852295589E+03 -0.28464215346E+03  0.41581048238E+03  0.91366672204E+02 0.  0.
         11    1    3    3    0    0  0.17232676477E+01  0.22157416641E+02  0.16627791461E+01  0.22286444268E+02  0.00000000000E+00 0. -1.
        -11    1    3    3    0    0  0.16148253021E+03  0.21636553925E+03 -0.28630493261E+03  0.39352403811E+03  0.00000000000E+00 0.  1.
         22    1    1    2    0    0 -0.16320579786E+03 -0.23852295589E+03 -0.11962477399E+04  0.12306656687E+04  0.00000000000E+00 0.  1.
<mgrwt>
<rscale>  0 0.71961715E+03</rscale>
<asrwt>0</asrwt>
<pdfrwt beam="1">  1        3 0.12737404E-01 0.71961715E+03</pdfrwt>
<pdfrwt beam="2">  1       -3 0.24056662E+00 0.71961715E+03</pdfrwt>
<totfact> 0.11317967E+01</totfact>
</mgrwt>
</event>
<event>
 6    1  0.1614874E-005  0.3880935E+04  0.7818608E-02  0.8029006E-01
         -1   -1    0    0    0  501 -0.00000000000E+00  0.00000000000E+00  0.16219470361E+04  0.16219470361E+04  0.00000000000E+00 0.  1.
          1   -1    0    0  501    0  0.00000000000E+00 -0.00000000000E+00 -0.23215400410E+04  0.23215400410E+04  0.00000000000E+00 0. -1.
         23    2    1    2    0    0 -0.10283006497E+04 -0.35422504434E+03  0.12816091023E+04  0.16833898673E+04  0.91662130853E+02 0.  0.
         13    1    3    3    0    0 -0.47457426793E+03 -0.14006695715E+03  0.64446749081E+03  0.81251328295E+03  0.00000000000E+00 0. -1.
        -13    1    3    3    0    0 -0.55372638178E+03 -0.21415808719E+03  0.63714161144E+03  0.87087658438E+03  0.00000000000E+00 0.  1.
         22    1    1    2    0    0  0.10283006497E+04  0.35422504434E+03 -0.19812021071E+04  0.22600972097E+04  0.00000000000E+00 0. -1.
<mgrwt>
<rscale>  0 0.38809354E+04</rscale>
<asrwt>0</asrwt>
<pdfrwt beam="1">  1        1 0.35716000E+00 0.38809354E+04</pdfrwt>
<pdfrwt beam="2">  1       -1 0.24953032E+00 0.38809354E+04</pdfrwt>
<totfact> 0.99830890E-02</totfact>
</mgrwt>
</event>
<event>
 6    1  0.3997553E-005  0.4176701E+04  0.7818608E-02  0.7969819E-01
          2   -1    0    0  501    0  0.00000000000E+00  0.00000000000E+00  0.26565896640E+04  0.26565896640E+04  0.00000000000E+00 0.  1.
         -2   -1    0    0    0  501 -0.00000000000E+00 -0.00000000000E+00 -0.16416569333E+04  0.16416569333E+04  0.00000000000E+00 0. -1.
         23    2    1    2    0    0  0.54729803039E+03  0.51711382045E+03 -0.14957704788E+04  0.16770689147E+04  0.91043845948E+02 0.  0.
         11    1    3    3    0    0  0.14007100340E+03  0.18328681106E+03 -0.41334292100E+03  0.47335643171E+03  0.00000000000E+00 0. -1.
        -11    1    3    3    0    0  0.40722702699E+03  0.33382700939E+03 -0.10824275578E+04  0.12037124830E+04  0.00000000000E+00 0.  1.
         22    1    1    2    0    0 -0.54729803039E+03 -0.51711382045E+03  0.25107032096E+04  0.26211776826E+04  0.00000000000E+00 0.  1.
<mgrwt>
<rscale>  0 0.41767015E+04</rscale>
<asrwt>0</asrwt>
<pdfrwt beam="1">  1        2 0.40870610E+00 0.41767015E+04</pdfrwt>
<pdfrwt beam="2">  1       -2 0.25256260E+00 0.41767015E+04</pdfrwt>
<totfact> 0.13580659E-01</totfact>
</mgrwt>
</event>
<event>
 6    1  0.1614874E-005  0.4242412E+04  0.7818608E-02  0.7957353E-01
         -2   -1    0    0    0  501 -0.00000000000E+00  0.00000000000E+00  0.17491715556E+04  0.17491715556E+04  0.00000000000E+00 0.  1.
          2   -1    0    0  501    0  0.00000000000E+00 -0.00000000000E+00 -0.25723695211E+04  0.25723695211E+04  0.00000000000E+00 0. -1.
         23    2    1    2    0    0  0.84201208637E+03 -0.41074328147E+03 -0.23492907859E+04  0.25308278966E+04  0.90709692711E+02 0.  0.
         13    1    3    3    0    0  0.30913338874E+03 -0.19519841946E+03 -0.86259324232E+03  0.93687404526E+03  0.00000000000E+00 0.  1.
        -13    1    3    3    0    0  0.53287869764E+03 -0.21554486201E+03 -0.14866975436E+04  0.15939538513E+04  0.00000000000E+00 0. -1.
         22    1    1    2    0    0 -0.84201208637E+03  0.41074328147E+03  0.15260928205E+04  0.17907131801E+04  0.00000000000E+00 0.  1.
<mgrwt>
<rscale>  0 0.42424123E+04</rscale>
<asrwt>0</asrwt>
<pdfrwt beam="1">  1        2 0.39574916E+00 0.42424123E+04</pdfrwt>
<pdfrwt beam="2">  1       -2 0.26910332E+00 0.42424123E+04</pdfrwt>
<totfact> 0.11994453E-01</totfact>
</mgrwt>
</event>
<event>
 6    1  0.1614874E-005  0.1329618E+04  0.7818608E-02  0.9006402E-01
         -2   -1    0    0    0  501 -0.00000000000E+00  0.00000000000E+00  0.89217662510E+02  0.89217662510E+02  0.00000000000E+00 0.  1.
          2   -1    0    0  501    0  0.00000000000E+00 -0.00000000000E+00 -0.49538547156E+04  0.49538547156E+04  0.00000000000E+00 0. -1.
         23    2    1    2    0    0 -0.62858684307E+03 -0.20658187093E+03 -0.24337760591E+04  0.25237703596E+04  0.91397117848E+02 0.  0.
         11    1    3    3    0    0 -0.18726376492E+03 -0.10423284694E+03 -0.83195813730E+03  0.85911963443E+03  0.00000000000E+00 0. -1.
        -11    1    3    3    0    0 -0.44132307815E+03 -0.10234902399E+03 -0.16018179218E+04  0.16646507251E+04  0.00000000000E+00 0.  1.
         22    1    1    2    0    0  0.62858684307E+03  0.20658187093E+03 -0.24308609940E+04  0.25193020185E+04  0.00000000000E+00 0. -1.
<mgrwt>
<rscale>  0 0.13296185E+04</rscale>
<asrwt>0</asrwt>
<pdfrwt beam="1">  1        2 0.76213162E+00 0.13296185E+04</pdfrwt>
<pdfrwt beam="2">  1       -2 0.13725792E-01 0.13296185E+04</pdfrwt>
<totfact> 0.16677698E+00</totfact>
</mgrwt>
</event>
<event>
 6    1  0.1614874E-005  0.3779050E+04  0.7818608E-02  0.8050666E-01
          2   -1    0    0  501    0  0.00000000000E+00  0.00000000000E+00  0.24675433786E+04  0.24675433786E+04  0.00000000000E+00 0. -1.
         -2   -1    0    0    0  501 -0.00000000000E+00 -0.00000000000E+00 -0.14469062368E+04  0.14469062368E+04  0.00000000000E+00 0.  1.
         23    2    1    2    0    0  0.62180274939E+03 -0.15623598928E+04 -0.37954750193E+03  0.17262713480E+04  0.91374870389E+02 0.  0.
         11    1    3    3    0    0  0.43604582921E+03 -0.11050439229E+04 -0.22538980264E+03  0.12091561519E+04  0.00000000000E+00 0. -1.
        -11    1    3    3    0    0  0.18575692018E+03 -0.45731596992E+03 -0.15415769929E+03  0.51711519606E+03  0.00000000000E+00 0.  1.
         22    1    1    2    0    0 -0.62180274939E+03  0.15623598928E+04  0.14001846437E+04  0.21881782674E+04  0.00000000000E+00 0. -1.
<mgrwt>
<rscale>  0 0.37790496E+04</rscale>
<asrwt>0</asrwt>
<pdfrwt beam="1">  1        2 0.37962206E+00 0.37790496E+04</pdfrwt>
<pdfrwt beam="2">  1       -2 0.22260096E+00 0.37790496E+04</pdfrwt>
<totfact> 0.27782731E-01</totfact>
</mgrwt>
</event>
<event>
 6    1  0.1614874E-005  0.4942112E+04  0.7818608E-02  0.7837500E-01
         -2   -1    0    0    0  501 -0.00000000000E+00  0.00000000000E+00  0.28487922887E+04  0.28487922887E+04  0.00000000000E+00 0.  1.
          2   -1    0    0  501    0  0.00000000000E+00 -0.00000000000E+00 -0.21434053121E+04  0.21434053121E+04  0.00000000000E+00 0. -1.
         23    2    1    2    0    0 -0.15513457682E+04  0.17816362564E+04 -0.37662038724E+03  0.23938055253E+04  0.86951332063E+02 0.  0.
         11    1    3    3    0    0 -0.11324743577E+04  0.13508825625E+04 -0.29958159936E+03  0.17880522932E+04  0.00000000000E+00 0. -1.
        -11    1    3    3    0    0 -0.41887141059E+03  0.43075369392E+03 -0.77038787878E+02  0.60575323216E+03  0.00000000000E+00 0.  1.
         22    1    1    2    0    0  0.15513457682E+04 -0.17816362564E+04  0.10820073638E+04  0.25983920755E+04  0.00000000000E+00 0. -1.
<mgrwt>
<rscale>  0 0.49421115E+04</rscale>
<asrwt>0</asrwt>
<pdfrwt beam="1">  1        2 0.32975466E+00 0.49421115E+04</pdfrwt>
<pdfrwt beam="2">  1       -2 0.43827574E+00 0.49421115E+04</pdfrwt>
<totfact> 0.16896899E-02</totfact>
</mgrwt>
</event>
<event>
 6    1  0.1614874E-005  0.5021063E+04  0.7818608E-02  0.7825266E-01
         -1   -1    0    0    0  501 -0.00000000000E+00  0.00000000000E+00  0.30047313217E+04  0.30047313217E+04  0.00000000000E+00 0.  1.
          1   -1    0    0  501    0  0.00000000000E+00 -0.00000000000E+00 -0.20976148553E+04  0.20976148553E+04  0.00000000000E+00 0. -1.
         23    2    1    2    0    0 -0.13537191164E+04  0.10967139352E+04  0.22894085573E+04  0.28783703843E+04  0.91036396136E+02 0.  0.
         11    1    3    3    0    0 -0.63241870096E+03  0.49496557304E+03  0.98393196888E+03  0.12700655303E+04  0.00000000000E+00 0.  1.
        -11    1    3    3    0    0 -0.72130041545E+03  0.60174836220E+03  0.13054765884E+04  0.16083048541E+04  0.00000000000E+00 0. -1.
         22    1    1    2    0    0  0.13537191164E+04 -0.10967139352E+04 -0.13822920909E+04  0.22239757927E+04  0.00000000000E+00 0. -1.
<mgrwt>
<rscale>  0 0.50210633E+04</rscale>
<asrwt>0</asrwt>
<pdfrwt beam="1">  1        1 0.32270998E+00 0.50210633E+04</pdfrwt>
<pdfrwt beam="2">  1       -1 0.46226636E+00 0.50210633E+04</pdfrwt>
<totfact> 0.49280537E-03</totfact>
</mgrwt>
</event>
<event>
 6    1  0.1614874E-005  0.1576120E+04  0.7818608E-02  0.8835354E-01
         -1   -1    0    0    0  501 -0.00000000000E+00  0.00000000000E+00  0.60443185735E+03  0.60443185735E+03  0.00000000000E+00 0.  1.
          1   -1    0    0  501    0  0.00000000000E+00 -0.00000000000E+00 -0.10274744184E+04  0.10274744184E+04  0.00000000000E+00 0. -1.
         23    2    1    2    0    0 -0.25365685139E+03 -0.49807184881E+03 -0.78353685800E+03  0.96679462872E+03  0.91348133299E+02 0.  0.
         13    1    3    3    0    0 -0.25562283631E+03 -0.46212349756E+03 -0.70954095659E+03  0.88450524618E+03  0.00000000000E+00 0.  1.
        -13    1    3    3    0    0  0.19659849250E+01 -0.35948351248E+02 -0.73995901413E+02  0.82289382548E+02  0.00000000000E+00 0. -1.
         22    1    1    2    0    0  0.25365685139E+03  0.49807184881E+03  0.36049429698E+03  0.66511164700E+03  0.00000000000E+00 0.  1.
<mgrwt>
<rscale>  0 0.15761196E+04</rscale>
<asrwt>0</asrwt>
<pdfrwt beam="1">  1        1 0.15807299E+00 0.15761196E+04</pdfrwt>
<pdfrwt beam="2">  1       -1 0.92989517E-01 0.15761196E+04</pdfrwt>
<totfact> 0.15559454E+01</totfact>
</mgrwt>
</event>
<event>
 6    1  0.1614874E-005  0.3411190E+04  0.7818608E-02  0.8135165E-01
          1   -1    0    0  501    0  0.00000000000E+00  0.00000000000E+00  0.31363989859E+04  0.31363989859E+04  0.00000000000E+00 0. -1.
         -1   -1    0    0    0  501 -0.00000000000E+00 -0.00000000000E+00 -0.92751410776E+03  0.92751410776E+03  0.00000000000E+00 0.  1.
         23    2    1    2    0    0 -0.13401384503E+04  0.99549984014E+03  0.69567362278E+03  0.18107377119E+04  0.88421005603E+02 0.  0.
         13    1    3    3    0    0 -0.54494215164E+03  0.36772565409E+03  0.30778680270E+03  0.72589036447E+03  0.00000000000E+00 0. -1.
        -13    1    3    3    0    0 -0.79519629863E+03  0.62777418606E+03  0.38788682007E+03  0.10848473474E+04  0.00000000000E+00 0.  1.
         22    1    1    2    0    0  0.13401384503E+04 -0.99549984014E+03  0.15132112554E+04  0.22531753818E+04  0.00000000000E+00 0. -1.
<mgrwt>
<rscale>  0 0.34111900E+04</rscale>
<asrwt>0</asrwt>
<pdfrwt beam="1">  1        1 0.48252292E+00 0.34111900E+04</pdfrwt>
<pdfrwt beam="2">  1       -1 0.14269448E+00 0.34111900E+04</pdfrwt>
<totfact> 0.15524133E-01</totfact>
</mgrwt>
</event>
<event>
 6    1  0.1614874E-005  0.3628955E+04  0.7818608E-02  0.8083891E-01
          1   -1    0    0  501    0  0.00000000000E+00  0.00000000000E+00  0.19010747763E+04  0.19010747763E+04  0.00000000000E+00 0. -1.
         -1   -1    0    0    0  501 -0.00000000000E+00 -0.00000000000E+00 -0.17318251716E+04  0.17318251716E+04  0.00000000000E+00 0.  1.
         23    2    1    2    0    0 -0.79075538789E+03 -0.12008289093E+04  0.11908047787E+04  0.18691371730E+04  0.91507364125E+02 0.  0.
         11    1    3    3    0    0 -0.24215267279E+03 -0.43846296339E+03  0.38884261358E+03  0.63410272460E+03  0.00000000000E+00 0.  1.
        -11    1    3    3    0    0 -0.54860271510E+03 -0.76236594586E+03  0.80196216512E+03  0.12350344484E+04  0.00000000000E+00 0. -1.
         22    1    1    2    0    0  0.79075538789E+03  0.12008289093E+04 -0.10215551739E+04  0.17637627749E+04  0.00000000000E+00 0.  1.
<mgrwt>
<rscale>  0 0.36289553E+04</rscale>
<asrwt>0</asrwt>
<pdfrwt beam="1">  1        1 0.29247304E+00 0.36289553E+04</pdfrwt>
<pdfrwt beam="2">  1       -1 0.26643464E+00 0.36289553E+04</pdfrwt>
<totfact> 0.15299465E-01</totfact>
</mgrwt>
</event>
<event>
 6    1  0.1614874E-005  0.6534626E+03  0.7818608E-02  0.9800304E-01
          2   -1    0    0  501    0  0.00000000000E+00  0.00000000000E+00  0.93764924450E+03  0.93764924450E+03  0.00000000000E+00 0. -1.
         -2   -1    0    0    0  501 -0.00000000000E+00 -0.00000000000E+00 -0.11385209005E+03  0.11385209005E+03  0.00000000000E+00 0.  1.
         23    2    1    2    0    0  0.14758603391E+03 -0.23711427252E+03  0.16652102337E+03  0.33734677977E+03  0.89826404566E+02 0.  0.
         11    1    3    3    0    0  0.83469628486E+02 -0.15892188781E+03  0.57132972812E+02  0.18838132043E+03  0.00000000000E+00 0.  1.
        -11    1    3    3    0    0  0.64116405420E+02 -0.78192384715E+02  0.10938805056E+03  0.14896545934E+03  0.00000000000E+00 0. -1.
         22    1    1    2    0    0 -0.14758603391E+03  0.23711427252E+03  0.65727613108E+03  0.71415455479E+03  0.00000000000E+00 0.  1.
<mgrwt>
<rscale>  0 0.65346255E+03</rscale>
<asrwt>0</asrwt>
<pdfrwt beam="1">  1        2 0.14425372E+00 0.65346255E+03</pdfrwt>
<pdfrwt beam="2">  1       -2 0.17515707E-01 0.65346255E+03</pdfrwt>
<totfact> 0.74882539E+02</totfact>
</mgrwt>
</event>
<event>
 6    1  0.1614874E-005  0.1202011E+04  0.7818608E-02  0.9111098E-01
          1   -1    0    0  501    0  0.00000000000E+00  0.00000000000E+00  0.11216834256E+04  0.11216834256E+04  0.00000000000E+00 0. -1.
         -1   -1    0    0    0  501 -0.00000000000E+00 -0.00000000000E+00 -0.32202255559E+03  0.32202255559E+03  0.00000000000E+00 0.  1.
         23    2    1    2    0    0  0.50592458282E+03  0.94951657212E+02  0.76708083258E+03  0.92791827333E+03  0.87428928682E+02 0.  0.
         13    1    3    3    0    0  0.49839298196E+03  0.85762842898E+02  0.76295329291E+03  0.91534067803E+03  0.00000000000E+00 0.  1.
        -13    1    3    3    0    0  0.75316008571E+01  0.91888143143E+01  0.41275396687E+01  0.12577595306E+02  0.00000000000E+00 0. -1.
         22    1    1    2    0    0 -0.50592458282E+03 -0.94951657212E+02  0.32580037388E+02  0.51578770782E+03  0.00000000000E+00 0.  1.
<mgrwt>
<rscale>  0 0.12020106E+04</rscale>
<asrwt>0</asrwt>
<pdfrwt beam="1">  1        1 0.17256668E+00 0.12020106E+04</pdfrwt>
<pdfrwt beam="2">  1       -1 0.49541932E-01 0.12020106E+04</pdfrwt>
<totfact> 0.49349170E+01</totfact>
</mgrwt>
</event>
<event>
 6    1  0.1614874E-005  0.6877346E+03  0.7818608E-02  0.9738441E-01
         -1   -1    0    0    0  501 -0.00000000000E+00  0.00000000000E+00  0.20243945446E+03  0.20243945446E+03  0.00000000000E+00 0.  1.
          1   -1    0    0  501    0  0.00000000000E+00 -0.00000000000E+00 -0.58409918953E+03  0.58409918953E+03  0.00000000000E+00 0. -1.
         23    2    1    2    0    0 -0.22840373123E+03 -0.10141498201E+03 -0.45403354146E+03  0.52636325917E+03  0.91970434505E+02 0.  0.
         13    1    3    3    0    0 -0.21356108299E+03 -0.83490004077E+02 -0.34077888199E+03  0.41074221034E+03  0.00000000000E+00 0.  1.
        -13    1    3    3    0    0 -0.14842648237E+02 -0.17924977937E+02 -0.11325465947E+03  0.11562104883E+03  0.00000000000E+00 0. -1.
         22    1    1    2    0    0  0.22840373123E+03  0.10141498201E+03  0.72373806385E+02  0.26017538482E+03  0.00000000000E+00 0.  1.
<mgrwt>
<rscale>  0 0.68773460E+03</rscale>
<asrwt>0</asrwt>
<pdfrwt beam="1">  1        1 0.89861413E-01 0.68773460E+03</pdfrwt>
<pdfrwt beam="2">  1       -1 0.31144532E-01 0.68773460E+03</pdfrwt>
<totfact> 0.34401451E+02</totfact>
</mgrwt>
</event>
<event>
 6    1  0.1614874E-005  0.1791599E+04  0.7818608E-02  0.8710780E-01
         -1   -1    0    0    0  501 -0.00000000000E+00  0.00000000000E+00  0.60367606117E+03  0.60367606117E+03  0.00000000000E+00 0.  1.
          1   -1    0    0  501    0  0.00000000000E+00 -0.00000000000E+00 -0.13292833585E+04  0.13292833585E+04  0.00000000000E+00 0. -1.
         23    2    1    2    0    0  0.88348530455E+02  0.46974263763E+03  0.45073513775E+03  0.66321726751E+03  0.90726903820E+02 0.  0.
         13    1    3    3    0    0  0.12857805537E+02  0.17765676197E+03  0.22199641551E+03  0.28462195406E+03  0.00000000000E+00 0.  1.
        -13    1    3    3    0    0  0.75490724918E+02  0.29208587566E+03  0.22873872224E+03  0.37859531344E+03  0.00000000000E+00 0. -1.
         22    1    1    2    0    0 -0.88348530455E+02 -0.46974263763E+03 -0.11763424351E+04  0.12697421522E+04  0.00000000000E+00 0. -1.
<mgrwt>
<rscale>  0 0.17915988E+04</rscale>
<asrwt>0</asrwt>
<pdfrwt beam="1">  1        1 0.20450513E+00 0.17915988E+04</pdfrwt>
<pdfrwt beam="2">  1       -1 0.92873241E-01 0.17915988E+04</pdfrwt>
<totfact> 0.91703445E+00</totfact>
</mgrwt>
</event>
<event>
 6    1  0.1614874E-005  0.3986675E+04  0.7818608E-02  0.8007240E-01
         -2   -1    0    0    0  501 -0.00000000000E+00  0.00000000000E+00  0.16514815047E+04  0.16514815047E+04  0.00000000000E+00 0.  1.
          2   -1    0    0  501    0  0.00000000000E+00 -0.00000000000E+00 -0.24059577915E+04  0.24059577915E+04  0.00000000000E+00 0. -1.
         23    2    1    2    0    0 -0.19883658192E+03 -0.74602894298E+03 -0.22466277666E+04  0.23773764376E+04  0.92126188377E+02 0.  0.
         13    1    3    3    0    0 -0.16329172430E+02 -0.84309990812E+02 -0.17400370514E+03  0.19404150542E+03  0.00000000000E+00 0.  1.
        -13    1    3    3    0    0 -0.18250740949E+03 -0.66171895217E+03 -0.20726240615E+04  0.21833349322E+04  0.00000000000E+00 0. -1.
         22    1    1    2    0    0  0.19883658192E+03  0.74602894298E+03  0.14921514798E+04  0.16800628585E+04  0.00000000000E+00 0.  1.
<mgrwt>
<rscale>  0 0.39866752E+04</rscale>
<asrwt>0</asrwt>
<pdfrwt beam="1">  1        2 0.37014735E+00 0.39866752E+04</pdfrwt>
<pdfrwt beam="2">  1       -2 0.25407408E+00 0.39866752E+04</pdfrwt>
<totfact> 0.18896271E-01</totfact>
</mgrwt>
</event>
<event>
 6    1  0.1614874E-005  0.2522048E+04  0.7818608E-02  0.8395173E-01
          1   -1    0    0  501    0  0.00000000000E+00  0.00000000000E+00  0.18905231088E+04  0.18905231088E+04  0.00000000000E+00 0. -1.
         -1   -1    0    0    0  501 -0.00000000000E+00 -0.00000000000E+00 -0.84113293909E+03  0.84113293909E+03  0.00000000000E+00 0.  1.
         23    2    1    2    0    0  0.49574937880E+03  0.38593262205E+03  0.17075938896E+04  0.18217420013E+04  0.90308319015E+02 0.  0.
         11    1    3    3    0    0  0.12195219466E+03  0.53177738089E+02  0.40667222001E+03  0.42788141364E+03  0.00000000000E+00 0.  1.
        -11    1    3    3    0    0  0.37379718414E+03  0.33275488396E+03  0.13009216695E+04  0.13938605877E+04  0.00000000000E+00 0. -1.
         22    1    1    2    0    0 -0.49574937880E+03 -0.38593262205E+03 -0.65820371982E+03  0.90991404656E+03  0.00000000000E+00 0.  1.
<mgrwt>
<rscale>  0 0.25220478E+04</rscale>
<asrwt>0</asrwt>
<pdfrwt beam="1">  1        1 0.29084971E+00 0.25220478E+04</pdfrwt>
<pdfrwt beam="2">  1       -1 0.12940507E+00 0.25220478E+04</pdfrwt>
<totfact> 0.16085026E+00</totfact>
</mgrwt>
</event>
<event>
 6    1  0.1614874E-005  0.1566115E+04  0.7818608E-02  0.8841640E-01
          1   -1    0    0  501    0  0.00000000000E+00  0.00000000000E+00  0.31108200351E+03  0.31108200351E+03  0.00000000000E+00 0. -1.
         -1   -1    0    0    0  501 -0.00000000000E+00 -0.00000000000E+00 -0.19711163139E+04  0.19711163139E+04  0.00000000000E+00 0.  1.
         23    2    1    2    0    0 -0.48195266412E+03  0.33410612147E+03 -0.15834251004E+04  0.16907811703E+04  0.87181686291E+02 0.  0.
         11    1    3    3    0    0 -0.15655238245E+03  0.96853679376E+02 -0.39051548621E+03  0.43173096788E+03  0.00000000000E+00 0.  1.
        -11    1    3    3    0    0 -0.32540028167E+03  0.23725244210E+03 -0.11929096142E+04  0.12590502024E+04  0.00000000000E+00 0. -1.
         22    1    1    2    0    0  0.48195266412E+03 -0.33410612147E+03 -0.76609210008E+02  0.59141714712E+03  0.00000000000E+00 0. -1.
<mgrwt>
<rscale>  0 0.15661147E+04</rscale>
<asrwt>0</asrwt>
<pdfrwt beam="1">  1        1 0.47858769E-01 0.15661147E+04</pdfrwt>
<pdfrwt beam="2">  1       -1 0.30324867E+00 0.15661147E+04</pdfrwt>
<totfact> 0.25368169E+00</totfact>
</mgrwt>
</event>
<event>
 6    1  0.1614874E-005  0.1732765E+04  0.7818608E-02  0.8742895E-01
          2   -1    0    0  501    0  0.00000000000E+00  0.00000000000E+00  0.69606950492E+03  0.69606950492E+03  0.00000000000E+00 0.  1.
         -2   -1    0    0    0  501 -0.00000000000E+00 -0.00000000000E+00 -0.10783672906E+04  0.10783672906E+04  0.00000000000E+00 0. -1.
         23    2    1    2    0    0 -0.10286544355E+03 -0.15977741595E+03  0.67133723011E+03  0.70380293251E+03  0.92383814375E+02 0.  0.
         13    1    3    3    0    0 -0.76746703897E+02 -0.38447532414E+02  0.23626462006E+03  0.25137470039E+03  0.00000000000E+00 0. -1.
        -13    1    3    3    0    0 -0.26118739651E+02 -0.12132988353E+03  0.43507261005E+03  0.45242823212E+03  0.00000000000E+00 0.  1.
         22    1    1    2    0    0  0.10286544355E+03  0.15977741595E+03 -0.10536350158E+04  0.10706338630E+04  0.00000000000E+00 0. -1.
<mgrwt>
<rscale>  0 0.17327649E+04</rscale>
<asrwt>0</asrwt>
<pdfrwt beam="1">  1        2 0.10708762E+00 0.17327649E+04</pdfrwt>
<pdfrwt beam="2">  1       -2 0.16590266E+00 0.17327649E+04</pdfrwt>
<totfact> 0.89261275E+00</totfact>
</mgrwt>
</event>
<event>
 6    1  0.1614874E-005  0.3794497E+04  0.7818608E-02  0.8047337E-01
          2   -1    0    0  501    0  0.00000000000E+00  0.00000000000E+00  0.27445980068E+04  0.27445980068E+04  0.00000000000E+00 0. -1.
         -2   -1    0    0    0  501 -0.00000000000E+00 -0.00000000000E+00 -0.13115045561E+04  0.13115045561E+04  0.00000000000E+00 0.  1.
         23    2    1    2    0    0 -0.15514882196E+04 -0.48608153672E+03 -0.32774079007E+03  0.16594531978E+04  0.54588773362E+02 0.  0.
         13    1    3    3    0    0 -0.11279381968E+04 -0.33921069324E+03 -0.21662147738E+03  0.11975948124E+04  0.00000000000E+00 0. -1.
        -13    1    3    3    0    0 -0.42355002276E+03 -0.14687084348E+03 -0.11111931269E+03  0.46185838532E+03  0.00000000000E+00 0.  1.
         22    1    1    2    0    0  0.15514882196E+04  0.48608153672E+03  0.17608342407E+04  0.23966493651E+04  0.00000000000E+00 0. -1.
<mgrwt>
<rscale>  0 0.37944975E+04</rscale>
<asrwt>0</asrwt>
<pdfrwt beam="1">  1        2 0.42224585E+00 0.37944975E+04</pdfrwt>
<pdfrwt beam="2">  1       -2 0.20176993E+00 0.37944975E+04</pdfrwt>
<totfact> 0.25933704E-01</totfact>
</mgrwt>
</event>
<event>
 6    1  0.1614874E-005  0.1867022E+04  0.7818608E-02  0.8671448E-01
          1   -1    0    0  501    0  0.00000000000E+00  0.00000000000E+00  0.12093088238E+04  0.12093088238E+04  0.00000000000E+00 0. -1.
         -1   -1    0    0    0  501 -0.00000000000E+00 -0.00000000000E+00 -0.72061238723E+03  0.72061238723E+03  0.00000000000E+00 0.  1.
         23    2    1    2    0    0  0.76307764415E+01 -0.59223377553E+03 -0.49792349023E+03  0.77917451709E+03  0.91575391539E+02 0.  0.
         11    1    3    3    0    0 -0.27778188842E+02 -0.21112816492E+03 -0.21988875764E+03  0.30610095644E+03  0.00000000000E+00 0.  1.
        -11    1    3    3    0    0  0.35408965284E+02 -0.38110561061E+03 -0.27803473260E+03  0.47307356066E+03  0.00000000000E+00 0. -1.
         22    1    1    2    0    0 -0.76307764415E+01  0.59223377553E+03  0.98661992682E+03  0.11507466939E+04  0.00000000000E+00 0. -1.
<mgrwt>
<rscale>  0 0.18670221E+04</rscale>
<asrwt>0</asrwt>
<pdfrwt beam="1">  1        1 0.18604751E+00 0.18670221E+04</pdfrwt>
<pdfrwt beam="2">  1       -1 0.11086344E+00 0.18670221E+04</pdfrwt>
<totfact> 0.73947957E+00</totfact>
</mgrwt>
</event>
<event>
 6    1  0.1614874E-005  0.1651384E+04  0.7818608E-02  0.8789588E-01
         -2   -1    0    0    0  501 -0.00000000000E+00  0.00000000000E+00  0.53873082164E+03  0.53873082164E+03  0.00000000000E+00 0.  1.
          2   -1    0    0  501    0  0.00000000000E+00 -0.00000000000E+00 -0.12655062011E+04  0.12655062011E+04  0.00000000000E+00 0. -1.
         23    2    1    2    0    0 -0.30463477051E+03  0.35771324420E+02 -0.11991498579E+04  0.12410145277E+04  0.89859586282E+02 0.  0.
         11    1    3    3    0    0 -0.11516723779E+03  0.86140823462E+01 -0.63123062125E+03  0.64170849478E+03  0.00000000000E+00 0. -1.
        -11    1    3    3    0    0 -0.18946753272E+03  0.27157242074E+02 -0.56791923665E+03  0.59930603293E+03  0.00000000000E+00 0.  1.
         22    1    1    2    0    0  0.30463477051E+03 -0.35771324420E+02  0.47237447842E+03  0.56322249504E+03  0.00000000000E+00 0.  1.
<mgrwt>
<rscale>  0 0.16513839E+04</rscale>
<asrwt>0</asrwt>
<pdfrwt beam="1">  1        2 0.19469326E+00 0.16513839E+04</pdfrwt>
<pdfrwt beam="2">  1       -2 0.82881666E-01 0.16513839E+04</pdfrwt>
<totfact> 0.21111491E+01</totfact>
</mgrwt>
</event>
<event>
 6    1  0.1614874E-005  0.3682881E+04  0.7818608E-02  0.8071766E-01
          2   -1    0    0  501    0  0.00000000000E+00  0.00000000000E+00  0.31268573223E+04  0.31268573223E+04  0.00000000000E+00 0. -1.
         -2   -1    0    0    0  501 -0.00000000000E+00 -0.00000000000E+00 -0.10844445571E+04  0.10844445571E+04  0.00000000000E+00 0.  1.
         23    2    1    2    0    0  0.23477516931E+02  0.56609504860E+03 -0.98027533857E+03  0.11359713004E+04  0.92066595670E+02 0.  0.
         13    1    3    3    0    0  0.48218270640E+01  0.47729118451E+03 -0.75647566975E+03  0.89447502131E+03  0.00000000000E+00 0. -1.
        -13    1    3    3    0    0  0.18655689867E+02  0.88803864087E+02 -0.22379966882E+03  0.24149627907E+03  0.00000000000E+00 0.  1.
         22    1    1    2    0    0 -0.23477516931E+02 -0.56609504860E+03  0.30226881038E+04  0.30753305791E+04  0.00000000000E+00 0. -1.
<mgrwt>
<rscale>  0 0.36828812E+04</rscale>
<asrwt>0</asrwt>
<pdfrwt beam="1">  1        2 0.48105497E+00 0.36828812E+04</pdfrwt>
<pdfrwt beam="2">  1       -2 0.16683762E+00 0.36828812E+04</pdfrwt>
<totfact> 0.26266809E-01</totfact>
</mgrwt>
</event>
<event>
 6    1  0.1614874E-005  0.2225756E+04  0.7818608E-02  0.8507784E-01
          1   -1    0    0  501    0  0.00000000000E+00  0.00000000000E+00  0.53069780916E+03  0.53069780916E+03  0.00000000000E+00 0. -1.
         -1   -1    0    0    0  501 -0.00000000000E+00 -0.00000000000E+00 -0.23337157570E+04  0.23337157570E+04  0.00000000000E+00 0.  1.
         23    2    1    2    0    0 -0.51607458663E+03  0.29859341393E+03 -0.21094745151E+04  0.21940355882E+04  0.91751983674E+02 0.  0.
         11    1    3    3    0    0 -0.21870860383E+03  0.16493572770E+03 -0.10782610507E+04  0.11125125353E+04  0.00000000000E+00 0. -1.
        -11    1    3    3    0    0 -0.29736598281E+03  0.13365768623E+03 -0.10312134644E+04  0.10815230529E+04  0.00000000000E+00 0.  1.
         22    1    1    2    0    0  0.51607458663E+03 -0.29859341393E+03  0.30645656723E+03  0.67037797802E+03  0.00000000000E+00 0. -1.
<mgrwt>
<rscale>  0 0.22257564E+04</rscale>
<asrwt>0</asrwt>
<pdfrwt beam="1">  1        1 0.81645815E-01 0.22257564E+04</pdfrwt>
<pdfrwt beam="2">  1       -1 0.35903320E+00 0.22257564E+04</pdfrwt>
<totfact> 0.50254017E-01</totfact>
</mgrwt>
</event>
<event>
 6    1  0.1614874E-005  0.1640068E+04  0.7818608E-02  0.8796304E-01
         -2   -1    0    0    0  501 -0.00000000000E+00  0.00000000000E+00  0.24095337989E+03  0.24095337989E+03  0.00000000000E+00 0.  1.
          2   -1    0    0  501    0  0.00000000000E+00 -0.00000000000E+00 -0.27908120205E+04  0.27908120205E+04  0.00000000000E+00 0. -1.
         23    2    1    2    0    0  0.58162474151E+03  0.44013759094E+03 -0.19613375661E+04  0.20945538479E+04  0.91117148542E+02 0.  0.
         11    1    3    3    0    0  0.20023395501E+03  0.10504509787E+03 -0.66219007342E+03  0.69973123602E+03  0.00000000000E+00 0. -1.
        -11    1    3    3    0    0  0.38139078650E+03  0.33509249308E+03 -0.12991474927E+04  0.13948226119E+04  0.00000000000E+00 0.  1.
         22    1    1    2    0    0 -0.58162474151E+03 -0.44013759094E+03 -0.58852107449E+03  0.93721155243E+03  0.00000000000E+00 0. -1.
<mgrwt>
<rscale>  0 0.16400678E+04</rscale>
<asrwt>0</asrwt>
<pdfrwt beam="1">  1        2 0.42935572E+00 0.16400678E+04</pdfrwt>
<pdfrwt beam="2">  1       -2 0.37069749E-01 0.16400678E+04</pdfrwt>
<totfact> 0.15415670E+01</totfact>
</mgrwt>
</event>
<event>
 6    1  0.1614874E-005  0.3427675E+04  0.7818608E-02  0.8131147E-01
         -2   -1    0    0    0  501 -0.00000000000E+00  0.00000000000E+00  0.14894726954E+04  0.14894726954E+04  0.00000000000E+00 0.  1.
          2   -1    0    0  501    0  0.00000000000E+00 -0.00000000000E+00 -0.19719995984E+04  0.19719995984E+04  0.00000000000E+00 0. -1.
         23    2    1    2    0    0 -0.16088955483E+04  0.40538794618E+03 -0.67041413774E+03  0.17916861143E+04  0.88316158920E+02 0.  0.
         13    1    3    3    0    0 -0.11740828607E+04  0.25618940320E+03 -0.49468557445E+03  0.12995450710E+04  0.00000000000E+00 0.  1.
        -13    1    3    3    0    0 -0.43481268759E+03  0.14919854297E+03 -0.17572856329E+03  0.49214104327E+03  0.00000000000E+00 0. -1.
         22    1    1    2    0    0  0.16088955483E+04 -0.40538794618E+03  0.18788723472E+03  0.16697861795E+04  0.00000000000E+00 0. -1.
<mgrwt>
<rscale>  0 0.34276753E+04</rscale>
<asrwt>0</asrwt>
<pdfrwt beam="1">  1        2 0.30338455E+00 0.34276753E+04</pdfrwt>
<pdfrwt beam="2">  1       -2 0.22914965E+00 0.34276753E+04</pdfrwt>
<totfact> 0.49548826E-01</totfact>
</mgrwt>
</event>
<event>
 6    1  0.1614874E-005  0.2120049E+04  0.7818608E-02  0.8552463E-01
         -1   -1    0    0    0  501 -0.00000000000E+00  0.00000000000E+00  0.11271312660E+04  0.11271312660E+04  0.00000000000E+00 0.  1.
          1   -1    0    0  501    0  0.00000000000E+00 -0.00000000000E+00 -0.99691304191E+03  0.99691304191E+03  0.00000000000E+00 0. -1.
         23    2    1    2    0    0 -0.10558772932E+04  0.68109105760E+02  0.48906528492E+02  0.10628528546E+04  0.88026321763E+02 0.  0.
         13    1    3    3    0    0 -0.39630229580E+03 -0.15026392439E+02  0.51468362643E+01  0.39662046348E+03  0.00000000000E+00 0.  1.
        -13    1    3    3    0    0 -0.65957499744E+03  0.83135498199E+02  0.43759692227E+02  0.66623239112E+03  0.00000000000E+00 0. -1.
         22    1    1    2    0    0  0.10558772932E+04 -0.68109105760E+02  0.81311695575E+02  0.10611914533E+04  0.00000000000E+00 0. -1.
<mgrwt>
<rscale>  0 0.21200489E+04</rscale>
<asrwt>0</asrwt>
<pdfrwt beam="1">  1        1 0.15337124E+00 0.21200489E+04</pdfrwt>
<pdfrwt beam="2">  1       -1 0.17340481E+00 0.21200489E+04</pdfrwt>
<totfact> 0.32455140E+00</totfact>
</mgrwt>
</event>
<event>
 6    1  0.1614874E-005  0.2157448E+04  0.7818608E-02  0.8536351E-01
          1   -1    0    0  501    0  0.00000000000E+00  0.00000000000E+00  0.11462429110E+04  0.11462429110E+04  0.00000000000E+00 0. -1.
         -1   -1    0    0    0  501 -0.00000000000E+00 -0.00000000000E+00 -0.10151825969E+04  0.10151825969E+04  0.00000000000E+00 0.  1.
         23    2    1    2    0    0  0.35123903441E+03 -0.42313939759E+03  0.99309627376E+03  0.11389179017E+04  0.92075885812E+02 0.  0.
         13    1    3    3    0    0  0.30597895579E+03 -0.32884680217E+03  0.74910963693E+03  0.87345783460E+03  0.00000000000E+00 0. -1.
        -13    1    3    3    0    0  0.45260078620E+02 -0.94292595418E+02  0.24398663682E+03  0.26546006708E+03  0.00000000000E+00 0.  1.
         22    1    1    2    0    0 -0.35123903441E+03  0.42313939759E+03 -0.86203595966E+03  0.10225076062E+04  0.00000000000E+00 0.  1.
<mgrwt>
<rscale>  0 0.21574484E+04</rscale>
<asrwt>0</asrwt>
<pdfrwt beam="1">  1        1 0.17634506E+00 0.21574484E+04</pdfrwt>
<pdfrwt beam="2">  1       -1 0.15618194E+00 0.21574484E+04</pdfrwt>
<totfact> 0.33483883E+00</totfact>
</mgrwt>
</event>
<event>
 6    1  0.1614874E-005  0.9099796E+03  0.7818608E-02  0.9413192E-01
          1   -1    0    0  501    0  0.00000000000E+00  0.00000000000E+00  0.65531923141E+03  0.65531923141E+03  0.00000000000E+00 0. -1.
         -1   -1    0    0    0  501 -0.00000000000E+00 -0.00000000000E+00 -0.31590055366E+03  0.31590055366E+03  0.00000000000E+00 0.  1.
         23    2    1    2    0    0  0.58508993156E+02  0.43853533396E+03  0.26116821330E+03  0.52193181884E+03  0.92018728916E+02 0.  0.
         11    1    3    3    0    0 -0.16623412690E+02  0.65801219798E+02  0.16704367972E+02  0.69894021817E+02  0.00000000000E+00 0. -1.
        -11    1    3    3    0    0  0.75132405846E+02  0.37273411416E+03  0.24446384532E+03  0.45203779702E+03  0.00000000000E+00 0.  1.
         22    1    1    2    0    0 -0.58508993156E+02 -0.43853533396E+03  0.78250464460E+02  0.44928796623E+03  0.00000000000E+00 0. -1.
<mgrwt>
<rscale>  0 0.90997958E+03</rscale>
<asrwt>0</asrwt>
<pdfrwt beam="1">  1        1 0.10081834E+00 0.90997958E+03</pdfrwt>
<pdfrwt beam="2">  1       -1 0.48600085E-01 0.90997958E+03</pdfrwt>
<totfact> 0.12836521E+02</totfact>
</mgrwt>
</event>
<event>
 6    1  0.1614874E-005  0.1580913E+04  0.7818608E-02  0.8832361E-01
         -1   -1    0    0    0  501 -0.00000000000E+00  0.00000000000E+00  0.29772888553E+03  0.29772888553E+03  0.00000000000E+00 0.  1.
          1   -1    0    0  501    0  0.00000000000E+00 -0.00000000000E+00 -0.20986249066E+04  0.20986249066E+04  0.00000000000E+00 0. -1.
         23    2    1    2    0    0  0.59973465239E+03  0.22528475861E+03 -0.20820796025E+03  0.67964469190E+03  0.90174701404E+02 0.  0.
         11    1    3    3    0    0  0.65048515996E+02  0.11875510883E+02 -0.49102668301E+02  0.82361454736E+02  0.00000000000E+00 0. -1.
        -11    1    3    3    0    0  0.53468613639E+03  0.21340924772E+03 -0.15910529195E+03  0.59728323716E+03  0.00000000000E+00 0.  1.
         22    1    1    2    0    0 -0.59973465239E+03 -0.22528475861E+03 -0.15926880608E+04  0.17167091002E+04  0.00000000000E+00 0. -1.
<mgrwt>
<rscale>  0 0.15809127E+04</rscale>
<asrwt>0</asrwt>
<pdfrwt beam="1">  1        1 0.32286538E+00 0.15809127E+04</pdfrwt>
<pdfrwt beam="2">  1       -1 0.45804443E-01 0.15809127E+04</pdfrwt>
<totfact> 0.11635985E+01</totfact>
</mgrwt>
</event>
<event>
 6    1  0.1614874E-005  0.3874130E+04  0.7818608E-02  0.8030431E-01
          2   -1    0    0  501    0  0.00000000000E+00  0.00000000000E+00  0.30924125635E+04  0.30924125635E+04  0.00000000000E+00 0. -1.
         -2   -1    0    0    0  501 -0.00000000000E+00 -0.00000000000E+00 -0.12133638872E+04  0.12133638872E+04  0.00000000000E+00 0.  1.
         23    2    1    2    0    0 -0.11383508424E+04  0.12362934128E+04 -0.12839182276E+03  0.16877463897E+04  0.87973705062E+02 0.  0.
         13    1    3    3    0    0 -0.63601435005E+03  0.62766622224E+03 -0.58038157489E+02  0.89545941714E+03  0.00000000000E+00 0.  1.
        -13    1    3    3    0    0 -0.50233649233E+03  0.60862719060E+03 -0.70353665275E+02  0.79228697256E+03  0.00000000000E+00 0. -1.
         22    1    1    2    0    0  0.11383508424E+04 -0.12362934128E+04  0.20074404991E+04  0.26180300610E+04  0.00000000000E+00 0. -1.
<mgrwt>
<rscale>  0 0.38741305E+04</rscale>
<asrwt>0</asrwt>
<pdfrwt beam="1">  1        2 0.47575578E+00 0.38741305E+04</pdfrwt>
<pdfrwt beam="2">  1       -2 0.18667137E+00 0.38741305E+04</pdfrwt>
<totfact> 0.19779907E-01</totfact>
</mgrwt>
</event>
<event>
 6    1  0.1614874E-005  0.1855507E+04  0.7818608E-02  0.8677326E-01
          2   -1    0    0  501    0  0.00000000000E+00  0.00000000000E+00  0.79306364752E+03  0.79306364752E+03  0.00000000000E+00 0. -1.
         -2   -1    0    0    0  501 -0.00000000000E+00 -0.00000000000E+00 -0.10853184645E+04  0.10853184645E+04  0.00000000000E+00 0.  1.
         23    2    1    2    0    0  0.45024300974E+03  0.97030732835E+02 -0.95909522633E+03  0.10679440438E+04  0.92233923478E+02 0.  0.
         11    1    3    3    0    0  0.19339526714E+03 -0.41531899472E+01 -0.41149582960E+03  0.45469527831E+03  0.00000000000E+00 0. -1.
        -11    1    3    3    0    0  0.25684774260E+03  0.10118392278E+03 -0.54759939673E+03  0.61324876552E+03  0.00000000000E+00 0.  1.
         22    1    1    2    0    0 -0.45024300974E+03 -0.97030732835E+02  0.66684040932E+03  0.81043806823E+03  0.00000000000E+00 0. -1.
<mgrwt>
<rscale>  0 0.18555071E+04</rscale>
<asrwt>0</asrwt>
<pdfrwt beam="1">  1        2 0.12200979E+00 0.18555071E+04</pdfrwt>
<pdfrwt beam="2">  1       -2 0.16697207E+00 0.18555071E+04</pdfrwt>
<totfact> 0.73344640E+00</totfact>
</mgrwt>
</event>
<event>
 6    1  0.1614874E-005  0.2496228E+04  0.7818608E-02  0.8404331E-01
         -2   -1    0    0    0  501 -0.00000000000E+00  0.00000000000E+00  0.11808610115E+04  0.11808610115E+04  0.00000000000E+00 0.  1.
          2   -1    0    0  501    0  0.00000000000E+00 -0.00000000000E+00 -0.13191971764E+04  0.13191971764E+04  0.00000000000E+00 0. -1.
         23    2    1    2    0    0 -0.88024937073E+03 -0.13516536329E+03 -0.94270998966E+03  0.13000057391E+04  0.90576856192E+02 0.  0.
         11    1    3    3    0    0 -0.37779244221E+03 -0.99717033265E+02 -0.38598544660E+03  0.54923162791E+03  0.00000000000E+00 0.  1.
        -11    1    3    3    0    0 -0.50245692851E+03 -0.35448330022E+02 -0.55672454307E+03  0.75077411115E+03  0.00000000000E+00 0. -1.
         22    1    1    2    0    0  0.88024937073E+03  0.13516536329E+03  0.80437382478E+03  0.12000524489E+04  0.00000000000E+00 0.  1.
<mgrwt>
<rscale>  0 0.24962280E+04</rscale>
<asrwt>0</asrwt>
<pdfrwt beam="1">  1        2 0.20295341E+00 0.24962280E+04</pdfrwt>
<pdfrwt beam="2">  1       -2 0.18167093E+00 0.24962280E+04</pdfrwt>
<totfact> 0.25382501E+00</totfact>
</mgrwt>
</event>
<event>
 6    1  0.1614874E-005  0.1676934E+04  0.7818608E-02  0.8774630E-01
         -1   -1    0    0    0  501 -0.00000000000E+00  0.00000000000E+00  0.28060378248E+03  0.28060378248E+03  0.00000000000E+00 0.  1.
          1   -1    0    0  501    0  0.00000000000E+00 -0.00000000000E+00 -0.25054089536E+04  0.25054089536E+04  0.00000000000E+00 0. -1.
         23    2    1    2    0    0 -0.39785521852E+03  0.32629046855E+03 -0.21067678040E+02  0.52300297402E+03  0.91290848404E+02 0.  0.
         13    1    3    3    0    0 -0.14262490804E+03  0.13246996562E+03  0.34648384264E+02  0.19771359770E+03  0.00000000000E+00 0.  1.
        -13    1    3    3    0    0 -0.25523031048E+03  0.19382050294E+03 -0.55716062304E+02  0.32528937632E+03  0.00000000000E+00 0. -1.
         22    1    1    2    0    0  0.39785521852E+03 -0.32629046855E+03 -0.22037374930E+04  0.22630097620E+04  0.00000000000E+00 0. -1.
<mgrwt>
<rscale>  0 0.16769344E+04</rscale>
<asrwt>0</asrwt>
<pdfrwt beam="1">  1        1 0.38544752E+00 0.16769344E+04</pdfrwt>
<pdfrwt beam="2">  1       -1 0.43169814E-01 0.16769344E+04</pdfrwt>
<totfact> 0.67872082E+00</totfact>
</mgrwt>
</event>
<event>
 6    1  0.1614874E-005  0.2137745E+04  0.7818608E-02  0.8544796E-01
          1   -1    0    0  501    0  0.00000000000E+00  0.00000000000E+00  0.10746141848E+04  0.10746141848E+04  0.00000000000E+00 0. -1.
         -1   -1    0    0    0  501 -0.00000000000E+00 -0.00000000000E+00 -0.10631617529E+04  0.10631617529E+04  0.00000000000E+00 0.  1.
         23    2    1    2    0    0 -0.94281830245E+03 -0.30102784463E+03  0.40428576983E+03  0.10729556965E+04  0.90900101042E+02 0.  0.
         11    1    3    3    0    0 -0.67427929024E+03 -0.20144607371E+03  0.32889245023E+03  0.77679040009E+03  0.00000000000E+00 0. -1.
        -11    1    3    3    0    0 -0.26853901221E+03 -0.99581770915E+02  0.75393319605E+02  0.29616529644E+03  0.00000000000E+00 0.  1.
         22    1    1    2    0    0  0.94281830245E+03  0.30102784463E+03 -0.39283333787E+03  0.10648202412E+04  0.00000000000E+00 0.  1.
<mgrwt>
<rscale>  0 0.21377453E+04</rscale>
<asrwt>0</asrwt>
<pdfrwt beam="1">  1        1 0.16532526E+00 0.21377453E+04</pdfrwt>
<pdfrwt beam="2">  1       -1 0.16356335E+00 0.21377453E+04</pdfrwt>
<totfact> 0.33373965E+00</totfact>
</mgrwt>
</event>
<event>
 6    1  0.1614874E-005  0.4571063E+04  0.7818608E-02  0.7898313E-01
         -2   -1    0    0    0  501 -0.00000000000E+00  0.00000000000E+00  0.39837647213E+04  0.39837647213E+04  0.00000000000E+00 0.  1.
          2   -1    0    0  501    0  0.00000000000E+00 -0.00000000000E+00 -0.13112356231E+04  0.13112356231E+04  0.00000000000E+00 0. -1.
         23    2    1    2    0    0  0.18471657259E+04 -0.30561720880E+03  0.28533010645E+04  0.34140161337E+04  0.93574032343E+02 0.  0.
         13    1    3    3    0    0  0.14244916222E+04 -0.21730150583E+03  0.22576610479E+04  0.26783259200E+04  0.00000000000E+00 0.  1.
        -13    1    3    3    0    0  0.42267410366E+03 -0.88315702974E+02  0.59564001659E+03  0.73569021379E+03  0.00000000000E+00 0. -1.
         22    1    1    2    0    0 -0.18471657259E+04  0.30561720880E+03 -0.18077196630E+03  0.18809842107E+04  0.00000000000E+00 0. -1.
<mgrwt>
<rscale>  0 0.45710630E+04</rscale>
<asrwt>0</asrwt>
<pdfrwt beam="1">  1        2 0.20172856E+00 0.45710630E+04</pdfrwt>
<pdfrwt beam="2">  1       -2 0.61288688E+00 0.45710630E+04</pdfrwt>
<totfact> 0.55898457E-03</totfact>
</mgrwt>
</event>
<event>
 6    1  0.1614874E-005  0.2847961E+04  0.7818608E-02  0.8288531E-01
         -3   -1    0    0    0  501 -0.00000000000E+00  0.00000000000E+00  0.20316395801E+04  0.20316395801E+04  0.00000000000E+00 0.  1.
          3   -1    0    0  501    0  0.00000000000E+00 -0.00000000000E+00 -0.99807108527E+03  0.99807108527E+03  0.00000000000E+00 0. -1.
         23    2    1    2    0    0  0.31823888629E+03  0.11661483568E+04 -0.28046349780E+03  0.12442532852E+04  0.91260535016E+02 0.  0.
         13    1    3    3    0    0  0.23543421907E+03  0.81571633548E+03 -0.23757460061E+03  0.88162582899E+03  0.00000000000E+00 0.  1.
        -13    1    3    3    0    0  0.82804667222E+02  0.35043202133E+03 -0.42888897197E+02  0.36262745620E+03  0.00000000000E+00 0. -1.
         22    1    1    2    0    0 -0.31823888629E+03 -0.11661483568E+04  0.13140319927E+04  0.17854573802E+04  0.00000000000E+00 0.  1.
<mgrwt>
<rscale>  0 0.28479612E+04</rscale>
<asrwt>0</asrwt>
<pdfrwt beam="1">  1        3 0.15354940E+00 0.28479612E+04</pdfrwt>
<pdfrwt beam="2">  1       -3 0.31255993E+00 0.28479612E+04</pdfrwt>
<totfact> 0.22155512E-02</totfact>
</mgrwt>
</event>
<event>
 6    1  0.1614874E-005  0.2068873E+04  0.7818608E-02  0.8575080E-01
          1   -1    0    0  501    0  0.00000000000E+00  0.00000000000E+00  0.12440782598E+04  0.12440782598E+04  0.00000000000E+00 0. -1.
         -1   -1    0    0    0  501 -0.00000000000E+00 -0.00000000000E+00 -0.86012169055E+03  0.86012169055E+03  0.00000000000E+00 0.  1.
         23    2    1    2    0    0  0.60805304999E+03 -0.79325056036E+03  0.45555703264E+03  0.11021512542E+04  0.90720527191E+02 0.  0.
         13    1    3    3    0    0  0.95181684077E+02 -0.15933775871E+03  0.54395895724E+02  0.19340886175E+03  0.00000000000E+00 0. -1.
        -13    1    3    3    0    0  0.51287136591E+03 -0.63391280165E+03  0.40116113691E+03  0.90874239245E+03  0.00000000000E+00 0.  1.
         22    1    1    2    0    0 -0.60805304999E+03  0.79325056036E+03 -0.71600463381E+02  0.10020486962E+04  0.00000000000E+00 0. -1.
<mgrwt>
<rscale>  0 0.20688728E+04</rscale>
<asrwt>0</asrwt>
<pdfrwt beam="1">  1        1 0.19139666E+00 0.20688728E+04</pdfrwt>
<pdfrwt beam="2">  1       -1 0.13232641E+00 0.20688728E+04</pdfrwt>
<totfact> 0.44373065E+00</totfact>
</mgrwt>
</event>
<event>
 6    1  0.2444355E-005  0.2976697E+04  0.7818608E-02  0.8250417E-01
          1   -1    0    0  501    0  0.00000000000E+00  0.00000000000E+00  0.19291030069E+04  0.19291030069E+04  0.00000000000E+00 0. -1.
         -1   -1    0    0    0  501 -0.00000000000E+00 -0.00000000000E+00 -0.11482960987E+04  0.11482960987E+04  0.00000000000E+00 0.  1.
         23    2    1    2    0    0 -0.20327023663E+03 -0.14456981690E+04  0.68253797284E+03  0.16141770553E+04  0.91364634341E+02 0.  0.
         13    1    3    3    0    0 -0.38389804486E+02 -0.58238984286E+03  0.28574133294E+03  0.64984599368E+03  0.00000000000E+00 0. -1.
        -13    1    3    3    0    0 -0.16488043214E+03 -0.86330832614E+03  0.39679663990E+03  0.96433106158E+03  0.00000000000E+00 0.  1.
         22    1    1    2    0    0  0.20327023663E+03  0.14456981690E+04  0.98268935379E+02  0.14632220503E+04  0.00000000000E+00 0.  1.
<mgrwt>
<rscale>  0 0.29766971E+04</rscale>
<asrwt>0</asrwt>
<pdfrwt beam="1">  1        1 0.29678508E+00 0.29766971E+04</pdfrwt>
<pdfrwt beam="2">  1       -1 0.17666094E+00 0.29766971E+04</pdfrwt>
<totfact> 0.62454688E-01</totfact>
</mgrwt>
</event>
<event>
 6    1  0.1614874E-005  0.2802525E+04  0.7818608E-02  0.8302485E-01
         -2   -1    0    0    0  501 -0.00000000000E+00  0.00000000000E+00  0.10485840196E+04  0.10485840196E+04  0.00000000000E+00 0.  1.
          2   -1    0    0  501    0  0.00000000000E+00 -0.00000000000E+00 -0.18725607221E+04  0.18725607221E+04  0.00000000000E+00 0. -1.
         23    2    1    2    0    0 -0.12664899022E+04  0.38616561906E+03  0.60648476361E+02  0.13287621668E+04  0.93862135125E+02 0.  0.
         11    1    3    3    0    0 -0.79551033341E+03  0.28971125474E+03  0.38291166057E+02  0.84748776693E+03  0.00000000000E+00 0.  1.
        -11    1    3    3    0    0 -0.47097956884E+03  0.96454364318E+02  0.22357310304E+02  0.48127439988E+03  0.00000000000E+00 0. -1.
         22    1    1    2    0    0  0.12664899022E+04 -0.38616561906E+03 -0.88462517887E+03  0.15923825749E+04  0.00000000000E+00 0. -1.
<mgrwt>
<rscale>  0 0.28025255E+04</rscale>
<asrwt>0</asrwt>
<pdfrwt beam="1">  1        2 0.28808626E+00 0.28025255E+04</pdfrwt>
<pdfrwt beam="2">  1       -2 0.16132062E+00 0.28025255E+04</pdfrwt>
<totfact> 0.16854003E+00</totfact>
</mgrwt>
</event>
<event>
 6    1  0.1614874E-005  0.6825679E+03  0.7818608E-02  0.9747517E-01
          1   -1    0    0  501    0  0.00000000000E+00  0.00000000000E+00  0.46918510777E+03  0.46918510777E+03  0.00000000000E+00 0. -1.
         -1   -1    0    0    0  501 -0.00000000000E+00 -0.00000000000E+00 -0.24824899224E+03  0.24824899224E+03  0.00000000000E+00 0.  1.
         23    2    1    2    0    0 -0.32345854523E+03 -0.56152556210E+02  0.42191582771E+02  0.34363181532E+03  0.92326349363E+02 0.  0.
         13    1    3    3    0    0 -0.22393827185E+03 -0.41240594282E+02 -0.14437000072E+02  0.22816126575E+03  0.00000000000E+00 0.  1.
        -13    1    3    3    0    0 -0.99520273380E+02 -0.14911961928E+02  0.56628582843E+02  0.11547054957E+03  0.00000000000E+00 0. -1.
         22    1    1    2    0    0  0.32345854523E+03  0.56152556210E+02  0.17874453276E+03  0.37380228470E+03  0.00000000000E+00 0.  1.
<mgrwt>
<rscale>  0 0.68256789E+03</rscale>
<asrwt>0</asrwt>
<pdfrwt beam="1">  1        1 0.72182324E-01 0.68256789E+03</pdfrwt>
<pdfrwt beam="2">  1       -1 0.38192153E-01 0.68256789E+03</pdfrwt>
<totfact> 0.32461960E+02</totfact>
</mgrwt>
</event>
<event>
 6    1  0.1614874E-005  0.2103290E+04  0.7818608E-02  0.8559795E-01
          1   -1    0    0  501    0  0.00000000000E+00  0.00000000000E+00  0.89520421012E+03  0.89520421012E+03  0.00000000000E+00 0. -1.
         -1   -1    0    0    0  501 -0.00000000000E+00 -0.00000000000E+00 -0.12354246035E+04  0.12354246035E+04  0.00000000000E+00 0.  1.
         23    2    1    2    0    0  0.97487934836E+02  0.47979062118E+03 -0.11110405095E+04  0.12174658549E+04  0.90050855195E+02 0.  0.
         11    1    3    3    0    0  0.69219198391E+02  0.45206343317E+03 -0.10405211071E+04  0.11365899962E+04  0.00000000000E+00 0. -1.
        -11    1    3    3    0    0  0.28268736445E+02  0.27727188014E+02 -0.70519402348E+02  0.80875858715E+02  0.00000000000E+00 0.  1.
         22    1    1    2    0    0 -0.97487934836E+02 -0.47979062118E+03  0.77082011615E+03  0.91316295867E+03  0.00000000000E+00 0. -1.
<mgrwt>
<rscale>  0 0.21032901E+04</rscale>
<asrwt>0</asrwt>
<pdfrwt beam="1">  1        1 0.13772372E+00 0.21032901E+04</pdfrwt>
<pdfrwt beam="2">  1       -1 0.19006532E+00 0.21032901E+04</pdfrwt>
<totfact> 0.29799013E+00</totfact>
</mgrwt>
</event>
<event>
 6    1  0.1614874E-005  0.1969618E+04  0.7818608E-02  0.8620958E-01
          4   -1    0    0  501    0  0.00000000000E+00  0.00000000000E+00  0.11157725432E+04  0.11157725432E+04  0.00000000000E+00 0. -1.
         -4   -1    0    0    0  501 -0.00000000000E+00 -0.00000000000E+00 -0.86921755722E+03  0.86921755722E+03  0.00000000000E+00 0.  1.
         23    2    1    2    0    0 -0.58909178844E+03 -0.61196859057E+03  0.62165152257E+03  0.10564255615E+04  0.89719900045E+02 0.  0.
         11    1    3    3    0    0 -0.14962655607E+03 -0.10999245114E+03  0.11195101790E+03  0.21683974728E+03  0.00000000000E+00 0.  1.
        -11    1    3    3    0    0 -0.43946523237E+03 -0.50197613943E+03  0.50970050467E+03  0.83958581424E+03  0.00000000000E+00 0. -1.
         22    1    1    2    0    0  0.58909178844E+03  0.61196859057E+03 -0.37509653663E+03  0.92856453887E+03  0.00000000000E+00 0.  1.
<mgrwt>
<rscale>  0 0.19696183E+04</rscale>
<asrwt>0</asrwt>
<pdfrwt beam="1">  1        4 0.17165732E+00 0.19696183E+04</pdfrwt>
<pdfrwt beam="2">  1       -4 0.13372578E+00 0.19696183E+04</pdfrwt>
<totfact> 0.15431294E-01</totfact>
</mgrwt>
</event>
<event>
 6    1  0.1614874E-005  0.1064443E+04  0.7818608E-02  0.9240558E-01
          1   -1    0    0  501    0  0.00000000000E+00  0.00000000000E+00  0.16732017778E+03  0.16732017778E+03  0.00000000000E+00 0. -1.
         -1   -1    0    0    0  501 -0.00000000000E+00 -0.00000000000E+00 -0.16929200634E+04  0.16929200634E+04  0.00000000000E+00 0.  1.
         23    2    1    2    0    0 -0.16622926263E+03  0.44969473720E+03 -0.11564103682E+04  0.12551299833E+04  0.90602487988E+02 0.  0.
         13    1    3    3    0    0 -0.56868054778E+02  0.26440455316E+03 -0.58278121243E+03  0.64247777000E+03  0.00000000000E+00 0.  1.
        -13    1    3    3    0    0 -0.10936120785E+03  0.18529018404E+03 -0.57362915581E+03  0.61265221332E+03  0.00000000000E+00 0. -1.
         22    1    1    2    0    0  0.16622926263E+03 -0.44969473720E+03 -0.36918951737E+03  0.60511025785E+03  0.00000000000E+00 0. -1.
<mgrwt>
<rscale>  0 0.10644429E+04</rscale>
<asrwt>0</asrwt>
<pdfrwt beam="1">  1        1 0.25741565E-01 0.10644429E+04</pdfrwt>
<pdfrwt beam="2">  1       -1 0.26044925E+00 0.10644429E+04</pdfrwt>
<totfact> 0.11251262E+01</totfact>
</mgrwt>
</event>
<event>
 6    1  0.1614874E-005  0.1963883E+04  0.7818608E-02  0.8623695E-01
          2   -1    0    0  501    0  0.00000000000E+00  0.00000000000E+00  0.14604399112E+04  0.14604399112E+04  0.00000000000E+00 0. -1.
         -2   -1    0    0    0  501 -0.00000000000E+00 -0.00000000000E+00 -0.66021818279E+03  0.66021818279E+03  0.00000000000E+00 0.  1.
         23    2    1    2    0    0 -0.34510971594E+03  0.37612823694E+03 -0.50210329019E+03  0.72186446349E+03  0.91692000588E+02 0.  0.
         11    1    3    3    0    0 -0.17230868683E+03  0.12130496410E+03 -0.20091445866E+03  0.29115596777E+03  0.00000000000E+00 0.  1.
        -11    1    3    3    0    0 -0.17280102911E+03  0.25482327285E+03 -0.30118883153E+03  0.43070849572E+03  0.00000000000E+00 0. -1.
         22    1    1    2    0    0  0.34510971594E+03 -0.37612823694E+03  0.13023250186E+04  0.13987936305E+04  0.00000000000E+00 0. -1.
<mgrwt>
<rscale>  0 0.19638829E+04</rscale>
<asrwt>0</asrwt>
<pdfrwt beam="1">  1        2 0.22468306E+00 0.19638829E+04</pdfrwt>
<pdfrwt beam="2">  1       -2 0.10157203E+00 0.19638829E+04</pdfrwt>
<totfact> 0.99134933E+00</totfact>
</mgrwt>
</event>
<event>
 6    1  0.1614874E-005  0.1717713E+04  0.7818608E-02  0.8751326E-01
         -2   -1    0    0    0  501 -0.00000000000E+00  0.00000000000E+00  0.29165466769E+03  0.29165466769E+03  0.00000000000E+00 0. -1.
          2   -1    0    0  501    0  0.00000000000E+00 -0.00000000000E+00 -0.25291374154E+04  0.25291374154E+04  0.00000000000E+00 0.  1.
         23    2    1    2    0    0 -0.31008103993E+03  0.47902320273E+03 -0.72353237948E+02  0.58172994146E+03  0.86955469457E+02 0.  0.
         13    1    3    3    0    0 -0.20181854497E+03  0.31642355370E+03 -0.88883222698E+02  0.38568746117E+03  0.00000000000E+00 0. -1.
        -13    1    3    3    0    0 -0.10826249496E+03  0.16259964903E+03  0.16529984749E+02  0.19604248029E+03  0.00000000000E+00 0.  1.
         22    1    1    2    0    0  0.31008103993E+03 -0.47902320273E+03 -0.21651295098E+04  0.22390621417E+04  0.00000000000E+00 0.  1.
<mgrwt>
<rscale>  0 0.17177133E+04</rscale>
<asrwt>0</asrwt>
<pdfrwt beam="1">  1        2 0.38909807E+00 0.17177133E+04</pdfrwt>
<pdfrwt beam="2">  1       -2 0.44869948E-01 0.17177133E+04</pdfrwt>
<totfact> 0.15010791E+01</totfact>
</mgrwt>
</event>
<event>
 6    1  0.1897628E-005  0.3028928E+04  0.7818608E-02  0.8235518E-01
          1   -1    0    0  501    0  0.00000000000E+00  0.00000000000E+00  0.18052062022E+04  0.18052062022E+04  0.00000000000E+00 0. -1.
         -1   -1    0    0    0  501 -0.00000000000E+00 -0.00000000000E+00 -0.12705476529E+04  0.12705476529E+04  0.00000000000E+00 0.  1.
         23    2    1    2    0    0  0.89638199496E+03 -0.30998940058E+03  0.14646674207E+04  0.17474050266E+04  0.92625936510E+02 0.  0.
         11    1    3    3    0    0  0.75270772432E+03 -0.27443903025E+03  0.11755406341E+04  0.14225967391E+04  0.00000000000E+00 0.  1.
        -11    1    3    3    0    0  0.14367427064E+03 -0.35550370336E+02  0.28912678664E+03  0.32480828750E+03  0.00000000000E+00 0. -1.
         22    1    1    2    0    0 -0.89638199496E+03  0.30998940058E+03 -0.93000887144E+03  0.13283488286E+04  0.00000000000E+00 0.  1.
<mgrwt>
<rscale>  0 0.30289275E+04</rscale>
<asrwt>0</asrwt>
<pdfrwt beam="1">  1        1 0.27772403E+00 0.30289275E+04</pdfrwt>
<pdfrwt beam="2">  1       -1 0.19546887E+00 0.30289275E+04</pdfrwt>
<totfact> 0.55508686E-01</totfact>
</mgrwt>
</event>
<event>
 6    1  0.1614874E-005  0.2008914E+04  0.7818608E-02  0.8602464E-01
         -1   -1    0    0    0  501 -0.00000000000E+00  0.00000000000E+00  0.82078912841E+03  0.82078912841E+03  0.00000000000E+00 0.  1.
          1   -1    0    0  501    0  0.00000000000E+00 -0.00000000000E+00 -0.12292244764E+04  0.12292244764E+04  0.00000000000E+00 0. -1.
         23    2    1    2    0    0 -0.27407447774E+03 -0.82788464054E+02 -0.11850032613E+04  0.12223491358E+04  0.89072618546E+02 0.  0.
         13    1    3    3    0    0 -0.17672309196E+03 -0.40423050940E+02 -0.90309379431E+03  0.92110991505E+03  0.00000000000E+00 0.  1.
        -13    1    3    3    0    0 -0.97351385787E+02 -0.42365413115E+02 -0.28190946702E+03  0.30123922079E+03  0.00000000000E+00 0. -1.
         22    1    1    2    0    0  0.27407447774E+03  0.82788464054E+02  0.77656791336E+03  0.82766446896E+03  0.00000000000E+00 0.  1.
<mgrwt>
<rscale>  0 0.20089142E+04</rscale>
<asrwt>0</asrwt>
<pdfrwt beam="1">  1        1 0.18911146E+00 0.20089142E+04</pdfrwt>
<pdfrwt beam="2">  1       -1 0.12627525E+00 0.20089142E+04</pdfrwt>
<totfact> 0.51458799E+00</totfact>
</mgrwt>
</event>
<event>
 6    1  0.1614874E-005  0.4362399E+04  0.7818608E-02  0.7935180E-01
          3   -1    0    0  501    0  0.00000000000E+00  0.00000000000E+00  0.49535387214E+04  0.49535387214E+04  0.00000000000E+00 0. -1.
         -3   -1    0    0    0  501 -0.00000000000E+00 -0.00000000000E+00 -0.96045099601E+03  0.96045099601E+03  0.00000000000E+00 0.  1.
         23    2    1    2    0    0  0.11105485410E+04 -0.33039794602E+03 -0.50643449180E+03  0.12676813928E+04  0.89773907395E+02 0.  0.
         11    1    3    3    0    0  0.77814048249E+03 -0.23108044383E+03 -0.39906518587E+03  0.90451854851E+03  0.00000000000E+00 0.  1.
        -11    1    3    3    0    0  0.33240805850E+03 -0.99317502189E+02 -0.10736930592E+03  0.36316284426E+03  0.00000000000E+00 0. -1.
         22    1    1    2    0    0 -0.11105485410E+04  0.33039794602E+03  0.44995222172E+04  0.46463083247E+04  0.00000000000E+00 0. -1.
<mgrwt>
<rscale>  0 0.43623990E+04</rscale>
<asrwt>0</asrwt>
<pdfrwt beam="1">  1        3 0.76208286E+00 0.43623990E+04</pdfrwt>
<pdfrwt beam="2">  1       -3 0.14776170E+00 0.43623990E+04</pdfrwt>
<totfact> 0.84347482E-05</totfact>
</mgrwt>
</event>
<event>
 6    1  0.1614874E-005  0.3135990E+04  0.7818608E-02  0.8205930E-01
         -2   -1    0    0    0  501 -0.00000000000E+00  0.00000000000E+00  0.12341121464E+04  0.12341121464E+04  0.00000000000E+00 0. -1.
          2   -1    0    0  501    0  0.00000000000E+00 -0.00000000000E+00 -0.19922084414E+04  0.19922084414E+04  0.00000000000E+00 0.  1.
         23    2    1    2    0    0  0.79316555634E+03  0.12711700409E+04 -0.85063682982E+03  0.17251381795E+04  0.86797750590E+02 0.  0.
         11    1    3    3    0    0  0.50285105241E+03  0.86800232571E+03 -0.54085236465E+03  0.11396527974E+04  0.00000000000E+00 0.  1.
        -11    1    3    3    0    0  0.29031450394E+03  0.40316771518E+03 -0.30978446517E+03  0.58548538207E+03  0.00000000000E+00 0. -1.
         22    1    1    2    0    0 -0.79316555634E+03 -0.12711700409E+04  0.92540534807E+02  0.15011824084E+04  0.00000000000E+00 0. -1.
<mgrwt>
<rscale>  0 0.31359902E+04</rscale>
<asrwt>0</asrwt>
<pdfrwt beam="1">  1        2 0.30649361E+00 0.31359902E+04</pdfrwt>
<pdfrwt beam="2">  1       -2 0.18986341E+00 0.31359902E+04</pdfrwt>
<totfact> 0.88738150E-01</totfact>
</mgrwt>
</event>
<event>
 6    1  0.1614874E-005  0.1816640E+04  0.7818608E-02  0.8697500E-01
          1   -1    0    0  501    0  0.00000000000E+00  0.00000000000E+00  0.91224802065E+03  0.91224802065E+03  0.00000000000E+00 0. -1.
         -1   -1    0    0    0  501 -0.00000000000E+00 -0.00000000000E+00 -0.90440871545E+03  0.90440871545E+03  0.00000000000E+00 0.  1.
         23    2    1    2    0    0 -0.49813735554E+03  0.27487796771E+02 -0.75227635150E+03  0.90744157151E+03  0.92919818742E+02 0.  0.
         13    1    3    3    0    0 -0.27645330492E+03  0.86980671657E+01 -0.33381124778E+03  0.43351128627E+03  0.00000000000E+00 0. -1.
        -13    1    3    3    0    0 -0.22168405062E+03  0.18789729606E+02 -0.41846510372E+03  0.47393028524E+03  0.00000000000E+00 0.  1.
         22    1    1    2    0    0  0.49813735554E+03 -0.27487796771E+02  0.76011565671E+03  0.90921516459E+03  0.00000000000E+00 0. -1.
<mgrwt>
<rscale>  0 0.18166398E+04</rscale>
<asrwt>0</asrwt>
<pdfrwt beam="1">  1        1 0.14034585E+00 0.18166398E+04</pdfrwt>
<pdfrwt beam="2">  1       -1 0.13913980E+00 0.18166398E+04</pdfrwt>
<totfact> 0.71379918E+00</totfact>
</mgrwt>
</event>
<event>
 6    1  0.1826848E-005  0.3250018E+04  0.7818608E-02  0.8175731E-01
         -2   -1    0    0    0  501 -0.00000000000E+00  0.00000000000E+00  0.12859347785E+04  0.12859347785E+04  0.00000000000E+00 0.  1.
          2   -1    0    0  501    0  0.00000000000E+00 -0.00000000000E+00 -0.20534901233E+04  0.20534901233E+04  0.00000000000E+00 0. -1.
         23    2    1    2    0    0 -0.14998674322E+04  0.24453842865E+03  0.20360059635E+03  0.15359434854E+04  0.90927609644E+02 0.  0.
         11    1    3    3    0    0 -0.78097582482E+03  0.16341880906E+03  0.13519158971E+03  0.80926244942E+03  0.00000000000E+00 0.  1.
        -11    1    3    3    0    0 -0.71889160739E+03  0.81119619594E+02  0.68409006642E+02  0.72668103598E+03  0.00000000000E+00 0. -1.
         22    1    1    2    0    0  0.14998674322E+04 -0.24453842865E+03 -0.97115594116E+03  0.18034814164E+04  0.00000000000E+00 0. -1.
<mgrwt>
<rscale>  0 0.32500181E+04</rscale>
<asrwt>0</asrwt>
<pdfrwt beam="1">  1        2 0.31592155E+00 0.32500181E+04</pdfrwt>
<pdfrwt beam="2">  1       -2 0.19783612E+00 0.32500181E+04</pdfrwt>
<totfact> 0.71902788E-01</totfact>
</mgrwt>
</event>
<event>
 6    1  0.1614874E-005  0.3245800E+03  0.7818608E-02  0.1073561E+00
         -1   -1    0    0    0  501 -0.00000000000E+00  0.00000000000E+00  0.67140727568E+03  0.67140727568E+03  0.00000000000E+00 0.  1.
          1   -1    0    0  501    0  0.00000000000E+00 -0.00000000000E+00 -0.39228127685E+02  0.39228127685E+02  0.00000000000E+00 0. -1.
         23    2    1    2    0    0  0.10272802606E+03  0.19840856859E+02  0.11011720566E+03  0.17819256270E+03  0.93166965606E+02 0.  0.
         13    1    3    3    0    0  0.11547606570E+03  0.32560829224E+02  0.83971581546E+02  0.14644506088E+03  0.00000000000E+00 0. -1.
        -13    1    3    3    0    0 -0.12748039638E+02 -0.12719972364E+02  0.26145624109E+02  0.31747501817E+02  0.00000000000E+00 0.  1.
         22    1    1    2    0    0 -0.10272802606E+03 -0.19840856859E+02  0.52206194234E+03  0.53244284067E+03  0.00000000000E+00 0. -1.
<mgrwt>
<rscale>  0 0.32458004E+03</rscale>
<asrwt>0</asrwt>
<pdfrwt beam="1">  1        1 0.60350971E-02 0.32458004E+03</pdfrwt>
<pdfrwt beam="2">  1       -1 0.10329342E+00 0.32458004E+03</pdfrwt>
<totfact> 0.12039365E+03</totfact>
</mgrwt>
</event>
<event>
 6    1  0.1614874E-005  0.2094933E+04  0.7818608E-02  0.8563479E-01
         -1   -1    0    0    0  501 -0.00000000000E+00  0.00000000000E+00  0.10749195814E+04  0.10749195814E+04  0.00000000000E+00 0.  1.
          1   -1    0    0  501    0  0.00000000000E+00 -0.00000000000E+00 -0.10207145890E+04  0.10207145890E+04  0.00000000000E+00 0. -1.
         23    2    1    2    0    0  0.51168579488E+02  0.87909540532E+03  0.59074161625E+03  0.10644705054E+04  0.93246149980E+02 0.  0.
         11    1    3    3    0    0  0.50778166558E+02  0.26972602855E+03  0.21414174772E+03  0.34811957830E+03  0.00000000000E+00 0.  1.
        -11    1    3    3    0    0  0.39041292983E+00  0.60936937676E+03  0.37659986853E+03  0.71635092708E+03  0.00000000000E+00 0. -1.
         22    1    1    2    0    0 -0.51168579488E+02 -0.87909540532E+03 -0.53653662386E+03  0.10311636650E+04  0.00000000000E+00 0. -1.
<mgrwt>
<rscale>  0 0.20949330E+04</rscale>
<asrwt>0</asrwt>
<pdfrwt beam="1">  1        1 0.15703301E+00 0.20949330E+04</pdfrwt>
<pdfrwt beam="2">  1       -1 0.16537224E+00 0.20949330E+04</pdfrwt>
<totfact> 0.35718972E+00</totfact>
</mgrwt>
</event>
<event>
 6    1  0.1614874E-005  0.2415682E+04  0.7818608E-02  0.8433656E-01
          2   -1    0    0  501    0  0.00000000000E+00  0.00000000000E+00  0.15668116307E+04  0.15668116307E+04  0.00000000000E+00 0. -1.
         -2   -1    0    0    0  501 -0.00000000000E+00 -0.00000000000E+00 -0.93111394655E+03  0.93111394655E+03  0.00000000000E+00 0.  1.
         23    2    1    2    0    0  0.13094309185E+03  0.37288094469E+03  0.14966231335E+04  0.15506247160E+04  0.91487233778E+02 0.  0.
         13    1    3    3    0    0  0.12425663139E+03  0.22079882514E+03  0.94829812087E+03  0.98156057259E+03  0.00000000000E+00 0. -1.
        -13    1    3    3    0    0  0.66864604620E+01  0.15208211955E+03  0.54832501267E+03  0.56906414345E+03  0.00000000000E+00 0.  1.
         22    1    1    2    0    0 -0.13094309185E+03 -0.37288094469E+03 -0.86092544939E+03  0.94730086120E+03  0.00000000000E+00 0.  1.
<mgrwt>
<rscale>  0 0.24156822E+04</rscale>
<asrwt>0</asrwt>
<pdfrwt beam="1">  1        2 0.24104794E+00 0.24156822E+04</pdfrwt>
<pdfrwt beam="2">  1       -2 0.14324830E+00 0.24156822E+04</pdfrwt>
<totfact> 0.35370186E+00</totfact>
</mgrwt>
</event>
<event>
 6    1  0.1614874E-005  0.1304257E+04  0.7818608E-02  0.9026196E-01
          1   -1    0    0  501    0  0.00000000000E+00  0.00000000000E+00  0.68609377213E+03  0.68609377213E+03  0.00000000000E+00 0. -1.
         -1   -1    0    0    0  501 -0.00000000000E+00 -0.00000000000E+00 -0.61984507931E+03  0.61984507931E+03  0.00000000000E+00 0.  1.
         23    2    1    2    0    0 -0.22056702955E+03 -0.40170300028E+03  0.49343670365E+03  0.67943688691E+03  0.90219664255E+02 0.  0.
         13    1    3    3    0    0  0.72026931514E+00 -0.33884019289E+02  0.63032246989E+02  0.71566121256E+02  0.00000000000E+00 0. -1.
        -13    1    3    3    0    0 -0.22128729887E+03 -0.36781898100E+03  0.43040445666E+03  0.60787076565E+03  0.00000000000E+00 0.  1.
         22    1    1    2    0    0  0.22056702955E+03  0.40170300028E+03 -0.42718801083E+03  0.62650196453E+03  0.00000000000E+00 0.  1.
<mgrwt>
<rscale>  0 0.13042574E+04</rscale>
<asrwt>0</asrwt>
<pdfrwt beam="1">  1        1 0.10555289E+00 0.13042574E+04</pdfrwt>
<pdfrwt beam="2">  1       -1 0.95360781E-01 0.13042574E+04</pdfrwt>
<totfact> 0.29303180E+01</totfact>
</mgrwt>
</event>
<event>
 6    1  0.1614874E-005  0.1691531E+04  0.7818608E-02  0.8766210E-01
          1   -1    0    0  501    0  0.00000000000E+00  0.00000000000E+00  0.89845155528E+03  0.89845155528E+03  0.00000000000E+00 0. -1.
         -1   -1    0    0    0  501 -0.00000000000E+00 -0.00000000000E+00 -0.79616869788E+03  0.79616869788E+03  0.00000000000E+00 0.  1.
         23    2    1    2    0    0 -0.29793256517E+03  0.16660408448E+03 -0.72089235037E+03  0.80347595674E+03  0.96783768661E+02 0.  0.
         11    1    3    3    0    0 -0.10616641159E+03  0.11345872524E+03 -0.29660651755E+03  0.33484267281E+03  0.00000000000E+00 0.  1.
        -11    1    3    3    0    0 -0.19176615358E+03  0.53145359233E+02 -0.42428583283E+03  0.46863328393E+03  0.00000000000E+00 0. -1.
         22    1    1    2    0    0  0.29793256517E+03 -0.16660408448E+03  0.82317520778E+03  0.89114429643E+03  0.00000000000E+00 0. -1.
<mgrwt>
<rscale>  0 0.16915307E+04</rscale>
<asrwt>0</asrwt>
<pdfrwt beam="1">  1        1 0.13822332E+00 0.16915307E+04</pdfrwt>
<pdfrwt beam="2">  1       -1 0.12248749E+00 0.16915307E+04</pdfrwt>
<totfact> 0.10230985E+01</totfact>
</mgrwt>
</event>
<event>
 6    1  0.1614874E-005  0.1875301E+04  0.7818608E-02  0.8667249E-01
          1   -1    0    0  501    0  0.00000000000E+00  0.00000000000E+00  0.98964293921E+03  0.98964293921E+03  0.00000000000E+00 0. -1.
         -1   -1    0    0    0  501 -0.00000000000E+00 -0.00000000000E+00 -0.88838924539E+03  0.88838924539E+03  0.00000000000E+00 0.  1.
         23    2    1    2    0    0 -0.35248368861E+03 -0.43750950863E+03 -0.69821480124E+03  0.90088879927E+03  0.91855316186E+02 0.  0.
         11    1    3    3    0    0 -0.13577139317E+03 -0.10190003466E+03 -0.21316149519E+03  0.27249827761E+03  0.00000000000E+00 0. -1.
        -11    1    3    3    0    0 -0.21671229544E+03 -0.33560947397E+03 -0.48505330605E+03  0.62839052167E+03  0.00000000000E+00 0.  1.
         22    1    1    2    0    0  0.35248368861E+03  0.43750950863E+03  0.79946849507E+03  0.97714338532E+03  0.00000000000E+00 0. -1.
<mgrwt>
<rscale>  0 0.18753007E+04</rscale>
<asrwt>0</asrwt>
<pdfrwt beam="1">  1        1 0.15225276E+00 0.18753007E+04</pdfrwt>
<pdfrwt beam="2">  1       -1 0.13667527E+00 0.18753007E+04</pdfrwt>
<totfact> 0.64511020E+00</totfact>
</mgrwt>
</event>
<event>
 6    1  0.1614874E-005  0.2402970E+04  0.7818608E-02  0.8438393E-01
         -2   -1    0    0    0  501 -0.00000000000E+00  0.00000000000E+00  0.79678350316E+03  0.79678350316E+03  0.00000000000E+00 0. -1.
          2   -1    0    0  501    0  0.00000000000E+00 -0.00000000000E+00 -0.18117415452E+04  0.18117415452E+04  0.00000000000E+00 0.  1.
         23    2    1    2    0    0 -0.83067779432E+03 -0.61178525674E+03  0.15725337673E+03  0.10469916966E+04  0.84594266598E+02 0.  0.
         11    1    3    3    0    0 -0.36519058972E+03 -0.24877319249E+03  0.10640208250E+03  0.45450376378E+03  0.00000000000E+00 0.  1.
        -11    1    3    3    0    0 -0.46548720460E+03 -0.36301206424E+03  0.50851294229E+02  0.59248793284E+03  0.00000000000E+00 0. -1.
         22    1    1    2    0    0  0.83067779432E+03  0.61178525674E+03 -0.11722114188E+04  0.15615333518E+04  0.00000000000E+00 0.  1.
<mgrwt>
<rscale>  0 0.24029696E+04</rscale>
<asrwt>0</asrwt>
<pdfrwt beam="1">  1        2 0.27872947E+00 0.24029696E+04</pdfrwt>
<pdfrwt beam="2">  1       -2 0.12258208E+00 0.24029696E+04</pdfrwt>
<totfact> 0.38482842E+00</totfact>
</mgrwt>
</event>
<event>
 6    1  0.1614874E-005  0.1256268E+04  0.7818608E-02  0.9064983E-01
         -1   -1    0    0    0  501 -0.00000000000E+00  0.00000000000E+00  0.51447157947E+03  0.51447157947E+03  0.00000000000E+00 0.  1.
          1   -1    0    0  501    0  0.00000000000E+00 -0.00000000000E+00 -0.76690769566E+03  0.76690769566E+03  0.00000000000E+00 0. -1.
         23    2    1    2    0    0  0.29591831404E+03  0.27113522724E+03 -0.61512129002E+03  0.74043334868E+03  0.93730370606E+02 0.  0.
         11    1    3    3    0    0  0.20129418527E+03  0.14513589944E+03 -0.31063443706E+03  0.39758965255E+03  0.00000000000E+00 0. -1.
        -11    1    3    3    0    0  0.94624128771E+02  0.12599932780E+03 -0.30448685296E+03  0.34284369613E+03  0.00000000000E+00 0.  1.
         22    1    1    2    0    0 -0.29591831404E+03 -0.27113522724E+03  0.36268517383E+03  0.54094592646E+03  0.00000000000E+00 0.  1.
<mgrwt>
<rscale>  0 0.12562678E+04</rscale>
<asrwt>0</asrwt>
<pdfrwt beam="1">  1        1 0.11798580E+00 0.12562678E+04</pdfrwt>
<pdfrwt beam="2">  1       -1 0.79149474E-01 0.12562678E+04</pdfrwt>
<totfact> 0.37216952E+01</totfact>
</mgrwt>
</event>
<event>
 6    1  0.1614874E-005  0.3448180E+04  0.7818608E-02  0.8126182E-01
         -2   -1    0    0    0  501 -0.00000000000E+00  0.00000000000E+00  0.15221034536E+04  0.15221034536E+04  0.00000000000E+00 0.  1.
          2   -1    0    0  501    0  0.00000000000E+00 -0.00000000000E+00 -0.19528805935E+04  0.19528805935E+04  0.00000000000E+00 0. -1.
         23    2    1    2    0    0 -0.16321169781E+04 -0.16718990238E+03  0.31453705473E+03  0.16729708556E+04  0.90219904747E+02 0.  0.
         11    1    3    3    0    0 -0.69095987465E+03 -0.48782436690E+02  0.93283832120E+02  0.69893286362E+03  0.00000000000E+00 0. -1.
        -11    1    3    3    0    0 -0.94115710345E+03 -0.11840746569E+03  0.22125322261E+03  0.97403799198E+03  0.00000000000E+00 0.  1.
         22    1    1    2    0    0  0.16321169781E+04  0.16718990238E+03 -0.74531419468E+03  0.18020131915E+04  0.00000000000E+00 0. -1.
<mgrwt>
<rscale>  0 0.34481800E+04</rscale>
<asrwt>0</asrwt>
<pdfrwt beam="1">  1        2 0.30044317E+00 0.34481800E+04</pdfrwt>
<pdfrwt beam="2">  1       -2 0.23416976E+00 0.34481800E+04</pdfrwt>
<totfact> 0.47157718E-01</totfact>
</mgrwt>
</event>
<event>
 6    1  0.1614874E-005  0.8728226E+03  0.7818608E-02  0.9460207E-01
          2   -1    0    0  501    0  0.00000000000E+00  0.00000000000E+00  0.47420786159E+03  0.47420786159E+03  0.00000000000E+00 0. -1.
         -2   -1    0    0    0  501 -0.00000000000E+00 -0.00000000000E+00 -0.40162733520E+03  0.40162733520E+03  0.00000000000E+00 0.  1.
         23    2    1    2    0    0  0.29461162116E+02  0.37297281595E+03 -0.18004949413E+03  0.42439460405E+03  0.87842347983E+02 0.  0.
         11    1    3    3    0    0  0.16119912264E+02  0.95951899379E+02 -0.71206120201E+01  0.97556761331E+02  0.00000000000E+00 0.  1.
        -11    1    3    3    0    0  0.13341249852E+02  0.27702091657E+03 -0.17292888211E+03  0.32683784272E+03  0.00000000000E+00 0. -1.
         22    1    1    2    0    0 -0.29461162116E+02 -0.37297281595E+03  0.25263002051E+03  0.45144059274E+03  0.00000000000E+00 0. -1.
<mgrwt>
<rscale>  0 0.87282264E+03</rscale>
<asrwt>0</asrwt>
<pdfrwt beam="1">  1        2 0.72955056E-01 0.87282264E+03</pdfrwt>
<pdfrwt beam="2">  1       -2 0.61788821E-01 0.87282264E+03</pdfrwt>
<totfact> 0.16014620E+02</totfact>
</mgrwt>
</event>
<event>
 6    1  0.1614874E-005  0.7444852E+03  0.7818608E-02  0.9644042E-01
         -1   -1    0    0    0  501 -0.00000000000E+00  0.00000000000E+00  0.31812088603E+03  0.31812088603E+03  0.00000000000E+00 0. -1.
          1   -1    0    0  501    0  0.00000000000E+00 -0.00000000000E+00 -0.43557199142E+03  0.43557199142E+03  0.00000000000E+00 0.  1.
         23    2    1    2    0    0 -0.34828343758E+03  0.11127132980E+03 -0.35234796352E+02  0.37893671246E+03  0.93106817431E+02 0.  0.
         13    1    3    3    0    0 -0.29875405961E+03  0.63539118760E+02 -0.97825021657E+01  0.30559271113E+03  0.00000000000E+00 0. -1.
        -13    1    3    3    0    0 -0.49529377969E+02  0.47732211038E+02 -0.25452294186E+02  0.73344001335E+02  0.00000000000E+00 0.  1.
         22    1    1    2    0    0  0.34828343758E+03 -0.11127132980E+03 -0.82216309042E+02  0.37475616499E+03  0.00000000000E+00 0. -1.
<mgrwt>
<rscale>  0 0.74448519E+03</rscale>
<asrwt>0</asrwt>
<pdfrwt beam="1">  1        1 0.67011075E-01 0.74448519E+03</pdfrwt>
<pdfrwt beam="2">  1       -1 0.48941675E-01 0.74448519E+03</pdfrwt>
<totfact> 0.22660922E+02</totfact>
</mgrwt>
</event>
<event>
 6    1  0.1614874E-005  0.3249502E+04  0.7818608E-02  0.8175865E-01
         -2   -1    0    0    0  501 -0.00000000000E+00  0.00000000000E+00  0.86289047220E+03  0.86289047220E+03  0.00000000000E+00 0. -1.
          2   -1    0    0  501    0  0.00000000000E+00 -0.00000000000E+00 -0.30592703545E+04  0.30592703545E+04  0.00000000000E+00 0.  1.
         23    2    1    2    0    0  0.64614449464E+03  0.10664882234E+04 -0.23538201227E+04  0.26653047220E+04  0.92088285935E+02 0.  0.
         13    1    3    3    0    0  0.21190182642E+03  0.31186960915E+03 -0.63342740369E+03  0.73715352057E+03  0.00000000000E+00 0.  1.
        -13    1    3    3    0    0  0.43424266822E+03  0.75461861425E+03 -0.17203927191E+04  0.19281512015E+04  0.00000000000E+00 0. -1.
         22    1    1    2    0    0 -0.64614449464E+03 -0.10664882234E+04  0.15744024044E+03  0.12568561047E+04  0.00000000000E+00 0. -1.
<mgrwt>
<rscale>  0 0.32495016E+04</rscale>
<asrwt>0</asrwt>
<pdfrwt beam="1">  1        2 0.47065698E+00 0.32495016E+04</pdfrwt>
<pdfrwt beam="2">  1       -2 0.13275238E+00 0.32495016E+04</pdfrwt>
<totfact> 0.55124529E-01</totfact>
</mgrwt>
</event>
<event>
 6    1  0.1614874E-005  0.2527522E+04  0.7818608E-02  0.8393246E-01
          1   -1    0    0  501    0  0.00000000000E+00  0.00000000000E+00  0.34302587385E+04  0.34302587385E+04  0.00000000000E+00 0. -1.
         -1   -1    0    0    0  501 -0.00000000000E+00 -0.00000000000E+00 -0.46558930882E+03  0.46558930882E+03  0.00000000000E+00 0.  1.
         23    2    1    2    0    0 -0.87341646005E+03  0.77541859179E+03  0.22214126858E+04  0.25114489385E+04  0.92580477571E+02 0.  0.
         11    1    3    3    0    0 -0.22576542206E+03  0.15134122234E+03  0.54444261975E+03  0.60851619335E+03  0.00000000000E+00 0. -1.
        -11    1    3    3    0    0 -0.64765103799E+03  0.62407736946E+03  0.16769700661E+04  0.19029327452E+04  0.00000000000E+00 0.  1.
         22    1    1    2    0    0  0.87341646005E+03 -0.77541859179E+03  0.74325674388E+03  0.13843991088E+04  0.00000000000E+00 0.  1.
<mgrwt>
<rscale>  0 0.25275219E+04</rscale>
<asrwt>0</asrwt>
<pdfrwt beam="1">  1        1 0.52773210E+00 0.25275219E+04</pdfrwt>
<pdfrwt beam="2">  1       -1 0.71629127E-01 0.25275219E+04</pdfrwt>
<totfact> 0.49455537E-01</totfact>
</mgrwt>
</event>
<event>
 6    1  0.1614874E-005  0.3865138E+04  0.7818608E-02  0.8032319E-01
         -1   -1    0    0    0  501 -0.00000000000E+00  0.00000000000E+00  0.12564949076E+04  0.12564949076E+04  0.00000000000E+00 0.  1.
          1   -1    0    0  501    0  0.00000000000E+00 -0.00000000000E+00 -0.29724144934E+04  0.29724144934E+04  0.00000000000E+00 0. -1.
         23    2    1    2    0    0  0.55417423508E+02 -0.16350766519E+04  0.26497154197E+03  0.16597701660E+04  0.89890697133E+02 0.  0.
         13    1    3    3    0    0  0.15806128998E+00 -0.99202334586E+03  0.18934081495E+03  0.10099308332E+04  0.00000000000E+00 0.  1.
        -13    1    3    3    0    0  0.55259362218E+02 -0.64305330605E+03  0.75630727024E+02  0.64983933276E+03  0.00000000000E+00 0. -1.
         22    1    1    2    0    0 -0.55417423508E+02  0.16350766519E+04 -0.19808911279E+04  0.25691392350E+04  0.00000000000E+00 0. -1.
<mgrwt>
<rscale>  0 0.38651384E+04</rscale>
<asrwt>0</asrwt>
<pdfrwt beam="1">  1        1 0.45729453E+00 0.38651384E+04</pdfrwt>
<pdfrwt beam="2">  1       -1 0.19330691E+00 0.38651384E+04</pdfrwt>
<totfact> 0.82951517E-02</totfact>
</mgrwt>
</event>
<event>
 6    1  0.1614874E-005  0.2253599E+04  0.7818608E-02  0.8496445E-01
         -2   -1    0    0    0  501 -0.00000000000E+00  0.00000000000E+00  0.48411047901E+03  0.48411047901E+03  0.00000000000E+00 0.  1.
          2   -1    0    0  501    0  0.00000000000E+00 -0.00000000000E+00 -0.26227004129E+04  0.26227004129E+04  0.00000000000E+00 0. -1.
         23    2    1    2    0    0 -0.82794155301E+03 -0.32081249237E+02 -0.21201304596E+04  0.22780424237E+04  0.89485735415E+02 0.  0.
         13    1    3    3    0    0 -0.33722309891E+03  0.25390386381E+02 -0.92031127697E+03  0.98047791238E+03  0.00000000000E+00 0. -1.
        -13    1    3    3    0    0 -0.49071845410E+03 -0.57471635618E+02 -0.11998191826E+04  0.12975645113E+04  0.00000000000E+00 0.  1.
         22    1    1    2    0    0  0.82794155301E+03  0.32081249237E+02 -0.18459474354E+02  0.82876846824E+03  0.00000000000E+00 0.  1.
<mgrwt>
<rscale>  0 0.22535987E+04</rscale>
<asrwt>0</asrwt>
<pdfrwt beam="1">  1        2 0.40349238E+00 0.22535987E+04</pdfrwt>
<pdfrwt beam="2">  1       -2 0.74478534E-01 0.22535987E+04</pdfrwt>
<totfact> 0.43559746E+00</totfact>
</mgrwt>
</event>
<event>
 6    1  0.1614874E-005  0.2073409E+03  0.7818608E-02  0.1143689E+00
          1   -1    0    0  501    0  0.00000000000E+00  0.00000000000E+00  0.45117002937E+03  0.45117002937E+03  0.00000000000E+00 0. -1.
         -1   -1    0    0    0  501 -0.00000000000E+00 -0.00000000000E+00 -0.23821523012E+02  0.23821523012E+02  0.00000000000E+00 0.  1.
         23    2    1    2    0    0 -0.80850903310E+02 -0.65436604303E+01  0.20835431061E+03  0.24145751668E+03  0.91162083979E+02 0.  0.
         11    1    3    3    0    0 -0.39749652906E+02  0.15204047188E+02  0.18421081911E+03  0.18906301551E+03  0.00000000000E+00 0. -1.
        -11    1    3    3    0    0 -0.41101250404E+02 -0.21747707618E+02  0.24143491501E+02  0.52394501174E+02  0.00000000000E+00 0.  1.
         22    1    1    2    0    0  0.80850903310E+02  0.65436604303E+01  0.21899419575E+03  0.23353403570E+03  0.00000000000E+00 0.  1.
<mgrwt>
<rscale>  0 0.20734085E+03</rscale>
<asrwt>0</asrwt>
<pdfrwt beam="1">  1        1 0.69410767E-01 0.20734085E+03</pdfrwt>
<pdfrwt beam="2">  1       -1 0.36648500E-02 0.20734085E+03</pdfrwt>
<totfact> 0.14155698E+04</totfact>
</mgrwt>
</event>
<event>
 6    1  0.1614874E-005  0.2970291E+04  0.7818608E-02  0.8252266E-01
         -3   -1    0    0    0  501 -0.00000000000E+00  0.00000000000E+00  0.15259435390E+04  0.15259435390E+04  0.00000000000E+00 0.  1.
          3   -1    0    0  501    0  0.00000000000E+00 -0.00000000000E+00 -0.14454380434E+04  0.14454380434E+04  0.00000000000E+00 0. -1.
         23    2    1    2    0    0 -0.63045125365E+03 -0.54047496774E+03 -0.11897381104E+04  0.14537845369E+04  0.91819030701E+02 0.  0.
         11    1    3    3    0    0 -0.27693323411E+03 -0.26426451189E+03 -0.47691990960E+03  0.61153932708E+03  0.00000000000E+00 0. -1.
        -11    1    3    3    0    0 -0.35351801954E+03 -0.27621045585E+03 -0.71281820077E+03  0.84224520979E+03  0.00000000000E+00 0.  1.
         22    1    1    2    0    0  0.63045125365E+03  0.54047496774E+03  0.12702436060E+04  0.15175970455E+04  0.00000000000E+00 0.  1.
<mgrwt>
<rscale>  0 0.29702908E+04</rscale>
<asrwt>0</asrwt>
<pdfrwt beam="1">  1        3 0.22237509E+00 0.29702908E+04</pdfrwt>
<pdfrwt beam="2">  1       -3 0.23476054E+00 0.29702908E+04</pdfrwt>
<totfact> 0.21453999E-02</totfact>
</mgrwt>
</event>
<event>
 6    1  0.1614874E-005  0.2489310E+04  0.7818608E-02  0.8406804E-01
          3   -1    0    0  501    0  0.00000000000E+00  0.00000000000E+00  0.18863645869E+04  0.18863645869E+04  0.00000000000E+00 0. -1.
         -3   -1    0    0    0  501 -0.00000000000E+00 -0.00000000000E+00 -0.82124416135E+03  0.82124416135E+03  0.00000000000E+00 0.  1.
         23    2    1    2    0    0 -0.57457819866E+03 -0.47257809795E+03 -0.54930789474E+03  0.93001234682E+03  0.98557784922E+02 0.  0.
         11    1    3    3    0    0 -0.45225721585E+03 -0.34268715088E+03 -0.37214043213E+03  0.67857171610E+03  0.00000000000E+00 0. -1.
        -11    1    3    3    0    0 -0.12232098281E+03 -0.12989094707E+03 -0.17716746261E+03  0.25144063072E+03  0.00000000000E+00 0.  1.
         22    1    1    2    0    0  0.57457819866E+03  0.47257809795E+03  0.16144283203E+04  0.17775964015E+04  0.00000000000E+00 0. -1.
<mgrwt>
<rscale>  0 0.24893099E+04</rscale>
<asrwt>0</asrwt>
<pdfrwt beam="1">  1        3 0.29020993E+00 0.24893099E+04</pdfrwt>
<pdfrwt beam="2">  1       -3 0.12634526E+00 0.24893099E+04</pdfrwt>
<totfact> 0.50758970E-02</totfact>
</mgrwt>
</event>
<event>
 6    1  0.1614874E-005  0.2289569E+04  0.7818608E-02  0.8482045E-01
          2   -1    0    0  501    0  0.00000000000E+00  0.00000000000E+00  0.24214412294E+04  0.24214412294E+04  0.00000000000E+00 0. -1.
         -2   -1    0    0    0  501 -0.00000000000E+00 -0.00000000000E+00 -0.54121978971E+03  0.54121978971E+03  0.00000000000E+00 0.  1.
         23    2    1    2    0    0  0.86483334276E+03  0.55520919677E+03  0.15903513881E+04  0.18948508254E+04  0.71050334297E+02 0.  0.
         11    1    3    3    0    0  0.16997159030E+03  0.10613118178E+03  0.26073099440E+03  0.32883859368E+03  0.00000000000E+00 0.  1.
        -11    1    3    3    0    0  0.69486175246E+03  0.44907801499E+03  0.13296203937E+04  0.15660122317E+04  0.00000000000E+00 0. -1.
         22    1    1    2    0    0 -0.86483334276E+03 -0.55520919677E+03  0.28987005158E+03  0.10678101937E+04  0.00000000000E+00 0.  1.
<mgrwt>
<rscale>  0 0.22895693E+04</rscale>
<asrwt>0</asrwt>
<pdfrwt beam="1">  1        2 0.37252941E+00 0.22895693E+04</pdfrwt>
<pdfrwt beam="2">  1       -2 0.83264584E-01 0.22895693E+04</pdfrwt>
<totfact> 0.44276100E+00</totfact>
</mgrwt>
</event>
<event>
 6    1  0.1614874E-005  0.1461636E+04  0.7818608E-02  0.8910373E-01
          1   -1    0    0  501    0  0.00000000000E+00  0.00000000000E+00  0.19183656281E+04  0.19183656281E+04  0.00000000000E+00 0. -1.
         -1   -1    0    0    0  501 -0.00000000000E+00 -0.00000000000E+00 -0.27841141439E+03  0.27841141439E+03  0.00000000000E+00 0.  1.
         23    2    1    2    0    0  0.47249219596E+03  0.27666154925E+03  0.10263301937E+03  0.56486192747E+03  0.93514556949E+02 0.  0.
         11    1    3    3    0    0  0.22609132631E+03  0.11637663098E+03  0.92998771416E+02  0.27075741828E+03  0.00000000000E+00 0. -1.
        -11    1    3    3    0    0  0.24640086965E+03  0.16028491827E+03  0.96342479587E+01  0.29410450919E+03  0.00000000000E+00 0.  1.
         22    1    1    2    0    0 -0.47249219596E+03 -0.27666154925E+03  0.15373211944E+04  0.16319151151E+04  0.00000000000E+00 0. -1.
<mgrwt>
<rscale>  0 0.14616359E+04</rscale>
<asrwt>0</asrwt>
<pdfrwt beam="1">  1        1 0.29513317E+00 0.14616359E+04</pdfrwt>
<pdfrwt beam="2">  1       -1 0.42832526E-01 0.14616359E+04</pdfrwt>
<totfact> 0.17646640E+01</totfact>
</mgrwt>
</event>
<event>
 6    1  0.1614874E-005  0.4222869E+04  0.7818608E-02  0.7961036E-01
         -2   -1    0    0    0  501 -0.00000000000E+00  0.00000000000E+00  0.11708898555E+04  0.11708898555E+04  0.00000000000E+00 0.  1.
          2   -1    0    0  501    0  0.00000000000E+00 -0.00000000000E+00 -0.38074941288E+04  0.38074941288E+04  0.00000000000E+00 0. -1.
         23    2    1    2    0    0 -0.64301544226E+03 -0.49784645386E+03 -0.36148446737E+04  0.37062699047E+04  0.89524527312E+02 0.  0.
         13    1    3    3    0    0 -0.20914170022E+03 -0.19214129350E+03 -0.11043810124E+04  0.11403139691E+04  0.00000000000E+00 0.  1.
        -13    1    3    3    0    0 -0.43387374205E+03 -0.30570516036E+03 -0.25104636613E+04  0.25659559357E+04  0.00000000000E+00 0. -1.
         22    1    1    2    0    0  0.64301544226E+03  0.49784645386E+03  0.97824040038E+03  0.12721140796E+04  0.00000000000E+00 0.  1.
<mgrwt>
<rscale>  0 0.42228693E+04</rscale>
<asrwt>0</asrwt>
<pdfrwt beam="1">  1        2 0.58576833E+00 0.42228693E+04</pdfrwt>
<pdfrwt beam="2">  1       -2 0.18013690E+00 0.42228693E+04</pdfrwt>
<totfact> 0.67747769E-02</totfact>
</mgrwt>
</event>
<event>
 6    1  0.1614874E-005  0.2284794E+04  0.7818608E-02  0.8483941E-01
          1   -1    0    0  501    0  0.00000000000E+00  0.00000000000E+00  0.30546382411E+04  0.30546382411E+04  0.00000000000E+00 0. -1.
         -1   -1    0    0    0  501 -0.00000000000E+00 -0.00000000000E+00 -0.42724223229E+03  0.42724223229E+03  0.00000000000E+00 0.  1.
         23    2    1    2    0    0 -0.49713172530E+02 -0.90775887522E+03  0.26611847836E+03  0.95163756986E+03  0.91090311200E+02 0.  0.
         13    1    3    3    0    0 -0.26718733460E+02 -0.76207187022E+03  0.25365250684E+03  0.80362119206E+03  0.00000000000E+00 0.  1.
        -13    1    3    3    0    0 -0.22994439070E+02 -0.14568700500E+03  0.12465971522E+02  0.14801637781E+03  0.00000000000E+00 0. -1.
         22    1    1    2    0    0  0.49713172530E+02  0.90775887522E+03  0.23612775305E+04  0.25302429035E+04  0.00000000000E+00 0. -1.
<mgrwt>
<rscale>  0 0.22847936E+04</rscale>
<asrwt>0</asrwt>
<pdfrwt beam="1">  1        1 0.46994433E+00 0.22847936E+04</pdfrwt>
<pdfrwt beam="2">  1       -1 0.65729576E-01 0.22847936E+04</pdfrwt>
<totfact> 0.11582909E+00</totfact>
</mgrwt>
</event>
<event>
 6    1  0.1614874E-005  0.2816949E+04  0.7818608E-02  0.8298026E-01
          1   -1    0    0  501    0  0.00000000000E+00  0.00000000000E+00  0.21509201433E+04  0.21509201433E+04  0.00000000000E+00 0. -1.
         -1   -1    0    0    0  501 -0.00000000000E+00 -0.00000000000E+00 -0.92230300997E+03  0.92230300997E+03  0.00000000000E+00 0.  1.
         23    2    1    2    0    0 -0.51323292352E+03  0.57551204121E+03  0.18988179978E+04  0.20515620832E+04  0.93675232630E+02 0.  0.
         13    1    3    3    0    0 -0.22761538643E+03  0.27390894136E+03  0.75859813277E+03  0.83803699163E+03  0.00000000000E+00 0. -1.
        -13    1    3    3    0    0 -0.28561753709E+03  0.30160309985E+03  0.11402198650E+04  0.12135250916E+04  0.00000000000E+00 0.  1.
         22    1    1    2    0    0  0.51323292352E+03 -0.57551204121E+03 -0.67020086446E+03  0.10216610701E+04  0.00000000000E+00 0.  1.
<mgrwt>
<rscale>  0 0.28169488E+04</rscale>
<asrwt>0</asrwt>
<pdfrwt beam="1">  1        1 0.33091079E+00 0.28169488E+04</pdfrwt>
<pdfrwt beam="2">  1       -1 0.14189277E+00 0.28169488E+04</pdfrwt>
<totfact> 0.82290611E-01</totfact>
</mgrwt>
</event>
<event>
 6    1  0.1614874E-005  0.1466021E+04  0.7818608E-02  0.8907368E-01
          2   -1    0    0  501    0  0.00000000000E+00  0.00000000000E+00  0.32457215154E+04  0.32457215154E+04  0.00000000000E+00 0. -1.
         -2   -1    0    0    0  501 -0.00000000000E+00 -0.00000000000E+00 -0.16554233726E+03  0.16554233726E+03  0.00000000000E+00 0.  1.
         23    2    1    2    0    0  0.46423660973E+03 -0.23641650025E+03  0.27363589424E+04  0.27870677730E+04  0.93156416988E+02 0.  0.
         11    1    3    3    0    0  0.38132751752E+02 -0.37169570528E+02  0.42555649733E+03  0.42887529207E+03  0.00000000000E+00 0.  1.
        -11    1    3    3    0    0  0.42610385798E+03 -0.19924692972E+03  0.23108024451E+04  0.23581924809E+04  0.00000000000E+00 0. -1.
         22    1    1    2    0    0 -0.46423660973E+03  0.23641650025E+03  0.34382023576E+03  0.62419607971E+03  0.00000000000E+00 0.  1.
<mgrwt>
<rscale>  0 0.14660209E+04</rscale>
<asrwt>0</asrwt>
<pdfrwt beam="1">  1        2 0.49934172E+00 0.14660209E+04</pdfrwt>
<pdfrwt beam="2">  1       -2 0.25468054E-01 0.14660209E+04</pdfrwt>
<totfact> 0.16441702E+01</totfact>
</mgrwt>
</event>
<event>
 6    1  0.1614874E-005  0.2545476E+04  0.7818608E-02  0.8386961E-01
          1   -1    0    0  501    0  0.00000000000E+00  0.00000000000E+00  0.15254746247E+04  0.15254746247E+04  0.00000000000E+00 0. -1.
         -1   -1    0    0    0  501 -0.00000000000E+00 -0.00000000000E+00 -0.10618739390E+04  0.10618739390E+04  0.00000000000E+00 0.  1.
         23    2    1    2    0    0  0.12456400403E+04 -0.25239667834E+03  0.24985353046E+03  0.12985463913E+04  0.92047543972E+02 0.  0.
         13    1    3    3    0    0  0.21186829531E+03 -0.90313523651E+01  0.49973033371E+02  0.21786932769E+03  0.00000000000E+00 0.  1.
        -13    1    3    3    0    0  0.10337717450E+04 -0.24336532597E+03  0.19988049709E+03  0.10806770636E+04  0.00000000000E+00 0. -1.
         22    1    1    2    0    0 -0.12456400403E+04  0.25239667834E+03  0.21374715530E+03  0.12888021724E+04  0.00000000000E+00 0.  1.
<mgrwt>
<rscale>  0 0.25454758E+04</rscale>
<asrwt>0</asrwt>
<pdfrwt beam="1">  1        1 0.23468841E+00 0.25454758E+04</pdfrwt>
<pdfrwt beam="2">  1       -1 0.16336522E+00 0.25454758E+04</pdfrwt>
<totfact> 0.15321678E+00</totfact>
</mgrwt>
</event>
<event>
 6    1  0.1614874E-005  0.2700859E+04  0.7818608E-02  0.8334726E-01
         -1   -1    0    0    0  501 -0.00000000000E+00  0.00000000000E+00  0.51972093752E+03  0.51972093752E+03  0.00000000000E+00 0.  1.
          1   -1    0    0  501    0  0.00000000000E+00 -0.00000000000E+00 -0.35089211610E+04  0.35089211610E+04  0.00000000000E+00 0. -1.
         23    2    1    2    0    0 -0.54986026139E+03 -0.42286384503E+02 -0.33323492893E+04  0.33791147882E+04  0.98643402580E+02 0.  0.
         13    1    3    3    0    0 -0.37150500516E+03 -0.74551618955E+02 -0.22797882633E+04  0.23110621883E+04  0.00000000000E+00 0. -1.
        -13    1    3    3    0    0 -0.17835525623E+03  0.32265234452E+02 -0.10525610260E+04  0.10680526000E+04  0.00000000000E+00 0.  1.
         22    1    1    2    0    0  0.54986026139E+03  0.42286384503E+02  0.34314906585E+03  0.64952731025E+03  0.00000000000E+00 0.  1.
<mgrwt>
<rscale>  0 0.27008590E+04</rscale>
<asrwt>0</asrwt>
<pdfrwt beam="1">  1        1 0.53983402E+00 0.27008590E+04</pdfrwt>
<pdfrwt beam="2">  1       -1 0.79957068E-01 0.27008590E+04</pdfrwt>
<totfact> 0.33524993E-01</totfact>
</mgrwt>
</event>
<event>
 6    1  0.1614874E-005  0.9381807E+03  0.7818608E-02  0.9379073E-01
         -1   -1    0    0    0  501 -0.00000000000E+00  0.00000000000E+00  0.21453717846E+03  0.21453717846E+03  0.00000000000E+00 0.  1.
          1   -1    0    0  501    0  0.00000000000E+00 -0.00000000000E+00 -0.10256765271E+04  0.10256765271E+04  0.00000000000E+00 0. -1.
         23    2    1    2    0    0 -0.13390718052E+03  0.12263085647E+03 -0.97486172040E+03  0.99572551569E+03  0.90246710395E+02 0.  0.
         13    1    3    3    0    0 -0.34903293622E+02  0.79376483054E+01 -0.38702266835E+03  0.38867440356E+03  0.00000000000E+00 0. -1.
        -13    1    3    3    0    0 -0.99003886896E+02  0.11469320817E+03 -0.58783905205E+03  0.60705111213E+03  0.00000000000E+00 0.  1.
         22    1    1    2    0    0  0.13390718052E+03 -0.12263085647E+03  0.16372237178E+03  0.24448818985E+03  0.00000000000E+00 0.  1.
<mgrwt>
<rscale>  0 0.93818068E+03</rscale>
<asrwt>0</asrwt>
<pdfrwt beam="1">  1        1 0.15779639E+00 0.93818068E+03</pdfrwt>
<pdfrwt beam="2">  1       -1 0.33005720E-01 0.93818068E+03</pdfrwt>
<totfact> 0.12509857E+02</totfact>
</mgrwt>
</event>
<event>
 6    1  0.1614874E-005  0.5924948E+04  0.7818608E-02  0.7699778E-01
          2   -1    0    0  501    0  0.00000000000E+00  0.00000000000E+00  0.32165572853E+04  0.32165572853E+04  0.00000000000E+00 0. -1.
         -2   -1    0    0    0  501 -0.00000000000E+00 -0.00000000000E+00 -0.27284609939E+04  0.27284609939E+04  0.00000000000E+00 0.  1.
         23    2    1    2    0    0 -0.96033700013E+03  0.22963928394E+04 -0.13663563570E+04  0.28410431098E+04  0.94493548927E+02 0.  0.
         13    1    3    3    0    0 -0.41185306173E+03  0.10311923326E+04 -0.65909987693E+03  0.12912758106E+04  0.00000000000E+00 0.  1.
        -13    1    3    3    0    0 -0.54848393840E+03  0.12652005068E+04 -0.70725648010E+03  0.15497672992E+04  0.00000000000E+00 0. -1.
         22    1    1    2    0    0  0.96033700013E+03 -0.22963928394E+04  0.18544526484E+04  0.31039751693E+04  0.00000000000E+00 0. -1.
<mgrwt>
<rscale>  0 0.59249476E+04</rscale>
<asrwt>0</asrwt>
<pdfrwt beam="1">  1        2 0.49485497E+00 0.59249476E+04</pdfrwt>
<pdfrwt beam="2">  1       -2 0.41976323E+00 0.59249476E+04</pdfrwt>
<totfact> 0.47178769E-03</totfact>
</mgrwt>
</event>
<event>
 6    1  0.1614874E-005  0.1099104E+04  0.7818608E-02  0.9206066E-01
          1   -1    0    0  501    0  0.00000000000E+00  0.00000000000E+00  0.13445452734E+04  0.13445452734E+04  0.00000000000E+00 0. -1.
         -1   -1    0    0    0  501 -0.00000000000E+00 -0.00000000000E+00 -0.22461674347E+03  0.22461674347E+03  0.00000000000E+00 0.  1.
         23    2    1    2    0    0 -0.16919415530E+03  0.38637317978E+03  0.10587223262E+04  0.11429495163E+04  0.86774055378E+02 0.  0.
         13    1    3    3    0    0 -0.84277390887E+02  0.29050161068E+03  0.73380450909E+03  0.79370203602E+03  0.00000000000E+00 0.  1.
        -13    1    3    3    0    0 -0.84916764414E+02  0.95871569100E+02  0.32491781710E+03  0.34924748032E+03  0.00000000000E+00 0. -1.
         22    1    1    2    0    0  0.16919415530E+03 -0.38637317978E+03  0.61206203769E+02  0.42621250055E+03  0.00000000000E+00 0.  1.
<mgrwt>
<rscale>  0 0.10991040E+04</rscale>
<asrwt>0</asrwt>
<pdfrwt beam="1">  1        1 0.20685311E+00 0.10991040E+04</pdfrwt>
<pdfrwt beam="2">  1       -1 0.34556423E-01 0.10991040E+04</pdfrwt>
<totfact> 0.66481805E+01</totfact>
</mgrwt>
</event>
<event>
 6    1  0.1614874E-005  0.2135978E+04  0.7818608E-02  0.8545558E-01
         -1   -1    0    0    0  501 -0.00000000000E+00  0.00000000000E+00  0.14861474147E+04  0.14861474147E+04  0.00000000000E+00 0.  1.
          1   -1    0    0  501    0  0.00000000000E+00 -0.00000000000E+00 -0.76748805164E+03  0.76748805164E+03  0.00000000000E+00 0. -1.
         23    2    1    2    0    0  0.56922667254E+03  0.30709484662E+03 -0.53411465907E+03  0.84375284709E+03  0.91181952075E+02 0.  0.
         11    1    3    3    0    0  0.40992440965E+03  0.20778121938E+03 -0.32586939656E+03  0.56338434516E+03  0.00000000000E+00 0. -1.
        -11    1    3    3    0    0  0.15930226289E+03  0.99313627240E+02 -0.20824526250E+03  0.28036850193E+03  0.00000000000E+00 0.  1.
         22    1    1    2    0    0 -0.56922667254E+03 -0.30709484662E+03  0.12527740221E+04  0.14098826192E+04  0.00000000000E+00 0.  1.
<mgrwt>
<rscale>  0 0.21359779E+04</rscale>
<asrwt>0</asrwt>
<pdfrwt beam="1">  1        1 0.11807509E+00 0.21359779E+04</pdfrwt>
<pdfrwt beam="2">  1       -1 0.22863806E+00 0.21359779E+04</pdfrwt>
<totfact> 0.20870166E+00</totfact>
</mgrwt>
</event>
<event>
 6    1  0.1614874E-005  0.1725828E+04  0.7818608E-02  0.8746769E-01
          2   -1    0    0  501    0  0.00000000000E+00  0.00000000000E+00  0.27543042994E+04  0.27543042994E+04  0.00000000000E+00 0.  1.
         -2   -1    0    0    0  501 -0.00000000000E+00 -0.00000000000E+00 -0.27034787794E+03  0.27034787794E+03  0.00000000000E+00 0. -1.
         23    2    1    2    0    0  0.62016862476E+03 -0.21182196760E+03  0.22234193782E+04  0.23194165996E+04  0.81375441138E+02 0.  0.
         11    1    3    3    0    0  0.38094213286E+03 -0.17148596579E+03  0.13992646998E+04  0.14602965607E+04  0.00000000000E+00 0. -1.
        -11    1    3    3    0    0  0.23922649190E+03 -0.40336001811E+02  0.82415467834E+03  0.85912003894E+03  0.00000000000E+00 0.  1.
         22    1    1    2    0    0 -0.62016862476E+03  0.21182196760E+03  0.26053704328E+03  0.70523557767E+03  0.00000000000E+00 0. -1.
<mgrwt>
<rscale>  0 0.17258277E+04</rscale>
<asrwt>0</asrwt>
<pdfrwt beam="1">  1        2 0.42373910E+00 0.17258277E+04</pdfrwt>
<pdfrwt beam="2">  1       -2 0.41591983E-01 0.17258277E+04</pdfrwt>
<totfact> 0.12852459E+01</totfact>
</mgrwt>
</event>
<event>
 6    1  0.1614874E-005  0.5335598E+04  0.7818608E-02  0.7778725E-01
          1   -1    0    0  501    0  0.00000000000E+00  0.00000000000E+00  0.30054278853E+04  0.30054278853E+04  0.00000000000E+00 0. -1.
         -1   -1    0    0    0  501 -0.00000000000E+00 -0.00000000000E+00 -0.23680996291E+04  0.23680996291E+04  0.00000000000E+00 0.  1.
         23    2    1    2    0    0  0.18560042422E+04  0.18992524334E+04  0.69455149607E+02  0.26579444429E+04  0.89067900782E+02 0.  0.
         13    1    3    3    0    0  0.11944165871E+04  0.12303623411E+04  0.25996682192E+01  0.17147679821E+04  0.00000000000E+00 0.  1.
        -13    1    3    3    0    0  0.66158765504E+03  0.66889009228E+03  0.66855481388E+02  0.94317646082E+03  0.00000000000E+00 0. -1.
         22    1    1    2    0    0 -0.18560042422E+04 -0.18992524334E+04  0.56787310660E+03  0.27155830715E+04  0.00000000000E+00 0.  1.
<mgrwt>
<rscale>  0 0.53355984E+04</rscale>
<asrwt>0</asrwt>
<pdfrwt beam="1">  1        1 0.46237352E+00 0.53355984E+04</pdfrwt>
<pdfrwt beam="2">  1       -1 0.36432302E+00 0.53355984E+04</pdfrwt>
<totfact> 0.51949539E-03</totfact>
</mgrwt>
</event>
<event>
 6    1  0.1614874E-005  0.1463728E+04  0.7818608E-02  0.8908938E-01
         -2   -1    0    0    0  501 -0.00000000000E+00  0.00000000000E+00  0.77825261702E+03  0.77825261702E+03  0.00000000000E+00 0.  1.
          2   -1    0    0  501    0  0.00000000000E+00 -0.00000000000E+00 -0.68824032727E+03  0.68824032727E+03  0.00000000000E+00 0. -1.
         23    2    1    2    0    0  0.53572288787E+03 -0.10308775722E+03  0.52962634388E+03  0.76585993417E+03  0.91713010872E+02 0.  0.
         13    1    3    3    0    0  0.21046633366E+03 -0.83538177128E+02  0.23906870887E+03  0.32928491038E+03  0.00000000000E+00 0. -1.
        -13    1    3    3    0    0  0.32525655421E+03 -0.19549580089E+02  0.29055763501E+03  0.43657502379E+03  0.00000000000E+00 0.  1.
         22    1    1    2    0    0 -0.53572288787E+03  0.10308775722E+03 -0.43961405413E+03  0.70063301012E+03  0.00000000000E+00 0. -1.
<mgrwt>
<rscale>  0 0.14637279E+04</rscale>
<asrwt>0</asrwt>
<pdfrwt beam="1">  1        2 0.10588313E+00 0.14637279E+04</pdfrwt>
<pdfrwt beam="2">  1       -2 0.11973117E+00 0.14637279E+04</pdfrwt>
<totfact> 0.21652102E+01</totfact>
</mgrwt>
</event>
<event>
 6    1  0.1614874E-005  0.2621553E+04  0.7818608E-02  0.8360917E-01
          1   -1    0    0  501    0  0.00000000000E+00  0.00000000000E+00  0.22189432168E+04  0.22189432168E+04  0.00000000000E+00 0. -1.
         -1   -1    0    0    0  501 -0.00000000000E+00 -0.00000000000E+00 -0.77430331083E+03  0.77430331083E+03  0.00000000000E+00 0.  1.
         23    2    1    2    0    0 -0.17401973732E+01  0.11082329456E+04 -0.72583259329E+02  0.11143773403E+04  0.91570940322E+02 0.  0.
         13    1    3    3    0    0  0.28036318160E+02  0.94997465104E+03 -0.74795880195E+02  0.95332696199E+03  0.00000000000E+00 0. -1.
        -13    1    3    3    0    0 -0.29776515534E+02  0.15825829451E+03  0.22126208657E+01  0.16105037829E+03  0.00000000000E+00 0.  1.
         22    1    1    2    0    0  0.17401973732E+01 -0.11082329456E+04  0.15172231653E+04  0.18788691874E+04  0.00000000000E+00 0. -1.
<mgrwt>
<rscale>  0 0.26215530E+04</rscale>
<asrwt>0</asrwt>
<pdfrwt beam="1">  1        1 0.34137588E+00 0.26215530E+04</pdfrwt>
<pdfrwt beam="2">  1       -1 0.11912359E+00 0.26215530E+04</pdfrwt>
<totfact> 0.11713903E+00</totfact>
</mgrwt>
</event>
<event>
 6    1  0.1614874E-005  0.1369800E+04  0.7818608E-02  0.8975974E-01
         -1   -1    0    0    0  501 -0.00000000000E+00  0.00000000000E+00  0.50859957889E+03  0.50859957889E+03  0.00000000000E+00 0.  1.
          1   -1    0    0  501    0  0.00000000000E+00 -0.00000000000E+00 -0.92231284979E+03  0.92231284979E+03  0.00000000000E+00 0. -1.
         23    2    1    2    0    0 -0.33295101443E+03 -0.19252946827E+03  0.38038699687E+03  0.54857507288E+03  0.91194128228E+02 0.  0.
         11    1    3    3    0    0 -0.23467657532E+03 -0.16420546752E+03  0.23323209607E+03  0.36936938315E+03  0.00000000000E+00 0. -1.
        -11    1    3    3    0    0 -0.98274439115E+02 -0.28324000755E+02  0.14715490080E+03  0.17920568973E+03  0.00000000000E+00 0.  1.
         22    1    1    2    0    0  0.33295101443E+03  0.19252946827E+03 -0.79410026778E+03  0.88233735581E+03  0.00000000000E+00 0. -1.
<mgrwt>
<rscale>  0 0.13697999E+04</rscale>
<asrwt>0</asrwt>
<pdfrwt beam="1">  1        1 0.14189428E+00 0.13697999E+04</pdfrwt>
<pdfrwt beam="2">  1       -1 0.78246089E-01 0.13697999E+04</pdfrwt>
<totfact> 0.27893975E+01</totfact>
</mgrwt>
</event>
<event>
 6    1  0.1614874E-005  0.1798996E+04  0.7818608E-02  0.8706834E-01
          3   -1    0    0  501    0  0.00000000000E+00  0.00000000000E+00  0.11379845228E+04  0.11379845228E+04  0.00000000000E+00 0. -1.
         -3   -1    0    0    0  501 -0.00000000000E+00 -0.00000000000E+00 -0.71099077868E+03  0.71099077868E+03  0.00000000000E+00 0.  1.
         23    2    1    2    0    0 -0.90712728461E+02  0.89142915526E+03  0.20012560150E+03  0.92466805162E+03  0.10993639690E+03 0.  0.
         11    1    3    3    0    0  0.88935638217E+01  0.45537649869E+03  0.10235082692E+03  0.46682174629E+03  0.00000000000E+00 0. -1.
        -11    1    3    3    0    0 -0.99606292282E+02  0.43605265657E+03  0.97774774579E+02  0.45784630533E+03  0.00000000000E+00 0.  1.
         22    1    1    2    0    0  0.90712728461E+02 -0.89142915526E+03  0.22686814259E+03  0.92430724982E+03  0.00000000000E+00 0. -1.
<mgrwt>
<rscale>  0 0.17989958E+04</rscale>
<asrwt>0</asrwt>
<pdfrwt beam="1">  1        3 0.17507454E+00 0.17989958E+04</pdfrwt>
<pdfrwt beam="2">  1       -3 0.10938320E+00 0.17989958E+04</pdfrwt>
<totfact> 0.37417631E-01</totfact>
</mgrwt>
</event>
<event>
 6    1  0.1614874E-005  0.2310864E+04  0.7818608E-02  0.8473650E-01
         -2   -1    0    0    0  501 -0.00000000000E+00  0.00000000000E+00  0.95573946257E+03  0.95573946257E+03  0.00000000000E+00 0.  1.
          2   -1    0    0  501    0  0.00000000000E+00 -0.00000000000E+00 -0.13968488729E+04  0.13968488729E+04  0.00000000000E+00 0. -1.
         23    2    1    2    0    0  0.32384719700E+03 -0.88631440048E+03  0.45444744634E+03  0.10516454824E+04  0.94897395117E+02 0.  0.
         13    1    3    3    0    0  0.86506905624E+02 -0.34631959413E+03  0.14216342985E+03  0.38422798803E+03  0.00000000000E+00 0. -1.
        -13    1    3    3    0    0  0.23734029138E+03 -0.53999480635E+03  0.31228401649E+03  0.66741749434E+03  0.00000000000E+00 0.  1.
         22    1    1    2    0    0 -0.32384719700E+03  0.88631440048E+03 -0.89555685664E+03  0.13009428531E+04  0.00000000000E+00 0. -1.
<mgrwt>
<rscale>  0 0.23108644E+04</rscale>
<asrwt>0</asrwt>
<pdfrwt beam="1">  1        2 0.21489982E+00 0.23108644E+04</pdfrwt>
<pdfrwt beam="2">  1       -2 0.14703684E+00 0.23108644E+04</pdfrwt>
<totfact> 0.41581261E+00</totfact>
</mgrwt>
</event>
<event>
 6    1  0.1614874E-005  0.2144834E+04  0.7818608E-02  0.8541747E-01
         -2   -1    0    0    0  501 -0.00000000000E+00  0.00000000000E+00  0.51350261834E+03  0.51350261834E+03  0.00000000000E+00 0.  1.
          2   -1    0    0  501    0  0.00000000000E+00 -0.00000000000E+00 -0.22396735143E+04  0.22396735143E+04  0.00000000000E+00 0. -1.
         23    2    1    2    0    0  0.97959964796E+03  0.12357020975E+03 -0.13953668350E+04  0.17118709930E+04  0.92566871244E+02 0.  0.
         11    1    3    3    0    0  0.67951230935E+03  0.42687340675E+02 -0.95053131298E+03  0.11692172444E+04  0.00000000000E+00 0. -1.
        -11    1    3    3    0    0  0.30008733861E+03  0.80882869075E+02 -0.44483552197E+03  0.54265374864E+03  0.00000000000E+00 0.  1.
         22    1    1    2    0    0 -0.97959964796E+03 -0.12357020975E+03 -0.33080406103E+03  0.10413051396E+04  0.00000000000E+00 0.  1.
<mgrwt>
<rscale>  0 0.21448340E+04</rscale>
<asrwt>0</asrwt>
<pdfrwt beam="1">  1        2 0.34456516E+00 0.21448340E+04</pdfrwt>
<pdfrwt beam="2">  1       -2 0.79000402E-01 0.21448340E+04</pdfrwt>
<totfact> 0.64029194E+00</totfact>
</mgrwt>
</event>
<event>
 6    1  0.1614874E-005  0.2690638E+04  0.7818608E-02  0.8338049E-01
          2   -1    0    0  501    0  0.00000000000E+00  0.00000000000E+00  0.36920744708E+04  0.36920744708E+04  0.00000000000E+00 0. -1.
         -2   -1    0    0    0  501 -0.00000000000E+00 -0.00000000000E+00 -0.49020755295E+03  0.49020755295E+03  0.00000000000E+00 0.  1.
         23    2    1    2    0    0 -0.86687189651E+03  0.80205495356E+03  0.25988393378E+04  0.28562347788E+04  0.96706641482E+02 0.  0.
         11    1    3    3    0    0 -0.52915677954E+03  0.49213051661E+03  0.14747166779E+04  0.16422510840E+04  0.00000000000E+00 0. -1.
        -11    1    3    3    0    0 -0.33771511698E+03  0.30992443696E+03  0.11241226599E+04  0.12139836949E+04  0.00000000000E+00 0.  1.
         22    1    1    2    0    0  0.86687189651E+03 -0.80205495356E+03  0.60302758003E+03  0.13260472449E+04  0.00000000000E+00 0.  1.
<mgrwt>
<rscale>  0 0.26906377E+04</rscale>
<asrwt>0</asrwt>
<pdfrwt beam="1">  1        2 0.56801144E+00 0.26906377E+04</pdfrwt>
<pdfrwt beam="2">  1       -2 0.75416549E-01 0.26906377E+04</pdfrwt>
<totfact> 0.81980967E-01</totfact>
</mgrwt>
</event>
<event>
 6    1  0.1614874E-005  0.1828523E+04  0.7818608E-02  0.8691277E-01
          2   -1    0    0  501    0  0.00000000000E+00  0.00000000000E+00  0.21509190992E+04  0.21509190992E+04  0.00000000000E+00 0. -1.
         -2   -1    0    0    0  501 -0.00000000000E+00 -0.00000000000E+00 -0.38861251863E+03  0.38861251863E+03  0.00000000000E+00 0.  1.
         23    2    1    2    0    0  0.21360825793E+03  0.31169545947E+03  0.20360941891E+04  0.20729030697E+04  0.92005663991E+02 0.  0.
         13    1    3    3    0    0  0.12686945457E+02  0.84383200244E+02  0.47454842866E+03  0.48215940747E+03  0.00000000000E+00 0.  1.
        -13    1    3    3    0    0  0.20092131247E+03  0.22731225923E+03  0.15615457604E+04  0.15907436622E+04  0.00000000000E+00 0. -1.
         22    1    1    2    0    0 -0.21360825793E+03 -0.31169545947E+03 -0.27378760855E+03  0.46662854810E+03  0.00000000000E+00 0.  1.
<mgrwt>
<rscale>  0 0.18285230E+04</rscale>
<asrwt>0</asrwt>
<pdfrwt beam="1">  1        2 0.33091062E+00 0.18285230E+04</pdfrwt>
<pdfrwt beam="2">  1       -2 0.59786543E-01 0.18285230E+04</pdfrwt>
<totfact> 0.13526918E+01</totfact>
</mgrwt>
</event>
<event>
 6    1  0.1614874E-005  0.4500731E+04  0.7818608E-02  0.7910509E-01
         -1   -1    0    0    0  501 -0.00000000000E+00  0.00000000000E+00  0.14097105471E+04  0.14097105471E+04  0.00000000000E+00 0.  1.
          1   -1    0    0  501    0  0.00000000000E+00 -0.00000000000E+00 -0.35923294655E+04  0.35923294655E+04  0.00000000000E+00 0. -1.
         23    2    1    2    0    0  0.18110507659E+04  0.13136169674E+04 -0.83263276218E+03  0.23890040321E+04  0.92566380801E+02 0.  0.
         13    1    3    3    0    0  0.16685205783E+04  0.12069573171E+04 -0.73915961987E+03  0.21879359746E+04  0.00000000000E+00 0. -1.
        -13    1    3    3    0    0  0.14253018756E+03  0.10665965036E+03 -0.93473142312E+02  0.20106805742E+03  0.00000000000E+00 0.  1.
         22    1    1    2    0    0 -0.18110507659E+04 -0.13136169674E+04 -0.13499861562E+04  0.26130359806E+04  0.00000000000E+00 0. -1.
<mgrwt>
<rscale>  0 0.45007309E+04</rscale>
<asrwt>0</asrwt>
<pdfrwt beam="1">  1        1 0.55266607E+00 0.45007309E+04</pdfrwt>
<pdfrwt beam="2">  1       -1 0.21687855E+00 0.45007309E+04</pdfrwt>
<totfact> 0.18279970E-02</totfact>
</mgrwt>
</event>
<event>
 6    1  0.1614874E-005  0.7777141E+03  0.7818608E-02  0.9592847E-01
         -2   -1    0    0    0  501 -0.00000000000E+00  0.00000000000E+00  0.19697971984E+03  0.19697971984E+03  0.00000000000E+00 0.  1.
          2   -1    0    0  501    0  0.00000000000E+00 -0.00000000000E+00 -0.76764157715E+03  0.76764157715E+03  0.00000000000E+00 0. -1.
         23    2    1    2    0    0  0.54737951127E+02 -0.28209569631E+03  0.25531076971E+02  0.30279032154E+03  0.91956064286E+02 0.  0.
         13    1    3    3    0    0  0.36011232968E+02 -0.93381311495E+02 -0.31218140633E+02  0.10484011895E+03  0.00000000000E+00 0.  1.
        -13    1    3    3    0    0  0.18726718159E+02 -0.18871438482E+03  0.56749217604E+02  0.19795020260E+03  0.00000000000E+00 0. -1.
         22    1    1    2    0    0 -0.54737951127E+02  0.28209569631E+03 -0.59619293428E+03  0.66183097544E+03  0.00000000000E+00 0.  1.
<mgrwt>
<rscale>  0 0.77771414E+03</rscale>
<asrwt>0</asrwt>
<pdfrwt beam="1">  1        2 0.11809870E+00 0.77771414E+03</pdfrwt>
<pdfrwt beam="2">  1       -2 0.30304572E-01 0.77771414E+03</pdfrwt>
<totfact> 0.36785213E+02</totfact>
</mgrwt>
</event>
<event>
 6    1  0.1614874E-005  0.3027897E+04  0.7818608E-02  0.8235809E-01
         -1   -1    0    0    0  501 -0.00000000000E+00  0.00000000000E+00  0.12587408169E+04  0.12587408169E+04  0.00000000000E+00 0.  1.
          1   -1    0    0  501    0  0.00000000000E+00 -0.00000000000E+00 -0.18208992238E+04  0.18208992238E+04  0.00000000000E+00 0. -1.
         23    2    1    2    0    0  0.15826818711E+03 -0.14525574365E+04  0.11632313007E+03  0.14686437275E+04  0.91713697429E+02 0.  0.
         13    1    3    3    0    0  0.72667922487E+02 -0.89157216651E+03  0.33525118060E+02  0.89515668383E+03  0.00000000000E+00 0. -1.
        -13    1    3    3    0    0  0.85600264618E+02 -0.56098527000E+03  0.82798012011E+02  0.57348704366E+03  0.00000000000E+00 0.  1.
         22    1    1    2    0    0 -0.15826818711E+03  0.14525574365E+04 -0.67848153694E+03  0.16109963133E+04  0.00000000000E+00 0. -1.
<mgrwt>
<rscale>  0 0.30278971E+04</rscale>
<asrwt>0</asrwt>
<pdfrwt beam="1">  1        1 0.28013834E+00 0.30278971E+04</pdfrwt>
<pdfrwt beam="2">  1       -1 0.19365243E+00 0.30278971E+04</pdfrwt>
<totfact> 0.55770212E-01</totfact>
</mgrwt>
</event>
<event>
 6    1  0.1614874E-005  0.1478690E+04  0.7818608E-02  0.8898749E-01
          2   -1    0    0  501    0  0.00000000000E+00  0.00000000000E+00  0.16738137494E+04  0.16738137494E+04  0.00000000000E+00 0. -1.
         -2   -1    0    0    0  501 -0.00000000000E+00 -0.00000000000E+00 -0.32657819066E+03  0.32657819066E+03  0.00000000000E+00 0.  1.
         23    2    1    2    0    0  0.16414294612E+03 -0.43742497445E+03 -0.94349710909E+02  0.48498717410E+03  0.89594509127E+02 0.  0.
         13    1    3    3    0    0 -0.12266324981E+01 -0.16277020979E+02 -0.21048295717E+02  0.26636005553E+02  0.00000000000E+00 0.  1.
        -13    1    3    3    0    0  0.16536957862E+03 -0.42114795347E+03 -0.73301415192E+02  0.45835116855E+03  0.00000000000E+00 0. -1.
         22    1    1    2    0    0 -0.16414294612E+03  0.43742497445E+03  0.14415852696E+04  0.15154047660E+04  0.00000000000E+00 0. -1.
<mgrwt>
<rscale>  0 0.14786900E+04</rscale>
<asrwt>0</asrwt>
<pdfrwt beam="1">  1        2 0.25750980E+00 0.14786900E+04</pdfrwt>
<pdfrwt beam="2">  1       -2 0.50242800E-01 0.14786900E+04</pdfrwt>
<totfact> 0.36769685E+01</totfact>
</mgrwt>
</event>
<event>
 6    1  0.1614874E-005  0.1916967E+04  0.7818608E-02  0.8646456E-01
          1   -1    0    0  501    0  0.00000000000E+00  0.00000000000E+00  0.12317812334E+04  0.12317812334E+04  0.00000000000E+00 0. -1.
         -1   -1    0    0    0  501 -0.00000000000E+00 -0.00000000000E+00 -0.74582322924E+03  0.74582322924E+03  0.00000000000E+00 0.  1.
         23    2    1    2    0    0 -0.26754675686E+03 -0.20292413690E+03  0.11674018331E+04  0.12179169185E+04  0.87949462696E+02 0.  0.
         11    1    3    3    0    0 -0.13623583700E+03 -0.72507864970E+02  0.66040218169E+03  0.67819513073E+03  0.00000000000E+00 0.  1.
        -11    1    3    3    0    0 -0.13131091987E+03 -0.13041627193E+03  0.50699965146E+03  0.53972178781E+03  0.00000000000E+00 0. -1.
         22    1    1    2    0    0  0.26754675686E+03  0.20292413690E+03 -0.68144382903E+03  0.75968754404E+03  0.00000000000E+00 0.  1.
<mgrwt>
<rscale>  0 0.19169675E+04</rscale>
<asrwt>0</asrwt>
<pdfrwt beam="1">  1        1 0.18950480E+00 0.19169675E+04</pdfrwt>
<pdfrwt beam="2">  1       -1 0.11474204E+00 0.19169675E+04</pdfrwt>
<totfact> 0.65320835E+00</totfact>
</mgrwt>
</event>
<event>
 6    1  0.1614874E-005  0.1563257E+04  0.7818608E-02  0.8843444E-01
          1   -1    0    0  501    0  0.00000000000E+00  0.00000000000E+00  0.10775067932E+04  0.10775067932E+04  0.00000000000E+00 0. -1.
         -1   -1    0    0    0  501 -0.00000000000E+00 -0.00000000000E+00 -0.56699684979E+03  0.56699684979E+03  0.00000000000E+00 0.  1.
         23    2    1    2    0    0 -0.23330927269E+03 -0.51571366976E+03  0.81945979605E+03  0.99964410995E+03  0.85907993316E+02 0.  0.
         11    1    3    3    0    0 -0.15217863974E+03 -0.25798609289E+03  0.38135411773E+03  0.48491867940E+03  0.00000000000E+00 0.  1.
        -11    1    3    3    0    0 -0.81130632947E+02 -0.25772757686E+03  0.43810567832E+03  0.51472543055E+03  0.00000000000E+00 0. -1.
         22    1    1    2    0    0  0.23330927269E+03  0.51571366976E+03 -0.30894985265E+03  0.64485953304E+03  0.00000000000E+00 0.  1.
<mgrwt>
<rscale>  0 0.15632568E+04</rscale>
<asrwt>0</asrwt>
<pdfrwt beam="1">  1        1 0.16577028E+00 0.15632568E+04</pdfrwt>
<pdfrwt beam="2">  1       -1 0.87230285E-01 0.15632568E+04</pdfrwt>
<totfact> 0.16422981E+01</totfact>
</mgrwt>
</event>
<event>
 6    1  0.1614874E-005  0.2064284E+04  0.7818608E-02  0.8577142E-01
         -2   -1    0    0    0  501 -0.00000000000E+00  0.00000000000E+00  0.80344142980E+03  0.80344142980E+03  0.00000000000E+00 0. -1.
          2   -1    0    0  501    0  0.00000000000E+00 -0.00000000000E+00 -0.13259425271E+04  0.13259425271E+04  0.00000000000E+00 0.  1.
         23    2    1    2    0    0  0.39189499271E+03 -0.31984455605E+03  0.66401848679E+03  0.83953476076E+03  0.89531214549E+02 0.  0.
         11    1    3    3    0    0  0.35271112595E+03 -0.27116820644E+03  0.53228873304E+03  0.69373527362E+03  0.00000000000E+00 0. -1.
        -11    1    3    3    0    0  0.39183866766E+02 -0.48676349615E+02  0.13172975375E+03  0.14579948714E+03  0.00000000000E+00 0.  1.
         22    1    1    2    0    0 -0.39189499271E+03  0.31984455605E+03 -0.11865195841E+04  0.12898491962E+04  0.00000000000E+00 0.  1.
<mgrwt>
<rscale>  0 0.20642841E+04</rscale>
<asrwt>0</asrwt>
<pdfrwt beam="1">  1        2 0.20399116E+00 0.20642841E+04</pdfrwt>
<pdfrwt beam="2">  1       -2 0.12360637E+00 0.20642841E+04</pdfrwt>
<totfact> 0.72786200E+00</totfact>
</mgrwt>
</event>
<event>
 6    1  0.1614874E-005  0.8547742E+03  0.7818608E-02  0.9483952E-01
          1   -1    0    0  501    0  0.00000000000E+00  0.00000000000E+00  0.65473927962E+03  0.65473927962E+03  0.00000000000E+00 0. -1.
         -1   -1    0    0    0  501 -0.00000000000E+00 -0.00000000000E+00 -0.27898086589E+03  0.27898086589E+03  0.00000000000E+00 0.  1.
         23    2    1    2    0    0  0.15404397578E+03  0.98926733258E+02 -0.22594481782E+03  0.30478229175E+03  0.91242203175E+02 0.  0.
         11    1    3    3    0    0  0.58544409954E+02 -0.96944030578E+01 -0.76391072674E+02  0.96731718541E+02  0.00000000000E+00 0.  1.
        -11    1    3    3    0    0  0.95499565827E+02  0.10862113632E+03 -0.14955374514E+03  0.20805057321E+03  0.00000000000E+00 0. -1.
         22    1    1    2    0    0 -0.15404397578E+03 -0.98926733258E+02  0.60170323155E+03  0.62893785375E+03  0.00000000000E+00 0. -1.
<mgrwt>
<rscale>  0 0.85477420E+03</rscale>
<asrwt>0</asrwt>
<pdfrwt beam="1">  1        1 0.10072912E+00 0.85477420E+03</pdfrwt>
<pdfrwt beam="2">  1       -1 0.42920133E-01 0.85477420E+03</pdfrwt>
<totfact> 0.16259513E+02</totfact>
</mgrwt>
</event>
<event>
 6    1  0.1614874E-005  0.2264045E+04  0.7818608E-02  0.8492234E-01
          1   -1    0    0  501    0  0.00000000000E+00  0.00000000000E+00  0.27759752882E+04  0.27759752882E+04  0.00000000000E+00 0. -1.
         -1   -1    0    0    0  501 -0.00000000000E+00 -0.00000000000E+00 -0.46163050399E+03  0.46163050399E+03  0.00000000000E+00 0.  1.
         23    2    1    2    0    0  0.86750035791E+03 -0.52207018800E+03  0.44078272830E+03  0.11079699244E+04  0.90519542266E+02 0.  0.
         13    1    3    3    0    0  0.38628396059E+03 -0.24247886915E+03  0.24688566480E+03  0.51861723041E+03  0.00000000000E+00 0.  1.
        -13    1    3    3    0    0  0.48121639732E+03 -0.27959131886E+03  0.19389706350E+03  0.58935269395E+03  0.00000000000E+00 0. -1.
         22    1    1    2    0    0 -0.86750035791E+03  0.52207018800E+03  0.18735620559E+04  0.21296358678E+04  0.00000000000E+00 0. -1.
<mgrwt>
<rscale>  0 0.22640449E+04</rscale>
<asrwt>0</asrwt>
<pdfrwt beam="1">  1        1 0.42707311E+00 0.22640449E+04</pdfrwt>
<pdfrwt beam="2">  1       -1 0.71020080E-01 0.22640449E+04</pdfrwt>
<totfact> 0.15744725E+00</totfact>
</mgrwt>
</event>
<event>
 6    1  0.1614874E-005  0.2807120E+04  0.7818608E-02  0.8301061E-01
         -3   -1    0    0    0  501 -0.00000000000E+00  0.00000000000E+00  0.10896547525E+04  0.10896547525E+04  0.00000000000E+00 0.  1.
          3   -1    0    0  501    0  0.00000000000E+00 -0.00000000000E+00 -0.18078946391E+04  0.18078946391E+04  0.00000000000E+00 0. -1.
         23    2    1    2    0    0  0.72357928508E+02  0.12701066488E+04  0.24893891114E+03  0.12994751143E+04  0.90875859958E+02 0.  0.
         11    1    3    3    0    0  0.20325526819E+02  0.84978287425E+03  0.13306458542E+03  0.86037796596E+03  0.00000000000E+00 0. -1.
        -11    1    3    3    0    0  0.52032401689E+02  0.42032377459E+03  0.11587432571E+03  0.43909714833E+03  0.00000000000E+00 0.  1.
         22    1    1    2    0    0 -0.72357928508E+02 -0.12701066488E+04 -0.96717879770E+03  0.15980742774E+04  0.00000000000E+00 0. -1.
<mgrwt>
<rscale>  0 0.28071202E+04</rscale>
<asrwt>0</asrwt>
<pdfrwt beam="1">  1        3 0.27813763E+00 0.28071202E+04</pdfrwt>
<pdfrwt beam="2">  1       -3 0.16763920E+00 0.28071202E+04</pdfrwt>
<totfact> 0.27772611E-02</totfact>
</mgrwt>
</event>
<event>
 6    1  0.1614874E-005  0.1248102E+04  0.7818608E-02  0.9071765E-01
         -2   -1    0    0    0  501 -0.00000000000E+00  0.00000000000E+00  0.28012553259E+03  0.28012553259E+03  0.00000000000E+00 0.  1.
          2   -1    0    0  501    0  0.00000000000E+00 -0.00000000000E+00 -0.13902321930E+04  0.13902321930E+04  0.00000000000E+00 0. -1.
         23    2    1    2    0    0 -0.39999517430E+03 -0.40618561885E+03 -0.22993659890E+03  0.62170037754E+03  0.93046351339E+02 0.  0.
         13    1    3    3    0    0 -0.13038388872E+03 -0.14428652827E+03 -0.32633465936E+02  0.19718900521E+03  0.00000000000E+00 0.  1.
        -13    1    3    3    0    0 -0.26961128558E+03 -0.26189909058E+03 -0.19730313296E+03  0.42451137232E+03  0.00000000000E+00 0. -1.
         22    1    1    2    0    0  0.39999517430E+03  0.40618561885E+03 -0.88017006148E+03  0.10486573480E+04  0.00000000000E+00 0. -1.
<mgrwt>
<rscale>  0 0.12481018E+04</rscale>
<asrwt>0</asrwt>
<pdfrwt beam="1">  1        2 0.21388188E+00 0.12481018E+04</pdfrwt>
<pdfrwt beam="2">  1       -2 0.43096234E-01 0.12481018E+04</pdfrwt>
<totfact> 0.73570637E+01</totfact>
</mgrwt>
</event>
<event>
 6    1  0.1614874E-005  0.2213397E+04  0.7818608E-02  0.8512873E-01
          2   -1    0    0  501    0  0.00000000000E+00  0.00000000000E+00  0.22800085803E+04  0.22800085803E+04  0.00000000000E+00 0.  1.
         -2   -1    0    0    0  501 -0.00000000000E+00 -0.00000000000E+00 -0.53718299159E+03  0.53718299159E+03  0.00000000000E+00 0. -1.
         23    2    1    2    0    0 -0.20677566554E+02 -0.10288782486E+04  0.36133857748E+03  0.10945411795E+04  0.91852130401E+02 0.  0.
         13    1    3    3    0    0 -0.44379557854E+02 -0.27983291100E+03  0.85164596314E+02  0.29585302381E+03  0.00000000000E+00 0.  1.
        -13    1    3    3    0    0  0.23701991300E+02 -0.74904533759E+03  0.27617398116E+03  0.79868815569E+03  0.00000000000E+00 0. -1.
         22    1    1    2    0    0  0.20677566554E+02  0.10288782486E+04  0.13814870112E+04  0.17226503924E+04  0.00000000000E+00 0.  1.
<mgrwt>
<rscale>  0 0.22133972E+04</rscale>
<asrwt>0</asrwt>
<pdfrwt beam="1">  1        2 0.35077055E+00 0.22133972E+04</pdfrwt>
<pdfrwt beam="2">  1       -2 0.82643538E-01 0.22133972E+04</pdfrwt>
<totfact> 0.54567184E+00</totfact>
</mgrwt>
</event>
<event>
 6    1  0.1614874E-005  0.1046536E+04  0.7818608E-02  0.9258928E-01
          1   -1    0    0  501    0  0.00000000000E+00  0.00000000000E+00  0.25593556809E+03  0.25593556809E+03  0.00000000000E+00 0. -1.
         -1   -1    0    0    0  501 -0.00000000000E+00 -0.00000000000E+00 -0.10698374408E+04  0.10698374408E+04  0.00000000000E+00 0.  1.
         23    2    1    2    0    0  0.11722195272E+03  0.26408752001E+03 -0.95655107419E+03  0.10035432785E+04  0.92875992033E+02 0.  0.
         13    1    3    3    0    0  0.39247806633E+02  0.18366116423E+03 -0.67157318976E+03  0.69733948890E+03  0.00000000000E+00 0. -1.
        -13    1    3    3    0    0  0.77974146091E+02  0.80426355775E+02 -0.28497788443E+03  0.30620378962E+03  0.00000000000E+00 0.  1.
         22    1    1    2    0    0 -0.11722195272E+03 -0.26408752001E+03  0.14264920151E+03  0.32222973034E+03  0.00000000000E+00 0. -1.
<mgrwt>
<rscale>  0 0.10465361E+04</rscale>
<asrwt>0</asrwt>
<pdfrwt beam="1">  1        1 0.39374703E-01 0.10465361E+04</pdfrwt>
<pdfrwt beam="2">  1       -1 0.16459037E+00 0.10465361E+04</pdfrwt>
<totfact> 0.29113449E+01</totfact>
</mgrwt>
</event>
<event>
 6    1  0.1614874E-005  0.3237055E+04  0.7818608E-02  0.8179099E-01
         -1   -1    0    0    0  501 -0.00000000000E+00  0.00000000000E+00  0.66891049670E+03  0.66891049670E+03  0.00000000000E+00 0.  1.
          1   -1    0    0  501    0  0.00000000000E+00 -0.00000000000E+00 -0.39162647714E+04  0.39162647714E+04  0.00000000000E+00 0. -1.
         23    2    1    2    0    0  0.26544021922E+02 -0.57507510520E+03 -0.37657722525E+04  0.38104668316E+04  0.84857852439E+02 0.  0.
         11    1    3    3    0    0  0.10745620424E+02 -0.43032124124E+03 -0.30300704510E+04  0.30604932245E+04  0.00000000000E+00 0. -1.
        -11    1    3    3    0    0  0.15798401498E+02 -0.14475386396E+03 -0.73570180154E+03  0.74997360714E+03  0.00000000000E+00 0.  1.
         22    1    1    2    0    0 -0.26544021922E+02  0.57507510520E+03  0.51841797788E+03  0.77470843645E+03  0.00000000000E+00 0.  1.
<mgrwt>
<rscale>  0 0.32370546E+04</rscale>
<asrwt>0</asrwt>
<pdfrwt beam="1">  1        1 0.60250225E+00 0.32370546E+04</pdfrwt>
<pdfrwt beam="2">  1       -1 0.10290931E+00 0.32370546E+04</pdfrwt>
<totfact> 0.84307344E-02</totfact>
</mgrwt>
</event>
<event>
 6    1  0.1614874E-005  0.6453231E+03  0.7818608E-02  0.9815595E-01
          2   -1    0    0  501    0  0.00000000000E+00  0.00000000000E+00  0.48240616208E+03  0.48240616208E+03  0.00000000000E+00 0. -1.
         -2   -1    0    0    0  501 -0.00000000000E+00 -0.00000000000E+00 -0.21581500868E+03  0.21581500868E+03  0.00000000000E+00 0.  1.
         23    2    1    2    0    0  0.51421938964E+01  0.29023750185E+03 -0.69938408711E+00  0.30362203103E+03  0.89003364823E+02 0.  0.
         11    1    3    3    0    0  0.87601296501E+01  0.15879910394E+03 -0.44297280404E+02  0.16509434980E+03  0.00000000000E+00 0.  1.
        -11    1    3    3    0    0 -0.36179357537E+01  0.13143839791E+03  0.43597896317E+02  0.13852768123E+03  0.00000000000E+00 0. -1.
         22    1    1    2    0    0 -0.51421938964E+01 -0.29023750185E+03  0.26729053749E+03  0.39459913972E+03  0.00000000000E+00 0. -1.
<mgrwt>
<rscale>  0 0.64532314E+03</rscale>
<asrwt>0</asrwt>
<pdfrwt beam="1">  1        2 0.74216332E-01 0.64532314E+03</pdfrwt>
<pdfrwt beam="2">  1       -2 0.33202309E-01 0.64532314E+03</pdfrwt>
<totfact> 0.54748584E+02</totfact>
</mgrwt>
</event>
<event>
 6    1  0.1614874E-005  0.2351681E+04  0.7818608E-02  0.8457818E-01
          1   -1    0    0  501    0  0.00000000000E+00  0.00000000000E+00  0.11568835413E+04  0.11568835413E+04  0.00000000000E+00 0. -1.
         -1   -1    0    0    0  501 -0.00000000000E+00 -0.00000000000E+00 -0.11951075842E+04  0.11951075842E+04  0.00000000000E+00 0.  1.
         23    2    1    2    0    0 -0.54059569527E+03 -0.57511976218E+03  0.85019586867E+03  0.11635903573E+04  0.90016986285E+02 0.  0.
         13    1    3    3    0    0 -0.31421558211E+03 -0.27243915756E+03  0.46743636254E+03  0.62566067452E+03  0.00000000000E+00 0.  1.
        -13    1    3    3    0    0 -0.22638011316E+03 -0.30268060462E+03  0.38275950613E+03  0.53792968275E+03  0.00000000000E+00 0. -1.
         22    1    1    2    0    0  0.54059569527E+03  0.57511976218E+03 -0.88841991160E+03  0.11884007682E+04  0.00000000000E+00 0.  1.
<mgrwt>
<rscale>  0 0.23516805E+04</rscale>
<asrwt>0</asrwt>
<pdfrwt beam="1">  1        1 0.17798208E+00 0.23516805E+04</pdfrwt>
<pdfrwt beam="2">  1       -1 0.18386270E+00 0.23516805E+04</pdfrwt>
<totfact> 0.20202507E+00</totfact>
</mgrwt>
</event>
<event>
 6    1  0.1614874E-005  0.2731195E+04  0.7818608E-02  0.8324954E-01
         -2   -1    0    0    0  501 -0.00000000000E+00  0.00000000000E+00  0.62916128084E+03  0.62916128084E+03  0.00000000000E+00 0.  1.
          2   -1    0    0  501    0  0.00000000000E+00 -0.00000000000E+00 -0.29640361994E+04  0.29640361994E+04  0.00000000000E+00 0. -1.
         23    2    1    2    0    0  0.20920630229E+03 -0.75971008503E+03  0.29623299647E+03  0.84662588083E+03  0.89970571132E+02 0.  0.
         13    1    3    3    0    0  0.32494876943E+02 -0.27878499572E+03  0.99348184668E+02  0.29773654909E+03  0.00000000000E+00 0.  1.
        -13    1    3    3    0    0  0.17671142534E+03 -0.48092508932E+03  0.19688481180E+03  0.54888933174E+03  0.00000000000E+00 0. -1.
         22    1    1    2    0    0 -0.20920630229E+03  0.75971008503E+03 -0.26311079151E+04  0.27465715995E+04  0.00000000000E+00 0. -1.
<mgrwt>
<rscale>  0 0.27311952E+04</rscale>
<asrwt>0</asrwt>
<pdfrwt beam="1">  1        2 0.45600557E+00 0.27311952E+04</pdfrwt>
<pdfrwt beam="2">  1       -2 0.96794042E-01 0.27311952E+04</pdfrwt>
<totfact> 0.14308328E+00</totfact>
</mgrwt>
</event>
<event>
 6    1  0.1614874E-005  0.4205568E+04  0.7818608E-02  0.7964314E-01
          1   -1    0    0  501    0  0.00000000000E+00  0.00000000000E+00  0.48239515417E+04  0.48239515417E+04  0.00000000000E+00 0. -1.
         -1   -1    0    0    0  501 -0.00000000000E+00 -0.00000000000E+00 -0.91661386016E+03  0.91661386016E+03  0.00000000000E+00 0.  1.
         23    2    1    2    0    0 -0.92828208647E+03 -0.18320245852E+04  0.13440190870E+04  0.24559613268E+04  0.85656405184E+02 0.  0.
         13    1    3    3    0    0 -0.36059320925E+03 -0.76658615175E+03  0.51363976018E+03  0.99071065092E+03  0.00000000000E+00 0. -1.
        -13    1    3    3    0    0 -0.56768887721E+03 -0.10654384334E+04  0.83037932686E+03  0.14652506759E+04  0.00000000000E+00 0.  1.
         22    1    1    2    0    0  0.92828208647E+03  0.18320245852E+04  0.25633185945E+04  0.32846040751E+04  0.00000000000E+00 0.  1.
<mgrwt>
<rscale>  0 0.42055681E+04</rscale>
<asrwt>0</asrwt>
<pdfrwt beam="1">  1        1 0.74214638E+00 0.42055681E+04</pdfrwt>
<pdfrwt beam="2">  1       -1 0.14101752E+00 0.42055681E+04</pdfrwt>
<totfact> 0.44571592E-03</totfact>
</mgrwt>
</event>
<event>
 6    1  0.1614874E-005  0.4520202E+04  0.7818608E-02  0.7907109E-01
         -1   -1    0    0    0  501 -0.00000000000E+00  0.00000000000E+00  0.14911011608E+04  0.14911011608E+04  0.00000000000E+00 0.  1.
          1   -1    0    0  501    0  0.00000000000E+00 -0.00000000000E+00 -0.34256945615E+04  0.34256945615E+04  0.00000000000E+00 0. -1.
         23    2    1    2    0    0 -0.10650465919E+04 -0.18111261492E+04 -0.18707683952E+04  0.28147548563E+04  0.92565336345E+02 0.  0.
         13    1    3    3    0    0 -0.45809503038E+03 -0.69922513894E+03 -0.71646826579E+03  0.11009512376E+04  0.00000000000E+00 0. -1.
        -13    1    3    3    0    0 -0.60695156149E+03 -0.11119010102E+04 -0.11543001294E+04  0.17138036186E+04  0.00000000000E+00 0.  1.
         22    1    1    2    0    0  0.10650465919E+04  0.18111261492E+04 -0.63825005565E+02  0.21020408660E+04  0.00000000000E+00 0.  1.
<mgrwt>
<rscale>  0 0.45202023E+04</rscale>
<asrwt>0</asrwt>
<pdfrwt beam="1">  1        1 0.52702993E+00 0.45202023E+04</pdfrwt>
<pdfrwt beam="2">  1       -1 0.22940018E+00 0.45202023E+04</pdfrwt>
<totfact> 0.20398645E-02</totfact>
</mgrwt>
</event>
<event>
 6    1  0.1614874E-005  0.1845867E+04  0.7818608E-02  0.8682281E-01
          2   -1    0    0  501    0  0.00000000000E+00  0.00000000000E+00  0.95122273676E+03  0.95122273676E+03  0.00000000000E+00 0.  1.
         -2   -1    0    0    0  501 -0.00000000000E+00 -0.00000000000E+00 -0.89548558739E+03  0.89548558739E+03  0.00000000000E+00 0. -1.
         23    2    1    2    0    0 -0.69326923708E+03  0.54103407639E+03  0.30045483818E+03  0.93389571790E+03  0.92455368902E+02 0.  0.
         11    1    3    3    0    0 -0.34762834034E+03  0.21283698709E+03  0.13806157377E+03  0.43035571825E+03  0.00000000000E+00 0. -1.
        -11    1    3    3    0    0 -0.34564089674E+03  0.32819708930E+03  0.16239326441E+03  0.50353999965E+03  0.00000000000E+00 0.  1.
         22    1    1    2    0    0  0.69326923708E+03 -0.54103407639E+03 -0.24471768881E+03  0.91281260624E+03  0.00000000000E+00 0. -1.
<mgrwt>
<rscale>  0 0.18458670E+04</rscale>
<asrwt>0</asrwt>
<pdfrwt beam="1">  1        2 0.14634196E+00 0.18458670E+04</pdfrwt>
<pdfrwt beam="2">  1       -2 0.13776701E+00 0.18458670E+04</pdfrwt>
<totfact> 0.95442922E+00</totfact>
</mgrwt>
</event>
<event>
 6    1  0.1614874E-005  0.4083362E+04  0.7818608E-02  0.7987938E-01
         -1   -1    0    0    0  501 -0.00000000000E+00  0.00000000000E+00  0.13248653597E+04  0.13248653597E+04  0.00000000000E+00 0.  1.
          1   -1    0    0  501    0  0.00000000000E+00 -0.00000000000E+00 -0.31463279144E+04  0.31463279144E+04  0.00000000000E+00 0. -1.
         23    2    1    2    0    0 -0.65303097552E+03  0.11193324758E+03  0.12023718322E+04  0.13756233901E+04  0.87539599518E+02 0.  0.
         11    1    3    3    0    0 -0.81932954637E+02  0.11867539414E+02  0.97861756815E+02  0.12818256900E+03  0.00000000000E+00 0. -1.
        -11    1    3    3    0    0 -0.57109802088E+03  0.10006570817E+03  0.11045100754E+04  0.12474408211E+04  0.00000000000E+00 0.  1.
         22    1    1    2    0    0  0.65303097552E+03 -0.11193324758E+03 -0.30238343869E+04  0.30955698840E+04  0.00000000000E+00 0. -1.
<mgrwt>
<rscale>  0 0.40833618E+04</rscale>
<asrwt>0</asrwt>
<pdfrwt beam="1">  1        1 0.48405045E+00 0.40833618E+04</pdfrwt>
<pdfrwt beam="2">  1       -1 0.20382544E+00 0.40833618E+04</pdfrwt>
<totfact> 0.51301047E-02</totfact>
</mgrwt>
</event>
<event>
 6    1  0.1614874E-005  0.3761080E+04  0.7818608E-02  0.8054559E-01
         -2   -1    0    0    0  501 -0.00000000000E+00  0.00000000000E+00  0.15978911329E+04  0.15978911329E+04  0.00000000000E+00 0.  1.
          2   -1    0    0  501    0  0.00000000000E+00 -0.00000000000E+00 -0.22131858816E+04  0.22131858816E+04  0.00000000000E+00 0. -1.
         23    2    1    2    0    0 -0.89057987190E+03  0.14348930915E+04 -0.11435315062E+04  0.20415898673E+04  0.91510591768E+02 0.  0.
         11    1    3    3    0    0 -0.54168718399E+03  0.92357530873E+03 -0.76659595811E+03  0.13168468853E+04  0.00000000000E+00 0. -1.
        -11    1    3    3    0    0 -0.34889268791E+03  0.51131778276E+03 -0.37693554814E+03  0.72474298209E+03  0.00000000000E+00 0.  1.
         22    1    1    2    0    0  0.89057987190E+03 -0.14348930915E+04  0.52823675756E+03  0.17694871472E+04  0.00000000000E+00 0.  1.
<mgrwt>
<rscale>  0 0.37610797E+04</rscale>
<asrwt>0</asrwt>
<pdfrwt beam="1">  1        2 0.34049014E+00 0.37610797E+04</pdfrwt>
<pdfrwt beam="2">  1       -2 0.24582940E+00 0.37610797E+04</pdfrwt>
<totfact> 0.27840633E-01</totfact>
</mgrwt>
</event>
<event>
 6    1  0.1614874E-005  0.1777833E+04  0.7818608E-02  0.8718177E-01
          1   -1    0    0  501    0  0.00000000000E+00  0.00000000000E+00  0.60820729615E+03  0.60820729615E+03  0.00000000000E+00 0. -1.
         -1   -1    0    0    0  501 -0.00000000000E+00 -0.00000000000E+00 -0.12991832996E+04  0.12991832996E+04  0.00000000000E+00 0.  1.
         23    2    1    2    0    0 -0.79075059461E+03 -0.20427179149E+03 -0.71627567687E+03  0.10902899036E+04  0.93100810850E+02 0.  0.
         11    1    3    3    0    0 -0.63125568225E+03 -0.16610063994E+03 -0.52022723069E+03  0.83469127856E+03  0.00000000000E+00 0. -1.
        -11    1    3    3    0    0 -0.15949491237E+03 -0.38171151554E+02 -0.19604844619E+03  0.25559862506E+03  0.00000000000E+00 0.  1.
         22    1    1    2    0    0  0.79075059461E+03  0.20427179149E+03  0.25299673386E+02  0.81710069217E+03  0.00000000000E+00 0. -1.
<mgrwt>
<rscale>  0 0.17778332E+04</rscale>
<asrwt>0</asrwt>
<pdfrwt beam="1">  1        1 0.93570353E-01 0.17778332E+04</pdfrwt>
<pdfrwt beam="2">  1       -1 0.19987435E+00 0.17778332E+04</pdfrwt>
<totfact> 0.47865964E+00</totfact>
</mgrwt>
</event>
<event>
 6    1  0.1614874E-005  0.2292359E+04  0.7818608E-02  0.8480940E-01
          1   -1    0    0  501    0  0.00000000000E+00  0.00000000000E+00  0.16041284695E+04  0.16041284695E+04  0.00000000000E+00 0. -1.
         -1   -1    0    0    0  501 -0.00000000000E+00 -0.00000000000E+00 -0.81896669359E+03  0.81896669359E+03  0.00000000000E+00 0.  1.
         23    2    1    2    0    0 -0.32757391782E+03 -0.47902441707E+03 -0.64961356810E+03  0.87540354279E+03  0.86974197850E+02 0.  0.
         13    1    3    3    0    0 -0.45909383362E+02 -0.81035389697E+02 -0.15529705320E+03  0.18108445708E+03  0.00000000000E+00 0.  1.
        -13    1    3    3    0    0 -0.28166453446E+03 -0.39798902737E+03 -0.49431651489E+03  0.69431908571E+03  0.00000000000E+00 0. -1.
         22    1    1    2    0    0  0.32757391782E+03  0.47902441707E+03  0.14347753441E+04  0.15476916203E+04  0.00000000000E+00 0. -1.
<mgrwt>
<rscale>  0 0.22923593E+04</rscale>
<asrwt>0</asrwt>
<pdfrwt beam="1">  1        1 0.24678899E+00 0.22923593E+04</pdfrwt>
<pdfrwt beam="2">  1       -1 0.12599488E+00 0.22923593E+04</pdfrwt>
<totfact> 0.27510614E+00</totfact>
</mgrwt>
</event>
<event>
 6    1  0.1614874E-005  0.1961462E+04  0.7818608E-02  0.8624853E-01
          2   -1    0    0  501    0  0.00000000000E+00  0.00000000000E+00  0.20942940942E+04  0.20942940942E+04  0.00000000000E+00 0.  1.
         -2   -1    0    0    0  501 -0.00000000000E+00 -0.00000000000E+00 -0.45926373651E+03  0.45926373651E+03  0.00000000000E+00 0. -1.
         23    2    1    2    0    0  0.41958199443E+03 -0.19817082043E+03  0.19409586120E+04  0.19977585675E+04  0.91641890813E+02 0.  0.
         11    1    3    3    0    0  0.18340566737E+03 -0.48234448056E+02  0.90770305521E+03  0.92730202050E+03  0.00000000000E+00 0.  1.
        -11    1    3    3    0    0  0.23617632707E+03 -0.14993637237E+03  0.10332555568E+04  0.10704565470E+04  0.00000000000E+00 0. -1.
         22    1    1    2    0    0 -0.41958199443E+03  0.19817082043E+03 -0.30592825440E+03  0.55579926319E+03  0.00000000000E+00 0. -1.
<mgrwt>
<rscale>  0 0.19614620E+04</rscale>
<asrwt>0</asrwt>
<pdfrwt beam="1">  1        2 0.32219909E+00 0.19614620E+04</pdfrwt>
<pdfrwt beam="2">  1       -2 0.70655960E-01 0.19614620E+04</pdfrwt>
<totfact> 0.10047027E+01</totfact>
</mgrwt>
</event>
<event>
 6    1  0.2253842E-005  0.3994044E+04  0.7818608E-02  0.8005749E-01
         -2   -1    0    0    0  501 -0.00000000000E+00  0.00000000000E+00  0.27121305777E+04  0.27121305777E+04  0.00000000000E+00 0.  1.
          2   -1    0    0  501    0  0.00000000000E+00 -0.00000000000E+00 -0.14704665984E+04  0.14704665984E+04  0.00000000000E+00 0. -1.
         23    2    1    2    0    0  0.22503144953E+03  0.17562355833E+04 -0.34367789758E+03  0.18059795284E+04  0.91896585139E+02 0.  0.
         11    1    3    3    0    0  0.90124097781E+02  0.71199264142E+03 -0.18533572218E+03  0.74121872909E+03  0.00000000000E+00 0. -1.
        -11    1    3    3    0    0  0.13490735175E+03  0.10442429418E+04 -0.15834217540E+03  0.10647607993E+04  0.00000000000E+00 0.  1.
         22    1    1    2    0    0 -0.22503144953E+03 -0.17562355833E+04  0.15853418769E+04  0.23766176478E+04  0.00000000000E+00 0.  1.
<mgrwt>
<rscale>  0 0.39940443E+04</rscale>
<asrwt>0</asrwt>
<pdfrwt beam="1">  1        2 0.22622563E+00 0.39940443E+04</pdfrwt>
<pdfrwt beam="2">  1       -2 0.41725086E+00 0.39940443E+04</pdfrwt>
<totfact> 0.59499794E-02</totfact>
</mgrwt>
</event>
<event>
 6    1  0.1614874E-005  0.1454132E+04  0.7818608E-02  0.8915541E-01
         -2   -1    0    0    0  501 -0.00000000000E+00  0.00000000000E+00  0.95840459687E+03  0.95840459687E+03  0.00000000000E+00 0.  1.
          2   -1    0    0  501    0  0.00000000000E+00 -0.00000000000E+00 -0.55156789434E+03  0.55156789434E+03  0.00000000000E+00 0. -1.
         23    2    1    2    0    0 -0.11546487571E+02  0.59064608480E+03  0.63944523540E+03  0.87506868083E+03  0.88650257944E+02 0.  0.
         13    1    3    3    0    0 -0.36879625720E+02  0.42667998024E+03  0.41881636119E+03  0.59901841101E+03  0.00000000000E+00 0.  1.
        -13    1    3    3    0    0  0.25333138148E+02  0.16396610456E+03  0.22062887421E+03  0.27605026982E+03  0.00000000000E+00 0. -1.
         22    1    1    2    0    0  0.11546487571E+02 -0.59064608480E+03 -0.23260853287E+03  0.63490381037E+03  0.00000000000E+00 0. -1.
<mgrwt>
<rscale>  0 0.14541323E+04</rscale>
<asrwt>0</asrwt>
<pdfrwt beam="1">  1        2 0.84856599E-01 0.14541323E+04</pdfrwt>
<pdfrwt beam="2">  1       -2 0.14744686E+00 0.14541323E+04</pdfrwt>
<totfact> 0.16665204E+01</totfact>
</mgrwt>
</event>
<event>
 6    1  0.1614874E-005  0.2013004E+04  0.7818608E-02  0.8600565E-01
          2   -1    0    0  501    0  0.00000000000E+00  0.00000000000E+00  0.94718806912E+03  0.94718806912E+03  0.00000000000E+00 0. -1.
         -2   -1    0    0    0  501 -0.00000000000E+00 -0.00000000000E+00 -0.10695298839E+04  0.10695298839E+04  0.00000000000E+00 0.  1.
         23    2    1    2    0    0  0.89809896514E+03  0.20050357915E+03  0.34213450050E+03  0.98593102844E+03  0.90667193498E+02 0.  0.
         11    1    3    3    0    0  0.52894944024E+03  0.16180246338E+03  0.21798379498E+03  0.59454560999E+03  0.00000000000E+00 0. -1.
        -11    1    3    3    0    0  0.36914952490E+03  0.38701115772E+02  0.12415070552E+03  0.39138541845E+03  0.00000000000E+00 0.  1.
         22    1    1    2    0    0 -0.89809896514E+03 -0.20050357915E+03 -0.46447631528E+03  0.10307869246E+04  0.00000000000E+00 0.  1.
<mgrwt>
<rscale>  0 0.20130037E+04</rscale>
<asrwt>0</asrwt>
<pdfrwt beam="1">  1        2 0.14572124E+00 0.20130037E+04</pdfrwt>
<pdfrwt beam="2">  1       -2 0.16454306E+00 0.20130037E+04</pdfrwt>
<totfact> 0.59021480E+00</totfact>
</mgrwt>
</event>
<event>
 6    1  0.1614874E-005  0.3585286E+04  0.7818608E-02  0.8093870E-01
         -2   -1    0    0    0  501 -0.00000000000E+00  0.00000000000E+00  0.12175551871E+04  0.12175551871E+04  0.00000000000E+00 0.  1.
          2   -1    0    0  501    0  0.00000000000E+00 -0.00000000000E+00 -0.26393619228E+04  0.26393619228E+04  0.00000000000E+00 0. -1.
         23    2    1    2    0    0  0.87587941616E+03 -0.85829194173E+03  0.69354886987E+03  0.14118078799E+04  0.91442035430E+02 0.  0.
         11    1    3    3    0    0  0.55889030422E+03 -0.55451020016E+03  0.39468206160E+03  0.88068942538E+03  0.00000000000E+00 0. -1.
        -11    1    3    3    0    0  0.31698911194E+03 -0.30378174157E+03  0.29886680827E+03  0.53111845447E+03  0.00000000000E+00 0.  1.
         22    1    1    2    0    0 -0.87587941616E+03  0.85829194173E+03 -0.21153556056E+04  0.24451092300E+04  0.00000000000E+00 0. -1.
<mgrwt>
<rscale>  0 0.35852859E+04</rscale>
<asrwt>0</asrwt>
<pdfrwt beam="1">  1        2 0.40605568E+00 0.35852859E+04</pdfrwt>
<pdfrwt beam="2">  1       -2 0.18731618E+00 0.35852859E+04</pdfrwt>
<totfact> 0.38033702E-01</totfact>
</mgrwt>
</event>
<event>
 6    1  0.1614874E-005  0.9661160E+03  0.7818608E-02  0.9346509E-01
         -1   -1    0    0    0  501 -0.00000000000E+00  0.00000000000E+00  0.10824637972E+03  0.10824637972E+03  0.00000000000E+00 0.  1.
          1   -1    0    0  501    0  0.00000000000E+00 -0.00000000000E+00 -0.21556844308E+04  0.21556844308E+04  0.00000000000E+00 0. -1.
         23    2    1    2    0    0  0.12744799794E+03 -0.46011996179E+03 -0.94335536178E+03  0.10610376498E+04  0.89040351434E+02 0.  0.
         13    1    3    3    0    0  0.24291216578E+02 -0.13508190141E+03 -0.19298790262E+03  0.23681535814E+03  0.00000000000E+00 0.  1.
        -13    1    3    3    0    0  0.10315678137E+03 -0.32503806038E+03 -0.75036745916E+03  0.82422229162E+03  0.00000000000E+00 0. -1.
         22    1    1    2    0    0 -0.12744799794E+03  0.46011996179E+03 -0.11040826893E+04  0.12028931608E+04  0.00000000000E+00 0. -1.
<mgrwt>
<rscale>  0 0.96611601E+03</rscale>
<asrwt>0</asrwt>
<pdfrwt beam="1">  1        1 0.33164378E+00 0.96611601E+03</pdfrwt>
<pdfrwt beam="2">  1       -1 0.16653288E-01 0.96611601E+03</pdfrwt>
<totfact> 0.65572193E+01</totfact>
</mgrwt>
</event>
<event>
 6    1  0.1626614E-005  0.3286377E+04  0.7818608E-02  0.8166370E-01
          2   -1    0    0  501    0  0.00000000000E+00  0.00000000000E+00  0.19120116047E+04  0.19120116047E+04  0.00000000000E+00 0. -1.
         -2   -1    0    0    0  501 -0.00000000000E+00 -0.00000000000E+00 -0.14121612849E+04  0.14121612849E+04  0.00000000000E+00 0.  1.
         23    2    1    2    0    0  0.39156407112E+03 -0.14380263240E+04 -0.44670572263E+03  0.15586105226E+04  0.92079466829E+02 0.  0.
         13    1    3    3    0    0  0.17958494033E+03 -0.83057782493E+03 -0.26227380916E+03  0.88932436435E+03  0.00000000000E+00 0. -1.
        -13    1    3    3    0    0  0.21197913079E+03 -0.60744849907E+03 -0.18443191346E+03  0.66928615825E+03  0.00000000000E+00 0.  1.
         22    1    1    2    0    0 -0.39156407112E+03  0.14380263240E+04  0.94655604246E+03  0.17655623670E+04  0.00000000000E+00 0.  1.
<mgrwt>
<rscale>  0 0.32863772E+04</rscale>
<asrwt>0</asrwt>
<pdfrwt beam="1">  1        2 0.29415563E+00 0.32863772E+04</pdfrwt>
<pdfrwt beam="2">  1       -2 0.21725558E+00 0.32863772E+04</pdfrwt>
<totfact> 0.64332379E-01</totfact>
</mgrwt>
</event>
<event>
 6    1  0.1614874E-005  0.6919740E+03  0.7818608E-02  0.9731057E-01
          1   -1    0    0  501    0  0.00000000000E+00  0.00000000000E+00  0.68630837487E+02  0.68630837487E+02  0.00000000000E+00 0. -1.
         -1   -1    0    0    0  501 -0.00000000000E+00 -0.00000000000E+00 -0.17442159494E+04  0.17442159494E+04  0.00000000000E+00 0.  1.
         23    2    1    2    0    0 -0.27669480518E+03 -0.37422643790E+02 -0.34550938620E+03  0.45378023016E+03  0.92624466815E+02 0.  0.
         11    1    3    3    0    0 -0.16630482581E+03 -0.38135527225E+02 -0.14085285349E+03  0.22124904488E+03  0.00000000000E+00 0.  1.
        -11    1    3    3    0    0 -0.11038997937E+03  0.71288343497E+00 -0.20465653271E+03  0.23253118528E+03  0.00000000000E+00 0. -1.
         22    1    1    2    0    0  0.27669480518E+03  0.37422643790E+02 -0.13300757257E+04  0.13590665567E+04  0.00000000000E+00 0.  1.
<mgrwt>
<rscale>  0 0.69197399E+03</rscale>
<asrwt>0</asrwt>
<pdfrwt beam="1">  1        1 0.10558589E-01 0.69197399E+03</pdfrwt>
<pdfrwt beam="2">  1       -1 0.26834096E+00 0.69197399E+03</pdfrwt>
<totfact> 0.34306953E+01</totfact>
</mgrwt>
</event>
<event>
 6    1  0.2572473E-005  0.3278908E+04  0.7818608E-02  0.8168283E-01
         -2   -1    0    0    0  501 -0.00000000000E+00  0.00000000000E+00  0.12756075890E+04  0.12756075890E+04  0.00000000000E+00 0.  1.
          2   -1    0    0  501    0  0.00000000000E+00 -0.00000000000E+00 -0.21070818843E+04  0.21070818843E+04  0.00000000000E+00 0. -1.
         23    2    1    2    0    0  0.12628004298E+03  0.10618673060E+04 -0.16966605307E+04  0.20071691911E+04  0.81008519461E+02 0.  0.
         11    1    3    3    0    0  0.14707457211E+01  0.27350479267E+03 -0.46572758120E+03  0.54010111516E+03  0.00000000000E+00 0.  1.
        -11    1    3    3    0    0  0.12480929726E+03  0.78836251338E+03 -0.12309329495E+04  0.14670680759E+04  0.00000000000E+00 0. -1.
         22    1    1    2    0    0 -0.12628004298E+03 -0.10618673060E+04  0.86518623534E+03  0.13755202822E+04  0.00000000000E+00 0.  1.
<mgrwt>
<rscale>  0 0.32789081E+04</rscale>
<asrwt>0</asrwt>
<pdfrwt beam="1">  1        2 0.32416644E+00 0.32789081E+04</pdfrwt>
<pdfrwt beam="2">  1       -2 0.19624732E+00 0.32789081E+04</pdfrwt>
<totfact> 0.68595355E-01</totfact>
</mgrwt>
</event>
<event>
 6    1  0.1614874E-005  0.2583251E+04  0.7818608E-02  0.8373913E-01
         -3   -1    0    0    0  501 -0.00000000000E+00  0.00000000000E+00  0.14999419854E+04  0.14999419854E+04  0.00000000000E+00 0.  1.
          3   -1    0    0  501    0  0.00000000000E+00 -0.00000000000E+00 -0.11122409790E+04  0.11122409790E+04  0.00000000000E+00 0. -1.
         23    2    1    2    0    0  0.92762330013E+02  0.69722948046E+03  0.12877992932E+04  0.14698560741E+04  0.85533974381E+02 0.  0.
         11    1    3    3    0    0  0.92775616344E+02  0.39889921759E+03  0.71311327610E+03  0.82234934507E+03  0.00000000000E+00 0.  1.
        -11    1    3    3    0    0 -0.13286330846E-01  0.29833026287E+03  0.57468601710E+03  0.64750672905E+03  0.00000000000E+00 0. -1.
         22    1    1    2    0    0 -0.92762330013E+02 -0.69722948046E+03 -0.90009828677E+03  0.11423268902E+04  0.00000000000E+00 0. -1.
<mgrwt>
<rscale>  0 0.25832514E+04</rscale>
<asrwt>0</asrwt>
<pdfrwt beam="1">  1        3 0.17111400E+00 0.25832514E+04</pdfrwt>
<pdfrwt beam="2">  1       -3 0.23076031E+00 0.25832514E+04</pdfrwt>
<totfact> 0.49895630E-02</totfact>
</mgrwt>
</event>
<event>
 6    1  0.1614874E-005  0.4730916E+04  0.7818608E-02  0.7871412E-01
         -2   -1    0    0    0  501 -0.00000000000E+00  0.00000000000E+00  0.29938488050E+04  0.29938488050E+04  0.00000000000E+00 0.  1.
          2   -1    0    0  501    0  0.00000000000E+00 -0.00000000000E+00 -0.18689626405E+04  0.18689626405E+04  0.00000000000E+00 0. -1.
         23    2    1    2    0    0 -0.20821712051E+04  0.10050923574E+04  0.10721583577E+04  0.25501446308E+04  0.89813803943E+02 0.  0.
         11    1    3    3    0    0 -0.12916188592E+04  0.60430668076E+03  0.70523583565E+03  0.15908561926E+04  0.00000000000E+00 0.  1.
        -11    1    3    3    0    0 -0.79055234597E+03  0.40078567664E+03  0.36692252203E+03  0.95928843811E+03  0.00000000000E+00 0. -1.
         22    1    1    2    0    0  0.20821712051E+04 -0.10050923574E+04  0.52727806734E+02  0.23126668148E+04  0.00000000000E+00 0. -1.
<mgrwt>
<rscale>  0 0.47309160E+04</rscale>
<asrwt>0</asrwt>
<pdfrwt beam="1">  1        2 0.28753271E+00 0.47309160E+04</pdfrwt>
<pdfrwt beam="2">  1       -2 0.46059212E+00 0.47309160E+04</pdfrwt>
<totfact> 0.17408385E-02</totfact>
</mgrwt>
</event>
<event>
 6    1  0.1614874E-005  0.5357149E+04  0.7818608E-02  0.7775657E-01
          1   -1    0    0  501    0  0.00000000000E+00  0.00000000000E+00  0.41252523822E+04  0.41252523822E+04  0.00000000000E+00 0. -1.
         -1   -1    0    0    0  501 -0.00000000000E+00 -0.00000000000E+00 -0.17392296709E+04  0.17392296709E+04  0.00000000000E+00 0.  1.
         23    2    1    2    0    0  0.17473384075E+04 -0.13483329992E+04 -0.46656487216E+03  0.22577592598E+04  0.92740002712E+02 0.  0.
         13    1    3    3    0    0  0.60077982552E+03 -0.42126787965E+03 -0.18373288685E+03  0.75641311390E+03  0.00000000000E+00 0.  1.
        -13    1    3    3    0    0  0.11465585819E+04 -0.92706511957E+03 -0.28283198531E+03  0.15013461458E+04  0.00000000000E+00 0. -1.
         22    1    1    2    0    0 -0.17473384075E+04  0.13483329992E+04  0.28525875834E+04  0.36067227933E+04  0.00000000000E+00 0. -1.
<mgrwt>
<rscale>  0 0.53571490E+04</rscale>
<asrwt>0</asrwt>
<pdfrwt beam="1">  1        1 0.63465421E+00 0.53571490E+04</pdfrwt>
<pdfrwt beam="2">  1       -1 0.26757380E+00 0.53571490E+04</pdfrwt>
<totfact> 0.27748516E-03</totfact>
</mgrwt>
</event>
<event>
 6    1  0.1614874E-005  0.3810970E+04  0.7818608E-02  0.8043805E-01
          2   -1    0    0  501    0  0.00000000000E+00  0.00000000000E+00  0.19994352813E+04  0.19994352813E+04  0.00000000000E+00 0. -1.
         -2   -1    0    0    0  501 -0.00000000000E+00 -0.00000000000E+00 -0.18159489811E+04  0.18159489811E+04  0.00000000000E+00 0.  1.
         23    2    1    2    0    0 -0.65345995334E+03 -0.14458683774E+04 -0.96245993066E+03  0.18581571321E+04  0.94199436633E+02 0.  0.
         13    1    3    3    0    0 -0.44344829138E+03 -0.10750517493E+04 -0.72257263463E+03  0.13691215663E+04  0.00000000000E+00 0. -1.
        -13    1    3    3    0    0 -0.21001166196E+03 -0.37081662807E+03 -0.23988729603E+03  0.48903556579E+03  0.00000000000E+00 0.  1.
         22    1    1    2    0    0  0.65345995334E+03  0.14458683774E+04  0.11459462309E+04  0.19572271303E+04  0.00000000000E+00 0. -1.
<mgrwt>
<rscale>  0 0.38109697E+04</rscale>
<asrwt>0</asrwt>
<pdfrwt beam="1">  1        2 0.30760543E+00 0.38109697E+04</pdfrwt>
<pdfrwt beam="2">  1       -2 0.27937677E+00 0.38109697E+04</pdfrwt>
<totfact> 0.22755639E-01</totfact>
</mgrwt>
</event>
<event>
 6    1  0.1614874E-005  0.2165049E+04  0.7818608E-02  0.8533118E-01
          1   -1    0    0  501    0  0.00000000000E+00  0.00000000000E+00  0.99494389840E+03  0.99494389840E+03  0.00000000000E+00 0. -1.
         -1   -1    0    0    0  501 -0.00000000000E+00 -0.00000000000E+00 -0.11778141375E+04  0.11778141375E+04  0.00000000000E+00 0.  1.
         23    2    1    2    0    0 -0.30953370364E+03 -0.39862874911E+03  0.86745789578E+03  0.10074661479E+04  0.88254432847E+02 0.  0.
         11    1    3    3    0    0 -0.17986423768E+02 -0.73293901883E+02  0.13157185809E+03  0.15167946906E+03  0.00000000000E+00 0. -1.
        -11    1    3    3    0    0 -0.29154727987E+03 -0.32533484723E+03  0.73588603769E+03  0.85578667885E+03  0.00000000000E+00 0.  1.
         22    1    1    2    0    0  0.30953370364E+03  0.39862874911E+03 -0.10503281349E+04  0.11652918880E+04  0.00000000000E+00 0.  1.
<mgrwt>
<rscale>  0 0.21650487E+04</rscale>
<asrwt>0</asrwt>
<pdfrwt beam="1">  1        1 0.15306829E+00 0.21650487E+04</pdfrwt>
<pdfrwt beam="2">  1       -1 0.18120217E+00 0.21650487E+04</pdfrwt>
<totfact> 0.28489171E+00</totfact>
</mgrwt>
</event>
<event>
 6    1  0.1614874E-005  0.2264084E+04  0.7818608E-02  0.8492218E-01
         -2   -1    0    0    0  501 -0.00000000000E+00  0.00000000000E+00  0.47812999029E+03  0.47812999029E+03  0.00000000000E+00 0.  1.
          2   -1    0    0  501    0  0.00000000000E+00 -0.00000000000E+00 -0.26802728955E+04  0.26802728955E+04  0.00000000000E+00 0. -1.
         23    2    1    2    0    0 -0.92676654161E+03 -0.14084550303E+03 -0.19834987629E+04  0.21958339587E+04  0.93197389697E+02 0.  0.
         11    1    3    3    0    0 -0.61016778462E+03 -0.54526026171E+02 -0.12363628812E+04  0.13798083153E+04  0.00000000000E+00 0. -1.
        -11    1    3    3    0    0 -0.31659875699E+03 -0.86319476860E+02 -0.74713588167E+03  0.81602564341E+03  0.00000000000E+00 0.  1.
         22    1    1    2    0    0  0.92676654161E+03  0.14084550303E+03 -0.21864414230E+03  0.96256892706E+03  0.00000000000E+00 0.  1.
<mgrwt>
<rscale>  0 0.22640838E+04</rscale>
<asrwt>0</asrwt>
<pdfrwt beam="1">  1        2 0.41234968E+00 0.22640838E+04</pdfrwt>
<pdfrwt beam="2">  1       -2 0.73558459E-01 0.22640838E+04</pdfrwt>
<totfact> 0.41362770E+00</totfact>
</mgrwt>
</event>
<event>
 6    1  0.1614874E-005  0.3052022E+04  0.7818608E-02  0.8229030E-01
         -2   -1    0    0    0  501 -0.00000000000E+00  0.00000000000E+00  0.80706436094E+03  0.80706436094E+03  0.00000000000E+00 0.  1.
          2   -1    0    0  501    0  0.00000000000E+00 -0.00000000000E+00 -0.28854066012E+04  0.28854066012E+04  0.00000000000E+00 0. -1.
         23    2    1    2    0    0  0.66934069537E+03 -0.39046602522E+03 -0.26286748067E+04  0.27420254788E+04  0.91059340700E+02 0.  0.
         13    1    3    3    0    0  0.47724173890E+03 -0.30899283065E+03 -0.20254427382E+04  0.21037239678E+04  0.00000000000E+00 0. -1.
        -13    1    3    3    0    0  0.19209895648E+03 -0.81473194565E+02 -0.60323206845E+03  0.63830151097E+03  0.00000000000E+00 0.  1.
         22    1    1    2    0    0 -0.66934069537E+03  0.39046602522E+03  0.55033256639E+03  0.95044548342E+03  0.00000000000E+00 0.  1.
<mgrwt>
<rscale>  0 0.30520215E+04</rscale>
<asrwt>0</asrwt>
<pdfrwt beam="1">  1        2 0.44390870E+00 0.30520215E+04</pdfrwt>
<pdfrwt beam="2">  1       -2 0.12416375E+00 0.30520215E+04</pdfrwt>
<totfact> 0.85203140E-01</totfact>
</mgrwt>
</event>
<event>
 6    1  0.1614874E-005  0.3724219E+04  0.7818608E-02  0.8062616E-01
          1   -1    0    0  501    0  0.00000000000E+00  0.00000000000E+00  0.15135020929E+04  0.15135020929E+04  0.00000000000E+00 0. -1.
         -1   -1    0    0    0  501 -0.00000000000E+00 -0.00000000000E+00 -0.22910118047E+04  0.22910118047E+04  0.00000000000E+00 0.  1.
         23    2    1    2    0    0  0.92369190182E+03 -0.68294573678E+03 -0.18847953613E+04  0.22089879283E+04  0.86905147622E+02 0.  0.
         13    1    3    3    0    0  0.39152390486E+03 -0.33992431283E+03 -0.81994744570E+03  0.97013056865E+03  0.00000000000E+00 0. -1.
        -13    1    3    3    0    0  0.53216799696E+03 -0.34302142395E+03 -0.10648479156E+04  0.12388573597E+04  0.00000000000E+00 0.  1.
         22    1    1    2    0    0 -0.92369190182E+03  0.68294573678E+03  0.11072856495E+04  0.15955259692E+04  0.00000000000E+00 0. -1.
<mgrwt>
<rscale>  0 0.37242187E+04</rscale>
<asrwt>0</asrwt>
<pdfrwt beam="1">  1        1 0.23284648E+00 0.37242187E+04</pdfrwt>
<pdfrwt beam="2">  1       -1 0.35246335E+00 0.37242187E+04</pdfrwt>
<totfact> 0.76672250E-02</totfact>
</mgrwt>
</event>
<event>
 6    1  0.1614874E-005  0.1771705E+04  0.7818608E-02  0.8721493E-01
          2   -1    0    0  501    0  0.00000000000E+00  0.00000000000E+00  0.22028082609E+04  0.22028082609E+04  0.00000000000E+00 0. -1.
         -2   -1    0    0    0  501 -0.00000000000E+00 -0.00000000000E+00 -0.35624301422E+03  0.35624301422E+03  0.00000000000E+00 0.  1.
         23    2    1    2    0    0 -0.76489539789E+03 -0.63222815894E+02  0.15577219081E+04  0.17389948329E+04  0.92430469552E+02 0.  0.
         13    1    3    3    0    0 -0.60127728248E+03 -0.33798922663E+02  0.11374740683E+04  0.12870602137E+04  0.00000000000E+00 0.  1.
        -13    1    3    3    0    0 -0.16361811541E+03 -0.29423893231E+02  0.42024783980E+03  0.45193461921E+03  0.00000000000E+00 0. -1.
         22    1    1    2    0    0  0.76489539789E+03  0.63222815894E+02  0.28884333855E+03  0.82005644220E+03  0.00000000000E+00 0.  1.
<mgrwt>
<rscale>  0 0.17717055E+04</rscale>
<asrwt>0</asrwt>
<pdfrwt beam="1">  1        2 0.33889357E+00 0.17717055E+04</pdfrwt>
<pdfrwt beam="2">  1       -2 0.54806619E-01 0.17717055E+04</pdfrwt>
<totfact> 0.15251987E+01</totfact>
</mgrwt>
</event>
<event>
 6    1  0.1614874E-005  0.1190786E+04  0.7818608E-02  0.9120960E-01
          2   -1    0    0  501    0  0.00000000000E+00  0.00000000000E+00  0.50762642182E+03  0.50762642182E+03  0.00000000000E+00 0. -1.
         -2   -1    0    0    0  501 -0.00000000000E+00 -0.00000000000E+00 -0.69833398745E+03  0.69833398745E+03  0.00000000000E+00 0.  1.
         23    2    1    2    0    0 -0.29656681998E+03 -0.23539400657E+03 -0.55663562457E+03  0.67940028796E+03  0.91538602196E+02 0.  0.
         11    1    3    3    0    0 -0.16051462107E+03 -0.72382679512E+02 -0.22672040205E+03  0.28706503893E+03  0.00000000000E+00 0. -1.
        -11    1    3    3    0    0 -0.13605219891E+03 -0.16301132705E+03 -0.32991522252E+03  0.39233524903E+03  0.00000000000E+00 0.  1.
         22    1    1    2    0    0  0.29656681998E+03  0.23539400657E+03  0.36592805894E+03  0.52656012132E+03  0.00000000000E+00 0. -1.
<mgrwt>
<rscale>  0 0.11907859E+04</rscale>
<asrwt>0</asrwt>
<pdfrwt beam="1">  1        2 0.78096373E-01 0.11907859E+04</pdfrwt>
<pdfrwt beam="2">  1       -2 0.10743600E+00 0.11907859E+04</pdfrwt>
<totfact> 0.41553136E+01</totfact>
</mgrwt>
</event>
<event>
 6    1  0.1614874E-005  0.5379093E+04  0.7818608E-02  0.7772549E-01
          1   -1    0    0  501    0  0.00000000000E+00  0.00000000000E+00  0.45730228859E+04  0.45730228859E+04  0.00000000000E+00 0. -1.
         -1   -1    0    0    0  501 -0.00000000000E+00 -0.00000000000E+00 -0.15818113873E+04  0.15818113873E+04  0.00000000000E+00 0.  1.
         23    2    1    2    0    0  0.25878539218E+03  0.66834929318E+02  0.45573378366E+04  0.45660647829E+04  0.90458048442E+02 0.  0.
         11    1    3    3    0    0  0.17547710463E+03  0.33912078998E+00  0.27760445243E+04  0.27815850751E+04  0.00000000000E+00 0.  1.
        -11    1    3    3    0    0  0.83308287553E+02  0.66495808528E+02  0.17812933122E+04  0.17844797078E+04  0.00000000000E+00 0. -1.
         22    1    1    2    0    0 -0.25878539218E+03 -0.66834929318E+02 -0.15661263379E+04  0.15887694902E+04  0.00000000000E+00 0.  1.
<mgrwt>
<rscale>  0 0.53790927E+04</rscale>
<asrwt>0</asrwt>
<pdfrwt beam="1">  1        1 0.70354197E+00 0.53790927E+04</pdfrwt>
<pdfrwt beam="2">  1       -1 0.24335560E+00 0.53790927E+04</pdfrwt>
<totfact> 0.14471594E-03</totfact>
</mgrwt>
</event>
<event>
 6    1  0.1614874E-005  0.1259629E+04  0.7818608E-02  0.9062207E-01
          3   -1    0    0  501    0  0.00000000000E+00  0.00000000000E+00  0.22902715061E+04  0.22902715061E+04  0.00000000000E+00 0. -1.
         -3   -1    0    0    0  501 -0.00000000000E+00 -0.00000000000E+00 -0.17319620796E+03  0.17319620796E+03  0.00000000000E+00 0.  1.
         23    2    1    2    0    0  0.48273884756E+03 -0.12967979126E+02  0.18438515427E+04  0.19086198215E+04  0.99177355341E+02 0.  0.
         13    1    3    3    0    0  0.14500149997E+03 -0.34014487335E+02  0.43856046717E+03  0.46316055932E+03  0.00000000000E+00 0. -1.
        -13    1    3    3    0    0  0.33773734759E+03  0.21046508210E+02  0.14052910756E+04  0.14454592621E+04  0.00000000000E+00 0.  1.
         22    1    1    2    0    0 -0.48273884756E+03  0.12967979126E+02  0.27322375545E+03  0.55484789264E+03  0.00000000000E+00 0.  1.
<mgrwt>
<rscale>  0 0.12596291E+04</rscale>
<asrwt>0</asrwt>
<pdfrwt beam="1">  1        3 0.35234944E+00 0.12596291E+04</pdfrwt>
<pdfrwt beam="2">  1       -3 0.26645572E-01 0.12596291E+04</pdfrwt>
<totfact> 0.70915109E-01</totfact>
</mgrwt>
</event>
<event>
 6    1  0.1614874E-005  0.1569480E+04  0.7818608E-02  0.8839520E-01
          2   -1    0    0  501    0  0.00000000000E+00  0.00000000000E+00  0.30828275785E+04  0.30828275785E+04  0.00000000000E+00 0. -1.
         -2   -1    0    0    0  501 -0.00000000000E+00 -0.00000000000E+00 -0.19975723426E+03  0.19975723426E+03  0.00000000000E+00 0.  1.
         23    2    1    2    0    0 -0.65341008407E+03 -0.34064000750E+03  0.89867181727E+03  0.11657905699E+04  0.92066633962E+02 0.  0.
         13    1    3    3    0    0 -0.43983946378E+03 -0.19846536602E+03  0.53163663054E+03  0.71797267520E+03  0.00000000000E+00 0.  1.
        -13    1    3    3    0    0 -0.21357062029E+03 -0.14217464148E+03  0.36703518673E+03  0.44781789472E+03  0.00000000000E+00 0. -1.
         22    1    1    2    0    0  0.65341008407E+03  0.34064000750E+03  0.19843985270E+04  0.21167942428E+04  0.00000000000E+00 0.  1.
<mgrwt>
<rscale>  0 0.15694803E+04</rscale>
<asrwt>0</asrwt>
<pdfrwt beam="1">  1        2 0.47428113E+00 0.15694803E+04</pdfrwt>
<pdfrwt beam="2">  1       -2 0.30731884E-01 0.15694803E+04</pdfrwt>
<totfact> 0.14645727E+01</totfact>
</mgrwt>
</event>
<event>
 6    1  0.1614874E-005  0.4486577E+04  0.7818608E-02  0.7912991E-01
          2   -1    0    0  501    0  0.00000000000E+00  0.00000000000E+00  0.26309292717E+04  0.26309292717E+04  0.00000000000E+00 0. -1.
         -2   -1    0    0    0  501 -0.00000000000E+00 -0.00000000000E+00 -0.19127629979E+04  0.19127629979E+04  0.00000000000E+00 0.  1.
         23    2    1    2    0    0  0.26829388053E+02 -0.22368343394E+04  0.20169809593E+03  0.22478510170E+04  0.89467283754E+02 0.  0.
         11    1    3    3    0    0  0.59560985710E+02 -0.14646725515E+04  0.12526650743E+03  0.14712256428E+04  0.00000000000E+00 0. -1.
        -11    1    3    3    0    0 -0.32731597657E+02 -0.77216178789E+03  0.76431588499E+02  0.77662537422E+03  0.00000000000E+00 0.  1.
         22    1    1    2    0    0 -0.26829388053E+02  0.22368343394E+04  0.51646817790E+03  0.22958412525E+04  0.00000000000E+00 0. -1.
<mgrwt>
<rscale>  0 0.44865774E+04</rscale>
<asrwt>0</asrwt>
<pdfrwt beam="1">  1        2 0.40475835E+00 0.44865774E+04</pdfrwt>
<pdfrwt beam="2">  1       -2 0.29427123E+00 0.44865774E+04</pdfrwt>
<totfact> 0.76264087E-02</totfact>
</mgrwt>
</event>
<event>
 6    1  0.1614874E-005  0.2006140E+04  0.7818608E-02  0.8603755E-01
          2   -1    0    0  501    0  0.00000000000E+00  0.00000000000E+00  0.13814645239E+04  0.13814645239E+04  0.00000000000E+00 0. -1.
         -2   -1    0    0    0  501 -0.00000000000E+00 -0.00000000000E+00 -0.72832116645E+03  0.72832116645E+03  0.00000000000E+00 0.  1.
         23    2    1    2    0    0  0.50724669393E+03 -0.58077868215E+02  0.12327097610E+04  0.13374065974E+04  0.91710439456E+02 0.  0.
         13    1    3    3    0    0  0.21176186481E+03  0.21092643805E+02  0.51076790836E+03  0.55332797075E+03  0.00000000000E+00 0.  1.
        -13    1    3    3    0    0  0.29548482913E+03 -0.79170512020E+02  0.72194185260E+03  0.78407862664E+03  0.00000000000E+00 0. -1.
         22    1    1    2    0    0 -0.50724669393E+03  0.58077868215E+02 -0.57956640346E+03  0.77237909300E+03  0.00000000000E+00 0.  1.
<mgrwt>
<rscale>  0 0.20061404E+04</rscale>
<asrwt>0</asrwt>
<pdfrwt beam="1">  1        2 0.21253300E+00 0.20061404E+04</pdfrwt>
<pdfrwt beam="2">  1       -2 0.11204941E+00 0.20061404E+04</pdfrwt>
<totfact> 0.86525026E+00</totfact>
</mgrwt>
</event>
<event>
 6    1  0.1614874E-005  0.1313023E+04  0.7818608E-02  0.9019301E-01
          1   -1    0    0  501    0  0.00000000000E+00  0.00000000000E+00  0.46706430466E+03  0.46706430466E+03  0.00000000000E+00 0. -1.
         -1   -1    0    0    0  501 -0.00000000000E+00 -0.00000000000E+00 -0.92280072316E+03  0.92280072316E+03  0.00000000000E+00 0.  1.
         23    2    1    2    0    0 -0.42123814503E+03 -0.11214279990E+03  0.28627636551E+03  0.52928350697E+03  0.90384129720E+02 0.  0.
         13    1    3    3    0    0 -0.25864091390E+03 -0.45680960050E+02  0.12521601791E+03  0.29096550241E+03  0.00000000000E+00 0.  1.
        -13    1    3    3    0    0 -0.16259723113E+03 -0.66461839850E+02  0.16106034760E+03  0.23831800456E+03  0.00000000000E+00 0. -1.
         22    1    1    2    0    0  0.42123814503E+03  0.11214279990E+03 -0.74201278401E+03  0.86058152085E+03  0.00000000000E+00 0.  1.
<mgrwt>
<rscale>  0 0.13130229E+04</rscale>
<asrwt>0</asrwt>
<pdfrwt beam="1">  1        1 0.71856048E-01 0.13130229E+04</pdfrwt>
<pdfrwt beam="2">  1       -1 0.14196934E+00 0.13130229E+04</pdfrwt>
<totfact> 0.19307534E+01</totfact>
</mgrwt>
</event>
<event>
 6    1  0.1614874E-005  0.1387239E+04  0.7818608E-02  0.8963108E-01
          2   -1    0    0  501    0  0.00000000000E+00  0.00000000000E+00  0.95399520853E+03  0.95399520853E+03  0.00000000000E+00 0. -1.
         -2   -1    0    0    0  501 -0.00000000000E+00 -0.00000000000E+00 -0.50430879692E+03  0.50430879692E+03  0.00000000000E+00 0.  1.
         23    2    1    2    0    0  0.58218945685E+03  0.37141567660E+03  0.22766866840E+03  0.73291717982E+03  0.91871657333E+02 0.  0.
         11    1    3    3    0    0  0.36899500670E+03  0.28493406743E+03  0.14086484040E+03  0.48701913824E+03  0.00000000000E+00 0.  1.
        -11    1    3    3    0    0  0.21319445015E+03  0.86481609167E+02  0.86803828004E+02  0.24589804159E+03  0.00000000000E+00 0. -1.
         22    1    1    2    0    0 -0.58218945685E+03 -0.37141567660E+03  0.22201774320E+03  0.72538682562E+03  0.00000000000E+00 0. -1.
<mgrwt>
<rscale>  0 0.13872392E+04</rscale>
<asrwt>0</asrwt>
<pdfrwt beam="1">  1        2 0.14676849E+00 0.13872392E+04</pdfrwt>
<pdfrwt beam="2">  1       -2 0.77585969E-01 0.13872392E+04</pdfrwt>
<totfact> 0.38937485E+01</totfact>
</mgrwt>
</event>
<event>
 6    1  0.1614874E-005  0.2804398E+04  0.7818608E-02  0.8301904E-01
         -1   -1    0    0    0  501 -0.00000000000E+00  0.00000000000E+00  0.80427008042E+03  0.80427008042E+03  0.00000000000E+00 0.  1.
          1   -1    0    0  501    0  0.00000000000E+00 -0.00000000000E+00 -0.24446547206E+04  0.24446547206E+04  0.00000000000E+00 0. -1.
         23    2    1    2    0    0 -0.11416125407E+04  0.59301718121E+03 -0.17894882889E+03  0.13019416987E+04  0.89894011229E+02 0.  0.
         13    1    3    3    0    0 -0.50217275477E+03  0.30477507144E+03 -0.59327376626E+02  0.59041092251E+03  0.00000000000E+00 0. -1.
        -13    1    3    3    0    0 -0.63943978589E+03  0.28824210977E+03 -0.11962145226E+03  0.71153077619E+03  0.00000000000E+00 0.  1.
         22    1    1    2    0    0  0.11416125407E+04 -0.59301718121E+03 -0.14614358113E+04  0.19469831023E+04  0.00000000000E+00 0. -1.
<mgrwt>
<rscale>  0 0.28043984E+04</rscale>
<asrwt>0</asrwt>
<pdfrwt beam="1">  1        1 0.37610072E+00 0.28043984E+04</pdfrwt>
<pdfrwt beam="2">  1       -1 0.12373386E+00 0.28043984E+04</pdfrwt>
<totfact> 0.73476581E-01</totfact>
</mgrwt>
</event>
<event>
 6    1  0.1614874E-005  0.2421855E+04  0.7818608E-02  0.8431367E-01
          1   -1    0    0  501    0  0.00000000000E+00  0.00000000000E+00  0.20991593258E+04  0.20991593258E+04  0.00000000000E+00 0. -1.
         -1   -1    0    0    0  501 -0.00000000000E+00 -0.00000000000E+00 -0.69853923107E+03  0.69853923107E+03  0.00000000000E+00 0.  1.
         23    2    1    2    0    0 -0.11291022246E+04  0.14851215007E+03  0.23160338938E+03  0.11656667711E+04  0.90615666955E+02 0.  0.
         13    1    3    3    0    0 -0.21812070291E+03 -0.71566319069E+01  0.43286141939E+02  0.22248943459E+03  0.00000000000E+00 0.  1.
        -13    1    3    3    0    0 -0.91098152166E+03  0.15566878198E+03  0.18831724744E+03  0.94317733655E+03  0.00000000000E+00 0. -1.
         22    1    1    2    0    0  0.11291022246E+04 -0.14851215007E+03  0.11690167053E+04  0.16320317857E+04  0.00000000000E+00 0. -1.
<mgrwt>
<rscale>  0 0.24218548E+04</rscale>
<asrwt>0</asrwt>
<pdfrwt beam="1">  1        1 0.32294758E+00 0.24218548E+04</pdfrwt>
<pdfrwt beam="2">  1       -1 0.10746758E+00 0.24218548E+04</pdfrwt>
<totfact> 0.18398682E+00</totfact>
</mgrwt>
</event>
<event>
 6    1  0.1614874E-005  0.3081571E+04  0.7818608E-02  0.8220814E-01
         -2   -1    0    0    0  501 -0.00000000000E+00  0.00000000000E+00  0.21182994847E+04  0.21182994847E+04  0.00000000000E+00 0.  1.
          2   -1    0    0  501    0  0.00000000000E+00 -0.00000000000E+00 -0.11207196686E+04  0.11207196686E+04  0.00000000000E+00 0. -1.
         23    2    1    2    0    0 -0.14749887784E+04  0.44061525971E+03  0.48518315602E+03  0.16165876322E+04  0.90659661518E+02 0.  0.
         11    1    3    3    0    0 -0.42204713102E+03  0.14823949957E+03  0.17814668092E+03  0.48149244019E+03  0.00000000000E+00 0.  1.
        -11    1    3    3    0    0 -0.10529416474E+04  0.29237576013E+03  0.30703647510E+03  0.11350951920E+04  0.00000000000E+00 0. -1.
         22    1    1    2    0    0  0.14749887784E+04 -0.44061525971E+03  0.51239666001E+03  0.16224315211E+04  0.00000000000E+00 0. -1.
<mgrwt>
<rscale>  0 0.30815710E+04</rscale>
<asrwt>0</asrwt>
<pdfrwt beam="1">  1        2 0.17241841E+00 0.30815710E+04</pdfrwt>
<pdfrwt beam="2">  1       -2 0.32589223E+00 0.30815710E+04</pdfrwt>
<totfact> 0.39593796E-01</totfact>
</mgrwt>
</event>
<event>
 6    1  0.1614874E-005  0.1353680E+04  0.7818608E-02  0.8988047E-01
         -2   -1    0    0    0  501 -0.00000000000E+00  0.00000000000E+00  0.30128307268E+03  0.30128307268E+03  0.00000000000E+00 0.  1.
          2   -1    0    0  501    0  0.00000000000E+00 -0.00000000000E+00 -0.15205384011E+04  0.15205384011E+04  0.00000000000E+00 0. -1.
         23    2    1    2    0    0 -0.30966085575E+03  0.58645288504E+03 -0.45208495579E+03  0.80773705294E+03  0.90782748774E+02 0.  0.
         13    1    3    3    0    0 -0.93591121205E+02  0.12408603563E+03 -0.71429765092E+02  0.17105219539E+03  0.00000000000E+00 0.  1.
        -13    1    3    3    0    0 -0.21606973455E+03  0.46236684942E+03 -0.38065519070E+03  0.63668485755E+03  0.00000000000E+00 0. -1.
         22    1    1    2    0    0  0.30966085575E+03 -0.58645288504E+03 -0.76717037264E+03  0.10140844209E+04  0.00000000000E+00 0.  1.
<mgrwt>
<rscale>  0 0.13536801E+04</rscale>
<asrwt>0</asrwt>
<pdfrwt beam="1">  1        2 0.23392898E+00 0.13536801E+04</pdfrwt>
<pdfrwt beam="2">  1       -2 0.46351242E-01 0.13536801E+04</pdfrwt>
<totfact> 0.53246358E+01</totfact>
</mgrwt>
</event>
<event>
 6    1  0.1614874E-005  0.4388066E+04  0.7818608E-02  0.7930532E-01
          1   -1    0    0  501    0  0.00000000000E+00  0.00000000000E+00  0.32428643737E+04  0.32428643737E+04  0.00000000000E+00 0. -1.
         -1   -1    0    0    0  501 -0.00000000000E+00 -0.00000000000E+00 -0.14844226742E+04  0.14844226742E+04  0.00000000000E+00 0.  1.
         23    2    1    2    0    0  0.21853675672E+04  0.36540104024E+02  0.10741055377E+04  0.24369851976E+04  0.89596674979E+02 0.  0.
         11    1    3    3    0    0  0.13884068781E+04  0.65672683862E+02  0.69093439485E+03  0.15522167692E+04  0.00000000000E+00 0. -1.
        -11    1    3    3    0    0  0.79696068904E+03 -0.29132579838E+02  0.38317114282E+03  0.88476842833E+03  0.00000000000E+00 0.  1.
         22    1    1    2    0    0 -0.21853675672E+04 -0.36540104024E+02  0.68433616184E+03  0.22903018503E+04  0.00000000000E+00 0.  1.
<mgrwt>
<rscale>  0 0.43880663E+04</rscale>
<asrwt>0</asrwt>
<pdfrwt beam="1">  1        1 0.49890221E+00 0.43880663E+04</pdfrwt>
<pdfrwt beam="2">  1       -1 0.22837272E+00 0.43880663E+04</pdfrwt>
<totfact> 0.28936313E-02</totfact>
</mgrwt>
</event>
<event>
 6    1  0.1770613E-005  0.3845301E+04  0.7818608E-02  0.8036503E-01
          1   -1    0    0  501    0  0.00000000000E+00  0.00000000000E+00  0.27144341279E+04  0.27144341279E+04  0.00000000000E+00 0. -1.
         -1   -1    0    0    0  501 -0.00000000000E+00 -0.00000000000E+00 -0.13618249106E+04  0.13618249106E+04  0.00000000000E+00 0.  1.
         23    2    1    2    0    0  0.13773124998E+04 -0.15531866778E+03 -0.73451234284E+03  0.15708269366E+04  0.82917261530E+02 0.  0.
         11    1    3    3    0    0  0.88088780812E+03 -0.13770529633E+03 -0.48436254986E+03  0.10146591343E+04  0.00000000000E+00 0.  1.
        -11    1    3    3    0    0  0.49642469168E+03 -0.17613371456E+02 -0.25014979299E+03  0.55616780228E+03  0.00000000000E+00 0. -1.
         22    1    1    2    0    0 -0.13773124998E+04  0.15531866778E+03  0.20871215601E+04  0.25054321019E+04  0.00000000000E+00 0. -1.
<mgrwt>
<rscale>  0 0.38453005E+04</rscale>
<asrwt>0</asrwt>
<pdfrwt beam="1">  1        1 0.41760525E+00 0.38453005E+04</pdfrwt>
<pdfrwt beam="2">  1       -1 0.20951152E+00 0.38453005E+04</pdfrwt>
<totfact> 0.98415062E-02</totfact>
</mgrwt>
</event>
<event>
 6    1  0.1614874E-005  0.1281263E+04  0.7818608E-02  0.9044557E-01
          2   -1    0    0  501    0  0.00000000000E+00  0.00000000000E+00  0.24742939700E+03  0.24742939700E+03  0.00000000000E+00 0. -1.
         -2   -1    0    0    0  501 -0.00000000000E+00 -0.00000000000E+00 -0.16586913856E+04  0.16586913856E+04  0.00000000000E+00 0.  1.
         23    2    1    2    0    0  0.42843643387E+03 -0.21704767783E+03 -0.85012113631E+02  0.49558676913E+03  0.87816364961E+02 0.  0.
         11    1    3    3    0    0  0.28565656202E+03 -0.13253575601E+03 -0.14299667944E+02  0.31522988207E+03  0.00000000000E+00 0.  1.
        -11    1    3    3    0    0  0.14277987185E+03 -0.84511921825E+02 -0.70712445688E+02  0.18035688706E+03  0.00000000000E+00 0. -1.
         22    1    1    2    0    0 -0.42843643387E+03  0.21704767783E+03 -0.13262498750E+04  0.14105340135E+04  0.00000000000E+00 0.  1.
<mgrwt>
<rscale>  0 0.12812635E+04</rscale>
<asrwt>0</asrwt>
<pdfrwt beam="1">  1        2 0.38066059E-01 0.12812635E+04</pdfrwt>
<pdfrwt beam="2">  1       -2 0.25518330E+00 0.12812635E+04</pdfrwt>
<totfact> 0.79990616E+00</totfact>
</mgrwt>
</event>
<event>
 6    1  0.1614874E-005  0.9824116E+03  0.7818608E-02  0.9328049E-01
         -1   -1    0    0    0  501 -0.00000000000E+00  0.00000000000E+00  0.23190869976E+03  0.23190869976E+03  0.00000000000E+00 0.  1.
          1   -1    0    0  501    0  0.00000000000E+00 -0.00000000000E+00 -0.10404230044E+04  0.10404230044E+04  0.00000000000E+00 0. -1.
         23    2    1    2    0    0  0.51519159804E+02  0.36291456943E+03 -0.82267014994E+03  0.90550531950E+03  0.93768328964E+02 0.  0.
         11    1    3    3    0    0  0.10622358193E+02  0.25111258787E+03 -0.46550874544E+03  0.52902623599E+03  0.00000000000E+00 0.  1.
        -11    1    3    3    0    0  0.40896801611E+02  0.11180198156E+03 -0.35716140450E+03  0.37647908351E+03  0.00000000000E+00 0. -1.
         22    1    1    2    0    0 -0.51519159804E+02 -0.36291456943E+03  0.14155845287E+02  0.36682638466E+03  0.00000000000E+00 0.  1.
<mgrwt>
<rscale>  0 0.98241162E+03</rscale>
<asrwt>0</asrwt>
<pdfrwt beam="1">  1        1 0.16006508E+00 0.98241162E+03</pdfrwt>
<pdfrwt beam="2">  1       -1 0.35678261E-01 0.98241162E+03</pdfrwt>
<totfact> 0.10577845E+02</totfact>
</mgrwt>
</event>
<event>
 6    1  0.1614874E-005  0.8268577E+03  0.7818608E-02  0.9521935E-01
         -1   -1    0    0    0  501 -0.00000000000E+00  0.00000000000E+00  0.73577103712E+03  0.73577103712E+03  0.00000000000E+00 0.  1.
          1   -1    0    0  501    0  0.00000000000E+00 -0.00000000000E+00 -0.23230515444E+03  0.23230515444E+03  0.00000000000E+00 0. -1.
         23    2    1    2    0    0  0.19608190038E+03  0.74444224294E+02  0.66405355849E+03  0.70392007142E+03  0.10269510320E+03 0.  0.
         13    1    3    3    0    0  0.18975451693E+01 -0.16956763606E+02  0.76929601912E+02  0.78799087304E+02  0.00000000000E+00 0. -1.
        -13    1    3    3    0    0  0.19418435521E+03  0.91400987900E+02  0.58712395658E+03  0.62512098412E+03  0.00000000000E+00 0.  1.
         22    1    1    2    0    0 -0.19608190038E+03 -0.74444224294E+02 -0.16058767580E+03  0.26415612014E+03  0.00000000000E+00 0. -1.
<mgrwt>
<rscale>  0 0.82685768E+03</rscale>
<asrwt>0</asrwt>
<pdfrwt beam="1">  1        1 0.35739255E-01 0.82685768E+03</pdfrwt>
<pdfrwt beam="2">  1       -1 0.11319554E+00 0.82685768E+03</pdfrwt>
<totfact> 0.88273581E+01</totfact>
</mgrwt>
</event>
<event>
 6    1  0.1614874E-005  0.1020369E+04  0.7818608E-02  0.9286483E-01
         -2   -1    0    0    0  501 -0.00000000000E+00  0.00000000000E+00  0.19300419686E+03  0.19300419686E+03  0.00000000000E+00 0. -1.
          2   -1    0    0  501    0  0.00000000000E+00 -0.00000000000E+00 -0.13486131340E+04  0.13486131340E+04  0.00000000000E+00 0.  1.
         23    2    1    2    0    0 -0.41550027297E+03  0.15752147620E+03 -0.94831916860E+03  0.10512883184E+04  0.91893365149E+02 0.  0.
         11    1    3    3    0    0 -0.15881397692E+03  0.14123074891E+02 -0.31556073675E+03  0.35355327617E+03  0.00000000000E+00 0. -1.
        -11    1    3    3    0    0 -0.25668629605E+03  0.14339840131E+03 -0.63275843185E+03  0.69773504223E+03  0.00000000000E+00 0.  1.
         22    1    1    2    0    0  0.41550027297E+03 -0.15752147620E+03 -0.20728976851E+03  0.49032901243E+03  0.00000000000E+00 0. -1.
<mgrwt>
<rscale>  0 0.10203686E+04</rscale>
<asrwt>0</asrwt>
<pdfrwt beam="1">  1        2 0.20747894E+00 0.10203686E+04</pdfrwt>
<pdfrwt beam="2">  1       -2 0.29692953E-01 0.10203686E+04</pdfrwt>
<totfact> 0.16128956E+02</totfact>
</mgrwt>
</event>
<event>
 6    1  0.1614874E-005  0.2274052E+04  0.7818608E-02  0.8488223E-01
          2   -1    0    0  501    0  0.00000000000E+00  0.00000000000E+00  0.99461262071E+03  0.99461262071E+03  0.00000000000E+00 0. -1.
         -2   -1    0    0    0  501 -0.00000000000E+00 -0.00000000000E+00 -0.12998310161E+04  0.12998310161E+04  0.00000000000E+00 0.  1.
         23    2    1    2    0    0  0.37672330835E+03  0.95296544284E+03 -0.64584658983E+03  0.12145866309E+04  0.89662032422E+02 0.  0.
         11    1    3    3    0    0  0.20530051614E+03  0.45338677707E+03 -0.26888447989E+03  0.56569137794E+03  0.00000000000E+00 0.  1.
        -11    1    3    3    0    0  0.17142279221E+03  0.49957866577E+03 -0.37696210993E+03  0.64889525295E+03  0.00000000000E+00 0. -1.
         22    1    1    2    0    0 -0.37672330835E+03 -0.95296544284E+03  0.34062819446E+03  0.10798570059E+04  0.00000000000E+00 0. -1.
<mgrwt>
<rscale>  0 0.22740522E+04</rscale>
<asrwt>0</asrwt>
<pdfrwt beam="1">  1        2 0.15301733E+00 0.22740522E+04</pdfrwt>
<pdfrwt beam="2">  1       -2 0.19997400E+00 0.22740522E+04</pdfrwt>
<totfact> 0.30685616E+00</totfact>
</mgrwt>
</event>
<event>
 6    1  0.1614874E-005  0.1259677E+04  0.7818608E-02  0.9062167E-01
         -2   -1    0    0    0  501 -0.00000000000E+00  0.00000000000E+00  0.12074269918E+03  0.12074269918E+03  0.00000000000E+00 0.  1.
          2   -1    0    0  501    0  0.00000000000E+00 -0.00000000000E+00 -0.32854697278E+04  0.32854697278E+04  0.00000000000E+00 0. -1.
         23    2    1    2    0    0  0.60182856259E+03 -0.17260024933E+03 -0.15653012834E+04  0.16886120138E+04  0.96197508136E+02 0.  0.
         11    1    3    3    0    0  0.34768825714E+03 -0.63521685384E+02 -0.78998605191E+03  0.86544791344E+03  0.00000000000E+00 0.  1.
        -11    1    3    3    0    0  0.25414030546E+03 -0.10907856395E+03 -0.77531523146E+03  0.82316410035E+03  0.00000000000E+00 0. -1.
         22    1    1    2    0    0 -0.60182856259E+03  0.17260024933E+03 -0.15994257453E+04  0.17176004132E+04  0.00000000000E+00 0.  1.
<mgrwt>
<rscale>  0 0.12596769E+04</rscale>
<asrwt>0</asrwt>
<pdfrwt beam="1">  1        2 0.50545687E+00 0.12596769E+04</pdfrwt>
<pdfrwt beam="2">  1       -2 0.18575800E-01 0.12596769E+04</pdfrwt>
<totfact> 0.27723932E+01</totfact>
</mgrwt>
</event>
<event>
 6    1  0.1614874E-005  0.1400749E+04  0.7818608E-02  0.8953276E-01
          2   -1    0    0  501    0  0.00000000000E+00  0.00000000000E+00  0.19983024915E+04  0.19983024915E+04  0.00000000000E+00 0. -1.
         -2   -1    0    0    0  501 -0.00000000000E+00 -0.00000000000E+00 -0.24547066801E+03  0.24547066801E+03  0.00000000000E+00 0.  1.
         23    2    1    2    0    0 -0.55196087859E+03 -0.22594677737E+03  0.14597089162E+04  0.15792178221E+04  0.86406318577E+02 0.  0.
         13    1    3    3    0    0 -0.20302293204E+03 -0.10585019889E+03  0.46624598172E+03  0.51943035241E+03  0.00000000000E+00 0.  1.
        -13    1    3    3    0    0 -0.34893794656E+03 -0.12009657848E+03  0.99346293451E+03  0.10597874697E+04  0.00000000000E+00 0. -1.
         22    1    1    2    0    0  0.55196087859E+03  0.22594677737E+03  0.29312290726E+03  0.66455533740E+03  0.00000000000E+00 0.  1.
<mgrwt>
<rscale>  0 0.14007493E+04</rscale>
<asrwt>0</asrwt>
<pdfrwt beam="1">  1        2 0.30743114E+00 0.14007493E+04</pdfrwt>
<pdfrwt beam="2">  1       -2 0.37764719E-01 0.14007493E+04</pdfrwt>
<totfact> 0.43142040E+01</totfact>
</mgrwt>
</event>
<event>
 6    1  0.1614874E-005  0.1164729E+04  0.7818608E-02  0.9144302E-01
          2   -1    0    0  501    0  0.00000000000E+00  0.00000000000E+00  0.38540476634E+04  0.38540476634E+04  0.00000000000E+00 0.  1.
         -2   -1    0    0    0  501 -0.00000000000E+00 -0.00000000000E+00 -0.87998014646E+02  0.87998014646E+02  0.00000000000E+00 0. -1.
         23    2    1    2    0    0  0.10332061939E+03 -0.42884774068E+02  0.38165596275E+04  0.38193040299E+04  0.91878333186E+02 0.  0.
         11    1    3    3    0    0  0.78401058649E+02  0.40572014943E+01  0.29941115418E+04  0.29951405830E+04  0.00000000000E+00 0. -1.
        -11    1    3    3    0    0  0.24919560743E+02 -0.46941975562E+02  0.82244808572E+03  0.82416344695E+03  0.00000000000E+00 0.  1.
         22    1    1    2    0    0 -0.10332061939E+03  0.42884774068E+02 -0.50509978759E+02  0.12274164816E+03  0.00000000000E+00 0. -1.
<mgrwt>
<rscale>  0 0.11647292E+04</rscale>
<asrwt>0</asrwt>
<pdfrwt beam="1">  1        2 0.59293028E+00 0.11647292E+04</pdfrwt>
<pdfrwt beam="2">  1       -2 0.13538159E-01 0.11647292E+04</pdfrwt>
<totfact> 0.19141447E+01</totfact>
</mgrwt>
</event>
<event>
 6    1  0.1614874E-005  0.2106062E+04  0.7818608E-02  0.8558578E-01
          1   -1    0    0  501    0  0.00000000000E+00  0.00000000000E+00  0.92382573444E+03  0.92382573444E+03  0.00000000000E+00 0. -1.
         -1   -1    0    0    0  501 -0.00000000000E+00 -0.00000000000E+00 -0.12003068860E+04  0.12003068860E+04  0.00000000000E+00 0.  1.
         23    2    1    2    0    0 -0.77604670258E+03  0.14599737747E+03  0.56114920846E+03  0.97296437088E+03  0.90595331221E+02 0.  0.
         13    1    3    3    0    0 -0.35466616344E+03  0.30327879940E+02  0.28559494678E+03  0.45636864640E+03  0.00000000000E+00 0. -1.
        -13    1    3    3    0    0 -0.42138053913E+03  0.11566949753E+03  0.27555426168E+03  0.51659572448E+03  0.00000000000E+00 0.  1.
         22    1    1    2    0    0  0.77604670258E+03 -0.14599737747E+03 -0.83763036005E+03  0.11511682496E+04  0.00000000000E+00 0.  1.
<mgrwt>
<rscale>  0 0.21060621E+04</rscale>
<asrwt>0</asrwt>
<pdfrwt beam="1">  1        1 0.14212704E+00 0.21060621E+04</pdfrwt>
<pdfrwt beam="2">  1       -1 0.18466260E+00 0.21060621E+04</pdfrwt>
<totfact> 0.30824447E+00</totfact>
</mgrwt>
</event>
<event>
 6    1  0.1614874E-005  0.1498395E+04  0.7818608E-02  0.8885521E-01
          1   -1    0    0  501    0  0.00000000000E+00  0.00000000000E+00  0.54200049694E+03  0.54200049694E+03  0.00000000000E+00 0. -1.
         -1   -1    0    0    0  501 -0.00000000000E+00 -0.00000000000E+00 -0.10356024659E+04  0.10356024659E+04  0.00000000000E+00 0.  1.
         23    2    1    2    0    0 -0.65479641556E+03  0.26026324900E+03 -0.50711340925E+03  0.87284920188E+03  0.90589264196E+02 0.  0.
         13    1    3    3    0    0 -0.43818032199E+03  0.16862604685E+03 -0.28435569620E+03  0.54890336146E+03  0.00000000000E+00 0.  1.
        -13    1    3    3    0    0 -0.21661609357E+03  0.91637202141E+02 -0.22275771304E+03  0.32394584042E+03  0.00000000000E+00 0. -1.
         22    1    1    2    0    0  0.65479641556E+03 -0.26026324900E+03  0.13511440267E+02  0.70475376098E+03  0.00000000000E+00 0. -1.
<mgrwt>
<rscale>  0 0.14983952E+04</rscale>
<asrwt>0</asrwt>
<pdfrwt beam="1">  1        1 0.83384693E-01 0.14983952E+04</pdfrwt>
<pdfrwt beam="2">  1       -1 0.15932345E+00 0.14983952E+04</pdfrwt>
<totfact> 0.11330027E+01</totfact>
</mgrwt>
</event>
<event>
 6    1  0.1614874E-005  0.3917501E+04  0.7818608E-02  0.8021399E-01
         -1   -1    0    0    0  501 -0.00000000000E+00  0.00000000000E+00  0.76377735841E+03  0.76377735841E+03  0.00000000000E+00 0.  1.
          1   -1    0    0  501    0  0.00000000000E+00 -0.00000000000E+00 -0.50233272741E+04  0.50233272741E+04  0.00000000000E+00 0. -1.
         23    2    1    2    0    0 -0.14042921384E+04  0.81894733038E+03 -0.37422666521E+04  0.40811465103E+04  0.92119504256E+02 0.  0.
         11    1    3    3    0    0 -0.49441681617E+03  0.26933425702E+03 -0.11954949044E+04  0.13214374735E+04  0.00000000000E+00 0.  1.
        -11    1    3    3    0    0 -0.90987532224E+03  0.54961307335E+03 -0.25467717477E+04  0.27597090367E+04  0.00000000000E+00 0. -1.
         22    1    1    2    0    0  0.14042921384E+04 -0.81894733038E+03 -0.51728326356E+03  0.17059581222E+04  0.00000000000E+00 0.  1.
<mgrwt>
<rscale>  0 0.39175011E+04</rscale>
<asrwt>0</asrwt>
<pdfrwt beam="1">  1        1 0.77281957E+00 0.39175011E+04</pdfrwt>
<pdfrwt beam="2">  1       -1 0.11750421E+00 0.39175011E+04</pdfrwt>
<totfact> 0.41019215E-03</totfact>
</mgrwt>
</event>
<event>
 6    1  0.2424918E-005  0.3883507E+04  0.7818608E-02  0.8028468E-01
          2   -1    0    0  501    0  0.00000000000E+00  0.00000000000E+00  0.23204835514E+04  0.23204835514E+04  0.00000000000E+00 0. -1.
         -2   -1    0    0    0  501 -0.00000000000E+00 -0.00000000000E+00 -0.16248366402E+04  0.16248366402E+04  0.00000000000E+00 0.  1.
         23    2    1    2    0    0  0.64112217092E+03  0.27279054236E+03 -0.14925445558E+04  0.16488807271E+04  0.75273388202E+02 0.  0.
         11    1    3    3    0    0  0.31296578009E+03  0.99017615095E+02 -0.74892937635E+03  0.81770855343E+03  0.00000000000E+00 0.  1.
        -11    1    3    3    0    0  0.32815639084E+03  0.17377292726E+03 -0.74361517947E+03  0.83117217364E+03  0.00000000000E+00 0. -1.
         22    1    1    2    0    0 -0.64112217092E+03 -0.27279054236E+03  0.21881914670E+04  0.22964394645E+04  0.00000000000E+00 0. -1.
<mgrwt>
<rscale>  0 0.38835070E+04</rscale>
<asrwt>0</asrwt>
<pdfrwt beam="1">  1        2 0.35699747E+00 0.38835070E+04</pdfrwt>
<pdfrwt beam="2">  1       -2 0.24997487E+00 0.38835070E+04</pdfrwt>
<totfact> 0.22596415E-01</totfact>
</mgrwt>
</event>
<event>
 6    1  0.1614874E-005  0.1881026E+04  0.7818608E-02  0.8664359E-01
          2   -1    0    0  501    0  0.00000000000E+00  0.00000000000E+00  0.87809468319E+03  0.87809468319E+03  0.00000000000E+00 0. -1.
         -2   -1    0    0    0  501 -0.00000000000E+00 -0.00000000000E+00 -0.10073683986E+04  0.10073683986E+04  0.00000000000E+00 0.  1.
         23    2    1    2    0    0  0.11934213881E+03  0.59113482248E+03  0.65574117013E+03  0.89554829002E+03  0.91254222424E+02 0.  0.
         13    1    3    3    0    0  0.50731811657E+02  0.40748311214E+03  0.39940566487E+03  0.57283600491E+03  0.00000000000E+00 0.  1.
        -13    1    3    3    0    0  0.68610327150E+02  0.18365171034E+03  0.25633550526E+03  0.32271228511E+03  0.00000000000E+00 0. -1.
         22    1    1    2    0    0 -0.11934213881E+03 -0.59113482248E+03 -0.78501488552E+03  0.98991479175E+03  0.00000000000E+00 0.  1.
<mgrwt>
<rscale>  0 0.18810261E+04</rscale>
<asrwt>0</asrwt>
<pdfrwt beam="1">  1        2 0.13509149E+00 0.18810261E+04</pdfrwt>
<pdfrwt beam="2">  1       -2 0.15497975E+00 0.18810261E+04</pdfrwt>
<totfact> 0.78149867E+00</totfact>
</mgrwt>
</event>
<event>
 6    1  0.1614874E-005  0.2053414E+04  0.7818608E-02  0.8582047E-01
          1   -1    0    0  501    0  0.00000000000E+00  0.00000000000E+00  0.70205662222E+03  0.70205662222E+03  0.00000000000E+00 0. -1.
         -1   -1    0    0    0  501 -0.00000000000E+00 -0.00000000000E+00 -0.15014849152E+04  0.15014849152E+04  0.00000000000E+00 0.  1.
         23    2    1    2    0    0  0.35789319006E+03  0.28812013045E+03 -0.13833342705E+04  0.14605429267E+04  0.92039078471E+02 0.  0.
         13    1    3    3    0    0  0.17367675366E+03  0.17487741898E+03 -0.85079905426E+03  0.88577918081E+03  0.00000000000E+00 0. -1.
        -13    1    3    3    0    0  0.18421643641E+03  0.11324271147E+03 -0.53253521619E+03  0.57476374592E+03  0.00000000000E+00 0.  1.
         22    1    1    2    0    0 -0.35789319006E+03 -0.28812013045E+03  0.58390597743E+03  0.74299861072E+03  0.00000000000E+00 0. -1.
<mgrwt>
<rscale>  0 0.20534142E+04</rscale>
<asrwt>0</asrwt>
<pdfrwt beam="1">  1        1 0.10800871E+00 0.20534142E+04</pdfrwt>
<pdfrwt beam="2">  1       -1 0.23099768E+00 0.20534142E+04</pdfrwt>
<totfact> 0.23280132E+00</totfact>
</mgrwt>
</event>
<event>
 6    1  0.1614874E-005  0.2107512E+04  0.7818608E-02  0.8557941E-01
          1   -1    0    0  501    0  0.00000000000E+00  0.00000000000E+00  0.12751676858E+04  0.12751676858E+04  0.00000000000E+00 0. -1.
         -1   -1    0    0    0  501 -0.00000000000E+00 -0.00000000000E+00 -0.87078879639E+03  0.87078879639E+03  0.00000000000E+00 0.  1.
         23    2    1    2    0    0 -0.73229674131E+02 -0.10499008619E+04  0.23290982634E+03  0.10796281816E+04  0.60791596734E+02 0.  0.
         11    1    3    3    0    0 -0.15523125894E+02 -0.15396653007E+03  0.56035266977E+02  0.16458010500E+03  0.00000000000E+00 0. -1.
        -11    1    3    3    0    0 -0.57706548237E+02 -0.89593433186E+03  0.17687455936E+03  0.91504807659E+03  0.00000000000E+00 0.  1.
         22    1    1    2    0    0  0.73229674131E+02  0.10499008619E+04  0.17146906306E+03  0.10663283006E+04  0.00000000000E+00 0.  1.
<mgrwt>
<rscale>  0 0.21075120E+04</rscale>
<asrwt>0</asrwt>
<pdfrwt beam="1">  1        1 0.19617964E+00 0.21075120E+04</pdfrwt>
<pdfrwt beam="2">  1       -1 0.13396751E+00 0.21075120E+04</pdfrwt>
<totfact> 0.40696197E+00</totfact>
</mgrwt>
</event>
<event>
 6    1  0.1614874E-005  0.4214970E+04  0.7818608E-02  0.7962531E-01
         -2   -1    0    0    0  501 -0.00000000000E+00  0.00000000000E+00  0.30080350739E+04  0.30080350739E+04  0.00000000000E+00 0.  1.
          2   -1    0    0  501    0  0.00000000000E+00 -0.00000000000E+00 -0.14765431230E+04  0.14765431230E+04  0.00000000000E+00 0. -1.
         23    2    1    2    0    0 -0.65890909099E+03 -0.15279142689E+03 -0.13569043161E+04  0.15180415957E+04  0.75858768368E+02 0.  0.
         11    1    3    3    0    0 -0.43314272851E+03 -0.87138540217E+02 -0.95860819592E+03  0.10555261350E+04  0.00000000000E+00 0. -1.
        -11    1    3    3    0    0 -0.22576636249E+03 -0.65652886677E+02 -0.39829612023E+03  0.46251546066E+03  0.00000000000E+00 0.  1.
         22    1    1    2    0    0  0.65890909099E+03  0.15279142689E+03  0.28883962671E+04  0.29665366011E+04  0.00000000000E+00 0.  1.
<mgrwt>
<rscale>  0 0.42149702E+04</rscale>
<asrwt>0</asrwt>
<pdfrwt beam="1">  1        2 0.22716048E+00 0.42149702E+04</pdfrwt>
<pdfrwt beam="2">  1       -2 0.46277462E+00 0.42149702E+04</pdfrwt>
<totfact> 0.29039087E-02</totfact>
</mgrwt>
</event>
<event>
 6    1  0.1614874E-005  0.1748954E+04  0.7818608E-02  0.8733926E-01
          1   -1    0    0  501    0  0.00000000000E+00  0.00000000000E+00  0.72501947562E+03  0.72501947562E+03  0.00000000000E+00 0. -1.
         -1   -1    0    0    0  501 -0.00000000000E+00 -0.00000000000E+00 -0.10547441223E+04  0.10547441223E+04  0.00000000000E+00 0.  1.
         23    2    1    2    0    0 -0.64642450110E+02  0.67482417713E+03 -0.72348546342E+03  0.99579044968E+03  0.92742048156E+02 0.  0.
         11    1    3    3    0    0 -0.85909646507E+02  0.47065023427E+03 -0.48820884745E+03  0.68354955132E+03  0.00000000000E+00 0.  1.
        -11    1    3    3    0    0  0.21267196396E+02  0.20417394286E+03 -0.23527661597E+03  0.31224089836E+03  0.00000000000E+00 0. -1.
         22    1    1    2    0    0  0.64642450110E+02 -0.67482417713E+03  0.39376081673E+03  0.78397314826E+03  0.00000000000E+00 0. -1.
<mgrwt>
<rscale>  0 0.17489540E+04</rscale>
<asrwt>0</asrwt>
<pdfrwt beam="1">  1        1 0.11154146E+00 0.17489540E+04</pdfrwt>
<pdfrwt beam="2">  1       -1 0.16226833E+00 0.17489540E+04</pdfrwt>
<totfact> 0.68731678E+00</totfact>
</mgrwt>
</event>
<event>
 6    1  0.1614874E-005  0.2360216E+04  0.7818608E-02  0.8454550E-01
          2   -1    0    0  501    0  0.00000000000E+00  0.00000000000E+00  0.16420985815E+04  0.16420985815E+04  0.00000000000E+00 0.  1.
         -2   -1    0    0    0  501 -0.00000000000E+00 -0.00000000000E+00 -0.84809433699E+03  0.84809433699E+03  0.00000000000E+00 0. -1.
         23    2    1    2    0    0 -0.10800533578E+04  0.15143061583E+03 -0.72811218717E+02  0.10970613617E+04  0.93785237087E+02 0.  0.
         11    1    3    3    0    0 -0.18820201966E+03  0.62558100127E+02 -0.17120235133E+02  0.19906435780E+03  0.00000000000E+00 0. -1.
        -11    1    3    3    0    0 -0.89185133815E+03  0.88872515702E+02 -0.55690983584E+02  0.89799700393E+03  0.00000000000E+00 0.  1.
         22    1    1    2    0    0  0.10800533578E+04 -0.15143061583E+03  0.86681546320E+03  0.13931315567E+04  0.00000000000E+00 0.  1.
<mgrwt>
<rscale>  0 0.23602157E+04</rscale>
<asrwt>0</asrwt>
<pdfrwt beam="1">  1        2 0.25263055E+00 0.23602157E+04</pdfrwt>
<pdfrwt beam="2">  1       -2 0.13047605E+00 0.23602157E+04</pdfrwt>
<totfact> 0.41013660E+00</totfact>
</mgrwt>
</event>
<event>
 6    1  0.1614874E-005  0.1215682E+04  0.7818608E-02  0.9099239E-01
          2   -1    0    0  501    0  0.00000000000E+00  0.00000000000E+00  0.46600298157E+03  0.46600298157E+03  0.00000000000E+00 0. -1.
         -2   -1    0    0    0  501 -0.00000000000E+00 -0.00000000000E+00 -0.79285091932E+03  0.79285091932E+03  0.00000000000E+00 0.  1.
         23    2    1    2    0    0 -0.27635514738E+02  0.56318595251E+03 -0.38983892776E+03  0.69148276698E+03  0.90729756148E+02 0.  0.
         13    1    3    3    0    0  0.23711706305E+02  0.36546741142E+03 -0.26537458060E+03  0.45227463101E+03  0.00000000000E+00 0.  1.
        -13    1    3    3    0    0 -0.51347221043E+02  0.19771854108E+03 -0.12446434716E+03  0.23920813596E+03  0.00000000000E+00 0. -1.
         22    1    1    2    0    0  0.27635514738E+02 -0.56318595251E+03  0.62990990004E+02  0.56737113391E+03  0.00000000000E+00 0. -1.
<mgrwt>
<rscale>  0 0.12156823E+04</rscale>
<asrwt>0</asrwt>
<pdfrwt beam="1">  1        2 0.71692767E-01 0.12156823E+04</pdfrwt>
<pdfrwt beam="2">  1       -2 0.12197706E+00 0.12156823E+04</pdfrwt>
<totfact> 0.33562439E+01</totfact>
</mgrwt>
</event>
<event>
 6    1  0.1614874E-005  0.2145240E+03  0.7818608E-02  0.1138033E+00
          3   -1    0    0  501    0  0.00000000000E+00  0.00000000000E+00  0.30785447121E+03  0.30785447121E+03  0.00000000000E+00 0. -1.
         -3   -1    0    0    0  501 -0.00000000000E+00 -0.00000000000E+00 -0.37372001320E+02  0.37372001320E+02  0.00000000000E+00 0.  1.
         23    2    1    2    0    0 -0.67171682781E+02 -0.22227892939E+02  0.24422861323E+03  0.26975873650E+03  0.90089101489E+02 0.  0.
         11    1    3    3    0    0 -0.12735672559E+02  0.38413909602E+01  0.18404132012E+03  0.18452143819E+03  0.00000000000E+00 0.  1.
        -11    1    3    3    0    0 -0.54436010221E+02 -0.26069283899E+02  0.60187293109E+02  0.85237298313E+02  0.00000000000E+00 0. -1.
         22    1    1    2    0    0  0.67171682781E+02  0.22227892939E+02  0.26253856667E+02  0.75467736033E+02  0.00000000000E+00 0.  1.
<mgrwt>
<rscale>  0 0.21452401E+03</rscale>
<asrwt>0</asrwt>
<pdfrwt beam="1">  1        3 0.47362225E-01 0.21452401E+03</pdfrwt>
<pdfrwt beam="2">  1       -3 0.57495389E-02 0.21452401E+03</pdfrwt>
<totfact> 0.20048732E+03</totfact>
</mgrwt>
</event>
<event>
 6    1  0.1614874E-005  0.4214223E+04  0.7818608E-02  0.7962672E-01
         -2   -1    0    0    0  501 -0.00000000000E+00  0.00000000000E+00  0.13188783038E+04  0.13188783038E+04  0.00000000000E+00 0.  1.
          2   -1    0    0  501    0  0.00000000000E+00 -0.00000000000E+00 -0.33664348792E+04  0.33664348792E+04  0.00000000000E+00 0. -1.
         23    2    1    2    0    0 -0.33341563529E+03  0.14261029882E+04 -0.27069793144E+04  0.30791456740E+04  0.92007360028E+02 0.  0.
         13    1    3    3    0    0 -0.16083057894E+03  0.82246569925E+03 -0.16178512580E+04  0.18220205801E+04  0.00000000000E+00 0.  1.
        -13    1    3    3    0    0 -0.17258505635E+03  0.60363728891E+03 -0.10891280564E+04  0.12571250938E+04  0.00000000000E+00 0. -1.
         22    1    1    2    0    0  0.33341563529E+03 -0.14261029882E+04  0.65942273897E+03  0.16061675091E+04  0.00000000000E+00 0.  1.
<mgrwt>
<rscale>  0 0.42142225E+04</rscale>
<asrwt>0</asrwt>
<pdfrwt beam="1">  1        2 0.51791306E+00 0.42142225E+04</pdfrwt>
<pdfrwt beam="2">  1       -2 0.20290435E+00 0.42142225E+04</pdfrwt>
<totfact> 0.99046773E-02</totfact>
</mgrwt>
</event>
<event>
 6    1  0.1614874E-005  0.6896588E+04  0.7818608E-02  0.7588195E-01
          2   -1    0    0  501    0  0.00000000000E+00  0.00000000000E+00  0.28788060717E+04  0.28788060717E+04  0.00000000000E+00 0. -1.
         -2   -1    0    0    0  501 -0.00000000000E+00 -0.00000000000E+00 -0.41304384798E+04  0.41304384798E+04  0.00000000000E+00 0.  1.
         23    2    1    2    0    0  0.26023738730E+04 -0.15871316076E+04 -0.22632035584E+04  0.37976074757E+04  0.91627929859E+02 0.  0.
         11    1    3    3    0    0  0.97906097169E+03 -0.61610102164E+03 -0.80748987095E+03  0.14107376605E+04  0.00000000000E+00 0. -1.
        -11    1    3    3    0    0  0.16233129013E+04 -0.97103058600E+03 -0.14557136875E+04  0.23868698151E+04  0.00000000000E+00 0.  1.
         22    1    1    2    0    0 -0.26023738730E+04  0.15871316076E+04  0.10115711502E+04  0.32116370758E+04  0.00000000000E+00 0. -1.
<mgrwt>
<rscale>  0 0.68965880E+04</rscale>
<asrwt>0</asrwt>
<pdfrwt beam="1">  1        2 0.44289324E+00 0.68965880E+04</pdfrwt>
<pdfrwt beam="2">  1       -2 0.63545207E+00 0.68965880E+04</pdfrwt>
<totfact> 0.50416373E-04</totfact>
</mgrwt>
</event>
<event>
 6    1  0.1614874E-005  0.1791559E+04  0.7818608E-02  0.8710801E-01
         -2   -1    0    0    0  501 -0.00000000000E+00  0.00000000000E+00  0.70481711195E+03  0.70481711195E+03  0.00000000000E+00 0.  1.
          2   -1    0    0  501    0  0.00000000000E+00 -0.00000000000E+00 -0.11384814705E+04  0.11384814705E+04  0.00000000000E+00 0. -1.
         23    2    1    2    0    0  0.27239458598E+03 -0.69931331056E+03 -0.71520941015E+03  0.10417341540E+04  0.10221365086E+03 0.  0.
         11    1    3    3    0    0  0.23132552244E+03 -0.46370540706E+03 -0.48340247790E+03  0.70866928642E+03  0.00000000000E+00 0.  1.
        -11    1    3    3    0    0  0.41069063536E+02 -0.23560790350E+03 -0.23180693225E+03  0.33306486757E+03  0.00000000000E+00 0. -1.
         22    1    1    2    0    0 -0.27239458598E+03  0.69931331056E+03  0.28154505164E+03  0.80156442841E+03  0.00000000000E+00 0.  1.
<mgrwt>
<rscale>  0 0.17915593E+04</rscale>
<asrwt>0</asrwt>
<pdfrwt beam="1">  1        2 0.17515099E+00 0.17915593E+04</pdfrwt>
<pdfrwt beam="2">  1       -2 0.10843340E+00 0.17915593E+04</pdfrwt>
<totfact> 0.13261287E+01</totfact>
</mgrwt>
</event>
<event>
 6    1  0.1614874E-005  0.5507597E+03  0.7818608E-02  0.1001318E+00
         -2   -1    0    0    0  501 -0.00000000000E+00  0.00000000000E+00  0.22211193377E+03  0.22211193377E+03  0.00000000000E+00 0. -1.
          2   -1    0    0  501    0  0.00000000000E+00 -0.00000000000E+00 -0.34142270377E+03  0.34142270377E+03  0.00000000000E+00 0.  1.
         23    2    1    2    0    0  0.15839594222E+03 -0.66057271272E+02  0.14370845144E+03  0.24947740001E+03  0.11015451194E+03 0.  0.
         13    1    3    3    0    0  0.17302510331E+02 -0.53893313162E+02  0.69378643124E+02  0.89539165671E+02  0.00000000000E+00 0. -1.
        -13    1    3    3    0    0  0.14109343189E+03 -0.12163958110E+02  0.74329808315E+02  0.15993823434E+03  0.00000000000E+00 0.  1.
         22    1    1    2    0    0 -0.15839594222E+03  0.66057271272E+02 -0.26301922144E+03  0.31405723753E+03  0.00000000000E+00 0.  1.
<mgrwt>
<rscale>  0 0.55075968E+03</rscale>
<asrwt>0</asrwt>
<pdfrwt beam="1">  1        2 0.52526569E-01 0.55075968E+03</pdfrwt>
<pdfrwt beam="2">  1       -2 0.34171067E-01 0.55075968E+03</pdfrwt>
<totfact> 0.76566214E+02</totfact>
</mgrwt>
</event>
<event>
 6    1  0.1614874E-005  0.3032894E+04  0.7818608E-02  0.8234400E-01
         -2   -1    0    0    0  501 -0.00000000000E+00  0.00000000000E+00  0.23417047990E+04  0.23417047990E+04  0.00000000000E+00 0.  1.
          2   -1    0    0  501    0  0.00000000000E+00 -0.00000000000E+00 -0.98202468262E+03  0.98202468262E+03  0.00000000000E+00 0. -1.
         23    2    1    2    0    0  0.13065532421E+04 -0.75920239525E+03  0.56230780002E+03  0.16151416839E+04  0.94989187839E+02 0.  0.
         11    1    3    3    0    0  0.82399311748E+03 -0.50828338124E+03  0.31950861398E+03  0.10195108669E+04  0.00000000000E+00 0. -1.
        -11    1    3    3    0    0  0.48256012464E+03 -0.25091901401E+03  0.24279918604E+03  0.59563081706E+03  0.00000000000E+00 0.  1.
         22    1    1    2    0    0 -0.13065532421E+04  0.75920239525E+03  0.79737231635E+03  0.17085877977E+04  0.00000000000E+00 0.  1.
<mgrwt>
<rscale>  0 0.30328943E+04</rscale>
<asrwt>0</asrwt>
<pdfrwt beam="1">  1        2 0.15108072E+00 0.30328943E+04</pdfrwt>
<pdfrwt beam="2">  1       -2 0.36026227E+00 0.30328943E+04</pdfrwt>
<totfact> 0.29576620E-01</totfact>
</mgrwt>
</event>
<event>
 6    1  0.1614874E-005  0.2915159E+04  0.7818608E-02  0.8268382E-01
          1   -1    0    0  501    0  0.00000000000E+00  0.00000000000E+00  0.14497604876E+04  0.14497604876E+04  0.00000000000E+00 0. -1.
         -1   -1    0    0    0  501 -0.00000000000E+00 -0.00000000000E+00 -0.14654404433E+04  0.14654404433E+04  0.00000000000E+00 0.  1.
         23    2    1    2    0    0 -0.74703749684E+03 -0.95567395676E+03 -0.81358824846E+03  0.14632934349E+04  0.89017443748E+02 0.  0.
         11    1    3    3    0    0 -0.59982150074E+03 -0.79509965348E+03 -0.70215250856E+03  0.12186006060E+04  0.00000000000E+00 0.  1.
        -11    1    3    3    0    0 -0.14721599610E+03 -0.16057430328E+03 -0.11143573990E+03  0.24469282889E+03  0.00000000000E+00 0. -1.
         22    1    1    2    0    0  0.74703749684E+03  0.95567395676E+03  0.79790829279E+03  0.14519074960E+04  0.00000000000E+00 0. -1.
<mgrwt>
<rscale>  0 0.29151588E+04</rscale>
<asrwt>0</asrwt>
<pdfrwt beam="1">  1        1 0.22304007E+00 0.29151588E+04</pdfrwt>
<pdfrwt beam="2">  1       -1 0.22545238E+00 0.29151588E+04</pdfrwt>
<totfact> 0.61508608E-01</totfact>
</mgrwt>
</event>
<event>
 6    1  0.1614874E-005  0.2144736E+04  0.7818608E-02  0.8541789E-01
          2   -1    0    0  501    0  0.00000000000E+00  0.00000000000E+00  0.36502809001E+04  0.36502809001E+04  0.00000000000E+00 0. -1.
         -2   -1    0    0    0  501 -0.00000000000E+00 -0.00000000000E+00 -0.31503694137E+03  0.31503694137E+03  0.00000000000E+00 0.  1.
         23    2    1    2    0    0 -0.20726164087E+03 -0.82497147878E+03  0.28721305567E+04  0.29968090125E+04  0.90526207177E+02 0.  0.
         13    1    3    3    0    0 -0.14482810414E+03 -0.55570614344E+03  0.20809313392E+04  0.21587171505E+04  0.00000000000E+00 0. -1.
        -13    1    3    3    0    0 -0.62433536737E+02 -0.26926533534E+03  0.79119921757E+03  0.83809186203E+03  0.00000000000E+00 0.  1.
         22    1    1    2    0    0  0.20726164087E+03  0.82497147878E+03  0.46311340198E+03  0.96850882891E+03  0.00000000000E+00 0.  1.
<mgrwt>
<rscale>  0 0.21447362E+04</rscale>
<asrwt>0</asrwt>
<pdfrwt beam="1">  1        2 0.56158165E+00 0.21447362E+04</pdfrwt>
<pdfrwt beam="2">  1       -2 0.48467224E-01 0.21447362E+04</pdfrwt>
<totfact> 0.23624748E+00</totfact>
</mgrwt>
</event>
<event>
 6    1  0.1614874E-005  0.2822024E+04  0.7818608E-02  0.8296463E-01
         -1   -1    0    0    0  501 -0.00000000000E+00  0.00000000000E+00  0.96913200739E+03  0.96913200739E+03  0.00000000000E+00 0.  1.
          1   -1    0    0  501    0  0.00000000000E+00 -0.00000000000E+00 -0.20543691473E+04  0.20543691473E+04  0.00000000000E+00 0. -1.
         23    2    1    2    0    0  0.17464545611E+03 -0.13931033136E+04 -0.67845856430E+03  0.15617533354E+04  0.86773149420E+02 0.  0.
         11    1    3    3    0    0  0.12091682428E+03 -0.69114309912E+03 -0.36857179732E+03  0.79255588549E+03  0.00000000000E+00 0.  1.
        -11    1    3    3    0    0  0.53728631830E+02 -0.70196021445E+03 -0.30988676698E+03  0.76919744988E+03  0.00000000000E+00 0. -1.
         22    1    1    2    0    0 -0.17464545611E+03  0.13931033136E+04 -0.40677857558E+03  0.14617478193E+04  0.00000000000E+00 0.  1.
<mgrwt>
<rscale>  0 0.28220240E+04</rscale>
<asrwt>0</asrwt>
<pdfrwt beam="1">  1        1 0.31605679E+00 0.28220240E+04</pdfrwt>
<pdfrwt beam="2">  1       -1 0.14909723E+00 0.28220240E+04</pdfrwt>
<totfact> 0.83863638E-01</totfact>
</mgrwt>
</event>
<event>
 6    1  0.1614874E-005  0.1898164E+04  0.7818608E-02  0.8655771E-01
          2   -1    0    0  501    0  0.00000000000E+00  0.00000000000E+00  0.16552605987E+04  0.16552605987E+04  0.00000000000E+00 0. -1.
         -2   -1    0    0    0  501 -0.00000000000E+00 -0.00000000000E+00 -0.54417814260E+03  0.54417814260E+03  0.00000000000E+00 0.  1.
         23    2    1    2    0    0  0.26024095708E+03 -0.23406157597E+03  0.15762942212E+04  0.16172599341E+04  0.91192354082E+02 0.  0.
         11    1    3    3    0    0  0.15854590000E+03 -0.16686121407E+03  0.11946924779E+04  0.12166632993E+04  0.00000000000E+00 0.  1.
        -11    1    3    3    0    0  0.10169505708E+03 -0.67200361900E+02  0.38160174331E+03  0.40059663475E+03  0.00000000000E+00 0. -1.
         22    1    1    2    0    0 -0.26024095708E+03  0.23406157597E+03 -0.46521176516E+03  0.58217880718E+03  0.00000000000E+00 0.  1.
<mgrwt>
<rscale>  0 0.18981640E+04</rscale>
<asrwt>0</asrwt>
<pdfrwt beam="1">  1        2 0.25465547E+00 0.18981640E+04</pdfrwt>
<pdfrwt beam="2">  1       -2 0.83719715E-01 0.18981640E+04</pdfrwt>
<totfact> 0.12134019E+01</totfact>
</mgrwt>
</event>
<event>
 6    1  0.1614874E-005  0.6701452E+04  0.7818608E-02  0.7609034E-01
          2   -1    0    0  501    0  0.00000000000E+00  0.00000000000E+00  0.30234039821E+04  0.30234039821E+04  0.00000000000E+00 0. -1.
         -2   -1    0    0    0  501 -0.00000000000E+00 -0.00000000000E+00 -0.37134852438E+04  0.37134852438E+04  0.00000000000E+00 0.  1.
         23    2    1    2    0    0 -0.57916761097E+03  0.13146832167E+04 -0.33875170293E+04  0.36807500272E+04  0.93925807095E+02 0.  0.
         13    1    3    3    0    0 -0.23036118324E+03  0.41506688458E+03 -0.11366890526E+04  0.12318314803E+04  0.00000000000E+00 0. -1.
        -13    1    3    3    0    0 -0.34880642772E+03  0.89961633214E+03 -0.22508279767E+04  0.24489185469E+04  0.00000000000E+00 0.  1.
         22    1    1    2    0    0  0.57916761097E+03 -0.13146832167E+04  0.26974357675E+04  0.30561391987E+04  0.00000000000E+00 0. -1.
<mgrwt>
<rscale>  0 0.67014524E+04</rscale>
<asrwt>0</asrwt>
<pdfrwt beam="1">  1        2 0.46513908E+00 0.67014524E+04</pdfrwt>
<pdfrwt beam="2">  1       -2 0.57130542E+00 0.67014524E+04</pdfrwt>
<totfact> 0.73979744E-04</totfact>
</mgrwt>
</event>
<event>
 6    1  0.1614874E-005  0.1957331E+04  0.7818608E-02  0.8626834E-01
          1   -1    0    0  501    0  0.00000000000E+00  0.00000000000E+00  0.22191563774E+04  0.22191563774E+04  0.00000000000E+00 0. -1.
         -1   -1    0    0    0  501 -0.00000000000E+00 -0.00000000000E+00 -0.43159919427E+03  0.43159919427E+03  0.00000000000E+00 0.  1.
         23    2    1    2    0    0 -0.42037171800E+03 -0.46709419299E+02  0.20877477469E+04  0.21320952534E+04  0.90803983776E+02 0.  0.
         13    1    3    3    0    0 -0.27625650589E+03 -0.54455765128E+02  0.15471788325E+04  0.15725919455E+04  0.00000000000E+00 0. -1.
        -13    1    3    3    0    0 -0.14411521211E+03  0.77463458291E+01  0.54056891446E+03  0.55950330787E+03  0.00000000000E+00 0.  1.
         22    1    1    2    0    0  0.42037171800E+03  0.46709419299E+02 -0.30019056382E+03  0.51866031827E+03  0.00000000000E+00 0.  1.
<mgrwt>
<rscale>  0 0.19573309E+04</rscale>
<asrwt>0</asrwt>
<pdfrwt beam="1">  1        1 0.34140867E+00 0.19573309E+04</pdfrwt>
<pdfrwt beam="2">  1       -1 0.66399877E-01 0.19573309E+04</pdfrwt>
<totfact> 0.45241686E+00</totfact>
</mgrwt>
</event>
<event>
 6    1  0.1614874E-005  0.9664984E+03  0.7818608E-02  0.9346072E-01
         -2   -1    0    0    0  501 -0.00000000000E+00  0.00000000000E+00  0.69613445796E+03  0.69613445796E+03  0.00000000000E+00 0.  1.
          2   -1    0    0  501    0  0.00000000000E+00 -0.00000000000E+00 -0.33546650203E+03  0.33546650203E+03  0.00000000000E+00 0. -1.
         23    2    1    2    0    0 -0.40604065862E+03 -0.25168593986E+03  0.14638033725E+03  0.50802287384E+03  0.91897815156E+02 0.  0.
         11    1    3    3    0    0 -0.18854719389E+03 -0.10693270326E+03  0.19650373522E+02  0.21764830468E+03  0.00000000000E+00 0.  1.
        -11    1    3    3    0    0 -0.21749346473E+03 -0.14475323660E+03  0.12672996372E+03  0.29037456916E+03  0.00000000000E+00 0. -1.
         22    1    1    2    0    0  0.40604065862E+03  0.25168593986E+03  0.21428761868E+03  0.52357808615E+03  0.00000000000E+00 0. -1.
<mgrwt>
<rscale>  0 0.96649840E+03</rscale>
<asrwt>0</asrwt>
<pdfrwt beam="1">  1        2 0.51610231E-01 0.96649840E+03</pdfrwt>
<pdfrwt beam="2">  1       -2 0.10709761E+00 0.96649840E+03</pdfrwt>
<totfact> 0.67928173E+01</totfact>
</mgrwt>
</event>
<event>
 6    1  0.1614874E-005  0.1742078E+04  0.7818608E-02  0.8737723E-01
         -2   -1    0    0    0  501 -0.00000000000E+00  0.00000000000E+00  0.40252373825E+03  0.40252373825E+03  0.00000000000E+00 0.  1.
          2   -1    0    0  501    0  0.00000000000E+00 -0.00000000000E+00 -0.18848794222E+04  0.18848794222E+04  0.00000000000E+00 0. -1.
         23    2    1    2    0    0  0.82347746022E+03 -0.18438776059E+03 -0.10134465921E+04  0.13220070188E+04  0.92274531267E+02 0.  0.
         13    1    3    3    0    0  0.24492695080E+03 -0.12347308822E+02 -0.30065874398E+03  0.38799142722E+03  0.00000000000E+00 0.  1.
        -13    1    3    3    0    0  0.57855050942E+03 -0.17204045177E+03 -0.71278784811E+03  0.93401559163E+03  0.00000000000E+00 0. -1.
         22    1    1    2    0    0 -0.82347746022E+03  0.18438776059E+03 -0.46890909181E+03  0.96539614156E+03  0.00000000000E+00 0.  1.
<mgrwt>
<rscale>  0 0.17420777E+04</rscale>
<asrwt>0</asrwt>
<pdfrwt beam="1">  1        2 0.28998144E+00 0.17420777E+04</pdfrwt>
<pdfrwt beam="2">  1       -2 0.61926730E-01 0.17420777E+04</pdfrwt>
<totfact> 0.17780384E+01</totfact>
</mgrwt>
</event>
<event>
 6    1  0.1614874E-005  0.3488348E+04  0.7818608E-02  0.8116557E-01
         -1   -1    0    0    0  501 -0.00000000000E+00  0.00000000000E+00  0.19003710768E+04  0.19003710768E+04  0.00000000000E+00 0.  1.
          1   -1    0    0  501    0  0.00000000000E+00 -0.00000000000E+00 -0.16008155330E+04  0.16008155330E+04  0.00000000000E+00 0. -1.
         23    2    1    2    0    0  0.58069050537E+03  0.12790413517E+04 -0.88583323138E+03  0.16631727931E+04  0.91076800302E+02 0.  0.
         13    1    3    3    0    0  0.28653059352E+03  0.61206045887E+03 -0.37326928003E+03  0.77204128241E+03  0.00000000000E+00 0. -1.
        -13    1    3    3    0    0  0.29415991185E+03  0.66698089279E+03 -0.51256395135E+03  0.89113151067E+03  0.00000000000E+00 0.  1.
         22    1    1    2    0    0 -0.58069050537E+03 -0.12790413517E+04  0.11853887751E+04  0.18380138167E+04  0.00000000000E+00 0.  1.
<mgrwt>
<rscale>  0 0.34883483E+04</rscale>
<asrwt>0</asrwt>
<pdfrwt beam="1">  1        1 0.24627931E+00 0.34883483E+04</pdfrwt>
<pdfrwt beam="2">  1       -1 0.29236478E+00 0.34883483E+04</pdfrwt>
<totfact> 0.16842438E-01</totfact>
</mgrwt>
</event>
<event>
 6    1  0.1614874E-005  0.3487235E+04  0.7818608E-02  0.8116822E-01
         -2   -1    0    0    0  501 -0.00000000000E+00  0.00000000000E+00  0.19610902868E+04  0.19610902868E+04  0.00000000000E+00 0.  1.
          2   -1    0    0  501    0  0.00000000000E+00 -0.00000000000E+00 -0.15502607422E+04  0.15502607422E+04  0.00000000000E+00 0. -1.
         23    2    1    2    0    0 -0.12030623348E+04 -0.49424679626E+03  0.13730863452E+04  0.18934582554E+04  0.90438799560E+02 0.  0.
         13    1    3    3    0    0 -0.42927427842E+03 -0.16649606157E+03  0.42554222341E+03  0.62696373781E+03  0.00000000000E+00 0. -1.
        -13    1    3    3    0    0 -0.77378805640E+03 -0.32775073469E+03  0.94754412175E+03  0.12664945176E+04  0.00000000000E+00 0.  1.
         22    1    1    2    0    0  0.12030623348E+04  0.49424679626E+03 -0.96225680055E+03  0.16178927737E+04  0.00000000000E+00 0. -1.
<mgrwt>
<rscale>  0 0.34872346E+04</rscale>
<asrwt>0</asrwt>
<pdfrwt beam="1">  1        2 0.23850165E+00 0.34872346E+04</pdfrwt>
<pdfrwt beam="2">  1       -2 0.30170620E+00 0.34872346E+04</pdfrwt>
<totfact> 0.30348629E-01</totfact>
</mgrwt>
</event>
<event>
 6    1  0.1614874E-005  0.2395746E+04  0.7818608E-02  0.8441098E-01
          2   -1    0    0  501    0  0.00000000000E+00  0.00000000000E+00  0.21057365372E+04  0.21057365372E+04  0.00000000000E+00 0.  1.
         -2   -1    0    0    0  501 -0.00000000000E+00 -0.00000000000E+00 -0.68142437166E+03  0.68142437166E+03  0.00000000000E+00 0. -1.
         23    2    1    2    0    0  0.26331624363E+03  0.27202384544E+03  0.20331540534E+04  0.20702084272E+04  0.93354755586E+02 0.  0.
         13    1    3    3    0    0  0.22071356070E+03  0.23546259389E+03  0.15132651292E+04  0.15472971467E+04  0.00000000000E+00 0.  1.
        -13    1    3    3    0    0  0.42602682929E+02  0.36561251550E+02  0.51988892416E+03  0.52291128041E+03  0.00000000000E+00 0. -1.
         22    1    1    2    0    0 -0.26331624363E+03 -0.27202384544E+03 -0.60884188785E+03  0.71695248172E+03  0.00000000000E+00 0. -1.
<mgrwt>
<rscale>  0 0.23957464E+04</rscale>
<asrwt>0</asrwt>
<pdfrwt beam="1">  1        2 0.32395947E+00 0.23957464E+04</pdfrwt>
<pdfrwt beam="2">  1       -2 0.10483452E+00 0.23957464E+04</pdfrwt>
<totfact> 0.38710484E+00</totfact>
</mgrwt>
</event>
<event>
 6    1  0.1614874E-005  0.4351329E+04  0.7818608E-02  0.7937195E-01
         -1   -1    0    0    0  501 -0.00000000000E+00  0.00000000000E+00  0.35163477344E+04  0.35163477344E+04  0.00000000000E+00 0.  1.
          1   -1    0    0  501    0  0.00000000000E+00 -0.00000000000E+00 -0.13461453104E+04  0.13461453104E+04  0.00000000000E+00 0. -1.
         23    2    1    2    0    0 -0.21687182004E+04 -0.14462815818E+03  0.11657077988E+04  0.24680692333E+04  0.90747622831E+02 0.  0.
         13    1    3    3    0    0 -0.94508054712E+02 -0.21878122307E+02  0.40474794604E+02  0.10511248089E+03  0.00000000000E+00 0.  1.
        -13    1    3    3    0    0 -0.20742101457E+04 -0.12275003587E+03  0.11252330042E+04  0.23629567524E+04  0.00000000000E+00 0. -1.
         22    1    1    2    0    0  0.21687182004E+04  0.14462815818E+03  0.10044946252E+04  0.23944238115E+04  0.00000000000E+00 0. -1.
<mgrwt>
<rscale>  0 0.43513285E+04</rscale>
<asrwt>0</asrwt>
<pdfrwt beam="1">  1        1 0.20709928E+00 0.43513285E+04</pdfrwt>
<pdfrwt beam="2">  1       -1 0.54097657E+00 0.43513285E+04</pdfrwt>
<totfact> 0.53871981E-03</totfact>
</mgrwt>
</event>
<event>
 6    1  0.1614874E-005  0.2335182E+04  0.7818608E-02  0.8464177E-01
          2   -1    0    0  501    0  0.00000000000E+00  0.00000000000E+00  0.78795692577E+03  0.78795692577E+03  0.00000000000E+00 0. -1.
         -2   -1    0    0    0  501 -0.00000000000E+00 -0.00000000000E+00 -0.17301312506E+04  0.17301312506E+04  0.00000000000E+00 0.  1.
         23    2    1    2    0    0  0.10466353123E+04  0.49431969559E+03 -0.32186710681E+03  0.12048561013E+04  0.91007427970E+02 0.  0.
         13    1    3    3    0    0  0.48178396140E+03  0.21291927955E+03 -0.19149544487E+03  0.56046490566E+03  0.00000000000E+00 0. -1.
        -13    1    3    3    0    0  0.56485135089E+03  0.28140041604E+03 -0.13037166193E+03  0.64439119561E+03  0.00000000000E+00 0.  1.
         22    1    1    2    0    0 -0.10466353123E+04 -0.49431969559E+03 -0.62030721805E+03  0.13132320751E+04  0.00000000000E+00 0.  1.
<mgrwt>
<rscale>  0 0.23351821E+04</rscale>
<asrwt>0</asrwt>
<pdfrwt beam="1">  1        2 0.12122414E+00 0.23351821E+04</pdfrwt>
<pdfrwt beam="2">  1       -2 0.26617404E+00 0.23351821E+04</pdfrwt>
<totfact> 0.16250977E+00</totfact>
</mgrwt>
</event>
<event>
 6    1  0.1614874E-005  0.2891309E+04  0.7818608E-02  0.8275468E-01
          2   -1    0    0  501    0  0.00000000000E+00  0.00000000000E+00  0.14584130683E+04  0.14584130683E+04  0.00000000000E+00 0. -1.
         -2   -1    0    0    0  501 -0.00000000000E+00 -0.00000000000E+00 -0.14330077137E+04  0.14330077137E+04  0.00000000000E+00 0.  1.
         23    2    1    2    0    0 -0.11293309962E+04  0.88831187935E+03 -0.13339126721E+03  0.14458403239E+04  0.90413041892E+02 0.  0.
         13    1    3    3    0    0 -0.64448383740E+03  0.52348503080E+03 -0.34126364475E+02  0.83099976107E+03  0.00000000000E+00 0.  1.
        -13    1    3    3    0    0 -0.48484715876E+03  0.36482684855E+03 -0.99264902733E+02  0.61484056282E+03  0.00000000000E+00 0. -1.
         22    1    1    2    0    0  0.11293309962E+04 -0.88831187935E+03  0.15879662183E+03  0.14455804582E+04  0.00000000000E+00 0. -1.
<mgrwt>
<rscale>  0 0.28913092E+04</rscale>
<asrwt>0</asrwt>
<pdfrwt beam="1">  1        2 0.22437124E+00 0.28913092E+04</pdfrwt>
<pdfrwt beam="2">  1       -2 0.22046272E+00 0.28913092E+04</pdfrwt>
<totfact> 0.11363669E+00</totfact>
</mgrwt>
</event>
<event>
 6    1  0.1614874E-005  0.1002304E+04  0.7818608E-02  0.9306021E-01
          2   -1    0    0  501    0  0.00000000000E+00  0.00000000000E+00  0.14063018964E+04  0.14063018964E+04  0.00000000000E+00 0. -1.
         -2   -1    0    0    0  501 -0.00000000000E+00 -0.00000000000E+00 -0.17859135253E+03  0.17859135253E+03  0.00000000000E+00 0.  1.
         23    2    1    2    0    0 -0.27362098217E+03 -0.18775417902E+03  0.12038131159E+04  0.12521904375E+04  0.93245912193E+02 0.  0.
         13    1    3    3    0    0 -0.19439795203E+03 -0.12097268392E+03  0.96636860701E+03  0.99312297255E+03  0.00000000000E+00 0. -1.
        -13    1    3    3    0    0 -0.79223030142E+02 -0.66781495100E+02  0.23744450893E+03  0.25906746498E+03  0.00000000000E+00 0.  1.
         22    1    1    2    0    0  0.27362098217E+03  0.18775417902E+03  0.23897427910E+02  0.33270281136E+03  0.00000000000E+00 0.  1.
<mgrwt>
<rscale>  0 0.10023041E+04</rscale>
<asrwt>0</asrwt>
<pdfrwt beam="1">  1        2 0.21635413E+00 0.10023041E+04</pdfrwt>
<pdfrwt beam="2">  1       -2 0.27475594E-01 0.10023041E+04</pdfrwt>
<totfact> 0.17272338E+02</totfact>
</mgrwt>
</event>
<event>
 6    1  0.1614874E-005  0.3859169E+04  0.7818608E-02  0.8033575E-01
          2   -1    0    0  501    0  0.00000000000E+00  0.00000000000E+00  0.93826772722E+03  0.93826772722E+03  0.00000000000E+00 0. -1.
         -2   -1    0    0    0  501 -0.00000000000E+00 -0.00000000000E+00 -0.39682665896E+04  0.39682665896E+04  0.00000000000E+00 0.  1.
         23    2    1    2    0    0 -0.55074244660E+03 -0.33235824315E+03 -0.38273044113E+04  0.38820952593E+04  0.92872499882E+02 0.  0.
         13    1    3    3    0    0 -0.30521657632E+03 -0.13160173819E+03 -0.18909125220E+04  0.19199026908E+04  0.00000000000E+00 0. -1.
        -13    1    3    3    0    0 -0.24552587028E+03 -0.20075650496E+03 -0.19363918892E+04  0.19621925685E+04  0.00000000000E+00 0.  1.
         22    1    1    2    0    0  0.55074244660E+03  0.33235824315E+03  0.79730554891E+03  0.10244390575E+04  0.00000000000E+00 0. -1.
<mgrwt>
<rscale>  0 0.38591691E+04</rscale>
<asrwt>0</asrwt>
<pdfrwt beam="1">  1        2 0.14434888E+00 0.38591691E+04</pdfrwt>
<pdfrwt beam="2">  1       -2 0.61050257E+00 0.38591691E+04</pdfrwt>
<totfact> 0.10169918E-02</totfact>
</mgrwt>
</event>
<event>
 6    1  0.1614874E-005  0.3059706E+04  0.7818608E-02  0.8226884E-01
         -2   -1    0    0    0  501 -0.00000000000E+00  0.00000000000E+00  0.11363978345E+04  0.11363978345E+04  0.00000000000E+00 0. -1.
          2   -1    0    0  501    0  0.00000000000E+00 -0.00000000000E+00 -0.20595336104E+04  0.20595336104E+04  0.00000000000E+00 0.  1.
         23    2    1    2    0    0 -0.89358807036E+02  0.15189322737E+04 -0.61318403881E+03  0.16431242038E+04  0.93392908379E+02 0.  0.
         13    1    3    3    0    0 -0.10837537230E+03  0.12288429250E+04 -0.50351301857E+03  0.13324134176E+04  0.00000000000E+00 0.  1.
        -13    1    3    3    0    0  0.19016565261E+02  0.29008934875E+03 -0.10967102024E+03  0.31071078625E+03  0.00000000000E+00 0. -1.
         22    1    1    2    0    0  0.89358807036E+02 -0.15189322737E+04 -0.30995173703E+03  0.15528072410E+04  0.00000000000E+00 0. -1.
<mgrwt>
<rscale>  0 0.30597056E+04</rscale>
<asrwt>0</asrwt>
<pdfrwt beam="1">  1        2 0.31685132E+00 0.30597056E+04</pdfrwt>
<pdfrwt beam="2">  1       -2 0.17483044E+00 0.30597056E+04</pdfrwt>
<totfact> 0.10388799E+00</totfact>
</mgrwt>
</event>
<event>
 6    1  0.1614874E-005  0.2250195E+04  0.7818608E-02  0.8497822E-01
          2   -1    0    0  501    0  0.00000000000E+00  0.00000000000E+00  0.18412519041E+04  0.18412519041E+04  0.00000000000E+00 0. -1.
         -2   -1    0    0    0  501 -0.00000000000E+00 -0.00000000000E+00 -0.68749099291E+03  0.68749099291E+03  0.00000000000E+00 0.  1.
         23    2    1    2    0    0 -0.11181960790E+04  0.10578055596E+03  0.55561871611E+03  0.12562154581E+04  0.88391868128E+02 0.  0.
         13    1    3    3    0    0 -0.66249475358E+03  0.21410974554E+02  0.31101734361E+03  0.73218134118E+03  0.00000000000E+00 0. -1.
        -13    1    3    3    0    0 -0.45570132544E+03  0.84369581404E+02  0.24460137250E+03  0.52403411693E+03  0.00000000000E+00 0.  1.
         22    1    1    2    0    0  0.11181960790E+04 -0.10578055596E+03  0.59814219505E+03  0.12725274389E+04  0.00000000000E+00 0.  1.
<mgrwt>
<rscale>  0 0.22501947E+04</rscale>
<asrwt>0</asrwt>
<pdfrwt beam="1">  1        2 0.28326952E+00 0.22501947E+04</pdfrwt>
<pdfrwt beam="2">  1       -2 0.10576785E+00 0.22501947E+04</pdfrwt>
<totfact> 0.53822917E+00</totfact>
</mgrwt>
</event>
<event>
 6    1  0.1614874E-005  0.1015071E+04  0.7818608E-02  0.9292168E-01
         -2   -1    0    0    0  501 -0.00000000000E+00  0.00000000000E+00  0.47172696120E+03  0.47172696120E+03  0.00000000000E+00 0.  1.
          2   -1    0    0  501    0  0.00000000000E+00 -0.00000000000E+00 -0.54606254586E+03  0.54606254586E+03  0.00000000000E+00 0. -1.
         23    2    1    2    0    0  0.33007213411E+03 -0.48771115199E+01 -0.41790178285E+03  0.54133475320E+03  0.97108264216E+02 0.  0.
         13    1    3    3    0    0  0.15064329422E+03  0.97249649515E+01 -0.11822056023E+03  0.19173960963E+03  0.00000000000E+00 0. -1.
        -13    1    3    3    0    0  0.17942883988E+03 -0.14602076471E+02 -0.29968122262E+03  0.34959514357E+03  0.00000000000E+00 0.  1.
         22    1    1    2    0    0 -0.33007213411E+03  0.48771115199E+01  0.34356619820E+03  0.47645475386E+03  0.00000000000E+00 0.  1.
<mgrwt>
<rscale>  0 0.10150713E+04</rscale>
<asrwt>0</asrwt>
<pdfrwt beam="1">  1        2 0.84009622E-01 0.10150713E+04</pdfrwt>
<pdfrwt beam="2">  1       -2 0.72573379E-01 0.10150713E+04</pdfrwt>
<totfact> 0.95193020E+01</totfact>
</mgrwt>
</event>
<event>
 6    1  0.1614874E-005  0.2878643E+04  0.7818608E-02  0.8279260E-01
          1   -1    0    0  501    0  0.00000000000E+00  0.00000000000E+00  0.10911467337E+04  0.10911467337E+04  0.00000000000E+00 0. -1.
         -1   -1    0    0    0  501 -0.00000000000E+00 -0.00000000000E+00 -0.18985956236E+04  0.18985956236E+04  0.00000000000E+00 0.  1.
         23    2    1    2    0    0  0.84741936850E+03  0.75670053919E+03  0.51066607302E+03  0.12495865173E+04  0.99856566953E+02 0.  0.
         13    1    3    3    0    0  0.59201229151E+03  0.51259256009E+03  0.40015451689E+03  0.87940509627E+03  0.00000000000E+00 0. -1.
        -13    1    3    3    0    0  0.25540707698E+03  0.24410797911E+03  0.11051155613E+03  0.37018142103E+03  0.00000000000E+00 0.  1.
         22    1    1    2    0    0 -0.84741936850E+03 -0.75670053919E+03 -0.13181149629E+04  0.17401558400E+04  0.00000000000E+00 0.  1.
<mgrwt>
<rscale>  0 0.28786430E+04</rscale>
<asrwt>0</asrwt>
<pdfrwt beam="1">  1        1 0.16786873E+00 0.28786430E+04</pdfrwt>
<pdfrwt beam="2">  1       -1 0.29209163E+00 0.28786430E+04</pdfrwt>
<totfact> 0.41142516E-01</totfact>
</mgrwt>
</event>
<event>
 6    1  0.1614874E-005  0.1640373E+04  0.7818608E-02  0.8796122E-01
          2   -1    0    0  501    0  0.00000000000E+00  0.00000000000E+00  0.21731670647E+04  0.21731670647E+04  0.00000000000E+00 0. -1.
         -2   -1    0    0    0  501 -0.00000000000E+00 -0.00000000000E+00 -0.30955086688E+03  0.30955086688E+03  0.00000000000E+00 0.  1.
         23    2    1    2    0    0  0.60104842331E+02  0.72358446658E+03  0.15037253151E+04  0.16723423891E+04  0.91390212256E+02 0.  0.
         11    1    3    3    0    0 -0.13196104026E+02  0.59253258528E+02  0.17015112032E+03  0.18065572106E+03  0.00000000000E+00 0. -1.
        -11    1    3    3    0    0  0.73300946357E+02  0.66433120805E+03  0.13335741948E+04  0.14916866680E+04  0.00000000000E+00 0.  1.
         22    1    1    2    0    0 -0.60104842331E+02 -0.72358446658E+03  0.35989088275E+03  0.81037554247E+03  0.00000000000E+00 0.  1.
<mgrwt>
<rscale>  0 0.16403728E+04</rscale>
<asrwt>0</asrwt>
<pdfrwt beam="1">  1        2 0.33433339E+00 0.16403728E+04</pdfrwt>
<pdfrwt beam="2">  1       -2 0.47623212E-01 0.16403728E+04</pdfrwt>
<totfact> 0.21367461E+01</totfact>
</mgrwt>
</event>
<event>
 6    1  0.1614874E-005  0.4491658E+04  0.7818608E-02  0.7912099E-01
          1   -1    0    0  501    0  0.00000000000E+00  0.00000000000E+00  0.13291070498E+04  0.13291070498E+04  0.00000000000E+00 0. -1.
         -1   -1    0    0    0  501 -0.00000000000E+00 -0.00000000000E+00 -0.37948398574E+04  0.37948398574E+04  0.00000000000E+00 0.  1.
         23    2    1    2    0    0 -0.12427454891E+04 -0.44334754831E+03 -0.33052708672E+04  0.35600423215E+04  0.90069008256E+02 0.  0.
         13    1    3    3    0    0 -0.46487488063E+03 -0.14629276722E+03 -0.13279569003E+04  0.14145599165E+04  0.00000000000E+00 0. -1.
        -13    1    3    3    0    0 -0.77787060849E+03 -0.29705478110E+03 -0.19773139669E+04  0.21454824050E+04  0.00000000000E+00 0.  1.
         22    1    1    2    0    0  0.12427454891E+04  0.44334754831E+03  0.83953805958E+03  0.15639045856E+04  0.00000000000E+00 0. -1.
<mgrwt>
<rscale>  0 0.44916582E+04</rscale>
<asrwt>0</asrwt>
<pdfrwt beam="1">  1        1 0.20447801E+00 0.44916582E+04</pdfrwt>
<pdfrwt beam="2">  1       -1 0.58382150E+00 0.44916582E+04</pdfrwt>
<totfact> 0.33571827E-03</totfact>
</mgrwt>
</event>
<event>
 6    1  0.1614874E-005  0.2673948E+04  0.7818608E-02  0.8343508E-01
         -2   -1    0    0    0  501 -0.00000000000E+00  0.00000000000E+00  0.81544335788E+03  0.81544335788E+03  0.00000000000E+00 0.  1.
          2   -1    0    0  501    0  0.00000000000E+00 -0.00000000000E+00 -0.21920581510E+04  0.21920581510E+04  0.00000000000E+00 0. -1.
         23    2    1    2    0    0  0.85424513353E+02 -0.43471505533E+03  0.72764894029E+03  0.85710610650E+03  0.94251634856E+02 0.  0.
         11    1    3    3    0    0  0.43498393678E+02 -0.99355562022E+02  0.11969279164E+03  0.16152399923E+03  0.00000000000E+00 0. -1.
        -11    1    3    3    0    0  0.41926119675E+02 -0.33535949331E+03  0.60795614865E+03  0.69558210726E+03  0.00000000000E+00 0.  1.
         22    1    1    2    0    0 -0.85424513353E+02  0.43471505533E+03 -0.21042637334E+04  0.21503954023E+04  0.00000000000E+00 0. -1.
<mgrwt>
<rscale>  0 0.26739478E+04</rscale>
<asrwt>0</asrwt>
<pdfrwt beam="1">  1        2 0.33723971E+00 0.26739478E+04</pdfrwt>
<pdfrwt beam="2">  1       -2 0.12545282E+00 0.26739478E+04</pdfrwt>
<totfact> 0.21792476E+00</totfact>
</mgrwt>
</event>
<event>
 6    1  0.1614874E-005  0.1633718E+04  0.7818608E-02  0.8800098E-01
         -1   -1    0    0    0  501 -0.00000000000E+00  0.00000000000E+00  0.13405647803E+04  0.13405647803E+04  0.00000000000E+00 0.  1.
          1   -1    0    0  501    0  0.00000000000E+00 -0.00000000000E+00 -0.49774418199E+03  0.49774418199E+03  0.00000000000E+00 0. -1.
         23    2    1    2    0    0  0.52504091398E+03 -0.47192277781E+03 -0.33702400337E+02  0.71284388656E+03  0.92905786961E+02 0.  0.
         13    1    3    3    0    0  0.23607237327E+03 -0.16553919203E+03  0.15950359078E+02  0.28876946424E+03  0.00000000000E+00 0.  1.
        -13    1    3    3    0    0  0.28896854071E+03 -0.30638358577E+03 -0.49652759415E+02  0.42407442232E+03  0.00000000000E+00 0. -1.
         22    1    1    2    0    0 -0.52504091398E+03  0.47192277781E+03  0.87652299869E+03  0.11254650758E+04  0.00000000000E+00 0.  1.
<mgrwt>
<rscale>  0 0.16337176E+04</rscale>
<asrwt>0</asrwt>
<pdfrwt beam="1">  1        1 0.76576029E-01 0.16337176E+04</pdfrwt>
<pdfrwt beam="2">  1       -1 0.20624073E+00 0.16337176E+04</pdfrwt>
<totfact> 0.58185599E+00</totfact>
</mgrwt>
</event>
<event>
 6    1  0.1614874E-005  0.2258289E+04  0.7818608E-02  0.8494551E-01
         -1   -1    0    0    0  501 -0.00000000000E+00  0.00000000000E+00  0.82033093642E+03  0.82033093642E+03  0.00000000000E+00 0.  1.
          1   -1    0    0  501    0  0.00000000000E+00 -0.00000000000E+00 -0.15542114407E+04  0.15542114407E+04  0.00000000000E+00 0. -1.
         23    2    1    2    0    0  0.10370726969E+03 -0.21976392911E+03 -0.15250771563E+04  0.15468688155E+04  0.88833648477E+02 0.  0.
         11    1    3    3    0    0  0.56772239759E+02 -0.35843795763E+02 -0.32378222442E+03  0.33067021902E+03  0.00000000000E+00 0. -1.
        -11    1    3    3    0    0  0.46935029936E+02 -0.18392013335E+03 -0.12012949319E+04  0.12161985964E+04  0.00000000000E+00 0.  1.
         22    1    1    2    0    0 -0.10370726969E+03  0.21976392911E+03  0.79119665210E+03  0.82767356163E+03  0.00000000000E+00 0.  1.
<mgrwt>
<rscale>  0 0.22582894E+04</rscale>
<asrwt>0</asrwt>
<pdfrwt beam="1">  1        1 0.23910945E+00 0.22582894E+04</pdfrwt>
<pdfrwt beam="2">  1       -1 0.12620476E+00 0.22582894E+04</pdfrwt>
<totfact> 0.29740199E+00</totfact>
</mgrwt>
</event>
<event>
 6    1  0.1614874E-005  0.5014800E+03  0.7818608E-02  0.1013393E+00
         -2   -1    0    0    0  501 -0.00000000000E+00  0.00000000000E+00  0.86574412092E+02  0.86574412092E+02  0.00000000000E+00 0.  1.
          2   -1    0    0  501    0  0.00000000000E+00 -0.00000000000E+00 -0.72620241331E+03  0.72620241331E+03  0.00000000000E+00 0. -1.
         23    2    1    2    0    0 -0.19222147990E+03  0.14765884921E+03 -0.35088753911E+03  0.43578440168E+03  0.89631169579E+02 0.  0.
         13    1    3    3    0    0 -0.10211359946E+03  0.89558261746E+02 -0.12009002828E+03  0.18129943280E+03  0.00000000000E+00 0. -1.
        -13    1    3    3    0    0 -0.90107880447E+02  0.58100587460E+02 -0.23079751083E+03  0.25448496888E+03  0.00000000000E+00 0.  1.
         22    1    1    2    0    0  0.19222147990E+03 -0.14765884921E+03 -0.28874046211E+03  0.37699242372E+03  0.00000000000E+00 0.  1.
<mgrwt>
<rscale>  0 0.50148000E+03</rscale>
<asrwt>0</asrwt>
<pdfrwt beam="1">  1        2 0.11172345E+00 0.50148000E+03</pdfrwt>
<pdfrwt beam="2">  1       -2 0.13319141E-01 0.50148000E+03</pdfrwt>
<totfact> 0.16751638E+03</totfact>
</mgrwt>
</event>
<event>
 6    1  0.1614874E-005  0.3671186E+04  0.7818608E-02  0.8074378E-01
          2   -1    0    0  501    0  0.00000000000E+00  0.00000000000E+00  0.18303544853E+04  0.18303544853E+04  0.00000000000E+00 0. -1.
         -2   -1    0    0    0  501 -0.00000000000E+00 -0.00000000000E+00 -0.18408462019E+04  0.18408462019E+04  0.00000000000E+00 0.  1.
         23    2    1    2    0    0  0.85621968846E+03 -0.14200414351E+04 -0.79000937322E+03  0.18389131527E+04  0.88639387232E+02 0.  0.
         13    1    3    3    0    0  0.27829005606E+03 -0.40314560926E+03 -0.26322818711E+03  0.55611223332E+03  0.00000000000E+00 0.  1.
        -13    1    3    3    0    0  0.57792963240E+03 -0.10168958259E+04 -0.52678118611E+03  0.12828009194E+04  0.00000000000E+00 0. -1.
         22    1    1    2    0    0 -0.85621968846E+03  0.14200414351E+04  0.77951765655E+03  0.18322875345E+04  0.00000000000E+00 0. -1.
<mgrwt>
<rscale>  0 0.36711857E+04</rscale>
<asrwt>0</asrwt>
<pdfrwt beam="1">  1        2 0.28159300E+00 0.36711857E+04</pdfrwt>
<pdfrwt beam="2">  1       -2 0.28320711E+00 0.36711857E+04</pdfrwt>
<totfact> 0.27077032E-01</totfact>
</mgrwt>
</event>
<event>
 6    1  0.1614874E-005  0.1239895E+04  0.7818608E-02  0.9078636E-01
         -2   -1    0    0    0  501 -0.00000000000E+00  0.00000000000E+00  0.16222630987E+04  0.16222630987E+04  0.00000000000E+00 0.  1.
          2   -1    0    0  501    0  0.00000000000E+00 -0.00000000000E+00 -0.23691268811E+03  0.23691268811E+03  0.00000000000E+00 0. -1.
         23    2    1    2    0    0  0.50823330730E+03  0.33887601685E+03  0.82259987023E+03  0.10286180103E+04  0.90809774508E+02 0.  0.
         13    1    3    3    0    0  0.25520441928E+03  0.21691474878E+03  0.40875726196E+03  0.52845416363E+03  0.00000000000E+00 0. -1.
        -13    1    3    3    0    0  0.25302888802E+03  0.12196126808E+03  0.41384260827E+03  0.50016384666E+03  0.00000000000E+00 0.  1.
         22    1    1    2    0    0 -0.50823330730E+03 -0.33887601685E+03  0.56275054036E+03  0.83055777651E+03  0.00000000000E+00 0.  1.
<mgrwt>
<rscale>  0 0.12398947E+04</rscale>
<asrwt>0</asrwt>
<pdfrwt beam="1">  1        2 0.36448107E-01 0.12398947E+04</pdfrwt>
<pdfrwt beam="2">  1       -2 0.24957893E+00 0.12398947E+04</pdfrwt>
<totfact> 0.91166522E+00</totfact>
</mgrwt>
</event>
<event>
 6    1  0.1614874E-005  0.1828193E+04  0.7818608E-02  0.8691449E-01
         -2   -1    0    0    0  501 -0.00000000000E+00  0.00000000000E+00  0.81862088102E+03  0.81862088102E+03  0.00000000000E+00 0.  1.
          2   -1    0    0  501    0  0.00000000000E+00 -0.00000000000E+00 -0.10207071403E+04  0.10207071403E+04  0.00000000000E+00 0. -1.
         23    2    1    2    0    0  0.83739301127E+03  0.35281617275E+03 -0.21992806140E+02  0.91296958157E+03  0.85577253272E+02 0.  0.
         11    1    3    3    0    0  0.65782853186E+03  0.25134179911E+03 -0.43777460429E+02  0.70556895011E+03  0.00000000000E+00 0.  1.
        -11    1    3    3    0    0  0.17956447941E+03  0.10147437363E+03  0.21784654289E+02  0.20740063146E+03  0.00000000000E+00 0. -1.
         22    1    1    2    0    0 -0.83739301127E+03 -0.35281617275E+03 -0.18009345316E+03  0.92635843978E+03  0.00000000000E+00 0.  1.
<mgrwt>
<rscale>  0 0.18281927E+04</rscale>
<asrwt>0</asrwt>
<pdfrwt beam="1">  1        2 0.15703187E+00 0.18281927E+04</pdfrwt>
<pdfrwt beam="2">  1       -2 0.12594167E+00 0.18281927E+04</pdfrwt>
<totfact> 0.10828270E+01</totfact>
</mgrwt>
</event>
<event>
 6    1  0.1614874E-005  0.2007097E+04  0.7818608E-02  0.8603310E-01
         -1   -1    0    0    0  501 -0.00000000000E+00  0.00000000000E+00  0.39581277377E+03  0.39581277377E+03  0.00000000000E+00 0.  1.
          1   -1    0    0  501    0  0.00000000000E+00 -0.00000000000E+00 -0.25444102844E+04  0.25444102844E+04  0.00000000000E+00 0. -1.
         23    2    1    2    0    0 -0.34747284087E+03  0.49910234014E+03 -0.22411454182E+04  0.23250762170E+04  0.11578474893E+03 0.  0.
         11    1    3    3    0    0 -0.16725847625E+03  0.33884064876E+03 -0.13791182562E+04  0.14299494913E+04  0.00000000000E+00 0. -1.
        -11    1    3    3    0    0 -0.18021436462E+03  0.16026169138E+03 -0.86202716197E+03  0.89512672562E+03  0.00000000000E+00 0.  1.
         22    1    1    2    0    0  0.34747284087E+03 -0.49910234014E+03  0.92547907547E+02  0.61514684122E+03  0.00000000000E+00 0.  1.
<mgrwt>
<rscale>  0 0.20070975E+04</rscale>
<asrwt>0</asrwt>
<pdfrwt beam="1">  1        1 0.39144773E+00 0.20070975E+04</pdfrwt>
<pdfrwt beam="2">  1       -1 0.60894274E-01 0.20070975E+04</pdfrwt>
<totfact> 0.32009573E+00</totfact>
</mgrwt>
</event>
<event>
 6    1  0.1614874E-005  0.2139325E+04  0.7818608E-02  0.8544115E-01
         -1   -1    0    0    0  501 -0.00000000000E+00  0.00000000000E+00  0.13192372879E+04  0.13192372879E+04  0.00000000000E+00 0.  1.
          1   -1    0    0  501    0  0.00000000000E+00 -0.00000000000E+00 -0.86730281073E+03  0.86730281073E+03  0.00000000000E+00 0. -1.
         23    2    1    2    0    0 -0.39408315925E+03 -0.94545087282E+03 -0.81431041482E+02  0.10316991287E+04  0.92699451972E+02 0.  0.
         13    1    3    3    0    0 -0.27932382309E+03 -0.75003957089E+03 -0.86511951383E+02  0.80502513860E+03  0.00000000000E+00 0.  1.
        -13    1    3    3    0    0 -0.11475933616E+03 -0.19541130192E+03  0.50809099010E+01  0.22667399013E+03  0.00000000000E+00 0. -1.
         22    1    1    2    0    0  0.39408315925E+03  0.94545087282E+03  0.53336551868E+03  0.11548409699E+04  0.00000000000E+00 0. -1.
<mgrwt>
<rscale>  0 0.21393253E+04</rscale>
<asrwt>0</asrwt>
<pdfrwt beam="1">  1        1 0.13343120E+00 0.21393253E+04</pdfrwt>
<pdfrwt beam="2">  1       -1 0.20295958E+00 0.21393253E+04</pdfrwt>
<totfact> 0.25490371E+00</totfact>
</mgrwt>
</event>
<event>
 6    1  0.1614874E-005  0.9466435E+03  0.7818608E-02  0.9369082E-01
         -2   -1    0    0    0  501 -0.00000000000E+00  0.00000000000E+00  0.10545073892E+03  0.10545073892E+03  0.00000000000E+00 0. -1.
          2   -1    0    0  501    0  0.00000000000E+00 -0.00000000000E+00 -0.21245322066E+04  0.21245322066E+04  0.00000000000E+00 0.  1.
         23    2    1    2    0    0 -0.24704979812E+03  0.39685669452E+03 -0.11094359541E+04  0.12072494518E+04  0.89856908355E+02 0.  0.
         13    1    3    3    0    0 -0.12441107183E+03  0.27628894471E+03 -0.74543891188E+03  0.80466941480E+03  0.00000000000E+00 0. -1.
        -13    1    3    3    0    0 -0.12263872629E+03  0.12056774981E+03 -0.36399704221E+03  0.40258003704E+03  0.00000000000E+00 0.  1.
         22    1    1    2    0    0  0.24704979812E+03 -0.39685669452E+03 -0.90964551359E+03  0.10227334937E+04  0.00000000000E+00 0. -1.
<mgrwt>
<rscale>  0 0.94664353E+03</rscale>
<asrwt>0</asrwt>
<pdfrwt beam="1">  1        2 0.32685109E+00 0.94664353E+03</pdfrwt>
<pdfrwt beam="2">  1       -2 0.16223191E-01 0.94664353E+03</pdfrwt>
<totfact> 0.17635312E+02</totfact>
</mgrwt>
</event>
<event>
 6    1  0.1614874E-005  0.1255793E+04  0.7818608E-02  0.9065375E-01
          4   -1    0    0  501    0  0.00000000000E+00  0.00000000000E+00  0.14377573040E+04  0.14377573040E+04  0.00000000000E+00 0. -1.
         -4   -1    0    0    0  501 -0.00000000000E+00 -0.00000000000E+00 -0.27421473381E+03  0.27421473381E+03  0.00000000000E+00 0.  1.
         23    2    1    2    0    0  0.31579626249E+03 -0.52488320846E+03  0.75151437787E+03  0.97373298899E+03  0.90290707049E+02 0.  0.
         11    1    3    3    0    0  0.25296946010E+03 -0.35637628832E+03  0.49305750045E+03  0.65886516479E+03  0.00000000000E+00 0. -1.
        -11    1    3    3    0    0  0.62826802390E+02 -0.16850692014E+03  0.25845687742E+03  0.31486782421E+03  0.00000000000E+00 0.  1.
         22    1    1    2    0    0 -0.31579626249E+03  0.52488320846E+03  0.41202819233E+03  0.73823904882E+03  0.00000000000E+00 0.  1.
<mgrwt>
<rscale>  0 0.12557934E+04</rscale>
<asrwt>0</asrwt>
<pdfrwt beam="1">  1        4 0.22119343E+00 0.12557934E+04</pdfrwt>
<pdfrwt beam="2">  1       -4 0.42186883E-01 0.12557934E+04</pdfrwt>
<totfact> 0.10328994E+00</totfact>
</mgrwt>
</event>
<event>
 6    1  0.1614874E-005  0.2124239E+04  0.7818608E-02  0.8550641E-01
          1   -1    0    0  501    0  0.00000000000E+00  0.00000000000E+00  0.11251636872E+04  0.11251636872E+04  0.00000000000E+00 0. -1.
         -1   -1    0    0    0  501 -0.00000000000E+00 -0.00000000000E+00 -0.10026075780E+04  0.10026075780E+04  0.00000000000E+00 0.  1.
         23    2    1    2    0    0  0.96406975870E+03  0.42820220928E+03  0.16703827213E+03  0.10719463297E+04  0.91539705270E+02 0.  0.
         11    1    3    3    0    0  0.40900318349E+03  0.20086687713E+03  0.29859008022E+02  0.45664282190E+03  0.00000000000E+00 0. -1.
        -11    1    3    3    0    0  0.55506657522E+03  0.22733533215E+03  0.13717926410E+03  0.61530350777E+03  0.00000000000E+00 0.  1.
         22    1    1    2    0    0 -0.96406975870E+03 -0.42820220928E+03 -0.44482162979E+02  0.10558249355E+04  0.00000000000E+00 0. -1.
<mgrwt>
<rscale>  0 0.21242388E+04</rscale>
<asrwt>0</asrwt>
<pdfrwt beam="1">  1        1 0.17310211E+00 0.21242388E+04</pdfrwt>
<pdfrwt beam="2">  1       -1 0.15424732E+00 0.21242388E+04</pdfrwt>
<totfact> 0.36031731E+00</totfact>
</mgrwt>
</event>
<event>
 6    1  0.1614874E-005  0.1805990E+04  0.7818608E-02  0.8703121E-01
         -2   -1    0    0    0  501 -0.00000000000E+00  0.00000000000E+00  0.22514318112E+03  0.22514318112E+03  0.00000000000E+00 0.  1.
          2   -1    0    0  501    0  0.00000000000E+00 -0.00000000000E+00 -0.36216936829E+04  0.36216936829E+04  0.00000000000E+00 0. -1.
         23    2    1    2    0    0 -0.47962158833E+03  0.62459397984E+03 -0.77002597295E+03  0.11047964544E+04  0.86491033645E+02 0.  0.
         11    1    3    3    0    0 -0.20282463276E+03  0.19878050344E+03 -0.29246544603E+03  0.40766108145E+03  0.00000000000E+00 0. -1.
        -11    1    3    3    0    0 -0.27679695556E+03  0.42581347640E+03 -0.47756052692E+03  0.69713537291E+03  0.00000000000E+00 0.  1.
         22    1    1    2    0    0  0.47962158833E+03 -0.62459397984E+03 -0.26265245288E+04  0.27420404096E+04  0.00000000000E+00 0.  1.
<mgrwt>
<rscale>  0 0.18059896E+04</rscale>
<asrwt>0</asrwt>
<pdfrwt beam="1">  1        2 0.55718369E+00 0.18059896E+04</pdfrwt>
<pdfrwt beam="2">  1       -2 0.34637410E-01 0.18059896E+04</pdfrwt>
<totfact> 0.49580000E+00</totfact>
</mgrwt>
</event>
<event>
 6    1  0.1614874E-005  0.2186071E+04  0.7818608E-02  0.8524248E-01
         -2   -1    0    0    0  501 -0.00000000000E+00  0.00000000000E+00  0.11263797216E+04  0.11263797216E+04  0.00000000000E+00 0. -1.
          2   -1    0    0  501    0  0.00000000000E+00 -0.00000000000E+00 -0.10606787322E+04  0.10606787322E+04  0.00000000000E+00 0.  1.
         23    2    1    2    0    0 -0.87295831353E+03 -0.25671292184E+03  0.63488726172E+03  0.11137780831E+04  0.97273027128E+02 0.  0.
         13    1    3    3    0    0 -0.74616594173E+02 -0.38118221205E+02  0.89084247754E+02  0.12229733485E+03  0.00000000000E+00 0. -1.
        -13    1    3    3    0    0 -0.79834171936E+03 -0.21859470064E+03  0.54580301397E+03  0.99148074821E+03  0.00000000000E+00 0.  1.
         22    1    1    2    0    0  0.87295831353E+03  0.25671292184E+03 -0.56918627232E+03  0.10732803706E+04  0.00000000000E+00 0.  1.
<mgrwt>
<rscale>  0 0.21860714E+04</rscale>
<asrwt>0</asrwt>
<pdfrwt beam="1">  1        2 0.16318134E+00 0.21860714E+04</pdfrwt>
<pdfrwt beam="2">  1       -2 0.17328919E+00 0.21860714E+04</pdfrwt>
<totfact> 0.42602512E+00</totfact>
</mgrwt>
</event>
<event>
 6    1  0.1614874E-005  0.2719576E+04  0.7818608E-02  0.8328681E-01
         -2   -1    0    0    0  501 -0.00000000000E+00  0.00000000000E+00  0.90948618148E+03  0.90948618148E+03  0.00000000000E+00 0.  1.
          2   -1    0    0  501    0  0.00000000000E+00 -0.00000000000E+00 -0.20330417752E+04  0.20330417752E+04  0.00000000000E+00 0. -1.
         23    2    1    2    0    0  0.10905519330E+04 -0.51710075445E+02  0.31175360037E+03  0.11391727690E+04  0.92449120203E+02 0.  0.
         13    1    3    3    0    0  0.45446337747E+03 -0.36242335121E+02  0.17517843193E+03  0.48840347186E+03  0.00000000000E+00 0.  1.
        -13    1    3    3    0    0  0.63608855550E+03 -0.15467740324E+02  0.13657516844E+03  0.65076929711E+03  0.00000000000E+00 0. -1.
         22    1    1    2    0    0 -0.10905519330E+04  0.51710075445E+02 -0.14353091941E+04  0.18033551877E+04  0.00000000000E+00 0. -1.
<mgrwt>
<rscale>  0 0.27195760E+04</rscale>
<asrwt>0</asrwt>
<pdfrwt beam="1">  1        2 0.31277565E+00 0.27195760E+04</pdfrwt>
<pdfrwt beam="2">  1       -2 0.13992095E+00 0.27195760E+04</pdfrwt>
<totfact> 0.20176638E+00</totfact>
</mgrwt>
</event>
<event>
 6    1  0.1614874E-005  0.1380141E+04  0.7818608E-02  0.8968320E-01
         -1   -1    0    0    0  501 -0.00000000000E+00  0.00000000000E+00  0.19891350206E+03  0.19891350206E+03  0.00000000000E+00 0.  1.
          1   -1    0    0  501    0  0.00000000000E+00 -0.00000000000E+00 -0.23939928167E+04  0.23939928167E+04  0.00000000000E+00 0. -1.
         23    2    1    2    0    0 -0.51835009249E+03 -0.42383189189E+03 -0.81591098077E+03  0.10597965431E+04  0.95591282658E+02 0.  0.
         11    1    3    3    0    0 -0.10791124127E+03 -0.12812832393E+03 -0.24775095247E+03  0.29906895164E+03  0.00000000000E+00 0. -1.
        -11    1    3    3    0    0 -0.41043885121E+03 -0.29570356797E+03 -0.56816002830E+03  0.76072759149E+03  0.00000000000E+00 0.  1.
         22    1    1    2    0    0  0.51835009249E+03  0.42383189189E+03 -0.13791683339E+04  0.15331097756E+04  0.00000000000E+00 0. -1.
<mgrwt>
<rscale>  0 0.13801413E+04</rscale>
<asrwt>0</asrwt>
<pdfrwt beam="1">  1        1 0.36830659E+00 0.13801413E+04</pdfrwt>
<pdfrwt beam="2">  1       -1 0.30602077E-01 0.13801413E+04</pdfrwt>
<totfact> 0.15479526E+01</totfact>
</mgrwt>
</event>
<event>
 6    1  0.1614874E-005  0.1382872E+04  0.7818608E-02  0.8966311E-01
         -1   -1    0    0    0  501 -0.00000000000E+00  0.00000000000E+00  0.77963292259E+03  0.77963292259E+03  0.00000000000E+00 0.  1.
          1   -1    0    0  501    0  0.00000000000E+00 -0.00000000000E+00 -0.61321621246E+03  0.61321621246E+03  0.00000000000E+00 0. -1.
         23    2    1    2    0    0 -0.44106993103E+03  0.16175182083E+03  0.59047865332E+03  0.75997089457E+03  0.90467590753E+02 0.  0.
         11    1    3    3    0    0 -0.24281371177E+03  0.87531139659E+02  0.25188768239E+03  0.36064886465E+03  0.00000000000E+00 0.  1.
        -11    1    3    3    0    0 -0.19825621926E+03  0.74220681175E+02  0.33859097093E+03  0.39932202993E+03  0.00000000000E+00 0. -1.
         22    1    1    2    0    0  0.44106993103E+03 -0.16175182083E+03 -0.42406194319E+03  0.63287824047E+03  0.00000000000E+00 0. -1.
<mgrwt>
<rscale>  0 0.13828717E+04</rscale>
<asrwt>0</asrwt>
<pdfrwt beam="1">  1        1 0.94340956E-01 0.13828717E+04</pdfrwt>
<pdfrwt beam="2">  1       -1 0.11994353E+00 0.13828717E+04</pdfrwt>
<totfact> 0.20086679E+01</totfact>
</mgrwt>
</event>
<event>
 6    1  0.1614874E-005  0.2882309E+04  0.7818608E-02  0.8278161E-01
         -1   -1    0    0    0  501 -0.00000000000E+00  0.00000000000E+00  0.19867863293E+04  0.19867863293E+04  0.00000000000E+00 0.  1.
          1   -1    0    0  501    0  0.00000000000E+00 -0.00000000000E+00 -0.10453693969E+04  0.10453693969E+04  0.00000000000E+00 0. -1.
         23    2    1    2    0    0  0.57989236764E+03  0.78336574795E+03 -0.64350273542E+03  0.11715355591E+04  0.91993166054E+02 0.  0.
         11    1    3    3    0    0  0.42667613746E+03  0.61893354206E+03 -0.45943388093E+03  0.88102823264E+03  0.00000000000E+00 0.  1.
        -11    1    3    3    0    0  0.15321623018E+03  0.16443220589E+03 -0.18406885449E+03  0.29050732644E+03  0.00000000000E+00 0. -1.
         22    1    1    2    0    0 -0.57989236764E+03 -0.78336574795E+03  0.15849196678E+04  0.18606201672E+04  0.00000000000E+00 0.  1.
<mgrwt>
<rscale>  0 0.28823085E+04</rscale>
<asrwt>0</asrwt>
<pdfrwt beam="1">  1        1 0.16082606E+00 0.28823085E+04</pdfrwt>
<pdfrwt beam="2">  1       -1 0.30565943E+00 0.28823085E+04</pdfrwt>
<totfact> 0.36395914E-01</totfact>
</mgrwt>
</event>
<event>
 6    1  0.1614874E-005  0.1050829E+04  0.7818608E-02  0.9254489E-01
          1   -1    0    0  501    0  0.00000000000E+00  0.00000000000E+00  0.40914662223E+03  0.40914662223E+03  0.00000000000E+00 0. -1.
         -1   -1    0    0    0  501 -0.00000000000E+00 -0.00000000000E+00 -0.67472247768E+03  0.67472247768E+03  0.00000000000E+00 0.  1.
         23    2    1    2    0    0 -0.19576039915E+03  0.19152847249E+03  0.32384314884E+03  0.43393060108E+03  0.91739260167E+02 0.  0.
         11    1    3    3    0    0 -0.10440365210E+03  0.68204960535E+02  0.20445662253E+03  0.23948809931E+03  0.00000000000E+00 0. -1.
        -11    1    3    3    0    0 -0.91356747046E+02  0.12332351196E+03  0.11938652631E+03  0.19444250178E+03  0.00000000000E+00 0.  1.
         22    1    1    2    0    0  0.19576039915E+03 -0.19152847249E+03 -0.58941900428E+03  0.64993849883E+03  0.00000000000E+00 0.  1.
<mgrwt>
<rscale>  0 0.10508290E+04</rscale>
<asrwt>0</asrwt>
<pdfrwt beam="1">  1        1 0.62945635E-01 0.10508290E+04</pdfrwt>
<pdfrwt beam="2">  1       -1 0.10380346E+00 0.10508290E+04</pdfrwt>
<totfact> 0.50905582E+01</totfact>
</mgrwt>
</event>
<event>
 6    1  0.1614874E-005  0.1876793E+04  0.7818608E-02  0.8666495E-01
          2   -1    0    0  501    0  0.00000000000E+00  0.00000000000E+00  0.19868928440E+04  0.19868928440E+04  0.00000000000E+00 0.  1.
         -2   -1    0    0    0  501 -0.00000000000E+00 -0.00000000000E+00 -0.44319863909E+03  0.44319863909E+03  0.00000000000E+00 0. -1.
         23    2    1    2    0    0 -0.38650251339E+03  0.13461568976E+03 -0.31667535224E+03  0.52523441077E+03  0.89901783947E+02 0.  0.
         11    1    3    3    0    0 -0.19246824888E+03  0.42707245921E+02 -0.20018960259E+03  0.28096941589E+03  0.00000000000E+00 0. -1.
        -11    1    3    3    0    0 -0.19403426451E+03  0.91908443837E+02 -0.11648574965E+03  0.24426499488E+03  0.00000000000E+00 0.  1.
         22    1    1    2    0    0  0.38650251339E+03 -0.13461568976E+03  0.18603695572E+04  0.19048570723E+04  0.00000000000E+00 0.  1.
<mgrwt>
<rscale>  0 0.18767932E+04</rscale>
<asrwt>0</asrwt>
<pdfrwt beam="1">  1        2 0.30567582E+00 0.18767932E+04</pdfrwt>
<pdfrwt beam="2">  1       -2 0.68184407E-01 0.18767932E+04</pdfrwt>
<totfact> 0.12549080E+01</totfact>
</mgrwt>
</event>
<event>
 6    1  0.1614874E-005  0.2817748E+04  0.7818608E-02  0.8297779E-01
          1   -1    0    0  501    0  0.00000000000E+00  0.00000000000E+00  0.30094876615E+04  0.30094876615E+04  0.00000000000E+00 0. -1.
         -1   -1    0    0    0  501 -0.00000000000E+00 -0.00000000000E+00 -0.65955621163E+03  0.65955621163E+03  0.00000000000E+00 0.  1.
         23    2    1    2    0    0  0.53556245507E+03  0.45280586269E+03 -0.41086336980E+03  0.82056211457E+03  0.11248636649E+03 0.  0.
         11    1    3    3    0    0  0.30572645256E+03  0.30037640115E+03 -0.19769554998E+03  0.47199383115E+03  0.00000000000E+00 0. -1.
        -11    1    3    3    0    0  0.22983600251E+03  0.15242946154E+03 -0.21316781982E+03  0.34856828342E+03  0.00000000000E+00 0.  1.
         22    1    1    2    0    0 -0.53556245507E+03 -0.45280586269E+03  0.27607948197E+04  0.28484817586E+04  0.00000000000E+00 0. -1.
<mgrwt>
<rscale>  0 0.28177482E+04</rscale>
<asrwt>0</asrwt>
<pdfrwt beam="1">  1        1 0.46299809E+00 0.28177482E+04</pdfrwt>
<pdfrwt beam="2">  1       -1 0.10147019E+00 0.28177482E+04</pdfrwt>
<totfact> 0.46838729E-01</totfact>
</mgrwt>
</event>
<event>
 6    1  0.1614874E-005  0.4571314E+04  0.7818608E-02  0.7898269E-01
         -2   -1    0    0    0  501 -0.00000000000E+00  0.00000000000E+00  0.22145304293E+04  0.22145304293E+04  0.00000000000E+00 0.  1.
          2   -1    0    0  501    0  0.00000000000E+00 -0.00000000000E+00 -0.23590683913E+04  0.23590683913E+04  0.00000000000E+00 0. -1.
         23    2    1    2    0    0  0.91235425457E+03  0.45614393590E+03  0.19731228284E+04  0.22230787081E+04  0.91693349239E+02 0.  0.
         11    1    3    3    0    0  0.56396989864E+03  0.29920335917E+03  0.11422583531E+04  0.13085636561E+04  0.00000000000E+00 0. -1.
        -11    1    3    3    0    0  0.34838435593E+03  0.15694057673E+03  0.83086447530E+03  0.91451505203E+03  0.00000000000E+00 0.  1.
         22    1    1    2    0    0 -0.91235425457E+03 -0.45614393590E+03 -0.21176607904E+04  0.23505201125E+04  0.00000000000E+00 0. -1.
<mgrwt>
<rscale>  0 0.45713144E+04</rscale>
<asrwt>0</asrwt>
<pdfrwt beam="1">  1        2 0.36293360E+00 0.45713144E+04</pdfrwt>
<pdfrwt beam="2">  1       -2 0.34069699E+00 0.45713144E+04</pdfrwt>
<totfact> 0.56268551E-02</totfact>
</mgrwt>
</event>
<event>
 6    1  0.1614874E-005  0.1664864E+04  0.7818608E-02  0.8781662E-01
         -2   -1    0    0    0  501 -0.00000000000E+00  0.00000000000E+00  0.30696074300E+03  0.30696074300E+03  0.00000000000E+00 0.  1.
          2   -1    0    0  501    0  0.00000000000E+00 -0.00000000000E+00 -0.22574309755E+04  0.22574309755E+04  0.00000000000E+00 0. -1.
         23    2    1    2    0    0 -0.10346923580E+03 -0.71425501841E+03 -0.34670491729E+03  0.80571912239E+03  0.90071584963E+02 0.  0.
         11    1    3    3    0    0 -0.11611778809E+03 -0.53012074770E+03 -0.26290624641E+03  0.60301827689E+03  0.00000000000E+00 0. -1.
        -11    1    3    3    0    0  0.12648552289E+02 -0.18413427071E+03 -0.83798670880E+02  0.20270084550E+03  0.00000000000E+00 0.  1.
         22    1    1    2    0    0  0.10346923580E+03  0.71425501841E+03 -0.16037653152E+04  0.17586725961E+04  0.00000000000E+00 0. -1.
<mgrwt>
<rscale>  0 0.16648636E+04</rscale>
<asrwt>0</asrwt>
<pdfrwt beam="1">  1        2 0.34729707E+00 0.16648636E+04</pdfrwt>
<pdfrwt beam="2">  1       -2 0.47224730E-01 0.16648636E+04</pdfrwt>
<totfact> 0.19449232E+01</totfact>
</mgrwt>
</event>
<event>
 6    1  0.1614874E-005  0.2813483E+04  0.7818608E-02  0.8299095E-01
         -1   -1    0    0    0  501 -0.00000000000E+00  0.00000000000E+00  0.66123281830E+03  0.66123281830E+03  0.00000000000E+00 0.  1.
          1   -1    0    0  501    0  0.00000000000E+00 -0.00000000000E+00 -0.29927761374E+04  0.29927761374E+04  0.00000000000E+00 0. -1.
         23    2    1    2    0    0  0.12227552466E+04  0.46232655871E+03 -0.18367030229E+04  0.22562453281E+04  0.91042552673E+02 0.  0.
         11    1    3    3    0    0  0.99297507329E+03  0.33658283745E+03 -0.14708859472E+04  0.18063202851E+04  0.00000000000E+00 0.  1.
        -11    1    3    3    0    0  0.22978017328E+03  0.12574372126E+03 -0.36581707570E+03  0.44992504302E+03  0.00000000000E+00 0. -1.
         22    1    1    2    0    0 -0.12227552466E+04 -0.46232655871E+03 -0.49484029621E+03  0.13977636276E+04  0.00000000000E+00 0. -1.
<mgrwt>
<rscale>  0 0.28134831E+04</rscale>
<asrwt>0</asrwt>
<pdfrwt beam="1">  1        1 0.46042709E+00 0.28134831E+04</pdfrwt>
<pdfrwt beam="2">  1       -1 0.10172813E+00 0.28134831E+04</pdfrwt>
<totfact> 0.47910138E-01</totfact>
</mgrwt>
</event>
<event>
 6    1  0.1614874E-005  0.2572045E+04  0.7818608E-02  0.8377759E-01
         -1   -1    0    0    0  501 -0.00000000000E+00  0.00000000000E+00  0.13332083625E+04  0.13332083625E+04  0.00000000000E+00 0.  1.
          1   -1    0    0  501    0  0.00000000000E+00 -0.00000000000E+00 -0.12405070863E+04  0.12405070863E+04  0.00000000000E+00 0. -1.
         23    2    1    2    0    0 -0.17754980280E+03  0.12245231365E+04 -0.29827672649E+03  0.12760850534E+04  0.91886960916E+02 0.  0.
         11    1    3    3    0    0 -0.19058999788E+02  0.37549785344E+03 -0.11483846357E+03  0.39312816755E+03  0.00000000000E+00 0. -1.
        -11    1    3    3    0    0 -0.15849080301E+03  0.84902528308E+03 -0.18343826293E+03  0.88295688584E+03  0.00000000000E+00 0.  1.
         22    1    1    2    0    0  0.17754980280E+03 -0.12245231365E+04  0.39097800273E+03  0.12976303954E+04  0.00000000000E+00 0.  1.
<mgrwt>
<rscale>  0 0.25720454E+04</rscale>
<asrwt>0</asrwt>
<pdfrwt beam="1">  1        1 0.19084724E+00 0.25720454E+04</pdfrwt>
<pdfrwt beam="2">  1       -1 0.20510898E+00 0.25720454E+04</pdfrwt>
<totfact> 0.12235846E+00</totfact>
</mgrwt>
</event>
<event>
 6    1  0.1614874E-005  0.2398833E+04  0.7818608E-02  0.8439940E-01
          1   -1    0    0  501    0  0.00000000000E+00  0.00000000000E+00  0.10721817369E+04  0.10721817369E+04  0.00000000000E+00 0. -1.
         -1   -1    0    0    0  501 -0.00000000000E+00 -0.00000000000E+00 -0.13417505559E+04  0.13417505559E+04  0.00000000000E+00 0.  1.
         23    2    1    2    0    0 -0.20767327657E+03 -0.63996404533E+03  0.86207317897E+03  0.10973853773E+04  0.91664231219E+02 0.  0.
         11    1    3    3    0    0 -0.14695026895E+03 -0.32295650161E+03  0.41561287523E+03  0.54646989444E+03  0.00000000000E+00 0.  1.
        -11    1    3    3    0    0 -0.60723007621E+02 -0.31700754372E+03  0.44646030374E+03  0.55091548285E+03  0.00000000000E+00 0. -1.
         22    1    1    2    0    0  0.20767327657E+03  0.63996404533E+03 -0.11316419979E+04  0.13165469155E+04  0.00000000000E+00 0.  1.
<mgrwt>
<rscale>  0 0.23988334E+04</rscale>
<asrwt>0</asrwt>
<pdfrwt beam="1">  1        1 0.16495104E+00 0.23988334E+04</pdfrwt>
<pdfrwt beam="2">  1       -1 0.20642316E+00 0.23988334E+04</pdfrwt>
<totfact> 0.16218551E+00</totfact>
</mgrwt>
</event>
<event>
 6    1  0.1614874E-005  0.4724336E+04  0.7818608E-02  0.7872498E-01
          2   -1    0    0  501    0  0.00000000000E+00  0.00000000000E+00  0.15010738470E+04  0.15010738470E+04  0.00000000000E+00 0. -1.
         -2   -1    0    0    0  501 -0.00000000000E+00 -0.00000000000E+00 -0.37172306632E+04  0.37172306632E+04  0.00000000000E+00 0.  1.
         23    2    1    2    0    0  0.60306396769E+03 -0.12305938462E+04 -0.32324665120E+04  0.35121589240E+04  0.91505152955E+02 0.  0.
         11    1    3    3    0    0  0.54505067710E+03 -0.10967804308E+04 -0.28129029123E+04  0.30679684399E+04  0.00000000000E+00 0. -1.
        -11    1    3    3    0    0  0.58013290587E+02 -0.13381341536E+03 -0.41956359974E+03  0.44419048419E+03  0.00000000000E+00 0.  1.
         22    1    1    2    0    0 -0.60306396769E+03  0.12305938462E+04  0.10163096959E+04  0.17061455862E+04  0.00000000000E+00 0. -1.
<mgrwt>
<rscale>  0 0.47243360E+04</rscale>
<asrwt>0</asrwt>
<pdfrwt beam="1">  1        2 0.23093444E+00 0.47243360E+04</pdfrwt>
<pdfrwt beam="2">  1       -2 0.57188164E+00 0.47243360E+04</pdfrwt>
<totfact> 0.63516187E-03</totfact>
</mgrwt>
</event>
<event>
 6    1  0.1614874E-005  0.3228095E+04  0.7818608E-02  0.8181437E-01
         -2   -1    0    0    0  501 -0.00000000000E+00  0.00000000000E+00  0.75494903063E+03  0.75494903063E+03  0.00000000000E+00 0.  1.
          2   -1    0    0  501    0  0.00000000000E+00 -0.00000000000E+00 -0.34507620239E+04  0.34507620239E+04  0.00000000000E+00 0. -1.
         23    2    1    2    0    0  0.14937562705E+04  0.40221261624E+03 -0.19433887866E+04  0.24854712541E+04  0.87889672081E+02 0.  0.
         11    1    3    3    0    0  0.11815763327E+04  0.28076850094E+03 -0.15263456432E+04  0.19505600743E+04  0.00000000000E+00 0.  1.
        -11    1    3    3    0    0  0.31217993781E+03  0.12144411530E+03 -0.41704314342E+03  0.53491117972E+03  0.00000000000E+00 0. -1.
         22    1    1    2    0    0 -0.14937562705E+04 -0.40221261624E+03 -0.75242420658E+03  0.17202398004E+04  0.00000000000E+00 0.  1.
<mgrwt>
<rscale>  0 0.32280951E+04</rscale>
<asrwt>0</asrwt>
<pdfrwt beam="1">  1        2 0.53088647E+00 0.32280951E+04</pdfrwt>
<pdfrwt beam="2">  1       -2 0.11614600E+00 0.32280951E+04</pdfrwt>
<totfact> 0.42482436E-01</totfact>
</mgrwt>
</event>
<event>
 6    1  0.1614874E-005  0.2665673E+04  0.7818608E-02  0.8346229E-01
          2   -1    0    0  501    0  0.00000000000E+00  0.00000000000E+00  0.11184605974E+04  0.11184605974E+04  0.00000000000E+00 0. -1.
         -2   -1    0    0    0  501 -0.00000000000E+00 -0.00000000000E+00 -0.15883025161E+04  0.15883025161E+04  0.00000000000E+00 0.  1.
         23    2    1    2    0    0 -0.37291938162E+03  0.30614919367E+03 -0.14951129667E+04  0.15736360616E+04  0.90396222208E+02 0.  0.
         13    1    3    3    0    0 -0.19554422596E+03  0.10291003424E+03 -0.69316947057E+03  0.72753827005E+03  0.00000000000E+00 0.  1.
        -13    1    3    3    0    0 -0.17737515566E+03  0.20323915943E+03 -0.80194349617E+03  0.84609779152E+03  0.00000000000E+00 0. -1.
         22    1    1    2    0    0  0.37291938162E+03 -0.30614919367E+03  0.10252710480E+04  0.11331270519E+04  0.00000000000E+00 0. -1.
<mgrwt>
<rscale>  0 0.26656735E+04</rscale>
<asrwt>0</asrwt>
<pdfrwt beam="1">  1        2 0.17207086E+00 0.26656735E+04</pdfrwt>
<pdfrwt beam="2">  1       -2 0.24435423E+00 0.26656735E+04</pdfrwt>
<totfact> 0.12998903E+00</totfact>
</mgrwt>
</event>
<event>
 6    1  0.1614874E-005  0.2594362E+04  0.7818608E-02  0.8370119E-01
          2   -1    0    0  501    0  0.00000000000E+00  0.00000000000E+00  0.37445892633E+04  0.37445892633E+04  0.00000000000E+00 0. -1.
         -2   -1    0    0    0  501 -0.00000000000E+00 -0.00000000000E+00 -0.44936253193E+03  0.44936253193E+03  0.00000000000E+00 0.  1.
         23    2    1    2    0    0 -0.12842041481E+04  0.16760912665E+03  0.15929007429E+04  0.20549831455E+04  0.91377449325E+02 0.  0.
         11    1    3    3    0    0 -0.84221623884E+03  0.95624997427E+02  0.11062114496E+04  0.13936197847E+04  0.00000000000E+00 0. -1.
        -11    1    3    3    0    0 -0.44198790928E+03  0.71984129223E+02  0.48668929329E+03  0.66136336080E+03  0.00000000000E+00 0.  1.
         22    1    1    2    0    0  0.12842041481E+04 -0.16760912665E+03  0.17023259885E+04  0.21389686497E+04  0.00000000000E+00 0. -1.
<mgrwt>
<rscale>  0 0.25943617E+04</rscale>
<asrwt>0</asrwt>
<pdfrwt beam="1">  1        2 0.57609064E+00 0.25943617E+04</pdfrwt>
<pdfrwt beam="2">  1       -2 0.69132700E-01 0.25943617E+04</pdfrwt>
<totfact> 0.91552471E-01</totfact>
</mgrwt>
</event>
<event>
 6    1  0.1614874E-005  0.1957689E+04  0.7818608E-02  0.8626662E-01
          1   -1    0    0  501    0  0.00000000000E+00  0.00000000000E+00  0.30872973444E+04  0.30872973444E+04  0.00000000000E+00 0. -1.
         -1   -1    0    0    0  501 -0.00000000000E+00 -0.00000000000E+00 -0.31034796227E+03  0.31034796227E+03  0.00000000000E+00 0.  1.
         23    2    1    2    0    0 -0.39615874708E+03  0.76811789821E+03  0.21795448850E+04  0.23470078851E+04  0.10527700825E+03 0.  0.
         11    1    3    3    0    0 -0.48783603741E+02  0.17271697660E+03  0.51490034191E+03  0.54528282212E+03  0.00000000000E+00 0. -1.
        -11    1    3    3    0    0 -0.34737514334E+03  0.59540092161E+03  0.16646445431E+04  0.18017250630E+04  0.00000000000E+00 0.  1.
         22    1    1    2    0    0  0.39615874708E+03 -0.76811789821E+03  0.59740449711E+03  0.10506374216E+04  0.00000000000E+00 0.  1.
<mgrwt>
<rscale>  0 0.19576889E+04</rscale>
<asrwt>0</asrwt>
<pdfrwt beam="1">  1        1 0.47496880E+00 0.19576889E+04</pdfrwt>
<pdfrwt beam="2">  1       -1 0.47745842E-01 0.19576889E+04</pdfrwt>
<totfact> 0.21088426E+00</totfact>
</mgrwt>
</event>
<event>
 6    1  0.1614874E-005  0.4413416E+04  0.7818608E-02  0.7925973E-01
          1   -1    0    0  501    0  0.00000000000E+00  0.00000000000E+00  0.42423678647E+04  0.42423678647E+04  0.00000000000E+00 0. -1.
         -1   -1    0    0    0  501 -0.00000000000E+00 -0.00000000000E+00 -0.11478399619E+04  0.11478399619E+04  0.00000000000E+00 0.  1.
         23    2    1    2    0    0  0.18280641762E+04  0.12343011801E+04  0.15590008381E+04  0.27026138465E+04  0.91213785643E+02 0.  0.
         11    1    3    3    0    0  0.11000125398E+04  0.79080168982E+03  0.93281430558E+03  0.16448517954E+04  0.00000000000E+00 0.  1.
        -11    1    3    3    0    0  0.72805163638E+03  0.44349949028E+03  0.62618653257E+03  0.10577620511E+04  0.00000000000E+00 0. -1.
         22    1    1    2    0    0 -0.18280641762E+04 -0.12343011801E+04  0.15355270646E+04  0.26875939800E+04  0.00000000000E+00 0.  1.
<mgrwt>
<rscale>  0 0.44134156E+04</rscale>
<asrwt>0</asrwt>
<pdfrwt beam="1">  1        1 0.65267197E+00 0.44134156E+04</pdfrwt>
<pdfrwt beam="2">  1       -1 0.17659077E+00 0.44134156E+04</pdfrwt>
<totfact> 0.95737981E-03</totfact>
</mgrwt>
</event>
<event>
 6    1  0.1614874E-005  0.1663825E+04  0.7818608E-02  0.8782270E-01
         -1   -1    0    0    0  501 -0.00000000000E+00  0.00000000000E+00  0.42844074915E+03  0.42844074915E+03  0.00000000000E+00 0.  1.
          1   -1    0    0  501    0  0.00000000000E+00 -0.00000000000E+00 -0.16153415210E+04  0.16153415210E+04  0.00000000000E+00 0. -1.
         23    2    1    2    0    0  0.34393958424E+03 -0.32857035082E+02 -0.15214037746E+04  0.15628807405E+04  0.92481032174E+02 0.  0.
         11    1    3    3    0    0  0.23442782884E+03 -0.13300736182E+02 -0.82955737197E+03  0.86214775411E+03  0.00000000000E+00 0. -1.
        -11    1    3    3    0    0  0.10951175540E+03 -0.19556298900E+02 -0.69184640262E+03  0.70073298639E+03  0.00000000000E+00 0.  1.
         22    1    1    2    0    0 -0.34393958424E+03  0.32857035082E+02  0.33450300275E+03  0.48090152964E+03  0.00000000000E+00 0.  1.
<mgrwt>
<rscale>  0 0.16638247E+04</rscale>
<asrwt>0</asrwt>
<pdfrwt beam="1">  1        1 0.24851408E+00 0.16638247E+04</pdfrwt>
<pdfrwt beam="2">  1       -1 0.65913962E-01 0.16638247E+04</pdfrwt>
<totfact> 0.12126735E+01</totfact>
</mgrwt>
</event>
<event>
 6    1  0.1614874E-005  0.5805575E+04  0.7818608E-02  0.7714987E-01
          2   -1    0    0  501    0  0.00000000000E+00  0.00000000000E+00  0.30546822912E+04  0.30546822912E+04  0.00000000000E+00 0.  1.
         -2   -1    0    0    0  501 -0.00000000000E+00 -0.00000000000E+00 -0.27584454714E+04  0.27584454714E+04  0.00000000000E+00 0. -1.
         23    2    1    2    0    0  0.94286469652E+03 -0.24883789789E+03  0.28851051827E+04  0.30466944026E+04  0.87182179566E+02 0.  0.
         11    1    3    3    0    0  0.46173394371E+03 -0.13036636613E+03  0.12862854726E+04  0.13728524834E+04  0.00000000000E+00 0.  1.
        -11    1    3    3    0    0  0.48113075281E+03 -0.11847153176E+03  0.15988197101E+04  0.16738419192E+04  0.00000000000E+00 0. -1.
         22    1    1    2    0    0 -0.94286469652E+03  0.24883789789E+03 -0.25888683628E+04  0.27664333600E+04  0.00000000000E+00 0. -1.
<mgrwt>
<rscale>  0 0.58055747E+04</rscale>
<asrwt>0</asrwt>
<pdfrwt beam="1">  1        2 0.46995112E+00 0.58055747E+04</pdfrwt>
<pdfrwt beam="2">  1       -2 0.42437623E+00 0.58055747E+04</pdfrwt>
<totfact> 0.56474250E-03</totfact>
</mgrwt>
</event>
<event>
 6    1  0.1614874E-005  0.2284715E+04  0.7818608E-02  0.8483972E-01
         -2   -1    0    0    0  501 -0.00000000000E+00  0.00000000000E+00  0.78132477396E+03  0.78132477396E+03  0.00000000000E+00 0.  1.
          2   -1    0    0  501    0  0.00000000000E+00 -0.00000000000E+00 -0.16702147337E+04  0.16702147337E+04  0.00000000000E+00 0. -1.
         23    2    1    2    0    0 -0.41272997985E+03 -0.10441303280E+04 -0.22967852107E+03  0.11495741091E+04  0.90632395663E+02 0.  0.
         11    1    3    3    0    0 -0.11704698681E+03 -0.21180144435E+03 -0.70547463805E+02  0.25206505827E+03  0.00000000000E+00 0.  1.
        -11    1    3    3    0    0 -0.29568299304E+03 -0.83232888366E+03 -0.15913105726E+03  0.89750905084E+03  0.00000000000E+00 0. -1.
         22    1    1    2    0    0  0.41272997985E+03  0.10441303280E+04 -0.65921143867E+03  0.13019653985E+04  0.00000000000E+00 0.  1.
<mgrwt>
<rscale>  0 0.22847146E+04</rscale>
<asrwt>0</asrwt>
<pdfrwt beam="1">  1        2 0.25695611E+00 0.22847146E+04</pdfrwt>
<pdfrwt beam="2">  1       -2 0.12020381E+00 0.22847146E+04</pdfrwt>
<totfact> 0.48910813E+00</totfact>
</mgrwt>
</event>
<event>
 6    1  0.1614874E-005  0.1968998E+04  0.7818608E-02  0.8621254E-01
          1   -1    0    0  501    0  0.00000000000E+00  0.00000000000E+00  0.91512022268E+03  0.91512022268E+03  0.00000000000E+00 0.  1.
         -1   -1    0    0    0  501 -0.00000000000E+00 -0.00000000000E+00 -0.10591378323E+04  0.10591378323E+04  0.00000000000E+00 0. -1.
         23    2    1    2    0    0  0.52508402441E+03  0.64182570352E+03  0.45584858005E+03  0.95078704321E+03  0.92437044601E+02 0.  0.
         13    1    3    3    0    0  0.12409861158E+03  0.11304027787E+03  0.12477287003E+03  0.20915745005E+03  0.00000000000E+00 0.  1.
        -13    1    3    3    0    0  0.40098541283E+03  0.52878542565E+03  0.33107571002E+03  0.74162959316E+03  0.00000000000E+00 0. -1.
         22    1    1    2    0    0 -0.52508402441E+03 -0.64182570352E+03 -0.59986618963E+03  0.10234710117E+04  0.00000000000E+00 0.  1.
<mgrwt>
<rscale>  0 0.19689982E+04</rscale>
<asrwt>0</asrwt>
<pdfrwt beam="1">  1        1 0.14078773E+00 0.19689982E+04</pdfrwt>
<pdfrwt beam="2">  1       -1 0.16294428E+00 0.19689982E+04</pdfrwt>
<totfact> 0.45675722E+00</totfact>
</mgrwt>
</event>
<event>
 6    1  0.1614874E-005  0.9355443E+03  0.7818608E-02  0.9382208E-01
          1   -1    0    0  501    0  0.00000000000E+00  0.00000000000E+00  0.44277428769E+03  0.44277428769E+03  0.00000000000E+00 0. -1.
         -1   -1    0    0    0  501 -0.00000000000E+00 -0.00000000000E+00 -0.49418133887E+03  0.49418133887E+03  0.00000000000E+00 0.  1.
         23    2    1    2    0    0 -0.50325176112E+02 -0.13162698462E+03  0.41630956587E+03  0.44847111267E+03  0.89187430913E+02 0.  0.
         11    1    3    3    0    0 -0.30081321829E+02 -0.14120377269E+03  0.35932234217E+03  0.38724144526E+03  0.00000000000E+00 0. -1.
        -11    1    3    3    0    0 -0.20243854283E+02  0.95767880692E+01  0.56987223703E+02  0.61229667411E+02  0.00000000000E+00 0.  1.
         22    1    1    2    0    0  0.50325176112E+02  0.13162698462E+03 -0.46771661705E+03  0.48848451388E+03  0.00000000000E+00 0.  1.
<mgrwt>
<rscale>  0 0.93554431E+03</rscale>
<asrwt>0</asrwt>
<pdfrwt beam="1">  1        1 0.68119121E-01 0.93554431E+03</pdfrwt>
<pdfrwt beam="2">  1       -1 0.76027899E-01 0.93554431E+03</pdfrwt>
<totfact> 0.91554178E+01</totfact>
</mgrwt>
</event>
<event>
 6    1  0.1614874E-005  0.1232187E+04  0.7818608E-02  0.9085141E-01
         -2   -1    0    0    0  501 -0.00000000000E+00  0.00000000000E+00  0.33155058598E+03  0.33155058598E+03  0.00000000000E+00 0.  1.
          2   -1    0    0  501    0  0.00000000000E+00 -0.00000000000E+00 -0.11448364719E+04  0.11448364719E+04  0.00000000000E+00 0. -1.
         23    2    1    2    0    0  0.35564949690E+03  0.15624603798E+03 -0.97672164925E+03  0.10549482868E+04  0.89617624991E+02 0.  0.
         11    1    3    3    0    0  0.20270686581E+03  0.11578365315E+03 -0.48217483198E+03  0.53571307281E+03  0.00000000000E+00 0. -1.
        -11    1    3    3    0    0  0.15294263108E+03  0.40462384831E+02 -0.49454681727E+03  0.51923521400E+03  0.00000000000E+00 0.  1.
         22    1    1    2    0    0 -0.35564949690E+03 -0.15624603798E+03  0.16343576332E+03  0.42143877107E+03  0.00000000000E+00 0.  1.
<mgrwt>
<rscale>  0 0.12321870E+04</rscale>
<asrwt>0</asrwt>
<pdfrwt beam="1">  1        2 0.17612869E+00 0.12321870E+04</pdfrwt>
<pdfrwt beam="2">  1       -2 0.51007783E-01 0.12321870E+04</pdfrwt>
<totfact> 0.73134583E+01</totfact>
</mgrwt>
</event>
<event>
 6    1  0.1614874E-005  0.2905657E+04  0.7818608E-02  0.8271196E-01
          2   -1    0    0  501    0  0.00000000000E+00  0.00000000000E+00  0.35347619391E+04  0.35347619391E+04  0.00000000000E+00 0. -1.
         -2   -1    0    0    0  501 -0.00000000000E+00 -0.00000000000E+00 -0.59712931509E+03  0.59712931509E+03  0.00000000000E+00 0.  1.
         23    2    1    2    0    0  0.73654352049E+03  0.63291104945E+03 -0.63688809414E+02  0.97737019691E+03  0.90130368172E+02 0.  0.
         11    1    3    3    0    0  0.58282287439E+03  0.47828797604E+03 -0.82889045812E+02  0.75849356283E+03  0.00000000000E+00 0.  1.
        -11    1    3    3    0    0  0.15372064610E+03  0.15462307341E+03  0.19200236399E+02  0.21887663408E+03  0.00000000000E+00 0. -1.
         22    1    1    2    0    0 -0.73654352049E+03 -0.63291104945E+03  0.30013214334E+04  0.31545210572E+04  0.00000000000E+00 0. -1.
<mgrwt>
<rscale>  0 0.29056565E+04</rscale>
<asrwt>0</asrwt>
<pdfrwt beam="1">  1        2 0.54380952E+00 0.29056565E+04</pdfrwt>
<pdfrwt beam="2">  1       -2 0.91866051E-01 0.29056565E+04</pdfrwt>
<totfact> 0.66772946E-01</totfact>
</mgrwt>
</event>
<event>
 6    1  0.1614874E-005  0.2306217E+04  0.7818608E-02  0.8475474E-01
          1   -1    0    0  501    0  0.00000000000E+00  0.00000000000E+00  0.15745670775E+04  0.15745670775E+04  0.00000000000E+00 0. -1.
         -1   -1    0    0    0  501 -0.00000000000E+00 -0.00000000000E+00 -0.84446050518E+03  0.84446050518E+03  0.00000000000E+00 0.  1.
         23    2    1    2    0    0  0.40442392721E+03 -0.10513351098E+04  0.11588314488E+03  0.11360097945E+04  0.90692469195E+02 0.  0.
         11    1    3    3    0    0  0.30177893266E+03 -0.70789348457E+03  0.11119373017E+03  0.77752669106E+03  0.00000000000E+00 0. -1.
        -11    1    3    3    0    0  0.10264499455E+03 -0.34344162523E+03  0.46894147084E+01  0.35848310345E+03  0.00000000000E+00 0.  1.
         22    1    1    2    0    0 -0.40442392721E+03  0.10513351098E+04  0.61422342748E+03  0.12830177882E+04  0.00000000000E+00 0. -1.
<mgrwt>
<rscale>  0 0.23062174E+04</rscale>
<asrwt>0</asrwt>
<pdfrwt beam="1">  1        1 0.24224109E+00 0.23062174E+04</pdfrwt>
<pdfrwt beam="2">  1       -1 0.12991700E+00 0.23062174E+04</pdfrwt>
<totfact> 0.26659486E+00</totfact>
</mgrwt>
</event>
<event>
 6    1  0.1614874E-005  0.1459318E+04  0.7818608E-02  0.8911966E-01
          2   -1    0    0  501    0  0.00000000000E+00  0.00000000000E+00  0.20490095832E+04  0.20490095832E+04  0.00000000000E+00 0. -1.
         -2   -1    0    0    0  501 -0.00000000000E+00 -0.00000000000E+00 -0.25983384980E+03  0.25983384980E+03  0.00000000000E+00 0.  1.
         23    2    1    2    0    0  0.24068076607E+03 -0.64966250358E+03  0.12456105164E+04  0.14282460535E+04  0.91392729086E+02 0.  0.
         13    1    3    3    0    0  0.13633500808E+03 -0.30059240224E+03  0.51239237326E+03  0.60949895068E+03  0.00000000000E+00 0. -1.
        -13    1    3    3    0    0  0.10434575798E+03 -0.34907010134E+03  0.73321814319E+03  0.81874710281E+03  0.00000000000E+00 0.  1.
         22    1    1    2    0    0 -0.24068076607E+03  0.64966250358E+03  0.54356521693E+03  0.88059737949E+03  0.00000000000E+00 0.  1.
<mgrwt>
<rscale>  0 0.14593177E+04</rscale>
<asrwt>0</asrwt>
<pdfrwt beam="1">  1        2 0.31523223E+00 0.14593177E+04</pdfrwt>
<pdfrwt beam="2">  1       -2 0.39974440E-01 0.14593177E+04</pdfrwt>
<totfact> 0.36028223E+01</totfact>
</mgrwt>
</event>
<event>
 6    1  0.1614874E-005  0.1018662E+04  0.7818608E-02  0.9288310E-01
          1   -1    0    0  501    0  0.00000000000E+00  0.00000000000E+00  0.22214838827E+04  0.22214838827E+04  0.00000000000E+00 0. -1.
         -1   -1    0    0    0  501 -0.00000000000E+00 -0.00000000000E+00 -0.11677702225E+03  0.11677702225E+03  0.00000000000E+00 0.  1.
         23    2    1    2    0    0 -0.17333686615E+02  0.45960732576E+03  0.15402427267E+04  0.16101406478E+04  0.93090804998E+02 0.  0.
         13    1    3    3    0    0 -0.36509563093E+02  0.32816846632E+03  0.12084044930E+04  0.12527046377E+04  0.00000000000E+00 0. -1.
        -13    1    3    3    0    0  0.19175876479E+02  0.13143885943E+03  0.33183823364E+03  0.35743601009E+03  0.00000000000E+00 0.  1.
         22    1    1    2    0    0  0.17333686615E+02 -0.45960732576E+03  0.56446413375E+03  0.72812025715E+03  0.00000000000E+00 0.  1.
<mgrwt>
<rscale>  0 0.10186624E+04</rscale>
<asrwt>0</asrwt>
<pdfrwt beam="1">  1        1 0.34176672E+00 0.10186624E+04</pdfrwt>
<pdfrwt beam="2">  1       -1 0.17965697E-01 0.10186624E+04</pdfrwt>
<totfact> 0.51975921E+01</totfact>
</mgrwt>
</event>
<event>
 6    1  0.1614874E-005  0.2103462E+04  0.7818608E-02  0.8559720E-01
         -2   -1    0    0    0  501 -0.00000000000E+00  0.00000000000E+00  0.69758527775E+03  0.69758527775E+03  0.00000000000E+00 0.  1.
          2   -1    0    0  501    0  0.00000000000E+00 -0.00000000000E+00 -0.15856674278E+04  0.15856674278E+04  0.00000000000E+00 0. -1.
         23    2    1    2    0    0  0.10275871728E+04  0.20614454455E+03 -0.49448633470E+03  0.11637221625E+04  0.10630881979E+03 0.  0.
         13    1    3    3    0    0  0.57429213998E+03  0.91490871771E+02 -0.32629782009E+03  0.66682254691E+03  0.00000000000E+00 0. -1.
        -13    1    3    3    0    0  0.45329503286E+03  0.11465367277E+03 -0.16818851461E+03  0.49689961556E+03  0.00000000000E+00 0.  1.
         22    1    1    2    0    0 -0.10275871728E+04 -0.20614454455E+03 -0.39359581535E+03  0.11195305431E+04  0.00000000000E+00 0. -1.
<mgrwt>
<rscale>  0 0.21034621E+04</rscale>
<asrwt>0</asrwt>
<pdfrwt beam="1">  1        2 0.24394883E+00 0.21034621E+04</pdfrwt>
<pdfrwt beam="2">  1       -2 0.10732081E+00 0.21034621E+04</pdfrwt>
<totfact> 0.72995913E+00</totfact>
</mgrwt>
</event>
<event>
 6    1  0.1614874E-005  0.1451517E+04  0.7818608E-02  0.8917349E-01
         -1   -1    0    0    0  501 -0.00000000000E+00  0.00000000000E+00  0.25923074012E+03  0.25923074012E+03  0.00000000000E+00 0.  1.
          1   -1    0    0  501    0  0.00000000000E+00 -0.00000000000E+00 -0.20318789478E+04  0.20318789478E+04  0.00000000000E+00 0. -1.
         23    2    1    2    0    0  0.76007625302E+01 -0.55406530693E+03 -0.15724604281E+03  0.58331277664E+03  0.92094198959E+02 0.  0.
         11    1    3    3    0    0 -0.18308897975E+02 -0.13061724250E+03 -0.73139405979E+02  0.15081595569E+03  0.00000000000E+00 0. -1.
        -11    1    3    3    0    0  0.25909660505E+02 -0.42344806443E+03 -0.84106636832E+02  0.43249682095E+03  0.00000000000E+00 0.  1.
         22    1    1    2    0    0 -0.76007625302E+01  0.55406530693E+03 -0.16154021649E+04  0.17077969113E+04  0.00000000000E+00 0. -1.
<mgrwt>
<rscale>  0 0.14515171E+04</rscale>
<asrwt>0</asrwt>
<pdfrwt beam="1">  1        1 0.31259676E+00 0.14515171E+04</pdfrwt>
<pdfrwt beam="2">  1       -1 0.39881653E-01 0.14515171E+04</pdfrwt>
<totfact> 0.16875569E+01</totfact>
</mgrwt>
</event>
<event>
 6    1  0.1614874E-005  0.9201172E+03  0.7818608E-02  0.9400778E-01
         -2   -1    0    0    0  501 -0.00000000000E+00  0.00000000000E+00  0.54842937737E+03  0.54842937737E+03  0.00000000000E+00 0.  1.
          2   -1    0    0  501    0  0.00000000000E+00 -0.00000000000E+00 -0.38592737835E+03  0.38592737835E+03  0.00000000000E+00 0. -1.
         23    2    1    2    0    0  0.34761857858E+03  0.25345084012E+03 -0.69673188472E+02  0.44549959640E+03  0.92409591863E+02 0.  0.
         13    1    3    3    0    0  0.12943682592E+03  0.45762343909E+02 -0.48354570655E+01  0.13737345329E+03  0.00000000000E+00 0. -1.
        -13    1    3    3    0    0  0.21818175266E+03  0.20768849621E+03 -0.64837731407E+02  0.30812614310E+03  0.00000000000E+00 0.  1.
         22    1    1    2    0    0 -0.34761857858E+03 -0.25345084012E+03  0.23217518749E+03  0.48885715932E+03  0.00000000000E+00 0.  1.
<mgrwt>
<rscale>  0 0.92011719E+03</rscale>
<asrwt>0</asrwt>
<pdfrwt beam="1">  1        2 0.59373443E-01 0.92011719E+03</pdfrwt>
<pdfrwt beam="2">  1       -2 0.84373751E-01 0.92011719E+03</pdfrwt>
<totfact> 0.10175958E+02</totfact>
</mgrwt>
</event>
<event>
 6    1  0.1614874E-005  0.2254871E+04  0.7818608E-02  0.8495930E-01
         -2   -1    0    0    0  501 -0.00000000000E+00  0.00000000000E+00  0.35517160646E+03  0.35517160646E+03  0.00000000000E+00 0.  1.
          2   -1    0    0  501    0  0.00000000000E+00 -0.00000000000E+00 -0.35788640708E+04  0.35788640708E+04  0.00000000000E+00 0. -1.
         23    2    1    2    0    0  0.38266944201E+03  0.33049851383E+03 -0.33689506736E+04  0.34079509722E+04  0.92930179660E+02 0.  0.
         13    1    3    3    0    0  0.18987594546E+03  0.11238599296E+03 -0.12933385059E+04  0.13120243812E+04  0.00000000000E+00 0.  1.
        -13    1    3    3    0    0  0.19279349655E+03  0.21811252087E+03 -0.20756121677E+04  0.20959265910E+04  0.00000000000E+00 0. -1.
         22    1    1    2    0    0 -0.38266944201E+03 -0.33049851383E+03  0.14525820929E+03  0.52608470502E+03  0.00000000000E+00 0.  1.
<mgrwt>
<rscale>  0 0.22548711E+04</rscale>
<asrwt>0</asrwt>
<pdfrwt beam="1">  1        2 0.55059448E+00 0.22548711E+04</pdfrwt>
<pdfrwt beam="2">  1       -2 0.54641785E-01 0.22548711E+04</pdfrwt>
<totfact> 0.20573472E+00</totfact>
</mgrwt>
</event>
<event>
 6    1  0.1614874E-005  0.3252641E+03  0.7818608E-02  0.1073252E+00
          1   -1    0    0  501    0  0.00000000000E+00  0.00000000000E+00  0.30231729368E+03  0.30231729368E+03  0.00000000000E+00 0. -1.
         -1   -1    0    0    0  501 -0.00000000000E+00 -0.00000000000E+00 -0.87488138428E+02  0.87488138428E+02  0.00000000000E+00 0.  1.
         23    2    1    2    0    0 -0.12148011910E+03 -0.47410860702E+02  0.20815990232E+03  0.25923097831E+03  0.82854970481E+02 0.  0.
         11    1    3    3    0    0 -0.50653390160E+02  0.18580934505E+02  0.10314622443E+03  0.11640515743E+03  0.00000000000E+00 0.  1.
        -11    1    3    3    0    0 -0.70826728943E+02 -0.65991795207E+02  0.10501367789E+03  0.14282582088E+03  0.00000000000E+00 0. -1.
         22    1    1    2    0    0  0.12148011910E+03  0.47410860702E+02  0.66692529349E+01  0.13057445380E+03  0.00000000000E+00 0.  1.
<mgrwt>
<rscale>  0 0.32526406E+03</rscale>
<asrwt>0</asrwt>
<pdfrwt beam="1">  1        1 0.46510352E-01 0.32526406E+03</pdfrwt>
<pdfrwt beam="2">  1       -1 0.13459714E-01 0.32526406E+03</pdfrwt>
<totfact> 0.33175888E+03</totfact>
</mgrwt>
</event>
<event>
 6    1  0.1614874E-005  0.6925810E+04  0.7818608E-02  0.7585135E-01
         -1   -1    0    0    0  501 -0.00000000000E+00  0.00000000000E+00  0.31675940928E+04  0.31675940928E+04  0.00000000000E+00 0.  1.
          1   -1    0    0  501    0  0.00000000000E+00 -0.00000000000E+00 -0.37857474057E+04  0.37857474057E+04  0.00000000000E+00 0. -1.
         23    2    1    2    0    0  0.75841079209E+03 -0.19524151420E+03  0.30768530234E+04  0.31762555842E+04  0.90933106974E+02 0.  0.
         13    1    3    3    0    0  0.40321564612E+03 -0.84355492381E+02  0.14492822000E+04  0.15066909443E+04  0.00000000000E+00 0.  1.
        -13    1    3    3    0    0  0.35519514598E+03 -0.11088602182E+03  0.16275708234E+04  0.16695646399E+04  0.00000000000E+00 0. -1.
         22    1    1    2    0    0 -0.75841079209E+03  0.19524151420E+03 -0.36950063363E+04  0.37770859143E+04  0.00000000000E+00 0. -1.
<mgrwt>
<rscale>  0 0.69258100E+04</rscale>
<asrwt>0</asrwt>
<pdfrwt beam="1">  1        1 0.58242268E+00 0.69258100E+04</pdfrwt>
<pdfrwt beam="2">  1       -1 0.48732217E+00 0.69258100E+04</pdfrwt>
<totfact> 0.16611365E-04</totfact>
</mgrwt>
</event>
<event>
 6    1  0.1614874E-005  0.6796866E+03  0.7818608E-02  0.9752616E-01
          2   -1    0    0  501    0  0.00000000000E+00  0.00000000000E+00  0.51388689959E+03  0.51388689959E+03  0.00000000000E+00 0. -1.
         -2   -1    0    0    0  501 -0.00000000000E+00 -0.00000000000E+00 -0.22474493556E+03  0.22474493556E+03  0.00000000000E+00 0.  1.
         23    2    1    2    0    0  0.25974193014E+03 -0.33422766664E+02  0.37211098714E+03  0.46391960318E+03  0.90398339921E+02 0.  0.
         11    1    3    3    0    0  0.22454695123E+02 -0.39125062478E+01  0.95967356410E+02  0.98636983604E+02  0.00000000000E+00 0.  1.
        -11    1    3    3    0    0  0.23728723502E+03 -0.29510260416E+02  0.27614363073E+03  0.36528261957E+03  0.00000000000E+00 0. -1.
         22    1    1    2    0    0 -0.25974193014E+03  0.33422766664E+02 -0.82969023104E+02  0.27471223198E+03  0.00000000000E+00 0.  1.
<mgrwt>
<rscale>  0 0.67968663E+03</rscale>
<asrwt>0</asrwt>
<pdfrwt beam="1">  1        2 0.79059523E-01 0.67968663E+03</pdfrwt>
<pdfrwt beam="2">  1       -2 0.34576144E-01 0.67968663E+03</pdfrwt>
<totfact> 0.47098494E+02</totfact>
</mgrwt>
</event>
<event>
 6    1  0.1614874E-005  0.6954887E+03  0.7818608E-02  0.9724978E-01
         -2   -1    0    0    0  501 -0.00000000000E+00  0.00000000000E+00  0.10738108492E+03  0.10738108492E+03  0.00000000000E+00 0.  1.
          2   -1    0    0  501    0  0.00000000000E+00 -0.00000000000E+00 -0.11261401106E+04  0.11261401106E+04  0.00000000000E+00 0. -1.
         23    2    1    2    0    0  0.15474226632E+03  0.24374514065E+03 -0.19379670099E+03  0.35949619603E+03  0.91233168708E+02 0.  0.
         11    1    3    3    0    0  0.80865096693E+02  0.19486888871E+03 -0.15958219279E+03  0.26453643210E+03  0.00000000000E+00 0. -1.
        -11    1    3    3    0    0  0.73877169624E+02  0.48876251936E+02 -0.34214508194E+02  0.94959763931E+02  0.00000000000E+00 0.  1.
         22    1    1    2    0    0 -0.15474226632E+03 -0.24374514065E+03 -0.82496232473E+03  0.87402499953E+03  0.00000000000E+00 0. -1.
<mgrwt>
<rscale>  0 0.69548874E+03</rscale>
<asrwt>0</asrwt>
<pdfrwt beam="1">  1        2 0.17325232E+00 0.69548874E+03</pdfrwt>
<pdfrwt beam="2">  1       -2 0.16520168E-01 0.69548874E+03</pdfrwt>
<totfact> 0.62936555E+02</totfact>
</mgrwt>
</event>
<event>
 6    1  0.1614874E-005  0.1329141E+04  0.7818608E-02  0.9006770E-01
         -2   -1    0    0    0  501 -0.00000000000E+00  0.00000000000E+00  0.49029114499E+03  0.49029114499E+03  0.00000000000E+00 0.  1.
          2   -1    0    0  501    0  0.00000000000E+00 -0.00000000000E+00 -0.90079962834E+03  0.90079962834E+03  0.00000000000E+00 0. -1.
         23    2    1    2    0    0 -0.51361153326E+03 -0.41535508763E+03 -0.17049016000E+03  0.68829247264E+03  0.91449315646E+02 0.  0.
         13    1    3    3    0    0 -0.23488059592E+03 -0.13595976212E+03 -0.52993739262E+02  0.27651815068E+03  0.00000000000E+00 0. -1.
        -13    1    3    3    0    0 -0.27873093734E+03 -0.27939532550E+03 -0.11749642074E+03  0.41177432196E+03  0.00000000000E+00 0.  1.
         22    1    1    2    0    0  0.51361153326E+03  0.41535508763E+03 -0.24001832335E+03  0.70279830069E+03  0.00000000000E+00 0.  1.
<mgrwt>
<rscale>  0 0.13291412E+04</rscale>
<asrwt>0</asrwt>
<pdfrwt beam="1">  1        2 0.13858456E+00 0.13291412E+04</pdfrwt>
<pdfrwt beam="2">  1       -2 0.75429406E-01 0.13291412E+04</pdfrwt>
<totfact> 0.45182387E+01</totfact>
</mgrwt>
</event>
<event>
 6    1  0.1614874E-005  0.5496647E+03  0.7818608E-02  0.1001572E+00
         -2   -1    0    0    0  501 -0.00000000000E+00  0.00000000000E+00  0.27991147079E+02  0.27991147079E+02  0.00000000000E+00 0.  1.
          2   -1    0    0  501    0  0.00000000000E+00 -0.00000000000E+00 -0.26984536789E+04  0.26984536789E+04  0.00000000000E+00 0. -1.
         23    2    1    2    0    0 -0.11114467699E+03 -0.19786453765E+02 -0.25735534451E+04  0.25776630594E+04  0.91787090414E+02 0.  0.
         13    1    3    3    0    0 -0.24095742445E+02  0.30465749019E+02 -0.42880842048E+03  0.43056408135E+03  0.00000000000E+00 0.  1.
        -13    1    3    3    0    0 -0.87048934549E+02 -0.50252202784E+02 -0.21447450246E+04  0.21470989781E+04  0.00000000000E+00 0. -1.
         22    1    1    2    0    0  0.11114467699E+03  0.19786453765E+02 -0.96909086677E+02  0.14878176655E+03  0.00000000000E+00 0.  1.
<mgrwt>
<rscale>  0 0.54966468E+03</rscale>
<asrwt>0</asrwt>
<pdfrwt beam="1">  1        2 0.41514686E+00 0.54966468E+03</pdfrwt>
<pdfrwt beam="2">  1       -2 0.43063288E-02 0.54966468E+03</pdfrwt>
<totfact> 0.73657633E+02</totfact>
</mgrwt>
</event>
<event>
 6    1  0.1614874E-005  0.3233260E+04  0.7818608E-02  0.8180088E-01
         -2   -1    0    0    0  501 -0.00000000000E+00  0.00000000000E+00  0.10140477053E+04  0.10140477053E+04  0.00000000000E+00 0.  1.
          2   -1    0    0  501    0  0.00000000000E+00 -0.00000000000E+00 -0.25772881452E+04  0.25772881452E+04  0.00000000000E+00 0. -1.
         23    2    1    2    0    0 -0.60882577806E+03 -0.10934759810E+04 -0.19166195290E+04  0.22908608105E+04  0.90853094552E+02 0.  0.
         11    1    3    3    0    0 -0.71640034871E+02 -0.80716165835E+02 -0.18378157499E+03  0.21312686674E+03  0.00000000000E+00 0.  1.
        -11    1    3    3    0    0 -0.53718574319E+03 -0.10127598152E+04 -0.17328379540E+04  0.20777339437E+04  0.00000000000E+00 0. -1.
         22    1    1    2    0    0  0.60882577806E+03  0.10934759810E+04  0.35337908916E+03  0.13004750400E+04  0.00000000000E+00 0.  1.
<mgrwt>
<rscale>  0 0.32332604E+04</rscale>
<asrwt>0</asrwt>
<pdfrwt beam="1">  1        2 0.39650587E+00 0.32332604E+04</pdfrwt>
<pdfrwt beam="2">  1       -2 0.15600734E+00 0.32332604E+04</pdfrwt>
<totfact> 0.71072260E-01</totfact>
</mgrwt>
</event>
<event>
 6    1  0.1614874E-005  0.5519430E+03  0.7818608E-02  0.1001045E+00
          2   -1    0    0  501    0  0.00000000000E+00  0.00000000000E+00  0.36210745445E+03  0.36210745445E+03  0.00000000000E+00 0. -1.
         -2   -1    0    0    0  501 -0.00000000000E+00 -0.00000000000E+00 -0.21032504625E+03  0.21032504625E+03  0.00000000000E+00 0.  1.
         23    2    1    2    0    0  0.86758821384E+02 -0.25163825785E+03  0.53170348542E+02  0.28857823491E+03  0.97986763388E+02 0.  0.
         13    1    3    3    0    0  0.50533722732E+02 -0.47985034382E+02 -0.14032611062E+02  0.71085405190E+02  0.00000000000E+00 0.  1.
        -13    1    3    3    0    0  0.36225098652E+02 -0.20365322346E+03  0.67202959604E+02  0.21749282972E+03  0.00000000000E+00 0. -1.
         22    1    1    2    0    0 -0.86758821384E+02  0.25163825785E+03  0.98612059651E+02  0.28385426579E+03  0.00000000000E+00 0.  1.
<mgrwt>
<rscale>  0 0.55194299E+03</rscale>
<asrwt>0</asrwt>
<pdfrwt beam="1">  1        2 0.55708839E-01 0.55194299E+03</pdfrwt>
<pdfrwt beam="2">  1       -2 0.32357700E-01 0.55194299E+03</pdfrwt>
<totfact> 0.79468208E+02</totfact>
</mgrwt>
</event>
<event>
 6    1  0.1614874E-005  0.2148170E+04  0.7818608E-02  0.8540316E-01
          1   -1    0    0  501    0  0.00000000000E+00  0.00000000000E+00  0.16863309393E+04  0.16863309393E+04  0.00000000000E+00 0. -1.
         -1   -1    0    0    0  501 -0.00000000000E+00 -0.00000000000E+00 -0.68412377662E+03  0.68412377662E+03  0.00000000000E+00 0.  1.
         23    2    1    2    0    0 -0.15244531304E+03  0.16036999588E+03  0.16595897180E+04  0.16768338303E+04  0.92604282767E+02 0.  0.
         13    1    3    3    0    0 -0.10944413115E+03  0.69182475362E+02  0.11577327522E+04  0.11649503673E+04  0.00000000000E+00 0. -1.
        -13    1    3    3    0    0 -0.43001181897E+02  0.91187520523E+02  0.50185696578E+03  0.51188346295E+03  0.00000000000E+00 0.  1.
         22    1    1    2    0    0  0.15244531304E+03 -0.16036999588E+03 -0.65738255529E+03  0.69362088568E+03  0.00000000000E+00 0.  1.
<mgrwt>
<rscale>  0 0.21481705E+04</rscale>
<asrwt>0</asrwt>
<pdfrwt beam="1">  1        1 0.25943553E+00 0.21481705E+04</pdfrwt>
<pdfrwt beam="2">  1       -1 0.10524981E+00 0.21481705E+04</pdfrwt>
<totfact> 0.37755068E+00</totfact>
</mgrwt>
</event>
<event>
 6    1  0.1614874E-005  0.2914289E+04  0.7818608E-02  0.8268639E-01
         -1   -1    0    0    0  501 -0.00000000000E+00  0.00000000000E+00  0.15339389280E+04  0.15339389280E+04  0.00000000000E+00 0.  1.
          1   -1    0    0  501    0  0.00000000000E+00 -0.00000000000E+00 -0.13841943673E+04  0.13841943673E+04  0.00000000000E+00 0. -1.
         23    2    1    2    0    0  0.10964287077E+03 -0.46826711481E+03 -0.13008765420E+04  0.13898672079E+04  0.90307409947E+02 0.  0.
         11    1    3    3    0    0  0.10557723652E+03 -0.25890783400E+03 -0.71836342715E+03  0.77086044966E+03  0.00000000000E+00 0. -1.
        -11    1    3    3    0    0  0.40656342490E+01 -0.20935928081E+03 -0.58251311483E+03  0.61900675828E+03  0.00000000000E+00 0.  1.
         22    1    1    2    0    0 -0.10964287077E+03  0.46826711481E+03  0.14506211027E+04  0.15282660873E+04  0.00000000000E+00 0.  1.
<mgrwt>
<rscale>  0 0.29142887E+04</rscale>
<asrwt>0</asrwt>
<pdfrwt beam="1">  1        1 0.21295298E+00 0.29142887E+04</pdfrwt>
<pdfrwt beam="2">  1       -1 0.23599061E+00 0.29142887E+04</pdfrwt>
<totfact> 0.58221506E-01</totfact>
</mgrwt>
</event>
<event>
 6    1  0.1614874E-005  0.2737002E+04  0.7818608E-02  0.8323098E-01
         -1   -1    0    0    0  501 -0.00000000000E+00  0.00000000000E+00  0.11966242765E+04  0.11966242765E+04  0.00000000000E+00 0.  1.
          1   -1    0    0  501    0  0.00000000000E+00 -0.00000000000E+00 -0.15650653178E+04  0.15650653178E+04  0.00000000000E+00 0. -1.
         23    2    1    2    0    0  0.11013372837E+04  0.12300824940E+03  0.62320942684E+03  0.12745966272E+04  0.90176108101E+02 0.  0.
         11    1    3    3    0    0  0.78013748790E+03  0.83295478210E+02  0.39352802718E+03  0.87773398299E+03  0.00000000000E+00 0. -1.
        -11    1    3    3    0    0  0.32119979577E+03  0.39712771187E+02  0.22968139965E+03  0.39686264418E+03  0.00000000000E+00 0.  1.
         22    1    1    2    0    0 -0.11013372837E+04 -0.12300824940E+03 -0.99165046812E+03  0.14870929671E+04  0.00000000000E+00 0. -1.
<mgrwt>
<rscale>  0 0.27370021E+04</rscale>
<asrwt>0</asrwt>
<pdfrwt beam="1">  1        1 0.24077928E+00 0.27370021E+04</pdfrwt>
<pdfrwt beam="2">  1       -1 0.18409604E+00 0.27370021E+04</pdfrwt>
<totfact> 0.99866293E-01</totfact>
</mgrwt>
</event>
<event>
 6    1  0.1614874E-005  0.1807483E+04  0.7818608E-02  0.8702330E-01
          1   -1    0    0  501    0  0.00000000000E+00  0.00000000000E+00  0.13972924471E+04  0.13972924471E+04  0.00000000000E+00 0. -1.
         -1   -1    0    0    0  501 -0.00000000000E+00 -0.00000000000E+00 -0.58452242966E+03  0.58452242966E+03  0.00000000000E+00 0.  1.
         23    2    1    2    0    0  0.38145127134E+02  0.78510860381E+03 -0.76643316671E+02  0.79484114099E+03  0.89708811790E+02 0.  0.
         13    1    3    3    0    0 -0.21477746392E+02  0.45926513574E+03 -0.51283360952E+02  0.46261835416E+03  0.00000000000E+00 0. -1.
        -13    1    3    3    0    0  0.59622873526E+02  0.32584346807E+03 -0.25359955720E+02  0.33222278683E+03  0.00000000000E+00 0.  1.
         22    1    1    2    0    0 -0.38145127134E+02 -0.78510860381E+03  0.88941333411E+03  0.11869737358E+04  0.00000000000E+00 0. -1.
<mgrwt>
<rscale>  0 0.18074831E+04</rscale>
<asrwt>0</asrwt>
<pdfrwt beam="1">  1        1 0.21496807E+00 0.18074831E+04</pdfrwt>
<pdfrwt beam="2">  1       -1 0.89926528E-01 0.18074831E+04</pdfrwt>
<totfact> 0.88058740E+00</totfact>
</mgrwt>
</event>
<event>
 6    1  0.2125103E-005  0.3513686E+04  0.7818608E-02  0.8110554E-01
         -2   -1    0    0    0  501 -0.00000000000E+00  0.00000000000E+00  0.21565788855E+04  0.21565788855E+04  0.00000000000E+00 0.  1.
          2   -1    0    0  501    0  0.00000000000E+00 -0.00000000000E+00 -0.14312011458E+04  0.14312011458E+04  0.00000000000E+00 0. -1.
         23    2    1    2    0    0  0.10155442044E+04  0.14022992489E+04  0.66293178689E+03  0.18552464208E+04  0.68465417481E+02 0.  0.
         11    1    3    3    0    0  0.64493132342E+03  0.83580080381E+03  0.41377224878E+03  0.11338901488E+04  0.00000000000E+00 0. -1.
        -11    1    3    3    0    0  0.37061288095E+03  0.56649844509E+03  0.24915953811E+03  0.72135627207E+03  0.00000000000E+00 0.  1.
         22    1    1    2    0    0 -0.10155442044E+04 -0.14022992489E+04  0.62445952779E+02  0.17325336105E+04  0.00000000000E+00 0. -1.
<mgrwt>
<rscale>  0 0.35136865E+04</rscale>
<asrwt>0</asrwt>
<pdfrwt beam="1">  1        2 0.22018479E+00 0.35136865E+04</pdfrwt>
<pdfrwt beam="2">  1       -2 0.33178137E+00 0.35136865E+04</pdfrwt>
<totfact> 0.23060863E-01</totfact>
</mgrwt>
</event>
<event>
 6    1  0.1614874E-005  0.6423887E+03  0.7818608E-02  0.9821167E-01
         -2   -1    0    0    0  501 -0.00000000000E+00  0.00000000000E+00  0.19161151449E+03  0.19161151449E+03  0.00000000000E+00 0.  1.
          2   -1    0    0  501    0  0.00000000000E+00 -0.00000000000E+00 -0.53841135701E+03  0.53841135701E+03  0.00000000000E+00 0. -1.
         23    2    1    2    0    0  0.42236450865E+02  0.92999038850E+02  0.15995070052E+03  0.21308104510E+03  0.96884292711E+02 0.  0.
         11    1    3    3    0    0  0.36302986719E+02  0.57901922713E+02  0.16359877219E+03  0.17729945786E+03  0.00000000000E+00 0. -1.
        -11    1    3    3    0    0  0.59334641459E+01  0.35097116137E+02 -0.36480716668E+01  0.35781587231E+02  0.00000000000E+00 0.  1.
         22    1    1    2    0    0 -0.42236450865E+02 -0.92999038850E+02 -0.50675054304E+03  0.51694182640E+03  0.00000000000E+00 0. -1.
<mgrwt>
<rscale>  0 0.64238872E+03</rscale>
<asrwt>0</asrwt>
<pdfrwt beam="1">  1        2 0.82832517E-01 0.64238872E+03</pdfrwt>
<pdfrwt beam="2">  1       -2 0.29478694E-01 0.64238872E+03</pdfrwt>
<totfact> 0.60166327E+02</totfact>
</mgrwt>
</event>
<event>
 6    1  0.1614874E-005  0.2986854E+04  0.7818608E-02  0.8247495E-01
          2   -1    0    0  501    0  0.00000000000E+00  0.00000000000E+00  0.17626267581E+04  0.17626267581E+04  0.00000000000E+00 0. -1.
         -2   -1    0    0    0  501 -0.00000000000E+00 -0.00000000000E+00 -0.12653415303E+04  0.12653415303E+04  0.00000000000E+00 0.  1.
         23    2    1    2    0    0 -0.80213420873E+03 -0.64520040780E+03 -0.84593618614E+03  0.13356483948E+04  0.92982517766E+02 0.  0.
         13    1    3    3    0    0 -0.41532106817E+03 -0.32560754872E+03 -0.37410684221E+03  0.64689086780E+03  0.00000000000E+00 0.  1.
        -13    1    3    3    0    0 -0.38681314056E+03 -0.31959285908E+03 -0.47182934392E+03  0.68875752705E+03  0.00000000000E+00 0. -1.
         22    1    1    2    0    0  0.80213420873E+03  0.64520040780E+03  0.13432214139E+04  0.16923198935E+04  0.00000000000E+00 0. -1.
<mgrwt>
<rscale>  0 0.29868544E+04</rscale>
<asrwt>0</asrwt>
<pdfrwt beam="1">  1        2 0.27117335E+00 0.29868544E+04</pdfrwt>
<pdfrwt beam="2">  1       -2 0.19466793E+00 0.29868544E+04</pdfrwt>
<totfact> 0.11189889E+00</totfact>
</mgrwt>
</event>
<event>
 6    1  0.2230851E-005  0.2820815E+04  0.7818608E-02  0.8296835E-01
         -2   -1    0    0    0  501 -0.00000000000E+00  0.00000000000E+00  0.91791923668E+03  0.91791923668E+03  0.00000000000E+00 0.  1.
          2   -1    0    0  501    0  0.00000000000E+00 -0.00000000000E+00 -0.21671288755E+04  0.21671288755E+04  0.00000000000E+00 0. -1.
         23    2    1    2    0    0  0.35388466436E+03  0.82083150458E+03  0.56579355487E+03  0.10618735503E+04  0.91947678540E+02 0.  0.
         11    1    3    3    0    0  0.15784628543E+03  0.31404075143E+03  0.17558195069E+03  0.39289447030E+03  0.00000000000E+00 0.  1.
        -11    1    3    3    0    0  0.19603837893E+03  0.50679075316E+03  0.39021160417E+03  0.66897908004E+03  0.00000000000E+00 0. -1.
         22    1    1    2    0    0 -0.35388466436E+03 -0.82083150458E+03 -0.18150031937E+04  0.20231745618E+04  0.00000000000E+00 0. -1.
<mgrwt>
<rscale>  0 0.28208150E+04</rscale>
<asrwt>0</asrwt>
<pdfrwt beam="1">  1        2 0.33340444E+00 0.28208150E+04</pdfrwt>
<pdfrwt beam="2">  1       -2 0.14121835E+00 0.28208150E+04</pdfrwt>
<totfact> 0.16435770E+00</totfact>
</mgrwt>
</event>
<event>
 6    1  0.1614874E-005  0.2312053E+04  0.7818608E-02  0.8473184E-01
          2   -1    0    0  501    0  0.00000000000E+00  0.00000000000E+00  0.14878966486E+04  0.14878966486E+04  0.00000000000E+00 0. -1.
         -2   -1    0    0    0  501 -0.00000000000E+00 -0.00000000000E+00 -0.89817861478E+03  0.89817861478E+03  0.00000000000E+00 0.  1.
         23    2    1    2    0    0 -0.97327456368E+03 -0.61326355984E+03  0.19755934424E+03  0.11706971297E+04  0.90257990065E+02 0.  0.
         11    1    3    3    0    0 -0.40678120780E+03 -0.22023295993E+03  0.46892626672E+02  0.46494346549E+03  0.00000000000E+00 0. -1.
        -11    1    3    3    0    0 -0.56649335588E+03 -0.39303059991E+03  0.15066671757E+03  0.70575366418E+03  0.00000000000E+00 0.  1.
         22    1    1    2    0    0  0.97327456368E+03  0.61326355984E+03  0.39215868959E+03  0.12153781337E+04  0.00000000000E+00 0. -1.
<mgrwt>
<rscale>  0 0.23120527E+04</rscale>
<asrwt>0</asrwt>
<pdfrwt beam="1">  1        2 0.22890718E+00 0.23120527E+04</pdfrwt>
<pdfrwt beam="2">  1       -2 0.13818133E+00 0.23120527E+04</pdfrwt>
<totfact> 0.43405219E+00</totfact>
</mgrwt>
</event>
<event>
 6    1  0.1614874E-005  0.1489193E+04  0.7818608E-02  0.8891672E-01
          2   -1    0    0  501    0  0.00000000000E+00  0.00000000000E+00  0.11435774894E+04  0.11435774894E+04  0.00000000000E+00 0. -1.
         -2   -1    0    0    0  501 -0.00000000000E+00 -0.00000000000E+00 -0.48481517047E+03  0.48481517047E+03  0.00000000000E+00 0.  1.
         23    2    1    2    0    0 -0.21912330131E+03  0.37933855201E+03  0.98525678180E+03  0.10820306988E+04  0.90259342363E+02 0.  0.
         13    1    3    3    0    0 -0.15024373331E+03  0.23713378428E+03  0.72643060292E+03  0.77878561357E+03  0.00000000000E+00 0. -1.
        -13    1    3    3    0    0 -0.68879567992E+02  0.14220476773E+03  0.25882617888E+03  0.30324508525E+03  0.00000000000E+00 0.  1.
         22    1    1    2    0    0  0.21912330131E+03 -0.37933855201E+03 -0.32649446286E+03  0.54636196106E+03  0.00000000000E+00 0.  1.
<mgrwt>
<rscale>  0 0.14891927E+04</rscale>
<asrwt>0</asrwt>
<pdfrwt beam="1">  1        2 0.17593500E+00 0.14891927E+04</pdfrwt>
<pdfrwt beam="2">  1       -2 0.74586950E-01 0.14891927E+04</pdfrwt>
<totfact> 0.32026159E+01</totfact>
</mgrwt>
</event>
<event>
 6    1  0.1614874E-005  0.4454347E+04  0.7818608E-02  0.7918678E-01
          2   -1    0    0  501    0  0.00000000000E+00  0.00000000000E+00  0.42606592056E+04  0.42606592056E+04  0.00000000000E+00 0. -1.
         -2   -1    0    0    0  501 -0.00000000000E+00 -0.00000000000E+00 -0.11642098650E+04  0.11642098650E+04  0.00000000000E+00 0.  1.
         23    2    1    2    0    0 -0.69698235687E+03  0.19772922826E+04  0.24608485244E+04  0.32341026353E+04  0.90416918412E+02 0.  0.
         11    1    3    3    0    0 -0.25035074023E+03  0.78918255690E+03  0.10266029228E+04  0.13188624501E+04  0.00000000000E+00 0. -1.
        -11    1    3    3    0    0 -0.44663161664E+03  0.11881097257E+04  0.14342456016E+04  0.19152401852E+04  0.00000000000E+00 0.  1.
         22    1    1    2    0    0  0.69698235687E+03 -0.19772922826E+04  0.63560081619E+03  0.21907664353E+04  0.00000000000E+00 0. -1.
<mgrwt>
<rscale>  0 0.44543469E+04</rscale>
<asrwt>0</asrwt>
<pdfrwt beam="1">  1        2 0.65548602E+00 0.44543469E+04</pdfrwt>
<pdfrwt beam="2">  1       -2 0.17910921E+00 0.44543469E+04</pdfrwt>
<totfact> 0.28595022E-02</totfact>
</mgrwt>
</event>
<event>
 6    1  0.1614874E-005  0.2759755E+04  0.7818608E-02  0.8315873E-01
         -1   -1    0    0    0  501 -0.00000000000E+00  0.00000000000E+00  0.66223109281E+03  0.66223109281E+03  0.00000000000E+00 0.  1.
          1   -1    0    0  501    0  0.00000000000E+00 -0.00000000000E+00 -0.28752230235E+04  0.28752230235E+04  0.00000000000E+00 0. -1.
         23    2    1    2    0    0  0.49911155509E+03 -0.12847627401E+04 -0.10903516058E+04  0.17598014670E+04  0.91142395166E+02 0.  0.
         13    1    3    3    0    0  0.26093709500E+03 -0.74158256269E+03 -0.57366439466E+03  0.97320280647E+03  0.00000000000E+00 0.  1.
        -13    1    3    3    0    0  0.23817446009E+03 -0.54318017737E+03 -0.51668721118E+03  0.78659866052E+03  0.00000000000E+00 0. -1.
         22    1    1    2    0    0 -0.49911155509E+03  0.12847627401E+04 -0.11226403249E+04  0.17776526493E+04  0.00000000000E+00 0. -1.
<mgrwt>
<rscale>  0 0.27597551E+04</rscale>
<asrwt>0</asrwt>
<pdfrwt beam="1">  1        1 0.44234199E+00 0.27597551E+04</pdfrwt>
<pdfrwt beam="2">  1       -1 0.10188171E+00 0.27597551E+04</pdfrwt>
<totfact> 0.58357571E-01</totfact>
</mgrwt>
</event>
<event>
 6    1  0.1614874E-005  0.4130427E+04  0.7818608E-02  0.7978740E-01
         -2   -1    0    0    0  501 -0.00000000000E+00  0.00000000000E+00  0.17528387984E+04  0.17528387984E+04  0.00000000000E+00 0.  1.
          2   -1    0    0  501    0  0.00000000000E+00 -0.00000000000E+00 -0.24332563692E+04  0.24332563692E+04  0.00000000000E+00 0. -1.
         23    2    1    2    0    0  0.23372971891E+03  0.14568228661E+04  0.11226278267E+04  0.18563022261E+04  0.92748437797E+02 0.  0.
         11    1    3    3    0    0  0.14363635621E+03  0.89202785744E+03  0.63022073710E+03  0.11016003262E+04  0.00000000000E+00 0.  1.
        -11    1    3    3    0    0  0.90093362707E+02  0.56479500868E+03  0.49240708960E+03  0.75470189990E+03  0.00000000000E+00 0. -1.
         22    1    1    2    0    0 -0.23372971891E+03 -0.14568228661E+04 -0.18030453975E+04  0.23297929415E+04  0.00000000000E+00 0. -1.
<mgrwt>
<rscale>  0 0.41304267E+04</rscale>
<asrwt>0</asrwt>
<pdfrwt beam="1">  1        2 0.37434713E+00 0.41304267E+04</pdfrwt>
<pdfrwt beam="2">  1       -2 0.26966751E+00 0.41304267E+04</pdfrwt>
<totfact> 0.14461817E-01</totfact>
</mgrwt>
</event>
<event>
 6    1  0.1614874E-005  0.1941243E+04  0.7818608E-02  0.8634595E-01
          2   -1    0    0  501    0  0.00000000000E+00  0.00000000000E+00  0.22745843413E+04  0.22745843413E+04  0.00000000000E+00 0. -1.
         -2   -1    0    0    0  501 -0.00000000000E+00 -0.00000000000E+00 -0.41418840366E+03  0.41418840366E+03  0.00000000000E+00 0.  1.
         23    2    1    2    0    0  0.40220408581E+03 -0.23761753833E+03 -0.24275302350E+03  0.53436661475E+03  0.91588358271E+02 0.  0.
         13    1    3    3    0    0  0.31577453706E+03 -0.13933704823E+03 -0.17400593599E+03  0.38653128855E+03  0.00000000000E+00 0. -1.
        -13    1    3    3    0    0  0.86429548750E+02 -0.98280490097E+02 -0.68747087518E+02  0.14783532620E+03  0.00000000000E+00 0.  1.
         22    1    1    2    0    0 -0.40220408581E+03  0.23761753833E+03  0.21031489612E+04  0.21544061302E+04  0.00000000000E+00 0. -1.
<mgrwt>
<rscale>  0 0.19412434E+04</rscale>
<asrwt>0</asrwt>
<pdfrwt beam="1">  1        2 0.34993604E+00 0.19412434E+04</pdfrwt>
<pdfrwt beam="2">  1       -2 0.63721294E-01 0.19412434E+04</pdfrwt>
<totfact> 0.99692576E+00</totfact>
</mgrwt>
</event>
<event>
 6    1  0.1614874E-005  0.2213378E+04  0.7818608E-02  0.8512880E-01
         -2   -1    0    0    0  501 -0.00000000000E+00  0.00000000000E+00  0.15599259529E+04  0.15599259529E+04  0.00000000000E+00 0.  1.
          2   -1    0    0  501    0  0.00000000000E+00 -0.00000000000E+00 -0.78514019535E+03  0.78514019535E+03  0.00000000000E+00 0. -1.
         23    2    1    2    0    0 -0.91078404200E+03  0.17391358084E+03  0.10246115339E+04  0.13847607680E+04  0.89219305187E+02 0.  0.
         11    1    3    3    0    0 -0.45547133079E+03  0.98694959059E+02  0.57886817343E+03  0.74315758109E+03  0.00000000000E+00 0. -1.
        -11    1    3    3    0    0 -0.45531271121E+03  0.75218621783E+02  0.44574336050E+03  0.64160318693E+03  0.00000000000E+00 0.  1.
         22    1    1    2    0    0  0.91078404200E+03 -0.17391358084E+03 -0.24982577638E+03  0.96030538024E+03  0.00000000000E+00 0. -1.
<mgrwt>
<rscale>  0 0.22133780E+04</rscale>
<asrwt>0</asrwt>
<pdfrwt beam="1">  1        2 0.12079080E+00 0.22133780E+04</pdfrwt>
<pdfrwt beam="2">  1       -2 0.23998861E+00 0.22133780E+04</pdfrwt>
<totfact> 0.23881883E+00</totfact>
</mgrwt>
</event>
<event>
 6    1  0.1614874E-005  0.3547020E+04  0.7818608E-02  0.8102736E-01
         -1   -1    0    0    0  501 -0.00000000000E+00  0.00000000000E+00  0.11279336792E+04  0.11279336792E+04  0.00000000000E+00 0.  1.
          1   -1    0    0  501    0  0.00000000000E+00 -0.00000000000E+00 -0.27885846095E+04  0.27885846095E+04  0.00000000000E+00 0. -1.
         23    2    1    2    0    0  0.16621755665E+04  0.55688667877E+03 -0.54295461864E+03  0.18375292478E+04  0.93614269896E+02 0.  0.
         11    1    3    3    0    0  0.12511679374E+04  0.44638943824E+03 -0.44316045836E+03  0.14003842080E+04  0.00000000000E+00 0.  1.
        -11    1    3    3    0    0  0.41100762915E+03  0.11049724052E+03 -0.99794160282E+02  0.43714503978E+03  0.00000000000E+00 0. -1.
         22    1    1    2    0    0 -0.16621755665E+04 -0.55688667877E+03 -0.11176963117E+04  0.20789890409E+04  0.00000000000E+00 0. -1.
<mgrwt>
<rscale>  0 0.35470204E+04</rscale>
<asrwt>0</asrwt>
<pdfrwt beam="1">  1        1 0.42901301E+00 0.35470204E+04</pdfrwt>
<pdfrwt beam="2">  1       -1 0.17352826E+00 0.35470204E+04</pdfrwt>
<totfact> 0.15991864E-01</totfact>
</mgrwt>
</event>
<event>
 6    1  0.1614874E-005  0.1734816E+04  0.7818608E-02  0.8741753E-01
          1   -1    0    0  501    0  0.00000000000E+00  0.00000000000E+00  0.57165425031E+03  0.57165425031E+03  0.00000000000E+00 0. -1.
         -1   -1    0    0    0  501 -0.00000000000E+00 -0.00000000000E+00 -0.13161736049E+04  0.13161736049E+04  0.00000000000E+00 0.  1.
         23    2    1    2    0    0  0.19389280662E+03  0.43516841476E+03 -0.11590129565E+04  0.12563447472E+04  0.90139451846E+02 0.  0.
         13    1    3    3    0    0  0.99242024851E+02  0.24108560038E+03 -0.74678187897E+03  0.79098319892E+03  0.00000000000E+00 0.  1.
        -13    1    3    3    0    0  0.94650781769E+02  0.19408281438E+03 -0.41223107755E+03  0.46536154829E+03  0.00000000000E+00 0. -1.
         22    1    1    2    0    0 -0.19389280662E+03 -0.43516841476E+03  0.41449360193E+03  0.63148310801E+03  0.00000000000E+00 0. -1.
<mgrwt>
<rscale>  0 0.17348155E+04</rscale>
<asrwt>0</asrwt>
<pdfrwt beam="1">  1        1 0.87946807E-01 0.17348155E+04</pdfrwt>
<pdfrwt beam="2">  1       -1 0.20248825E+00 0.17348155E+04</pdfrwt>
<totfact> 0.50396025E+00</totfact>
</mgrwt>
</event>
<event>
 6    1  0.1614874E-005  0.3488977E+04  0.7818608E-02  0.8116407E-01
          1   -1    0    0  501    0  0.00000000000E+00  0.00000000000E+00  0.12337047104E+04  0.12337047104E+04  0.00000000000E+00 0. -1.
         -1   -1    0    0    0  501 -0.00000000000E+00 -0.00000000000E+00 -0.24667488115E+04  0.24667488115E+04  0.00000000000E+00 0.  1.
         23    2    1    2    0    0 -0.12177772196E+02 -0.10748809145E+04  0.83864516862E+03  0.13664840043E+04  0.91845176805E+02 0.  0.
         11    1    3    3    0    0 -0.31259685576E+02 -0.71174857671E+03  0.60107715003E+03  0.93212496194E+03  0.00000000000E+00 0. -1.
        -11    1    3    3    0    0  0.19081913381E+02 -0.36313233782E+03  0.23756801860E+03  0.43435904232E+03  0.00000000000E+00 0.  1.
         22    1    1    2    0    0  0.12177772196E+02  0.10748809145E+04 -0.20716892698E+04  0.23339695176E+04  0.00000000000E+00 0.  1.
<mgrwt>
<rscale>  0 0.34889767E+04</rscale>
<asrwt>0</asrwt>
<pdfrwt beam="1">  1        1 0.18980073E+00 0.34889767E+04</pdfrwt>
<pdfrwt beam="2">  1       -1 0.37949981E+00 0.34889767E+04</pdfrwt>
<totfact> 0.81250293E-02</totfact>
</mgrwt>
</event>
<event>
 6    1  0.1614874E-005  0.1905609E+04  0.7818608E-02  0.8652069E-01
          2   -1    0    0  501    0  0.00000000000E+00  0.00000000000E+00  0.33730312694E+04  0.33730312694E+04  0.00000000000E+00 0. -1.
         -2   -1    0    0    0  501 -0.00000000000E+00 -0.00000000000E+00 -0.26914559884E+03  0.26914559884E+03  0.00000000000E+00 0.  1.
         23    2    1    2    0    0 -0.74369472616E+03  0.22321052849E+03  0.26036963620E+04  0.27185459191E+04  0.91391373429E+02 0.  0.
         13    1    3    3    0    0 -0.33839639639E+03  0.11277012280E+03  0.10430803060E+04  0.11023818514E+04  0.00000000000E+00 0. -1.
        -13    1    3    3    0    0 -0.40529832977E+03  0.11044040570E+03  0.15606160560E+04  0.16161640677E+04  0.00000000000E+00 0.  1.
         22    1    1    2    0    0  0.74369472616E+03 -0.22321052849E+03  0.50018930854E+03  0.92363094910E+03  0.00000000000E+00 0.  1.
<mgrwt>
<rscale>  0 0.19056091E+04</rscale>
<asrwt>0</asrwt>
<pdfrwt beam="1">  1        2 0.51892786E+00 0.19056091E+04</pdfrwt>
<pdfrwt beam="2">  1       -2 0.41407018E-01 0.19056091E+04</pdfrwt>
<totfact> 0.51739934E+00</totfact>
</mgrwt>
</event>
<event>
 6    1  0.1614874E-005  0.2623851E+04  0.7818608E-02  0.8360145E-01
          1   -1    0    0  501    0  0.00000000000E+00  0.00000000000E+00  0.25521841112E+04  0.25521841112E+04  0.00000000000E+00 0. -1.
         -1   -1    0    0    0  501 -0.00000000000E+00 -0.00000000000E+00 -0.67438236452E+03  0.67438236452E+03  0.00000000000E+00 0.  1.
         23    2    1    2    0    0 -0.74268539719E+03  0.75903963777E+03  0.18839820093E+04  0.21646055694E+04  0.91685817077E+02 0.  0.
         11    1    3    3    0    0 -0.15117682688E+03  0.12783570277E+03  0.29216204832E+03  0.35292359281E+03  0.00000000000E+00 0.  1.
        -11    1    3    3    0    0 -0.59150857031E+03  0.63120393501E+03  0.15918199609E+04  0.18116819766E+04  0.00000000000E+00 0. -1.
         22    1    1    2    0    0  0.74268539719E+03 -0.75903963777E+03 -0.61802625462E+01  0.10619609063E+04  0.00000000000E+00 0.  1.
<mgrwt>
<rscale>  0 0.26238506E+04</rscale>
<asrwt>0</asrwt>
<pdfrwt beam="1">  1        1 0.39264370E+00 0.26238506E+04</pdfrwt>
<pdfrwt beam="2">  1       -1 0.10375113E+00 0.26238506E+04</pdfrwt>
<totfact> 0.95836535E-01</totfact>
</mgrwt>
</event>
<event>
 6    1  0.1614874E-005  0.2130569E+04  0.7818608E-02  0.8547896E-01
         -2   -1    0    0    0  501 -0.00000000000E+00  0.00000000000E+00  0.76543328373E+03  0.76543328373E+03  0.00000000000E+00 0.  1.
          2   -1    0    0  501    0  0.00000000000E+00 -0.00000000000E+00 -0.14825995193E+04  0.14825995193E+04  0.00000000000E+00 0. -1.
         23    2    1    2    0    0 -0.98623357943E+03  0.39642594852E+03 -0.32720195658E+03  0.11158303720E+04  0.90587487551E+02 0.  0.
         11    1    3    3    0    0 -0.27270429823E+03  0.10576253532E+03 -0.48373693179E+02  0.29646814727E+03  0.00000000000E+00 0. -1.
        -11    1    3    3    0    0 -0.71352928120E+03  0.29066341320E+03 -0.27882826340E+03  0.81936222477E+03  0.00000000000E+00 0.  1.
         22    1    1    2    0    0  0.98623357943E+03 -0.39642594852E+03 -0.38996427900E+03  0.11322024310E+04  0.00000000000E+00 0.  1.
<mgrwt>
<rscale>  0 0.21305690E+04</rscale>
<asrwt>0</asrwt>
<pdfrwt beam="1">  1        2 0.22809223E+00 0.21305690E+04</pdfrwt>
<pdfrwt beam="2">  1       -2 0.11775897E+00 0.21305690E+04</pdfrwt>
<totfact> 0.66422708E+00</totfact>
</mgrwt>
</event>
<event>
 6    1  0.1614874E-005  0.3739731E+04  0.7818608E-02  0.8059213E-01
         -1   -1    0    0    0  501 -0.00000000000E+00  0.00000000000E+00  0.14481490172E+04  0.14481490172E+04  0.00000000000E+00 0.  1.
          1   -1    0    0  501    0  0.00000000000E+00 -0.00000000000E+00 -0.24143907256E+04  0.24143907256E+04  0.00000000000E+00 0. -1.
         23    2    1    2    0    0 -0.53322950598E+03 -0.66320076571E+03 -0.22019212157E+04  0.23621821832E+04  0.85315091113E+02 0.  0.
         13    1    3    3    0    0 -0.76112078922E+02 -0.11206351179E+03 -0.43791940366E+03  0.45839358998E+03  0.00000000000E+00 0.  1.
        -13    1    3    3    0    0 -0.45711742706E+03 -0.55113725391E+03 -0.17640018120E+04  0.19037885932E+04  0.00000000000E+00 0. -1.
         22    1    1    2    0    0  0.53322950598E+03  0.66320076571E+03  0.12356795073E+04  0.15003575596E+04  0.00000000000E+00 0.  1.
<mgrwt>
<rscale>  0 0.37397313E+04</rscale>
<asrwt>0</asrwt>
<pdfrwt beam="1">  1        1 0.37144472E+00 0.37397313E+04</pdfrwt>
<pdfrwt beam="2">  1       -1 0.22279216E+00 0.37397313E+04</pdfrwt>
<totfact> 0.13089754E-01</totfact>
</mgrwt>
</event>
<event>
 6    1  0.1614874E-005  0.2925858E+04  0.7818608E-02  0.8265225E-01
          2   -1    0    0  501    0  0.00000000000E+00  0.00000000000E+00  0.41069190729E+04  0.41069190729E+04  0.00000000000E+00 0. -1.
         -2   -1    0    0    0  501 -0.00000000000E+00 -0.00000000000E+00 -0.52111121497E+03  0.52111121497E+03  0.00000000000E+00 0.  1.
         23    2    1    2    0    0 -0.34715283119E+03 -0.12125780117E+04  0.29624146133E+04  0.32210904668E+04  0.93074869569E+02 0.  0.
         11    1    3    3    0    0 -0.73913939871E+02 -0.15091323403E+03  0.42259168556E+03  0.45477665663E+03  0.00000000000E+00 0. -1.
        -11    1    3    3    0    0 -0.27323889132E+03 -0.10616647777E+04  0.25398229277E+04  0.27663138101E+04  0.00000000000E+00 0.  1.
         22    1    1    2    0    0  0.34715283119E+03  0.12125780117E+04  0.62339324459E+03  0.14069398211E+04  0.00000000000E+00 0.  1.
<mgrwt>
<rscale>  0 0.29258582E+04</rscale>
<asrwt>0</asrwt>
<pdfrwt beam="1">  1        2 0.63183368E+00 0.29258582E+04</pdfrwt>
<pdfrwt beam="2">  1       -2 0.80170959E-01 0.29258582E+04</pdfrwt>
<totfact> 0.33081914E-01</totfact>
</mgrwt>
</event>
<event>
 6    1  0.1614874E-005  0.3878030E+04  0.7818608E-02  0.8029614E-01
         -2   -1    0    0    0  501 -0.00000000000E+00  0.00000000000E+00  0.20593786251E+04  0.20593786251E+04  0.00000000000E+00 0.  1.
          2   -1    0    0  501    0  0.00000000000E+00 -0.00000000000E+00 -0.18256858777E+04  0.18256858777E+04  0.00000000000E+00 0. -1.
         23    2    1    2    0    0 -0.82470609394E+03 -0.83224392009E+03 -0.14294712260E+04  0.18506396488E+04  0.93322236682E+02 0.  0.
         11    1    3    3    0    0 -0.16032411804E+03 -0.21747773096E+03 -0.33037928513E+03  0.42679135222E+03  0.00000000000E+00 0. -1.
        -11    1    3    3    0    0 -0.66438197590E+03 -0.61476618914E+03 -0.10990919409E+04  0.14238482966E+04  0.00000000000E+00 0.  1.
         22    1    1    2    0    0  0.82470609394E+03  0.83224392009E+03  0.16631639735E+04  0.20344248540E+04  0.00000000000E+00 0.  1.
<mgrwt>
<rscale>  0 0.38780296E+04</rscale>
<asrwt>0</asrwt>
<pdfrwt beam="1">  1        2 0.28087475E+00 0.38780296E+04</pdfrwt>
<pdfrwt beam="2">  1       -2 0.31682748E+00 0.38780296E+04</pdfrwt>
<totfact> 0.16662418E-01</totfact>
</mgrwt>
</event>
<event>
 6    1  0.1614874E-005  0.1592518E+04  0.7818608E-02  0.8825158E-01
          2   -1    0    0  501    0  0.00000000000E+00  0.00000000000E+00  0.20614077132E+04  0.20614077132E+04  0.00000000000E+00 0. -1.
         -2   -1    0    0    0  501 -0.00000000000E+00 -0.00000000000E+00 -0.30757058467E+03  0.30757058467E+03  0.00000000000E+00 0.  1.
         23    2    1    2    0    0 -0.56057537715E+03  0.14237089107E+03  0.71426089160E+02  0.58992767198E+03  0.91644682702E+02 0.  0.
         11    1    3    3    0    0 -0.21143269225E+03  0.73123514692E+02 -0.13037391934E+02  0.22409998960E+03  0.00000000000E+00 0. -1.
        -11    1    3    3    0    0 -0.34914268490E+03  0.69247376373E+02  0.84463481095E+02  0.36582768238E+03  0.00000000000E+00 0.  1.
         22    1    1    2    0    0  0.56057537715E+03 -0.14237089107E+03  0.16824110394E+04  0.17790506259E+04  0.00000000000E+00 0. -1.
<mgrwt>
<rscale>  0 0.15925180E+04</rscale>
<asrwt>0</asrwt>
<pdfrwt beam="1">  1        2 0.31713964E+00 0.15925180E+04</pdfrwt>
<pdfrwt beam="2">  1       -2 0.47318553E-01 0.15925180E+04</pdfrwt>
<totfact> 0.25087915E+01</totfact>
</mgrwt>
</event>
<event>
 6    1  0.1614874E-005  0.1305476E+04  0.7818608E-02  0.9025234E-01
          2   -1    0    0  501    0  0.00000000000E+00  0.00000000000E+00  0.13036454254E+04  0.13036454254E+04  0.00000000000E+00 0. -1.
         -2   -1    0    0    0  501 -0.00000000000E+00 -0.00000000000E+00 -0.32682716859E+03  0.32682716859E+03  0.00000000000E+00 0.  1.
         23    2    1    2    0    0  0.52684675652E+02 -0.64727013354E+03  0.50090137041E+03  0.82534453982E+03  0.92504733474E+02 0.  0.
         13    1    3    3    0    0  0.34806787826E+02 -0.39851331232E+03  0.36395155482E+03  0.54081892240E+03  0.00000000000E+00 0. -1.
        -13    1    3    3    0    0  0.17877887826E+02 -0.24875682122E+03  0.13694981559E+03  0.28452561742E+03  0.00000000000E+00 0.  1.
         22    1    1    2    0    0 -0.52684675652E+02  0.64727013354E+03  0.47591688635E+03  0.80512805412E+03  0.00000000000E+00 0. -1.
<mgrwt>
<rscale>  0 0.13054758E+04</rscale>
<asrwt>0</asrwt>
<pdfrwt beam="1">  1        2 0.20056083E+00 0.13054758E+04</pdfrwt>
<pdfrwt beam="2">  1       -2 0.50281104E-01 0.13054758E+04</pdfrwt>
<totfact> 0.60285363E+01</totfact>
</mgrwt>
</event>
<event>
 6    1  0.1614874E-005  0.1809426E+04  0.7818608E-02  0.8701303E-01
         -2   -1    0    0    0  501 -0.00000000000E+00  0.00000000000E+00  0.74885855633E+03  0.74885855633E+03  0.00000000000E+00 0.  1.
          2   -1    0    0  501    0  0.00000000000E+00 -0.00000000000E+00 -0.10930048116E+04  0.10930048116E+04  0.00000000000E+00 0. -1.
         23    2    1    2    0    0 -0.36249523769E+03 -0.80284477169E+03 -0.37220793455E+03  0.96052916194E+03  0.90083292663E+02 0.  0.
         13    1    3    3    0    0 -0.27027280407E+03 -0.63682839085E+03 -0.32757563413E+03  0.76544339052E+03  0.00000000000E+00 0. -1.
        -13    1    3    3    0    0 -0.92222433623E+02 -0.16601638084E+03 -0.44632300417E+02  0.19508577142E+03  0.00000000000E+00 0.  1.
         22    1    1    2    0    0  0.36249523769E+03  0.80284477169E+03  0.28061679282E+02  0.88133420598E+03  0.00000000000E+00 0. -1.
<mgrwt>
<rscale>  0 0.18094264E+04</rscale>
<asrwt>0</asrwt>
<pdfrwt beam="1">  1        2 0.16815459E+00 0.18094264E+04</pdfrwt>
<pdfrwt beam="2">  1       -2 0.11520901E+00 0.18094264E+04</pdfrwt>
<totfact> 0.12187429E+01</totfact>
</mgrwt>
</event>
<event>
 6    1  0.1614874E-005  0.3109689E+04  0.7818608E-02  0.8213084E-01
          1   -1    0    0  501    0  0.00000000000E+00  0.00000000000E+00  0.32745833538E+04  0.32745833538E+04  0.00000000000E+00 0. -1.
         -1   -1    0    0    0  501 -0.00000000000E+00 -0.00000000000E+00 -0.73827466536E+03  0.73827466536E+03  0.00000000000E+00 0.  1.
         23    2    1    2    0    0  0.27020180039E+03 -0.13451603374E+04  0.22095528983E+04  0.26024557033E+04  0.90478345856E+02 0.  0.
         11    1    3    3    0    0  0.16569314179E+03 -0.70336974163E+03  0.12353636748E+04  0.14311906301E+04  0.00000000000E+00 0. -1.
        -11    1    3    3    0    0  0.10450865860E+03 -0.64179059575E+03  0.97418922351E+03  0.11712650732E+04  0.00000000000E+00 0.  1.
         22    1    1    2    0    0 -0.27020180039E+03  0.13451603374E+04  0.32675579013E+03  0.14104023159E+04  0.00000000000E+00 0.  1.
<mgrwt>
<rscale>  0 0.31096893E+04</rscale>
<asrwt>0</asrwt>
<pdfrwt beam="1">  1        1 0.50378205E+00 0.31096893E+04</pdfrwt>
<pdfrwt beam="2">  1       -1 0.11358072E+00 0.31096893E+04</pdfrwt>
<totfact> 0.22239741E-01</totfact>
</mgrwt>
</event>
<event>
 6    1  0.1614874E-005  0.4165689E+04  0.7818608E-02  0.7971931E-01
          2   -1    0    0  501    0  0.00000000000E+00  0.00000000000E+00  0.24512403243E+04  0.24512403243E+04  0.00000000000E+00 0. -1.
         -2   -1    0    0    0  501 -0.00000000000E+00 -0.00000000000E+00 -0.17698143014E+04  0.17698143014E+04  0.00000000000E+00 0.  1.
         23    2    1    2    0    0 -0.59576435406E+03 -0.18513603964E+04 -0.41173863111E+03  0.19900280808E+04  0.90623280986E+02 0.  0.
         11    1    3    3    0    0 -0.48852015329E+03 -0.14641009002E+04 -0.35996472931E+03  0.15848716013E+04  0.00000000000E+00 0. -1.
        -11    1    3    3    0    0 -0.10724420077E+03 -0.38725949621E+03 -0.51773901791E+02  0.40515647953E+03  0.00000000000E+00 0.  1.
         22    1    1    2    0    0  0.59576435406E+03  0.18513603964E+04  0.10931646540E+04  0.22310265448E+04  0.00000000000E+00 0. -1.
<mgrwt>
<rscale>  0 0.41656885E+04</rscale>
<asrwt>0</asrwt>
<pdfrwt beam="1">  1        2 0.37711390E+00 0.41656885E+04</pdfrwt>
<pdfrwt beam="2">  1       -2 0.27227912E+00 0.41656885E+04</pdfrwt>
<totfact> 0.13572930E-01</totfact>
</mgrwt>
</event>
<event>
 6    1  0.1614874E-005  0.2949895E+04  0.7818608E-02  0.8258185E-01
          1   -1    0    0  501    0  0.00000000000E+00  0.00000000000E+00  0.10360754581E+04  0.10360754581E+04  0.00000000000E+00 0. -1.
         -1   -1    0    0    0  501 -0.00000000000E+00 -0.00000000000E+00 -0.20997220528E+04  0.20997220528E+04  0.00000000000E+00 0.  1.
         23    2    1    2    0    0 -0.68326733552E+03 -0.12867214742E+04 -0.76756649997E+03  0.16491335185E+04  0.89311958923E+02 0.  0.
         13    1    3    3    0    0 -0.27637596498E+03 -0.48961950736E+03 -0.34277395348E+03  0.65848684056E+03  0.00000000000E+00 0.  1.
        -13    1    3    3    0    0 -0.40689137054E+03 -0.79710196683E+03 -0.42479254649E+03  0.99064667793E+03  0.00000000000E+00 0. -1.
         22    1    1    2    0    0  0.68326733552E+03  0.12867214742E+04 -0.29608009465E+03  0.14866639924E+04  0.00000000000E+00 0. -1.
<mgrwt>
<rscale>  0 0.29498952E+04</rscale>
<asrwt>0</asrwt>
<pdfrwt beam="1">  1        1 0.15939623E+00 0.29498952E+04</pdfrwt>
<pdfrwt beam="2">  1       -1 0.32303416E+00 0.29498952E+04</pdfrwt>
<totfact> 0.28345264E-01</totfact>
</mgrwt>
</event>
<event>
 6    1  0.1614874E-005  0.2496398E+04  0.7818608E-02  0.8404270E-01
          2   -1    0    0  501    0  0.00000000000E+00  0.00000000000E+00  0.17892314880E+04  0.17892314880E+04  0.00000000000E+00 0.  1.
         -2   -1    0    0    0  501 -0.00000000000E+00 -0.00000000000E+00 -0.87076514294E+03  0.87076514294E+03  0.00000000000E+00 0. -1.
         23    2    1    2    0    0 -0.36735805231E+03 -0.13409981739E+03  0.17210537987E+04  0.17672025224E+04  0.89687666884E+02 0.  0.
         13    1    3    3    0    0 -0.27488695905E+03 -0.57917154311E+02  0.11657467577E+04  0.11991174839E+04  0.00000000000E+00 0.  1.
        -13    1    3    3    0    0 -0.92471093256E+02 -0.76182663080E+02  0.55530704093E+03  0.56808503849E+03  0.00000000000E+00 0. -1.
         22    1    1    2    0    0  0.36735805231E+03  0.13409981739E+03 -0.80258745359E+03  0.89279410856E+03  0.00000000000E+00 0. -1.
<mgrwt>
<rscale>  0 0.24963977E+04</rscale>
<asrwt>0</asrwt>
<pdfrwt beam="1">  1        2 0.27526638E+00 0.24963977E+04</pdfrwt>
<pdfrwt beam="2">  1       -2 0.13396387E+00 0.24963977E+04</pdfrwt>
<totfact> 0.31407130E+00</totfact>
</mgrwt>
</event>
<event>
 6    1  0.1614874E-005  0.8830040E+03  0.7818608E-02  0.9447080E-01
          1   -1    0    0  501    0  0.00000000000E+00  0.00000000000E+00  0.27160372600E+03  0.27160372600E+03  0.00000000000E+00 0. -1.
         -1   -1    0    0    0  501 -0.00000000000E+00 -0.00000000000E+00 -0.71767804955E+03  0.71767804955E+03  0.00000000000E+00 0.  1.
         23    2    1    2    0    0 -0.22993146240E+03  0.20384906914E+03  0.12262037036E+03  0.34287897909E+03  0.90040650181E+02 0.  0.
         11    1    3    3    0    0 -0.64316824761E+02  0.95741334662E+02  0.80538506209E+02  0.14067518648E+03  0.00000000000E+00 0.  1.
        -11    1    3    3    0    0 -0.16561463764E+03  0.10810773447E+03  0.42081864151E+02  0.20220379260E+03  0.00000000000E+00 0. -1.
         22    1    1    2    0    0  0.22993146240E+03 -0.20384906914E+03 -0.56869469391E+03  0.64640279646E+03  0.00000000000E+00 0.  1.
<mgrwt>
<rscale>  0 0.88300404E+03</rscale>
<asrwt>0</asrwt>
<pdfrwt beam="1">  1        1 0.41785189E-01 0.88300404E+03</pdfrwt>
<pdfrwt beam="2">  1       -1 0.11041201E+00 0.88300404E+03</pdfrwt>
<totfact> 0.76212320E+01</totfact>
</mgrwt>
</event>
<event>
 6    1  0.1614874E-005  0.7562653E+03  0.7818608E-02  0.9625572E-01
          1   -1    0    0  501    0  0.00000000000E+00  0.00000000000E+00  0.56721646605E+03  0.56721646605E+03  0.00000000000E+00 0. -1.
         -1   -1    0    0    0  501 -0.00000000000E+00 -0.00000000000E+00 -0.25208065227E+03  0.25208065227E+03  0.00000000000E+00 0.  1.
         23    2    1    2    0    0 -0.78077620757E+01  0.12281502084E+03 -0.22121532717E+03  0.26900897844E+03  0.91022629122E+02 0.  0.
         11    1    3    3    0    0 -0.42975218567E+02  0.35770993505E+02 -0.11056214354E+03  0.12389681583E+03  0.00000000000E+00 0. -1.
        -11    1    3    3    0    0  0.35167456491E+02  0.87044027333E+02 -0.11065318363E+03  0.14511216261E+03  0.00000000000E+00 0.  1.
         22    1    1    2    0    0  0.78077620757E+01 -0.12281502084E+03  0.53635114096E+03  0.55028813988E+03  0.00000000000E+00 0. -1.
<mgrwt>
<rscale>  0 0.75626529E+03</rscale>
<asrwt>0</asrwt>
<pdfrwt beam="1">  1        1 0.87264072E-01 0.75626529E+03</pdfrwt>
<pdfrwt beam="2">  1       -1 0.38781639E-01 0.75626529E+03</pdfrwt>
<totfact> 0.24209098E+02</totfact>
</mgrwt>
</event>
<event>
 6    1  0.1614874E-005  0.7350604E+03  0.7818608E-02  0.9659084E-01
         -1   -1    0    0    0  501 -0.00000000000E+00  0.00000000000E+00  0.30215893098E+03  0.30215893098E+03  0.00000000000E+00 0.  1.
          1   -1    0    0  501    0  0.00000000000E+00 -0.00000000000E+00 -0.44704439568E+03  0.44704439568E+03  0.00000000000E+00 0. -1.
         23    2    1    2    0    0  0.23988512236E+03 -0.17070613234E+03 -0.28783763231E+03  0.42191021984E+03  0.92044964475E+02 0.  0.
         11    1    3    3    0    0  0.23234943051E+03 -0.14342102704E+03 -0.22803571476E+03  0.35574729242E+03  0.00000000000E+00 0. -1.
        -11    1    3    3    0    0  0.75356918527E+01 -0.27285105296E+02 -0.59801917555E+02  0.66162927429E+02  0.00000000000E+00 0.  1.
         22    1    1    2    0    0 -0.23988512236E+03  0.17070613234E+03  0.14295216761E+03  0.32729310682E+03  0.00000000000E+00 0.  1.
<mgrwt>
<rscale>  0 0.73506042E+03</rscale>
<asrwt>0</asrwt>
<pdfrwt beam="1">  1        1 0.68776061E-01 0.73506042E+03</pdfrwt>
<pdfrwt beam="2">  1       -1 0.46485989E-01 0.73506042E+03</pdfrwt>
<totfact> 0.24112738E+02</totfact>
</mgrwt>
</event>
<event>
 6    1  0.1614874E-005  0.2048134E+04  0.7818608E-02  0.8584441E-01
          1   -1    0    0  501    0  0.00000000000E+00  0.00000000000E+00  0.94267418790E+03  0.94267418790E+03  0.00000000000E+00 0. -1.
         -1   -1    0    0    0  501 -0.00000000000E+00 -0.00000000000E+00 -0.11124878714E+04  0.11124878714E+04  0.00000000000E+00 0.  1.
         23    2    1    2    0    0  0.31671517572E+02  0.45816190991E+03 -0.10013308876E+04  0.11052482309E+04  0.89413001171E+02 0.  0.
         13    1    3    3    0    0 -0.13573896793E+02  0.84524260431E+02 -0.12489327864E+03  0.15141642026E+03  0.00000000000E+00 0. -1.
        -13    1    3    3    0    0  0.45245414365E+02  0.37363764948E+03 -0.87643760892E+03  0.95383181062E+03  0.00000000000E+00 0.  1.
         22    1    1    2    0    0 -0.31671517572E+02 -0.45816190991E+03  0.83151720408E+03  0.94991382840E+03  0.00000000000E+00 0. -1.
<mgrwt>
<rscale>  0 0.20481344E+04</rscale>
<asrwt>0</asrwt>
<pdfrwt beam="1">  1        1 0.14502680E+00 0.20481344E+04</pdfrwt>
<pdfrwt beam="2">  1       -1 0.17115198E+00 0.20481344E+04</pdfrwt>
<totfact> 0.37453768E+00</totfact>
</mgrwt>
</event>
<event>
 6    1  0.1614874E-005  0.3025778E+04  0.7818608E-02  0.8236408E-01
         -1   -1    0    0    0  501 -0.00000000000E+00  0.00000000000E+00  0.10725062930E+04  0.10725062930E+04  0.00000000000E+00 0.  1.
          1   -1    0    0  501    0  0.00000000000E+00 -0.00000000000E+00 -0.21340974398E+04  0.21340974398E+04  0.00000000000E+00 0. -1.
         23    2    1    2    0    0 -0.22953699613E+03 -0.74087303929E+03  0.84380229730E+03  0.11493958507E+04  0.86766420955E+02 0.  0.
         11    1    3    3    0    0 -0.74349636802E+02 -0.25497815376E+03  0.23022742377E+03  0.35149166995E+03  0.00000000000E+00 0. -1.
        -11    1    3    3    0    0 -0.15518735933E+03 -0.48589488553E+03  0.61357487353E+03  0.79790418078E+03  0.00000000000E+00 0.  1.
         22    1    1    2    0    0  0.22953699613E+03  0.74087303929E+03 -0.19053934441E+04  0.20572078820E+04  0.00000000000E+00 0. -1.
<mgrwt>
<rscale>  0 0.30257779E+04</rscale>
<asrwt>0</asrwt>
<pdfrwt beam="1">  1        1 0.32832268E+00 0.30257779E+04</pdfrwt>
<pdfrwt beam="2">  1       -1 0.16500097E+00 0.30257779E+04</pdfrwt>
<totfact> 0.54972417E-01</totfact>
</mgrwt>
</event>
<event>
 6    1  0.1614874E-005  0.1842447E+04  0.7818608E-02  0.8684047E-01
         -2   -1    0    0    0  501 -0.00000000000E+00  0.00000000000E+00  0.57496562837E+03  0.57496562837E+03  0.00000000000E+00 0. -1.
          2   -1    0    0  501    0  0.00000000000E+00 -0.00000000000E+00 -0.14760058217E+04  0.14760058217E+04  0.00000000000E+00 0.  1.
         23    2    1    2    0    0  0.66452089051E+03  0.43626949958E+03 -0.96570527725E+03  0.12534122590E+04  0.80848737412E+02 0.  0.
         13    1    3    3    0    0  0.61383253511E+03  0.38156681593E+03 -0.89758256303E+03  0.11524053426E+04  0.00000000000E+00 0. -1.
        -13    1    3    3    0    0  0.50688355399E+02  0.54702683649E+02 -0.68122714217E+02  0.10100691642E+03  0.00000000000E+00 0.  1.
         22    1    1    2    0    0 -0.66452089051E+03 -0.43626949958E+03  0.64665083904E+02  0.79755919107E+03  0.00000000000E+00 0. -1.
<mgrwt>
<rscale>  0 0.18424469E+04</rscale>
<asrwt>0</asrwt>
<pdfrwt beam="1">  1        2 0.22707782E+00 0.18424469E+04</pdfrwt>
<pdfrwt beam="2">  1       -2 0.88456251E-01 0.18424469E+04</pdfrwt>
<totfact> 0.13553219E+01</totfact>
</mgrwt>
</event>
<event>
 6    1  0.1614874E-005  0.2055273E+04  0.7818608E-02  0.8581206E-01
         -2   -1    0    0    0  501 -0.00000000000E+00  0.00000000000E+00  0.66219850680E+03  0.66219850680E+03  0.00000000000E+00 0.  1.
          2   -1    0    0  501    0  0.00000000000E+00 -0.00000000000E+00 -0.15947442154E+04  0.15947442154E+04  0.00000000000E+00 0. -1.
         23    2    1    2    0    0 -0.83743892597E+03 -0.58744260296E+03 -0.54858074048E+03  0.11643211668E+04  0.91160211491E+02 0.  0.
         13    1    3    3    0    0 -0.61579553134E+03 -0.47342023990E+03 -0.39310109161E+03  0.87055116345E+03  0.00000000000E+00 0.  1.
        -13    1    3    3    0    0 -0.22164339463E+03 -0.11402236306E+03 -0.15547964887E+03  0.29377000336E+03  0.00000000000E+00 0. -1.
         22    1    1    2    0    0  0.83743892597E+03  0.58744260296E+03 -0.38396496808E+03  0.10926215553E+04  0.00000000000E+00 0. -1.
<mgrwt>
<rscale>  0 0.20552734E+04</rscale>
<asrwt>0</asrwt>
<pdfrwt beam="1">  1        2 0.24534526E+00 0.20552734E+04</pdfrwt>
<pdfrwt beam="2">  1       -2 0.10187669E+00 0.20552734E+04</pdfrwt>
<totfact> 0.82068971E+00</totfact>
</mgrwt>
</event>
<event>
 6    1  0.1614874E-005  0.3113113E+04  0.7818608E-02  0.8212148E-01
         -2   -1    0    0    0  501 -0.00000000000E+00  0.00000000000E+00  0.15749432985E+04  0.15749432985E+04  0.00000000000E+00 0.  1.
          2   -1    0    0  501    0  0.00000000000E+00 -0.00000000000E+00 -0.15383840300E+04  0.15383840300E+04  0.00000000000E+00 0. -1.
         23    2    1    2    0    0 -0.24636662413E+03 -0.42970778760E+03 -0.14559953057E+04  0.15407293337E+04  0.92624258080E+02 0.  0.
         13    1    3    3    0    0 -0.31390922461E+01 -0.21522602189E+02 -0.13790064743E+03  0.13960538982E+03  0.00000000000E+00 0. -1.
        -13    1    3    3    0    0 -0.24322753189E+03 -0.40818518541E+03 -0.13180946583E+04  0.14011239439E+04  0.00000000000E+00 0.  1.
         22    1    1    2    0    0  0.24636662413E+03  0.42970778760E+03  0.14925545743E+04  0.15725979948E+04  0.00000000000E+00 0.  1.
<mgrwt>
<rscale>  0 0.31131127E+04</rscale>
<asrwt>0</asrwt>
<pdfrwt beam="1">  1        2 0.23667446E+00 0.31131127E+04</pdfrwt>
<pdfrwt beam="2">  1       -2 0.24229897E+00 0.31131127E+04</pdfrwt>
<totfact> 0.73426417E-01</totfact>
</mgrwt>
</event>
<event>
 6    1  0.1614874E-005  0.5413616E+04  0.7818608E-02  0.7767689E-01
         -2   -1    0    0    0  501 -0.00000000000E+00  0.00000000000E+00  0.28540501679E+04  0.28540501679E+04  0.00000000000E+00 0.  1.
          2   -1    0    0  501    0  0.00000000000E+00 -0.00000000000E+00 -0.25671618269E+04  0.25671618269E+04  0.00000000000E+00 0. -1.
         23    2    1    2    0    0 -0.11863881188E+04  0.63011404725E+03 -0.22089064636E+04  0.25868598312E+04  0.89529550145E+02 0.  0.
         13    1    3    3    0    0 -0.80796720366E+03  0.39661564512E+03 -0.15368130741E+04  0.17809855128E+04  0.00000000000E+00 0. -1.
        -13    1    3    3    0    0 -0.37842091512E+03  0.23349840213E+03 -0.67209338954E+03  0.80587431840E+03  0.00000000000E+00 0.  1.
         22    1    1    2    0    0  0.11863881188E+04 -0.63011404725E+03  0.24957948046E+04  0.28343521637E+04  0.00000000000E+00 0.  1.
<mgrwt>
<rscale>  0 0.54136157E+04</rscale>
<asrwt>0</asrwt>
<pdfrwt beam="1">  1        2 0.39494797E+00 0.54136157E+04</pdfrwt>
<pdfrwt beam="2">  1       -2 0.43908464E+00 0.54136157E+04</pdfrwt>
<totfact> 0.92148468E-03</totfact>
</mgrwt>
</event>
<event>
 6    1  0.1614874E-005  0.2052345E+04  0.7818608E-02  0.8582531E-01
          2   -1    0    0  501    0  0.00000000000E+00  0.00000000000E+00  0.16553248151E+04  0.16553248151E+04  0.00000000000E+00 0. -1.
         -2   -1    0    0    0  501 -0.00000000000E+00 -0.00000000000E+00 -0.63614712459E+03  0.63614712459E+03  0.00000000000E+00 0.  1.
         23    2    1    2    0    0  0.14431692769E+03  0.76808131414E+03  0.12501163212E+04  0.14765431503E+04  0.81317755621E+02 0.  0.
         13    1    3    3    0    0  0.29223695112E+02  0.26840036244E+03  0.37146889012E+03  0.45921880976E+03  0.00000000000E+00 0. -1.
        -13    1    3    3    0    0  0.11509323258E+03  0.49968095170E+03  0.87864743106E+03  0.10173243405E+04  0.00000000000E+00 0.  1.
         22    1    1    2    0    0 -0.14431692769E+03 -0.76808131414E+03 -0.23093863065E+03  0.81492878945E+03  0.00000000000E+00 0.  1.
<mgrwt>
<rscale>  0 0.20523451E+04</rscale>
<asrwt>0</asrwt>
<pdfrwt beam="1">  1        2 0.25466535E+00 0.20523451E+04</pdfrwt>
<pdfrwt beam="2">  1       -2 0.97868789E-01 0.20523451E+04</pdfrwt>
<totfact> 0.83510510E+00</totfact>
</mgrwt>
</event>
<event>
 6    1  0.1614874E-005  0.2203621E+04  0.7818608E-02  0.8516922E-01
         -2   -1    0    0    0  501 -0.00000000000E+00  0.00000000000E+00  0.63293573602E+03  0.63293573602E+03  0.00000000000E+00 0.  1.
          2   -1    0    0  501    0  0.00000000000E+00 -0.00000000000E+00 -0.19180250511E+04  0.19180250511E+04  0.00000000000E+00 0. -1.
         23    2    1    2    0    0  0.73401049748E+02 -0.25406670353E+03 -0.18794650055E+04  0.19004071265E+04  0.96025702609E+02 0.  0.
         11    1    3    3    0    0  0.62298068032E+02 -0.69528276515E+02 -0.50393236349E+03  0.51250664141E+03  0.00000000000E+00 0. -1.
        -11    1    3    3    0    0  0.11102981717E+02 -0.18453842702E+03 -0.13755326421E+04  0.13879004851E+04  0.00000000000E+00 0.  1.
         22    1    1    2    0    0 -0.73401049748E+02  0.25406670353E+03  0.59437569044E+03  0.65055366061E+03  0.00000000000E+00 0.  1.
<mgrwt>
<rscale>  0 0.22036212E+04</rscale>
<asrwt>0</asrwt>
<pdfrwt beam="1">  1        2 0.29508077E+00 0.22036212E+04</pdfrwt>
<pdfrwt beam="2">  1       -2 0.97374732E-01 0.22036212E+04</pdfrwt>
<totfact> 0.59636054E+00</totfact>
</mgrwt>
</event>
<event>
 6    1  0.1614874E-005  0.2578894E+04  0.7818608E-02  0.8375406E-01
         -2   -1    0    0    0  501 -0.00000000000E+00  0.00000000000E+00  0.10235234651E+04  0.10235234651E+04  0.00000000000E+00 0.  1.
          2   -1    0    0  501    0  0.00000000000E+00 -0.00000000000E+00 -0.16244609840E+04  0.16244609840E+04  0.00000000000E+00 0. -1.
         23    2    1    2    0    0  0.73178692908E+03 -0.94610252500E+03 -0.79069440414E+03  0.14369395396E+04  0.94739127469E+02 0.  0.
         11    1    3    3    0    0  0.47799443774E+03 -0.63977829791E+03 -0.47601386816E+03  0.92972262298E+03  0.00000000000E+00 0. -1.
        -11    1    3    3    0    0  0.25379249134E+03 -0.30632422708E+03 -0.31468053598E+03  0.50721691660E+03  0.00000000000E+00 0.  1.
         22    1    1    2    0    0 -0.73178692908E+03  0.94610252500E+03  0.18975688526E+03  0.12110449095E+04  0.00000000000E+00 0.  1.
<mgrwt>
<rscale>  0 0.25788943E+04</rscale>
<asrwt>0</asrwt>
<pdfrwt beam="1">  1        2 0.24991707E+00 0.25788943E+04</pdfrwt>
<pdfrwt beam="2">  1       -2 0.15746515E+00 0.25788943E+04</pdfrwt>
<totfact> 0.25193369E+00</totfact>
</mgrwt>
</event>
<event>
 6    1  0.1692166E-005  0.1920229E+04  0.7818608E-02  0.8644852E-01
         -1   -1    0    0    0  501 -0.00000000000E+00  0.00000000000E+00  0.63460041137E+03  0.63460041137E+03  0.00000000000E+00 0.  1.
          1   -1    0    0  501    0  0.00000000000E+00 -0.00000000000E+00 -0.14525985335E+04  0.14525985335E+04  0.00000000000E+00 0. -1.
         23    2    1    2    0    0 -0.53602610924E+03 -0.77965032437E+03 -0.57362956237E+03  0.11100118537E+04  0.88864067234E+02 0.  0.
         13    1    3    3    0    0 -0.29710049618E+03 -0.48879812205E+03 -0.31148764850E+03  0.65131932577E+03  0.00000000000E+00 0. -1.
        -13    1    3    3    0    0 -0.23892561307E+03 -0.29085220232E+03 -0.26214191387E+03  0.45869252793E+03  0.00000000000E+00 0.  1.
         22    1    1    2    0    0  0.53602610924E+03  0.77965032437E+03 -0.24436855970E+03  0.97718709112E+03  0.00000000000E+00 0.  1.
<mgrwt>
<rscale>  0 0.19202288E+04</rscale>
<asrwt>0</asrwt>
<pdfrwt beam="1">  1        1 0.22347670E+00 0.19202288E+04</pdfrwt>
<pdfrwt beam="2">  1       -1 0.97630833E-01 0.19202288E+04</pdfrwt>
<totfact> 0.66359541E+00</totfact>
</mgrwt>
</event>
<event>
 6    1  0.1614874E-005  0.4953758E+04  0.7818608E-02  0.7835680E-01
          2   -1    0    0  501    0  0.00000000000E+00  0.00000000000E+00  0.37309427771E+04  0.37309427771E+04  0.00000000000E+00 0. -1.
         -2   -1    0    0    0  501 -0.00000000000E+00 -0.00000000000E+00 -0.16443376109E+04  0.16443376109E+04  0.00000000000E+00 0.  1.
         23    2    1    2    0    0 -0.15818468347E+04 -0.15920152886E+04 -0.91296472032E+02  0.22479800133E+04  0.91252433331E+02 0.  0.
         13    1    3    3    0    0 -0.32712074755E+03 -0.38256860805E+03 -0.26225762961E+02  0.50403820687E+03  0.00000000000E+00 0.  1.
        -13    1    3    3    0    0 -0.12547260871E+04 -0.12094466806E+04 -0.65070709072E+02  0.17439418064E+04  0.00000000000E+00 0. -1.
         22    1    1    2    0    0  0.15818468347E+04  0.15920152886E+04  0.21779016383E+04  0.31273003747E+04  0.00000000000E+00 0.  1.
<mgrwt>
<rscale>  0 0.49537580E+04</rscale>
<asrwt>0</asrwt>
<pdfrwt beam="1">  1        2 0.57399119E+00 0.49537580E+04</pdfrwt>
<pdfrwt beam="2">  1       -2 0.25297502E+00 0.49537580E+04</pdfrwt>
<totfact> 0.24848113E-02</totfact>
</mgrwt>
</event>
<event>
 6    1  0.1614874E-005  0.2293115E+04  0.7818608E-02  0.8480641E-01
         -1   -1    0    0    0  501 -0.00000000000E+00  0.00000000000E+00  0.52202379963E+03  0.52202379963E+03  0.00000000000E+00 0.  1.
          1   -1    0    0  501    0  0.00000000000E+00 -0.00000000000E+00 -0.25182646936E+04  0.25182646936E+04  0.00000000000E+00 0. -1.
         23    2    1    2    0    0  0.10131982474E+04  0.11936244134E+03 -0.31129643066E+03  0.10705535046E+04  0.91439911737E+02 0.  0.
         13    1    3    3    0    0  0.45199969753E+03  0.73989251223E+02 -0.18211910756E+03  0.49289502453E+03  0.00000000000E+00 0. -1.
        -13    1    3    3    0    0  0.56119854990E+03  0.45373190114E+02 -0.12917732310E+03  0.57765848007E+03  0.00000000000E+00 0.  1.
         22    1    1    2    0    0 -0.10131982474E+04 -0.11936244134E+03 -0.16849444633E+04  0.19697349887E+04  0.00000000000E+00 0. -1.
<mgrwt>
<rscale>  0 0.22931150E+04</rscale>
<asrwt>0</asrwt>
<pdfrwt beam="1">  1        1 0.38742533E+00 0.22931150E+04</pdfrwt>
<pdfrwt beam="2">  1       -1 0.80311355E-01 0.22931150E+04</pdfrwt>
<totfact> 0.18407431E+00</totfact>
</mgrwt>
</event>
<event>
 6    1  0.1614874E-005  0.1952668E+04  0.7818608E-02  0.8629075E-01
         -1   -1    0    0    0  501 -0.00000000000E+00  0.00000000000E+00  0.79025656070E+03  0.79025656070E+03  0.00000000000E+00 0.  1.
          1   -1    0    0  501    0  0.00000000000E+00 -0.00000000000E+00 -0.12062265028E+04  0.12062265028E+04  0.00000000000E+00 0. -1.
         23    2    1    2    0    0 -0.48442648961E+03 -0.25082309406E+03  0.61677576080E+03  0.82851691023E+03  0.91905838069E+02 0.  0.
         11    1    3    3    0    0 -0.22539488197E+03 -0.12827357971E+03  0.22641945257E+03  0.34427130664E+03  0.00000000000E+00 0.  1.
        -11    1    3    3    0    0 -0.25903160764E+03 -0.12254951435E+03  0.39035630822E+03  0.48424560359E+03  0.00000000000E+00 0. -1.
         22    1    1    2    0    0  0.48442648961E+03  0.25082309406E+03 -0.10327457029E+04  0.11679661533E+04  0.00000000000E+00 0. -1.
<mgrwt>
<rscale>  0 0.19526683E+04</rscale>
<asrwt>0</asrwt>
<pdfrwt beam="1">  1        1 0.18557331E+00 0.19526683E+04</pdfrwt>
<pdfrwt beam="2">  1       -1 0.12157793E+00 0.19526683E+04</pdfrwt>
<totfact> 0.59050425E+00</totfact>
</mgrwt>
</event>
<event>
 6    1  0.1614874E-005  0.6262673E+03  0.7818608E-02  0.9852360E-01
          2   -1    0    0  501    0  0.00000000000E+00  0.00000000000E+00  0.21045877581E+03  0.21045877581E+03  0.00000000000E+00 0.  1.
         -2   -1    0    0    0  501 -0.00000000000E+00 -0.00000000000E+00 -0.46589977979E+03  0.46589977979E+03  0.00000000000E+00 0. -1.
         23    2    1    2    0    0  0.29744282584E+03  0.62440744077E+02 -0.17459873961E+03  0.36186443343E+03  0.89944800552E+02 0.  0.
         11    1    3    3    0    0  0.99296609698E+02  0.51413163768E+02 -0.28382044431E+02  0.11536321143E+03  0.00000000000E+00 0.  1.
        -11    1    3    3    0    0  0.19814621614E+03  0.11027580309E+02 -0.14621669517E+03  0.24650122200E+03  0.00000000000E+00 0. -1.
         22    1    1    2    0    0 -0.29744282584E+03 -0.62440744077E+02 -0.80842264368E+02  0.31449412216E+03  0.00000000000E+00 0.  1.
<mgrwt>
<rscale>  0 0.62626735E+03</rscale>
<asrwt>0</asrwt>
<pdfrwt beam="1">  1        2 0.32378273E-01 0.62626735E+03</pdfrwt>
<pdfrwt beam="2">  1       -2 0.71676889E-01 0.62626735E+03</pdfrwt>
<totfact> 0.29118752E+02</totfact>
</mgrwt>
</event>
<event>
 6    1  0.1614874E-005  0.1870991E+04  0.7818608E-02  0.8669432E-01
         -1   -1    0    0    0  501 -0.00000000000E+00  0.00000000000E+00  0.89946138397E+03  0.89946138397E+03  0.00000000000E+00 0.  1.
          1   -1    0    0  501    0  0.00000000000E+00 -0.00000000000E+00 -0.97297293998E+03  0.97297293998E+03  0.00000000000E+00 0. -1.
         23    2    1    2    0    0  0.86975490664E+03  0.20112072043E+03  0.23621053113E+03  0.92752643792E+03  0.87101872707E+02 0.  0.
         13    1    3    3    0    0  0.53529979837E+03  0.16108502258E+03  0.16946889907E+03  0.58413522954E+03  0.00000000000E+00 0.  1.
        -13    1    3    3    0    0  0.33445510827E+03  0.40035697846E+02  0.66741632059E+02  0.34339120839E+03  0.00000000000E+00 0. -1.
         22    1    1    2    0    0 -0.86975490664E+03 -0.20112072043E+03 -0.30972208714E+03  0.94490788602E+03  0.00000000000E+00 0.  1.
<mgrwt>
<rscale>  0 0.18709907E+04</rscale>
<asrwt>0</asrwt>
<pdfrwt beam="1">  1        1 0.14968815E+00 0.18709907E+04</pdfrwt>
<pdfrwt beam="2">  1       -1 0.13837867E+00 0.18709907E+04</pdfrwt>
<totfact> 0.64412440E+00</totfact>
</mgrwt>
</event>
<event>
 6    1  0.1614874E-005  0.8316560E+03  0.7818608E-02  0.9515294E-01
         -2   -1    0    0    0  501 -0.00000000000E+00  0.00000000000E+00  0.21049400370E+03  0.21049400370E+03  0.00000000000E+00 0.  1.
          2   -1    0    0  501    0  0.00000000000E+00 -0.00000000000E+00 -0.82146246015E+03  0.82146246015E+03  0.00000000000E+00 0. -1.
         23    2    1    2    0    0  0.27831652096E+03 -0.17394380604E+03 -0.61531915184E+03  0.70372565777E+03  0.94316537720E+02 0.  0.
         13    1    3    3    0    0  0.13281410257E+03 -0.13268569014E+03 -0.38263691453E+03  0.42621131680E+03  0.00000000000E+00 0.  1.
        -13    1    3    3    0    0  0.14550241839E+03 -0.41258115906E+02 -0.23268223731E+03  0.27751434097E+03  0.00000000000E+00 0. -1.
         22    1    1    2    0    0 -0.27831652096E+03  0.17394380604E+03  0.43506953921E+01  0.32823080607E+03  0.00000000000E+00 0.  1.
<mgrwt>
<rscale>  0 0.83165599E+03</rscale>
<asrwt>0</asrwt>
<pdfrwt beam="1">  1        2 0.12637884E+00 0.83165599E+03</pdfrwt>
<pdfrwt beam="2">  1       -2 0.32383693E-01 0.83165599E+03</pdfrwt>
<totfact> 0.29638414E+02</totfact>
</mgrwt>
</event>
<event>
 6    1  0.1614874E-005  0.2227653E+04  0.7818608E-02  0.8507006E-01
          2   -1    0    0  501    0  0.00000000000E+00  0.00000000000E+00  0.19819674601E+04  0.19819674601E+04  0.00000000000E+00 0. -1.
         -2   -1    0    0    0  501 -0.00000000000E+00 -0.00000000000E+00 -0.62594849219E+03  0.62594849219E+03  0.00000000000E+00 0.  1.
         23    2    1    2    0    0  0.21817860456E+03 -0.10478954013E+04  0.10322877590E+04  0.14896634892E+04  0.88275806390E+02 0.  0.
         11    1    3    3    0    0  0.15299427219E+03 -0.62934310699E+03  0.67547155692E+03  0.93581078100E+03  0.00000000000E+00 0.  1.
        -11    1    3    3    0    0  0.65184332372E+02 -0.41855229434E+03  0.35681620209E+03  0.55385270818E+03  0.00000000000E+00 0. -1.
         22    1    1    2    0    0 -0.21817860456E+03  0.10478954013E+04  0.32373120890E+03  0.11182524631E+04  0.00000000000E+00 0. -1.
<mgrwt>
<rscale>  0 0.22276531E+04</rscale>
<asrwt>0</asrwt>
<pdfrwt beam="1">  1        2 0.30491807E+00 0.22276531E+04</pdfrwt>
<pdfrwt beam="2">  1       -2 0.96299769E-01 0.22276531E+04</pdfrwt>
<totfact> 0.56289946E+00</totfact>
</mgrwt>
</event>
<event>
 6    1  0.1614874E-005  0.1190178E+04  0.7818608E-02  0.9121498E-01
          2   -1    0    0  501    0  0.00000000000E+00  0.00000000000E+00  0.82171564649E+03  0.82171564649E+03  0.00000000000E+00 0. -1.
         -2   -1    0    0    0  501 -0.00000000000E+00 -0.00000000000E+00 -0.43096515954E+03  0.43096515954E+03  0.00000000000E+00 0.  1.
         23    2    1    2    0    0  0.40724326128E+03  0.35794566795E+03 -0.52670537108E+02  0.55225637782E+03  0.90778556369E+02 0.  0.
         13    1    3    3    0    0  0.20935638599E+03  0.12500508408E+03 -0.15028153499E+02  0.24429943266E+03  0.00000000000E+00 0.  1.
        -13    1    3    3    0    0  0.19788687529E+03  0.23294058387E+03 -0.37642383608E+02  0.30795694515E+03  0.00000000000E+00 0. -1.
         22    1    1    2    0    0 -0.40724326128E+03 -0.35794566795E+03  0.44342102406E+03  0.70042442821E+03  0.00000000000E+00 0. -1.
<mgrwt>
<rscale>  0 0.11901778E+04</rscale>
<asrwt>0</asrwt>
<pdfrwt beam="1">  1        2 0.12641779E+00 0.11901778E+04</pdfrwt>
<pdfrwt beam="2">  1       -2 0.66302332E-01 0.11901778E+04</pdfrwt>
<totfact> 0.68659015E+01</totfact>
</mgrwt>
</event>
<event>
 6    1  0.1614874E-005  0.2975342E+04  0.7818608E-02  0.8250807E-01
         -1   -1    0    0    0  501 -0.00000000000E+00  0.00000000000E+00  0.77359395462E+03  0.77359395462E+03  0.00000000000E+00 0.  1.
          1   -1    0    0  501    0  0.00000000000E+00 -0.00000000000E+00 -0.28608866090E+04  0.28608866090E+04  0.00000000000E+00 0. -1.
         23    2    1    2    0    0  0.74752674871E+03 -0.10959367663E+04 -0.18635461232E+04  0.22891418903E+04  0.86560988736E+02 0.  0.
         11    1    3    3    0    0  0.17003618856E+03 -0.19003571885E+03 -0.34614268170E+03  0.42993096650E+03  0.00000000000E+00 0.  1.
        -11    1    3    3    0    0  0.57749056015E+03 -0.90590104748E+03 -0.15174034415E+04  0.18592109238E+04  0.00000000000E+00 0. -1.
         22    1    1    2    0    0 -0.74752674871E+03  0.10959367663E+04 -0.22374653122E+03  0.13453386734E+04  0.00000000000E+00 0.  1.
<mgrwt>
<rscale>  0 0.29753417E+04</rscale>
<asrwt>0</asrwt>
<pdfrwt beam="1">  1        1 0.44013641E+00 0.29753417E+04</pdfrwt>
<pdfrwt beam="2">  1       -1 0.11901445E+00 0.29753417E+04</pdfrwt>
<totfact> 0.40585713E-01</totfact>
</mgrwt>
</event>
<event>
 6    1  0.1614874E-005  0.1384750E+04  0.7818608E-02  0.8964932E-01
          1   -1    0    0  501    0  0.00000000000E+00  0.00000000000E+00  0.10875369647E+04  0.10875369647E+04  0.00000000000E+00 0. -1.
         -1   -1    0    0    0  501 -0.00000000000E+00 -0.00000000000E+00 -0.44079697269E+03  0.44079697269E+03  0.00000000000E+00 0.  1.
         23    2    1    2    0    0  0.66422068522E+03  0.14843231150E+03  0.44554113962E+03  0.81861409976E+03  0.91656246140E+02 0.  0.
         13    1    3    3    0    0  0.14969886351E+03  0.72568815601E+02  0.11848047211E+03  0.20423908785E+03  0.00000000000E+00 0. -1.
        -13    1    3    3    0    0  0.51452182171E+03  0.75863495900E+02  0.32706066751E+03  0.61437501191E+03  0.00000000000E+00 0.  1.
         22    1    1    2    0    0 -0.66422068522E+03 -0.14843231150E+03  0.20119885244E+03  0.70971983768E+03  0.00000000000E+00 0.  1.
<mgrwt>
<rscale>  0 0.13847498E+04</rscale>
<asrwt>0</asrwt>
<pdfrwt beam="1">  1        1 0.16731338E+00 0.13847498E+04</pdfrwt>
<pdfrwt beam="2">  1       -1 0.67814919E-01 0.13847498E+04</pdfrwt>
<totfact> 0.27851701E+01</totfact>
</mgrwt>
</event>
<event>
 6    1  0.1614874E-005  0.1432551E+04  0.7818608E-02  0.8930588E-01
         -2   -1    0    0    0  501 -0.00000000000E+00  0.00000000000E+00  0.89320036740E+03  0.89320036740E+03  0.00000000000E+00 0. -1.
          2   -1    0    0  501    0  0.00000000000E+00 -0.00000000000E+00 -0.57439561103E+03  0.57439561103E+03  0.00000000000E+00 0.  1.
         23    2    1    2    0    0 -0.46924001085E+03  0.53727443066E+03  0.16705263184E+03  0.73829582834E+03  0.91236761822E+02 0.  0.
         13    1    3    3    0    0 -0.19045791277E+03  0.21521247486E+03  0.11347574718E+03  0.30897794594E+03  0.00000000000E+00 0. -1.
        -13    1    3    3    0    0 -0.27878209808E+03  0.32206195580E+03  0.53576884658E+02  0.42931788240E+03  0.00000000000E+00 0.  1.
         22    1    1    2    0    0  0.46924001085E+03 -0.53727443066E+03  0.15175212453E+03  0.72930015009E+03  0.00000000000E+00 0.  1.
<mgrwt>
<rscale>  0 0.14325507E+04</rscale>
<asrwt>0</asrwt>
<pdfrwt beam="1">  1        2 0.88368555E-01 0.14325507E+04</pdfrwt>
<pdfrwt beam="2">  1       -2 0.13741544E+00 0.14325507E+04</pdfrwt>
<totfact> 0.19122076E+01</totfact>
</mgrwt>
</event>
<event>
 6    1  0.1614874E-005  0.2509767E+04  0.7818608E-02  0.8399514E-01
          2   -1    0    0  501    0  0.00000000000E+00  0.00000000000E+00  0.16727083166E+04  0.16727083166E+04  0.00000000000E+00 0.  1.
         -2   -1    0    0    0  501 -0.00000000000E+00 -0.00000000000E+00 -0.94142722780E+03  0.94142722780E+03  0.00000000000E+00 0. -1.
         23    2    1    2    0    0  0.36212212465E+03 -0.10270374562E+04  0.10127669698E+04  0.14893365976E+04  0.80549340502E+02 0.  0.
         13    1    3    3    0    0  0.25593685239E+03 -0.81735273134E+03  0.81217935650E+03  0.11803408266E+04  0.00000000000E+00 0. -1.
        -13    1    3    3    0    0  0.10618527226E+03 -0.20968472481E+03  0.20058761334E+03  0.30899577099E+03  0.00000000000E+00 0.  1.
         22    1    1    2    0    0 -0.36212212465E+03  0.10270374562E+04 -0.28148588103E+03  0.11247989468E+04  0.00000000000E+00 0. -1.
<mgrwt>
<rscale>  0 0.25097674E+04</rscale>
<asrwt>0</asrwt>
<pdfrwt beam="1">  1        2 0.25733974E+00 0.25097674E+04</pdfrwt>
<pdfrwt beam="2">  1       -2 0.14483496E+00 0.25097674E+04</pdfrwt>
<totfact> 0.29751366E+00</totfact>
</mgrwt>
</event>
<event>
 6    1  0.1614874E-005  0.3124567E+04  0.7818608E-02  0.8209028E-01
          2   -1    0    0  501    0  0.00000000000E+00  0.00000000000E+00  0.12537549537E+04  0.12537549537E+04  0.00000000000E+00 0. -1.
         -2   -1    0    0    0  501 -0.00000000000E+00 -0.00000000000E+00 -0.19467359281E+04  0.19467359281E+04  0.00000000000E+00 0.  1.
         23    2    1    2    0    0 -0.85997191674E+03 -0.67706368057E+03 -0.14866666058E+04  0.18484909533E+04  0.93671139058E+02 0.  0.
         11    1    3    3    0    0 -0.43807937381E+03 -0.36144862387E+03 -0.84668034286E+03  0.10195225591E+04  0.00000000000E+00 0.  1.
        -11    1    3    3    0    0 -0.42189254293E+03 -0.31561505670E+03 -0.63998626295E+03  0.82896839419E+03  0.00000000000E+00 0. -1.
         22    1    1    2    0    0  0.85997191674E+03  0.67706368057E+03  0.79368563140E+03  0.13519999285E+04  0.00000000000E+00 0. -1.
<mgrwt>
<rscale>  0 0.31245671E+04</rscale>
<asrwt>0</asrwt>
<pdfrwt beam="1">  1        2 0.19288538E+00 0.31245671E+04</pdfrwt>
<pdfrwt beam="2">  1       -2 0.29949784E+00 0.31245671E+04</pdfrwt>
<totfact> 0.47723264E-01</totfact>
</mgrwt>
</event>
<event>
 6    1  0.1614874E-005  0.1534674E+04  0.7818608E-02  0.8861717E-01
         -2   -1    0    0    0  501 -0.00000000000E+00  0.00000000000E+00  0.75997645663E+03  0.75997645663E+03  0.00000000000E+00 0.  1.
          2   -1    0    0  501    0  0.00000000000E+00 -0.00000000000E+00 -0.77476876403E+03  0.77476876403E+03  0.00000000000E+00 0. -1.
         23    2    1    2    0    0  0.22261029202E+03  0.66379567043E+03 -0.31467024060E+03  0.77309778975E+03  0.92102106419E+02 0.  0.
         11    1    3    3    0    0  0.73674653224E+02  0.30762909207E+03 -0.18162995058E+03  0.36476437842E+03  0.00000000000E+00 0. -1.
        -11    1    3    3    0    0  0.14893563880E+03  0.35616657836E+03 -0.13304029003E+03  0.40833341133E+03  0.00000000000E+00 0.  1.
         22    1    1    2    0    0 -0.22261029202E+03 -0.66379567043E+03  0.29987793320E+03  0.76164743091E+03  0.00000000000E+00 0.  1.
<mgrwt>
<rscale>  0 0.15346739E+04</rscale>
<asrwt>0</asrwt>
<pdfrwt beam="1">  1        2 0.11919519E+00 0.15346739E+04</pdfrwt>
<pdfrwt beam="2">  1       -2 0.11691946E+00 0.15346739E+04</pdfrwt>
<totfact> 0.19610825E+01</totfact>
</mgrwt>
</event>
<event>
 6    1  0.1614874E-005  0.4258279E+04  0.7818608E-02  0.7954378E-01
          1   -1    0    0  501    0  0.00000000000E+00  0.00000000000E+00  0.12815934666E+04  0.12815934666E+04  0.00000000000E+00 0. -1.
         -1   -1    0    0    0  501 -0.00000000000E+00 -0.00000000000E+00 -0.35371866741E+04  0.35371866741E+04  0.00000000000E+00 0.  1.
         23    2    1    2    0    0 -0.71057518711E+03  0.71904765381E+03 -0.32475361828E+04  0.34024830352E+04  0.91939767591E+02 0.  0.
         11    1    3    3    0    0 -0.16637536413E+03  0.20157294959E+03 -0.73282578927E+03  0.77803987893E+03  0.00000000000E+00 0.  1.
        -11    1    3    3    0    0 -0.54419982297E+03  0.51747470422E+03 -0.25147103936E+04  0.26244431562E+04  0.00000000000E+00 0. -1.
         22    1    1    2    0    0  0.71057518711E+03 -0.71904765381E+03  0.99194297535E+03  0.14162971056E+04  0.00000000000E+00 0. -1.
<mgrwt>
<rscale>  0 0.42582792E+04</rscale>
<asrwt>0</asrwt>
<pdfrwt beam="1">  1        1 0.19716823E+00 0.42582792E+04</pdfrwt>
<pdfrwt beam="2">  1       -1 0.54418257E+00 0.42582792E+04</pdfrwt>
<totfact> 0.57897765E-03</totfact>
</mgrwt>
</event>
<event>
 6    1  0.1614874E-005  0.5441798E+03  0.7818608E-02  0.1002850E+00
          1   -1    0    0  501    0  0.00000000000E+00  0.00000000000E+00  0.69042995830E+03  0.69042995830E+03  0.00000000000E+00 0. -1.
         -1   -1    0    0    0  501 -0.00000000000E+00 -0.00000000000E+00 -0.10722725401E+03  0.10722725401E+03  0.00000000000E+00 0.  1.
         23    2    1    2    0    0 -0.22891027559E+03 -0.11285864666E+03  0.40026009629E+03  0.48364290336E+03  0.92549040479E+02 0.  0.
         13    1    3    3    0    0 -0.15931840422E+03 -0.31670511376E+02  0.27020711646E+03  0.31527331159E+03  0.00000000000E+00 0. -1.
        -13    1    3    3    0    0 -0.69591871371E+02 -0.81188135282E+02  0.13005297983E+03  0.16836959178E+03  0.00000000000E+00 0.  1.
         22    1    1    2    0    0  0.22891027559E+03  0.11285864666E+03  0.18294260800E+03  0.31401430894E+03  0.00000000000E+00 0. -1.
<mgrwt>
<rscale>  0 0.54417978E+03</rscale>
<asrwt>0</asrwt>
<pdfrwt beam="1">  1        1 0.10621999E+00 0.54417978E+03</pdfrwt>
<pdfrwt beam="2">  1       -1 0.16496501E-01 0.54417978E+03</pdfrwt>
<totfact> 0.78995562E+02</totfact>
</mgrwt>
</event>
<event>
 6    1  0.1614874E-005  0.3386045E+04  0.7818608E-02  0.8141340E-01
         -2   -1    0    0    0  501 -0.00000000000E+00  0.00000000000E+00  0.10206838140E+04  0.10206838140E+04  0.00000000000E+00 0.  1.
          2   -1    0    0  501    0  0.00000000000E+00 -0.00000000000E+00 -0.28082394435E+04  0.28082394435E+04  0.00000000000E+00 0. -1.
         23    2    1    2    0    0  0.14974068435E+04  0.33373578745E+03 -0.17008460957E+04  0.22923278735E+04  0.91009930431E+02 0.  0.
         11    1    3    3    0    0  0.13103493805E+04  0.29593176832E+03 -0.15316128390E+04  0.20372601697E+04  0.00000000000E+00 0.  1.
        -11    1    3    3    0    0  0.18705746306E+03  0.37804019127E+02 -0.16923325668E+03  0.25506770379E+03  0.00000000000E+00 0. -1.
         22    1    1    2    0    0 -0.14974068435E+04 -0.33373578745E+03 -0.86709533759E+02  0.15365953840E+04  0.00000000000E+00 0.  1.
<mgrwt>
<rscale>  0 0.33860446E+04</rscale>
<asrwt>0</asrwt>
<pdfrwt beam="1">  1        2 0.43203683E+00 0.33860446E+04</pdfrwt>
<pdfrwt beam="2">  1       -2 0.15702828E+00 0.33860446E+04</pdfrwt>
<totfact> 0.50229221E-01</totfact>
</mgrwt>
</event>
<event>
 6    1  0.1614874E-005  0.2450937E+04  0.7818608E-02  0.8420676E-01
          2   -1    0    0  501    0  0.00000000000E+00  0.00000000000E+00  0.11099837984E+04  0.11099837984E+04  0.00000000000E+00 0. -1.
         -2   -1    0    0    0  501 -0.00000000000E+00 -0.00000000000E+00 -0.13529687131E+04  0.13529687131E+04  0.00000000000E+00 0.  1.
         23    2    1    2    0    0  0.15697783244E+03  0.34146848941E+03 -0.12921832123E+04  0.13484751286E+04  0.86052014592E+02 0.  0.
         13    1    3    3    0    0  0.75608669038E+02  0.14987568393E+03 -0.72838010680E+03  0.74747372626E+03  0.00000000000E+00 0.  1.
        -13    1    3    3    0    0  0.81369163406E+02  0.19159280548E+03 -0.56380310548E+03  0.60100140234E+03  0.00000000000E+00 0. -1.
         22    1    1    2    0    0 -0.15697783244E+03 -0.34146848941E+03  0.10491982976E+04  0.11144773829E+04  0.00000000000E+00 0. -1.
<mgrwt>
<rscale>  0 0.24509373E+04</rscale>
<asrwt>0</asrwt>
<pdfrwt beam="1">  1        2 0.17076674E+00 0.24509373E+04</pdfrwt>
<pdfrwt beam="2">  1       -2 0.20814903E+00 0.24509373E+04</pdfrwt>
<totfact> 0.22636244E+00</totfact>
</mgrwt>
</event>
<event>
 6    1  0.1614874E-005  0.1070075E+04  0.7818608E-02  0.9234860E-01
         -2   -1    0    0    0  501 -0.00000000000E+00  0.00000000000E+00  0.25508551127E+03  0.25508551127E+03  0.00000000000E+00 0.  1.
          2   -1    0    0  501    0  0.00000000000E+00 -0.00000000000E+00 -0.11222324984E+04  0.11222324984E+04  0.00000000000E+00 0. -1.
         23    2    1    2    0    0  0.18031299385E+03 -0.35093707822E+02  0.20393979523E+03  0.29059300332E+03  0.95438511181E+02 0.  0.
         11    1    3    3    0    0  0.13662347208E+03  0.12115403911E+02  0.10567375576E+03  0.17314646630E+03  0.00000000000E+00 0.  1.
        -11    1    3    3    0    0  0.43689521767E+02 -0.47209111733E+02  0.98266039478E+02  0.11744653702E+03  0.00000000000E+00 0. -1.
         22    1    1    2    0    0 -0.18031299385E+03  0.35093707822E+02 -0.10710867824E+04  0.10867250064E+04  0.00000000000E+00 0. -1.
<mgrwt>
<rscale>  0 0.10700752E+04</rscale>
<asrwt>0</asrwt>
<pdfrwt beam="1">  1        2 0.17265115E+00 0.10700752E+04</pdfrwt>
<pdfrwt beam="2">  1       -2 0.39243925E-01 0.10700752E+04</pdfrwt>
<totfact> 0.12878921E+02</totfact>
</mgrwt>
</event>
<event>
 6    1  0.1614874E-005  0.2378151E+04  0.7818608E-02  0.8447729E-01
         -2   -1    0    0    0  501 -0.00000000000E+00  0.00000000000E+00  0.74378155597E+03  0.74378155597E+03  0.00000000000E+00 0. -1.
          2   -1    0    0  501    0  0.00000000000E+00 -0.00000000000E+00 -0.19009626695E+04  0.19009626695E+04  0.00000000000E+00 0.  1.
         23    2    1    2    0    0 -0.22587128738E+02 -0.71184133020E+03 -0.16359664524E+04  0.17865696171E+04  0.90644943870E+02 0.  0.
         13    1    3    3    0    0  0.27332112126E+02 -0.47807410243E+03 -0.10810341328E+04  0.11823437267E+04  0.00000000000E+00 0.  1.
        -13    1    3    3    0    0 -0.49919240864E+02 -0.23376722777E+03 -0.55493231956E+03  0.60422589045E+03  0.00000000000E+00 0. -1.
         22    1    1    2    0    0  0.22587128738E+02  0.71184133020E+03  0.47878533882E+03  0.85817460836E+03  0.00000000000E+00 0. -1.
<mgrwt>
<rscale>  0 0.23781514E+04</rscale>
<asrwt>0</asrwt>
<pdfrwt beam="1">  1        2 0.29245579E+00 0.23781514E+04</pdfrwt>
<pdfrwt beam="2">  1       -2 0.11442793E+00 0.23781514E+04</pdfrwt>
<totfact> 0.40779932E+00</totfact>
</mgrwt>
</event>
<event>
 6    1  0.1614874E-005  0.2180886E+04  0.7818608E-02  0.8526426E-01
          2   -1    0    0  501    0  0.00000000000E+00  0.00000000000E+00  0.30249792851E+04  0.30249792851E+04  0.00000000000E+00 0. -1.
         -2   -1    0    0    0  501 -0.00000000000E+00 -0.00000000000E+00 -0.39308233873E+03  0.39308233873E+03  0.00000000000E+00 0.  1.
         23    2    1    2    0    0  0.17090266757E+03  0.11353810939E+03  0.29937500825E+04  0.30020852829E+04  0.88757337007E+02 0.  0.
         13    1    3    3    0    0  0.15078389146E+03  0.74739522938E+02  0.18923727842E+04  0.18998411861E+04  0.00000000000E+00 0.  1.
        -13    1    3    3    0    0  0.20118776115E+02  0.38798586450E+02  0.11013772984E+04  0.11022440968E+04  0.00000000000E+00 0. -1.
         22    1    1    2    0    0 -0.17090266757E+03 -0.11353810939E+03 -0.36185313618E+03  0.41597634095E+03  0.00000000000E+00 0.  1.
<mgrwt>
<rscale>  0 0.21808860E+04</rscale>
<asrwt>0</asrwt>
<pdfrwt beam="1">  1        2 0.46538141E+00 0.21808860E+04</pdfrwt>
<pdfrwt beam="2">  1       -2 0.60474208E-01 0.21808860E+04</pdfrwt>
<totfact> 0.39213885E+00</totfact>
</mgrwt>
</event>
<event>
 6    1  0.1614874E-005  0.9492571E+03  0.7818608E-02  0.9366019E-01
          2   -1    0    0  501    0  0.00000000000E+00  0.00000000000E+00  0.25443321965E+04  0.25443321965E+04  0.00000000000E+00 0. -1.
         -2   -1    0    0    0  501 -0.00000000000E+00 -0.00000000000E+00 -0.88538846120E+02  0.88538846120E+02  0.00000000000E+00 0.  1.
         23    2    1    2    0    0  0.15547053236E+03 -0.17166145638E+03  0.23742723180E+04  0.23873421833E+04  0.92708781311E+02 0.  0.
         11    1    3    3    0    0  0.66250228226E+02 -0.19907682342E+02  0.88557263201E+03  0.88827039528E+03  0.00000000000E+00 0. -1.
        -11    1    3    3    0    0  0.89220304134E+02 -0.15175377404E+03  0.14886996860E+04  0.14990717880E+04  0.00000000000E+00 0.  1.
         22    1    1    2    0    0 -0.15547053236E+03  0.17166145638E+03  0.81521032392E+02  0.24552885933E+03  0.00000000000E+00 0.  1.
<mgrwt>
<rscale>  0 0.94925705E+03</rscale>
<asrwt>0</asrwt>
<pdfrwt beam="1">  1        2 0.39143567E+00 0.94925705E+03</pdfrwt>
<pdfrwt beam="2">  1       -2 0.13621363E-01 0.94925705E+03</pdfrwt>
<totfact> 0.13778976E+02</totfact>
</mgrwt>
</event>
<event>
 6    1  0.1614874E-005  0.1967009E+04  0.7818608E-02  0.8622202E-01
         -2   -1    0    0    0  501 -0.00000000000E+00  0.00000000000E+00  0.76593194453E+03  0.76593194453E+03  0.00000000000E+00 0.  1.
          2   -1    0    0  501    0  0.00000000000E+00 -0.00000000000E+00 -0.12628808333E+04  0.12628808333E+04  0.00000000000E+00 0. -1.
         23    2    1    2    0    0  0.76227138966E+03 -0.20501960714E+03  0.35230789957E+03  0.86936126812E+03  0.92614510724E+02 0.  0.
         13    1    3    3    0    0  0.67908041828E+03 -0.18441262340E+03  0.28039449955E+03  0.75748221467E+03  0.00000000000E+00 0. -1.
        -13    1    3    3    0    0  0.83190971376E+02 -0.20606983748E+02  0.71913400023E+02  0.11187905345E+03  0.00000000000E+00 0.  1.
         22    1    1    2    0    0 -0.76227138966E+03  0.20501960714E+03 -0.84925678832E+03  0.11594515097E+04  0.00000000000E+00 0. -1.
<mgrwt>
<rscale>  0 0.19670087E+04</rscale>
<asrwt>0</asrwt>
<pdfrwt beam="1">  1        2 0.19428936E+00 0.19670087E+04</pdfrwt>
<pdfrwt beam="2">  1       -2 0.11783569E+00 0.19670087E+04</pdfrwt>
<totfact> 0.89955505E+00</totfact>
</mgrwt>
</event>
<event>
 6    1  0.1614874E-005  0.3516373E+04  0.7818608E-02  0.8109921E-01
          2   -1    0    0  501    0  0.00000000000E+00  0.00000000000E+00  0.11880226413E+04  0.11880226413E+04  0.00000000000E+00 0. -1.
         -2   -1    0    0    0  501 -0.00000000000E+00 -0.00000000000E+00 -0.26019875472E+04  0.26019875472E+04  0.00000000000E+00 0.  1.
         23    2    1    2    0    0 -0.11931546088E+04  0.66841191880E+03 -0.18964000777E+04  0.23397908573E+04  0.88857119223E+02 0.  0.
         11    1    3    3    0    0 -0.82216779080E+03  0.43636698407E+03 -0.12280236776E+04  0.15409147198E+04  0.00000000000E+00 0. -1.
        -11    1    3    3    0    0 -0.37098681798E+03  0.23204493473E+03 -0.66837640012E+03  0.79887613751E+03  0.00000000000E+00 0.  1.
         22    1    1    2    0    0  0.11931546088E+04 -0.66841191880E+03  0.48243517174E+03  0.14502193312E+04  0.00000000000E+00 0. -1.
<mgrwt>
<rscale>  0 0.35163732E+04</rscale>
<asrwt>0</asrwt>
<pdfrwt beam="1">  1        2 0.18277271E+00 0.35163732E+04</pdfrwt>
<pdfrwt beam="2">  1       -2 0.40030577E+00 0.35163732E+04</pdfrwt>
<totfact> 0.11665147E-01</totfact>
</mgrwt>
</event>
<event>
 6    1  0.1614874E-005  0.2688041E+04  0.7818608E-02  0.8338896E-01
          2   -1    0    0  501    0  0.00000000000E+00  0.00000000000E+00  0.15004509423E+04  0.15004509423E+04  0.00000000000E+00 0. -1.
         -2   -1    0    0    0  501 -0.00000000000E+00 -0.00000000000E+00 -0.12038989555E+04  0.12038989555E+04  0.00000000000E+00 0.  1.
         23    2    1    2    0    0 -0.10536514974E+04  0.35224327849E+03  0.90672751102E+03  0.14368440890E+04  0.90051938341E+02 0.  0.
         13    1    3    3    0    0 -0.26136176638E+03  0.86521011407E+02  0.27635209298E+03  0.39008503898E+03  0.00000000000E+00 0.  1.
        -13    1    3    3    0    0 -0.79228973101E+03  0.26572226708E+03  0.63037541803E+03  0.10467590500E+04  0.00000000000E+00 0. -1.
         22    1    1    2    0    0  0.10536514974E+04 -0.35224327849E+03 -0.61017552422E+03  0.12675058089E+04  0.00000000000E+00 0.  1.
<mgrwt>
<rscale>  0 0.26880412E+04</rscale>
<asrwt>0</asrwt>
<pdfrwt beam="1">  1        2 0.23083860E+00 0.26880412E+04</pdfrwt>
<pdfrwt beam="2">  1       -2 0.18521523E+00 0.26880412E+04</pdfrwt>
<totfact> 0.18605918E+00</totfact>
</mgrwt>
</event>
<event>
 6    1  0.2444658E-005  0.2516197E+04  0.7818608E-02  0.8397238E-01
          1   -1    0    0  501    0  0.00000000000E+00  0.00000000000E+00  0.18713161090E+04  0.18713161090E+04  0.00000000000E+00 0. -1.
         -1   -1    0    0    0  501 -0.00000000000E+00 -0.00000000000E+00 -0.84582782373E+03  0.84582782373E+03  0.00000000000E+00 0.  1.
         23    2    1    2    0    0  0.42580920071E+03 -0.28201159204E+03 -0.72618177968E+03  0.89253656952E+03  0.91856068545E+02 0.  0.
         13    1    3    3    0    0  0.35559914063E+03 -0.23870935615E+03 -0.54253494720E+03  0.69121420302E+03  0.00000000000E+00 0. -1.
        -13    1    3    3    0    0  0.70210060082E+02 -0.43302235899E+02 -0.18364683248E+03  0.20132236650E+03  0.00000000000E+00 0.  1.
         22    1    1    2    0    0 -0.42580920071E+03  0.28201159204E+03  0.17516700650E+04  0.18246073632E+04  0.00000000000E+00 0. -1.
<mgrwt>
<rscale>  0 0.25161965E+04</rscale>
<asrwt>0</asrwt>
<pdfrwt beam="1">  1        1 0.28789478E+00 0.25161965E+04</pdfrwt>
<pdfrwt beam="2">  1       -1 0.13012736E+00 0.25161965E+04</pdfrwt>
<totfact> 0.16352176E+00</totfact>
</mgrwt>
</event>
<event>
 6    1  0.1614874E-005  0.2818991E+04  0.7818608E-02  0.8297397E-01
          2   -1    0    0  501    0  0.00000000000E+00  0.00000000000E+00  0.11255447569E+04  0.11255447569E+04  0.00000000000E+00 0.  1.
         -2   -1    0    0    0  501 -0.00000000000E+00 -0.00000000000E+00 -0.17650804281E+04  0.17650804281E+04  0.00000000000E+00 0. -1.
         23    2    1    2    0    0 -0.54593076143E+03  0.10550799456E+04 -0.10950534614E+04  0.16183317655E+04  0.92852206041E+02 0.  0.
         11    1    3    3    0    0 -0.48075670704E+03  0.85522574259E+03 -0.88842927971E+03  0.13235726906E+04  0.00000000000E+00 0.  1.
        -11    1    3    3    0    0 -0.65174054385E+02  0.19985420304E+03 -0.20662418166E+03  0.29475907498E+03  0.00000000000E+00 0. -1.
         22    1    1    2    0    0  0.54593076143E+03 -0.10550799456E+04  0.45551779022E+03  0.12722934194E+04  0.00000000000E+00 0.  1.
<mgrwt>
<rscale>  0 0.28189906E+04</rscale>
<asrwt>0</asrwt>
<pdfrwt beam="1">  1        2 0.17316073E+00 0.28189906E+04</pdfrwt>
<pdfrwt beam="2">  1       -2 0.27155084E+00 0.28189906E+04</pdfrwt>
<totfact> 0.86566267E-01</totfact>
</mgrwt>
</event>
<event>
 6    1  0.1614874E-005  0.2927133E+04  0.7818608E-02  0.8264850E-01
          2   -1    0    0  501    0  0.00000000000E+00  0.00000000000E+00  0.20257495630E+04  0.20257495630E+04  0.00000000000E+00 0. -1.
         -2   -1    0    0    0  501 -0.00000000000E+00 -0.00000000000E+00 -0.10573993846E+04  0.10573993846E+04  0.00000000000E+00 0.  1.
         23    2    1    2    0    0  0.20998154291E+03  0.13785750629E+04  0.21779184007E+02  0.13977534154E+04  0.93160211957E+02 0.  0.
         13    1    3    3    0    0  0.12149248559E+03  0.75739043627E+03  0.57930029659E+02  0.76925716464E+03  0.00000000000E+00 0.  1.
        -13    1    3    3    0    0  0.88489057322E+02  0.62118462660E+03 -0.36150845652E+02  0.62849625077E+03  0.00000000000E+00 0. -1.
         22    1    1    2    0    0 -0.20998154291E+03 -0.13785750629E+04  0.94657099446E+03  0.16853955322E+04  0.00000000000E+00 0. -1.
<mgrwt>
<rscale>  0 0.29271326E+04</rscale>
<asrwt>0</asrwt>
<pdfrwt beam="1">  1        2 0.31165378E+00 0.29271326E+04</pdfrwt>
<pdfrwt beam="2">  1       -2 0.16267683E+00 0.29271326E+04</pdfrwt>
<totfact> 0.13401013E+00</totfact>
</mgrwt>
</event>
<event>
 6    1  0.1614874E-005  0.1337048E+04  0.7818608E-02  0.9000691E-01
          1   -1    0    0  501    0  0.00000000000E+00  0.00000000000E+00  0.13602924688E+04  0.13602924688E+04  0.00000000000E+00 0. -1.
         -1   -1    0    0    0  501 -0.00000000000E+00 -0.00000000000E+00 -0.32854996322E+03  0.32854996322E+03  0.00000000000E+00 0.  1.
         23    2    1    2    0    0  0.28262068090E+03 -0.21311947488E+03 -0.19334756134E+03  0.41364047473E+03  0.91764933446E+02 0.  0.
         11    1    3    3    0    0  0.72871405537E+02 -0.14821708146E+02 -0.60616149607E+02  0.95938742803E+02  0.00000000000E+00 0.  1.
        -11    1    3    3    0    0  0.20974927536E+03 -0.19829776673E+03 -0.13273141173E+03  0.31770173192E+03  0.00000000000E+00 0. -1.
         22    1    1    2    0    0 -0.28262068090E+03  0.21311947488E+03  0.12250900669E+04  0.12752019573E+04  0.00000000000E+00 0. -1.
<mgrwt>
<rscale>  0 0.13370476E+04</rscale>
<asrwt>0</asrwt>
<pdfrwt beam="1">  1        1 0.20927576E+00 0.13370476E+04</pdfrwt>
<pdfrwt beam="2">  1       -1 0.50546149E-01 0.13370476E+04</pdfrwt>
<totfact> 0.31561302E+01</totfact>
</mgrwt>
</event>
<event>
 6    1  0.1614874E-005  0.2574601E+04  0.7818608E-02  0.8376880E-01
          1   -1    0    0  501    0  0.00000000000E+00  0.00000000000E+00  0.12631715374E+04  0.12631715374E+04  0.00000000000E+00 0. -1.
         -1   -1    0    0    0  501 -0.00000000000E+00 -0.00000000000E+00 -0.13118903493E+04  0.13118903493E+04  0.00000000000E+00 0.  1.
         23    2    1    2    0    0  0.22407496669E+03  0.78022279689E+03  0.97282619839E+03  0.12702586787E+04  0.90604056275E+02 0.  0.
         13    1    3    3    0    0  0.91427879811E+02  0.19355715009E+03  0.22497264191E+03  0.31054165126E+03  0.00000000000E+00 0. -1.
        -13    1    3    3    0    0  0.13264708688E+03  0.58666564680E+03  0.74785355648E+03  0.95971702742E+03  0.00000000000E+00 0.  1.
         22    1    1    2    0    0 -0.22407496669E+03 -0.78022279689E+03 -0.10215450103E+04  0.13048032080E+04  0.00000000000E+00 0.  1.
<mgrwt>
<rscale>  0 0.25746010E+04</rscale>
<asrwt>0</asrwt>
<pdfrwt beam="1">  1        1 0.19433408E+00 0.25746010E+04</pdfrwt>
<pdfrwt beam="2">  1       -1 0.20182928E+00 0.25746010E+04</pdfrwt>
<totfact> 0.12406670E+00</totfact>
</mgrwt>
</event>
<event>
 6    1  0.1614874E-005  0.1036076E+04  0.7818608E-02  0.9269839E-01
          1   -1    0    0  501    0  0.00000000000E+00  0.00000000000E+00  0.37367758150E+03  0.37367758150E+03  0.00000000000E+00 0. -1.
         -1   -1    0    0    0  501 -0.00000000000E+00 -0.00000000000E+00 -0.71816836849E+03  0.71816836849E+03  0.00000000000E+00 0.  1.
         23    2    1    2    0    0  0.91259913533E+02  0.97643094166E+02  0.34981116507E+03  0.38479733336E+03  0.88535817034E+02 0.  0.
         11    1    3    3    0    0  0.86290252480E+02  0.40863161988E+02  0.15713302431E+03  0.18386569285E+03  0.00000000000E+00 0. -1.
        -11    1    3    3    0    0  0.49696610529E+01  0.56779932178E+02  0.19267814076E+03  0.20093164050E+03  0.00000000000E+00 0.  1.
         22    1    1    2    0    0 -0.91259913533E+02 -0.97643094166E+02 -0.69430195206E+03  0.70704861663E+03  0.00000000000E+00 0.  1.
<mgrwt>
<rscale>  0 0.10360761E+04</rscale>
<asrwt>0</asrwt>
<pdfrwt beam="1">  1        1 0.57488859E-01 0.10360761E+04</pdfrwt>
<pdfrwt beam="2">  1       -1 0.11048744E+00 0.10360761E+04</pdfrwt>
<totfact> 0.49653251E+01</totfact>
</mgrwt>
</event>
<event>
 6    1  0.1614874E-005  0.2363805E+04  0.7818608E-02  0.8453180E-01
          1   -1    0    0  501    0  0.00000000000E+00  0.00000000000E+00  0.14026007668E+04  0.14026007668E+04  0.00000000000E+00 0. -1.
         -1   -1    0    0    0  501 -0.00000000000E+00 -0.00000000000E+00 -0.99593134726E+03  0.99593134726E+03  0.00000000000E+00 0.  1.
         23    2    1    2    0    0 -0.54645150824E+03  0.88147840299E+03  0.77502602978E+03  0.12979413553E+04  0.91504039261E+02 0.  0.
         13    1    3    3    0    0 -0.50352313029E+03  0.81039250956E+03  0.67923929849E+03  0.11711693246E+04  0.00000000000E+00 0. -1.
        -13    1    3    3    0    0 -0.42928377945E+02  0.71085893428E+02  0.95786731286E+02  0.12677203070E+03  0.00000000000E+00 0.  1.
         22    1    1    2    0    0  0.54645150824E+03 -0.88147840299E+03 -0.36835661029E+03  0.11005907587E+04  0.00000000000E+00 0.  1.
<mgrwt>
<rscale>  0 0.23638055E+04</rscale>
<asrwt>0</asrwt>
<pdfrwt beam="1">  1        1 0.21578473E+00 0.23638055E+04</pdfrwt>
<pdfrwt beam="2">  1       -1 0.15322021E+00 0.23638055E+04</pdfrwt>
<totfact> 0.22652625E+00</totfact>
</mgrwt>
</event>
<event>
 6    1  0.1614874E-005  0.2419344E+04  0.7818608E-02  0.8432297E-01
         -1   -1    0    0    0  501 -0.00000000000E+00  0.00000000000E+00  0.61307179272E+03  0.61307179272E+03  0.00000000000E+00 0.  1.
          1   -1    0    0  501    0  0.00000000000E+00 -0.00000000000E+00 -0.23868425235E+04  0.23868425235E+04  0.00000000000E+00 0. -1.
         23    2    1    2    0    0  0.72602986771E+03 -0.84572838378E+03 -0.14655470161E+04  0.18434638304E+04  0.90304870375E+02 0.  0.
         13    1    3    3    0    0  0.47079121722E+03 -0.59944702304E+03 -0.10418991450E+04  0.12909434271E+04  0.00000000000E+00 0.  1.
        -13    1    3    3    0    0  0.25523865050E+03 -0.24628136074E+03 -0.42364787110E+03  0.55252040328E+03  0.00000000000E+00 0. -1.
         22    1    1    2    0    0 -0.72602986771E+03  0.84572838378E+03 -0.30822371470E+03  0.11564504859E+04  0.00000000000E+00 0.  1.
<mgrwt>
<rscale>  0 0.24193436E+04</rscale>
<asrwt>0</asrwt>
<pdfrwt beam="1">  1        1 0.36720654E+00 0.24193436E+04</pdfrwt>
<pdfrwt beam="2">  1       -1 0.94318737E-01 0.24193436E+04</pdfrwt>
<totfact> 0.15788803E+00</totfact>
</mgrwt>
</event>
<event>
 6    1  0.1614874E-005  0.1663050E+04  0.7818608E-02  0.8782723E-01
          2   -1    0    0  501    0  0.00000000000E+00  0.00000000000E+00  0.13794612227E+04  0.13794612227E+04  0.00000000000E+00 0.  1.
         -2   -1    0    0    0  501 -0.00000000000E+00 -0.00000000000E+00 -0.50123498120E+03  0.50123498120E+03  0.00000000000E+00 0. -1.
         23    2    1    2    0    0 -0.73376236816E+03  0.36611342812E+03  0.30349545121E+03  0.87931628776E+03  0.92959076226E+02 0.  0.
         11    1    3    3    0    0 -0.41257111208E+03  0.21446027166E+03  0.22020186915E+03  0.51448711726E+03  0.00000000000E+00 0.  1.
        -11    1    3    3    0    0 -0.32119125607E+03  0.15165315645E+03  0.83293582062E+02  0.36482917051E+03  0.00000000000E+00 0. -1.
         22    1    1    2    0    0  0.73376236816E+03 -0.36611342812E+03  0.57473079032E+03  0.10013799162E+04  0.00000000000E+00 0. -1.
<mgrwt>
<rscale>  0 0.16630505E+04</rscale>
<asrwt>0</asrwt>
<pdfrwt beam="1">  1        2 0.21222480E+00 0.16630505E+04</pdfrwt>
<pdfrwt beam="2">  1       -2 0.77113075E-01 0.16630505E+04</pdfrwt>
<totfact> 0.21298940E+01</totfact>
</mgrwt>
</event>
<event>
 6    1  0.1614874E-005  0.1261944E+04  0.7818608E-02  0.9060301E-01
         -2   -1    0    0    0  501 -0.00000000000E+00  0.00000000000E+00  0.16637279849E+03  0.16637279849E+03  0.00000000000E+00 0.  1.
          2   -1    0    0  501    0  0.00000000000E+00 -0.00000000000E+00 -0.23929719263E+04  0.23929719263E+04  0.00000000000E+00 0. -1.
         23    2    1    2    0    0  0.12420979622E+03  0.97948867616E+02 -0.23510556250E+04  0.23580701019E+04  0.89498598789E+02 0.  0.
         11    1    3    3    0    0  0.70583945746E+02  0.11382306487E+02 -0.13381630115E+04  0.13400716010E+04  0.00000000000E+00 0.  1.
        -11    1    3    3    0    0  0.53625850470E+02  0.86566561129E+02 -0.10128926135E+04  0.10179985009E+04  0.00000000000E+00 0. -1.
         22    1    1    2    0    0 -0.12420979622E+03 -0.97948867616E+02  0.12445649720E+03  0.20127462294E+03  0.00000000000E+00 0.  1.
<mgrwt>
<rscale>  0 0.12619436E+04</rscale>
<asrwt>0</asrwt>
<pdfrwt beam="1">  1        2 0.36814953E+00 0.12619436E+04</pdfrwt>
<pdfrwt beam="2">  1       -2 0.25595815E-01 0.12619436E+04</pdfrwt>
<totfact> 0.54421624E+01</totfact>
</mgrwt>
</event>
<event>
 6    1  0.1614874E-005  0.2270709E+03  0.7818608E-02  0.1128719E+00
         -1   -1    0    0    0  501 -0.00000000000E+00  0.00000000000E+00  0.42134441424E+02  0.42134441424E+02  0.00000000000E+00 0. -1.
          1   -1    0    0  501    0  0.00000000000E+00 -0.00000000000E+00 -0.30593270077E+03  0.30593270077E+03  0.00000000000E+00 0.  1.
         23    2    1    2    0    0 -0.82846036486E+02 -0.42706973282E+02 -0.14947925795E+03  0.20056736115E+03  0.95895080543E+02 0.  0.
         11    1    3    3    0    0 -0.43736522939E+01  0.23187552887E+02 -0.60202659193E+02  0.64661825037E+02  0.00000000000E+00 0. -1.
        -11    1    3    3    0    0 -0.78472384192E+02 -0.65894526169E+02 -0.89276598755E+02  0.13590553611E+03  0.00000000000E+00 0.  1.
         22    1    1    2    0    0  0.82846036486E+02  0.42706973282E+02 -0.11431900140E+03  0.14749978105E+03  0.00000000000E+00 0.  1.
<mgrwt>
<rscale>  0 0.22707094E+03</rscale>
<asrwt>0</asrwt>
<pdfrwt beam="1">  1        1 0.47066567E-01 0.22707094E+03</pdfrwt>
<pdfrwt beam="2">  1       -1 0.64822221E-02 0.22707094E+03</pdfrwt>
<totfact> 0.99555450E+03</totfact>
</mgrwt>
</event>
<event>
 6    1  0.1614874E-005  0.1631838E+04  0.7818608E-02  0.8801224E-01
          1   -1    0    0  501    0  0.00000000000E+00  0.00000000000E+00  0.55431846563E+03  0.55431846563E+03  0.00000000000E+00 0. -1.
         -1   -1    0    0    0  501 -0.00000000000E+00 -0.00000000000E+00 -0.12009766609E+04  0.12009766609E+04  0.00000000000E+00 0.  1.
         23    2    1    2    0    0 -0.68871164669E+03 -0.40474011299E+03 -0.15938429190E+03  0.81957393504E+03  0.90331562257E+02 0.  0.
         13    1    3    3    0    0 -0.61861730272E+03 -0.37049129687E+03 -0.16998899730E+03  0.74084237695E+03  0.00000000000E+00 0.  1.
        -13    1    3    3    0    0 -0.70094343962E+02 -0.34248816121E+02  0.10604705406E+02  0.78731558081E+02  0.00000000000E+00 0. -1.
         22    1    1    2    0    0  0.68871164669E+03  0.40474011299E+03 -0.48727390342E+03  0.93572119154E+03  0.00000000000E+00 0.  1.
<mgrwt>
<rscale>  0 0.16318377E+04</rscale>
<asrwt>0</asrwt>
<pdfrwt beam="1">  1        1 0.85279764E-01 0.16318377E+04</pdfrwt>
<pdfrwt beam="2">  1       -1 0.18476564E+00 0.16318377E+04</pdfrwt>
<totfact> 0.70631084E+00</totfact>
</mgrwt>
</event>
<event>
 6    1  0.1614874E-005  0.2285131E+04  0.7818608E-02  0.8483807E-01
         -2   -1    0    0    0  501 -0.00000000000E+00  0.00000000000E+00  0.67780944514E+03  0.67780944514E+03  0.00000000000E+00 0.  1.
          2   -1    0    0  501    0  0.00000000000E+00 -0.00000000000E+00 -0.19259919962E+04  0.19259919962E+04  0.00000000000E+00 0. -1.
         23    2    1    2    0    0 -0.84321380601E+03  0.46825493880E+03 -0.13190672995E+04  0.16366939717E+04  0.92500843465E+02 0.  0.
         13    1    3    3    0    0 -0.73984998865E+03  0.38120655878E+03 -0.11015836601E+04  0.13806458657E+04  0.00000000000E+00 0. -1.
        -13    1    3    3    0    0 -0.10336381736E+03  0.87048380025E+02 -0.21748363932E+03  0.25604810598E+03  0.00000000000E+00 0.  1.
         22    1    1    2    0    0  0.84321380601E+03 -0.46825493880E+03  0.70884748388E+02  0.96710746968E+03  0.00000000000E+00 0.  1.
<mgrwt>
<rscale>  0 0.22851307E+04</rscale>
<asrwt>0</asrwt>
<pdfrwt beam="1">  1        2 0.29630646E+00 0.22851307E+04</pdfrwt>
<pdfrwt beam="2">  1       -2 0.10427838E+00 0.22851307E+04</pdfrwt>
<totfact> 0.49827523E+00</totfact>
</mgrwt>
</event>
<event>
 6    1  0.1614874E-005  0.3181490E+04  0.7818608E-02  0.8193723E-01
         -2   -1    0    0    0  501 -0.00000000000E+00  0.00000000000E+00  0.84510130937E+03  0.84510130937E+03  0.00000000000E+00 0.  1.
          2   -1    0    0  501    0  0.00000000000E+00 -0.00000000000E+00 -0.29942802864E+04  0.29942802864E+04  0.00000000000E+00 0. -1.
         23    2    1    2    0    0 -0.11919488017E+04 -0.45574510679E+03  0.67968979453E+02  0.12812200276E+04  0.91975152309E+02 0.  0.
         13    1    3    3    0    0 -0.41988579304E+03 -0.16101865157E+03  0.68012948628E+02  0.45481517843E+03  0.00000000000E+00 0.  1.
        -13    1    3    3    0    0 -0.77206300864E+03 -0.29472645523E+03 -0.43969174463E-01  0.82640484912E+03  0.00000000000E+00 0. -1.
         22    1    1    2    0    0  0.11919488017E+04  0.45574510679E+03 -0.22171479565E+04  0.25581615683E+04  0.00000000000E+00 0. -1.
<mgrwt>
<rscale>  0 0.31814903E+04</rscale>
<asrwt>0</asrwt>
<pdfrwt beam="1">  1        2 0.46065851E+00 0.31814903E+04</pdfrwt>
<pdfrwt beam="2">  1       -2 0.13001558E+00 0.31814903E+04</pdfrwt>
<totfact> 0.64236735E-01</totfact>
</mgrwt>
</event>
<event>
 6    1  0.1614874E-005  0.3032779E+04  0.7818608E-02  0.8234432E-01
          2   -1    0    0  501    0  0.00000000000E+00  0.00000000000E+00  0.26107700766E+04  0.26107700766E+04  0.00000000000E+00 0. -1.
         -2   -1    0    0    0  501 -0.00000000000E+00 -0.00000000000E+00 -0.88075047464E+03  0.88075047464E+03  0.00000000000E+00 0.  1.
         23    2    1    2    0    0 -0.59701689840E+03 -0.69015793538E+03 -0.52630552186E+03  0.10576449962E+04  0.94171561530E+02 0.  0.
         11    1    3    3    0    0 -0.10565826461E+03 -0.16845194410E+03 -0.86961874068E+02  0.21703016817E+03  0.00000000000E+00 0. -1.
        -11    1    3    3    0    0 -0.49135863379E+03 -0.52170599128E+03 -0.43934364780E+03  0.84061482808E+03  0.00000000000E+00 0.  1.
         22    1    1    2    0    0  0.59701689840E+03  0.69015793538E+03  0.22563251238E+04  0.24338755550E+04  0.00000000000E+00 0. -1.
<mgrwt>
<rscale>  0 0.30327789E+04</rscale>
<asrwt>0</asrwt>
<pdfrwt beam="1">  1        2 0.40165693E+00 0.30327789E+04</pdfrwt>
<pdfrwt beam="2">  1       -2 0.13550007E+00 0.30327789E+04</pdfrwt>
<totfact> 0.10003228E+00</totfact>
</mgrwt>
</event>
<event>
 6    1  0.1614874E-005  0.1265762E+04  0.7818608E-02  0.9057166E-01
          2   -1    0    0  501    0  0.00000000000E+00  0.00000000000E+00  0.16794243430E+04  0.16794243430E+04  0.00000000000E+00 0. -1.
         -2   -1    0    0    0  501 -0.00000000000E+00 -0.00000000000E+00 -0.23849725046E+03  0.23849725046E+03  0.00000000000E+00 0.  1.
         23    2    1    2    0    0 -0.27615375155E+03  0.53566639784E+03  0.10002867423E+04  0.11713539123E+04  0.91088071840E+02 0.  0.
         11    1    3    3    0    0 -0.43495864350E+02  0.41331154602E+02  0.13899688484E+03  0.15139447992E+03  0.00000000000E+00 0.  1.
        -11    1    3    3    0    0 -0.23265788720E+03  0.49433524324E+03  0.86128985747E+03  0.10199594324E+04  0.00000000000E+00 0. -1.
         22    1    1    2    0    0  0.27615375155E+03 -0.53566639784E+03  0.44064035026E+03  0.74656768116E+03  0.00000000000E+00 0. -1.
<mgrwt>
<rscale>  0 0.12657616E+04</rscale>
<asrwt>0</asrwt>
<pdfrwt beam="1">  1        2 0.25837297E+00 0.12657616E+04</pdfrwt>
<pdfrwt beam="2">  1       -2 0.36691886E-01 0.12657616E+04</pdfrwt>
<totfact> 0.69191525E+01</totfact>
</mgrwt>
</event>
<event>
 6    1  0.1614874E-005  0.2306108E+04  0.7818608E-02  0.8475517E-01
          2   -1    0    0  501    0  0.00000000000E+00  0.00000000000E+00  0.11750228174E+04  0.11750228174E+04  0.00000000000E+00 0. -1.
         -2   -1    0    0    0  501 -0.00000000000E+00 -0.00000000000E+00 -0.11314955872E+04  0.11314955872E+04  0.00000000000E+00 0.  1.
         23    2    1    2    0    0 -0.30975521246E+03  0.22134512874E+03  0.11084814449E+04  0.11755588842E+04  0.90915448976E+02 0.  0.
         11    1    3    3    0    0 -0.29686905966E+02  0.48672603231E+02  0.10450788438E+03  0.11904718640E+03  0.00000000000E+00 0.  1.
        -11    1    3    3    0    0 -0.28006830650E+03  0.17267252551E+03  0.10039735605E+04  0.10565116978E+04  0.00000000000E+00 0. -1.
         22    1    1    2    0    0  0.30975521246E+03 -0.22134512874E+03 -0.10649542146E+04  0.11309595205E+04  0.00000000000E+00 0.  1.
<mgrwt>
<rscale>  0 0.23061077E+04</rscale>
<asrwt>0</asrwt>
<pdfrwt beam="1">  1        2 0.18077274E+00 0.23061077E+04</pdfrwt>
<pdfrwt beam="2">  1       -2 0.17407624E+00 0.23061077E+04</pdfrwt>
<totfact> 0.35434188E+00</totfact>
</mgrwt>
</event>
<event>
 6    1  0.1614874E-005  0.3050159E+04  0.7818608E-02  0.8229551E-01
         -2   -1    0    0    0  501 -0.00000000000E+00  0.00000000000E+00  0.22386601990E+04  0.22386601990E+04  0.00000000000E+00 0.  1.
          2   -1    0    0  501    0  0.00000000000E+00 -0.00000000000E+00 -0.10389549173E+04  0.10389549173E+04  0.00000000000E+00 0. -1.
         23    2    1    2    0    0  0.75852786021E+03  0.11933430044E+04  0.12099873428E+04  0.18635649893E+04  0.96814558873E+02 0.  0.
         11    1    3    3    0    0  0.27407432346E+03  0.35104346189E+03  0.39754971260E+03  0.59698745456E+03  0.00000000000E+00 0.  1.
        -11    1    3    3    0    0  0.48445353675E+03  0.84229954252E+03  0.81243763019E+03  0.12665775348E+04  0.00000000000E+00 0. -1.
         22    1    1    2    0    0 -0.75852786021E+03 -0.11933430044E+04 -0.10282061140E+02  0.14140501270E+04  0.00000000000E+00 0. -1.
<mgrwt>
<rscale>  0 0.30501587E+04</rscale>
<asrwt>0</asrwt>
<pdfrwt beam="1">  1        2 0.15983922E+00 0.30501587E+04</pdfrwt>
<pdfrwt beam="2">  1       -2 0.34440926E+00 0.30501587E+04</pdfrwt>
<totfact> 0.34203857E-01</totfact>
</mgrwt>
</event>
<event>
 6    1  0.1614874E-005  0.3449298E+04  0.7818608E-02  0.8125912E-01
          2   -1    0    0  501    0  0.00000000000E+00  0.00000000000E+00  0.21178975142E+04  0.21178975142E+04  0.00000000000E+00 0. -1.
         -2   -1    0    0    0  501 -0.00000000000E+00 -0.00000000000E+00 -0.14044183155E+04  0.14044183155E+04  0.00000000000E+00 0.  1.
         23    2    1    2    0    0 -0.27084698836E+03 -0.20336867115E+03  0.20826049976E+04  0.21119178856E+04  0.90756111939E+02 0.  0.
         13    1    3    3    0    0 -0.78645839043E+02 -0.85937572814E+02  0.50160282837E+03  0.51495226171E+03  0.00000000000E+00 0. -1.
        -13    1    3    3    0    0 -0.19220114932E+03 -0.11743109833E+03  0.15810021692E+04  0.15969656238E+04  0.00000000000E+00 0.  1.
         22    1    1    2    0    0  0.27084698836E+03  0.20336867115E+03 -0.13691257989E+04  0.14103979441E+04  0.00000000000E+00 0.  1.
<mgrwt>
<rscale>  0 0.34492979E+04</rscale>
<asrwt>0</asrwt>
<pdfrwt beam="1">  1        2 0.32583039E+00 0.34492979E+04</pdfrwt>
<pdfrwt beam="2">  1       -2 0.21606436E+00 0.34492979E+04</pdfrwt>
<totfact> 0.49606406E-01</totfact>
</mgrwt>
</event>
<event>
 6    1  0.1614874E-005  0.2199027E+04  0.7818608E-02  0.8518833E-01
         -2   -1    0    0    0  501 -0.00000000000E+00  0.00000000000E+00  0.68207262274E+03  0.68207262274E+03  0.00000000000E+00 0.  1.
          2   -1    0    0  501    0  0.00000000000E+00 -0.00000000000E+00 -0.17724351371E+04  0.17724351371E+04  0.00000000000E+00 0. -1.
         23    2    1    2    0    0 -0.10783623174E+04 -0.20509903879E+03 -0.54149580542E+03  0.12272402391E+04  0.89274822555E+02 0.  0.
         11    1    3    3    0    0 -0.35351152928E+03 -0.92176130415E+02 -0.14231219814E+03  0.39207091462E+03  0.00000000000E+00 0.  1.
        -11    1    3    3    0    0 -0.72485078809E+03 -0.11292290837E+03 -0.39918360728E+03  0.83516932448E+03  0.00000000000E+00 0. -1.
         22    1    1    2    0    0  0.10783623174E+04  0.20509903879E+03 -0.54886670889E+03  0.12272675207E+04  0.00000000000E+00 0. -1.
<mgrwt>
<rscale>  0 0.21990266E+04</rscale>
<asrwt>0</asrwt>
<pdfrwt beam="1">  1        2 0.27268233E+00 0.21990266E+04</pdfrwt>
<pdfrwt beam="2">  1       -2 0.10493425E+00 0.21990266E+04</pdfrwt>
<totfact> 0.60153787E+00</totfact>
</mgrwt>
</event>
<event>
 6    1  0.1614874E-005  0.2123950E+04  0.7818608E-02  0.8550766E-01
         -1   -1    0    0    0  501 -0.00000000000E+00  0.00000000000E+00  0.51308653684E+03  0.51308653684E+03  0.00000000000E+00 0.  1.
          1   -1    0    0  501    0  0.00000000000E+00 -0.00000000000E+00 -0.21980528766E+04  0.21980528766E+04  0.00000000000E+00 0. -1.
         23    2    1    2    0    0 -0.49297810877E+03  0.62816501613E+03 -0.17340171261E+04  0.19111239868E+04  0.89223293558E+02 0.  0.
         13    1    3    3    0    0 -0.20585398213E+03  0.26382169757E+03 -0.62369440824E+03  0.70779408372E+03  0.00000000000E+00 0.  1.
        -13    1    3    3    0    0 -0.28712412663E+03  0.36434331856E+03 -0.11103227179E+04  0.12033299031E+04  0.00000000000E+00 0. -1.
         22    1    1    2    0    0  0.49297810877E+03 -0.62816501613E+03  0.49050786350E+02  0.80001542664E+03  0.00000000000E+00 0.  1.
<mgrwt>
<rscale>  0 0.21239504E+04</rscale>
<asrwt>0</asrwt>
<pdfrwt beam="1">  1        1 0.33816198E+00 0.21239504E+04</pdfrwt>
<pdfrwt beam="2">  1       -1 0.78936390E-01 0.21239504E+04</pdfrwt>
<totfact> 0.32185785E+00</totfact>
</mgrwt>
</event>
<event>
 6    1  0.1748561E-005  0.3267125E+04  0.7818608E-02  0.8171311E-01
          2   -1    0    0  501    0  0.00000000000E+00  0.00000000000E+00  0.17871583827E+04  0.17871583827E+04  0.00000000000E+00 0. -1.
         -2   -1    0    0    0  501 -0.00000000000E+00 -0.00000000000E+00 -0.14931673846E+04  0.14931673846E+04  0.00000000000E+00 0.  1.
         23    2    1    2    0    0  0.11942401141E+04  0.86242259822E+03 -0.55883803381E+03  0.15781801960E+04  0.91490956604E+02 0.  0.
         13    1    3    3    0    0  0.83176890447E+03  0.55002662285E+03 -0.36458484437E+03  0.10617395655E+04  0.00000000000E+00 0. -1.
        -13    1    3    3    0    0  0.36247120960E+03  0.31239597536E+03 -0.19425318944E+03  0.51644063049E+03  0.00000000000E+00 0.  1.
         22    1    1    2    0    0 -0.11942401141E+04 -0.86242259822E+03  0.85282903198E+03  0.17021455713E+04  0.00000000000E+00 0. -1.
<mgrwt>
<rscale>  0 0.32671251E+04</rscale>
<asrwt>0</asrwt>
<pdfrwt beam="1">  1        2 0.27494744E+00 0.32671251E+04</pdfrwt>
<pdfrwt beam="2">  1       -2 0.22971806E+00 0.32671251E+04</pdfrwt>
<totfact> 0.63066020E-01</totfact>
</mgrwt>
</event>
<event>
 6    1  0.1614874E-005  0.2346102E+04  0.7818608E-02  0.8459962E-01
          2   -1    0    0  501    0  0.00000000000E+00  0.00000000000E+00  0.12789906564E+04  0.12789906564E+04  0.00000000000E+00 0. -1.
         -2   -1    0    0    0  501 -0.00000000000E+00 -0.00000000000E+00 -0.10758865766E+04  0.10758865766E+04  0.00000000000E+00 0.  1.
         23    2    1    2    0    0  0.30549942481E+03 -0.71439090339E+02  0.12343698023E+04  0.12769428970E+04  0.92091862334E+02 0.  0.
         13    1    3    3    0    0  0.18726763930E+03  0.22868948057E+01  0.67792151520E+03  0.70331499301E+03  0.00000000000E+00 0.  1.
        -13    1    3    3    0    0  0.11823178551E+03 -0.73725985144E+02  0.55644828715E+03  0.57362790401E+03  0.00000000000E+00 0. -1.
         22    1    1    2    0    0 -0.30549942481E+03  0.71439090339E+02 -0.10312657226E+04  0.10779343360E+04  0.00000000000E+00 0.  1.
<mgrwt>
<rscale>  0 0.23461022E+04</rscale>
<asrwt>0</asrwt>
<pdfrwt beam="1">  1        2 0.19676779E+00 0.23461022E+04</pdfrwt>
<pdfrwt beam="2">  1       -2 0.16552101E+00 0.23461022E+04</pdfrwt>
<totfact> 0.35256513E+00</totfact>
</mgrwt>
</event>
<event>
 6    1  0.1614874E-005  0.2006228E+04  0.7818608E-02  0.8603714E-01
         -4   -1    0    0    0  501 -0.00000000000E+00  0.00000000000E+00  0.12440211492E+04  0.12440211492E+04  0.00000000000E+00 0.  1.
          4   -1    0    0  501    0  0.00000000000E+00 -0.00000000000E+00 -0.80885929114E+03  0.80885929114E+03  0.00000000000E+00 0. -1.
         23    2    1    2    0    0  0.37741123395E+02 -0.38381995111E+03 -0.72699693228E+03  0.82839883525E+03  0.94752010156E+02 0.  0.
         11    1    3    3    0    0  0.26679715846E+02 -0.16444788167E+03 -0.41174427359E+03  0.44417143071E+03  0.00000000000E+00 0. -1.
        -11    1    3    3    0    0  0.11061407549E+02 -0.21937206944E+03 -0.31525265869E+03  0.38422740454E+03  0.00000000000E+00 0.  1.
         22    1    1    2    0    0 -0.37741123395E+02  0.38381995111E+03  0.11621587904E+04  0.12244816051E+04  0.00000000000E+00 0.  1.
<mgrwt>
<rscale>  0 0.20062284E+04</rscale>
<asrwt>0</asrwt>
<pdfrwt beam="1">  1        4 0.12443989E+00 0.20062284E+04</pdfrwt>
<pdfrwt beam="2">  1       -4 0.19138787E+00 0.20062284E+04</pdfrwt>
<totfact> 0.13483557E-01</totfact>
</mgrwt>
</event>
<event>
 6    1  0.1614874E-005  0.2232020E+03  0.7818608E-02  0.1131518E+00
         -3   -1    0    0    0  501 -0.00000000000E+00  0.00000000000E+00  0.76697614928E+03  0.76697614928E+03  0.00000000000E+00 0.  1.
          3   -1    0    0  501    0  0.00000000000E+00 -0.00000000000E+00 -0.16238811371E+02  0.16238811371E+02  0.00000000000E+00 0. -1.
         23    2    1    2    0    0  0.88709055892E+02  0.19946633150E+02  0.36265356187E+03  0.38462220859E+03  0.90274429559E+02 0.  0.
         11    1    3    3    0    0  0.68308588649E+02 -0.24902389553E+02  0.27077494401E+03  0.28036630074E+03  0.00000000000E+00 0.  1.
        -11    1    3    3    0    0  0.20400467243E+02  0.44849022703E+02  0.91878617860E+02  0.10425590785E+03  0.00000000000E+00 0. -1.
         22    1    1    2    0    0 -0.88709055892E+02 -0.19946633150E+02  0.38808377604E+03  0.39859275206E+03  0.00000000000E+00 0.  1.
<mgrwt>
<rscale>  0 0.22320198E+03</rscale>
<asrwt>0</asrwt>
<pdfrwt beam="1">  1        3 0.24982793E-02 0.22320198E+03</pdfrwt>
<pdfrwt beam="2">  1       -3 0.11799630E+00 0.22320198E+03</pdfrwt>
<totfact> 0.10336165E+03</totfact>
</mgrwt>
</event>
<event>
 6    1  0.1614874E-005  0.1704688E+04  0.7818608E-02  0.8758695E-01
         -1   -1    0    0    0  501 -0.00000000000E+00  0.00000000000E+00  0.98053694623E+03  0.98053694623E+03  0.00000000000E+00 0.  1.
          1   -1    0    0  501    0  0.00000000000E+00 -0.00000000000E+00 -0.74091102624E+03  0.74091102624E+03  0.00000000000E+00 0. -1.
         23    2    1    2    0    0 -0.71273868722E+03  0.27686033361E+03 -0.25389479349E+03  0.81138710900E+03  0.96116564136E+02 0.  0.
         13    1    3    3    0    0 -0.49685674356E+03  0.14589086346E+03 -0.18133607152E+03  0.54866523355E+03  0.00000000000E+00 0. -1.
        -13    1    3    3    0    0 -0.21588194366E+03  0.13096947015E+03 -0.72558721961E+02  0.26272187545E+03  0.00000000000E+00 0.  1.
         22    1    1    2    0    0  0.71273868722E+03 -0.27686033361E+03  0.49352071348E+03  0.91006086347E+03  0.00000000000E+00 0.  1.
<mgrwt>
<rscale>  0 0.17046884E+04</rscale>
<asrwt>0</asrwt>
<pdfrwt beam="1">  1        1 0.11398631E+00 0.17046884E+04</pdfrwt>
<pdfrwt beam="2">  1       -1 0.15085184E+00 0.17046884E+04</pdfrwt>
<totfact> 0.81595961E+00</totfact>
</mgrwt>
</event>
<event>
 6    1  0.1614874E-005  0.1481133E+04  0.7818608E-02  0.8897097E-01
          2   -1    0    0  501    0  0.00000000000E+00  0.00000000000E+00  0.13226271161E+04  0.13226271161E+04  0.00000000000E+00 0. -1.
         -2   -1    0    0    0  501 -0.00000000000E+00 -0.00000000000E+00 -0.41465882826E+03  0.41465882826E+03  0.00000000000E+00 0.  1.
         23    2    1    2    0    0 -0.33020240351E+03  0.65675194225E+03  0.53046299109E+03  0.91092827967E+03  0.89680571149E+02 0.  0.
         13    1    3    3    0    0 -0.83551956310E+02  0.22487857683E+03  0.21369098569E+03  0.32127113329E+03  0.00000000000E+00 0. -1.
        -13    1    3    3    0    0 -0.24665044720E+03  0.43187336542E+03  0.31677200539E+03  0.58965714637E+03  0.00000000000E+00 0.  1.
         22    1    1    2    0    0  0.33020240351E+03 -0.65675194225E+03  0.37750529676E+03  0.82635766471E+03  0.00000000000E+00 0. -1.
<mgrwt>
<rscale>  0 0.14811334E+04</rscale>
<asrwt>0</asrwt>
<pdfrwt beam="1">  1        2 0.20348109E+00 0.14811334E+04</pdfrwt>
<pdfrwt beam="2">  1       -2 0.63793667E-01 0.14811334E+04</pdfrwt>
<totfact> 0.35265384E+01</totfact>
</mgrwt>
</event>
<event>
 6    1  0.1614874E-005  0.2759653E+04  0.7818608E-02  0.8315905E-01
          2   -1    0    0  501    0  0.00000000000E+00  0.00000000000E+00  0.14103509959E+04  0.14103509959E+04  0.00000000000E+00 0. -1.
         -2   -1    0    0    0  501 -0.00000000000E+00 -0.00000000000E+00 -0.13499622425E+04  0.13499622425E+04  0.00000000000E+00 0.  1.
         23    2    1    2    0    0  0.10754487912E+04 -0.15056477288E+03  0.87869215622E+03  0.14005778552E+04  0.10128459870E+03 0.  0.
         11    1    3    3    0    0  0.47556134328E+03 -0.30704043492E+02  0.43063720694E+03  0.64230034525E+03  0.00000000000E+00 0.  1.
        -11    1    3    3    0    0  0.59988744788E+03 -0.11986072939E+03  0.44805494929E+03  0.75827750999E+03  0.00000000000E+00 0. -1.
         22    1    1    2    0    0 -0.10754487912E+04  0.15056477288E+03 -0.81830340285E+03  0.13597353832E+04  0.00000000000E+00 0.  1.
<mgrwt>
<rscale>  0 0.27596526E+04</rscale>
<asrwt>0</asrwt>
<pdfrwt beam="1">  1        2 0.21697708E+00 0.27596526E+04</pdfrwt>
<pdfrwt beam="2">  1       -2 0.20768650E+00 0.27596526E+04</pdfrwt>
<totfact> 0.14770137E+00</totfact>
</mgrwt>
</event>
<event>
 6    1  0.1614874E-005  0.3725168E+04  0.7818608E-02  0.8062407E-01
         -3   -1    0    0    0  501 -0.00000000000E+00  0.00000000000E+00  0.14692416218E+04  0.14692416218E+04  0.00000000000E+00 0.  1.
          3   -1    0    0  501    0  0.00000000000E+00 -0.00000000000E+00 -0.23612313948E+04  0.23612313948E+04  0.00000000000E+00 0. -1.
         23    2    1    2    0    0 -0.14421965722E+04  0.44088422014E+03  0.67576208533E+03  0.16551211513E+04  0.91987938491E+02 0.  0.
         13    1    3    3    0    0 -0.96519576917E+03  0.30265406676E+03  0.40612716153E+03  0.10900190954E+04  0.00000000000E+00 0. -1.
        -13    1    3    3    0    0 -0.47700080308E+03  0.13823015338E+03  0.26963492380E+03  0.56510205589E+03  0.00000000000E+00 0.  1.
         22    1    1    2    0    0  0.14421965722E+04 -0.44088422014E+03 -0.15677518584E+04  0.21753518653E+04  0.00000000000E+00 0. -1.
<mgrwt>
<rscale>  0 0.37251682E+04</rscale>
<asrwt>0</asrwt>
<pdfrwt beam="1">  1        3 0.36326637E+00 0.37251682E+04</pdfrwt>
<pdfrwt beam="2">  1       -3 0.22603717E+00 0.37251682E+04</pdfrwt>
<totfact> 0.36850746E-03</totfact>
</mgrwt>
</event>
<event>
 6    1  0.1614874E-005  0.3508234E+04  0.7818608E-02  0.8111841E-01
         -1   -1    0    0    0  501 -0.00000000000E+00  0.00000000000E+00  0.25000243663E+04  0.25000243663E+04  0.00000000000E+00 0.  1.
          1   -1    0    0  501    0  0.00000000000E+00 -0.00000000000E+00 -0.12307584666E+04  0.12307584666E+04  0.00000000000E+00 0. -1.
         23    2    1    2    0    0  0.15604439302E+04 -0.78717600034E+03  0.49176576843E+03  0.18178955470E+04  0.90990845676E+02 0.  0.
         13    1    3    3    0    0  0.19495034106E+03 -0.13203501603E+03  0.74009249131E+02  0.24681217534E+03  0.00000000000E+00 0. -1.
        -13    1    3    3    0    0  0.13654935891E+04 -0.65514098431E+03  0.41775651930E+03  0.15710833716E+04  0.00000000000E+00 0.  1.
         22    1    1    2    0    0 -0.15604439302E+04  0.78717600034E+03  0.77750013121E+03  0.19128872859E+04  0.00000000000E+00 0.  1.
<mgrwt>
<rscale>  0 0.35082338E+04</rscale>
<asrwt>0</asrwt>
<pdfrwt beam="1">  1        1 0.18934746E+00 0.35082338E+04</pdfrwt>
<pdfrwt beam="2">  1       -1 0.38461913E+00 0.35082338E+04</pdfrwt>
<totfact> 0.75265333E-02</totfact>
</mgrwt>
</event>
<event>
 6    1  0.1614874E-005  0.2232126E+04  0.7818608E-02  0.8505174E-01
         -1   -1    0    0    0  501 -0.00000000000E+00  0.00000000000E+00  0.49733226271E+03  0.49733226271E+03  0.00000000000E+00 0.  1.
          1   -1    0    0  501    0  0.00000000000E+00 -0.00000000000E+00 -0.25045564040E+04  0.25045564040E+04  0.00000000000E+00 0. -1.
         23    2    1    2    0    0  0.37788536509E+03  0.10388597497E+04 -0.81684373882E+03  0.13773787618E+04  0.88947350187E+02 0.  0.
         11    1    3    3    0    0  0.24967289354E+03  0.55737050905E+03 -0.44546157038E+03  0.75593283353E+03  0.00000000000E+00 0. -1.
        -11    1    3    3    0    0  0.12821247155E+03  0.48148924061E+03 -0.37138216845E+03  0.62144592824E+03  0.00000000000E+00 0.  1.
         22    1    1    2    0    0 -0.37788536509E+03 -0.10388597497E+04 -0.11903804025E+04  0.16245099049E+04  0.00000000000E+00 0.  1.
<mgrwt>
<rscale>  0 0.22321261E+04</rscale>
<asrwt>0</asrwt>
<pdfrwt beam="1">  1        1 0.38531636E+00 0.22321261E+04</pdfrwt>
<pdfrwt beam="2">  1       -1 0.76512658E-01 0.22321261E+04</pdfrwt>
<totfact> 0.20963298E+00</totfact>
</mgrwt>
</event>
<event>
 6    1  0.1614874E-005  0.3089992E+04  0.7818608E-02  0.8218490E-01
          2   -1    0    0  501    0  0.00000000000E+00  0.00000000000E+00  0.27755912561E+04  0.27755912561E+04  0.00000000000E+00 0. -1.
         -2   -1    0    0    0  501 -0.00000000000E+00 -0.00000000000E+00 -0.86000140180E+03  0.86000140180E+03  0.00000000000E+00 0.  1.
         23    2    1    2    0    0 -0.15797931332E+02  0.13298538755E+04  0.18805668337E+04  0.23051838798E+04  0.92629363492E+02 0.  0.
         11    1    3    3    0    0  0.58685391434E+01  0.48776704153E+03  0.61625593449E+03  0.78595324501E+03  0.00000000000E+00 0.  1.
        -11    1    3    3    0    0 -0.21666470476E+02  0.84208683395E+03  0.12643108992E+04  0.15192306348E+04  0.00000000000E+00 0. -1.
         22    1    1    2    0    0  0.15797931332E+02 -0.13298538755E+04  0.35023020587E+02  0.13304087781E+04  0.00000000000E+00 0. -1.
<mgrwt>
<rscale>  0 0.30899918E+04</rscale>
<asrwt>0</asrwt>
<pdfrwt beam="1">  1        2 0.42701404E+00 0.30899918E+04</pdfrwt>
<pdfrwt beam="2">  1       -2 0.13230791E+00 0.30899918E+04</pdfrwt>
<totfact> 0.84387682E-01</totfact>
</mgrwt>
</event>
<event>
 6    1  0.1614874E-005  0.1977393E+04  0.7818608E-02  0.8617263E-01
         -1   -1    0    0    0  501 -0.00000000000E+00  0.00000000000E+00  0.10638833676E+04  0.10638833676E+04  0.00000000000E+00 0.  1.
          1   -1    0    0  501    0  0.00000000000E+00 -0.00000000000E+00 -0.91882367594E+03  0.91882367594E+03  0.00000000000E+00 0. -1.
         23    2    1    2    0    0  0.42789851159E+01  0.44523337340E+03 -0.81008774444E+03  0.92887703295E+03  0.91210318193E+02 0.  0.
         13    1    3    3    0    0 -0.29690937417E+02  0.23896070960E+03 -0.36693706607E+03  0.43889245032E+03  0.00000000000E+00 0. -1.
        -13    1    3    3    0    0  0.33969922532E+02  0.20627266380E+03 -0.44315067838E+03  0.48998458263E+03  0.00000000000E+00 0.  1.
         22    1    1    2    0    0 -0.42789851159E+01 -0.44523337340E+03  0.95514743608E+03  0.10538300106E+04  0.00000000000E+00 0.  1.
<mgrwt>
<rscale>  0 0.19773935E+04</rscale>
<asrwt>0</asrwt>
<pdfrwt beam="1">  1        1 0.14135749E+00 0.19773935E+04</pdfrwt>
<pdfrwt beam="2">  1       -1 0.16367436E+00 0.19773935E+04</pdfrwt>
<totfact> 0.44758623E+00</totfact>
</mgrwt>
</event>
<event>
 6    1  0.1614874E-005  0.2522495E+04  0.7818608E-02  0.8395015E-01
         -1   -1    0    0    0  501 -0.00000000000E+00  0.00000000000E+00  0.14119823153E+04  0.14119823153E+04  0.00000000000E+00 0.  1.
          1   -1    0    0  501    0  0.00000000000E+00 -0.00000000000E+00 -0.11266042475E+04  0.11266042475E+04  0.00000000000E+00 0. -1.
         23    2    1    2    0    0  0.38412180001E+03  0.78245923485E+02 -0.10621078704E+04  0.11352368788E+04  0.83771479989E+02 0.  0.
         11    1    3    3    0    0  0.11848068520E+03  0.38958404364E+02 -0.24141114343E+03  0.27172554206E+03  0.00000000000E+00 0. -1.
        -11    1    3    3    0    0  0.26564111481E+03  0.39287519121E+02 -0.82069672695E+03  0.86351133673E+03  0.00000000000E+00 0.  1.
         22    1    1    2    0    0 -0.38412180001E+03 -0.78245923485E+02  0.13474859383E+04  0.14033496840E+04  0.00000000000E+00 0.  1.
<mgrwt>
<rscale>  0 0.25224950E+04</rscale>
<asrwt>0</asrwt>
<pdfrwt beam="1">  1        1 0.17332373E+00 0.25224950E+04</pdfrwt>
<pdfrwt beam="2">  1       -1 0.21722805E+00 0.25224950E+04</pdfrwt>
<totfact> 0.12333075E+00</totfact>
</mgrwt>
</event>
<event>
 6    1  0.1614874E-005  0.2395431E+04  0.7818608E-02  0.8441216E-01
         -2   -1    0    0    0  501 -0.00000000000E+00  0.00000000000E+00  0.82007768534E+03  0.82007768534E+03  0.00000000000E+00 0.  1.
          2   -1    0    0  501    0  0.00000000000E+00 -0.00000000000E+00 -0.17492523145E+04  0.17492523145E+04  0.00000000000E+00 0. -1.
         23    2    1    2    0    0  0.44966637119E+03 -0.41785692569E+03 -0.15662265538E+04  0.16846609032E+04  0.90622764674E+02 0.  0.
         11    1    3    3    0    0  0.17923506626E+03 -0.11595119490E+03 -0.60111170472E+03  0.63789118988E+03  0.00000000000E+00 0. -1.
        -11    1    3    3    0    0  0.27043130493E+03 -0.30190573079E+03 -0.96511484904E+03  0.10467697134E+04  0.00000000000E+00 0.  1.
         22    1    1    2    0    0 -0.44966637119E+03  0.41785692569E+03  0.63705192463E+03  0.88466909656E+03  0.00000000000E+00 0.  1.
<mgrwt>
<rscale>  0 0.23954313E+04</rscale>
<asrwt>0</asrwt>
<pdfrwt beam="1">  1        2 0.26911574E+00 0.23954313E+04</pdfrwt>
<pdfrwt beam="2">  1       -2 0.12616580E+00 0.23954313E+04</pdfrwt>
<totfact> 0.38802000E+00</totfact>
</mgrwt>
</event>
<event>
 6    1  0.2296108E-005  0.4275094E+04  0.7818608E-02  0.7951240E-01
          2   -1    0    0  501    0  0.00000000000E+00  0.00000000000E+00  0.18023423328E+04  0.18023423328E+04  0.00000000000E+00 0.  1.
         -2   -1    0    0    0  501 -0.00000000000E+00 -0.00000000000E+00 -0.25350942582E+04  0.25350942582E+04  0.00000000000E+00 0. -1.
         23    2    1    2    0    0 -0.14332979719E+04  0.29554494509E+03 -0.19466498105E+04  0.24360586784E+04  0.56978147490E+02 0.  0.
         11    1    3    3    0    0 -0.97433495976E+03  0.21899801820E+03 -0.13604744641E+04  0.16876550339E+04  0.00000000000E+00 0.  1.
        -11    1    3    3    0    0 -0.45896301211E+03  0.76546926897E+02 -0.58617534637E+03  0.74840364457E+03  0.00000000000E+00 0. -1.
         22    1    1    2    0    0  0.14332979719E+04 -0.29554494509E+03  0.12138978851E+04  0.19013779125E+04  0.00000000000E+00 0.  1.
<mgrwt>
<rscale>  0 0.42750942E+04</rscale>
<asrwt>0</asrwt>
<pdfrwt beam="1">  1        2 0.27728344E+00 0.42750942E+04</pdfrwt>
<pdfrwt beam="2">  1       -2 0.39001450E+00 0.42750942E+04</pdfrwt>
<totfact> 0.57228269E-02</totfact>
</mgrwt>
</event>
<event>
 6    1  0.1614874E-005  0.1507566E+04  0.7818608E-02  0.8879437E-01
         -1   -1    0    0    0  501 -0.00000000000E+00  0.00000000000E+00  0.49804124244E+03  0.49804124244E+03  0.00000000000E+00 0.  1.
          1   -1    0    0  501    0  0.00000000000E+00 -0.00000000000E+00 -0.11408469302E+04  0.11408469302E+04  0.00000000000E+00 0. -1.
         23    2    1    2    0    0 -0.17204610143E+03  0.48092932912E+03 -0.92108739623E+03  0.10572236732E+04  0.91798818379E+02 0.  0.
         13    1    3    3    0    0 -0.32599254030E+02  0.20414618064E+03 -0.41810736692E+03  0.46642485430E+03  0.00000000000E+00 0. -1.
        -13    1    3    3    0    0 -0.13944684740E+03  0.27678314848E+03 -0.50298002930E+03  0.59079881890E+03  0.00000000000E+00 0.  1.
         22    1    1    2    0    0  0.17204610143E+03 -0.48092932912E+03  0.27828170848E+03  0.58166449943E+03  0.00000000000E+00 0.  1.
<mgrwt>
<rscale>  0 0.15075660E+04</rscale>
<asrwt>0</asrwt>
<pdfrwt beam="1">  1        1 0.17551491E+00 0.15075660E+04</pdfrwt>
<pdfrwt beam="2">  1       -1 0.76621731E-01 0.15075660E+04</pdfrwt>
<totfact> 0.19528277E+01</totfact>
</mgrwt>
</event>
<event>
 6    1  0.1614874E-005  0.1050065E+04  0.7818608E-02  0.9255277E-01
          2   -1    0    0  501    0  0.00000000000E+00  0.00000000000E+00  0.47153702544E+03  0.47153702544E+03  0.00000000000E+00 0. -1.
         -2   -1    0    0    0  501 -0.00000000000E+00 -0.00000000000E+00 -0.58459686476E+03  0.58459686476E+03  0.00000000000E+00 0.  1.
         23    2    1    2    0    0  0.15969237783E+03 -0.48994607475E+03  0.21421709954E+02  0.52356079776E+03  0.90045586191E+02 0.  0.
         11    1    3    3    0    0  0.73095160181E+02 -0.29114227880E+03  0.51745468188E+02  0.30460519106E+03  0.00000000000E+00 0.  1.
        -11    1    3    3    0    0  0.86597217647E+02 -0.19880379595E+03 -0.30323758233E+02  0.21895560669E+03  0.00000000000E+00 0. -1.
         22    1    1    2    0    0 -0.15969237783E+03  0.48994607475E+03 -0.13448154927E+03  0.53257309244E+03  0.00000000000E+00 0. -1.
<mgrwt>
<rscale>  0 0.10500649E+04</rscale>
<asrwt>0</asrwt>
<pdfrwt beam="1">  1        2 0.72544158E-01 0.10500649E+04</pdfrwt>
<pdfrwt beam="2">  1       -2 0.89937979E-01 0.10500649E+04</pdfrwt>
<totfact> 0.69501274E+01</totfact>
</mgrwt>
</event>
<event>
 6    1  0.1614874E-005  0.2337038E+04  0.7818608E-02  0.8463459E-01
          2   -1    0    0  501    0  0.00000000000E+00  0.00000000000E+00  0.18022877261E+04  0.18022877261E+04  0.00000000000E+00 0. -1.
         -2   -1    0    0    0  501 -0.00000000000E+00 -0.00000000000E+00 -0.75761321736E+03  0.75761321736E+03  0.00000000000E+00 0.  1.
         23    2    1    2    0    0  0.95588536225E+00  0.13809701096E+03  0.17921642612E+04  0.17997610694E+04  0.90639227141E+02 0.  0.
         13    1    3    3    0    0 -0.10448905877E+02 -0.11183604811E+02  0.19123650821E+03  0.19184799901E+03  0.00000000000E+00 0. -1.
        -13    1    3    3    0    0  0.11404791240E+02  0.14928061578E+03  0.16009277530E+04  0.16079130704E+04  0.00000000000E+00 0.  1.
         22    1    1    2    0    0 -0.95588536225E+00 -0.13809701096E+03 -0.74748975247E+03  0.76013987410E+03  0.00000000000E+00 0.  1.
<mgrwt>
<rscale>  0 0.23370383E+04</rscale>
<asrwt>0</asrwt>
<pdfrwt beam="1">  1        2 0.27727504E+00 0.23370383E+04</pdfrwt>
<pdfrwt beam="2">  1       -2 0.11655588E+00 0.23370383E+04</pdfrwt>
<totfact> 0.44374130E+00</totfact>
</mgrwt>
</event>
<event>
 6    1  0.1614874E-005  0.3028359E+04  0.7818608E-02  0.8235679E-01
          1   -1    0    0  501    0  0.00000000000E+00  0.00000000000E+00  0.69213361571E+03  0.69213361571E+03  0.00000000000E+00 0. -1.
         -1   -1    0    0    0  501 -0.00000000000E+00 -0.00000000000E+00 -0.33125676685E+04  0.33125676685E+04  0.00000000000E+00 0.  1.
         23    2    1    2    0    0 -0.44722852762E+03  0.14151426092E+04 -0.16988454288E+04  0.22577131469E+04  0.92471088633E+02 0.  0.
         11    1    3    3    0    0 -0.10283952098E+03  0.39710687856E+03 -0.41683119793E+03  0.58482312509E+03  0.00000000000E+00 0.  1.
        -11    1    3    3    0    0 -0.34438900664E+03  0.10180357306E+04 -0.12820142309E+04  0.16728900218E+04  0.00000000000E+00 0. -1.
         22    1    1    2    0    0  0.44722852762E+03 -0.14151426092E+04 -0.92158862400E+03  0.17469881374E+04  0.00000000000E+00 0. -1.
<mgrwt>
<rscale>  0 0.30283589E+04</rscale>
<asrwt>0</asrwt>
<pdfrwt beam="1">  1        1 0.10648210E+00 0.30283589E+04</pdfrwt>
<pdfrwt beam="2">  1       -1 0.50962579E+00 0.30283589E+04</pdfrwt>
<totfact> 0.30339116E-02</totfact>
</mgrwt>
</event>
<event>
 6    1  0.1614874E-005  0.1467232E+04  0.7818608E-02  0.8906540E-01
          1   -1    0    0  501    0  0.00000000000E+00  0.00000000000E+00  0.11158863625E+04  0.11158863625E+04  0.00000000000E+00 0. -1.
         -1   -1    0    0    0  501 -0.00000000000E+00 -0.00000000000E+00 -0.48230047524E+03  0.48230047524E+03  0.00000000000E+00 0.  1.
         23    2    1    2    0    0  0.62591748119E+02  0.63802799654E+03  0.70013000082E+03  0.95365167944E+03  0.90950845783E+02 0.  0.
         13    1    3    3    0    0  0.19804811004E+01  0.19065378785E+03  0.15407344667E+03  0.24513550558E+03  0.00000000000E+00 0.  1.
        -13    1    3    3    0    0  0.60611267019E+02  0.44737420869E+03  0.54605655415E+03  0.70851617386E+03  0.00000000000E+00 0. -1.
         22    1    1    2    0    0 -0.62591748119E+02 -0.63802799654E+03 -0.66544113515E+02  0.64453515834E+03  0.00000000000E+00 0. -1.
<mgrwt>
<rscale>  0 0.14672321E+04</rscale>
<asrwt>0</asrwt>
<pdfrwt beam="1">  1        1 0.17167482E+00 0.14672321E+04</pdfrwt>
<pdfrwt beam="2">  1       -1 0.74200074E-01 0.14672321E+04</pdfrwt>
<totfact> 0.21877300E+01</totfact>
</mgrwt>
</event>
<event>
 6    1  0.1614874E-005  0.4397022E+04  0.7818608E-02  0.7928917E-01
          2   -1    0    0  501    0  0.00000000000E+00  0.00000000000E+00  0.31331205112E+04  0.31331205112E+04  0.00000000000E+00 0. -1.
         -2   -1    0    0    0  501 -0.00000000000E+00 -0.00000000000E+00 -0.15426952920E+04  0.15426952920E+04  0.00000000000E+00 0.  1.
         23    2    1    2    0    0 -0.17076635686E+04 -0.13831512237E+04  0.79364900359E+03  0.23382798123E+04  0.91932414282E+02 0.  0.
         11    1    3    3    0    0 -0.10091339950E+04 -0.79280095519E+03  0.50699496930E+03  0.13798292189E+04  0.00000000000E+00 0. -1.
        -11    1    3    3    0    0 -0.69852957360E+03 -0.59035026848E+03  0.28665403428E+03  0.95845059344E+03  0.00000000000E+00 0.  1.
         22    1    1    2    0    0  0.17076635686E+04  0.13831512237E+04  0.79677621561E+03  0.23375359909E+04  0.00000000000E+00 0. -1.
<mgrwt>
<rscale>  0 0.43970218E+04</rscale>
<asrwt>0</asrwt>
<pdfrwt beam="1">  1        2 0.48201854E+00 0.43970218E+04</pdfrwt>
<pdfrwt beam="2">  1       -2 0.23733774E+00 0.43970218E+04</pdfrwt>
<totfact> 0.84174125E-02</totfact>
</mgrwt>
</event>
<event>
 6    1  0.1614874E-005  0.1543763E+04  0.7818608E-02  0.8855861E-01
          1   -1    0    0  501    0  0.00000000000E+00  0.00000000000E+00  0.46754741032E+03  0.46754741032E+03  0.00000000000E+00 0. -1.
         -1   -1    0    0    0  501 -0.00000000000E+00 -0.00000000000E+00 -0.12743114969E+04  0.12743114969E+04  0.00000000000E+00 0.  1.
         23    2    1    2    0    0 -0.43709519915E+03 -0.21827346616E+03  0.26386259943E+03  0.56502543559E+03  0.10456936616E+03 0.  0.
         13    1    3    3    0    0 -0.33153481758E+03 -0.15949763592E+03  0.14473357144E+03  0.39535128409E+03  0.00000000000E+00 0. -1.
        -13    1    3    3    0    0 -0.10556038157E+03 -0.58775830241E+02  0.11912902798E+03  0.16967415150E+03  0.00000000000E+00 0.  1.
         22    1    1    2    0    0  0.43709519915E+03  0.21827346616E+03 -0.10706266861E+04  0.11768334717E+04  0.00000000000E+00 0.  1.
<mgrwt>
<rscale>  0 0.15437630E+04</rscale>
<asrwt>0</asrwt>
<pdfrwt beam="1">  1        1 0.71930373E-01 0.15437630E+04</pdfrwt>
<pdfrwt beam="2">  1       -1 0.19604792E+00 0.15437630E+04</pdfrwt>
<totfact> 0.75091506E+00</totfact>
</mgrwt>
</event>
<event>
 6    1  0.1614874E-005  0.1102150E+04  0.7818608E-02  0.9203099E-01
          2   -1    0    0  501    0  0.00000000000E+00  0.00000000000E+00  0.14968486445E+04  0.14968486445E+04  0.00000000000E+00 0. -1.
         -2   -1    0    0    0  501 -0.00000000000E+00 -0.00000000000E+00 -0.20288209203E+03  0.20288209203E+03  0.00000000000E+00 0.  1.
         23    2    1    2    0    0  0.35985877992E+03  0.39928487433E+03  0.48772133316E+03  0.73073222982E+03  0.84680225130E+02 0.  0.
         13    1    3    3    0    0  0.79714354378E+02  0.67851125270E+02  0.56536502822E+02  0.11897281053E+03  0.00000000000E+00 0.  1.
        -13    1    3    3    0    0  0.28014442554E+03  0.33143374906E+03  0.43118483034E+03  0.61175941929E+03  0.00000000000E+00 0. -1.
         22    1    1    2    0    0 -0.35985877992E+03 -0.39928487433E+03  0.80624521927E+03  0.96899850668E+03  0.00000000000E+00 0. -1.
<mgrwt>
<rscale>  0 0.11021502E+04</rscale>
<asrwt>0</asrwt>
<pdfrwt beam="1">  1        2 0.23028440E+00 0.11021502E+04</pdfrwt>
<pdfrwt beam="2">  1       -2 0.31212631E-01 0.11021502E+04</pdfrwt>
<totfact> 0.12037503E+02</totfact>
</mgrwt>
</event>
<event>
 6    1  0.1614874E-005  0.2103476E+04  0.7818608E-02  0.8559714E-01
         -1   -1    0    0    0  501 -0.00000000000E+00  0.00000000000E+00  0.88405762872E+03  0.88405762872E+03  0.00000000000E+00 0.  1.
          1   -1    0    0  501    0  0.00000000000E+00 -0.00000000000E+00 -0.12512229484E+04  0.12512229484E+04  0.00000000000E+00 0. -1.
         23    2    1    2    0    0 -0.71352367036E+03  0.15331128688E+02  0.59760861225E+03  0.93522232378E+03  0.90297673315E+02 0.  0.
         13    1    3    3    0    0 -0.13829948053E+03 -0.14665939997E+02  0.15894584459E+03  0.21120042051E+03  0.00000000000E+00 0.  1.
        -13    1    3    3    0    0 -0.57522418983E+03  0.29997068685E+02  0.43866276765E+03  0.72402190328E+03  0.00000000000E+00 0. -1.
         22    1    1    2    0    0  0.71352367036E+03 -0.15331128688E+02 -0.96477393196E+03  0.12000582534E+04  0.00000000000E+00 0. -1.
<mgrwt>
<rscale>  0 0.21034764E+04</rscale>
<asrwt>0</asrwt>
<pdfrwt beam="1">  1        1 0.19249584E+00 0.21034764E+04</pdfrwt>
<pdfrwt beam="2">  1       -1 0.13600887E+00 0.21034764E+04</pdfrwt>
<totfact> 0.40749045E+00</totfact>
</mgrwt>
</event>
<event>
 6    1  0.1614874E-005  0.1683399E+04  0.7818608E-02  0.8770890E-01
         -2   -1    0    0    0  501 -0.00000000000E+00  0.00000000000E+00  0.23876313204E+04  0.23876313204E+04  0.00000000000E+00 0.  1.
          2   -1    0    0  501    0  0.00000000000E+00 -0.00000000000E+00 -0.29671997096E+03  0.29671997096E+03  0.00000000000E+00 0. -1.
         23    2    1    2    0    0  0.56366535998E+03 -0.52239219974E+03  0.51080304006E+03  0.92726435050E+03  0.91033958339E+02 0.  0.
         13    1    3    3    0    0  0.31021315720E+03 -0.32085374225E+03  0.34079600846E+03  0.56153472395E+03  0.00000000000E+00 0.  1.
        -13    1    3    3    0    0  0.25345220278E+03 -0.20153845749E+03  0.17000703161E+03  0.36572962655E+03  0.00000000000E+00 0. -1.
         22    1    1    2    0    0 -0.56366535998E+03  0.52239219974E+03  0.15801083094E+04  0.17570869409E+04  0.00000000000E+00 0. -1.
<mgrwt>
<rscale>  0 0.16833988E+04</rscale>
<asrwt>0</asrwt>
<pdfrwt beam="1">  1        2 0.45649228E-01 0.16833988E+04</pdfrwt>
<pdfrwt beam="2">  1       -2 0.36732788E+00 0.16833988E+04</pdfrwt>
<totfact> 0.12859084E+00</totfact>
</mgrwt>
</event>
<event>
 6    1  0.1614874E-005  0.1832350E+04  0.7818608E-02  0.8689283E-01
          2   -1    0    0  501    0  0.00000000000E+00  0.00000000000E+00  0.10822039008E+04  0.10822039008E+04  0.00000000000E+00 0. -1.
         -2   -1    0    0    0  501 -0.00000000000E+00 -0.00000000000E+00 -0.77561818733E+03  0.77561818733E+03  0.00000000000E+00 0.  1.
         23    2    1    2    0    0 -0.25663084819E+03  0.60454777422E+02 -0.73345684732E+03  0.78488094315E+03  0.92547153842E+02 0.  0.
         13    1    3    3    0    0 -0.18143589809E+03  0.65617182430E+02 -0.61431005088E+03  0.64389551820E+03  0.00000000000E+00 0.  1.
        -13    1    3    3    0    0 -0.75194950105E+02 -0.51624050078E+01 -0.11914679643E+03  0.14098542495E+03  0.00000000000E+00 0. -1.
         22    1    1    2    0    0  0.25663084819E+03 -0.60454777422E+02  0.10400425608E+04  0.10729411450E+04  0.00000000000E+00 0. -1.
<mgrwt>
<rscale>  0 0.18323504E+04</rscale>
<asrwt>0</asrwt>
<pdfrwt beam="1">  1        2 0.16649291E+00 0.18323504E+04</pdfrwt>
<pdfrwt beam="2">  1       -2 0.11932588E+00 0.18323504E+04</pdfrwt>
<totfact> 0.11332482E+01</totfact>
</mgrwt>
</event>
<event>
 6    1  0.1614874E-005  0.4507669E+04  0.7818608E-02  0.7909296E-01
         -2   -1    0    0    0  501 -0.00000000000E+00  0.00000000000E+00  0.22982951781E+04  0.22982951781E+04  0.00000000000E+00 0. -1.
          2   -1    0    0  501    0  0.00000000000E+00 -0.00000000000E+00 -0.22102339357E+04  0.22102339357E+04  0.00000000000E+00 0.  1.
         23    2    1    2    0    0  0.20081437443E+04 -0.99483860372E+03 -0.18688410938E+03  0.22506672730E+04  0.90732344065E+02 0.  0.
         11    1    3    3    0    0  0.16082427654E+04 -0.82543282570E+03 -0.12556833178E+03  0.18120572696E+04  0.00000000000E+00 0. -1.
        -11    1    3    3    0    0  0.39990097891E+03 -0.16940577802E+03 -0.61315777598E+02  0.43861000347E+03  0.00000000000E+00 0.  1.
         22    1    1    2    0    0 -0.20081437443E+04  0.99483860372E+03  0.27494535181E+03  0.22578618407E+04  0.00000000000E+00 0. -1.
<mgrwt>
<rscale>  0 0.45076690E+04</rscale>
<asrwt>0</asrwt>
<pdfrwt beam="1">  1        2 0.34003599E+00 0.45076690E+04</pdfrwt>
<pdfrwt beam="2">  1       -2 0.35358387E+00 0.45076690E+04</pdfrwt>
<totfact> 0.56984505E-02</totfact>
</mgrwt>
</event>
<event>
 6    1  0.1614874E-005  0.3651079E+04  0.7818608E-02  0.8078891E-01
          2   -1    0    0  501    0  0.00000000000E+00  0.00000000000E+00  0.45088253857E+04  0.45088253857E+04  0.00000000000E+00 0. -1.
         -2   -1    0    0    0  501 -0.00000000000E+00 -0.00000000000E+00 -0.73912701374E+03  0.73912701374E+03  0.00000000000E+00 0.  1.
         23    2    1    2    0    0  0.16481752669E+04 -0.21156339240E+03  0.80309109237E+03  0.18476583635E+04  0.87437669861E+02 0.  0.
         11    1    3    3    0    0  0.13941937475E+04 -0.20705183417E+03  0.69643938200E+03  0.15721559975E+04  0.00000000000E+00 0.  1.
        -11    1    3    3    0    0  0.25398151943E+03 -0.45115582304E+01  0.10665171037E+03  0.27550236604E+03  0.00000000000E+00 0. -1.
         22    1    1    2    0    0 -0.16481752669E+04  0.21156339240E+03  0.29666072796E+04  0.34002940360E+04  0.00000000000E+00 0.  1.
<mgrwt>
<rscale>  0 0.36510791E+04</rscale>
<asrwt>0</asrwt>
<pdfrwt beam="1">  1        2 0.69366543E+00 0.36510791E+04</pdfrwt>
<pdfrwt beam="2">  1       -2 0.11371185E+00 0.36510791E+04</pdfrwt>
<totfact> 0.59012389E-02</totfact>
</mgrwt>
</event>
<event>
 6    1  0.1614874E-005  0.1533216E+04  0.7818608E-02  0.8862660E-01
         -1   -1    0    0    0  501 -0.00000000000E+00  0.00000000000E+00  0.78900168078E+03  0.78900168078E+03  0.00000000000E+00 0.  1.
          1   -1    0    0  501    0  0.00000000000E+00 -0.00000000000E+00 -0.74484994197E+03  0.74484994197E+03  0.00000000000E+00 0. -1.
         23    2    1    2    0    0  0.32763938367E+03 -0.66329146072E+03 -0.16846478413E+03  0.76410561696E+03  0.90409528209E+02 0.  0.
         11    1    3    3    0    0  0.17040698960E+03 -0.39219929475E+03 -0.56600608606E+02  0.43134957726E+03  0.00000000000E+00 0.  1.
        -11    1    3    3    0    0  0.15723239407E+03 -0.27109216597E+03 -0.11186417553E+03  0.33275603971E+03  0.00000000000E+00 0. -1.
         22    1    1    2    0    0 -0.32763938367E+03  0.66329146072E+03  0.21261652294E+03  0.76974600579E+03  0.00000000000E+00 0.  1.
<mgrwt>
<rscale>  0 0.15332160E+04</rscale>
<asrwt>0</asrwt>
<pdfrwt beam="1">  1        1 0.11459230E+00 0.15332160E+04</pdfrwt>
<pdfrwt beam="2">  1       -1 0.12138487E+00 0.15332160E+04</pdfrwt>
<totfact> 0.14379423E+01</totfact>
</mgrwt>
</event>
<event>
 6    1  0.1614874E-005  0.1750907E+04  0.7818608E-02  0.8732851E-01
         -2   -1    0    0    0  501 -0.00000000000E+00  0.00000000000E+00  0.10562757022E+04  0.10562757022E+04  0.00000000000E+00 0.  1.
          2   -1    0    0  501    0  0.00000000000E+00 -0.00000000000E+00 -0.72558604058E+03  0.72558604058E+03  0.00000000000E+00 0. -1.
         23    2    1    2    0    0  0.46868361855E+03  0.12815567552E+03  0.90400213175E+03  0.10303463404E+04  0.91134601452E+02 0.  0.
         11    1    3    3    0    0  0.15540209779E+03  0.19102615994E+02  0.36909361514E+03  0.40092994235E+03  0.00000000000E+00 0. -1.
        -11    1    3    3    0    0  0.31328152076E+03  0.10905305953E+03  0.53490851661E+03  0.62941639809E+03  0.00000000000E+00 0.  1.
         22    1    1    2    0    0 -0.46868361855E+03 -0.12815567552E+03 -0.57331247016E+03  0.75151540231E+03  0.00000000000E+00 0. -1.
<mgrwt>
<rscale>  0 0.17509071E+04</rscale>
<asrwt>0</asrwt>
<pdfrwt beam="1">  1        2 0.11162862E+00 0.17509071E+04</pdfrwt>
<pdfrwt beam="2">  1       -2 0.16250395E+00 0.17509071E+04</pdfrwt>
<totfact> 0.89497039E+00</totfact>
</mgrwt>
</event>
<event>
 6    1  0.1614874E-005  0.1990619E+04  0.7818608E-02  0.8611019E-01
          1   -1    0    0  501    0  0.00000000000E+00  0.00000000000E+00  0.75983513708E+03  0.75983513708E+03  0.00000000000E+00 0. -1.
         -1   -1    0    0    0  501 -0.00000000000E+00 -0.00000000000E+00 -0.13037573119E+04  0.13037573119E+04  0.00000000000E+00 0.  1.
         23    2    1    2    0    0  0.15548822767E+03  0.83107616439E+02 -0.12857269120E+04  0.13011242640E+04  0.93526430268E+02 0.  0.
         11    1    3    3    0    0  0.59858941447E+02  0.78286536535E+02 -0.50304648909E+03  0.51260866639E+03  0.00000000000E+00 0.  1.
        -11    1    3    3    0    0  0.95629286223E+02  0.48210799033E+01 -0.78268042296E+03  0.78851559761E+03  0.00000000000E+00 0. -1.
         22    1    1    2    0    0 -0.15548822767E+03 -0.83107616439E+02  0.74180473726E+03  0.76246818496E+03  0.00000000000E+00 0. -1.
<mgrwt>
<rscale>  0 0.19906186E+04</rscale>
<asrwt>0</asrwt>
<pdfrwt beam="1">  1        1 0.11689772E+00 0.19906186E+04</pdfrwt>
<pdfrwt beam="2">  1       -1 0.20057804E+00 0.19906186E+04</pdfrwt>
<totfact> 0.33220191E+00</totfact>
</mgrwt>
</event>
<event>
 6    1  0.1614874E-005  0.1964933E+04  0.7818608E-02  0.8623194E-01
          2   -1    0    0  501    0  0.00000000000E+00  0.00000000000E+00  0.21223280941E+04  0.21223280941E+04  0.00000000000E+00 0. -1.
         -2   -1    0    0    0  501 -0.00000000000E+00 -0.00000000000E+00 -0.45480248289E+03  0.45480248289E+03  0.00000000000E+00 0.  1.
         23    2    1    2    0    0 -0.93720321901E+03 -0.24413141530E+03  0.10336959538E+04  0.14196807698E+04  0.94953364727E+02 0.  0.
         11    1    3    3    0    0 -0.27309483239E+03 -0.86755063583E+02  0.36672392509E+03  0.46539624598E+03  0.00000000000E+00 0. -1.
        -11    1    3    3    0    0 -0.66410838662E+03 -0.15737635172E+03  0.66697202874E+03  0.95428452381E+03  0.00000000000E+00 0.  1.
         22    1    1    2    0    0  0.93720321901E+03  0.24413141530E+03  0.63382965742E+03  0.11574498072E+04  0.00000000000E+00 0. -1.
<mgrwt>
<rscale>  0 0.19649327E+04</rscale>
<asrwt>0</asrwt>
<pdfrwt beam="1">  1        2 0.32651201E+00 0.19649327E+04</pdfrwt>
<pdfrwt beam="2">  1       -2 0.69969614E-01 0.19649327E+04</pdfrwt>
<totfact> 0.98973283E+00</totfact>
</mgrwt>
</event>
<event>
 6    1  0.1614874E-005  0.4346939E+04  0.7818608E-02  0.7937995E-01
          2   -1    0    0  501    0  0.00000000000E+00  0.00000000000E+00  0.16248668248E+04  0.16248668248E+04  0.00000000000E+00 0. -1.
         -2   -1    0    0    0  501 -0.00000000000E+00 -0.00000000000E+00 -0.29072963268E+04  0.29072963268E+04  0.00000000000E+00 0.  1.
         23    2    1    2    0    0  0.78095936248E+03  0.20747905340E+03 -0.27440195689E+04  0.28620761458E+04  0.94294145894E+02 0.  0.
         11    1    3    3    0    0  0.17046646393E+03  0.56065584954E+02 -0.75188480008E+03  0.77300253410E+03  0.00000000000E+00 0.  1.
        -11    1    3    3    0    0  0.61049289855E+03  0.15141346845E+03 -0.19921347689E+04  0.20890736117E+04  0.00000000000E+00 0. -1.
         22    1    1    2    0    0 -0.78095936248E+03 -0.20747905340E+03  0.14615900670E+04  0.16700870059E+04  0.00000000000E+00 0. -1.
<mgrwt>
<rscale>  0 0.43469389E+04</rscale>
<asrwt>0</asrwt>
<pdfrwt beam="1">  1        2 0.24997951E+00 0.43469389E+04</pdfrwt>
<pdfrwt beam="2">  1       -2 0.44727636E+00 0.43469389E+04</pdfrwt>
<totfact> 0.29998974E-02</totfact>
</mgrwt>
</event>
<event>
 6    1  0.1614874E-005  0.1038415E+04  0.7818608E-02  0.9267388E-01
         -2   -1    0    0    0  501 -0.00000000000E+00  0.00000000000E+00  0.76782740923E+02  0.76782740923E+02  0.00000000000E+00 0.  1.
          2   -1    0    0  501    0  0.00000000000E+00 -0.00000000000E+00 -0.35108966174E+04  0.35108966174E+04  0.00000000000E+00 0. -1.
         23    2    1    2    0    0  0.49942159870E+03  0.10282741195E+03 -0.19861598880E+04  0.20525682345E+04  0.90608203110E+02 0.  0.
         11    1    3    3    0    0  0.14694880853E+03  0.69135697521E+02 -0.55630907713E+03  0.57952867600E+03  0.00000000000E+00 0. -1.
        -11    1    3    3    0    0  0.35247279016E+03  0.33691714432E+02 -0.14298508109E+04  0.14730395585E+04  0.00000000000E+00 0.  1.
         22    1    1    2    0    0 -0.49942159870E+03 -0.10282741195E+03 -0.14479539884E+04  0.15351111238E+04  0.00000000000E+00 0.  1.
<mgrwt>
<rscale>  0 0.10384147E+04</rscale>
<asrwt>0</asrwt>
<pdfrwt beam="1">  1        2 0.54013794E+00 0.10384147E+04</pdfrwt>
<pdfrwt beam="2">  1       -2 0.11812729E-01 0.10384147E+04</pdfrwt>
<totfact> 0.43220527E+01</totfact>
</mgrwt>
</event>
<event>
 6    1  0.1614874E-005  0.5364075E+04  0.7818608E-02  0.7774674E-01
         -1   -1    0    0    0  501 -0.00000000000E+00  0.00000000000E+00  0.16909909598E+04  0.16909909598E+04  0.00000000000E+00 0.  1.
          1   -1    0    0  501    0  0.00000000000E+00 -0.00000000000E+00 -0.42539115158E+04  0.42539115158E+04  0.00000000000E+00 0. -1.
         23    2    1    2    0    0  0.26024789923E+04  0.57719311767E+03 -0.16011366042E+04  0.31109869564E+04  0.92480361852E+02 0.  0.
         13    1    3    3    0    0  0.23398358294E+04  0.51989060986E+03 -0.14714005002E+04  0.28124966466E+04  0.00000000000E+00 0.  1.
        -13    1    3    3    0    0  0.26264316287E+03  0.57302507809E+02 -0.12973610392E+03  0.29849030983E+03  0.00000000000E+00 0. -1.
         22    1    1    2    0    0 -0.26024789923E+04 -0.57719311767E+03 -0.96178395183E+03  0.28339155193E+04  0.00000000000E+00 0. -1.
<mgrwt>
<rscale>  0 0.53640753E+04</rscale>
<asrwt>0</asrwt>
<pdfrwt beam="1">  1        1 0.65444791E+00 0.53640753E+04</pdfrwt>
<pdfrwt beam="2">  1       -1 0.26015246E+00 0.53640753E+04</pdfrwt>
<totfact> 0.23513210E-03</totfact>
</mgrwt>
</event>
<event>
 6    1  0.1695226E-005  0.3270123E+04  0.7818608E-02  0.8170539E-01
          2   -1    0    0  501    0  0.00000000000E+00  0.00000000000E+00  0.17865243884E+04  0.17865243884E+04  0.00000000000E+00 0. -1.
         -2   -1    0    0    0  501 -0.00000000000E+00 -0.00000000000E+00 -0.14964396196E+04  0.14964396196E+04  0.00000000000E+00 0.  1.
         23    2    1    2    0    0  0.11578153176E+04  0.24528701607E+03 -0.98554717629E+03  0.15428666288E+04  0.91826833875E+02 0.  0.
         11    1    3    3    0    0  0.49027666573E+03  0.15026214196E+03 -0.42957955627E+03  0.66894582399E+03  0.00000000000E+00 0. -1.
        -11    1    3    3    0    0  0.66753865192E+03  0.95024874105E+02 -0.55596762002E+03  0.87392080477E+03  0.00000000000E+00 0.  1.
         22    1    1    2    0    0 -0.11578153176E+04 -0.24528701607E+03  0.12756319451E+04  0.17400973793E+04  0.00000000000E+00 0. -1.
<mgrwt>
<rscale>  0 0.32701229E+04</rscale>
<asrwt>0</asrwt>
<pdfrwt beam="1">  1        2 0.27484991E+00 0.32701229E+04</pdfrwt>
<pdfrwt beam="2">  1       -2 0.23022148E+00 0.32701229E+04</pdfrwt>
<totfact> 0.62645222E-01</totfact>
</mgrwt>
</event>
<event>
 6    1  0.1614874E-005  0.2979793E+04  0.7818608E-02  0.8249525E-01
         -2   -1    0    0    0  501 -0.00000000000E+00  0.00000000000E+00  0.12313343998E+04  0.12313343998E+04  0.00000000000E+00 0.  1.
          2   -1    0    0  501    0  0.00000000000E+00 -0.00000000000E+00 -0.18027528681E+04  0.18027528681E+04  0.00000000000E+00 0. -1.
         23    2    1    2    0    0  0.81757286478E+03  0.11626480728E+04 -0.73601260131E+03  0.16032598292E+04  0.92474862618E+02 0.  0.
         11    1    3    3    0    0  0.32064078878E+03  0.39883886695E+03 -0.23132316431E+03  0.56159893480E+03  0.00000000000E+00 0. -1.
        -11    1    3    3    0    0  0.49693207600E+03  0.76380920588E+03 -0.50468943700E+03  0.10416608944E+04  0.00000000000E+00 0.  1.
         22    1    1    2    0    0 -0.81757286478E+03 -0.11626480728E+04  0.16459413300E+03  0.14308274386E+04  0.00000000000E+00 0.  1.
<mgrwt>
<rscale>  0 0.29797930E+04</rscale>
<asrwt>0</asrwt>
<pdfrwt beam="1">  1        2 0.27734660E+00 0.29797930E+04</pdfrwt>
<pdfrwt beam="2">  1       -2 0.18943606E+00 0.29797930E+04</pdfrwt>
<totfact> 0.11529263E+00</totfact>
</mgrwt>
</event>
<event>
 6    1  0.1614874E-005  0.7159651E+03  0.7818608E-02  0.9690313E-01
          1   -1    0    0  501    0  0.00000000000E+00  0.00000000000E+00  0.10804836223E+04  0.10804836223E+04  0.00000000000E+00 0. -1.
         -1   -1    0    0    0  501 -0.00000000000E+00 -0.00000000000E+00 -0.11860569120E+03  0.11860569120E+03  0.00000000000E+00 0.  1.
         23    2    1    2    0    0 -0.25834606762E+03 -0.22195427288E+02  0.88782197952E+03  0.92942357298E+03  0.91460281228E+02 0.  0.
         11    1    3    3    0    0 -0.81600771321E+02 -0.29413116494E+02  0.42904262514E+03  0.43772296203E+03  0.00000000000E+00 0. -1.
        -11    1    3    3    0    0 -0.17674529630E+03  0.72176892066E+01  0.45877935439E+03  0.49170061095E+03  0.00000000000E+00 0.  1.
         22    1    1    2    0    0  0.25834606762E+03  0.22195427288E+02  0.74055951572E+02  0.26966574052E+03  0.00000000000E+00 0.  1.
<mgrwt>
<rscale>  0 0.71596510E+03</rscale>
<asrwt>0</asrwt>
<pdfrwt beam="1">  1        1 0.16622824E+00 0.71596510E+03</pdfrwt>
<pdfrwt beam="2">  1       -1 0.18247030E-01 0.71596510E+03</pdfrwt>
<totfact> 0.31671871E+02</totfact>
</mgrwt>
</event>
<event>
 6    1  0.1614874E-005  0.2148813E+04  0.7818608E-02  0.8540041E-01
          2   -1    0    0  501    0  0.00000000000E+00  0.00000000000E+00  0.23756922251E+04  0.23756922251E+04  0.00000000000E+00 0.  1.
         -2   -1    0    0    0  501 -0.00000000000E+00 -0.00000000000E+00 -0.48590012844E+03  0.48590012844E+03  0.00000000000E+00 0. -1.
         23    2    1    2    0    0  0.88978434935E+03  0.23811168444E+03  0.21488469592E+03  0.95011958008E+03  0.90213199175E+02 0.  0.
         13    1    3    3    0    0  0.52205974916E+03  0.11739950818E+03  0.84570059962E+02  0.54173897889E+03  0.00000000000E+00 0.  1.
        -13    1    3    3    0    0  0.36772460019E+03  0.12071217626E+03  0.13031463596E+03  0.40838060119E+03  0.00000000000E+00 0. -1.
         22    1    1    2    0    0 -0.88978434935E+03 -0.23811168444E+03  0.16749074007E+04  0.19114727734E+04  0.00000000000E+00 0.  1.
<mgrwt>
<rscale>  0 0.21488128E+04</rscale>
<asrwt>0</asrwt>
<pdfrwt beam="1">  1        2 0.36549111E+00 0.21488128E+04</pdfrwt>
<pdfrwt beam="2">  1       -2 0.74753867E-01 0.21488128E+04</pdfrwt>
<totfact> 0.60608920E+00</totfact>
</mgrwt>
</event>
<event>
 6    1  0.1614874E-005  0.3446821E+04  0.7818608E-02  0.8126510E-01
          2   -1    0    0  501    0  0.00000000000E+00  0.00000000000E+00  0.46123145769E+04  0.46123145769E+04  0.00000000000E+00 0. -1.
         -2   -1    0    0    0  501 -0.00000000000E+00 -0.00000000000E+00 -0.64395943922E+03  0.64395943922E+03  0.00000000000E+00 0.  1.
         23    2    1    2    0    0  0.10884484472E+04  0.37657346574E+03  0.33100491849E+02  0.11559378440E+04  0.92569213827E+02 0.  0.
         13    1    3    3    0    0  0.40305855084E+03  0.11229870194E+03  0.48423136497E+02  0.42120303181E+03  0.00000000000E+00 0.  1.
        -13    1    3    3    0    0  0.68538989631E+03  0.26427476380E+03 -0.15322644648E+02  0.73473481216E+03  0.00000000000E+00 0. -1.
         22    1    1    2    0    0 -0.10884484472E+04 -0.37657346574E+03  0.39352546458E+04  0.41003361722E+04  0.00000000000E+00 0. -1.
<mgrwt>
<rscale>  0 0.34468209E+04</rscale>
<asrwt>0</asrwt>
<pdfrwt beam="1">  1        2 0.70958684E+00 0.34468209E+04</pdfrwt>
<pdfrwt beam="2">  1       -2 0.99070686E-01 0.34468209E+04</pdfrwt>
<totfact> 0.65821203E-02</totfact>
</mgrwt>
</event>
<event>
 6    1  0.1614874E-005  0.4957560E+04  0.7818608E-02  0.7835088E-01
         -2   -1    0    0    0  501 -0.00000000000E+00  0.00000000000E+00  0.15596606002E+04  0.15596606002E+04  0.00000000000E+00 0.  1.
          2   -1    0    0  501    0  0.00000000000E+00 -0.00000000000E+00 -0.39395432760E+04  0.39395432760E+04  0.00000000000E+00 0. -1.
         23    2    1    2    0    0  0.51724961485E+03 -0.51668037205E+03 -0.38165683150E+04  0.38871953784E+04  0.97920558271E+02 0.  0.
         13    1    3    3    0    0  0.31951707529E+03 -0.36726574606E+03 -0.26893858619E+04  0.27330882906E+04  0.00000000000E+00 0. -1.
        -13    1    3    3    0    0  0.19773253956E+03 -0.14941462598E+03 -0.11271824531E+04  0.11541070878E+04  0.00000000000E+00 0.  1.
         22    1    1    2    0    0 -0.51724961485E+03  0.51668037205E+03  0.14366856393E+04  0.16120084978E+04  0.00000000000E+00 0.  1.
<mgrwt>
<rscale>  0 0.49575601E+04</rscale>
<asrwt>0</asrwt>
<pdfrwt beam="1">  1        2 0.60608359E+00 0.49575601E+04</pdfrwt>
<pdfrwt beam="2">  1       -2 0.23994778E+00 0.49575601E+04</pdfrwt>
<totfact> 0.20628335E-02</totfact>
</mgrwt>
</event>
<event>
 6    1  0.1614874E-005  0.2103893E+04  0.7818608E-02  0.8559530E-01
          1   -1    0    0  501    0  0.00000000000E+00  0.00000000000E+00  0.30006617968E+04  0.30006617968E+04  0.00000000000E+00 0. -1.
         -1   -1    0    0    0  501 -0.00000000000E+00 -0.00000000000E+00 -0.36878262461E+03  0.36878262461E+03  0.00000000000E+00 0.  1.
         23    2    1    2    0    0  0.35643671017E+03  0.96416472746E+03  0.97558893086E+03  0.14200962961E+04  0.90768817307E+02 0.  0.
         11    1    3    3    0    0  0.29660623160E+03  0.68855695630E+03  0.69672908296E+03  0.10234829523E+04  0.00000000000E+00 0. -1.
        -11    1    3    3    0    0  0.59830478569E+02  0.27560777116E+03  0.27885984790E+03  0.39661334377E+03  0.00000000000E+00 0.  1.
         22    1    1    2    0    0 -0.35643671017E+03 -0.96416472746E+03  0.16562902413E+04  0.19493481253E+04  0.00000000000E+00 0. -1.
<mgrwt>
<rscale>  0 0.21038935E+04</rscale>
<asrwt>0</asrwt>
<pdfrwt beam="1">  1        1 0.46164026E+00 0.21038935E+04</pdfrwt>
<pdfrwt beam="2">  1       -1 0.56735790E-01 0.21038935E+04</pdfrwt>
<totfact> 0.17285757E+00</totfact>
</mgrwt>
</event>
<event>
 6    1  0.1614874E-005  0.1129412E+04  0.7818608E-02  0.9176990E-01
         -2   -1    0    0    0  501 -0.00000000000E+00  0.00000000000E+00  0.12084673567E+04  0.12084673567E+04  0.00000000000E+00 0. -1.
          2   -1    0    0  501    0  0.00000000000E+00 -0.00000000000E+00 -0.26388196132E+03  0.26388196132E+03  0.00000000000E+00 0.  1.
         23    2    1    2    0    0 -0.13216439181E+03 -0.11974773237E+03  0.11687624561E+04  0.11858841361E+04  0.92241854521E+02 0.  0.
         13    1    3    3    0    0 -0.10633137343E+03 -0.42831845587E+02  0.54958304521E+03  0.56141112525E+03  0.00000000000E+00 0. -1.
        -13    1    3    3    0    0 -0.25833018371E+02 -0.76915886781E+02  0.61917941087E+03  0.62447301088E+03  0.00000000000E+00 0.  1.
         22    1    1    2    0    0  0.13216439181E+03  0.11974773237E+03 -0.22417706072E+03  0.28646518187E+03  0.00000000000E+00 0.  1.
<mgrwt>
<rscale>  0 0.11294118E+04</rscale>
<asrwt>0</asrwt>
<pdfrwt beam="1">  1        2 0.40597226E-01 0.11294118E+04</pdfrwt>
<pdfrwt beam="2">  1       -2 0.18591805E+00 0.11294118E+04</pdfrwt>
<totfact> 0.20722946E+01</totfact>
</mgrwt>
</event>
<event>
 6    1  0.1614874E-005  0.1823887E+04  0.7818608E-02  0.8693699E-01
         -2   -1    0    0    0  501 -0.00000000000E+00  0.00000000000E+00  0.51686368977E+03  0.51686368977E+03  0.00000000000E+00 0.  1.
          2   -1    0    0  501    0  0.00000000000E+00 -0.00000000000E+00 -0.16090141572E+04  0.16090141572E+04  0.00000000000E+00 0. -1.
         23    2    1    2    0    0 -0.15148454577E+03 -0.51310159534E+03 -0.14047934282E+04  0.15062275942E+04  0.95163937125E+02 0.  0.
         13    1    3    3    0    0 -0.14066145668E+03 -0.33696387071E+03 -0.10025955841E+04  0.10670183695E+04  0.00000000000E+00 0.  1.
        -13    1    3    3    0    0 -0.10823089085E+02 -0.17613772463E+03 -0.40219784414E+03  0.43920922477E+03  0.00000000000E+00 0. -1.
         22    1    1    2    0    0  0.15148454577E+03  0.51310159534E+03  0.31264296082E+03  0.61965025272E+03  0.00000000000E+00 0.  1.
<mgrwt>
<rscale>  0 0.18238871E+04</rscale>
<asrwt>0</asrwt>
<pdfrwt beam="1">  1        2 0.24754064E+00 0.18238871E+04</pdfrwt>
<pdfrwt beam="2">  1       -2 0.79517491E-01 0.18238871E+04</pdfrwt>
<totfact> 0.14553551E+01</totfact>
</mgrwt>
</event>
<event>
 6    1  0.1614874E-005  0.5870333E+04  0.7818608E-02  0.7706690E-01
          2   -1    0    0  501    0  0.00000000000E+00  0.00000000000E+00  0.17548618590E+04  0.17548618590E+04  0.00000000000E+00 0. -1.
         -2   -1    0    0    0  501 -0.00000000000E+00 -0.00000000000E+00 -0.49093341347E+04  0.49093341347E+04  0.00000000000E+00 0.  1.
         23    2    1    2    0    0 -0.25792744408E+04  0.73860319787E+03 -0.29269637853E+04  0.39716226080E+04  0.92075051351E+02 0.  0.
         11    1    3    3    0    0 -0.18813298057E+04  0.50594698151E+03 -0.20853627862E+04  0.28537908360E+04  0.00000000000E+00 0. -1.
        -11    1    3    3    0    0 -0.69794463508E+03  0.23265621636E+03 -0.84160099918E+03  0.11178317720E+04  0.00000000000E+00 0.  1.
         22    1    1    2    0    0  0.25792744408E+04 -0.73860319787E+03 -0.22750849035E+03  0.26925733858E+04  0.00000000000E+00 0. -1.
<mgrwt>
<rscale>  0 0.58703333E+04</rscale>
<asrwt>0</asrwt>
<pdfrwt beam="1">  1        2 0.26997874E+00 0.58703333E+04</pdfrwt>
<pdfrwt beam="2">  1       -2 0.75528218E+00 0.58703333E+04</pdfrwt>
<totfact> 0.85198747E-04</totfact>
</mgrwt>
</event>
<event>
 6    1  0.1614874E-005  0.4780424E+04  0.7818608E-02  0.7863301E-01
         -2   -1    0    0    0  501 -0.00000000000E+00  0.00000000000E+00  0.20135153640E+04  0.20135153640E+04  0.00000000000E+00 0.  1.
          2   -1    0    0  501    0  0.00000000000E+00 -0.00000000000E+00 -0.28373821155E+04  0.28373821155E+04  0.00000000000E+00 0. -1.
         23    2    1    2    0    0  0.16052419472E+04 -0.58896485863E+03 -0.21058599658E+04  0.27137994669E+04  0.79875135546E+02 0.  0.
         11    1    3    3    0    0  0.11437343505E+04 -0.45341353985E+03 -0.14870602242E+04  0.19300415055E+04  0.00000000000E+00 0.  1.
        -11    1    3    3    0    0  0.46150759672E+03 -0.13555131878E+03 -0.61879974158E+03  0.78375796139E+03  0.00000000000E+00 0. -1.
         22    1    1    2    0    0 -0.16052419472E+04  0.58896485863E+03  0.12819932144E+04  0.21370980126E+04  0.00000000000E+00 0.  1.
<mgrwt>
<rscale>  0 0.47804236E+04</rscale>
<asrwt>0</asrwt>
<pdfrwt beam="1">  1        2 0.43652032E+00 0.47804236E+04</pdfrwt>
<pdfrwt beam="2">  1       -2 0.30977160E+00 0.47804236E+04</pdfrwt>
<totfact> 0.44998514E-02</totfact>
</mgrwt>
</event>
<event>
 6    1  0.1614874E-005  0.3093163E+04  0.7818608E-02  0.8217617E-01
         -2   -1    0    0    0  501 -0.00000000000E+00  0.00000000000E+00  0.60998840362E+03  0.60998840362E+03  0.00000000000E+00 0.  1.
          2   -1    0    0  501    0  0.00000000000E+00 -0.00000000000E+00 -0.39212448728E+04  0.39212448728E+04  0.00000000000E+00 0. -1.
         23    2    1    2    0    0  0.14811519180E+03 -0.12666194395E+04 -0.37905572710E+03  0.13337242293E+04  0.94202765725E+02 0.  0.
         13    1    3    3    0    0  0.10240916154E+03 -0.95321484401E+03 -0.24299766297E+03  0.98901670330E+03  0.00000000000E+00 0.  1.
        -13    1    3    3    0    0  0.45706030256E+02 -0.31340459548E+03 -0.13605806414E+03  0.34470752600E+03  0.00000000000E+00 0. -1.
         22    1    1    2    0    0 -0.14811519180E+03  0.12666194395E+04 -0.29322007421E+04  0.31975090471E+04  0.00000000000E+00 0. -1.
<mgrwt>
<rscale>  0 0.30931627E+04</rscale>
<asrwt>0</asrwt>
<pdfrwt beam="1">  1        2 0.60326841E+00 0.30931627E+04</pdfrwt>
<pdfrwt beam="2">  1       -2 0.93844374E-01 0.30931627E+04</pdfrwt>
<totfact> 0.32188317E-01</totfact>
</mgrwt>
</event>
<event>
 6    1  0.1614874E-005  0.1669401E+04  0.7818608E-02  0.8779011E-01
          2   -1    0    0  501    0  0.00000000000E+00  0.00000000000E+00  0.64928931558E+03  0.64928931558E+03  0.00000000000E+00 0. -1.
         -2   -1    0    0    0  501 -0.00000000000E+00 -0.00000000000E+00 -0.10730577080E+04  0.10730577080E+04  0.00000000000E+00 0.  1.
         23    2    1    2    0    0 -0.61660206190E+02 -0.62115860927E+03  0.35776711338E+03  0.72212817468E+03  0.61901489093E+02 0.  0.
         13    1    3    3    0    0 -0.35480255061E+02 -0.53052484723E+03  0.28720566170E+03  0.60431991043E+03  0.00000000000E+00 0.  1.
        -13    1    3    3    0    0 -0.26179951129E+02 -0.90633762042E+02  0.70561451682E+02  0.11780826425E+03  0.00000000000E+00 0. -1.
         22    1    1    2    0    0  0.61660206190E+02  0.62115860927E+03 -0.78153550584E+03  0.10002188489E+04  0.00000000000E+00 0.  1.
<mgrwt>
<rscale>  0 0.16694010E+04</rscale>
<asrwt>0</asrwt>
<pdfrwt beam="1">  1        2 0.99890663E-01 0.16694010E+04</pdfrwt>
<pdfrwt beam="2">  1       -2 0.16508580E+00 0.16694010E+04</pdfrwt>
<totfact> 0.99204799E+00</totfact>
</mgrwt>
</event>
<event>
 6    1  0.1614874E-005  0.1775918E+04  0.7818608E-02  0.8719212E-01
         -1   -1    0    0    0  501 -0.00000000000E+00  0.00000000000E+00  0.61897959235E+03  0.61897959235E+03  0.00000000000E+00 0.  1.
          1   -1    0    0  501    0  0.00000000000E+00 -0.00000000000E+00 -0.12738236162E+04  0.12738236162E+04  0.00000000000E+00 0. -1.
         23    2    1    2    0    0 -0.75533320744E+03 -0.80655905460E+02 -0.81354602316E+03  0.11167748882E+04  0.91079030734E+02 0.  0.
         11    1    3    3    0    0 -0.55528942622E+02 -0.13491289334E+02 -0.99406554652E+02  0.11466098493E+03  0.00000000000E+00 0.  1.
        -11    1    3    3    0    0 -0.69980426482E+03 -0.67164616126E+02 -0.71413946851E+03  0.10021139033E+04  0.00000000000E+00 0. -1.
         22    1    1    2    0    0  0.75533320744E+03  0.80655905460E+02  0.15870199931E+03  0.77602832032E+03  0.00000000000E+00 0.  1.
<mgrwt>
<rscale>  0 0.17759176E+04</rscale>
<asrwt>0</asrwt>
<pdfrwt beam="1">  1        1 0.19597286E+00 0.17759176E+04</pdfrwt>
<pdfrwt beam="2">  1       -1 0.95227630E-01 0.17759176E+04</pdfrwt>
<totfact> 0.95123367E+00</totfact>
</mgrwt>
</event>
<event>
 6    1  0.1614874E-005  0.1396231E+04  0.7818608E-02  0.8956551E-01
          2   -1    0    0  501    0  0.00000000000E+00  0.00000000000E+00  0.98941602088E+03  0.98941602088E+03  0.00000000000E+00 0.  1.
         -2   -1    0    0    0  501 -0.00000000000E+00 -0.00000000000E+00 -0.49257870801E+03  0.49257870801E+03  0.00000000000E+00 0. -1.
         23    2    1    2    0    0 -0.68517850916E+03 -0.57970254201E+02  0.14078597300E+03  0.70765456048E+03  0.90134050065E+02 0.  0.
         11    1    3    3    0    0 -0.53778069132E+03 -0.82159806350E+02  0.10506219017E+03  0.55407253094E+03  0.00000000000E+00 0.  1.
        -11    1    3    3    0    0 -0.14739781784E+03  0.24189552149E+02  0.35723782838E+02  0.15358202954E+03  0.00000000000E+00 0. -1.
         22    1    1    2    0    0  0.68517850916E+03  0.57970254201E+02  0.35605133987E+03  0.77434016841E+03  0.00000000000E+00 0.  1.
<mgrwt>
<rscale>  0 0.13962310E+04</rscale>
<asrwt>0</asrwt>
<pdfrwt beam="1">  1        2 0.15221785E+00 0.13962310E+04</pdfrwt>
<pdfrwt beam="2">  1       -2 0.75781340E-01 0.13962310E+04</pdfrwt>
<totfact> 0.38883380E+01</totfact>
</mgrwt>
</event>
<event>
 6    1  0.1614874E-005  0.1301780E+04  0.7818608E-02  0.9028155E-01
         -2   -1    0    0    0  501 -0.00000000000E+00  0.00000000000E+00  0.26125985118E+03  0.26125985118E+03  0.00000000000E+00 0.  1.
          2   -1    0    0  501    0  0.00000000000E+00 -0.00000000000E+00 -0.16215956954E+04  0.16215956954E+04  0.00000000000E+00 0. -1.
         23    2    1    2    0    0 -0.20517192675E+03 -0.15469215028E+03 -0.15436351735E+04  0.15672231259E+04  0.85753113772E+02 0.  0.
         11    1    3    3    0    0 -0.14482486032E+03 -0.58023816060E+02 -0.82782535900E+03  0.84239885351E+03  0.00000000000E+00 0.  1.
        -11    1    3    3    0    0 -0.60347066426E+02 -0.96668334219E+02 -0.71580981453E+03  0.72482427238E+03  0.00000000000E+00 0. -1.
         22    1    1    2    0    0  0.20517192675E+03  0.15469215028E+03  0.18329932928E+03  0.31563242070E+03  0.00000000000E+00 0.  1.
<mgrwt>
<rscale>  0 0.13017801E+04</rscale>
<asrwt>0</asrwt>
<pdfrwt beam="1">  1        2 0.24947626E+00 0.13017801E+04</pdfrwt>
<pdfrwt beam="2">  1       -2 0.40193823E-01 0.13017801E+04</pdfrwt>
<totfact> 0.62255332E+01</totfact>
</mgrwt>
</event>
<event>
 6    1  0.1614874E-005  0.5091816E+03  0.7818608E-02  0.1011410E+00
         -4   -1    0    0    0  501 -0.00000000000E+00  0.00000000000E+00  0.18399694037E+03  0.18399694037E+03  0.00000000000E+00 0.  1.
          4   -1    0    0  501    0  0.00000000000E+00 -0.00000000000E+00 -0.35226925115E+03  0.35226925115E+03  0.00000000000E+00 0. -1.
         23    2    1    2    0    0 -0.12570598834E+03 -0.13047856300E+03  0.89356072162E+02  0.22130740913E+03  0.90364875890E+02 0.  0.
         11    1    3    3    0    0 -0.11767029350E+03 -0.14344837037E+03  0.74265073314E+02  0.19984752700E+03  0.00000000000E+00 0. -1.
        -11    1    3    3    0    0 -0.80356948430E+01  0.12969807367E+02  0.15090998848E+02  0.21459882128E+02  0.00000000000E+00 0.  1.
         22    1    1    2    0    0  0.12570598834E+03  0.13047856300E+03 -0.25762838294E+03  0.31495878239E+03  0.00000000000E+00 0. -1.
<mgrwt>
<rscale>  0 0.50918156E+03</rscale>
<asrwt>0</asrwt>
<pdfrwt beam="1">  1        4 0.54195269E-01 0.50918156E+03</pdfrwt>
<pdfrwt beam="2">  1       -4 0.28307222E-01 0.50918156E+03</pdfrwt>
<totfact> 0.76394259E+01</totfact>
</mgrwt>
</event>
<event>
 6    1  0.1614874E-005  0.2335937E+04  0.7818608E-02  0.8463885E-01
          2   -1    0    0  501    0  0.00000000000E+00  0.00000000000E+00  0.21972275185E+04  0.21972275185E+04  0.00000000000E+00 0. -1.
         -2   -1    0    0    0  501 -0.00000000000E+00 -0.00000000000E+00 -0.62085060499E+03  0.62085060499E+03  0.00000000000E+00 0.  1.
         23    2    1    2    0    0 -0.93385980960E+03  0.47870026468E+03  0.17578058794E+03  0.10679586548E+04  0.91590315704E+02 0.  0.
         13    1    3    3    0    0 -0.21622743021E+03  0.11344943674E+03  0.20310705092E+01  0.24419091203E+03  0.00000000000E+00 0.  1.
        -13    1    3    3    0    0 -0.71763237938E+03  0.36525082794E+03  0.17374951743E+03  0.82376774279E+03  0.00000000000E+00 0. -1.
         22    1    1    2    0    0  0.93385980960E+03 -0.47870026468E+03  0.14005963256E+04  0.17501194687E+04  0.00000000000E+00 0. -1.
<mgrwt>
<rscale>  0 0.23359367E+04</rscale>
<asrwt>0</asrwt>
<pdfrwt beam="1">  1        2 0.33803500E+00 0.23359367E+04</pdfrwt>
<pdfrwt beam="2">  1       -2 0.95515479E-01 0.23359367E+04</pdfrwt>
<totfact> 0.43106404E+00</totfact>
</mgrwt>
</event>
<event>
 6    1  0.1614874E-005  0.2799013E+04  0.7818608E-02  0.8303575E-01
         -1   -1    0    0    0  501 -0.00000000000E+00  0.00000000000E+00  0.91599823159E+03  0.91599823159E+03  0.00000000000E+00 0. -1.
          1   -1    0    0  501    0  0.00000000000E+00 -0.00000000000E+00 -0.21382344984E+04  0.21382344984E+04  0.00000000000E+00 0.  1.
         23    2    1    2    0    0  0.42446449949E+03 -0.75728866083E+02 -0.20628938403E+04  0.21094522642E+04  0.91394123681E+02 0.  0.
         13    1    3    3    0    0  0.17892972239E+02  0.15581025281E+02 -0.13072804211E+03  0.13286364363E+03  0.00000000000E+00 0.  1.
        -13    1    3    3    0    0  0.40657152725E+03 -0.91309891363E+02 -0.19321657982E+04  0.19765886206E+04  0.00000000000E+00 0. -1.
         22    1    1    2    0    0 -0.42446449949E+03  0.75728866083E+02  0.84065757357E+03  0.94478046576E+03  0.00000000000E+00 0. -1.
<mgrwt>
<rscale>  0 0.27990134E+04</rscale>
<asrwt>0</asrwt>
<pdfrwt beam="1">  1        1 0.32895915E+00 0.27990134E+04</pdfrwt>
<pdfrwt beam="2">  1       -1 0.14092281E+00 0.27990134E+04</pdfrwt>
<totfact> 0.85603685E-01</totfact>
</mgrwt>
</event>
<event>
 6    1  0.1614874E-005  0.1932924E+04  0.7818608E-02  0.8638640E-01
          1   -1    0    0  501    0  0.00000000000E+00  0.00000000000E+00  0.30308418580E+04  0.30308418580E+04  0.00000000000E+00 0. -1.
         -1   -1    0    0    0  501 -0.00000000000E+00 -0.00000000000E+00 -0.30818116979E+03  0.30818116979E+03  0.00000000000E+00 0.  1.
         23    2    1    2    0    0  0.39435383479E+03 -0.60682576122E+03  0.24652600758E+04  0.25709035535E+04  0.91024109917E+02 0.  0.
         13    1    3    3    0    0  0.28795561695E+03 -0.36506486149E+03  0.16077681942E+04  0.16736515040E+04  0.00000000000E+00 0. -1.
        -13    1    3    3    0    0  0.10639821784E+03 -0.24176089973E+03  0.85749188159E+03  0.89725204953E+03  0.00000000000E+00 0.  1.
         22    1    1    2    0    0 -0.39435383479E+03  0.60682576122E+03  0.25740061239E+03  0.76811947427E+03  0.00000000000E+00 0.  1.
<mgrwt>
<rscale>  0 0.19329236E+04</rscale>
<asrwt>0</asrwt>
<pdfrwt beam="1">  1        1 0.46628334E+00 0.19329236E+04</pdfrwt>
<pdfrwt beam="2">  1       -1 0.47412490E-01 0.19329236E+04</pdfrwt>
<totfact> 0.23562419E+00</totfact>
</mgrwt>
</event>
<event>
 6    1  0.1614874E-005  0.4299071E+04  0.7818608E-02  0.7946790E-01
         -2   -1    0    0    0  501 -0.00000000000E+00  0.00000000000E+00  0.16045372578E+04  0.16045372578E+04  0.00000000000E+00 0.  1.
          2   -1    0    0  501    0  0.00000000000E+00 -0.00000000000E+00 -0.28796487617E+04  0.28796487617E+04  0.00000000000E+00 0. -1.
         23    2    1    2    0    0  0.10939981160E+04 -0.65134742670E+03  0.11672944919E+04  0.17298381118E+04  0.93156397035E+02 0.  0.
         13    1    3    3    0    0  0.59322883740E+03 -0.30392292404E+03  0.63587854712E+03  0.92121176934E+03  0.00000000000E+00 0. -1.
        -13    1    3    3    0    0  0.50076927858E+03 -0.34742450265E+03  0.53141594478E+03  0.80862634250E+03  0.00000000000E+00 0.  1.
         22    1    1    2    0    0 -0.10939981160E+04  0.65134742670E+03 -0.24424059958E+04  0.27543479076E+04  0.00000000000E+00 0. -1.
<mgrwt>
<rscale>  0 0.42990714E+04</rscale>
<asrwt>0</asrwt>
<pdfrwt beam="1">  1        2 0.44302289E+00 0.42990714E+04</pdfrwt>
<pdfrwt beam="2">  1       -2 0.24685189E+00 0.42990714E+04</pdfrwt>
<totfact> 0.10696648E-01</totfact>
</mgrwt>
</event>
<event>
 6    1  0.1614874E-005  0.1046011E+04  0.7818608E-02  0.9259472E-01
          1   -1    0    0  501    0  0.00000000000E+00  0.00000000000E+00  0.14555217787E+03  0.14555217787E+03  0.00000000000E+00 0. -1.
         -1   -1    0    0    0  501 -0.00000000000E+00 -0.00000000000E+00 -0.18792893063E+04  0.18792893063E+04  0.00000000000E+00 0.  1.
         23    2    1    2    0    0  0.30932484558E+03  0.22615474375E+03 -0.19507070217E+03  0.43918004506E+03  0.89435479078E+02 0.  0.
         11    1    3    3    0    0  0.18070707764E+03  0.11639077181E+03 -0.15613061301E+03  0.26566638476E+03  0.00000000000E+00 0.  1.
        -11    1    3    3    0    0  0.12861776794E+03  0.10976397194E+03 -0.38940089154E+02  0.17351366030E+03  0.00000000000E+00 0. -1.
         22    1    1    2    0    0 -0.30932484558E+03 -0.22615474375E+03 -0.15386664263E+04  0.15856614391E+04  0.00000000000E+00 0.  1.
<mgrwt>
<rscale>  0 0.10460108E+04</rscale>
<asrwt>0</asrwt>
<pdfrwt beam="1">  1        1 0.22392643E-01 0.10460108E+04</pdfrwt>
<pdfrwt beam="2">  1       -1 0.28912142E+00 0.10460108E+04</pdfrwt>
<totfact> 0.88564042E+00</totfact>
</mgrwt>
</event>
<event>
 6    1  0.1614874E-005  0.3105746E+04  0.7818608E-02  0.8214163E-01
         -2   -1    0    0    0  501 -0.00000000000E+00  0.00000000000E+00  0.11037751784E+04  0.11037751784E+04  0.00000000000E+00 0. -1.
          2   -1    0    0  501    0  0.00000000000E+00 -0.00000000000E+00 -0.21846968622E+04  0.21846968622E+04  0.00000000000E+00 0.  1.
         23    2    1    2    0    0 -0.53170928405E+03  0.29592032959E+02 -0.20838787213E+04  0.21529046624E+04  0.94114341166E+02 0.  0.
         13    1    3    3    0    0 -0.25579648852E+02 -0.11629573293E+02 -0.19263146241E+03  0.19467009457E+03  0.00000000000E+00 0. -1.
        -13    1    3    3    0    0 -0.50612963520E+03  0.41221606252E+02 -0.18912472589E+04  0.19582345679E+04  0.00000000000E+00 0.  1.
         22    1    1    2    0    0  0.53170928405E+03 -0.29592032959E+02  0.10029570376E+04  0.11355673782E+04  0.00000000000E+00 0. -1.
<mgrwt>
<rscale>  0 0.31057458E+04</rscale>
<asrwt>0</asrwt>
<pdfrwt beam="1">  1        2 0.33610721E+00 0.31057458E+04</pdfrwt>
<pdfrwt beam="2">  1       -2 0.16981157E+00 0.31057458E+04</pdfrwt>
<totfact> 0.95562357E-01</totfact>
</mgrwt>
</event>
<event>
 6    1  0.1614874E-005  0.2687545E+04  0.7818608E-02  0.8339058E-01
          1   -1    0    0  501    0  0.00000000000E+00  0.00000000000E+00  0.79010114838E+03  0.79010114838E+03  0.00000000000E+00 0. -1.
         -1   -1    0    0    0  501 -0.00000000000E+00 -0.00000000000E+00 -0.22854340425E+04  0.22854340425E+04  0.00000000000E+00 0.  1.
         23    2    1    2    0    0 -0.65310201125E+03  0.11724061598E+04 -0.78218638267E+03  0.15557798200E+04  0.86930262263E+02 0.  0.
         13    1    3    3    0    0 -0.19117136849E+03  0.41555179444E+03 -0.24163483885E+03  0.51731729271E+03  0.00000000000E+00 0. -1.
        -13    1    3    3    0    0 -0.46193064276E+03  0.75685436531E+03 -0.54055154382E+03  0.10384625273E+04  0.00000000000E+00 0.  1.
         22    1    1    2    0    0  0.65310201125E+03 -0.11724061598E+04 -0.71314651142E+03  0.15197553709E+04  0.00000000000E+00 0. -1.
<mgrwt>
<rscale>  0 0.26875447E+04</rscale>
<asrwt>0</asrwt>
<pdfrwt beam="1">  1        1 0.12155402E+00 0.26875447E+04</pdfrwt>
<pdfrwt beam="2">  1       -1 0.35160523E+00 0.26875447E+04</pdfrwt>
<totfact> 0.29890736E-01</totfact>
</mgrwt>
</event>
<event>
 6    1  0.1614874E-005  0.2326221E+04  0.7818608E-02  0.8467654E-01
          1   -1    0    0  501    0  0.00000000000E+00  0.00000000000E+00  0.23697198202E+04  0.23697198202E+04  0.00000000000E+00 0. -1.
         -1   -1    0    0    0  501 -0.00000000000E+00 -0.00000000000E+00 -0.57087994190E+03  0.57087994190E+03  0.00000000000E+00 0.  1.
         23    2    1    2    0    0 -0.88049743112E+03  0.30413829302E+03  0.17772489810E+04  0.20088047233E+04  0.94375041104E+02 0.  0.
         13    1    3    3    0    0 -0.43847111738E+03  0.18517427030E+03  0.98049312586E+03  0.10899143090E+04  0.00000000000E+00 0.  1.
        -13    1    3    3    0    0 -0.44202631374E+03  0.11896402272E+03  0.79675585510E+03  0.91889041423E+03  0.00000000000E+00 0. -1.
         22    1    1    2    0    0  0.88049743112E+03 -0.30413829302E+03  0.21590897305E+02  0.93179503880E+03  0.00000000000E+00 0.  1.
<mgrwt>
<rscale>  0 0.23262206E+04</rscale>
<asrwt>0</asrwt>
<pdfrwt beam="1">  1        1 0.36457227E+00 0.23262206E+04</pdfrwt>
<pdfrwt beam="2">  1       -1 0.87827685E-01 0.23262206E+04</pdfrwt>
<totfact> 0.19158274E+00</totfact>
</mgrwt>
</event>
<event>
 6    1  0.1614874E-005  0.3889172E+04  0.7818608E-02  0.8027285E-01
         -2   -1    0    0    0  501 -0.00000000000E+00  0.00000000000E+00  0.23606884523E+04  0.23606884523E+04  0.00000000000E+00 0.  1.
          2   -1    0    0  501    0  0.00000000000E+00 -0.00000000000E+00 -0.16018268233E+04  0.16018268233E+04  0.00000000000E+00 0. -1.
         23    2    1    2    0    0  0.52772096939E+03  0.84134376370E+03 -0.13224834797E+04  0.16563612886E+04  0.90672013311E+02 0.  0.
         11    1    3    3    0    0  0.35246528411E+03  0.51164370021E+03 -0.76732461944E+03  0.98731865377E+03  0.00000000000E+00 0. -1.
        -11    1    3    3    0    0  0.17525568528E+03  0.32970006348E+03 -0.55515886026E+03  0.66904263482E+03  0.00000000000E+00 0.  1.
         22    1    1    2    0    0 -0.52772096939E+03 -0.84134376370E+03  0.20813451087E+04  0.23061539870E+04  0.00000000000E+00 0.  1.
<mgrwt>
<rscale>  0 0.38891717E+04</rscale>
<asrwt>0</asrwt>
<pdfrwt beam="1">  1        2 0.24643489E+00 0.38891717E+04</pdfrwt>
<pdfrwt beam="2">  1       -2 0.36318284E+00 0.38891717E+04</pdfrwt>
<totfact> 0.11361516E-01</totfact>
</mgrwt>
</event>
<event>
 6    1  0.1614874E-005  0.4274797E+04  0.7818608E-02  0.7951295E-01
         -2   -1    0    0    0  501 -0.00000000000E+00  0.00000000000E+00  0.20787757573E+04  0.20787757573E+04  0.00000000000E+00 0.  1.
          2   -1    0    0  501    0  0.00000000000E+00 -0.00000000000E+00 -0.21976741683E+04  0.21976741683E+04  0.00000000000E+00 0. -1.
         23    2    1    2    0    0 -0.17042268848E+04  0.45616024479E+03 -0.12648758365E+04  0.21727066657E+04  0.90950149852E+02 0.  0.
         13    1    3    3    0    0 -0.11648066735E+04  0.34263652493E+03 -0.90625380467E+03  0.15150809659E+04  0.00000000000E+00 0. -1.
        -13    1    3    3    0    0 -0.53942021126E+03  0.11352371986E+03 -0.35862203184E+03  0.65762569978E+03  0.00000000000E+00 0.  1.
         22    1    1    2    0    0  0.17042268848E+04 -0.45616024479E+03  0.11459774255E+04  0.21037432599E+04  0.00000000000E+00 0.  1.
<mgrwt>
<rscale>  0 0.42747967E+04</rscale>
<asrwt>0</asrwt>
<pdfrwt beam="1">  1        2 0.33810372E+00 0.42747967E+04</pdfrwt>
<pdfrwt beam="2">  1       -2 0.31981165E+00 0.42747967E+04</pdfrwt>
<totfact> 0.95947374E-02</totfact>
</mgrwt>
</event>
<event>
 6    1  0.1614874E-005  0.2452331E+04  0.7818608E-02  0.8420167E-01
          2   -1    0    0  501    0  0.00000000000E+00  0.00000000000E+00  0.12239442731E+04  0.12239442731E+04  0.00000000000E+00 0. -1.
         -2   -1    0    0    0  501 -0.00000000000E+00 -0.00000000000E+00 -0.12283907568E+04  0.12283907568E+04  0.00000000000E+00 0.  1.
         23    2    1    2    0    0  0.57301726637E+03  0.63108271514E+03 -0.88120642363E+03  0.12295013646E+04  0.92383242417E+02 0.  0.
         11    1    3    3    0    0  0.17472824333E+03  0.15014534380E+03 -0.19635762736E+03  0.30270431299E+03  0.00000000000E+00 0.  1.
        -11    1    3    3    0    0  0.39828902305E+03  0.48093737134E+03 -0.68484879627E+03  0.92679705156E+03  0.00000000000E+00 0. -1.
         22    1    1    2    0    0 -0.57301726637E+03 -0.63108271514E+03  0.87675993996E+03  0.12228336654E+04  0.00000000000E+00 0. -1.
<mgrwt>
<rscale>  0 0.24523310E+04</rscale>
<asrwt>0</asrwt>
<pdfrwt beam="1">  1        2 0.18829912E+00 0.24523310E+04</pdfrwt>
<pdfrwt beam="2">  1       -2 0.18898319E+00 0.24523310E+04</pdfrwt>
<totfact> 0.25840119E+00</totfact>
</mgrwt>
</event>
<event>
 6    1  0.1614874E-005  0.2786656E+04  0.7818608E-02  0.8307423E-01
          1   -1    0    0  501    0  0.00000000000E+00  0.00000000000E+00  0.23251081953E+04  0.23251081953E+04  0.00000000000E+00 0. -1.
         -1   -1    0    0    0  501 -0.00000000000E+00 -0.00000000000E+00 -0.83495578853E+03  0.83495578853E+03  0.00000000000E+00 0.  1.
         23    2    1    2    0    0  0.20075631069E+03 -0.11178059231E+04 -0.16677376439E+03  0.11512838777E+04  0.88588378026E+02 0.  0.
         13    1    3    3    0    0  0.14881163223E+03 -0.57846805174E+03 -0.89068705454E+02  0.60390679998E+03  0.00000000000E+00 0.  1.
        -13    1    3    3    0    0  0.51944678454E+02 -0.53933787133E+03 -0.77705058938E+02  0.54737707776E+03  0.00000000000E+00 0. -1.
         22    1    1    2    0    0 -0.20075631069E+03  0.11178059231E+04  0.16569261712E+04  0.20087801061E+04  0.00000000000E+00 0. -1.
<mgrwt>
<rscale>  0 0.27866557E+04</rscale>
<asrwt>0</asrwt>
<pdfrwt beam="1">  1        1 0.35770895E+00 0.27866557E+04</pdfrwt>
<pdfrwt beam="2">  1       -1 0.12845474E+00 0.27866557E+04</pdfrwt>
<totfact> 0.81008941E-01</totfact>
</mgrwt>
</event>
<event>
 6    1  0.1614874E-005  0.2808956E+04  0.7818608E-02  0.8300493E-01
          2   -1    0    0  501    0  0.00000000000E+00  0.00000000000E+00  0.25220055725E+04  0.25220055725E+04  0.00000000000E+00 0. -1.
         -2   -1    0    0    0  501 -0.00000000000E+00 -0.00000000000E+00 -0.78213869651E+03  0.78213869651E+03  0.00000000000E+00 0.  1.
         23    2    1    2    0    0  0.14903209845E+03  0.16343373613E+02  0.25117231165E+04  0.25178620497E+04  0.91643958743E+02 0.  0.
         13    1    3    3    0    0  0.16145208696E+03  0.14751561282E+02  0.22458002616E+04  0.22516445545E+04  0.00000000000E+00 0. -1.
        -13    1    3    3    0    0 -0.12419988507E+02  0.15918123313E+01  0.26592285490E+03  0.26621749518E+03  0.00000000000E+00 0.  1.
         22    1    1    2    0    0 -0.14903209845E+03 -0.16343373613E+02 -0.77185624055E+03  0.78628221925E+03  0.00000000000E+00 0.  1.
<mgrwt>
<rscale>  0 0.28089558E+04</rscale>
<asrwt>0</asrwt>
<pdfrwt beam="1">  1        2 0.38800085E+00 0.28089558E+04</pdfrwt>
<pdfrwt beam="2">  1       -2 0.12032903E+00 0.28089558E+04</pdfrwt>
<totfact> 0.15496992E+00</totfact>
</mgrwt>
</event>
<event>
 6    1  0.1614874E-005  0.2955107E+04  0.7818608E-02  0.8256668E-01
          2   -1    0    0  501    0  0.00000000000E+00  0.00000000000E+00  0.26419257129E+04  0.26419257129E+04  0.00000000000E+00 0. -1.
         -2   -1    0    0    0  501 -0.00000000000E+00 -0.00000000000E+00 -0.82635360020E+03  0.82635360020E+03  0.00000000000E+00 0.  1.
         23    2    1    2    0    0  0.12827043716E+04  0.98209092241E+02  0.59036981701E+02  0.12910353678E+04  0.91167017531E+02 0.  0.
         13    1    3    3    0    0  0.88818739475E+03  0.43777062330E+02  0.61664909550E+01  0.88928696436E+03  0.00000000000E+00 0.  1.
        -13    1    3    3    0    0  0.39451697685E+03  0.54432029911E+02  0.52870490746E+02  0.40174840348E+03  0.00000000000E+00 0. -1.
         22    1    1    2    0    0 -0.12827043716E+04 -0.98209092241E+02  0.17565351310E+04  0.21772439453E+04  0.00000000000E+00 0. -1.
<mgrwt>
<rscale>  0 0.29551073E+04</rscale>
<asrwt>0</asrwt>
<pdfrwt beam="1">  1        2 0.40645011E+00 0.29551073E+04</pdfrwt>
<pdfrwt beam="2">  1       -2 0.12713132E+00 0.29551073E+04</pdfrwt>
<totfact> 0.11346343E+00</totfact>
</mgrwt>
</event>
<event>
 6    1  0.1614874E-005  0.2510414E+04  0.7818608E-02  0.8399285E-01
         -1   -1    0    0    0  501 -0.00000000000E+00  0.00000000000E+00  0.87674069996E+03  0.87674069996E+03  0.00000000000E+00 0.  1.
          1   -1    0    0  501    0  0.00000000000E+00 -0.00000000000E+00 -0.17970479095E+04  0.17970479095E+04  0.00000000000E+00 0. -1.
         23    2    1    2    0    0  0.22571373872E+03  0.62066059324E+03 -0.15956218552E+04  0.17292166775E+04  0.89526249171E+02 0.  0.
         13    1    3    3    0    0 -0.57676676975E+01  0.49525625875E+02 -0.13484135262E+03  0.14376454356E+03  0.00000000000E+00 0.  1.
        -13    1    3    3    0    0  0.23148140642E+03  0.57113496736E+03 -0.14607805026E+04  0.15854521340E+04  0.00000000000E+00 0. -1.
         22    1    1    2    0    0 -0.22571373872E+03 -0.62066059324E+03  0.67531464568E+03  0.94457193189E+03  0.00000000000E+00 0.  1.
<mgrwt>
<rscale>  0 0.25104143E+04</rscale>
<asrwt>0</asrwt>
<pdfrwt beam="1">  1        1 0.27646891E+00 0.25104143E+04</pdfrwt>
<pdfrwt beam="2">  1       -1 0.13488319E+00 0.25104143E+04</pdfrwt>
<totfact> 0.16770633E+00</totfact>
</mgrwt>
</event>
<event>
 6    1  0.1614874E-005  0.2505662E+04  0.7818608E-02  0.8400971E-01
         -2   -1    0    0    0  501 -0.00000000000E+00  0.00000000000E+00  0.11688768524E+04  0.11688768524E+04  0.00000000000E+00 0. -1.
          2   -1    0    0  501    0  0.00000000000E+00 -0.00000000000E+00 -0.13428152986E+04  0.13428152986E+04  0.00000000000E+00 0.  1.
         23    2    1    2    0    0 -0.74818024530E+03  0.17468408180E+03 -0.10769609380E+04  0.13260539986E+04  0.91028222034E+02 0.  0.
         11    1    3    3    0    0 -0.11086390890E+03  0.54152595429E+02 -0.20576913678E+03  0.23992550415E+03  0.00000000000E+00 0.  1.
        -11    1    3    3    0    0 -0.63731633640E+03  0.12053148637E+03 -0.87119180125E+03  0.10861284944E+04  0.00000000000E+00 0. -1.
         22    1    1    2    0    0  0.74818024530E+03 -0.17468408180E+03  0.90302249184E+03  0.11856381525E+04  0.00000000000E+00 0. -1.
<mgrwt>
<rscale>  0 0.25056622E+04</rscale>
<asrwt>0</asrwt>
<pdfrwt beam="1">  1        2 0.20658697E+00 0.25056622E+04</pdfrwt>
<pdfrwt beam="2">  1       -2 0.17982721E+00 0.25056622E+04</pdfrwt>
<totfact> 0.25305841E+00</totfact>
</mgrwt>
</event>
<event>
 6    1  0.1614874E-005  0.1153472E+04  0.7818608E-02  0.9154586E-01
         -2   -1    0    0    0  501 -0.00000000000E+00  0.00000000000E+00  0.29136343754E+03  0.29136343754E+03  0.00000000000E+00 0.  1.
          2   -1    0    0  501    0  0.00000000000E+00 -0.00000000000E+00 -0.11416134090E+04  0.11416134090E+04  0.00000000000E+00 0. -1.
         23    2    1    2    0    0  0.49146487490E+03  0.91749089782E+02 -0.80210581393E+02  0.51487212431E+03  0.93294953200E+02 0.  0.
         13    1    3    3    0    0  0.23826778275E+03  0.13103757477E+02 -0.26951511224E+01  0.23864305688E+03  0.00000000000E+00 0. -1.
        -13    1    3    3    0    0  0.25319709214E+03  0.78645332306E+02 -0.77515430270E+02  0.27622906743E+03  0.00000000000E+00 0.  1.
         22    1    1    2    0    0 -0.49146487490E+03 -0.91749089782E+02 -0.77003939009E+03  0.91810472225E+03  0.00000000000E+00 0. -1.
<mgrwt>
<rscale>  0 0.11534720E+04</rscale>
<asrwt>0</asrwt>
<pdfrwt beam="1">  1        2 0.17563284E+00 0.11534720E+04</pdfrwt>
<pdfrwt beam="2">  1       -2 0.44825143E-01 0.11534720E+04</pdfrwt>
<totfact> 0.95906203E+01</totfact>
</mgrwt>
</event>
<event>
 6    1  0.1614874E-005  0.2460622E+04  0.7818608E-02  0.8417150E-01
          1   -1    0    0  501    0  0.00000000000E+00  0.00000000000E+00  0.26007419899E+04  0.26007419899E+04  0.00000000000E+00 0. -1.
         -1   -1    0    0    0  501 -0.00000000000E+00 -0.00000000000E+00 -0.58201285084E+03  0.58201285084E+03  0.00000000000E+00 0.  1.
         23    2    1    2    0    0  0.12077535628E+04  0.22261778024E+03  0.98124356788E+03  0.15750845838E+04  0.99121956012E+02 0.  0.
         13    1    3    3    0    0  0.10251956786E+04  0.17736495527E+03  0.78569034227E+03  0.13037614125E+04  0.00000000000E+00 0.  1.
        -13    1    3    3    0    0  0.18255788417E+03  0.45252824969E+02  0.19555322561E+03  0.27132317130E+03  0.00000000000E+00 0. -1.
         22    1    1    2    0    0 -0.12077535628E+04 -0.22261778024E+03  0.10374855712E+04  0.16076702569E+04  0.00000000000E+00 0.  1.
<mgrwt>
<rscale>  0 0.24606221E+04</rscale>
<asrwt>0</asrwt>
<pdfrwt beam="1">  1        1 0.40011415E+00 0.24606221E+04</pdfrwt>
<pdfrwt beam="2">  1       -1 0.89540440E-01 0.24606221E+04</pdfrwt>
<totfact> 0.12547729E+00</totfact>
</mgrwt>
</event>
<event>
 6    1  0.1614874E-005  0.5063096E+04  0.7818608E-02  0.7818847E-01
         -2   -1    0    0    0  501 -0.00000000000E+00  0.00000000000E+00  0.21723502838E+04  0.21723502838E+04  0.00000000000E+00 0.  1.
          2   -1    0    0  501    0  0.00000000000E+00 -0.00000000000E+00 -0.29501393376E+04  0.29501393376E+04  0.00000000000E+00 0. -1.
         23    2    1    2    0    0  0.70404000686E+02 -0.84815479495E+03  0.20224759118E+04  0.21957495993E+04  0.81143143430E+02 0.  0.
         11    1    3    3    0    0  0.80206645498E+02 -0.82466003819E+03  0.19426539214E+04  0.21119662741E+04  0.00000000000E+00 0. -1.
        -11    1    3    3    0    0 -0.98026448118E+01 -0.23494756766E+02  0.79821990316E+02  0.83783325183E+02  0.00000000000E+00 0.  1.
         22    1    1    2    0    0 -0.70404000686E+02  0.84815479495E+03 -0.28002649655E+04  0.29267400221E+04  0.00000000000E+00 0. -1.
<mgrwt>
<rscale>  0 0.50630963E+04</rscale>
<asrwt>0</asrwt>
<pdfrwt beam="1">  1        2 0.45386759E+00 0.50630963E+04</pdfrwt>
<pdfrwt beam="2">  1       -2 0.33420774E+00 0.50630963E+04</pdfrwt>
<totfact> 0.26471972E-02</totfact>
</mgrwt>
</event>
<event>
 6    1  0.1614874E-005  0.2317981E+04  0.7818608E-02  0.8470865E-01
          1   -1    0    0  501    0  0.00000000000E+00  0.00000000000E+00  0.15649794157E+04  0.15649794157E+04  0.00000000000E+00 0. -1.
         -1   -1    0    0    0  501 -0.00000000000E+00 -0.00000000000E+00 -0.85832390595E+03  0.85832390595E+03  0.00000000000E+00 0.  1.
         23    2    1    2    0    0  0.10696634204E+04  0.43697670944E+03  0.28717318505E+03  0.11940377286E+04  0.90161973690E+02 0.  0.
         13    1    3    3    0    0  0.90863309522E+03  0.38852381462E+03  0.27327750825E+03  0.10253026152E+04  0.00000000000E+00 0. -1.
        -13    1    3    3    0    0  0.16103032520E+03  0.48452894824E+02  0.13895676803E+02  0.16873511337E+03  0.00000000000E+00 0.  1.
         22    1    1    2    0    0 -0.10696634204E+04 -0.43697670944E+03  0.41948232471E+03  0.12292655931E+04  0.00000000000E+00 0.  1.
<mgrwt>
<rscale>  0 0.23179812E+04</rscale>
<asrwt>0</asrwt>
<pdfrwt beam="1">  1        1 0.24076606E+00 0.23179812E+04</pdfrwt>
<pdfrwt beam="2">  1       -1 0.13204983E+00 0.23179812E+04</pdfrwt>
<totfact> 0.25946590E+00</totfact>
</mgrwt>
</event>
<event>
 6    1  0.1614874E-005  0.4090772E+04  0.7818608E-02  0.7986481E-01
         -1   -1    0    0    0  501 -0.00000000000E+00  0.00000000000E+00  0.21143591909E+04  0.21143591909E+04  0.00000000000E+00 0.  1.
          1   -1    0    0  501    0  0.00000000000E+00 -0.00000000000E+00 -0.19786625854E+04  0.19786625854E+04  0.00000000000E+00 0. -1.
         23    2    1    2    0    0 -0.19300695395E+03  0.10439842564E+04 -0.16801646623E+04  0.19895705751E+04  0.91010817640E+02 0.  0.
         11    1    3    3    0    0 -0.31109352772E+02  0.20738220479E+03 -0.40185386179E+03  0.45327882912E+03  0.00000000000E+00 0. -1.
        -11    1    3    3    0    0 -0.16189760118E+03  0.83660205160E+03 -0.12783108005E+04  0.15362917460E+04  0.00000000000E+00 0.  1.
         22    1    1    2    0    0  0.19300695395E+03 -0.10439842564E+04  0.18158612679E+04  0.21034512012E+04  0.00000000000E+00 0.  1.
<mgrwt>
<rscale>  0 0.40907718E+04</rscale>
<asrwt>0</asrwt>
<pdfrwt beam="1">  1        1 0.30440963E+00 0.40907718E+04</pdfrwt>
<pdfrwt beam="2">  1       -1 0.32528603E+00 0.40907718E+04</pdfrwt>
<totfact> 0.54095403E-02</totfact>
</mgrwt>
</event>
<event>
 6    1  0.1614874E-005  0.1619425E+04  0.7818608E-02  0.8808703E-01
         -2   -1    0    0    0  501 -0.00000000000E+00  0.00000000000E+00  0.31157142939E+03  0.31157142939E+03  0.00000000000E+00 0.  1.
          2   -1    0    0  501    0  0.00000000000E+00 -0.00000000000E+00 -0.21042826168E+04  0.21042826168E+04  0.00000000000E+00 0. -1.
         23    2    1    2    0    0 -0.68254980300E+03 -0.78821068625E+02 -0.15308650396E+04  0.16805647157E+04  0.93075236877E+02 0.  0.
         13    1    3    3    0    0 -0.85566807750E+02 -0.24729645964E+02 -0.13872010334E+03  0.16485296797E+03  0.00000000000E+00 0.  1.
        -13    1    3    3    0    0 -0.59698299525E+03 -0.54091422661E+02 -0.13921449362E+04  0.15157117477E+04  0.00000000000E+00 0. -1.
         22    1    1    2    0    0  0.68254980300E+03  0.78821068625E+02 -0.26184614783E+03  0.73528933051E+03  0.00000000000E+00 0.  1.
<mgrwt>
<rscale>  0 0.16194250E+04</rscale>
<asrwt>0</asrwt>
<pdfrwt beam="1">  1        2 0.32373580E+00 0.16194250E+04</pdfrwt>
<pdfrwt beam="2">  1       -2 0.47934065E-01 0.16194250E+04</pdfrwt>
<totfact> 0.23082378E+01</totfact>
</mgrwt>
</event>
<event>
 6    1  0.1614874E-005  0.4239564E+04  0.7818608E-02  0.7957889E-01
         -1   -1    0    0    0  501 -0.00000000000E+00  0.00000000000E+00  0.23858179991E+04  0.23858179991E+04  0.00000000000E+00 0.  1.
          1   -1    0    0  501    0  0.00000000000E+00 -0.00000000000E+00 -0.18834111368E+04  0.18834111368E+04  0.00000000000E+00 0. -1.
         23    2    1    2    0    0 -0.37554592485E+03  0.20830742764E+04  0.34520893721E+03  0.21467437130E+04  0.95426287482E+02 0.  0.
         11    1    3    3    0    0 -0.17822224715E+03  0.79437900792E+03  0.10121835811E+03  0.82039401121E+03  0.00000000000E+00 0. -1.
        -11    1    3    3    0    0 -0.19732367770E+03  0.12886952684E+04  0.24399057911E+03  0.13263497018E+04  0.00000000000E+00 0.  1.
         22    1    1    2    0    0  0.37554592485E+03 -0.20830742764E+04  0.15719792510E+03  0.21224854228E+04  0.00000000000E+00 0.  1.
<mgrwt>
<rscale>  0 0.42395642E+04</rscale>
<asrwt>0</asrwt>
<pdfrwt beam="1">  1        1 0.28975556E+00 0.42395642E+04</pdfrwt>
<pdfrwt beam="2">  1       -1 0.36704892E+00 0.42395642E+04</pdfrwt>
<totfact> 0.32808362E-02</totfact>
</mgrwt>
</event>
<event>
 6    1  0.1614874E-005  0.9480606E+03  0.7818608E-02  0.9367420E-01
         -2   -1    0    0    0  501 -0.00000000000E+00  0.00000000000E+00  0.26320319647E+03  0.26320319647E+03  0.00000000000E+00 0. -1.
          2   -1    0    0  501    0  0.00000000000E+00 -0.00000000000E+00 -0.85373106057E+03  0.85373106057E+03  0.00000000000E+00 0.  1.
         23    2    1    2    0    0 -0.37104844934E+02 -0.35891682125E+03  0.55894454958E+02  0.37662360018E+03  0.92320593704E+02 0.  0.
         11    1    3    3    0    0 -0.19270151842E+02 -0.26767189217E+03  0.80999457172E+02  0.28032212305E+03  0.00000000000E+00 0.  1.
        -11    1    3    3    0    0 -0.17834693092E+02 -0.91244929083E+02 -0.25105002214E+02  0.96301477129E+02  0.00000000000E+00 0. -1.
         22    1    1    2    0    0  0.37104844934E+02  0.35891682125E+03 -0.64642231905E+03  0.74031065686E+03  0.00000000000E+00 0.  1.
<mgrwt>
<rscale>  0 0.94806064E+03</rscale>
<asrwt>0</asrwt>
<pdfrwt beam="1">  1        2 0.13134324E+00 0.94806064E+03</pdfrwt>
<pdfrwt beam="2">  1       -2 0.40492799E-01 0.94806064E+03</pdfrwt>
<totfact> 0.18218592E+02</totfact>
</mgrwt>
</event>
<event>
 6    1  0.1614874E-005  0.1564732E+04  0.7818608E-02  0.8842512E-01
          2   -1    0    0  501    0  0.00000000000E+00  0.00000000000E+00  0.13360791738E+04  0.13360791738E+04  0.00000000000E+00 0.  1.
         -2   -1    0    0    0  501 -0.00000000000E+00 -0.00000000000E+00 -0.45812923382E+03  0.45812923382E+03  0.00000000000E+00 0. -1.
         23    2    1    2    0    0  0.20651562425E+03  0.66136483511E+03  0.30451153048E+02  0.69953661113E+03  0.91498903874E+02 0.  0.
         11    1    3    3    0    0  0.12757870376E+03  0.36220416838E+03 -0.26539997623E+02  0.38493188582E+03  0.00000000000E+00 0. -1.
        -11    1    3    3    0    0  0.78936920497E+02  0.29916066673E+03  0.56991150671E+02  0.31460472532E+03  0.00000000000E+00 0.  1.
         22    1    1    2    0    0 -0.20651562425E+03 -0.66136483511E+03  0.84749878695E+03  0.10946717965E+04  0.00000000000E+00 0.  1.
<mgrwt>
<rscale>  0 0.15647325E+04</rscale>
<asrwt>0</asrwt>
<pdfrwt beam="1">  1        2 0.20555064E+00 0.15647325E+04</pdfrwt>
<pdfrwt beam="2">  1       -2 0.70481421E-01 0.15647325E+04</pdfrwt>
<totfact> 0.27734651E+01</totfact>
</mgrwt>
</event>
<event>
 6    1  0.1614874E-005  0.8695832E+03  0.7818608E-02  0.9464423E-01
          1   -1    0    0  501    0  0.00000000000E+00  0.00000000000E+00  0.39792263877E+03  0.39792263877E+03  0.00000000000E+00 0. -1.
         -1   -1    0    0    0  501 -0.00000000000E+00 -0.00000000000E+00 -0.47507664749E+03  0.47507664749E+03  0.00000000000E+00 0.  1.
         23    2    1    2    0    0 -0.33307014064E+03  0.15316103869E+03  0.18652659873E+03  0.42142262044E+03  0.91710580768E+02 0.  0.
         11    1    3    3    0    0 -0.26317807293E+03  0.79990637997E+02  0.11856592610E+03  0.29953143253E+03  0.00000000000E+00 0. -1.
        -11    1    3    3    0    0 -0.69892067709E+02  0.73170400697E+02  0.67960672632E+02  0.12189118792E+03  0.00000000000E+00 0.  1.
         22    1    1    2    0    0  0.33307014064E+03 -0.15316103869E+03 -0.26368060746E+03  0.45157666582E+03  0.00000000000E+00 0.  1.
<mgrwt>
<rscale>  0 0.86958324E+03</rscale>
<asrwt>0</asrwt>
<pdfrwt beam="1">  1        1 0.61218868E-01 0.86958324E+03</pdfrwt>
<pdfrwt beam="2">  1       -1 0.73088715E-01 0.86958324E+03</pdfrwt>
<totfact> 0.11511693E+02</totfact>
</mgrwt>
</event>
<event>
 6    1  0.1614874E-005  0.2213859E+04  0.7818608E-02  0.8512682E-01
          2   -1    0    0  501    0  0.00000000000E+00  0.00000000000E+00  0.28744297971E+04  0.28744297971E+04  0.00000000000E+00 0. -1.
         -2   -1    0    0    0  501 -0.00000000000E+00 -0.00000000000E+00 -0.42627347860E+03  0.42627347860E+03  0.00000000000E+00 0.  1.
         23    2    1    2    0    0 -0.70766341071E+03  0.39521529031E+03  0.23459906752E+04  0.24837452307E+04  0.91298928827E+02 0.  0.
         13    1    3    3    0    0 -0.45094702568E+03  0.29893463286E+03  0.15170693550E+04  0.16106565625E+04  0.00000000000E+00 0. -1.
        -13    1    3    3    0    0 -0.25671638503E+03  0.96280657447E+02  0.82892132025E+03  0.87308866818E+03  0.00000000000E+00 0.  1.
         22    1    1    2    0    0  0.70766341071E+03 -0.39521529031E+03  0.10216564327E+03  0.81695804495E+03  0.00000000000E+00 0.  1.
<mgrwt>
<rscale>  0 0.22138592E+04</rscale>
<asrwt>0</asrwt>
<pdfrwt beam="1">  1        2 0.44221996E+00 0.22138592E+04</pdfrwt>
<pdfrwt beam="2">  1       -2 0.65580537E-01 0.22138592E+04</pdfrwt>
<totfact> 0.40765043E+00</totfact>
</mgrwt>
</event>
<event>
 6    1  0.1614874E-005  0.3890779E+04  0.7818608E-02  0.8026950E-01
         -2   -1    0    0    0  501 -0.00000000000E+00  0.00000000000E+00  0.10138856728E+04  0.10138856728E+04  0.00000000000E+00 0. -1.
          2   -1    0    0  501    0  0.00000000000E+00 -0.00000000000E+00 -0.37327094069E+04  0.37327094069E+04  0.00000000000E+00 0.  1.
         23    2    1    2    0    0  0.17982949644E+04 -0.34972776280E+03 -0.21546881479E+04  0.28297165633E+04  0.91872339720E+02 0.  0.
         11    1    3    3    0    0  0.11671030861E+04 -0.26468051400E+03 -0.13700843931E+04  0.18191527237E+04  0.00000000000E+00 0. -1.
        -11    1    3    3    0    0  0.63119187827E+03 -0.85047248794E+02 -0.78460375480E+03  0.10105638395E+04  0.00000000000E+00 0.  1.
         22    1    1    2    0    0 -0.17982949644E+04  0.34972776280E+03 -0.56413558623E+03  0.19168785164E+04  0.00000000000E+00 0. -1.
<mgrwt>
<rscale>  0 0.38907791E+04</rscale>
<asrwt>0</asrwt>
<pdfrwt beam="1">  1        2 0.57426299E+00 0.38907791E+04</pdfrwt>
<pdfrwt beam="2">  1       -2 0.15598241E+00 0.38907791E+04</pdfrwt>
<totfact> 0.11825620E-01</totfact>
</mgrwt>
</event>
<event>
 6    1  0.1614874E-005  0.3186354E+04  0.7818608E-02  0.8192430E-01
          2   -1    0    0  501    0  0.00000000000E+00  0.00000000000E+00  0.22045333114E+04  0.22045333114E+04  0.00000000000E+00 0. -1.
         -2   -1    0    0    0  501 -0.00000000000E+00 -0.00000000000E+00 -0.11513607813E+04  0.11513607813E+04  0.00000000000E+00 0.  1.
         23    2    1    2    0    0 -0.14576623524E+04  0.39602247290E+03 -0.20581403338E+01  0.15133075682E+04  0.92099009469E+02 0.  0.
         11    1    3    3    0    0 -0.22677527476E+03  0.47627314819E+02  0.30042758820E+02  0.23366205023E+03  0.00000000000E+00 0. -1.
        -11    1    3    3    0    0 -0.12308870776E+04  0.34839515808E+03 -0.32100899153E+02  0.12796455180E+04  0.00000000000E+00 0.  1.
         22    1    1    2    0    0  0.14576623524E+04 -0.39602247290E+03  0.10552306704E+04  0.18425865245E+04  0.00000000000E+00 0. -1.
<mgrwt>
<rscale>  0 0.31863542E+04</rscale>
<asrwt>0</asrwt>
<pdfrwt beam="1">  1        2 0.33915897E+00 0.31863542E+04</pdfrwt>
<pdfrwt beam="2">  1       -2 0.17713243E+00 0.31863542E+04</pdfrwt>
<totfact> 0.82154930E-01</totfact>
</mgrwt>
</event>
<event>
 6    1  0.1614874E-005  0.4648307E+04  0.7818608E-02  0.7885175E-01
         -1   -1    0    0    0  501 -0.00000000000E+00  0.00000000000E+00  0.21404994101E+04  0.21404994101E+04  0.00000000000E+00 0.  1.
          1   -1    0    0  501    0  0.00000000000E+00 -0.00000000000E+00 -0.25235646417E+04  0.25235646417E+04  0.00000000000E+00 0. -1.
         23    2    1    2    0    0 -0.52001831116E+01 -0.20451160216E+04  0.91457006775E+03  0.22420021298E+04  0.87227045912E+02 0.  0.
         13    1    3    3    0    0 -0.30964507724E+02 -0.13322627931E+04  0.62963040835E+03  0.14738783537E+04  0.00000000000E+00 0. -1.
        -13    1    3    3    0    0  0.25764324612E+02 -0.71285322852E+03  0.28493965941E+03  0.76812377605E+03  0.00000000000E+00 0.  1.
         22    1    1    2    0    0  0.52001831116E+01  0.20451160216E+04 -0.12976352994E+04  0.24220619220E+04  0.00000000000E+00 0. -1.
<mgrwt>
<rscale>  0 0.46483066E+04</rscale>
<asrwt>0</asrwt>
<pdfrwt beam="1">  1        1 0.38824071E+00 0.46483066E+04</pdfrwt>
<pdfrwt beam="2">  1       -1 0.32930760E+00 0.46483066E+04</pdfrwt>
<totfact> 0.20606006E-02</totfact>
</mgrwt>
</event>
<event>
 6    1  0.1614874E-005  0.3752574E+04  0.7818608E-02  0.8056410E-01
         -2   -1    0    0    0  501 -0.00000000000E+00  0.00000000000E+00  0.17995529074E+04  0.17995529074E+04  0.00000000000E+00 0.  1.
          2   -1    0    0  501    0  0.00000000000E+00 -0.00000000000E+00 -0.19562933593E+04  0.19562933593E+04  0.00000000000E+00 0. -1.
         23    2    1    2    0    0  0.65058319373E+03  0.16880843943E+04  0.41572745728E+03  0.18583197396E+04  0.87381470896E+02 0.  0.
         11    1    3    3    0    0  0.47976574315E+03  0.13268667090E+04  0.30229080499E+03  0.14429588222E+04  0.00000000000E+00 0. -1.
        -11    1    3    3    0    0  0.17081745058E+03  0.36121768531E+03  0.11343665229E+03  0.41536091738E+03  0.00000000000E+00 0.  1.
         22    1    1    2    0    0 -0.65058319373E+03 -0.16880843943E+04 -0.57246790919E+03  0.18975265272E+04  0.00000000000E+00 0. -1.
<mgrwt>
<rscale>  0 0.37525743E+04</rscale>
<asrwt>0</asrwt>
<pdfrwt beam="1">  1        2 0.30096821E+00 0.37525743E+04</pdfrwt>
<pdfrwt beam="2">  1       -2 0.27685429E+00 0.37525743E+04</pdfrwt>
<totfact> 0.25034992E-01</totfact>
</mgrwt>
</event>
<event>
 6    1  0.1614874E-005  0.2037190E+04  0.7818608E-02  0.8589428E-01
          1   -1    0    0  501    0  0.00000000000E+00  0.00000000000E+00  0.12569604672E+04  0.12569604672E+04  0.00000000000E+00 0. -1.
         -1   -1    0    0    0  501 -0.00000000000E+00 -0.00000000000E+00 -0.82543265088E+03  0.82543265088E+03  0.00000000000E+00 0.  1.
         23    2    1    2    0    0 -0.23464565325E+02  0.96359432729E+03  0.54661883573E+03  0.11116662996E+04  0.89135832809E+02 0.  0.
         13    1    3    3    0    0 -0.53791742288E+02  0.52889032192E+03  0.28067206352E+03  0.60116165164E+03  0.00000000000E+00 0.  1.
        -13    1    3    3    0    0  0.30327176963E+02  0.43470400537E+03  0.26594677221E+03  0.51050464796E+03  0.00000000000E+00 0. -1.
         22    1    1    2    0    0  0.23464565325E+02 -0.96359432729E+03 -0.11509101938E+03  0.97072681850E+03  0.00000000000E+00 0.  1.
<mgrwt>
<rscale>  0 0.20371904E+04</rscale>
<asrwt>0</asrwt>
<pdfrwt beam="1">  1        1 0.19337853E+00 0.20371904E+04</pdfrwt>
<pdfrwt beam="2">  1       -1 0.12698964E+00 0.20371904E+04</pdfrwt>
<totfact> 0.48324223E+00</totfact>
</mgrwt>
</event>
<event>
 6    1  0.1614874E-005  0.2337660E+04  0.7818608E-02  0.8463219E-01
         -2   -1    0    0    0  501 -0.00000000000E+00  0.00000000000E+00  0.37928350877E+03  0.37928350877E+03  0.00000000000E+00 0.  1.
          2   -1    0    0  501    0  0.00000000000E+00 -0.00000000000E+00 -0.36019577300E+04  0.36019577300E+04  0.00000000000E+00 0. -1.
         23    2    1    2    0    0  0.65574260986E+03 -0.88741220924E+03 -0.96625576309E+03  0.14694842725E+04  0.90747054170E+02 0.  0.
         13    1    3    3    0    0  0.12061765556E+03 -0.11006857993E+03 -0.13522431627E+03  0.21201256291E+03  0.00000000000E+00 0.  1.
        -13    1    3    3    0    0  0.53512495430E+03 -0.77734362932E+03 -0.83103144682E+03  0.12574717096E+04  0.00000000000E+00 0. -1.
         22    1    1    2    0    0 -0.65574260986E+03  0.88741220924E+03 -0.22564184582E+04  0.25117569663E+04  0.00000000000E+00 0. -1.
<mgrwt>
<rscale>  0 0.23376597E+04</rscale>
<asrwt>0</asrwt>
<pdfrwt beam="1">  1        2 0.55414735E+00 0.23376597E+04</pdfrwt>
<pdfrwt beam="2">  1       -2 0.58351308E-01 0.23376597E+04</pdfrwt>
<totfact> 0.17134653E+00</totfact>
</mgrwt>
</event>
<event>
 6    1  0.1614874E-005  0.3147092E+04  0.7818608E-02  0.8202932E-01
         -1   -1    0    0    0  501 -0.00000000000E+00  0.00000000000E+00  0.11081346208E+04  0.11081346208E+04  0.00000000000E+00 0.  1.
          1   -1    0    0  501    0  0.00000000000E+00 -0.00000000000E+00 -0.22344277047E+04  0.22344277047E+04  0.00000000000E+00 0. -1.
         23    2    1    2    0    0 -0.90954794107E+03  0.98222712765E+03  0.31201480897E+03  0.13776762774E+04  0.92688169544E+02 0.  0.
         13    1    3    3    0    0 -0.52099607999E+03  0.57173330617E+03  0.13359344650E+03  0.78496057079E+03  0.00000000000E+00 0.  1.
        -13    1    3    3    0    0 -0.38855186108E+03  0.41049382148E+03  0.17842136247E+03  0.59271570657E+03  0.00000000000E+00 0. -1.
         22    1    1    2    0    0  0.90954794107E+03 -0.98222712765E+03 -0.14383078929E+04  0.19648860481E+04  0.00000000000E+00 0.  1.
<mgrwt>
<rscale>  0 0.31470918E+04</rscale>
<asrwt>0</asrwt>
<pdfrwt beam="1">  1        1 0.34375811E+00 0.31470918E+04</pdfrwt>
<pdfrwt beam="2">  1       -1 0.17048225E+00 0.31470918E+04</pdfrwt>
<totfact> 0.42326699E-01</totfact>
</mgrwt>
</event>
<event>
 6    1  0.1614874E-005  0.4028404E+04  0.7818608E-02  0.7998841E-01
         -1   -1    0    0    0  501 -0.00000000000E+00  0.00000000000E+00  0.16075029344E+04  0.16075029344E+04  0.00000000000E+00 0.  1.
          1   -1    0    0  501    0  0.00000000000E+00 -0.00000000000E+00 -0.25237962127E+04  0.25237962127E+04  0.00000000000E+00 0. -1.
         23    2    1    2    0    0 -0.58940566613E+03 -0.17717689899E+04  0.31418332269E+03  0.18950887236E+04  0.78011006166E+02 0.  0.
         11    1    3    3    0    0 -0.52099583652E+03 -0.15283347260E+04  0.24725372507E+03  0.16335170954E+04  0.00000000000E+00 0.  1.
        -11    1    3    3    0    0 -0.68409829609E+02 -0.24343426390E+03  0.66929597623E+02  0.26157162817E+03  0.00000000000E+00 0. -1.
         22    1    1    2    0    0  0.58940566613E+03  0.17717689899E+04 -0.12304766009E+04  0.22362104235E+04  0.00000000000E+00 0. -1.
<mgrwt>
<rscale>  0 0.40284041E+04</rscale>
<asrwt>0</asrwt>
<pdfrwt beam="1">  1        1 0.38827634E+00 0.40284041E+04</pdfrwt>
<pdfrwt beam="2">  1       -1 0.24730814E+00 0.40284041E+04</pdfrwt>
<totfact> 0.73933786E-02</totfact>
</mgrwt>
</event>
<event>
 6    1  0.1614874E-005  0.3309368E+04  0.7818608E-02  0.8160516E-01
          2   -1    0    0  501    0  0.00000000000E+00  0.00000000000E+00  0.20216513658E+04  0.20216513658E+04  0.00000000000E+00 0. -1.
         -2   -1    0    0    0  501 -0.00000000000E+00 -0.00000000000E+00 -0.13543282483E+04  0.13543282483E+04  0.00000000000E+00 0.  1.
         23    2    1    2    0    0  0.11908729929E+04  0.21520849825E+03 -0.81529471870E+03  0.14621748092E+04  0.93576233117E+02 0.  0.
         13    1    3    3    0    0  0.29713259398E+03  0.88041317654E+02 -0.23626227795E+03  0.38969079538E+03  0.00000000000E+00 0. -1.
        -13    1    3    3    0    0  0.89374039889E+03  0.12716718060E+03 -0.57903244074E+03  0.10724840138E+04  0.00000000000E+00 0.  1.
         22    1    1    2    0    0 -0.11908729929E+04 -0.21520849825E+03  0.14826178362E+04  0.19138048049E+04  0.00000000000E+00 0. -1.
<mgrwt>
<rscale>  0 0.33093682E+04</rscale>
<asrwt>0</asrwt>
<pdfrwt beam="1">  1        2 0.31102329E+00 0.33093682E+04</pdfrwt>
<pdfrwt beam="2">  1       -2 0.20835819E+00 0.33093682E+04</pdfrwt>
<totfact> 0.63637869E-01</totfact>
</mgrwt>
</event>
<event>
 6    1  0.1614874E-005  0.3166119E+04  0.7818608E-02  0.8197823E-01
         -2   -1    0    0    0  501 -0.00000000000E+00  0.00000000000E+00  0.87207065775E+03  0.87207065775E+03  0.00000000000E+00 0.  1.
          2   -1    0    0  501    0  0.00000000000E+00 -0.00000000000E+00 -0.28737097904E+04  0.28737097904E+04  0.00000000000E+00 0. -1.
         23    2    1    2    0    0  0.14613781936E+03 -0.14402456114E+04 -0.17556698711E+04  0.22773920251E+04  0.92054638870E+02 0.  0.
         13    1    3    3    0    0  0.86477333013E+02 -0.58948145910E+03 -0.66482873534E+03  0.89272838371E+03  0.00000000000E+00 0.  1.
        -13    1    3    3    0    0  0.59660486350E+02 -0.85076415229E+03 -0.10908411357E+04  0.13846636414E+04  0.00000000000E+00 0. -1.
         22    1    1    2    0    0 -0.14613781936E+03  0.14402456114E+04 -0.24596926164E+03  0.14683884231E+04  0.00000000000E+00 0.  1.
<mgrwt>
<rscale>  0 0.31661194E+04</rscale>
<asrwt>0</asrwt>
<pdfrwt beam="1">  1        2 0.44210920E+00 0.31661194E+04</pdfrwt>
<pdfrwt beam="2">  1       -2 0.13416472E+00 0.31661194E+04</pdfrwt>
<totfact> 0.70536616E-01</totfact>
</mgrwt>
</event>
<event>
 6    1  0.1614874E-005  0.3546329E+04  0.7818608E-02  0.8102898E-01
         -2   -1    0    0    0  501 -0.00000000000E+00  0.00000000000E+00  0.13398294535E+04  0.13398294535E+04  0.00000000000E+00 0.  1.
          2   -1    0    0  501    0  0.00000000000E+00 -0.00000000000E+00 -0.23466511427E+04  0.23466511427E+04  0.00000000000E+00 0. -1.
         23    2    1    2    0    0 -0.33760381785E+03 -0.17353612751E+04 -0.62899993799E+03  0.18786630256E+04  0.90987629710E+02 0.  0.
         13    1    3    3    0    0 -0.13263595166E+03 -0.56258783693E+03 -0.16746212481E+03  0.60178146630E+03  0.00000000000E+00 0. -1.
        -13    1    3    3    0    0 -0.20496786619E+03 -0.11727734382E+04 -0.46153781318E+03  0.12768815593E+04  0.00000000000E+00 0.  1.
         22    1    1    2    0    0  0.33760381785E+03  0.17353612751E+04 -0.37782175125E+03  0.18078175706E+04  0.00000000000E+00 0. -1.
<mgrwt>
<rscale>  0 0.35463290E+04</rscale>
<asrwt>0</asrwt>
<pdfrwt beam="1">  1        2 0.36102325E+00 0.35463290E+04</pdfrwt>
<pdfrwt beam="2">  1       -2 0.20612761E+00 0.35463290E+04</pdfrwt>
<totfact> 0.42347202E-01</totfact>
</mgrwt>
</event>
<event>
 6    1  0.1614874E-005  0.2415626E+04  0.7818608E-02  0.8433677E-01
         -2   -1    0    0    0  501 -0.00000000000E+00  0.00000000000E+00  0.40334370552E+03  0.40334370552E+03  0.00000000000E+00 0.  1.
          2   -1    0    0  501    0  0.00000000000E+00 -0.00000000000E+00 -0.36167959659E+04  0.36167959659E+04  0.00000000000E+00 0. -1.
         23    2    1    2    0    0  0.43234965476E+03 -0.75686708369E+03 -0.29963340928E+04  0.31218555822E+04  0.90500131111E+02 0.  0.
         11    1    3    3    0    0  0.21301822564E+03 -0.43485285407E+03 -0.17764967355E+04  0.18413078017E+04  0.00000000000E+00 0.  1.
        -11    1    3    3    0    0  0.21933142911E+03 -0.32201422962E+03 -0.12198373573E+04  0.12805477805E+04  0.00000000000E+00 0. -1.
         22    1    1    2    0    0 -0.43234965476E+03  0.75686708369E+03 -0.21711816757E+03  0.89828408927E+03  0.00000000000E+00 0.  1.
<mgrwt>
<rscale>  0 0.24156257E+04</rscale>
<asrwt>0</asrwt>
<pdfrwt beam="1">  1        2 0.55643013E+00 0.24156257E+04</pdfrwt>
<pdfrwt beam="2">  1       -2 0.62052880E-01 0.24156257E+04</pdfrwt>
<totfact> 0.14573922E+00</totfact>
</mgrwt>
</event>
<event>
 6    1  0.1614874E-005  0.2973510E+04  0.7818608E-02  0.8251336E-01
         -2   -1    0    0    0  501 -0.00000000000E+00  0.00000000000E+00  0.53318954200E+03  0.53318954200E+03  0.00000000000E+00 0. -1.
          2   -1    0    0  501    0  0.00000000000E+00 -0.00000000000E+00 -0.41456936421E+04  0.41456936421E+04  0.00000000000E+00 0.  1.
         23    2    1    2    0    0 -0.43283822333E+03 -0.14111508257E+04 -0.20698146965E+04  0.25437986011E+04  0.89904752431E+02 0.  0.
         11    1    3    3    0    0 -0.34091442614E+02 -0.21957870913E+03 -0.30388282864E+03  0.37645957220E+03  0.00000000000E+00 0. -1.
        -11    1    3    3    0    0 -0.39874678071E+03 -0.11915721166E+04 -0.17659318679E+04  0.21673390289E+04  0.00000000000E+00 0.  1.
         22    1    1    2    0    0  0.43283822333E+03  0.14111508257E+04 -0.15426894036E+04  0.21350845830E+04  0.00000000000E+00 0.  1.
<mgrwt>
<rscale>  0 0.29735100E+04</rscale>
<asrwt>0</asrwt>
<pdfrwt beam="1">  1        2 0.63779901E+00 0.29735100E+04</pdfrwt>
<pdfrwt beam="2">  1       -2 0.82029162E-01 0.29735100E+04</pdfrwt>
<totfact> 0.29005775E-01</totfact>
</mgrwt>
</event>
<event>
 6    1  0.1614874E-005  0.1631872E+04  0.7818608E-02  0.8801203E-01
         -2   -1    0    0    0  501 -0.00000000000E+00  0.00000000000E+00  0.25213395822E+03  0.25213395822E+03  0.00000000000E+00 0.  1.
          2   -1    0    0  501    0  0.00000000000E+00 -0.00000000000E+00 -0.26404685518E+04  0.26404685518E+04  0.00000000000E+00 0. -1.
         23    2    1    2    0    0 -0.22597494485E+03 -0.63685706330E+03 -0.39599048745E+03  0.78877584606E+03  0.93312777245E+02 0.  0.
         11    1    3    3    0    0 -0.13190027445E+02 -0.14253743709E+03 -0.67405866748E+02  0.15822278176E+03  0.00000000000E+00 0.  1.
        -11    1    3    3    0    0 -0.21278491741E+03 -0.49431962621E+03 -0.32858462071E+03  0.63055306430E+03  0.00000000000E+00 0. -1.
         22    1    1    2    0    0  0.22597494485E+03  0.63685706330E+03 -0.19923441061E+04  0.21038266639E+04  0.00000000000E+00 0. -1.
<mgrwt>
<rscale>  0 0.16318723E+04</rscale>
<asrwt>0</asrwt>
<pdfrwt beam="1">  1        2 0.40622591E+00 0.16318723E+04</pdfrwt>
<pdfrwt beam="2">  1       -2 0.38789841E-01 0.16318723E+04</pdfrwt>
<totfact> 0.17354694E+01</totfact>
</mgrwt>
</event>
<event>
 6    1  0.1614874E-005  0.2039596E+04  0.7818608E-02  0.8588329E-01
          2   -1    0    0  501    0  0.00000000000E+00  0.00000000000E+00  0.25699451408E+04  0.25699451408E+04  0.00000000000E+00 0. -1.
         -2   -1    0    0    0  501 -0.00000000000E+00 -0.00000000000E+00 -0.40467320143E+03  0.40467320143E+03  0.00000000000E+00 0.  1.
         23    2    1    2    0    0  0.96748839029E+03 -0.18679235785E+03  0.14562613164E+04  0.17606903239E+04  0.91696371520E+02 0.  0.
         11    1    3    3    0    0  0.69622548092E+03 -0.17512294405E+03  0.10717789665E+04  0.12900031469E+04  0.00000000000E+00 0. -1.
        -11    1    3    3    0    0  0.27126290937E+03 -0.11669413802E+02  0.38448234987E+03  0.47068717699E+03  0.00000000000E+00 0.  1.
         22    1    1    2    0    0 -0.96748839029E+03  0.18679235785E+03  0.70901062291E+03  0.12139280183E+04  0.00000000000E+00 0.  1.
<mgrwt>
<rscale>  0 0.20395960E+04</rscale>
<asrwt>0</asrwt>
<pdfrwt beam="1">  1        2 0.39537617E+00 0.20395960E+04</pdfrwt>
<pdfrwt beam="2">  1       -2 0.62257417E-01 0.20395960E+04</pdfrwt>
<totfact> 0.70320739E+00</totfact>
</mgrwt>
</event>
<event>
 6    1  0.1614874E-005  0.1108083E+04  0.7818608E-02  0.9197349E-01
          1   -1    0    0  501    0  0.00000000000E+00  0.00000000000E+00  0.11180755130E+04  0.11180755130E+04  0.00000000000E+00 0. -1.
         -1   -1    0    0    0  501 -0.00000000000E+00 -0.00000000000E+00 -0.27454490333E+03  0.27454490333E+03  0.00000000000E+00 0.  1.
         23    2    1    2    0    0  0.35406014644E+03 -0.10728966796E+03 -0.86441790590E+02  0.39176162241E+03  0.95578896640E+02 0.  0.
         13    1    3    3    0    0  0.18358503561E+03 -0.66511110145E+02  0.23388318450E+01  0.19527586437E+03  0.00000000000E+00 0. -1.
        -13    1    3    3    0    0  0.17047511083E+03 -0.40778557812E+02 -0.88780622435E+02  0.19648575803E+03  0.00000000000E+00 0.  1.
         22    1    1    2    0    0 -0.35406014644E+03  0.10728966796E+03  0.92997240028E+03  0.10008587940E+04  0.00000000000E+00 0. -1.
<mgrwt>
<rscale>  0 0.11080829E+04</rscale>
<asrwt>0</asrwt>
<pdfrwt beam="1">  1        1 0.17201162E+00 0.11080829E+04</pdfrwt>
<pdfrwt beam="2">  1       -1 0.42237678E-01 0.11080829E+04</pdfrwt>
<totfact> 0.67389140E+01</totfact>
</mgrwt>
</event>
<event>
 6    1  0.1614874E-005  0.2416446E+04  0.7818608E-02  0.8433372E-01
         -1   -1    0    0    0  501 -0.00000000000E+00  0.00000000000E+00  0.11252201743E+04  0.11252201743E+04  0.00000000000E+00 0.  1.
          1   -1    0    0  501    0  0.00000000000E+00 -0.00000000000E+00 -0.12973487717E+04  0.12973487717E+04  0.00000000000E+00 0. -1.
         23    2    1    2    0    0 -0.33460463839E+03  0.87399114908E+03 -0.84957634743E+03  0.12672524323E+04  0.91257680899E+02 0.  0.
         13    1    3    3    0    0 -0.21332962006E+03  0.64202250912E+03 -0.57472979484E+03  0.88770308442E+03  0.00000000000E+00 0. -1.
        -13    1    3    3    0    0 -0.12127501833E+03  0.23196863996E+03 -0.27484655259E+03  0.37954934787E+03  0.00000000000E+00 0.  1.
         22    1    1    2    0    0  0.33460463839E+03 -0.87399114908E+03  0.67744775001E+03  0.11553165136E+04  0.00000000000E+00 0.  1.
<mgrwt>
<rscale>  0 0.24164462E+04</rscale>
<asrwt>0</asrwt>
<pdfrwt beam="1">  1        1 0.19959212E+00 0.24164462E+04</pdfrwt>
<pdfrwt beam="2">  1       -1 0.17311080E+00 0.24164462E+04</pdfrwt>
<totfact> 0.18982995E+00</totfact>
</mgrwt>
</event>
<event>
 6    1  0.1614874E-005  0.2055609E+04  0.7818608E-02  0.8581054E-01
         -3   -1    0    0    0  501 -0.00000000000E+00  0.00000000000E+00  0.77617149186E+03  0.77617149186E+03  0.00000000000E+00 0.  1.
          3   -1    0    0  501    0  0.00000000000E+00 -0.00000000000E+00 -0.13610168194E+04  0.13610168194E+04  0.00000000000E+00 0. -1.
         23    2    1    2    0    0  0.83310767671E+03  0.23516188005E+03  0.27933606974E+03  0.91400435197E+03  0.89475162726E+02 0.  0.
         13    1    3    3    0    0  0.39679238274E+03  0.12807534361E+03  0.17855947161E+03  0.45357576384E+03  0.00000000000E+00 0. -1.
        -13    1    3    3    0    0  0.43631529397E+03  0.10708653643E+03  0.10077659813E+03  0.46042858814E+03  0.00000000000E+00 0.  1.
         22    1    1    2    0    0 -0.83310767671E+03 -0.23516188005E+03 -0.86418139729E+03  0.12231839593E+04  0.00000000000E+00 0. -1.
<mgrwt>
<rscale>  0 0.20556094E+04</rscale>
<asrwt>0</asrwt>
<pdfrwt beam="1">  1        3 0.20938720E+00 0.20556094E+04</pdfrwt>
<pdfrwt beam="2">  1       -3 0.11941100E+00 0.20556094E+04</pdfrwt>
<totfact> 0.17798124E-01</totfact>
</mgrwt>
</event>
<event>
 6    1  0.1614874E-005  0.4393750E+04  0.7818608E-02  0.7929507E-01
         -2   -1    0    0    0  501 -0.00000000000E+00  0.00000000000E+00  0.14817218040E+04  0.14817218040E+04  0.00000000000E+00 0.  1.
          2   -1    0    0  501    0  0.00000000000E+00 -0.00000000000E+00 -0.32571962404E+04  0.32571962404E+04  0.00000000000E+00 0. -1.
         23    2    1    2    0    0  0.14382905493E+04  0.52169191661E+03 -0.25870748925E+04  0.30070007656E+04  0.90856726501E+02 0.  0.
         11    1    3    3    0    0  0.11983464798E+04  0.40033751022E+03 -0.21568423369E+04  0.24996546309E+04  0.00000000000E+00 0. -1.
        -11    1    3    3    0    0  0.23994406951E+03  0.12135440640E+03 -0.43023255562E+03  0.50734613467E+03  0.00000000000E+00 0.  1.
         22    1    1    2    0    0 -0.14382905493E+04 -0.52169191661E+03  0.81160045609E+03  0.17319172788E+04  0.00000000000E+00 0.  1.
<mgrwt>
<rscale>  0 0.43937495E+04</rscale>
<asrwt>0</asrwt>
<pdfrwt beam="1">  1        2 0.50110712E+00 0.43937495E+04</pdfrwt>
<pdfrwt beam="2">  1       -2 0.22795720E+00 0.43937495E+04</pdfrwt>
<totfact> 0.79940795E-02</totfact>
</mgrwt>
</event>
<event>
 6    1  0.1614874E-005  0.1183727E+04  0.7818608E-02  0.9127220E-01
         -1   -1    0    0    0  501 -0.00000000000E+00  0.00000000000E+00  0.70752081774E+03  0.70752081774E+03  0.00000000000E+00 0.  1.
          1   -1    0    0  501    0  0.00000000000E+00 -0.00000000000E+00 -0.49511282281E+03  0.49511282281E+03  0.00000000000E+00 0. -1.
         23    2    1    2    0    0  0.44732588105E+03  0.33861432282E+03 -0.74221669825E+02  0.57262041197E+03  0.87322256345E+02 0.  0.
         13    1    3    3    0    0  0.90904185591E+02  0.67595800139E+02 -0.51077118300E+02  0.12426437610E+03  0.00000000000E+00 0.  1.
        -13    1    3    3    0    0  0.35642169546E+03  0.27101852268E+03 -0.23144551525E+02  0.44835603586E+03  0.00000000000E+00 0. -1.
         22    1    1    2    0    0 -0.44732588105E+03 -0.33861432282E+03  0.28662966476E+03  0.63001322859E+03  0.00000000000E+00 0.  1.
<mgrwt>
<rscale>  0 0.11837274E+04</rscale>
<asrwt>0</asrwt>
<pdfrwt beam="1">  1        1 0.76171204E-01 0.11837274E+04</pdfrwt>
<pdfrwt beam="2">  1       -1 0.10884936E+00 0.11837274E+04</pdfrwt>
<totfact> 0.34847827E+01</totfact>
</mgrwt>
</event>
<event>
 6    1  0.1614874E-005  0.1066109E+04  0.7818608E-02  0.9238868E-01
         -1   -1    0    0    0  501 -0.00000000000E+00  0.00000000000E+00  0.16595004259E+03  0.16595004259E+03  0.00000000000E+00 0.  1.
          1   -1    0    0  501    0  0.00000000000E+00 -0.00000000000E+00 -0.17122463610E+04  0.17122463610E+04  0.00000000000E+00 0. -1.
         23    2    1    2    0    0  0.29630232060E+02  0.51305087296E+03 -0.99694364805E+03  0.11259414566E+04  0.98733871213E+02 0.  0.
         13    1    3    3    0    0  0.36718567776E+02  0.36188199984E+03 -0.60672875374E+03  0.70740837968E+03  0.00000000000E+00 0. -1.
        -13    1    3    3    0    0 -0.70883357156E+01  0.15116887312E+03 -0.39021489431E+03  0.41853307688E+03  0.00000000000E+00 0.  1.
         22    1    1    2    0    0 -0.29630232060E+02 -0.51305087296E+03 -0.54935267031E+03  0.75225494699E+03  0.00000000000E+00 0. -1.
<mgrwt>
<rscale>  0 0.10661095E+04</rscale>
<asrwt>0</asrwt>
<pdfrwt beam="1">  1        1 0.26342251E+00 0.10661095E+04</pdfrwt>
<pdfrwt beam="2">  1       -1 0.25530777E-01 0.10661095E+04</pdfrwt>
<totfact> 0.63134474E+01</totfact>
</mgrwt>
</event>
<event>
 6    1  0.1614874E-005  0.2711564E+04  0.7818608E-02  0.8331263E-01
         -2   -1    0    0    0  501 -0.00000000000E+00  0.00000000000E+00  0.55062238059E+03  0.55062238059E+03  0.00000000000E+00 0.  1.
          2   -1    0    0  501    0  0.00000000000E+00 -0.00000000000E+00 -0.33383042474E+04  0.33383042474E+04  0.00000000000E+00 0. -1.
         23    2    1    2    0    0  0.11876103063E+04 -0.27686249690E+03 -0.54990678959E+03  0.13404548549E+04  0.85735983985E+02 0.  0.
         13    1    3    3    0    0  0.33605783758E+03 -0.39456361846E+02 -0.15876450849E+03  0.37376174744E+03  0.00000000000E+00 0. -1.
        -13    1    3    3    0    0  0.85155246875E+03 -0.23740613506E+03 -0.39114228110E+03  0.96669310748E+03  0.00000000000E+00 0.  1.
         22    1    1    2    0    0 -0.11876103063E+04  0.27686249690E+03 -0.22377750772E+04  0.25484717730E+04  0.00000000000E+00 0. -1.
<mgrwt>
<rscale>  0 0.27115641E+04</rscale>
<asrwt>0</asrwt>
<pdfrwt beam="1">  1        2 0.51358527E+00 0.27115641E+04</pdfrwt>
<pdfrwt beam="2">  1       -2 0.84711135E-01 0.27115641E+04</pdfrwt>
<totfact> 0.11173099E+00</totfact>
</mgrwt>
</event>
<event>
 6    1  0.1614874E-005  0.6431748E+04  0.7818608E-02  0.7639059E-01
          2   -1    0    0  501    0  0.00000000000E+00  0.00000000000E+00  0.28120819462E+04  0.28120819462E+04  0.00000000000E+00 0. -1.
         -2   -1    0    0    0  501 -0.00000000000E+00 -0.00000000000E+00 -0.36776467349E+04  0.36776467349E+04  0.00000000000E+00 0.  1.
         23    2    1    2    0    0  0.10939039179E+04  0.25227033364E+04  0.12483389449E+04  0.30214082086E+04  0.99496413518E+02 0.  0.
         11    1    3    3    0    0  0.62242131410E+03  0.15545003083E+04  0.74806473531E+03  0.18339793753E+04  0.00000000000E+00 0. -1.
        -11    1    3    3    0    0  0.47148260380E+03  0.96820302808E+03  0.50027420956E+03  0.11874288332E+04  0.00000000000E+00 0.  1.
         22    1    1    2    0    0 -0.10939039179E+04 -0.25227033364E+04 -0.21139037336E+04  0.34683204725E+04  0.00000000000E+00 0.  1.
<mgrwt>
<rscale>  0 0.64317475E+04</rscale>
<asrwt>0</asrwt>
<pdfrwt beam="1">  1        2 0.43262800E+00 0.64317475E+04</pdfrwt>
<pdfrwt beam="2">  1       -2 0.56579180E+00 0.64317475E+04</pdfrwt>
<totfact> 0.10801731E-03</totfact>
</mgrwt>
</event>
<event>
 6    1  0.1614874E-005  0.2698996E+04  0.7818608E-02  0.8335331E-01
          1   -1    0    0  501    0  0.00000000000E+00  0.00000000000E+00  0.38737791369E+04  0.38737791369E+04  0.00000000000E+00 0. -1.
         -1   -1    0    0    0  501 -0.00000000000E+00 -0.00000000000E+00 -0.47012097015E+03  0.47012097015E+03  0.00000000000E+00 0.  1.
         23    2    1    2    0    0  0.30704987782E+03  0.89753635706E+03  0.32450605681E+04  0.33821286488E+04  0.92330744070E+02 0.  0.
         13    1    3    3    0    0  0.10797535291E+03  0.30152093831E+03  0.94626627811E+03  0.99899620728E+03  0.00000000000E+00 0. -1.
        -13    1    3    3    0    0  0.19907452491E+03  0.59601541875E+03  0.22987942900E+04  0.23831324415E+04  0.00000000000E+00 0.  1.
         22    1    1    2    0    0 -0.30704987782E+03 -0.89753635706E+03  0.15859759865E+03  0.96177145831E+03  0.00000000000E+00 0.  1.
<mgrwt>
<rscale>  0 0.26989960E+04</rscale>
<asrwt>0</asrwt>
<pdfrwt beam="1">  1        1 0.59596600E+00 0.26989960E+04</pdfrwt>
<pdfrwt beam="2">  1       -1 0.72326306E-01 0.26989960E+04</pdfrwt>
<totfact> 0.20801981E-01</totfact>
</mgrwt>
</event>
<event>
 6    1  0.1614874E-005  0.1393279E+04  0.7818608E-02  0.8958698E-01
          2   -1    0    0  501    0  0.00000000000E+00  0.00000000000E+00  0.17918507507E+04  0.17918507507E+04  0.00000000000E+00 0.  1.
         -2   -1    0    0    0  501 -0.00000000000E+00 -0.00000000000E+00 -0.27084087428E+03  0.27084087428E+03  0.00000000000E+00 0. -1.
         23    2    1    2    0    0 -0.27707957541E+03 -0.54619783263E+03  0.28153159213E+03  0.68015353122E+03  0.90794411589E+02 0.  0.
         13    1    3    3    0    0 -0.12061308565E+03 -0.17006129577E+03  0.12888519512E+03  0.24511171793E+03  0.00000000000E+00 0.  1.
        -13    1    3    3    0    0 -0.15646648976E+03 -0.37613653687E+03  0.15264639701E+03  0.43504181328E+03  0.00000000000E+00 0. -1.
         22    1    1    2    0    0  0.27707957541E+03  0.54619783263E+03  0.12394782843E+04  0.13825380938E+04  0.00000000000E+00 0.  1.
<mgrwt>
<rscale>  0 0.13932788E+04</rscale>
<asrwt>0</asrwt>
<pdfrwt beam="1">  1        2 0.27566934E+00 0.13932788E+04</pdfrwt>
<pdfrwt beam="2">  1       -2 0.41667828E-01 0.13932788E+04</pdfrwt>
<totfact> 0.46337829E+01</totfact>
</mgrwt>
</event>
<event>
 6    1  0.1614874E-005  0.2429449E+04  0.7818608E-02  0.8428560E-01
          1   -1    0    0  501    0  0.00000000000E+00  0.00000000000E+00  0.18124835489E+04  0.18124835489E+04  0.00000000000E+00 0. -1.
         -1   -1    0    0    0  501 -0.00000000000E+00 -0.00000000000E+00 -0.81410694050E+03  0.81410694050E+03  0.00000000000E+00 0.  1.
         23    2    1    2    0    0 -0.11021591575E+04 -0.48657289482E+03  0.65517765436E+03  0.13738760317E+04  0.82277587172E+02 0.  0.
         13    1    3    3    0    0 -0.65250934279E+03 -0.26522988901E+03  0.42215479975E+03  0.82117599295E+03  0.00000000000E+00 0.  1.
        -13    1    3    3    0    0 -0.44964981472E+03 -0.22134300581E+03  0.23302285461E+03  0.55270003878E+03  0.00000000000E+00 0. -1.
         22    1    1    2    0    0  0.11021591575E+04  0.48657289482E+03  0.34319895407E+03  0.12527144577E+04  0.00000000000E+00 0.  1.
<mgrwt>
<rscale>  0 0.24294489E+04</rscale>
<asrwt>0</asrwt>
<pdfrwt beam="1">  1        1 0.27884362E+00 0.24294489E+04</pdfrwt>
<pdfrwt beam="2">  1       -1 0.12524722E+00 0.24294489E+04</pdfrwt>
<totfact> 0.19884532E+00</totfact>
</mgrwt>
</event>
<event>
 6    1  0.1614874E-005  0.1947760E+04  0.7818608E-02  0.8631442E-01
          3   -1    0    0  501    0  0.00000000000E+00  0.00000000000E+00  0.12922399802E+04  0.12922399802E+04  0.00000000000E+00 0. -1.
         -3   -1    0    0    0  501 -0.00000000000E+00 -0.00000000000E+00 -0.73395200589E+03  0.73395200589E+03  0.00000000000E+00 0.  1.
         23    2    1    2    0    0 -0.63713546625E+03  0.43358287938E+03  0.89551830242E+03  0.11849666834E+04  0.90869660204E+02 0.  0.
         11    1    3    3    0    0 -0.36648381716E+03  0.21351569460E+03  0.54315942753E+03  0.68914548812E+03  0.00000000000E+00 0.  1.
        -11    1    3    3    0    0 -0.27065164909E+03  0.22006718478E+03  0.35235887489E+03  0.49582119528E+03  0.00000000000E+00 0. -1.
         22    1    1    2    0    0  0.63713546625E+03 -0.43358287938E+03 -0.33723032813E+03  0.84122530268E+03  0.00000000000E+00 0.  1.
<mgrwt>
<rscale>  0 0.19477599E+04</rscale>
<asrwt>0</asrwt>
<pdfrwt beam="1">  1        3 0.19880615E+00 0.19477599E+04</pdfrwt>
<pdfrwt beam="2">  1       -3 0.11291569E+00 0.19477599E+04</pdfrwt>
<totfact> 0.23938639E-01</totfact>
</mgrwt>
</event>
<event>
 6    1  0.1614874E-005  0.3553282E+04  0.7818608E-02  0.8101278E-01
          1   -1    0    0  501    0  0.00000000000E+00  0.00000000000E+00  0.30924302040E+04  0.30924302040E+04  0.00000000000E+00 0. -1.
         -1   -1    0    0    0  501 -0.00000000000E+00 -0.00000000000E+00 -0.10207034097E+04  0.10207034097E+04  0.00000000000E+00 0.  1.
         23    2    1    2    0    0 -0.13963743390E+04  0.97588012265E+02  0.23008411071E+04  0.26947267317E+04  0.91091403877E+02 0.  0.
         11    1    3    3    0    0 -0.96895051353E+03  0.10528590345E+03  0.16350700525E+04  0.19035241779E+04  0.00000000000E+00 0. -1.
        -11    1    3    3    0    0 -0.42742382546E+03 -0.76978911890E+01  0.66577105454E+03  0.79120255381E+03  0.00000000000E+00 0.  1.
         22    1    1    2    0    0  0.13963743390E+04 -0.97588012265E+02 -0.22911431272E+03  0.14184068820E+04  0.00000000000E+00 0.  1.
<mgrwt>
<rscale>  0 0.35532825E+04</rscale>
<asrwt>0</asrwt>
<pdfrwt beam="1">  1        1 0.47575849E+00 0.35532825E+04</pdfrwt>
<pdfrwt beam="2">  1       -1 0.15703130E+00 0.35532825E+04</pdfrwt>
<totfact> 0.12771815E-01</totfact>
</mgrwt>
</event>
<event>
 6    1  0.1614874E-005  0.1199721E+04  0.7818608E-02  0.9113101E-01
         -2   -1    0    0    0  501 -0.00000000000E+00  0.00000000000E+00  0.53943011772E+03  0.53943011772E+03  0.00000000000E+00 0.  1.
          2   -1    0    0  501    0  0.00000000000E+00 -0.00000000000E+00 -0.66706067673E+03  0.66706067673E+03  0.00000000000E+00 0. -1.
         23    2    1    2    0    0 -0.52082353099E+03 -0.23367893499E+03 -0.23707287698E+03  0.62525021083E+03  0.94187483497E+02 0.  0.
         11    1    3    3    0    0 -0.35621838970E+03 -0.13472106154E+03 -0.11560806687E+03  0.39800317927E+03  0.00000000000E+00 0.  1.
        -11    1    3    3    0    0 -0.16460514129E+03 -0.98957873454E+02 -0.12146481011E+03  0.22724703156E+03  0.00000000000E+00 0. -1.
         22    1    1    2    0    0  0.52082353099E+03  0.23367893499E+03  0.10944231797E+03  0.58124058363E+03  0.00000000000E+00 0.  1.
<mgrwt>
<rscale>  0 0.11997210E+04</rscale>
<asrwt>0</asrwt>
<pdfrwt beam="1">  1        2 0.10262472E+00 0.11997210E+04</pdfrwt>
<pdfrwt beam="2">  1       -2 0.82989249E-01 0.11997210E+04</pdfrwt>
<totfact> 0.54685241E+01</totfact>
</mgrwt>
</event>
<event>
 6    1  0.1614874E-005  0.8560235E+03  0.7818608E-02  0.9482288E-01
          1   -1    0    0  501    0  0.00000000000E+00  0.00000000000E+00  0.26926671803E+04  0.26926671803E+04  0.00000000000E+00 0. -1.
         -1   -1    0    0    0  501 -0.00000000000E+00 -0.00000000000E+00 -0.68034418520E+02  0.68034418520E+02  0.00000000000E+00 0.  1.
         23    2    1    2    0    0 -0.11494000990E+03  0.33524613684E+03  0.20727949774E+04  0.21048615890E+04  0.91444587536E+02 0.  0.
         13    1    3    3    0    0 -0.70375888235E+02  0.26333942364E+03  0.17530352407E+04  0.17741006095E+04  0.00000000000E+00 0. -1.
        -13    1    3    3    0    0 -0.44564121666E+02  0.71906713206E+02  0.31975973670E+03  0.33076097950E+03  0.00000000000E+00 0.  1.
         22    1    1    2    0    0  0.11494000990E+03 -0.33524613684E+03  0.55183778438E+03  0.65584000977E+03  0.00000000000E+00 0.  1.
<mgrwt>
<rscale>  0 0.85602347E+03</rscale>
<asrwt>0</asrwt>
<pdfrwt beam="1">  1        1 0.41425641E+00 0.85602347E+03</pdfrwt>
<pdfrwt beam="2">  1       -1 0.10466836E-01 0.85602347E+03</pdfrwt>
<totfact> 0.60369849E+01</totfact>
</mgrwt>
</event>
<event>
 6    1  0.1614874E-005  0.1175521E+04  0.7818608E-02  0.9134557E-01
         -2   -1    0    0    0  501 -0.00000000000E+00  0.00000000000E+00  0.28164192386E+03  0.28164192386E+03  0.00000000000E+00 0.  1.
          2   -1    0    0  501    0  0.00000000000E+00 -0.00000000000E+00 -0.12266009938E+04  0.12266009938E+04  0.00000000000E+00 0. -1.
         23    2    1    2    0    0  0.12970663293E+03  0.62410633556E+02 -0.12018016816E+04  0.12138163140E+04  0.91125541749E+02 0.  0.
         11    1    3    3    0    0  0.41857320968E+02  0.11458786740E+02 -0.72606455653E+03  0.72736035041E+03  0.00000000000E+00 0. -1.
        -11    1    3    3    0    0  0.87849311959E+02  0.50951846816E+02 -0.47573712507E+03  0.48645596355E+03  0.00000000000E+00 0.  1.
         22    1    1    2    0    0 -0.12970663293E+03 -0.62410633556E+02  0.25684261165E+03  0.29442660369E+03  0.00000000000E+00 0.  1.
<mgrwt>
<rscale>  0 0.11755208E+04</rscale>
<asrwt>0</asrwt>
<pdfrwt beam="1">  1        2 0.18870785E+00 0.11755208E+04</pdfrwt>
<pdfrwt beam="2">  1       -2 0.43329527E-01 0.11755208E+04</pdfrwt>
<totfact> 0.91098114E+01</totfact>
</mgrwt>
</event>
<event>
 6    1  0.1614874E-005  0.2825725E+04  0.7818608E-02  0.8295326E-01
         -4   -1    0    0    0  501 -0.00000000000E+00  0.00000000000E+00  0.18186557958E+04  0.18186557958E+04  0.00000000000E+00 0.  1.
          4   -1    0    0  501    0  0.00000000000E+00 -0.00000000000E+00 -0.10976131878E+04  0.10976131878E+04  0.00000000000E+00 0. -1.
         23    2    1    2    0    0  0.81440939501E+03 -0.80956913674E+03 -0.48559598096E+03  0.12505434558E+04  0.96905253736E+02 0.  0.
         11    1    3    3    0    0  0.14191397645E+03 -0.15797481823E+03 -0.12951087859E+03  0.24873417051E+03  0.00000000000E+00 0. -1.
        -11    1    3    3    0    0  0.67249541857E+03 -0.65159431851E+03 -0.35608510237E+03  0.10018092853E+04  0.00000000000E+00 0.  1.
         22    1    1    2    0    0 -0.81440939501E+03  0.80956913674E+03  0.12066385889E+04  0.16657255278E+04  0.00000000000E+00 0.  1.
<mgrwt>
<rscale>  0 0.28257251E+04</rscale>
<asrwt>0</asrwt>
<pdfrwt beam="1">  1        4 0.16886357E+00 0.28257251E+04</pdfrwt>
<pdfrwt beam="2">  1       -4 0.27979320E+00 0.28257251E+04</pdfrwt>
<totfact> 0.15354166E-02</totfact>
</mgrwt>
</event>
<event>
 6    1  0.1614874E-005  0.4831154E+04  0.7818608E-02  0.7855094E-01
          1   -1    0    0  501    0  0.00000000000E+00  0.00000000000E+00  0.20152083738E+04  0.20152083738E+04  0.00000000000E+00 0. -1.
         -1   -1    0    0    0  501 -0.00000000000E+00 -0.00000000000E+00 -0.28954887314E+04  0.28954887314E+04  0.00000000000E+00 0.  1.
         23    2    1    2    0    0  0.22280977886E+03  0.23830022111E+04 -0.11517538733E+03  0.23979835618E+04  0.93359828551E+02 0.  0.
         11    1    3    3    0    0  0.28301977776E+02  0.63032105402E+03 -0.27462335678E+01  0.63096210257E+03  0.00000000000E+00 0. -1.
        -11    1    3    3    0    0  0.19450780108E+03  0.17526811570E+04 -0.11242915376E+03  0.17670214593E+04  0.00000000000E+00 0.  1.
         22    1    1    2    0    0 -0.22280977886E+03 -0.23830022111E+04 -0.76510497029E+03  0.25127135434E+04  0.00000000000E+00 0. -1.
<mgrwt>
<rscale>  0 0.48311544E+04</rscale>
<asrwt>0</asrwt>
<pdfrwt beam="1">  1        1 0.31003206E+00 0.48311544E+04</pdfrwt>
<pdfrwt beam="2">  1       -1 0.44545980E+00 0.48311544E+04</pdfrwt>
<totfact> 0.74166209E-03</totfact>
</mgrwt>
</event>
<event>
 6    1  0.1614874E-005  0.4355320E+04  0.7818608E-02  0.7936467E-01
          2   -1    0    0  501    0  0.00000000000E+00  0.00000000000E+00  0.31312762956E+04  0.31312762956E+04  0.00000000000E+00 0. -1.
         -2   -1    0    0    0  501 -0.00000000000E+00 -0.00000000000E+00 -0.15144632646E+04  0.15144632646E+04  0.00000000000E+00 0.  1.
         23    2    1    2    0    0  0.18291332466E+04 -0.10565189530E+04  0.24827085860E+03  0.21288231116E+04  0.91042238921E+02 0.  0.
         13    1    3    3    0    0  0.11744519592E+04 -0.72627311077E+03  0.14954566297E+03  0.13889470620E+04  0.00000000000E+00 0. -1.
        -13    1    3    3    0    0  0.65468128747E+03 -0.33024584220E+03  0.98725195624E+02  0.73987604956E+03  0.00000000000E+00 0.  1.
         22    1    1    2    0    0 -0.18291332466E+04  0.10565189530E+04  0.13685421724E+04  0.25169164487E+04  0.00000000000E+00 0. -1.
<mgrwt>
<rscale>  0 0.43553199E+04</rscale>
<asrwt>0</asrwt>
<pdfrwt beam="1">  1        2 0.48173481E+00 0.43553199E+04</pdfrwt>
<pdfrwt beam="2">  1       -2 0.23299435E+00 0.43553199E+04</pdfrwt>
<totfact> 0.90130949E-02</totfact>
</mgrwt>
</event>
<event>
 6    1  0.1614874E-005  0.3016953E+04  0.7818608E-02  0.8238906E-01
         -2   -1    0    0    0  501 -0.00000000000E+00  0.00000000000E+00  0.11948826116E+04  0.11948826116E+04  0.00000000000E+00 0.  1.
          2   -1    0    0  501    0  0.00000000000E+00 -0.00000000000E+00 -0.19043725781E+04  0.19043725781E+04  0.00000000000E+00 0. -1.
         23    2    1    2    0    0 -0.94727020315E+03  0.11708447679E+04 -0.29782717157E+03  0.15379529880E+04  0.91651844816E+02 0.  0.
         11    1    3    3    0    0 -0.46592142596E+03  0.63765411154E+03 -0.13128286261E+03  0.80057525015E+03  0.00000000000E+00 0. -1.
        -11    1    3    3    0    0 -0.48134877718E+03  0.53319065641E+03 -0.16654430896E+03  0.73737773781E+03  0.00000000000E+00 0.  1.
         22    1    1    2    0    0  0.94727020315E+03 -0.11708447679E+04 -0.41166279496E+03  0.15613022017E+04  0.00000000000E+00 0. -1.
<mgrwt>
<rscale>  0 0.30169532E+04</rscale>
<asrwt>0</asrwt>
<pdfrwt beam="1">  1        2 0.29298039E+00 0.30169532E+04</pdfrwt>
<pdfrwt beam="2">  1       -2 0.18382810E+00 0.30169532E+04</pdfrwt>
<totfact> 0.11017480E+00</totfact>
</mgrwt>
</event>
<event>
 6    1  0.1614874E-005  0.3031338E+04  0.7818608E-02  0.8234838E-01
          1   -1    0    0  501    0  0.00000000000E+00  0.00000000000E+00  0.20986903463E+04  0.20986903463E+04  0.00000000000E+00 0. -1.
         -1   -1    0    0    0  501 -0.00000000000E+00 -0.00000000000E+00 -0.10946127047E+04  0.10946127047E+04  0.00000000000E+00 0.  1.
         23    2    1    2    0    0 -0.40673938786E+03 -0.11233385534E+04  0.14828001039E+04  0.19062515249E+04  0.88160607223E+02 0.  0.
         11    1    3    3    0    0 -0.27675673791E+03 -0.81817998974E+03  0.11256280234E+04  0.14188203673E+04  0.00000000000E+00 0. -1.
        -11    1    3    3    0    0 -0.12998264995E+03 -0.30515856368E+03  0.35717208050E+03  0.48743115756E+03  0.00000000000E+00 0.  1.
         22    1    1    2    0    0  0.40673938786E+03  0.11233385534E+04 -0.47872246226E+03  0.12870515262E+04  0.00000000000E+00 0.  1.
<mgrwt>
<rscale>  0 0.30313384E+04</rscale>
<asrwt>0</asrwt>
<pdfrwt beam="1">  1        1 0.32287544E+00 0.30313384E+04</pdfrwt>
<pdfrwt beam="2">  1       -1 0.16840195E+00 0.30313384E+04</pdfrwt>
<totfact> 0.54798686E-01</totfact>
</mgrwt>
</event>
<event>
 6    1  0.1614874E-005  0.2600458E+04  0.7818608E-02  0.8368046E-01
         -1   -1    0    0    0  501 -0.00000000000E+00  0.00000000000E+00  0.12451444228E+04  0.12451444228E+04  0.00000000000E+00 0. -1.
          1   -1    0    0  501    0  0.00000000000E+00 -0.00000000000E+00 -0.13577500332E+04  0.13577500332E+04  0.00000000000E+00 0.  1.
         23    2    1    2    0    0 -0.69752971903E+03  0.96984069496E+03  0.45331599276E+03  0.12809996253E+04  0.91246743191E+02 0.  0.
         11    1    3    3    0    0 -0.57481546372E+03  0.83436807475E+03  0.41090641878E+03  0.10933558371E+04  0.00000000000E+00 0. -1.
        -11    1    3    3    0    0 -0.12271425531E+03  0.13547262021E+03  0.42409573984E+02  0.18764378819E+03  0.00000000000E+00 0.  1.
         22    1    1    2    0    0  0.69752971903E+03 -0.96984069496E+03 -0.56592160311E+03  0.13218948307E+04  0.00000000000E+00 0. -1.
<mgrwt>
<rscale>  0 0.26004576E+04</rscale>
<asrwt>0</asrwt>
<pdfrwt beam="1">  1        1 0.20888462E+00 0.26004576E+04</pdfrwt>
<pdfrwt beam="2">  1       -1 0.19156068E+00 0.26004576E+04</pdfrwt>
<totfact> 0.12487444E+00</totfact>
</mgrwt>
</event>
<event>
 6    1  0.1614874E-005  0.1699324E+04  0.7818608E-02  0.8761750E-01
         -2   -1    0    0    0  501 -0.00000000000E+00  0.00000000000E+00  0.39852155077E+03  0.39852155077E+03  0.00000000000E+00 0. -1.
          2   -1    0    0  501    0  0.00000000000E+00 -0.00000000000E+00 -0.18115101776E+04  0.18115101776E+04  0.00000000000E+00 0.  1.
         23    2    1    2    0    0 -0.19357707586E+03  0.59890687726E+03  0.29056257175E+02  0.63661030376E+03  0.90922389068E+02 0.  0.
         13    1    3    3    0    0 -0.13840152272E+03  0.46538903335E+03 -0.14402077082E+02  0.48574618236E+03  0.00000000000E+00 0. -1.
        -13    1    3    3    0    0 -0.55175553143E+02  0.13351784391E+03  0.43458334257E+02  0.15086412139E+03  0.00000000000E+00 0.  1.
         22    1    1    2    0    0  0.19357707586E+03 -0.59890687726E+03 -0.14420448841E+04  0.15734214247E+04  0.00000000000E+00 0.  1.
<mgrwt>
<rscale>  0 0.16993244E+04</rscale>
<asrwt>0</asrwt>
<pdfrwt beam="1">  1        2 0.27869387E+00 0.16993244E+04</pdfrwt>
<pdfrwt beam="2">  1       -2 0.61311008E-01 0.16993244E+04</pdfrwt>
<totfact> 0.20014797E+01</totfact>
</mgrwt>
</event>
<event>
 6    1  0.1614874E-005  0.8135444E+03  0.7818608E-02  0.9540616E-01
          2   -1    0    0  501    0  0.00000000000E+00  0.00000000000E+00  0.13877790424E+04  0.13877790424E+04  0.00000000000E+00 0. -1.
         -2   -1    0    0    0  501 -0.00000000000E+00 -0.00000000000E+00 -0.11922907694E+03  0.11922907694E+03  0.00000000000E+00 0.  1.
         23    2    1    2    0    0 -0.21697947612E+03  0.12541497443E+03  0.12238119969E+04  0.12524290654E+04  0.89742694600E+02 0.  0.
         13    1    3    3    0    0 -0.50465134920E+02  0.14009705750E+02  0.12543372984E+03  0.13592873971E+03  0.00000000000E+00 0.  1.
        -13    1    3    3    0    0 -0.16651434120E+03  0.11140526868E+03  0.10983782671E+04  0.11165003257E+04  0.00000000000E+00 0. -1.
         22    1    1    2    0    0  0.21697947612E+03 -0.12541497443E+03  0.44737968548E+02  0.25457905393E+03  0.00000000000E+00 0.  1.
<mgrwt>
<rscale>  0 0.81354438E+03</rscale>
<asrwt>0</asrwt>
<pdfrwt beam="1">  1        2 0.21350446E+00 0.81354438E+03</pdfrwt>
<pdfrwt beam="2">  1       -2 0.18342936E-01 0.81354438E+03</pdfrwt>
<totfact> 0.36768751E+02</totfact>
</mgrwt>
</event>
<event>
 6    1  0.1614874E-005  0.1273652E+04  0.7818608E-02  0.9050724E-01
          2   -1    0    0  501    0  0.00000000000E+00  0.00000000000E+00  0.17378700132E+04  0.17378700132E+04  0.00000000000E+00 0. -1.
         -2   -1    0    0    0  501 -0.00000000000E+00 -0.00000000000E+00 -0.23335889311E+03  0.23335889311E+03  0.00000000000E+00 0.  1.
         23    2    1    2    0    0 -0.59418801225E+02  0.59499665570E+03  0.43168097775E+03  0.74301226071E+03  0.90372223540E+02 0.  0.
         11    1    3    3    0    0  0.12120600892E+02  0.32639015880E+03  0.22463535319E+03  0.39640697097E+03  0.00000000000E+00 0.  1.
        -11    1    3    3    0    0 -0.71539402116E+02  0.26860649689E+03  0.20704562456E+03  0.34660528975E+03  0.00000000000E+00 0. -1.
         22    1    1    2    0    0  0.59418801225E+02 -0.59499665570E+03  0.10728301423E+04  0.12282166456E+04  0.00000000000E+00 0. -1.
<mgrwt>
<rscale>  0 0.12736521E+04</rscale>
<asrwt>0</asrwt>
<pdfrwt beam="1">  1        2 0.26736461E+00 0.12736521E+04</pdfrwt>
<pdfrwt beam="2">  1       -2 0.35901369E-01 0.12736521E+04</pdfrwt>
<totfact> 0.66925033E+01</totfact>
</mgrwt>
</event>
<event>
 6    1  0.1614874E-005  0.1561808E+04  0.7818608E-02  0.8844360E-01
         -2   -1    0    0    0  501 -0.00000000000E+00  0.00000000000E+00  0.23461311095E+03  0.23461311095E+03  0.00000000000E+00 0.  1.
          2   -1    0    0  501    0  0.00000000000E+00 -0.00000000000E+00 -0.25992200314E+04  0.25992200314E+04  0.00000000000E+00 0. -1.
         23    2    1    2    0    0 -0.20593999298E+03  0.41205965052E+03 -0.48237432007E+02  0.47210241187E+03  0.91375057609E+02 0.  0.
         11    1    3    3    0    0 -0.19799475766E+03  0.32219172553E+03 -0.52448949384E+02  0.38178570475E+03  0.00000000000E+00 0. -1.
        -11    1    3    3    0    0 -0.79452353183E+01  0.89867924992E+02  0.42115173765E+01  0.90316707122E+02  0.00000000000E+00 0.  1.
         22    1    1    2    0    0  0.20593999298E+03 -0.41205965052E+03 -0.23163694885E+04  0.23617307305E+04  0.00000000000E+00 0. -1.
<mgrwt>
<rscale>  0 0.15618081E+04</rscale>
<asrwt>0</asrwt>
<pdfrwt beam="1">  1        2 0.39988002E+00 0.15618081E+04</pdfrwt>
<pdfrwt beam="2">  1       -2 0.36094324E-01 0.15618081E+04</pdfrwt>
<totfact> 0.21220070E+01</totfact>
</mgrwt>
</event>
<event>
 6    1  0.1614874E-005  0.3949476E+04  0.7818608E-02  0.8014817E-01
          2   -1    0    0  501    0  0.00000000000E+00  0.00000000000E+00  0.19855491749E+04  0.19855491749E+04  0.00000000000E+00 0. -1.
         -2   -1    0    0    0  501 -0.00000000000E+00 -0.00000000000E+00 -0.19639857387E+04  0.19639857387E+04  0.00000000000E+00 0.  1.
         23    2    1    2    0    0  0.80807658570E+03 -0.61787580674E+03 -0.16806027956E+04  0.19665754683E+04  0.90747093572E+02 0.  0.
         13    1    3    3    0    0  0.10489261875E+03 -0.10264260741E+03 -0.19442223317E+03  0.24359386501E+03  0.00000000000E+00 0. -1.
        -13    1    3    3    0    0  0.70318396695E+03 -0.51523319934E+03 -0.14861805624E+04  0.17229816033E+04  0.00000000000E+00 0.  1.
         22    1    1    2    0    0 -0.80807658570E+03  0.61787580674E+03  0.17021662318E+04  0.19829594453E+04  0.00000000000E+00 0. -1.
<mgrwt>
<rscale>  0 0.39494760E+04</rscale>
<asrwt>0</asrwt>
<pdfrwt beam="1">  1        2 0.30546910E+00 0.39494760E+04</pdfrwt>
<pdfrwt beam="2">  1       -2 0.30215165E+00 0.39494760E+04</pdfrwt>
<totfact> 0.16622959E-01</totfact>
</mgrwt>
</event>
<event>
 6    1  0.1614874E-005  0.1530267E+04  0.7818608E-02  0.8864572E-01
         -2   -1    0    0    0  501 -0.00000000000E+00  0.00000000000E+00  0.17406494059E+03  0.17406494059E+03  0.00000000000E+00 0. -1.
          2   -1    0    0  501    0  0.00000000000E+00 -0.00000000000E+00 -0.33632795512E+04  0.33632795512E+04  0.00000000000E+00 0.  1.
         23    2    1    2    0    0  0.62740898511E+03 -0.41649335256E+03 -0.18766193355E+04  0.20240649064E+04  0.89609528625E+02 0.  0.
         13    1    3    3    0    0  0.37436045803E+03 -0.25344262588E+03 -0.10072323626E+04  0.11040362084E+04  0.00000000000E+00 0. -1.
        -13    1    3    3    0    0  0.25304852707E+03 -0.16305072668E+03 -0.86938697287E+03  0.92002869799E+03  0.00000000000E+00 0.  1.
         22    1    1    2    0    0 -0.62740898511E+03  0.41649335256E+03 -0.13125952750E+04  0.15132795853E+04  0.00000000000E+00 0. -1.
<mgrwt>
<rscale>  0 0.15302667E+04</rscale>
<asrwt>0</asrwt>
<pdfrwt beam="1">  1        2 0.51742757E+00 0.15302667E+04</pdfrwt>
<pdfrwt beam="2">  1       -2 0.26779224E-01 0.15302667E+04</pdfrwt>
<totfact> 0.12460295E+01</totfact>
</mgrwt>
</event>
<event>
 6    1  0.1614874E-005  0.7019760E+03  0.7818608E-02  0.9713859E-01
         -1   -1    0    0    0  501 -0.00000000000E+00  0.00000000000E+00  0.29904730486E+03  0.29904730486E+03  0.00000000000E+00 0.  1.
          1   -1    0    0  501    0  0.00000000000E+00 -0.00000000000E+00 -0.41195014042E+03  0.41195014042E+03  0.00000000000E+00 0. -1.
         23    2    1    2    0    0  0.10755143858E+03 -0.16121560153E+03  0.23175707952E+03  0.31558849346E+03  0.91252239304E+02 0.  0.
         13    1    3    3    0    0  0.18380708031E+02 -0.65787503562E+02  0.28560037065E+02  0.74037299855E+02  0.00000000000E+00 0.  1.
        -13    1    3    3    0    0  0.89170730552E+02 -0.95428097969E+02  0.20319704246E+03  0.24155119361E+03  0.00000000000E+00 0. -1.
         22    1    1    2    0    0 -0.10755143858E+03  0.16121560153E+03 -0.34465991508E+03  0.39540895182E+03  0.00000000000E+00 0. -1.
<mgrwt>
<rscale>  0 0.70197601E+03</rscale>
<asrwt>0</asrwt>
<pdfrwt beam="1">  1        1 0.63376945E-01 0.70197601E+03</pdfrwt>
<pdfrwt beam="2">  1       -1 0.46007278E-01 0.70197601E+03</pdfrwt>
<totfact> 0.27460948E+02</totfact>
</mgrwt>
</event>
<event>
 6    1  0.1614874E-005  0.2250420E+04  0.7818608E-02  0.8497730E-01
          2   -1    0    0  501    0  0.00000000000E+00  0.00000000000E+00  0.13102486826E+04  0.13102486826E+04  0.00000000000E+00 0. -1.
         -2   -1    0    0    0  501 -0.00000000000E+00 -0.00000000000E+00 -0.96630341285E+03  0.96630341285E+03  0.00000000000E+00 0.  1.
         23    2    1    2    0    0 -0.11866183142E+03 -0.89335327083E+03  0.85057954406E+03  0.12427054025E+04  0.93115304172E+02 0.  0.
         13    1    3    3    0    0 -0.10620097213E+03 -0.78737503338E+03  0.70493963326E+03  0.10621572276E+04  0.00000000000E+00 0. -1.
        -13    1    3    3    0    0 -0.12460859289E+02 -0.10597823745E+03  0.14563991080E+03  0.18054817486E+03  0.00000000000E+00 0.  1.
         22    1    1    2    0    0  0.11866183142E+03  0.89335327083E+03 -0.50663427427E+03  0.10338466930E+04  0.00000000000E+00 0.  1.
<mgrwt>
<rscale>  0 0.22504202E+04</rscale>
<asrwt>0</asrwt>
<pdfrwt beam="1">  1        2 0.20157672E+00 0.22504202E+04</pdfrwt>
<pdfrwt beam="2">  1       -2 0.14866206E+00 0.22504202E+04</pdfrwt>
<totfact> 0.45546047E+00</totfact>
</mgrwt>
</event>
<event>
 6    1  0.1614874E-005  0.4726239E+03  0.7818608E-02  0.1021182E+00
          4   -1    0    0  501    0  0.00000000000E+00  0.00000000000E+00  0.12656960804E+03  0.12656960804E+03  0.00000000000E+00 0. -1.
         -4   -1    0    0    0  501 -0.00000000000E+00 -0.00000000000E+00 -0.44120657226E+03  0.44120657226E+03  0.00000000000E+00 0.  1.
         23    2    1    2    0    0  0.68348924643E+02 -0.96150245122E+02  0.70033438074E+02  0.16542339538E+03  0.92432527571E+02 0.  0.
         13    1    3    3    0    0  0.19961068451E+02 -0.26410786251E+02  0.73351761174E+02  0.80476423575E+02  0.00000000000E+00 0. -1.
        -13    1    3    3    0    0  0.48387856192E+02 -0.69739458870E+02 -0.33183230996E+01  0.84946971804E+02  0.00000000000E+00 0.  1.
         22    1    1    2    0    0 -0.68348924643E+02  0.96150245122E+02 -0.38467040229E+03  0.40235278492E+03  0.00000000000E+00 0.  1.
<mgrwt>
<rscale>  0 0.47262392E+03</rscale>
<asrwt>0</asrwt>
<pdfrwt beam="1">  1        4 0.19472247E-01 0.47262392E+03</pdfrwt>
<pdfrwt beam="2">  1       -4 0.67877934E-01 0.47262392E+03</pdfrwt>
<totfact> 0.94270016E+01</totfact>
</mgrwt>
</event>
<event>
 6    1  0.1614874E-005  0.2201577E+04  0.7818608E-02  0.8517772E-01
          1   -1    0    0  501    0  0.00000000000E+00  0.00000000000E+00  0.20763771567E+04  0.20763771567E+04  0.00000000000E+00 0. -1.
         -1   -1    0    0    0  501 -0.00000000000E+00 -0.00000000000E+00 -0.58358159850E+03  0.58358159850E+03  0.00000000000E+00 0.  1.
         23    2    1    2    0    0  0.79483310901E+03  0.31747157589E+03  0.15805185451E+04  0.17995848858E+04  0.88988860732E+02 0.  0.
         11    1    3    3    0    0  0.50947188961E+03  0.16369132880E+03  0.10301899142E+04  0.11608823010E+04  0.00000000000E+00 0.  1.
        -11    1    3    3    0    0  0.28536121940E+03  0.15378024709E+03  0.55032863084E+03  0.63870258482E+03  0.00000000000E+00 0. -1.
         22    1    1    2    0    0 -0.79483310901E+03 -0.31747157589E+03 -0.87722986852E+02  0.86037386937E+03  0.00000000000E+00 0.  1.
<mgrwt>
<rscale>  0 0.22015772E+04</rscale>
<asrwt>0</asrwt>
<pdfrwt beam="1">  1        1 0.31944264E+00 0.22015772E+04</pdfrwt>
<pdfrwt beam="2">  1       -1 0.89781785E-01 0.22015772E+04</pdfrwt>
<totfact> 0.29271198E+00</totfact>
</mgrwt>
</event>
<event>
 6    1  0.1614874E-005  0.3455228E+04  0.7818608E-02  0.8124483E-01
         -2   -1    0    0    0  501 -0.00000000000E+00  0.00000000000E+00  0.86957828263E+03  0.86957828263E+03  0.00000000000E+00 0.  1.
          2   -1    0    0  501    0  0.00000000000E+00 -0.00000000000E+00 -0.34322963277E+04  0.34322963277E+04  0.00000000000E+00 0. -1.
         23    2    1    2    0    0 -0.60171216712E+03  0.86219901243E+03  0.42260892775E+03  0.11368119247E+04  0.91095429695E+02 0.  0.
         13    1    3    3    0    0 -0.39202988162E+03  0.63052769650E+03  0.28298387733E+03  0.79456433281E+03  0.00000000000E+00 0. -1.
        -13    1    3    3    0    0 -0.20968228550E+03  0.23167131593E+03  0.13962505042E+03  0.34224759193E+03  0.00000000000E+00 0.  1.
         22    1    1    2    0    0  0.60171216712E+03 -0.86219901243E+03 -0.29853269728E+04  0.31650626856E+04  0.00000000000E+00 0. -1.
<mgrwt>
<rscale>  0 0.34552281E+04</rscale>
<asrwt>0</asrwt>
<pdfrwt beam="1">  1        2 0.52804559E+00 0.34552281E+04</pdfrwt>
<pdfrwt beam="2">  1       -2 0.13378127E+00 0.34552281E+04</pdfrwt>
<totfact> 0.30124183E-01</totfact>
</mgrwt>
</event>
<event>
 6    1  0.1614874E-005  0.2835962E+04  0.7818608E-02  0.8292190E-01
          1   -1    0    0  501    0  0.00000000000E+00  0.00000000000E+00  0.35032588853E+04  0.35032588853E+04  0.00000000000E+00 0. -1.
         -1   -1    0    0    0  501 -0.00000000000E+00 -0.00000000000E+00 -0.57394278553E+03  0.57394278553E+03  0.00000000000E+00 0.  1.
         23    2    1    2    0    0  0.10077177763E+04 -0.10501276164E+03  0.28894850463E+04  0.30632444185E+04  0.88429281396E+02 0.  0.
         13    1    3    3    0    0  0.30013326813E+03  0.58228867777E+01  0.90307474212E+03  0.95166058786E+03  0.00000000000E+00 0. -1.
        -13    1    3    3    0    0  0.70758450819E+03 -0.11083564842E+03  0.19864103042E+04  0.21115838306E+04  0.00000000000E+00 0.  1.
         22    1    1    2    0    0 -0.10077177763E+04  0.10501276164E+03  0.39831053499E+02  0.10139572524E+04  0.00000000000E+00 0.  1.
<mgrwt>
<rscale>  0 0.28359620E+04</rscale>
<asrwt>0</asrwt>
<pdfrwt beam="1">  1        1 0.53896289E+00 0.28359620E+04</pdfrwt>
<pdfrwt beam="2">  1       -1 0.88298892E-01 0.28359620E+04</pdfrwt>
<totfact> 0.26999419E-01</totfact>
</mgrwt>
</event>
<event>
 6    1  0.1614874E-005  0.3233019E+04  0.7818608E-02  0.8180151E-01
         -1   -1    0    0    0  501 -0.00000000000E+00  0.00000000000E+00  0.12416428969E+04  0.12416428969E+04  0.00000000000E+00 0.  1.
          1   -1    0    0  501    0  0.00000000000E+00 -0.00000000000E+00 -0.21045522073E+04  0.21045522073E+04  0.00000000000E+00 0. -1.
         23    2    1    2    0    0  0.55566166093E+03  0.15134222984E+04 -0.53431505815E+03  0.17008437383E+04  0.90387533278E+02 0.  0.
         11    1    3    3    0    0  0.74693231204E+02  0.30331008735E+03 -0.93535847800E+02  0.32607521019E+03  0.00000000000E+00 0. -1.
        -11    1    3    3    0    0  0.48096842973E+03  0.12101122110E+04 -0.44077921035E+03  0.13747685281E+04  0.00000000000E+00 0.  1.
         22    1    1    2    0    0 -0.55566166093E+03 -0.15134222984E+04 -0.32859425219E+03  0.16453513659E+04  0.00000000000E+00 0. -1.
<mgrwt>
<rscale>  0 0.32330186E+04</rscale>
<asrwt>0</asrwt>
<pdfrwt beam="1">  1        1 0.32377726E+00 0.32330186E+04</pdfrwt>
<pdfrwt beam="2">  1       -1 0.19102199E+00 0.32330186E+04</pdfrwt>
<totfact> 0.36691485E-01</totfact>
</mgrwt>
</event>
<event>
 6    1  0.1614874E-005  0.3145537E+04  0.7818608E-02  0.8203351E-01
          2   -1    0    0  501    0  0.00000000000E+00  0.00000000000E+00  0.18702266605E+04  0.18702266605E+04  0.00000000000E+00 0. -1.
         -2   -1    0    0    0  501 -0.00000000000E+00 -0.00000000000E+00 -0.13226211859E+04  0.13226211859E+04  0.00000000000E+00 0.  1.
         23    2    1    2    0    0  0.25124087055E+03  0.64578192659E+03  0.17056811906E+04  0.18432939809E+04  0.90708897114E+02 0.  0.
         11    1    3    3    0    0  0.52255974613E+02  0.72046765735E+02  0.27580101954E+03  0.28980618647E+03  0.00000000000E+00 0.  1.
        -11    1    3    3    0    0  0.19898489594E+03  0.57373516085E+03  0.14298801711E+04  0.15534877944E+04  0.00000000000E+00 0. -1.
         22    1    1    2    0    0 -0.25124087055E+03 -0.64578192659E+03 -0.11580757160E+04  0.13495538655E+04  0.00000000000E+00 0.  1.
<mgrwt>
<rscale>  0 0.31455374E+04</rscale>
<asrwt>0</asrwt>
<pdfrwt beam="1">  1        2 0.28772718E+00 0.31455374E+04</pdfrwt>
<pdfrwt beam="2">  1       -2 0.20348018E+00 0.31455374E+04</pdfrwt>
<totfact> 0.84210966E-01</totfact>
</mgrwt>
</event>
<event>
 6    1  0.1614874E-005  0.1744381E+04  0.7818608E-02  0.8736449E-01
         -2   -1    0    0    0  501 -0.00000000000E+00  0.00000000000E+00  0.63380177600E+03  0.63380177600E+03  0.00000000000E+00 0. -1.
          2   -1    0    0  501    0  0.00000000000E+00 -0.00000000000E+00 -0.12002430280E+04  0.12002430280E+04  0.00000000000E+00 0.  1.
         23    2    1    2    0    0  0.33801223409E+03  0.71377624816E+03  0.99577650563E+02  0.80093784855E+03  0.88639302332E+02 0.  0.
         11    1    3    3    0    0  0.20448181494E+03  0.33168598906E+03  0.37462920465E+02  0.39144843644E+03  0.00000000000E+00 0. -1.
        -11    1    3    3    0    0  0.13353041915E+03  0.38209025910E+03  0.62114730097E+02  0.40948941211E+03  0.00000000000E+00 0.  1.
         22    1    1    2    0    0 -0.33801223409E+03 -0.71377624816E+03 -0.66601890257E+03  0.10331069555E+04  0.00000000000E+00 0.  1.
<mgrwt>
<rscale>  0 0.17443809E+04</rscale>
<asrwt>0</asrwt>
<pdfrwt beam="1">  1        2 0.18465277E+00 0.17443809E+04</pdfrwt>
<pdfrwt beam="2">  1       -2 0.97507966E-01 0.17443809E+04</pdfrwt>
<totfact> 0.15743900E+01</totfact>
</mgrwt>
</event>
<event>
 6    1  0.1614874E-005  0.3395006E+04  0.7818608E-02  0.8139133E-01
         -1   -1    0    0    0  501 -0.00000000000E+00  0.00000000000E+00  0.21652718735E+04  0.21652718735E+04  0.00000000000E+00 0.  1.
          1   -1    0    0  501    0  0.00000000000E+00 -0.00000000000E+00 -0.13307871737E+04  0.13307871737E+04  0.00000000000E+00 0. -1.
         23    2    1    2    0    0 -0.40183318754E+03 -0.15196224650E+04  0.10741179417E+04  0.19060444444E+04  0.92486347460E+02 0.  0.
         11    1    3    3    0    0 -0.21006095399E+03 -0.95121145979E+03  0.64014631803E+03  0.11656398046E+04  0.00000000000E+00 0.  1.
        -11    1    3    3    0    0 -0.19177223355E+03 -0.56841100523E+03  0.43397162367E+03  0.74040463976E+03  0.00000000000E+00 0. -1.
         22    1    1    2    0    0  0.40183318754E+03  0.15196224650E+04 -0.23963324191E+03  0.15900146029E+04  0.00000000000E+00 0. -1.
<mgrwt>
<rscale>  0 0.33950058E+04</rscale>
<asrwt>0</asrwt>
<pdfrwt beam="1">  1        1 0.20473649E+00 0.33950058E+04</pdfrwt>
<pdfrwt beam="2">  1       -1 0.33311875E+00 0.33950058E+04</pdfrwt>
<totfact> 0.14208872E-01</totfact>
</mgrwt>
</event>
<event>
 6    1  0.1614874E-005  0.3535018E+04  0.7818608E-02  0.8105541E-01
          2   -1    0    0  501    0  0.00000000000E+00  0.00000000000E+00  0.35728418886E+04  0.35728418886E+04  0.00000000000E+00 0. -1.
         -2   -1    0    0    0  501 -0.00000000000E+00 -0.00000000000E+00 -0.87439855004E+03  0.87439855004E+03  0.00000000000E+00 0.  1.
         23    2    1    2    0    0 -0.61150598834E+03 -0.11928740115E+03 -0.72914077895E+03  0.96349217844E+03  0.92205447488E+02 0.  0.
         11    1    3    3    0    0 -0.21982508593E+03 -0.30683407721E+02 -0.19656884755E+03  0.29648583733E+03  0.00000000000E+00 0. -1.
        -11    1    3    3    0    0 -0.39168090242E+03 -0.88603993428E+02 -0.53257193140E+03  0.66700634111E+03  0.00000000000E+00 0.  1.
         22    1    1    2    0    0  0.61150598834E+03  0.11928740115E+03  0.34275841175E+04  0.34837482602E+04  0.00000000000E+00 0. -1.
<mgrwt>
<rscale>  0 0.35350178E+04</rscale>
<asrwt>0</asrwt>
<pdfrwt beam="1">  1        2 0.54966798E+00 0.35350178E+04</pdfrwt>
<pdfrwt beam="2">  1       -2 0.13452286E+00 0.35350178E+04</pdfrwt>
<totfact> 0.23510252E-01</totfact>
</mgrwt>
</event>
<event>
 6    1  0.1614874E-005  0.9010745E+03  0.7818608E-02  0.9424239E-01
          1   -1    0    0  501    0  0.00000000000E+00  0.00000000000E+00  0.44543311796E+03  0.44543311796E+03  0.00000000000E+00 0. -1.
         -1   -1    0    0    0  501 -0.00000000000E+00 -0.00000000000E+00 -0.45569982283E+03  0.45569982283E+03  0.00000000000E+00 0.  1.
         23    2    1    2    0    0 -0.42337743405E+03 -0.48089584163E+02 -0.13709070358E+03  0.45655967752E+03  0.89954535000E+02 0.  0.
         11    1    3    3    0    0 -0.21323387813E+03 -0.21122355456E+02 -0.11595853220E+03  0.24364158486E+03  0.00000000000E+00 0.  1.
        -11    1    3    3    0    0 -0.21014355592E+03 -0.26967228707E+02 -0.21132171385E+02  0.21291809267E+03  0.00000000000E+00 0. -1.
         22    1    1    2    0    0  0.42337743405E+03  0.48089584163E+02  0.12682399871E+03  0.44457326327E+03  0.00000000000E+00 0. -1.
<mgrwt>
<rscale>  0 0.90107445E+03</rscale>
<asrwt>0</asrwt>
<pdfrwt beam="1">  1        1 0.68528172E-01 0.90107445E+03</pdfrwt>
<pdfrwt beam="2">  1       -1 0.70107665E-01 0.90107445E+03</pdfrwt>
<totfact> 0.10766911E+02</totfact>
</mgrwt>
</event>
<event>
 6    1  0.1614874E-005  0.1049593E+04  0.7818608E-02  0.9255764E-01
          1   -1    0    0  501    0  0.00000000000E+00  0.00000000000E+00  0.51205299949E+03  0.51205299949E+03  0.00000000000E+00 0. -1.
         -1   -1    0    0    0  501 -0.00000000000E+00 -0.00000000000E+00 -0.53785710037E+03  0.53785710037E+03  0.00000000000E+00 0.  1.
         23    2    1    2    0    0  0.32741253363E+03 -0.40405085386E+03  0.89115461755E+01  0.52869878394E+03  0.94799413481E+02 0.  0.
         11    1    3    3    0    0  0.88404339722E+02 -0.12392347226E+03  0.44905082838E+02  0.15870986334E+03  0.00000000000E+00 0. -1.
        -11    1    3    3    0    0  0.23900819391E+03 -0.28012738161E+03 -0.35993536662E+02  0.36998892060E+03  0.00000000000E+00 0.  1.
         22    1    1    2    0    0 -0.32741253363E+03  0.40405085386E+03 -0.34715647049E+02  0.52121131592E+03  0.00000000000E+00 0.  1.
<mgrwt>
<rscale>  0 0.10495930E+04</rscale>
<asrwt>0</asrwt>
<pdfrwt beam="1">  1        1 0.78777385E-01 0.10495930E+04</pdfrwt>
<pdfrwt beam="2">  1       -1 0.82747246E-01 0.10495930E+04</pdfrwt>
<totfact> 0.62237313E+01</totfact>
</mgrwt>
</event>
<event>
 6    1  0.1614874E-005  0.8827311E+03  0.7818608E-02  0.9447430E-01
         -1   -1    0    0    0  501 -0.00000000000E+00  0.00000000000E+00  0.74902199367E+02  0.74902199367E+02  0.00000000000E+00 0.  1.
          1   -1    0    0  501    0  0.00000000000E+00 -0.00000000000E+00 -0.26007718745E+04  0.26007718745E+04  0.00000000000E+00 0. -1.
         23    2    1    2    0    0  0.18130481804E+03 -0.26857724473E+03 -0.21635573825E+04  0.21895924235E+04  0.91264780651E+02 0.  0.
         11    1    3    3    0    0  0.16269566335E+03 -0.17054834471E+03 -0.16003873351E+04  0.16176514579E+04  0.00000000000E+00 0.  1.
        -11    1    3    3    0    0  0.18609154692E+02 -0.98028900020E+02 -0.56317004739E+03  0.57194096562E+03  0.00000000000E+00 0. -1.
         22    1    1    2    0    0 -0.18130481804E+03  0.26857724473E+03 -0.36231229258E+03  0.48608165033E+03  0.00000000000E+00 0.  1.
<mgrwt>
<rscale>  0 0.88273107E+03</rscale>
<asrwt>0</asrwt>
<pdfrwt beam="1">  1        1 0.40011863E+00 0.88273107E+03</pdfrwt>
<pdfrwt beam="2">  1       -1 0.11523419E-01 0.88273107E+03</pdfrwt>
<totfact> 0.59787041E+01</totfact>
</mgrwt>
</event>
<event>
 6    1  0.1614874E-005  0.1271772E+04  0.7818608E-02  0.9052255E-01
          1   -1    0    0  501    0  0.00000000000E+00  0.00000000000E+00  0.25044515580E+04  0.25044515580E+04  0.00000000000E+00 0. -1.
         -1   -1    0    0    0  501 -0.00000000000E+00 -0.00000000000E+00 -0.16145285951E+03  0.16145285951E+03  0.00000000000E+00 0.  1.
         23    2    1    2    0    0 -0.34450456343E+03  0.11903007488E+03  0.22613528413E+04  0.22923838707E+04  0.91954253689E+02 0.  0.
         11    1    3    3    0    0 -0.21393835838E+03  0.10311412911E+03  0.12340452714E+04  0.12566900479E+04  0.00000000000E+00 0.  1.
        -11    1    3    3    0    0 -0.13056620505E+03  0.15915945768E+02  0.10273075699E+04  0.10356938227E+04  0.00000000000E+00 0. -1.
         22    1    1    2    0    0  0.34450456343E+03 -0.11903007488E+03  0.81645857268E+02  0.37352054690E+03  0.00000000000E+00 0.  1.
<mgrwt>
<rscale>  0 0.12717718E+04</rscale>
<asrwt>0</asrwt>
<pdfrwt beam="1">  1        1 0.38530021E+00 0.12717718E+04</pdfrwt>
<pdfrwt beam="2">  1       -1 0.24838903E-01 0.12717718E+04</pdfrwt>
<totfact> 0.18853752E+01</totfact>
</mgrwt>
</event>
<event>
 6    1  0.1614874E-005  0.4865315E+04  0.7818608E-02  0.7849626E-01
          2   -1    0    0  501    0  0.00000000000E+00  0.00000000000E+00  0.32975635351E+04  0.32975635351E+04  0.00000000000E+00 0. -1.
         -2   -1    0    0    0  501 -0.00000000000E+00 -0.00000000000E+00 -0.17946044558E+04  0.17946044558E+04  0.00000000000E+00 0.  1.
         23    2    1    2    0    0  0.17848181162E+04  0.13757872507E+04 -0.20486366644E+03  0.22646205027E+04  0.90391549612E+02 0.  0.
         11    1    3    3    0    0  0.11519109422E+04  0.94199042714E+03 -0.13482410261E+03  0.14941292857E+04  0.00000000000E+00 0.  1.
        -11    1    3    3    0    0  0.63290717396E+03  0.43379682356E+03 -0.70039563827E+02  0.77049121700E+03  0.00000000000E+00 0. -1.
         22    1    1    2    0    0 -0.17848181162E+04 -0.13757872507E+04  0.17078227458E+04  0.28275474882E+04  0.00000000000E+00 0.  1.
<mgrwt>
<rscale>  0 0.48653149E+04</rscale>
<asrwt>0</asrwt>
<pdfrwt beam="1">  1        2 0.50731746E+00 0.48653149E+04</pdfrwt>
<pdfrwt beam="2">  1       -2 0.27609299E+00 0.48653149E+04</pdfrwt>
<totfact> 0.36554640E-02</totfact>
</mgrwt>
</event>
<event>
 6    1  0.1614874E-005  0.3713608E+04  0.7818608E-02  0.8064953E-01
          2   -1    0    0  501    0  0.00000000000E+00  0.00000000000E+00  0.22340236800E+04  0.22340236800E+04  0.00000000000E+00 0. -1.
         -2   -1    0    0    0  501 -0.00000000000E+00 -0.00000000000E+00 -0.15432789279E+04  0.15432789279E+04  0.00000000000E+00 0.  1.
         23    2    1    2    0    0  0.71185276122E+03  0.66620060647E+03 -0.12604740651E+04  0.15960615679E+04  0.89777826086E+02 0.  0.
         11    1    3    3    0    0  0.14864924291E+03  0.17892488511E+03 -0.26070390799E+03  0.34939553456E+03  0.00000000000E+00 0. -1.
        -11    1    3    3    0    0  0.56320351832E+03  0.48727572136E+03 -0.99977015712E+03  0.12466660334E+04  0.00000000000E+00 0.  1.
         22    1    1    2    0    0 -0.71185276122E+03 -0.66620060647E+03  0.19512188172E+04  0.21812410400E+04  0.00000000000E+00 0. -1.
<mgrwt>
<rscale>  0 0.37136083E+04</rscale>
<asrwt>0</asrwt>
<pdfrwt beam="1">  1        2 0.34369595E+00 0.37136083E+04</pdfrwt>
<pdfrwt beam="2">  1       -2 0.23742753E+00 0.37136083E+04</pdfrwt>
<totfact> 0.30661289E-01</totfact>
</mgrwt>
</event>
<event>
 6    1  0.1614874E-005  0.1132945E+04  0.7818608E-02  0.9173664E-01
          1   -1    0    0  501    0  0.00000000000E+00  0.00000000000E+00  0.20348239897E+04  0.20348239897E+04  0.00000000000E+00 0. -1.
         -1   -1    0    0    0  501 -0.00000000000E+00 -0.00000000000E+00 -0.15769957351E+03  0.15769957351E+03  0.00000000000E+00 0.  1.
         23    2    1    2    0    0 -0.50128408479E+03 -0.72728661765E+02  0.47068235253E+03  0.69764749130E+03  0.92708970598E+02 0.  0.
         11    1    3    3    0    0 -0.30297537482E+03 -0.88961514145E+02  0.29836728990E+03  0.43443212177E+03  0.00000000000E+00 0. -1.
        -11    1    3    3    0    0 -0.19830870997E+03  0.16232852379E+02  0.17231506263E+03  0.26321536953E+03  0.00000000000E+00 0.  1.
         22    1    1    2    0    0  0.50128408479E+03  0.72728661765E+02  0.14064420636E+04  0.14948760719E+04  0.00000000000E+00 0. -1.
<mgrwt>
<rscale>  0 0.11329446E+04</rscale>
<asrwt>0</asrwt>
<pdfrwt beam="1">  1        1 0.31304983E+00 0.11329446E+04</pdfrwt>
<pdfrwt beam="2">  1       -1 0.24261474E-01 0.11329446E+04</pdfrwt>
<totfact> 0.41496197E+01</totfact>
</mgrwt>
</event>
<event>
 6    1  0.1614874E-005  0.4008494E+04  0.7818608E-02  0.8002835E-01
          2   -1    0    0  501    0  0.00000000000E+00  0.00000000000E+00  0.17596417441E+04  0.17596417441E+04  0.00000000000E+00 0. -1.
         -2   -1    0    0    0  501 -0.00000000000E+00 -0.00000000000E+00 -0.22828549271E+04  0.22828549271E+04  0.00000000000E+00 0.  1.
         23    2    1    2    0    0 -0.15786525088E+04  0.45790004652E+03 -0.14165632348E+04  0.21716972402E+04  0.88325019587E+02 0.  0.
         13    1    3    3    0    0 -0.35415906574E+03  0.66264295758E+02 -0.32378195150E+03  0.48441134675E+03  0.00000000000E+00 0. -1.
        -13    1    3    3    0    0 -0.12244934430E+04  0.39163575076E+03 -0.10927812833E+04  0.16872858935E+04  0.00000000000E+00 0.  1.
         22    1    1    2    0    0  0.15786525088E+04 -0.45790004652E+03  0.89335005172E+03  0.18707994310E+04  0.00000000000E+00 0. -1.
<mgrwt>
<rscale>  0 0.40084944E+04</rscale>
<asrwt>0</asrwt>
<pdfrwt beam="1">  1        2 0.27071412E+00 0.40084944E+04</pdfrwt>
<pdfrwt beam="2">  1       -2 0.35120845E+00 0.40084944E+04</pdfrwt>
<totfact> 0.10947154E-01</totfact>
</mgrwt>
</event>
<event>
 6    1  0.1614874E-005  0.1511371E+04  0.7818608E-02  0.8876926E-01
         -1   -1    0    0    0  501 -0.00000000000E+00  0.00000000000E+00  0.22803379636E+03  0.22803379636E+03  0.00000000000E+00 0.  1.
          1   -1    0    0  501    0  0.00000000000E+00 -0.00000000000E+00 -0.25042815967E+04  0.25042815967E+04  0.00000000000E+00 0. -1.
         23    2    1    2    0    0 -0.50249863746E+03 -0.49835640785E+03 -0.67480685130E+03  0.98146499877E+03  0.83936090855E+02 0.  0.
         13    1    3    3    0    0 -0.44431216374E+03 -0.40703673613E+03 -0.54553695635E+03  0.81283625298E+03  0.00000000000E+00 0.  1.
        -13    1    3    3    0    0 -0.58186473722E+02 -0.91319671721E+02 -0.12926989495E+03  0.16862874579E+03  0.00000000000E+00 0. -1.
         22    1    1    2    0    0  0.50249863746E+03  0.49835640785E+03 -0.16014409490E+04  0.17508503942E+04  0.00000000000E+00 0. -1.
<mgrwt>
<rscale>  0 0.15113714E+04</rscale>
<asrwt>0</asrwt>
<pdfrwt beam="1">  1        1 0.38527410E+00 0.15113714E+04</pdfrwt>
<pdfrwt beam="2">  1       -1 0.35082122E-01 0.15113714E+04</pdfrwt>
<totfact> 0.10074201E+01</totfact>
</mgrwt>
</event>
<event>
 6    1  0.1614874E-005  0.2171639E+04  0.7818608E-02  0.8530326E-01
         -2   -1    0    0    0  501 -0.00000000000E+00  0.00000000000E+00  0.46710904613E+03  0.46710904613E+03  0.00000000000E+00 0.  1.
          2   -1    0    0  501    0  0.00000000000E+00 -0.00000000000E+00 -0.25240453028E+04  0.25240453028E+04  0.00000000000E+00 0. -1.
         23    2    1    2    0    0 -0.81929814712E+03  0.21921741440E+03 -0.10059902037E+03  0.85888768859E+03  0.90896479873E+02 0.  0.
         11    1    3    3    0    0 -0.34894987469E+03  0.13664198773E+03 -0.27163858630E+02  0.37573251533E+03  0.00000000000E+00 0. -1.
        -11    1    3    3    0    0 -0.47034827243E+03  0.82575426669E+02 -0.73435161741E+02  0.48315517326E+03  0.00000000000E+00 0.  1.
         22    1    1    2    0    0  0.81929814712E+03 -0.21921741440E+03 -0.19563372363E+04  0.21322666604E+04  0.00000000000E+00 0. -1.
<mgrwt>
<rscale>  0 0.21716394E+04</rscale>
<asrwt>0</asrwt>
<pdfrwt beam="1">  1        2 0.38831466E+00 0.21716394E+04</pdfrwt>
<pdfrwt beam="2">  1       -2 0.71862931E-01 0.21716394E+04</pdfrwt>
<totfact> 0.54206920E+00</totfact>
</mgrwt>
</event>
<event>
 6    1  0.1614874E-005  0.2088203E+04  0.7818608E-02  0.8566458E-01
         -2   -1    0    0    0  501 -0.00000000000E+00  0.00000000000E+00  0.14969280393E+04  0.14969280393E+04  0.00000000000E+00 0. -1.
          2   -1    0    0  501    0  0.00000000000E+00 -0.00000000000E+00 -0.72825687905E+03  0.72825687905E+03  0.00000000000E+00 0.  1.
         23    2    1    2    0    0 -0.50771787216E+03  0.89512190308E+03  0.56081757978E+03  0.11753164647E+04  0.88497317876E+02 0.  0.
         11    1    3    3    0    0 -0.23785384603E+03  0.36795868899E+03  0.27925703208E+03  0.51956957074E+03  0.00000000000E+00 0. -1.
        -11    1    3    3    0    0 -0.26986402613E+03  0.52716321408E+03  0.28156054771E+03  0.65574689394E+03  0.00000000000E+00 0.  1.
         22    1    1    2    0    0  0.50771787216E+03 -0.89512190308E+03  0.20785358045E+03  0.10498684537E+04  0.00000000000E+00 0. -1.
<mgrwt>
<rscale>  0 0.20882032E+04</rscale>
<asrwt>0</asrwt>
<pdfrwt beam="1">  1        2 0.11203952E+00 0.20882032E+04</pdfrwt>
<pdfrwt beam="2">  1       -2 0.23029662E+00 0.20882032E+04</pdfrwt>
<totfact> 0.30577990E+00</totfact>
</mgrwt>
</event>
<event>
 6    1  0.1614874E-005  0.1132387E+04  0.7818608E-02  0.9174188E-01
         -2   -1    0    0    0  501 -0.00000000000E+00  0.00000000000E+00  0.73775113877E+03  0.73775113877E+03  0.00000000000E+00 0.  1.
          2   -1    0    0  501    0  0.00000000000E+00 -0.00000000000E+00 -0.43453035333E+03  0.43453035333E+03  0.00000000000E+00 0. -1.
         23    2    1    2    0    0 -0.44532381072E+03 -0.30824633635E+03 -0.51777489261E+01  0.54903294116E+03  0.89895834877E+02 0.  0.
         13    1    3    3    0    0 -0.18058436650E+03 -0.81961397235E+02  0.22907761060E+02  0.19963253637E+03  0.00000000000E+00 0. -1.
        -13    1    3    3    0    0 -0.26473944421E+03 -0.22628493911E+03 -0.28085509986E+02  0.34940040478E+03  0.00000000000E+00 0.  1.
         22    1    1    2    0    0  0.44532381072E+03  0.30824633635E+03  0.30839853437E+03  0.62324855095E+03  0.00000000000E+00 0.  1.
<mgrwt>
<rscale>  0 0.11323873E+04</rscale>
<asrwt>0</asrwt>
<pdfrwt beam="1">  1        2 0.66850824E-01 0.11323873E+04</pdfrwt>
<pdfrwt beam="2">  1       -2 0.11350018E+00 0.11323873E+04</pdfrwt>
<totfact> 0.43665617E+01</totfact>
</mgrwt>
</event>
<event>
 6    1  0.2712836E-005  0.2297824E+04  0.7818608E-02  0.8478779E-01
          1   -1    0    0  501    0  0.00000000000E+00  0.00000000000E+00  0.13994781032E+04  0.13994781032E+04  0.00000000000E+00 0. -1.
         -1   -1    0    0    0  501 -0.00000000000E+00 -0.00000000000E+00 -0.94320802893E+03  0.94320802893E+03  0.00000000000E+00 0.  1.
         23    2    1    2    0    0  0.10195179051E+04 -0.44299493850E+02  0.76294658105E+03  0.12771207029E+04  0.87009195570E+02 0.  0.
         11    1    3    3    0    0  0.55153405783E+03  0.16611223524E+02  0.43042940107E+03  0.69981084516E+03  0.00000000000E+00 0.  1.
        -11    1    3    3    0    0  0.46798384732E+03 -0.60910717374E+02  0.33251717998E+03  0.57730985772E+03  0.00000000000E+00 0. -1.
         22    1    1    2    0    0 -0.10195179051E+04  0.44299493850E+02 -0.30667650683E+03  0.10655654292E+04  0.00000000000E+00 0.  1.
<mgrwt>
<rscale>  0 0.22978242E+04</rscale>
<asrwt>0</asrwt>
<pdfrwt beam="1">  1        1 0.21530432E+00 0.22978242E+04</pdfrwt>
<pdfrwt beam="2">  1       -1 0.14510893E+00 0.22978242E+04</pdfrwt>
<totfact> 0.26509195E+00</totfact>
</mgrwt>
</event>
<event>
 6    1  0.1614874E-005  0.1691382E+04  0.7818608E-02  0.8766295E-01
         -2   -1    0    0    0  501 -0.00000000000E+00  0.00000000000E+00  0.12691427231E+04  0.12691427231E+04  0.00000000000E+00 0.  1.
          2   -1    0    0  501    0  0.00000000000E+00 -0.00000000000E+00 -0.56352470010E+03  0.56352470010E+03  0.00000000000E+00 0. -1.
         23    2    1    2    0    0 -0.38638219276E+03  0.28874674122E+03  0.11033390760E+04  0.12074891163E+04  0.89481674486E+02 0.  0.
         11    1    3    3    0    0 -0.36663607269E+03  0.24058586131E+03  0.98840493921E+03  0.10813176639E+04  0.00000000000E+00 0. -1.
        -11    1    3    3    0    0 -0.19746120066E+02  0.48160879914E+02  0.11493413677E+03  0.12617145242E+03  0.00000000000E+00 0.  1.
         22    1    1    2    0    0  0.38638219276E+03 -0.28874674122E+03 -0.39772105294E+03  0.62517830688E+03  0.00000000000E+00 0. -1.
<mgrwt>
<rscale>  0 0.16913820E+04</rscale>
<asrwt>0</asrwt>
<pdfrwt beam="1">  1        2 0.86696108E-01 0.16913820E+04</pdfrwt>
<pdfrwt beam="2">  1       -2 0.19525273E+00 0.16913820E+04</pdfrwt>
<totfact> 0.72736718E+00</totfact>
</mgrwt>
</event>
<event>
 6    1  0.1614874E-005  0.3514895E+04  0.7818608E-02  0.8110269E-01
         -1   -1    0    0    0  501 -0.00000000000E+00  0.00000000000E+00  0.12826980224E+04  0.12826980224E+04  0.00000000000E+00 0.  1.
          1   -1    0    0  501    0  0.00000000000E+00 -0.00000000000E+00 -0.24079097652E+04  0.24079097652E+04  0.00000000000E+00 0. -1.
         23    2    1    2    0    0 -0.10214295896E+04  0.83300207870E+03  0.65564589690E+03  0.14750571106E+04  0.93333100401E+02 0.  0.
         13    1    3    3    0    0 -0.49117683756E+03  0.35883713839E+03  0.33962773018E+03  0.69668197389E+03  0.00000000000E+00 0.  1.
        -13    1    3    3    0    0 -0.53025275207E+03  0.47416494031E+03  0.31601816673E+03  0.77837513668E+03  0.00000000000E+00 0. -1.
         22    1    1    2    0    0  0.10214295896E+04 -0.83300207870E+03 -0.17808576396E+04  0.22155506770E+04  0.00000000000E+00 0. -1.
<mgrwt>
<rscale>  0 0.35148946E+04</rscale>
<asrwt>0</asrwt>
<pdfrwt beam="1">  1        1 0.37044765E+00 0.35148946E+04</pdfrwt>
<pdfrwt beam="2">  1       -1 0.19733816E+00 0.35148946E+04</pdfrwt>
<totfact> 0.20071948E-01</totfact>
</mgrwt>
</event>
<event>
 6    1  0.1614874E-005  0.1438542E+04  0.7818608E-02  0.8926383E-01
         -1   -1    0    0    0  501 -0.00000000000E+00  0.00000000000E+00  0.64182442330E+03  0.64182442330E+03  0.00000000000E+00 0.  1.
          1   -1    0    0  501    0  0.00000000000E+00 -0.00000000000E+00 -0.80606257310E+03  0.80606257310E+03  0.00000000000E+00 0. -1.
         23    2    1    2    0    0  0.37768830988E+03  0.30246788498E+03 -0.61412180598E+03  0.78718238392E+03  0.91516294292E+02 0.  0.
         11    1    3    3    0    0  0.12695309627E+03  0.12639409566E+03 -0.16528844607E+03  0.24374746455E+03  0.00000000000E+00 0.  1.
        -11    1    3    3    0    0  0.25073521361E+03  0.17607378932E+03 -0.44883335991E+03  0.54343491937E+03  0.00000000000E+00 0. -1.
         22    1    1    2    0    0 -0.37768830988E+03 -0.30246788498E+03  0.44988365617E+03  0.66070461248E+03  0.00000000000E+00 0.  1.
<mgrwt>
<rscale>  0 0.14385418E+04</rscale>
<asrwt>0</asrwt>
<pdfrwt beam="1">  1        1 0.12400963E+00 0.14385418E+04</pdfrwt>
<pdfrwt beam="2">  1       -1 0.98742219E-01 0.14385418E+04</pdfrwt>
<totfact> 0.20839496E+01</totfact>
</mgrwt>
</event>
<event>
 6    1  0.1614874E-005  0.1051675E+04  0.7818608E-02  0.9253617E-01
          1   -1    0    0  501    0  0.00000000000E+00  0.00000000000E+00  0.62363292066E+03  0.62363292066E+03  0.00000000000E+00 0. -1.
         -1   -1    0    0    0  501 -0.00000000000E+00 -0.00000000000E+00 -0.44337770337E+03  0.44337770337E+03  0.00000000000E+00 0.  1.
         23    2    1    2    0    0  0.37811032280E+03 -0.95545508694E+02 -0.26105796357E+03  0.47806777108E+03  0.91110773012E+02 0.  0.
         11    1    3    3    0    0  0.25984589848E+03 -0.10709270997E+03 -0.17115805862E+03  0.32906507034E+03  0.00000000000E+00 0. -1.
        -11    1    3    3    0    0  0.11826442432E+03  0.11547201278E+02 -0.89899904954E+02  0.14900270074E+03  0.00000000000E+00 0.  1.
         22    1    1    2    0    0 -0.37811032280E+03  0.95545508694E+02  0.44131318087E+03  0.58894285296E+03  0.00000000000E+00 0. -1.
<mgrwt>
<rscale>  0 0.10516747E+04</rscale>
<asrwt>0</asrwt>
<pdfrwt beam="1">  1        1 0.95943526E-01 0.10516747E+04</pdfrwt>
<pdfrwt beam="2">  1       -1 0.68211955E-01 0.10516747E+04</pdfrwt>
<totfact> 0.70429951E+01</totfact>
</mgrwt>
</event>
<event>
 6    1  0.1614874E-005  0.1744919E+04  0.7818608E-02  0.8736152E-01
         -3   -1    0    0    0  501 -0.00000000000E+00  0.00000000000E+00  0.39959768861E+03  0.39959768861E+03  0.00000000000E+00 0.  1.
          3   -1    0    0  501    0  0.00000000000E+00 -0.00000000000E+00 -0.19048790199E+04  0.19048790199E+04  0.00000000000E+00 0. -1.
         23    2    1    2    0    0 -0.34824072103E+03 -0.74934110373E+03 -0.11144227524E+04  0.13903902146E+04  0.91995589224E+02 0.  0.
         13    1    3    3    0    0 -0.18867599814E+03 -0.46615116294E+03 -0.73792863752E+03  0.89299172060E+03  0.00000000000E+00 0. -1.
        -13    1    3    3    0    0 -0.15956472289E+03 -0.28318994079E+03 -0.37649411485E+03  0.49739849404E+03  0.00000000000E+00 0.  1.
         22    1    1    2    0    0  0.34824072103E+03  0.74934110373E+03 -0.39085857888E+03  0.91408649383E+03  0.00000000000E+00 0.  1.
<mgrwt>
<rscale>  0 0.17449186E+04</rscale>
<asrwt>0</asrwt>
<pdfrwt beam="1">  1        3 0.29305831E+00 0.17449186E+04</pdfrwt>
<pdfrwt beam="2">  1       -3 0.61476568E-01 0.17449186E+04</pdfrwt>
<totfact> 0.27100727E-01</totfact>
</mgrwt>
</event>
<event>
 6    1  0.1614874E-005  0.2718574E+04  0.7818608E-02  0.8329003E-01
          3   -1    0    0  501    0  0.00000000000E+00  0.00000000000E+00  0.91159419713E+03  0.91159419713E+03  0.00000000000E+00 0. -1.
         -3   -1    0    0    0  501 -0.00000000000E+00 -0.00000000000E+00 -0.20268461313E+04  0.20268461313E+04  0.00000000000E+00 0.  1.
         23    2    1    2    0    0  0.12269138807E+04 -0.30673401790E+03 -0.24373452595E+02  0.12682848596E+04  0.92460757628E+02 0.  0.
         11    1    3    3    0    0  0.81003299778E+03 -0.23191653091E+03 -0.49222263139E+02  0.84401514559E+03  0.00000000000E+00 0. -1.
        -11    1    3    3    0    0  0.41688088288E+03 -0.74817486995E+02  0.24848810544E+02  0.42426971405E+03  0.00000000000E+00 0.  1.
         22    1    1    2    0    0 -0.12269138807E+04  0.30673401790E+03 -0.10908784815E+04  0.16701554687E+04  0.00000000000E+00 0.  1.
<mgrwt>
<rscale>  0 0.27185740E+04</rscale>
<asrwt>0</asrwt>
<pdfrwt beam="1">  1        3 0.14024526E+00 0.27185740E+04</pdfrwt>
<pdfrwt beam="2">  1       -3 0.31182248E+00 0.27185740E+04</pdfrwt>
<totfact> 0.28577283E-02</totfact>
</mgrwt>
</event>
<event>
 6    1  0.1614874E-005  0.1709538E+04  0.7818608E-02  0.8755943E-01
         -2   -1    0    0    0  501 -0.00000000000E+00  0.00000000000E+00  0.34691102968E+03  0.34691102968E+03  0.00000000000E+00 0.  1.
          2   -1    0    0  501    0  0.00000000000E+00 -0.00000000000E+00 -0.21061026151E+04  0.21061026151E+04  0.00000000000E+00 0. -1.
         23    2    1    2    0    0  0.67810508898E+03  0.30815408972E+03 -0.14764894637E+04  0.16563293006E+04  0.92844820908E+02 0.  0.
         11    1    3    3    0    0  0.38773650546E+03  0.13598445814E+03 -0.87231903727E+03  0.96424679067E+03  0.00000000000E+00 0. -1.
        -11    1    3    3    0    0  0.29036858351E+03  0.17216963157E+03 -0.60417042642E+03  0.69208250989E+03  0.00000000000E+00 0.  1.
         22    1    1    2    0    0 -0.67810508898E+03 -0.30815408972E+03 -0.28270212173E+03  0.79668434423E+03  0.00000000000E+00 0. -1.
<mgrwt>
<rscale>  0 0.17095382E+04</rscale>
<asrwt>0</asrwt>
<pdfrwt beam="1">  1        2 0.32401578E+00 0.17095382E+04</pdfrwt>
<pdfrwt beam="2">  1       -2 0.53370928E-01 0.17095382E+04</pdfrwt>
<totfact> 0.18348669E+01</totfact>
</mgrwt>
</event>
<event>
 6    1  0.1614874E-005  0.2161699E+04  0.7818608E-02  0.8534541E-01
          1   -1    0    0  501    0  0.00000000000E+00  0.00000000000E+00  0.13710263060E+04  0.13710263060E+04  0.00000000000E+00 0.  1.
         -1   -1    0    0    0  501 -0.00000000000E+00 -0.00000000000E+00 -0.85208864057E+03  0.85208864057E+03  0.00000000000E+00 0. -1.
         23    2    1    2    0    0 -0.10292302802E+04  0.32376483912E+03  0.25931598671E+03  0.11133663008E+04  0.90559914879E+02 0.  0.
         13    1    3    3    0    0 -0.84514238452E+03  0.30126788439E+03  0.21064408669E+03  0.92162840643E+03  0.00000000000E+00 0.  1.
        -13    1    3    3    0    0 -0.18408789565E+03  0.22496954732E+02  0.48671900013E+02  0.19173789440E+03  0.00000000000E+00 0. -1.
         22    1    1    2    0    0  0.10292302802E+04 -0.32376483912E+03  0.25962167875E+03  0.11097486458E+04  0.00000000000E+00 0.  1.
<mgrwt>
<rscale>  0 0.21616993E+04</rscale>
<asrwt>0</asrwt>
<pdfrwt beam="1">  1        1 0.21092712E+00 0.21616993E+04</pdfrwt>
<pdfrwt beam="2">  1       -1 0.13109056E+00 0.21616993E+04</pdfrwt>
<totfact> 0.36577573E+00</totfact>
</mgrwt>
</event>
<event>
 6    1  0.1614874E-005  0.2015938E+04  0.7818608E-02  0.8599205E-01
          1   -1    0    0  501    0  0.00000000000E+00  0.00000000000E+00  0.11040990127E+04  0.11040990127E+04  0.00000000000E+00 0. -1.
         -1   -1    0    0    0  501 -0.00000000000E+00 -0.00000000000E+00 -0.92020896479E+03  0.92020896479E+03  0.00000000000E+00 0.  1.
         23    2    1    2    0    0 -0.84883913300E+03 -0.40265568798E+03  0.45307799161E+03  0.10470047360E+04  0.90993263066E+02 0.  0.
         13    1    3    3    0    0 -0.74602461901E+03 -0.38074985426E+03  0.41877605521E+03  0.93642755625E+03  0.00000000000E+00 0.  1.
        -13    1    3    3    0    0 -0.10281451399E+03 -0.21905833723E+02  0.34301936400E+02  0.11057717973E+03  0.00000000000E+00 0. -1.
         22    1    1    2    0    0  0.84883913300E+03  0.40265568798E+03 -0.26918794372E+03  0.97730324149E+03  0.00000000000E+00 0.  1.
<mgrwt>
<rscale>  0 0.20159383E+04</rscale>
<asrwt>0</asrwt>
<pdfrwt beam="1">  1        1 0.16986139E+00 0.20159383E+04</pdfrwt>
<pdfrwt beam="2">  1       -1 0.14157061E+00 0.20159383E+04</pdfrwt>
<totfact> 0.47476125E+00</totfact>
</mgrwt>
</event>
<event>
 6    1  0.1614874E-005  0.8672998E+03  0.7818608E-02  0.9467407E-01
          3   -1    0    0  501    0  0.00000000000E+00  0.00000000000E+00  0.82552981722E+03  0.82552981722E+03  0.00000000000E+00 0. -1.
         -3   -1    0    0    0  501 -0.00000000000E+00 -0.00000000000E+00 -0.22779583811E+03  0.22779583811E+03  0.00000000000E+00 0.  1.
         23    2    1    2    0    0  0.10172296778E+03  0.40402746420E+03  0.17957365202E+03  0.46303436016E+03  0.92565480528E+02 0.  0.
         13    1    3    3    0    0  0.13701254203E+02  0.21592536529E+03  0.65332329604E+02  0.22600840921E+03  0.00000000000E+00 0. -1.
        -13    1    3    3    0    0  0.88021713577E+02  0.18810209891E+03  0.11424132242E+03  0.23702595095E+03  0.00000000000E+00 0.  1.
         22    1    1    2    0    0 -0.10172296778E+03 -0.40402746420E+03  0.41816032709E+03  0.59029129517E+03  0.00000000000E+00 0.  1.
<mgrwt>
<rscale>  0 0.86729985E+03</rscale>
<asrwt>0</asrwt>
<pdfrwt beam="1">  1        3 0.12700459E+00 0.86729985E+03</pdfrwt>
<pdfrwt beam="2">  1       -3 0.35045514E-01 0.86729985E+03</pdfrwt>
<totfact> 0.10441280E+01</totfact>
</mgrwt>
</event>
<event>
 6    1  0.1614874E-005  0.1642845E+04  0.7818608E-02  0.8794651E-01
         -1   -1    0    0    0  501 -0.00000000000E+00  0.00000000000E+00  0.36936037555E+03  0.36936037555E+03  0.00000000000E+00 0.  1.
          1   -1    0    0  501    0  0.00000000000E+00 -0.00000000000E+00 -0.18267658196E+04  0.18267658196E+04  0.00000000000E+00 0. -1.
         23    2    1    2    0    0 -0.14516277639E+03 -0.80473366705E+03 -0.78717312920E+03  0.11388278161E+04  0.92837238114E+02 0.  0.
         13    1    3    3    0    0 -0.12054596148E+03 -0.40910002724E+03 -0.39977999729E+03  0.58456668341E+03  0.00000000000E+00 0. -1.
        -13    1    3    3    0    0 -0.24616814906E+02 -0.39563363981E+03 -0.38739313191E+03  0.55426113266E+03  0.00000000000E+00 0.  1.
         22    1    1    2    0    0  0.14516277639E+03  0.80473366705E+03 -0.67023231483E+03  0.10572983791E+04  0.00000000000E+00 0.  1.
<mgrwt>
<rscale>  0 0.16428450E+04</rscale>
<asrwt>0</asrwt>
<pdfrwt beam="1">  1        1 0.28104089E+00 0.16428450E+04</pdfrwt>
<pdfrwt beam="2">  1       -1 0.56824675E-01 0.16428450E+04</pdfrwt>
<totfact> 0.11712364E+01</totfact>
</mgrwt>
</event>
<event>
 6    1  0.1614874E-005  0.1845077E+04  0.7818608E-02  0.8682688E-01
         -1   -1    0    0    0  501 -0.00000000000E+00  0.00000000000E+00  0.58237157566E+03  0.58237157566E+03  0.00000000000E+00 0.  1.
          1   -1    0    0  501    0  0.00000000000E+00 -0.00000000000E+00 -0.14613995297E+04  0.14613995297E+04  0.00000000000E+00 0. -1.
         23    2    1    2    0    0  0.63446670871E+03 -0.55490104218E+03 -0.84973445107E+03  0.12003724568E+04  0.91554501389E+02 0.  0.
         11    1    3    3    0    0  0.33230671594E+03 -0.24351526357E+03 -0.45485364936E+03  0.61369314758E+03  0.00000000000E+00 0. -1.
        -11    1    3    3    0    0  0.30215999276E+03 -0.31138577861E+03 -0.39488080171E+03  0.58667930925E+03  0.00000000000E+00 0.  1.
         22    1    1    2    0    0 -0.63446670871E+03  0.55490104218E+03 -0.29293503004E+02  0.84339864855E+03  0.00000000000E+00 0.  1.
<mgrwt>
<rscale>  0 0.18450773E+04</rscale>
<asrwt>0</asrwt>
<pdfrwt beam="1">  1        1 0.22483070E+00 0.18450773E+04</pdfrwt>
<pdfrwt beam="2">  1       -1 0.89595627E-01 0.18450773E+04</pdfrwt>
<totfact> 0.79801419E+00</totfact>
</mgrwt>
</event>
<event>
 6    1  0.1614874E-005  0.2420140E+04  0.7818608E-02  0.8432002E-01
          1   -1    0    0  501    0  0.00000000000E+00  0.00000000000E+00  0.21403819474E+04  0.21403819474E+04  0.00000000000E+00 0. -1.
         -1   -1    0    0    0  501 -0.00000000000E+00 -0.00000000000E+00 -0.68411584463E+03  0.68411584463E+03  0.00000000000E+00 0.  1.
         23    2    1    2    0    0 -0.51296409974E+03  0.51111690075E+03 -0.39949211317E+03  0.83246084210E+03  0.94997111965E+02 0.  0.
         13    1    3    3    0    0 -0.38783605800E+03  0.39444965669E+03 -0.25769822229E+03  0.61025872654E+03  0.00000000000E+00 0.  1.
        -13    1    3    3    0    0 -0.12512804175E+03  0.11666724406E+03 -0.14179389088E+03  0.22220211556E+03  0.00000000000E+00 0. -1.
         22    1    1    2    0    0  0.51296409974E+03 -0.51111690075E+03  0.18557582159E+04  0.19920369499E+04  0.00000000000E+00 0. -1.
<mgrwt>
<rscale>  0 0.24201398E+04</rscale>
<asrwt>0</asrwt>
<pdfrwt beam="1">  1        1 0.32928953E+00 0.24201398E+04</pdfrwt>
<pdfrwt beam="2">  1       -1 0.10524859E+00 0.24201398E+04</pdfrwt>
<totfact> 0.18114314E+00</totfact>
</mgrwt>
</event>
<event>
 6    1  0.1614874E-005  0.1260536E+04  0.7818608E-02  0.9061459E-01
          2   -1    0    0  501    0  0.00000000000E+00  0.00000000000E+00  0.36012868702E+04  0.36012868702E+04  0.00000000000E+00 0. -1.
         -2   -1    0    0    0  501 -0.00000000000E+00 -0.00000000000E+00 -0.11030440803E+03  0.11030440803E+03  0.00000000000E+00 0.  1.
         23    2    1    2    0    0  0.60406083177E+03 -0.30940172422E+02  0.12737747658E+04  0.14133622314E+04  0.96144997130E+02 0.  0.
         13    1    3    3    0    0  0.34426802522E+03  0.25722571727E+02  0.67324740980E+03  0.75660042208E+03  0.00000000000E+00 0.  1.
        -13    1    3    3    0    0  0.25979280655E+03 -0.56662744149E+02  0.60052735599E+03  0.65676180934E+03  0.00000000000E+00 0. -1.
         22    1    1    2    0    0 -0.60406083177E+03  0.30940172422E+02  0.22172076963E+04  0.22982290468E+04  0.00000000000E+00 0.  1.
<mgrwt>
<rscale>  0 0.12605361E+04</rscale>
<asrwt>0</asrwt>
<pdfrwt beam="1">  1        2 0.55404405E+00 0.12605361E+04</pdfrwt>
<pdfrwt beam="2">  1       -2 0.16969912E-01 0.12605361E+04</pdfrwt>
<totfact> 0.19748000E+01</totfact>
</mgrwt>
</event>
<event>
 6    1  0.1672097E-005  0.4369371E+04  0.7818608E-02  0.7933914E-01
         -2   -1    0    0    0  501 -0.00000000000E+00  0.00000000000E+00  0.14835351719E+04  0.14835351719E+04  0.00000000000E+00 0.  1.
          2   -1    0    0  501    0  0.00000000000E+00 -0.00000000000E+00 -0.32172141035E+04  0.32172141035E+04  0.00000000000E+00 0. -1.
         23    2    1    2    0    0  0.15730135633E+04 -0.14948086828E+04 -0.11303004134E+04  0.24484415023E+04  0.91989657059E+02 0.  0.
         13    1    3    3    0    0  0.88479846371E+03 -0.77998740016E+03 -0.59979240613E+03  0.13232534135E+04  0.00000000000E+00 0.  1.
        -13    1    3    3    0    0  0.68821509963E+03 -0.71482128261E+03 -0.53050800725E+03  0.11251880888E+04  0.00000000000E+00 0. -1.
         22    1    1    2    0    0 -0.15730135633E+04  0.14948086828E+04 -0.60337851824E+03  0.22523077731E+04  0.00000000000E+00 0.  1.
<mgrwt>
<rscale>  0 0.43693708E+04</rscale>
<asrwt>0</asrwt>
<pdfrwt beam="1">  1        2 0.49495601E+00 0.43693708E+04</pdfrwt>
<pdfrwt beam="2">  1       -2 0.22823618E+00 0.43693708E+04</pdfrwt>
<totfact> 0.84770628E-02</totfact>
</mgrwt>
</event>
<event>
 6    1  0.1614874E-005  0.3230304E+04  0.7818608E-02  0.8180860E-01
         -2   -1    0    0    0  501 -0.00000000000E+00  0.00000000000E+00  0.87884636334E+03  0.87884636334E+03  0.00000000000E+00 0.  1.
          2   -1    0    0  501    0  0.00000000000E+00 -0.00000000000E+00 -0.29683409373E+04  0.29683409373E+04  0.00000000000E+00 0. -1.
         23    2    1    2    0    0  0.12060701702E+04 -0.47050721846E+03  0.10136678420E+03  0.13024170185E+04  0.10016270273E+03 0.  0.
         13    1    3    3    0    0  0.55900451927E+03 -0.19521451850E+03  0.10972539457E+01  0.59211144624E+03  0.00000000000E+00 0.  1.
        -13    1    3    3    0    0  0.64706565096E+03 -0.27529269996E+03  0.10026953025E+03  0.71030557228E+03  0.00000000000E+00 0. -1.
         22    1    1    2    0    0 -0.12060701702E+04  0.47050721846E+03 -0.21908613581E+04  0.25447702821E+04  0.00000000000E+00 0. -1.
<mgrwt>
<rscale>  0 0.32303038E+04</rscale>
<asrwt>0</asrwt>
<pdfrwt beam="1">  1        2 0.45666784E+00 0.32303038E+04</pdfrwt>
<pdfrwt beam="2">  1       -2 0.13520713E+00 0.32303038E+04</pdfrwt>
<totfact> 0.60111887E-01</totfact>
</mgrwt>
</event>
<event>
 6    1  0.1614874E-005  0.2791383E+04  0.7818608E-02  0.8305949E-01
          1   -1    0    0  501    0  0.00000000000E+00  0.00000000000E+00  0.35809271815E+04  0.35809271815E+04  0.00000000000E+00 0. -1.
         -1   -1    0    0    0  501 -0.00000000000E+00 -0.00000000000E+00 -0.54398053591E+03  0.54398053591E+03  0.00000000000E+00 0.  1.
         23    2    1    2    0    0  0.63970446792E+03  0.85419439141E+03  0.28459256590E+04  0.30407680208E+04  0.90041294416E+02 0.  0.
         11    1    3    3    0    0  0.51528858481E+03  0.62878483729E+03  0.22023364266E+04  0.23475899201E+04  0.00000000000E+00 0. -1.
        -11    1    3    3    0    0  0.12441588311E+03  0.22540955412E+03  0.64358923248E+03  0.69317810066E+03  0.00000000000E+00 0.  1.
         22    1    1    2    0    0 -0.63970446792E+03 -0.85419439141E+03  0.19102098658E+03  0.10841396967E+04  0.00000000000E+00 0.  1.
<mgrwt>
<rscale>  0 0.27913829E+04</rscale>
<asrwt>0</asrwt>
<pdfrwt beam="1">  1        1 0.55091186E+00 0.27913829E+04</pdfrwt>
<pdfrwt beam="2">  1       -1 0.83689315E-01 0.27913829E+04</pdfrwt>
<totfact> 0.26428746E-01</totfact>
</mgrwt>
</event>
<event>
 6    1  0.1614874E-005  0.3857201E+04  0.7818608E-02  0.8033990E-01
         -2   -1    0    0    0  501 -0.00000000000E+00  0.00000000000E+00  0.22789294402E+04  0.22789294402E+04  0.00000000000E+00 0. -1.
          2   -1    0    0  501    0  0.00000000000E+00 -0.00000000000E+00 -0.16321259318E+04  0.16321259318E+04  0.00000000000E+00 0.  1.
         23    2    1    2    0    0  0.73707351943E+03  0.12121282766E+04  0.16467513778E+04  0.21754205966E+04  0.90179485273E+02 0.  0.
         13    1    3    3    0    0  0.49992963372E+03  0.81916453441E+03  0.10482697108E+04  0.14212070784E+04  0.00000000000E+00 0. -1.
        -13    1    3    3    0    0  0.23714388571E+03  0.39296374222E+03  0.59848166704E+03  0.75421351819E+03  0.00000000000E+00 0.  1.
         22    1    1    2    0    0 -0.73707351943E+03 -0.12121282766E+04 -0.99994786945E+03  0.17356347754E+04  0.00000000000E+00 0.  1.
<mgrwt>
<rscale>  0 0.38572010E+04</rscale>
<asrwt>0</asrwt>
<pdfrwt beam="1">  1        2 0.25109630E+00 0.38572010E+04</pdfrwt>
<pdfrwt beam="2">  1       -2 0.35060453E+00 0.38572010E+04</pdfrwt>
<totfact> 0.13165072E-01</totfact>
</mgrwt>
</event>
<event>
 6    1  0.1614874E-005  0.2006431E+04  0.7818608E-02  0.8603620E-01
          1   -1    0    0  501    0  0.00000000000E+00  0.00000000000E+00  0.12638675484E+04  0.12638675484E+04  0.00000000000E+00 0. -1.
         -1   -1    0    0    0  501 -0.00000000000E+00 -0.00000000000E+00 -0.79631839789E+03  0.79631839789E+03  0.00000000000E+00 0.  1.
         23    2    1    2    0    0 -0.52038384976E+03 -0.77169063116E+03  0.61286847428E+03  0.11181543718E+04  0.91409251085E+02 0.  0.
         11    1    3    3    0    0 -0.38939979215E+03 -0.59436189230E+03  0.42115486130E+03  0.82599617090E+03  0.00000000000E+00 0.  1.
        -11    1    3    3    0    0 -0.13098405760E+03 -0.17732873887E+03  0.19171361298E+03  0.29215820094E+03  0.00000000000E+00 0. -1.
         22    1    1    2    0    0  0.52038384976E+03  0.77169063116E+03 -0.14531932381E+03  0.94203157441E+03  0.00000000000E+00 0.  1.
<mgrwt>
<rscale>  0 0.20064306E+04</rscale>
<asrwt>0</asrwt>
<pdfrwt beam="1">  1        1 0.19444116E+00 0.20064306E+04</pdfrwt>
<pdfrwt beam="2">  1       -1 0.12251052E+00 0.20064306E+04</pdfrwt>
<totfact> 0.52380025E+00</totfact>
</mgrwt>
</event>
<event>
 6    1  0.1614874E-005  0.4078799E+04  0.7818608E-02  0.7988836E-01
         -2   -1    0    0    0  501 -0.00000000000E+00  0.00000000000E+00  0.19293986268E+04  0.19293986268E+04  0.00000000000E+00 0.  1.
          2   -1    0    0  501    0  0.00000000000E+00 -0.00000000000E+00 -0.21556720283E+04  0.21556720283E+04  0.00000000000E+00 0. -1.
         23    2    1    2    0    0  0.18744821690E+04 -0.57076682932E+03 -0.67558204734E+03  0.20747631079E+04  0.93662565434E+02 0.  0.
         11    1    3    3    0    0  0.13651982293E+04 -0.44220789472E+03 -0.52905659893E+03  0.15294492186E+04  0.00000000000E+00 0. -1.
        -11    1    3    3    0    0  0.50928393964E+03 -0.12855893460E+03 -0.14652544841E+03  0.54531388931E+03  0.00000000000E+00 0.  1.
         22    1    1    2    0    0 -0.18744821690E+04  0.57076682932E+03  0.44930864579E+03  0.20103075472E+04  0.00000000000E+00 0.  1.
<mgrwt>
<rscale>  0 0.40787992E+04</rscale>
<asrwt>0</asrwt>
<pdfrwt beam="1">  1        2 0.33164185E+00 0.40787992E+04</pdfrwt>
<pdfrwt beam="2">  1       -2 0.29683056E+00 0.40787992E+04</pdfrwt>
<totfact> 0.14248122E-01</totfact>
</mgrwt>
</event>
<event>
 6    1  0.1614874E-005  0.4271346E+03  0.7818608E-02  0.1034769E+00
         -2   -1    0    0    0  501 -0.00000000000E+00  0.00000000000E+00  0.27677300597E+03  0.27677300597E+03  0.00000000000E+00 0.  1.
          2   -1    0    0  501    0  0.00000000000E+00 -0.00000000000E+00 -0.16479564781E+03  0.16479564781E+03  0.00000000000E+00 0. -1.
         23    2    1    2    0    0 -0.13801035655E+03  0.13874370873E+03  0.52118838784E+00  0.21635952207E+03  0.92274026279E+02 0.  0.
         11    1    3    3    0    0 -0.76038136833E+02  0.28391216716E+02 -0.29367297055E+02  0.86315106302E+02  0.00000000000E+00 0.  1.
        -11    1    3    3    0    0 -0.61972219716E+02  0.11035249201E+03  0.29888485443E+02  0.13004441576E+03  0.00000000000E+00 0. -1.
         22    1    1    2    0    0  0.13801035655E+03 -0.13874370873E+03  0.11145616977E+03  0.22520913171E+03  0.00000000000E+00 0.  1.
<mgrwt>
<rscale>  0 0.42713458E+03</rscale>
<asrwt>0</asrwt>
<pdfrwt beam="1">  1        2 0.25353177E-01 0.42713458E+03</pdfrwt>
<pdfrwt beam="2">  1       -2 0.42580463E-01 0.42713458E+03</pdfrwt>
<totfact> 0.11258983E+03</totfact>
</mgrwt>
</event>
<event>
 6    1  0.1614874E-005  0.3627186E+04  0.7818608E-02  0.8084293E-01
         -2   -1    0    0    0  501 -0.00000000000E+00  0.00000000000E+00  0.11887517943E+04  0.11887517943E+04  0.00000000000E+00 0.  1.
          2   -1    0    0  501    0  0.00000000000E+00 -0.00000000000E+00 -0.27668676612E+04  0.27668676612E+04  0.00000000000E+00 0. -1.
         23    2    1    2    0    0  0.13726346508E+04  0.39899077092E+03  0.42556191470E+03  0.14943100129E+04  0.92411857141E+02 0.  0.
         11    1    3    3    0    0  0.91738121065E+03  0.29373927848E+03  0.25018661714E+03  0.99522077589E+03  0.00000000000E+00 0. -1.
        -11    1    3    3    0    0  0.45525344018E+03  0.10525149244E+03  0.17537529756E+03  0.49908923696E+03  0.00000000000E+00 0.  1.
         22    1    1    2    0    0 -0.13726346508E+04 -0.39899077092E+03 -0.20036777816E+04  0.24613094426E+04  0.00000000000E+00 0. -1.
<mgrwt>
<rscale>  0 0.36271856E+04</rscale>
<asrwt>0</asrwt>
<pdfrwt beam="1">  1        2 0.42567195E+00 0.36271856E+04</pdfrwt>
<pdfrwt beam="2">  1       -2 0.18288489E+00 0.36271856E+04</pdfrwt>
<totfact> 0.34098870E-01</totfact>
</mgrwt>
</event>
<event>
 6    1  0.1614874E-005  0.2304026E+04  0.7818608E-02  0.8476335E-01
         -2   -1    0    0    0  501 -0.00000000000E+00  0.00000000000E+00  0.60600286952E+03  0.60600286952E+03  0.00000000000E+00 0.  1.
          2   -1    0    0  501    0  0.00000000000E+00 -0.00000000000E+00 -0.21899799056E+04  0.21899799056E+04  0.00000000000E+00 0. -1.
         23    2    1    2    0    0  0.64217876902E+03  0.70713823803E+03 -0.15709199329E+04  0.18406773020E+04  0.88687290386E+02 0.  0.
         13    1    3    3    0    0  0.34264070866E+03  0.31632768363E+03 -0.79650166773E+03  0.92297387035E+03  0.00000000000E+00 0.  1.
        -13    1    3    3    0    0  0.29953806036E+03  0.39081055440E+03 -0.77441826513E+03  0.91770343162E+03  0.00000000000E+00 0. -1.
         22    1    1    2    0    0 -0.64217876902E+03 -0.70713823803E+03 -0.13057103218E+02  0.95530547314E+03  0.00000000000E+00 0.  1.
<mgrwt>
<rscale>  0 0.23040261E+04</rscale>
<asrwt>0</asrwt>
<pdfrwt beam="1">  1        2 0.33691998E+00 0.23040261E+04</pdfrwt>
<pdfrwt beam="2">  1       -2 0.93231212E-01 0.23040261E+04</pdfrwt>
<totfact> 0.46163976E+00</totfact>
</mgrwt>
</event>
<event>
 6    1  0.1614874E-005  0.9633033E+03  0.7818608E-02  0.9349735E-01
         -3   -1    0    0    0  501 -0.00000000000E+00  0.00000000000E+00  0.37201308437E+03  0.37201308437E+03  0.00000000000E+00 0.  1.
          3   -1    0    0  501    0  0.00000000000E+00 -0.00000000000E+00 -0.62360254438E+03  0.62360254438E+03  0.00000000000E+00 0. -1.
         23    2    1    2    0    0 -0.26004991444E+03 -0.39897505198E+03 -0.16268685625E+03  0.51114610126E+03  0.89421885092E+02 0.  0.
         11    1    3    3    0    0 -0.12895975438E+03 -0.25712935743E+03 -0.65902205417E+02  0.29510883650E+03  0.00000000000E+00 0. -1.
        -11    1    3    3    0    0 -0.13109016006E+03 -0.14184569455E+03 -0.96784650836E+02  0.21603726476E+03  0.00000000000E+00 0.  1.
         22    1    1    2    0    0  0.26004991444E+03  0.39897505198E+03 -0.88902603755E+02  0.48446952748E+03  0.00000000000E+00 0. -1.
<mgrwt>
<rscale>  0 0.96330329E+03</rscale>
<asrwt>0</asrwt>
<pdfrwt beam="1">  1        3 0.95938851E-01 0.96330329E+03</pdfrwt>
<pdfrwt beam="2">  1       -3 0.57232783E-01 0.96330329E+03</pdfrwt>
<totfact> 0.75730089E+00</totfact>
</mgrwt>
</event>
<event>
 6    1  0.1614874E-005  0.1170294E+04  0.7818608E-02  0.9139263E-01
         -1   -1    0    0    0  501 -0.00000000000E+00  0.00000000000E+00  0.86528984168E+03  0.86528984168E+03  0.00000000000E+00 0.  1.
          1   -1    0    0  501    0  0.00000000000E+00 -0.00000000000E+00 -0.39570191182E+03  0.39570191182E+03  0.00000000000E+00 0. -1.
         23    2    1    2    0    0 -0.19475278761E+03 -0.40892275273E+03 -0.15715688420E+03  0.48771591143E+03  0.89565942325E+02 0.  0.
         13    1    3    3    0    0 -0.68966333828E+02 -0.21548440632E+03 -0.11256654819E+03  0.25270756289E+03  0.00000000000E+00 0. -1.
        -13    1    3    3    0    0 -0.12578645379E+03 -0.19343834641E+03 -0.44590336005E+02  0.23500834854E+03  0.00000000000E+00 0.  1.
         22    1    1    2    0    0  0.19475278761E+03  0.40892275273E+03  0.62674481406E+03  0.77327584208E+03  0.00000000000E+00 0.  1.
<mgrwt>
<rscale>  0 0.11702937E+04</rscale>
<asrwt>0</asrwt>
<pdfrwt beam="1">  1        1 0.60877218E-01 0.11702937E+04</pdfrwt>
<pdfrwt beam="2">  1       -1 0.13312151E+00 0.11702937E+04</pdfrwt>
<totfact> 0.28830338E+01</totfact>
</mgrwt>
</event>
<event>
 6    1  0.1614874E-005  0.9844936E+03  0.7818608E-02  0.9325717E-01
          2   -1    0    0  501    0  0.00000000000E+00  0.00000000000E+00  0.10673119134E+04  0.10673119134E+04  0.00000000000E+00 0. -1.
         -2   -1    0    0    0  501 -0.00000000000E+00 -0.00000000000E+00 -0.22702542017E+03  0.22702542017E+03  0.00000000000E+00 0.  1.
         23    2    1    2    0    0  0.35826325653E+03  0.25375218300E+03  0.70392112726E+03  0.83462193857E+03  0.91356967871E+02 0.  0.
         11    1    3    3    0    0  0.28652200251E+03  0.15498164700E+03  0.49234665853E+03  0.59035531758E+03  0.00000000000E+00 0. -1.
        -11    1    3    3    0    0  0.71741254023E+02  0.98770536008E+02  0.21157446873E+03  0.24426662099E+03  0.00000000000E+00 0.  1.
         22    1    1    2    0    0 -0.35826325653E+03 -0.25375218300E+03  0.13636536596E+03  0.45971539499E+03  0.00000000000E+00 0.  1.
<mgrwt>
<rscale>  0 0.98449365E+03</rscale>
<asrwt>0</asrwt>
<pdfrwt beam="1">  1        2 0.16420183E+00 0.98449365E+03</pdfrwt>
<pdfrwt beam="2">  1       -2 0.34926988E-01 0.98449365E+03</pdfrwt>
<totfact> 0.17522026E+02</totfact>
</mgrwt>
</event>
<event>
 6    1  0.1614874E-005  0.1208834E+04  0.7818608E-02  0.9105159E-01
          2   -1    0    0  501    0  0.00000000000E+00  0.00000000000E+00  0.45787953633E+03  0.45787953633E+03  0.00000000000E+00 0. -1.
         -2   -1    0    0    0  501 -0.00000000000E+00 -0.00000000000E+00 -0.79785209112E+03  0.79785209112E+03  0.00000000000E+00 0.  1.
         23    2    1    2    0    0  0.45940004111E+03  0.27151706573E+03  0.11495805643E+03  0.55449573577E+03  0.97366583088E+02 0.  0.
         13    1    3    3    0    0  0.32070482263E+03  0.16613708034E+03  0.11893946217E+03  0.38026268339E+03  0.00000000000E+00 0. -1.
        -13    1    3    3    0    0  0.13869521848E+03  0.10537998539E+03 -0.39814057448E+01  0.17423305238E+03  0.00000000000E+00 0.  1.
         22    1    1    2    0    0 -0.45940004111E+03 -0.27151706573E+03 -0.45493061122E+03  0.70123589167E+03  0.00000000000E+00 0. -1.
<mgrwt>
<rscale>  0 0.12088344E+04</rscale>
<asrwt>0</asrwt>
<pdfrwt beam="1">  1        2 0.70443006E-01 0.12088344E+04</pdfrwt>
<pdfrwt beam="2">  1       -2 0.12274647E+00 0.12088344E+04</pdfrwt>
<totfact> 0.33728168E+01</totfact>
</mgrwt>
</event>
<event>
 6    1  0.1614874E-005  0.1385541E+04  0.7818608E-02  0.8964352E-01
         -2   -1    0    0    0  501 -0.00000000000E+00  0.00000000000E+00  0.58557595591E+03  0.58557595591E+03  0.00000000000E+00 0.  1.
          2   -1    0    0  501    0  0.00000000000E+00 -0.00000000000E+00 -0.81958744309E+03  0.81958744309E+03  0.00000000000E+00 0. -1.
         23    2    1    2    0    0 -0.65181076937E+03  0.15600971074E+03  0.48788888804E+02  0.67772105656E+03  0.87915675010E+02 0.  0.
         13    1    3    3    0    0 -0.62283328785E+03  0.14825535809E+03  0.27291890473E+02  0.64081651269E+03  0.00000000000E+00 0. -1.
        -13    1    3    3    0    0 -0.28977481528E+02  0.77543526469E+01  0.21496998331E+02  0.36904543865E+02  0.00000000000E+00 0.  1.
         22    1    1    2    0    0  0.65181076937E+03 -0.15600971074E+03 -0.28280037599E+03  0.72744234244E+03  0.00000000000E+00 0. -1.
<mgrwt>
<rscale>  0 0.13855406E+04</rscale>
<asrwt>0</asrwt>
<pdfrwt beam="1">  1        2 0.12609037E+00 0.13855406E+04</pdfrwt>
<pdfrwt beam="2">  1       -2 0.90088609E-01 0.13855406E+04</pdfrwt>
<totfact> 0.34270215E+01</totfact>
</mgrwt>
</event>
<event>
 6    1  0.1614874E-005  0.1527349E+04  0.7818608E-02  0.8866467E-01
         -1   -1    0    0    0  501 -0.00000000000E+00  0.00000000000E+00  0.28816168691E+03  0.28816168691E+03  0.00000000000E+00 0.  1.
          1   -1    0    0  501    0  0.00000000000E+00 -0.00000000000E+00 -0.20238593750E+04  0.20238593750E+04  0.00000000000E+00 0. -1.
         23    2    1    2    0    0 -0.16914943938E+03 -0.42214458777E+03  0.52700324638E+02  0.46670671530E+03  0.90665583720E+02 0.  0.
         13    1    3    3    0    0 -0.10558405482E+03 -0.17132590174E+03 -0.61857597376E+01  0.20134254609E+03  0.00000000000E+00 0. -1.
        -13    1    3    3    0    0 -0.63565384556E+02 -0.25081868602E+03  0.58886084376E+02  0.26536416922E+03  0.00000000000E+00 0.  1.
         22    1    1    2    0    0  0.16914943938E+03  0.42214458777E+03 -0.17883980127E+04  0.18453143466E+04  0.00000000000E+00 0. -1.
<mgrwt>
<rscale>  0 0.15273490E+04</rscale>
<asrwt>0</asrwt>
<pdfrwt beam="1">  1        1 0.31136297E+00 0.15273490E+04</pdfrwt>
<pdfrwt beam="2">  1       -1 0.44332568E-01 0.15273490E+04</pdfrwt>
<totfact> 0.13963534E+01</totfact>
</mgrwt>
</event>
<event>
 6    1  0.1614874E-005  0.2371007E+04  0.7818608E-02  0.8450439E-01
         -2   -1    0    0    0  501 -0.00000000000E+00  0.00000000000E+00  0.58702144285E+03  0.58702144285E+03  0.00000000000E+00 0.  1.
          2   -1    0    0  501    0  0.00000000000E+00 -0.00000000000E+00 -0.23941513682E+04  0.23941513682E+04  0.00000000000E+00 0. -1.
         23    2    1    2    0    0 -0.35192582397E+03 -0.53527982929E+03  0.34657270440E+03  0.73421680378E+03  0.92657402789E+02 0.  0.
         11    1    3    3    0    0 -0.15366595706E+03 -0.27707929571E+03  0.12590463751E+03  0.34093714995E+03  0.00000000000E+00 0. -1.
        -11    1    3    3    0    0 -0.19825986691E+03 -0.25820053359E+03  0.22066806690E+03  0.39327965383E+03  0.00000000000E+00 0.  1.
         22    1    1    2    0    0  0.35192582397E+03  0.53527982929E+03 -0.21537026297E+04  0.22469560073E+04  0.00000000000E+00 0. -1.
<mgrwt>
<rscale>  0 0.23710067E+04</rscale>
<asrwt>0</asrwt>
<pdfrwt beam="1">  1        2 0.36833098E+00 0.23710067E+04</pdfrwt>
<pdfrwt beam="2">  1       -2 0.90310992E-01 0.23710067E+04</pdfrwt>
<totfact> 0.37855186E+00</totfact>
</mgrwt>
</event>
<event>
 6    1  0.1614874E-005  0.1832358E+04  0.7818608E-02  0.8689279E-01
         -2   -1    0    0    0  501 -0.00000000000E+00  0.00000000000E+00  0.38192687637E+03  0.38192687637E+03  0.00000000000E+00 0.  1.
          2   -1    0    0  501    0  0.00000000000E+00 -0.00000000000E+00 -0.21977601698E+04  0.21977601698E+04  0.00000000000E+00 0. -1.
         23    2    1    2    0    0  0.63771767143E+02 -0.84296753017E+03 -0.13988563769E+04  0.16370679056E+04  0.92363787279E+02 0.  0.
         11    1    3    3    0    0  0.82428728001E+02 -0.48878917129E+03 -0.82388096486E+03  0.96150361072E+03  0.00000000000E+00 0. -1.
        -11    1    3    3    0    0 -0.18656960858E+02 -0.35417835888E+03 -0.57497541200E+03  0.67556429487E+03  0.00000000000E+00 0.  1.
         22    1    1    2    0    0 -0.63771767143E+02  0.84296753017E+03 -0.41697691652E+03  0.94261914054E+03  0.00000000000E+00 0.  1.
<mgrwt>
<rscale>  0 0.18323577E+04</rscale>
<asrwt>0</asrwt>
<pdfrwt beam="1">  1        2 0.33811695E+00 0.18323577E+04</pdfrwt>
<pdfrwt beam="2">  1       -2 0.58757981E-01 0.18323577E+04</pdfrwt>
<totfact> 0.13203602E+01</totfact>
</mgrwt>
</event>
<event>
 6    1  0.1614874E-005  0.7553580E+03  0.7818608E-02  0.9626982E-01
          2   -1    0    0  501    0  0.00000000000E+00  0.00000000000E+00  0.12857824166E+04  0.12857824166E+04  0.00000000000E+00 0.  1.
         -2   -1    0    0    0  501 -0.00000000000E+00 -0.00000000000E+00 -0.11093746443E+03  0.11093746443E+03  0.00000000000E+00 0. -1.
         23    2    1    2    0    0  0.67294969400E+02 -0.18835785074E+03  0.16262339267E+02  0.22099841582E+03  0.92566426291E+02 0.  0.
         11    1    3    3    0    0 -0.14427546421E+02 -0.53086162526E+02 -0.20553164163E+02  0.58725865720E+02  0.00000000000E+00 0. -1.
        -11    1    3    3    0    0  0.81722515820E+02 -0.13527168821E+03  0.36815503431E+02  0.16227255010E+03  0.00000000000E+00 0.  1.
         22    1    1    2    0    0 -0.67294969400E+02  0.18835785074E+03  0.11585826129E+04  0.11757214652E+04  0.00000000000E+00 0.  1.
<mgrwt>
<rscale>  0 0.75535804E+03</rscale>
<asrwt>0</asrwt>
<pdfrwt beam="1">  1        2 0.19781267E+00 0.75535804E+03</pdfrwt>
<pdfrwt beam="2">  1       -2 0.17067303E-01 0.75535804E+03</pdfrwt>
<totfact> 0.47777246E+02</totfact>
</mgrwt>
</event>
<event>
 6    1  0.1614874E-005  0.1176051E+04  0.7818608E-02  0.9134081E-01
         -1   -1    0    0    0  501 -0.00000000000E+00  0.00000000000E+00  0.22579330413E+03  0.22579330413E+03  0.00000000000E+00 0.  1.
          1   -1    0    0  501    0  0.00000000000E+00 -0.00000000000E+00 -0.15313736655E+04  0.15313736655E+04  0.00000000000E+00 0. -1.
         23    2    1    2    0    0 -0.52631286548E+03 -0.25279108603E+03 -0.62230926102E+03  0.85840784611E+03  0.93202190737E+02 0.  0.
         11    1    3    3    0    0 -0.18310701293E+03 -0.93880358322E+02 -0.15727998627E+03  0.25899554812E+03  0.00000000000E+00 0. -1.
        -11    1    3    3    0    0 -0.34320585255E+03 -0.15891072771E+03 -0.46502927476E+03  0.59941229799E+03  0.00000000000E+00 0.  1.
         22    1    1    2    0    0  0.52631286548E+03  0.25279108603E+03 -0.68327110037E+03  0.89875912354E+03  0.00000000000E+00 0. -1.
<mgrwt>
<rscale>  0 0.11760509E+04</rscale>
<asrwt>0</asrwt>
<pdfrwt beam="1">  1        1 0.23559596E+00 0.11760509E+04</pdfrwt>
<pdfrwt beam="2">  1       -1 0.34737430E-01 0.11760509E+04</pdfrwt>
<totfact> 0.48511501E+01</totfact>
</mgrwt>
</event>
<event>
 6    1  0.1614874E-005  0.7920460E+03  0.7818608E-02  0.9571602E-01
          2   -1    0    0  501    0  0.00000000000E+00  0.00000000000E+00  0.11068837534E+04  0.11068837534E+04  0.00000000000E+00 0. -1.
         -2   -1    0    0    0  501 -0.00000000000E+00 -0.00000000000E+00 -0.14168987891E+03  0.14168987891E+03  0.00000000000E+00 0.  1.
         23    2    1    2    0    0 -0.13457512995E+03  0.30664229040E+03  0.80674716115E+03  0.87810727646E+03  0.89952471297E+02 0.  0.
         13    1    3    3    0    0 -0.41879917914E+02  0.35546255829E+02  0.81147978452E+02  0.97992133536E+02  0.00000000000E+00 0. -1.
        -13    1    3    3    0    0 -0.92695212032E+02  0.27109603457E+03  0.72559918269E+03  0.78011514292E+03  0.00000000000E+00 0.  1.
         22    1    1    2    0    0  0.13457512995E+03 -0.30664229040E+03  0.15844671336E+03  0.37046635588E+03  0.00000000000E+00 0.  1.
<mgrwt>
<rscale>  0 0.79204602E+03</rscale>
<asrwt>0</asrwt>
<pdfrwt beam="1">  1        2 0.17028980E+00 0.79204602E+03</pdfrwt>
<pdfrwt beam="2">  1       -2 0.21798444E-01 0.79204602E+03</pdfrwt>
<totfact> 0.39761174E+02</totfact>
</mgrwt>
</event>
<event>
 6    1  0.1614874E-005  0.5046918E+04  0.7818608E-02  0.7821310E-01
          2   -1    0    0  501    0  0.00000000000E+00  0.00000000000E+00  0.38502260555E+04  0.38502260555E+04  0.00000000000E+00 0. -1.
         -2   -1    0    0    0  501 -0.00000000000E+00 -0.00000000000E+00 -0.16538887825E+04  0.16538887825E+04  0.00000000000E+00 0.  1.
         23    2    1    2    0    0 -0.28303090519E+03  0.23904457238E+04  0.19214740988E+04  0.30813298670E+04  0.90519529335E+02 0.  0.
         11    1    3    3    0    0 -0.63532949716E+02  0.43353608847E+03  0.30856997777E+03  0.53591548484E+03  0.00000000000E+00 0.  1.
        -11    1    3    3    0    0 -0.21949795547E+03  0.19569096353E+04  0.16129041210E+04  0.25454143821E+04  0.00000000000E+00 0. -1.
         22    1    1    2    0    0  0.28303090519E+03 -0.23904457238E+04  0.27486317424E+03  0.24227849711E+04  0.00000000000E+00 0. -1.
<mgrwt>
<rscale>  0 0.50469181E+04</rscale>
<asrwt>0</asrwt>
<pdfrwt beam="1">  1        2 0.59234247E+00 0.50469181E+04</pdfrwt>
<pdfrwt beam="2">  1       -2 0.25444443E+00 0.50469181E+04</pdfrwt>
<totfact> 0.19598334E-02</totfact>
</mgrwt>
</event>
<event>
 6    1  0.1614874E-005  0.2862448E+04  0.7818608E-02  0.8284139E-01
         -2   -1    0    0    0  501 -0.00000000000E+00  0.00000000000E+00  0.13389267722E+04  0.13389267722E+04  0.00000000000E+00 0.  1.
          2   -1    0    0  501    0  0.00000000000E+00 -0.00000000000E+00 -0.15298835818E+04  0.15298835818E+04  0.00000000000E+00 0. -1.
         23    2    1    2    0    0  0.33405361147E+03  0.13396337796E+04  0.27702939269E+03  0.14109963864E+04  0.89191027106E+02 0.  0.
         11    1    3    3    0    0  0.21850072555E+03  0.92414435543E+03  0.23078816039E+03  0.97726584495E+03  0.00000000000E+00 0. -1.
        -11    1    3    3    0    0  0.11555288592E+03  0.41548942413E+03  0.46241232296E+02  0.43373054144E+03  0.00000000000E+00 0.  1.
         22    1    1    2    0    0 -0.33405361147E+03 -0.13396337796E+04 -0.46798620234E+03  0.14578139676E+04  0.00000000000E+00 0.  1.
<mgrwt>
<rscale>  0 0.28624480E+04</rscale>
<asrwt>0</asrwt>
<pdfrwt beam="1">  1        2 0.23536670E+00 0.28624480E+04</pdfrwt>
<pdfrwt beam="2">  1       -2 0.20598873E+00 0.28624480E+04</pdfrwt>
<totfact> 0.12850006E+00</totfact>
</mgrwt>
</event>
<event>
 6    1  0.1614874E-005  0.4504610E+04  0.7818608E-02  0.7909830E-01
          2   -1    0    0  501    0  0.00000000000E+00  0.00000000000E+00  0.47573438066E+04  0.47573438066E+04  0.00000000000E+00 0. -1.
         -2   -1    0    0    0  501 -0.00000000000E+00 -0.00000000000E+00 -0.10663258153E+04  0.10663258153E+04  0.00000000000E+00 0.  1.
         23    2    1    2    0    0  0.17821045111E+03 -0.10138860999E+04 -0.74228679922E+03  0.12724153602E+04  0.91253318561E+02 0.  0.
         11    1    3    3    0    0  0.41199502466E+02 -0.22410800033E+03 -0.11923897220E+03  0.25717645169E+03  0.00000000000E+00 0. -1.
        -11    1    3    3    0    0  0.13701094864E+03 -0.78977809957E+03 -0.62304782702E+03  0.10152389085E+04  0.00000000000E+00 0.  1.
         22    1    1    2    0    0 -0.17821045111E+03  0.10138860999E+04  0.44333047906E+04  0.45512542617E+04  0.00000000000E+00 0. -1.
<mgrwt>
<rscale>  0 0.45046103E+04</rscale>
<asrwt>0</asrwt>
<pdfrwt beam="1">  1        2 0.73189903E+00 0.45046103E+04</pdfrwt>
<pdfrwt beam="2">  1       -2 0.16405013E+00 0.45046103E+04</pdfrwt>
<totfact> 0.11700863E-02</totfact>
</mgrwt>
</event>
<event>
 6    1  0.1614874E-005  0.3099340E+04  0.7818608E-02  0.8215919E-01
          1   -1    0    0  501    0  0.00000000000E+00  0.00000000000E+00  0.22965271144E+04  0.22965271144E+04  0.00000000000E+00 0. -1.
         -1   -1    0    0    0  501 -0.00000000000E+00 -0.00000000000E+00 -0.10456996487E+04  0.10456996487E+04  0.00000000000E+00 0.  1.
         23    2    1    2    0    0  0.26804010134E+03  0.14911283632E+04  0.97020946870E+03  0.18014296474E+04  0.92374617920E+02 0.  0.
         13    1    3    3    0    0  0.66700707339E+02  0.62687379477E+03  0.40873356557E+03  0.75132074811E+03  0.00000000000E+00 0. -1.
        -13    1    3    3    0    0  0.20133939400E+03  0.86425456842E+03  0.56147590313E+03  0.10501088993E+04  0.00000000000E+00 0.  1.
         22    1    1    2    0    0 -0.26804010134E+03 -0.14911283632E+04  0.28061799700E+03  0.15407971157E+04  0.00000000000E+00 0. -1.
<mgrwt>
<rscale>  0 0.30993403E+04</rscale>
<asrwt>0</asrwt>
<pdfrwt beam="1">  1        1 0.35331186E+00 0.30993403E+04</pdfrwt>
<pdfrwt beam="2">  1       -1 0.16087687E+00 0.30993403E+04</pdfrwt>
<totfact> 0.45442012E-01</totfact>
</mgrwt>
</event>
<event>
 6    1  0.1614874E-005  0.2191988E+04  0.7818608E-02  0.8521770E-01
          2   -1    0    0  501    0  0.00000000000E+00  0.00000000000E+00  0.24266354413E+04  0.24266354413E+04  0.00000000000E+00 0. -1.
         -2   -1    0    0    0  501 -0.00000000000E+00 -0.00000000000E+00 -0.49500757261E+03  0.49500757261E+03  0.00000000000E+00 0.  1.
         23    2    1    2    0    0 -0.81180342842E+03  0.20735615291E+03  0.29438422123E+02  0.84309879471E+03  0.89036938405E+02 0.  0.
         11    1    3    3    0    0 -0.30875736405E+03  0.34686302053E+02  0.14266948122E+02  0.31102700078E+03  0.00000000000E+00 0.  1.
        -11    1    3    3    0    0 -0.50304606438E+03  0.17266985086E+03  0.15171474001E+02  0.53207179394E+03  0.00000000000E+00 0. -1.
         22    1    1    2    0    0  0.81180342842E+03 -0.20735615291E+03  0.19021894466E+04  0.20785442192E+04  0.00000000000E+00 0. -1.
<mgrwt>
<rscale>  0 0.21919881E+04</rscale>
<asrwt>0</asrwt>
<pdfrwt beam="1">  1        2 0.37332852E+00 0.21919881E+04</pdfrwt>
<pdfrwt beam="2">  1       -2 0.76155012E-01 0.21919881E+04</pdfrwt>
<totfact> 0.54181921E+00</totfact>
</mgrwt>
</event>
<event>
 6    1  0.1614874E-005  0.3306398E+04  0.7818608E-02  0.8161269E-01
          2   -1    0    0  501    0  0.00000000000E+00  0.00000000000E+00  0.36715437795E+04  0.36715437795E+04  0.00000000000E+00 0. -1.
         -2   -1    0    0    0  501 -0.00000000000E+00 -0.00000000000E+00 -0.74439191508E+03  0.74439191508E+03  0.00000000000E+00 0.  1.
         23    2    1    2    0    0 -0.86352146194E+03 -0.66836150752E+03  0.31202385934E+04  0.33070358321E+04  0.90668050925E+02 0.  0.
         11    1    3    3    0    0 -0.70901975986E+03 -0.58119063996E+03  0.25467758694E+04  0.27067617016E+04  0.00000000000E+00 0. -1.
        -11    1    3    3    0    0 -0.15450170208E+03 -0.87170867561E+02  0.57346272394E+03  0.60027413058E+03  0.00000000000E+00 0.  1.
         22    1    1    2    0    0  0.86352146194E+03  0.66836150752E+03 -0.19308672898E+03  0.11088998624E+04  0.00000000000E+00 0.  1.
<mgrwt>
<rscale>  0 0.33063983E+04</rscale>
<asrwt>0</asrwt>
<pdfrwt beam="1">  1        2 0.56485288E+00 0.33063983E+04</pdfrwt>
<pdfrwt beam="2">  1       -2 0.11452184E+00 0.33063983E+04</pdfrwt>
<totfact> 0.30408957E-01</totfact>
</mgrwt>
</event>
<event>
 6    1  0.1614874E-005  0.3322967E+04  0.7818608E-02  0.8157076E-01
         -2   -1    0    0    0  501 -0.00000000000E+00  0.00000000000E+00  0.10152607805E+04  0.10152607805E+04  0.00000000000E+00 0.  1.
          2   -1    0    0  501    0  0.00000000000E+00 -0.00000000000E+00 -0.27190329867E+04  0.27190329867E+04  0.00000000000E+00 0. -1.
         23    2    1    2    0    0 -0.23029792030E+03 -0.15816179007E+04 -0.34678345080E+03  0.16376367141E+04  0.83922163340E+02 0.  0.
         13    1    3    3    0    0 -0.37229591015E+02 -0.31672666796E+03 -0.36314904772E+02  0.32096821798E+03  0.00000000000E+00 0. -1.
        -13    1    3    3    0    0 -0.19306832928E+03 -0.12648912328E+04 -0.31046854602E+03  0.13166684961E+04  0.00000000000E+00 0.  1.
         22    1    1    2    0    0  0.23029792030E+03  0.15816179007E+04 -0.13569887555E+04  0.20966570532E+04  0.00000000000E+00 0. -1.
<mgrwt>
<rscale>  0 0.33229671E+04</rscale>
<asrwt>0</asrwt>
<pdfrwt beam="1">  1        2 0.41831276E+00 0.33229671E+04</pdfrwt>
<pdfrwt beam="2">  1       -2 0.15619397E+00 0.33229671E+04</pdfrwt>
<totfact> 0.57969068E-01</totfact>
</mgrwt>
</event>
<event>
 6    1  0.1614874E-005  0.4192505E+04  0.7818608E-02  0.7966799E-01
          2   -1    0    0  501    0  0.00000000000E+00  0.00000000000E+00  0.18907657824E+04  0.18907657824E+04  0.00000000000E+00 0. -1.
         -2   -1    0    0    0  501 -0.00000000000E+00 -0.00000000000E+00 -0.23240713292E+04  0.23240713292E+04  0.00000000000E+00 0.  1.
         23    2    1    2    0    0 -0.25144125675E+03 -0.13481442329E+04 -0.18093176594E+04  0.22721263991E+04  0.90622307142E+02 0.  0.
         11    1    3    3    0    0 -0.13779594729E+03 -0.80954873275E+03 -0.11527522952E+04  0.14153426185E+04  0.00000000000E+00 0.  1.
        -11    1    3    3    0    0 -0.11364530946E+03 -0.53859550019E+03 -0.65656536423E+03  0.85678378060E+03  0.00000000000E+00 0. -1.
         22    1    1    2    0    0  0.25144125675E+03  0.13481442329E+04  0.13760121126E+04  0.19427107125E+04  0.00000000000E+00 0. -1.
<mgrwt>
<rscale>  0 0.41925050E+04</rscale>
<asrwt>0</asrwt>
<pdfrwt beam="1">  1        2 0.29088705E+00 0.41925050E+04</pdfrwt>
<pdfrwt beam="2">  1       -2 0.35754943E+00 0.41925050E+04</pdfrwt>
<totfact> 0.83169532E-02</totfact>
</mgrwt>
</event>
<event>
 6    1  0.1614874E-005  0.1137946E+04  0.7818608E-02  0.9168976E-01
         -2   -1    0    0    0  501 -0.00000000000E+00  0.00000000000E+00  0.12954097438E+04  0.12954097438E+04  0.00000000000E+00 0.  1.
          2   -1    0    0  501    0  0.00000000000E+00 -0.00000000000E+00 -0.24990589458E+03  0.24990589458E+03  0.00000000000E+00 0. -1.
         23    2    1    2    0    0  0.24856217320E+03 -0.12795568125E+03 -0.14198863374E+03  0.32535899677E+03  0.86844080740E+02 0.  0.
         13    1    3    3    0    0  0.64909891069E+02 -0.74653704853E+02 -0.69274443267E+02  0.12077010432E+03  0.00000000000E+00 0. -1.
        -13    1    3    3    0    0  0.18365228213E+03 -0.53301976396E+02 -0.72714190470E+02  0.20458889246E+03  0.00000000000E+00 0.  1.
         22    1    1    2    0    0 -0.24856217320E+03  0.12795568125E+03  0.11874924830E+04  0.12199566416E+04  0.00000000000E+00 0.  1.
<mgrwt>
<rscale>  0 0.11379465E+04</rscale>
<asrwt>0</asrwt>
<pdfrwt beam="1">  1        2 0.38447061E-01 0.11379465E+04</pdfrwt>
<pdfrwt beam="2">  1       -2 0.19929380E+00 0.11379465E+04</pdfrwt>
<totfact> 0.17925358E+01</totfact>
</mgrwt>
</event>
<event>
 6    1  0.1614874E-005  0.1676479E+04  0.7818608E-02  0.8774894E-01
          1   -1    0    0  501    0  0.00000000000E+00  0.00000000000E+00  0.10438721508E+04  0.10438721508E+04  0.00000000000E+00 0. -1.
         -1   -1    0    0    0  501 -0.00000000000E+00 -0.00000000000E+00 -0.67311419867E+03  0.67311419867E+03  0.00000000000E+00 0.  1.
         23    2    1    2    0    0  0.71558333058E+03 -0.41025544210E+03  0.32337852372E+03  0.89078187049E+03  0.92464265558E+02 0.  0.
         13    1    3    3    0    0  0.68127457390E+03 -0.37559735397E+03  0.28424196184E+03  0.82825232280E+03  0.00000000000E+00 0. -1.
        -13    1    3    3    0    0  0.34308756680E+02 -0.34658088137E+02  0.39136561885E+02  0.62529547691E+02  0.00000000000E+00 0.  1.
         22    1    1    2    0    0 -0.71558333058E+03  0.41025544210E+03  0.47379428366E+02  0.82620447894E+03  0.00000000000E+00 0. -1.
<mgrwt>
<rscale>  0 0.16764787E+04</rscale>
<asrwt>0</asrwt>
<pdfrwt beam="1">  1        1 0.16059571E+00 0.16764787E+04</pdfrwt>
<pdfrwt beam="2">  1       -1 0.10355603E+00 0.16764787E+04</pdfrwt>
<totfact> 0.11730915E+01</totfact>
</mgrwt>
</event>
<event>
 6    1  0.1614874E-005  0.2952089E+04  0.7818608E-02  0.8257546E-01
          1   -1    0    0  501    0  0.00000000000E+00  0.00000000000E+00  0.24298404438E+04  0.24298404438E+04  0.00000000000E+00 0. -1.
         -1   -1    0    0    0  501 -0.00000000000E+00 -0.00000000000E+00 -0.89664653750E+03  0.89664653750E+03  0.00000000000E+00 0.  1.
         23    2    1    2    0    0 -0.33164598766E+03  0.82704086802E+03  0.20913026828E+04  0.22750731404E+04  0.91789020629E+02 0.  0.
         13    1    3    3    0    0 -0.25715652218E+03  0.70120125383E+03  0.18098218243E+04  0.19578732622E+04  0.00000000000E+00 0. -1.
        -13    1    3    3    0    0 -0.74489465479E+02  0.12583961419E+03  0.28148085851E+03  0.31719987812E+03  0.00000000000E+00 0.  1.
         22    1    1    2    0    0  0.33164598766E+03 -0.82704086802E+03 -0.55810877652E+03  0.10514138409E+04  0.00000000000E+00 0.  1.
<mgrwt>
<rscale>  0 0.29520894E+04</rscale>
<asrwt>0</asrwt>
<pdfrwt beam="1">  1        1 0.37382160E+00 0.29520894E+04</pdfrwt>
<pdfrwt beam="2">  1       -1 0.13794562E+00 0.29520894E+04</pdfrwt>
<totfact> 0.56386312E-01</totfact>
</mgrwt>
</event>
<event>
 6    1  0.1614874E-005  0.3901955E+04  0.7818608E-02  0.8024623E-01
          2   -1    0    0  501    0  0.00000000000E+00  0.00000000000E+00  0.22265499303E+04  0.22265499303E+04  0.00000000000E+00 0.  1.
         -2   -1    0    0    0  501 -0.00000000000E+00 -0.00000000000E+00 -0.17095116825E+04  0.17095116825E+04  0.00000000000E+00 0. -1.
         23    2    1    2    0    0  0.14865888562E+04 -0.29382180205E+03  0.14965841616E+04  0.21316814212E+04  0.89575946447E+02 0.  0.
         13    1    3    3    0    0  0.93310075634E+03 -0.17327179944E+03  0.99547294888E+03  0.13753786860E+04  0.00000000000E+00 0.  1.
        -13    1    3    3    0    0  0.55348809984E+03 -0.12055000261E+03  0.50111121271E+03  0.75630273522E+03  0.00000000000E+00 0. -1.
         22    1    1    2    0    0 -0.14865888562E+04  0.29382180205E+03 -0.97954591376E+03  0.18043801916E+04  0.00000000000E+00 0. -1.
<mgrwt>
<rscale>  0 0.39019550E+04</rscale>
<asrwt>0</asrwt>
<pdfrwt beam="1">  1        2 0.34254615E+00 0.39019550E+04</pdfrwt>
<pdfrwt beam="2">  1       -2 0.26300180E+00 0.39019550E+04</pdfrwt>
<totfact> 0.21218046E-01</totfact>
</mgrwt>
</event>
<event>
 6    1  0.1614874E-005  0.9491124E+03  0.7818608E-02  0.9366189E-01
         -2   -1    0    0    0  501 -0.00000000000E+00  0.00000000000E+00  0.48438745437E+03  0.48438745437E+03  0.00000000000E+00 0.  1.
          2   -1    0    0  501    0  0.00000000000E+00 -0.00000000000E+00 -0.46492446667E+03  0.46492446667E+03  0.00000000000E+00 0. -1.
         23    2    1    2    0    0  0.10446817879E+03  0.39087393690E+03 -0.22966624839E+03  0.47416835199E+03  0.91613347573E+02 0.  0.
         11    1    3    3    0    0  0.15749891996E+02  0.12564161484E+03 -0.11780557168E+03  0.17295093870E+03  0.00000000000E+00 0. -1.
        -11    1    3    3    0    0  0.88718286795E+02  0.26523232206E+03 -0.11186067671E+03  0.30121741329E+03  0.00000000000E+00 0.  1.
         22    1    1    2    0    0 -0.10446817879E+03 -0.39087393690E+03  0.24912923609E+03  0.47514356904E+03  0.00000000000E+00 0.  1.
<mgrwt>
<rscale>  0 0.94911238E+03</rscale>
<asrwt>0</asrwt>
<pdfrwt beam="1">  1        2 0.71526841E-01 0.94911238E+03</pdfrwt>
<pdfrwt beam="2">  1       -2 0.74521147E-01 0.94911238E+03</pdfrwt>
<totfact> 0.10869255E+02</totfact>
</mgrwt>
</event>
<event>
 6    1  0.1614874E-005  0.4821000E+04  0.7818608E-02  0.7856729E-01
         -2   -1    0    0    0  501 -0.00000000000E+00  0.00000000000E+00  0.23060814333E+04  0.23060814333E+04  0.00000000000E+00 0. -1.
          2   -1    0    0  501    0  0.00000000000E+00 -0.00000000000E+00 -0.25196470845E+04  0.25196470845E+04  0.00000000000E+00 0.  1.
         23    2    1    2    0    0  0.89495009799E+03  0.18051000565E+04  0.12161689060E+04  0.23552097876E+04  0.92867885194E+02 0.  0.
         13    1    3    3    0    0  0.42303267096E+03  0.86392927489E+03  0.63458580665E+03  0.11524016569E+04  0.00000000000E+00 0.  1.
        -13    1    3    3    0    0  0.47191742704E+03  0.94117078158E+03  0.58158309934E+03  0.12028081308E+04  0.00000000000E+00 0. -1.
         22    1    1    2    0    0 -0.89495009799E+03 -0.18051000565E+04 -0.14297345573E+04  0.24705187302E+04  0.00000000000E+00 0.  1.
<mgrwt>
<rscale>  0 0.48210005E+04</rscale>
<asrwt>0</asrwt>
<pdfrwt beam="1">  1        2 0.38763801E+00 0.48210005E+04</pdfrwt>
<pdfrwt beam="2">  1       -2 0.35478176E+00 0.48210005E+04</pdfrwt>
<totfact> 0.36341023E-02</totfact>
</mgrwt>
</event>
<event>
 6    1  0.1614874E-005  0.1955914E+04  0.7818608E-02  0.8627514E-01
         -2   -1    0    0    0  501 -0.00000000000E+00  0.00000000000E+00  0.77971119082E+03  0.77971119082E+03  0.00000000000E+00 0. -1.
          2   -1    0    0  501    0  0.00000000000E+00 -0.00000000000E+00 -0.12266082066E+04  0.12266082066E+04  0.00000000000E+00 0.  1.
         23    2    1    2    0    0 -0.22365603413E+03 -0.80572194940E+03 -0.73990438936E+03  0.11202814737E+04  0.91445030022E+02 0.  0.
         13    1    3    3    0    0 -0.41002884482E+02 -0.92775195630E+02 -0.12689716824E+03  0.16245419283E+03  0.00000000000E+00 0. -1.
        -13    1    3    3    0    0 -0.18265314965E+03 -0.71294675377E+03 -0.61300722112E+03  0.95782728084E+03  0.00000000000E+00 0.  1.
         22    1    1    2    0    0  0.22365603413E+03  0.80572194940E+03  0.29300737358E+03  0.88603792374E+03  0.00000000000E+00 0.  1.
<mgrwt>
<rscale>  0 0.19559143E+04</rscale>
<asrwt>0</asrwt>
<pdfrwt beam="1">  1        2 0.18870896E+00 0.19559143E+04</pdfrwt>
<pdfrwt beam="2">  1       -2 0.11995557E+00 0.19559143E+04</pdfrwt>
<totfact> 0.90508090E+00</totfact>
</mgrwt>
</event>
<event>
 6    1  0.1614874E-005  0.1482529E+04  0.7818608E-02  0.8896154E-01
         -2   -1    0    0    0  501 -0.00000000000E+00  0.00000000000E+00  0.47999520077E+03  0.47999520077E+03  0.00000000000E+00 0.  1.
          2   -1    0    0  501    0  0.00000000000E+00 -0.00000000000E+00 -0.11447477087E+04  0.11447477087E+04  0.00000000000E+00 0. -1.
         23    2    1    2    0    0 -0.64481577277E+03 -0.30564172233E+03 -0.54216122853E+03  0.90070363908E+03  0.90133259644E+02 0.  0.
         11    1    3    3    0    0 -0.23389890309E+02 -0.24553244906E+01 -0.39081316989E+02  0.45612113793E+02  0.00000000000E+00 0. -1.
        -11    1    3    3    0    0 -0.62142588246E+03 -0.30318639784E+03 -0.50307991154E+03  0.85509152529E+03  0.00000000000E+00 0.  1.
         22    1    1    2    0    0  0.64481577277E+03  0.30564172233E+03 -0.12259127935E+03  0.72403927035E+03  0.00000000000E+00 0. -1.
<mgrwt>
<rscale>  0 0.14825295E+04</rscale>
<asrwt>0</asrwt>
<pdfrwt beam="1">  1        2 0.17611503E+00 0.14825295E+04</pdfrwt>
<pdfrwt beam="2">  1       -2 0.73845417E-01 0.14825295E+04</pdfrwt>
<totfact> 0.32705069E+01</totfact>
</mgrwt>
</event>
<event>
 6    1  0.1614874E-005  0.4586297E+04  0.7818608E-02  0.7895701E-01
         -2   -1    0    0    0  501 -0.00000000000E+00  0.00000000000E+00  0.12782694685E+04  0.12782694685E+04  0.00000000000E+00 0.  1.
          2   -1    0    0  501    0  0.00000000000E+00 -0.00000000000E+00 -0.41137877414E+04  0.41137877414E+04  0.00000000000E+00 0. -1.
         23    2    1    2    0    0  0.69023649666E+03 -0.21239191119E+04 -0.81086569647E+03  0.23776456803E+04  0.90757852400E+02 0.  0.
         13    1    3    3    0    0  0.34995636688E+03 -0.12054042295E+04 -0.43288130216E+03  0.13277255127E+04  0.00000000000E+00 0. -1.
        -13    1    3    3    0    0  0.34028012978E+03 -0.91851488239E+03 -0.37798439431E+03  0.10499201676E+04  0.00000000000E+00 0.  1.
         22    1    1    2    0    0 -0.69023649666E+03  0.21239191119E+04 -0.20246525764E+04  0.30144115297E+04  0.00000000000E+00 0. -1.
<mgrwt>
<rscale>  0 0.45862967E+04</rscale>
<asrwt>0</asrwt>
<pdfrwt beam="1">  1        2 0.63289042E+00 0.45862967E+04</pdfrwt>
<pdfrwt beam="2">  1       -2 0.19665684E+00 0.45862967E+04</pdfrwt>
<totfact> 0.28864789E-02</totfact>
</mgrwt>
</event>
<event>
 6    1  0.1614874E-005  0.3164195E+04  0.7818608E-02  0.8198338E-01
         -1   -1    0    0    0  501 -0.00000000000E+00  0.00000000000E+00  0.68672555351E+03  0.68672555351E+03  0.00000000000E+00 0.  1.
          1   -1    0    0  501    0  0.00000000000E+00 -0.00000000000E+00 -0.36448803341E+04  0.36448803341E+04  0.00000000000E+00 0. -1.
         23    2    1    2    0    0 -0.84196532766E+03 -0.12242191380E+04 -0.74173502534E+03  0.16632478453E+04  0.92760100574E+02 0.  0.
         11    1    3    3    0    0 -0.31218407338E+03 -0.51838790097E+03 -0.33223129349E+03  0.69033509538E+03  0.00000000000E+00 0.  1.
        -11    1    3    3    0    0 -0.52978125428E+03 -0.70583123698E+03 -0.40950373185E+03  0.97291274988E+03  0.00000000000E+00 0. -1.
         22    1    1    2    0    0  0.84196532766E+03  0.12242191380E+04 -0.22164197553E+04  0.26683580424E+04  0.00000000000E+00 0. -1.
<mgrwt>
<rscale>  0 0.31641950E+04</rscale>
<asrwt>0</asrwt>
<pdfrwt beam="1">  1        1 0.56075083E+00 0.31641950E+04</pdfrwt>
<pdfrwt beam="2">  1       -1 0.10565008E+00 0.31641950E+04</pdfrwt>
<totfact> 0.13458886E-01</totfact>
</mgrwt>
</event>
<event>
 6    1  0.1614874E-005  0.1270981E+04  0.7818608E-02  0.9052899E-01
         -2   -1    0    0    0  501 -0.00000000000E+00  0.00000000000E+00  0.31008477824E+03  0.31008477824E+03  0.00000000000E+00 0. -1.
          2   -1    0    0  501    0  0.00000000000E+00 -0.00000000000E+00 -0.13023798887E+04  0.13023798887E+04  0.00000000000E+00 0.  1.
         23    2    1    2    0    0  0.42925599040E+03 -0.44167726930E+03 -0.31846703244E+03  0.69956609962E+03  0.92908349868E+02 0.  0.
         11    1    3    3    0    0  0.24425478575E+03 -0.22121330020E+03 -0.12339341099E+03  0.35188301810E+03  0.00000000000E+00 0.  1.
        -11    1    3    3    0    0  0.18500120465E+03 -0.22046396909E+03 -0.19507362145E+03  0.34768308152E+03  0.00000000000E+00 0. -1.
         22    1    1    2    0    0 -0.42925599040E+03  0.44167726930E+03 -0.67382807805E+03  0.91289856736E+03  0.00000000000E+00 0. -1.
<mgrwt>
<rscale>  0 0.12709810E+04</rscale>
<asrwt>0</asrwt>
<pdfrwt beam="1">  1        2 0.20036614E+00 0.12709810E+04</pdfrwt>
<pdfrwt beam="2">  1       -2 0.47705349E-01 0.12709810E+04</pdfrwt>
<totfact> 0.67361498E+01</totfact>
</mgrwt>
</event>
<event>
 6    1  0.1614874E-005  0.6540228E+03  0.7818608E-02  0.9799260E-01
          1   -1    0    0  501    0  0.00000000000E+00  0.00000000000E+00  0.52062044229E+03  0.52062044229E+03  0.00000000000E+00 0. -1.
         -1   -1    0    0    0  501 -0.00000000000E+00 -0.00000000000E+00 -0.20540196880E+03  0.20540196880E+03  0.00000000000E+00 0.  1.
         23    2    1    2    0    0 -0.28303076705E+03  0.17591579150E+02 -0.54880293279E+01  0.29792366115E+03  0.91172971066E+02 0.  0.
         13    1    3    3    0    0 -0.18442887106E+03  0.22751450032E+02 -0.45616388535E+02  0.19134390992E+03  0.00000000000E+00 0.  1.
        -13    1    3    3    0    0 -0.98601895984E+02 -0.51598708823E+01  0.40128359207E+02  0.10657975123E+03  0.00000000000E+00 0. -1.
         22    1    1    2    0    0  0.28303076705E+03 -0.17591579150E+02  0.32070650281E+03  0.42809874994E+03  0.00000000000E+00 0. -1.
<mgrwt>
<rscale>  0 0.65402282E+03</rscale>
<asrwt>0</asrwt>
<pdfrwt beam="1">  1        1 0.80095452E-01 0.65402282E+03</pdfrwt>
<pdfrwt beam="2">  1       -1 0.31600303E-01 0.65402282E+03</pdfrwt>
<totfact> 0.39461235E+02</totfact>
</mgrwt>
</event>
<event>
 6    1  0.1614874E-005  0.4922084E+03  0.7818608E-02  0.1015833E+00
          3   -1    0    0  501    0  0.00000000000E+00  0.00000000000E+00  0.15857441156E+03  0.15857441156E+03  0.00000000000E+00 0. -1.
         -3   -1    0    0    0  501 -0.00000000000E+00 -0.00000000000E+00 -0.38194864587E+03  0.38194864587E+03  0.00000000000E+00 0.  1.
         23    2    1    2    0    0 -0.18894854587E+03 -0.14286632190E+03 -0.13848103753E+03  0.28889000359E+03  0.90377527638E+02 0.  0.
         11    1    3    3    0    0 -0.14459020012E+03 -0.84708477100E+02 -0.13580700611E+03  0.21569746167E+03  0.00000000000E+00 0.  1.
        -11    1    3    3    0    0 -0.44358345748E+02 -0.58157844800E+02 -0.26740314255E+01  0.73192541924E+02  0.00000000000E+00 0. -1.
         22    1    1    2    0    0  0.18894854587E+03  0.14286632190E+03 -0.84893196778E+02  0.25163305383E+03  0.00000000000E+00 0.  1.
<mgrwt>
<rscale>  0 0.49220842E+03</rscale>
<asrwt>0</asrwt>
<pdfrwt beam="1">  1        3 0.24396063E-01 0.49220842E+03</pdfrwt>
<pdfrwt beam="2">  1       -3 0.58761330E-01 0.49220842E+03</pdfrwt>
<totfact> 0.11793128E+02</totfact>
</mgrwt>
</event>
<event>
 6    1  0.1614874E-005  0.1539344E+04  0.7818608E-02  0.8858703E-01
          1   -1    0    0  501    0  0.00000000000E+00  0.00000000000E+00  0.13979299704E+04  0.13979299704E+04  0.00000000000E+00 0. -1.
         -1   -1    0    0    0  501 -0.00000000000E+00 -0.00000000000E+00 -0.42376609816E+03  0.42376609816E+03  0.00000000000E+00 0.  1.
         23    2    1    2    0    0  0.75280826340E+03 -0.13247448215E+03  0.56470614753E+03  0.95455974813E+03  0.89562881977E+02 0.  0.
         13    1    3    3    0    0  0.32960482067E+03 -0.35392912670E+02  0.19725201769E+03  0.38574649002E+03  0.00000000000E+00 0.  1.
        -13    1    3    3    0    0  0.42320344273E+03 -0.97081569481E+02  0.36745412984E+03  0.56881325811E+03  0.00000000000E+00 0. -1.
         22    1    1    2    0    0 -0.75280826340E+03  0.13247448215E+03  0.40945772471E+03  0.86713632042E+03  0.00000000000E+00 0.  1.
<mgrwt>
<rscale>  0 0.15393444E+04</rscale>
<asrwt>0</asrwt>
<pdfrwt beam="1">  1        1 0.21506615E+00 0.15393444E+04</pdfrwt>
<pdfrwt beam="2">  1       -1 0.65194785E-01 0.15393444E+04</pdfrwt>
<totfact> 0.17729254E+01</totfact>
</mgrwt>
</event>
<event>
 6    1  0.1614874E-005  0.3235843E+04  0.7818608E-02  0.8179415E-01
         -2   -1    0    0    0  501 -0.00000000000E+00  0.00000000000E+00  0.21378761393E+04  0.21378761393E+04  0.00000000000E+00 0.  1.
          2   -1    0    0  501    0  0.00000000000E+00 -0.00000000000E+00 -0.12244253219E+04  0.12244253219E+04  0.00000000000E+00 0. -1.
         23    2    1    2    0    0  0.64585365637E+03 -0.99777957870E+03 -0.68150527027E+03  0.13731870969E+04  0.92208115023E+02 0.  0.
         13    1    3    3    0    0  0.15612807720E+03 -0.23147156946E+03 -0.11647955439E+03  0.30252694186E+03  0.00000000000E+00 0.  1.
        -13    1    3    3    0    0  0.48972557917E+03 -0.76630800924E+03 -0.56502571588E+03  0.10706601550E+04  0.00000000000E+00 0. -1.
         22    1    1    2    0    0 -0.64585365637E+03  0.99777957870E+03  0.15949560877E+04  0.19891143644E+04  0.00000000000E+00 0.  1.
<mgrwt>
<rscale>  0 0.32358428E+04</rscale>
<asrwt>0</asrwt>
<pdfrwt beam="1">  1        2 0.18837313E+00 0.32358428E+04</pdfrwt>
<pdfrwt beam="2">  1       -2 0.32890402E+00 0.32358428E+04</pdfrwt>
<totfact> 0.32418018E-01</totfact>
</mgrwt>
</event>
<event>
 6    1  0.1614874E-005  0.3153786E+04  0.7818608E-02  0.8201130E-01
          1   -1    0    0  501    0  0.00000000000E+00  0.00000000000E+00  0.21586645403E+04  0.21586645403E+04  0.00000000000E+00 0. -1.
         -1   -1    0    0    0  501 -0.00000000000E+00 -0.00000000000E+00 -0.11519117855E+04  0.11519117855E+04  0.00000000000E+00 0.  1.
         23    2    1    2    0    0 -0.69170962967E+03  0.11449632730E+04  0.13776638311E+04  0.19224199459E+04  0.91311054333E+02 0.  0.
         11    1    3    3    0    0 -0.42787957013E+03  0.70515912365E+03  0.91234793473E+03  0.12299223838E+04  0.00000000000E+00 0. -1.
        -11    1    3    3    0    0 -0.26383005954E+03  0.43980414936E+03  0.46531589636E+03  0.69249756210E+03  0.00000000000E+00 0.  1.
         22    1    1    2    0    0  0.69170962967E+03 -0.11449632730E+04 -0.37091107633E+03  0.13881563798E+04  0.00000000000E+00 0.  1.
<mgrwt>
<rscale>  0 0.31537857E+04</rscale>
<asrwt>0</asrwt>
<pdfrwt beam="1">  1        1 0.33210224E+00 0.31537857E+04</pdfrwt>
<pdfrwt beam="2">  1       -1 0.17721720E+00 0.31537857E+04</pdfrwt>
<totfact> 0.42555086E-01</totfact>
</mgrwt>
</event>
<event>
 6    1  0.1614874E-005  0.1681303E+04  0.7818608E-02  0.8772100E-01
          2   -1    0    0  501    0  0.00000000000E+00  0.00000000000E+00  0.71332720237E+03  0.71332720237E+03  0.00000000000E+00 0. -1.
         -2   -1    0    0    0  501 -0.00000000000E+00 -0.00000000000E+00 -0.99070293287E+03  0.99070293287E+03  0.00000000000E+00 0.  1.
         23    2    1    2    0    0 -0.18112881675E+03  0.19971977434E+03  0.66531525584E+03  0.72353947632E+03  0.90384443497E+02 0.  0.
         13    1    3    3    0    0 -0.13564684238E+03  0.87139187219E+02  0.33957096267E+03  0.37590124034E+03  0.00000000000E+00 0. -1.
        -13    1    3    3    0    0 -0.45481974370E+02  0.11258058712E+03  0.32574429316E+03  0.34763823598E+03  0.00000000000E+00 0.  1.
         22    1    1    2    0    0  0.18112881675E+03 -0.19971977434E+03 -0.94269098633E+03  0.98049065892E+03  0.00000000000E+00 0.  1.
<mgrwt>
<rscale>  0 0.16813035E+04</rscale>
<asrwt>0</asrwt>
<pdfrwt beam="1">  1        2 0.10974265E+00 0.16813035E+04</pdfrwt>
<pdfrwt beam="2">  1       -2 0.15241584E+00 0.16813035E+04</pdfrwt>
<totfact> 0.10939657E+01</totfact>
</mgrwt>
</event>
<event>
 6    1  0.1614874E-005  0.2926391E+04  0.7818608E-02  0.8265068E-01
          1   -1    0    0  501    0  0.00000000000E+00  0.00000000000E+00  0.17771980554E+04  0.17771980554E+04  0.00000000000E+00 0. -1.
         -1   -1    0    0    0  501 -0.00000000000E+00 -0.00000000000E+00 -0.12046724252E+04  0.12046724252E+04  0.00000000000E+00 0.  1.
         23    2    1    2    0    0  0.28017887627E+03  0.42581734656E+03  0.16825919744E+04  0.17603681664E+04  0.89217226467E+02 0.  0.
         13    1    3    3    0    0  0.90112002699E+02  0.10375741649E+03  0.58098343875E+03  0.59701551957E+03  0.00000000000E+00 0. -1.
        -13    1    3    3    0    0  0.19006687357E+03  0.32205993007E+03  0.11016085357E+04  0.11633526468E+04  0.00000000000E+00 0.  1.
         22    1    1    2    0    0 -0.28017887627E+03 -0.42581734656E+03 -0.11100663442E+04  0.12215023143E+04  0.00000000000E+00 0.  1.
<mgrwt>
<rscale>  0 0.29263913E+04</rscale>
<asrwt>0</asrwt>
<pdfrwt beam="1">  1        1 0.27341509E+00 0.29263913E+04</pdfrwt>
<pdfrwt beam="2">  1       -1 0.18533422E+00 0.29263913E+04</pdfrwt>
<totfact> 0.68933184E-01</totfact>
</mgrwt>
</event>
<event>
 6    1  0.1614874E-005  0.3021833E+04  0.7818608E-02  0.8237524E-01
         -2   -1    0    0    0  501 -0.00000000000E+00  0.00000000000E+00  0.21702700313E+04  0.21702700313E+04  0.00000000000E+00 0. -1.
          2   -1    0    0  501    0  0.00000000000E+00 -0.00000000000E+00 -0.10518824724E+04  0.10518824724E+04  0.00000000000E+00 0.  1.
         23    2    1    2    0    0 -0.14711092063E+04 -0.96145730421E+02  0.90157542077E+03  0.17320472049E+04  0.11723046725E+03 0.  0.
         13    1    3    3    0    0 -0.13260822019E+04 -0.78364731322E+02  0.85016183065E+03  0.15771525531E+04  0.00000000000E+00 0. -1.
        -13    1    3    3    0    0 -0.14502700435E+03 -0.17780999100E+02  0.51413590119E+02  0.15489465184E+03  0.00000000000E+00 0.  1.
         22    1    1    2    0    0  0.14711092063E+04  0.96145730421E+02  0.21681213809E+03  0.14901052988E+04  0.00000000000E+00 0. -1.
<mgrwt>
<rscale>  0 0.30218332E+04</rscale>
<asrwt>0</asrwt>
<pdfrwt beam="1">  1        2 0.16182807E+00 0.30218332E+04</pdfrwt>
<pdfrwt beam="2">  1       -2 0.33388770E+00 0.30218332E+04</pdfrwt>
<totfact> 0.39156185E-01</totfact>
</mgrwt>
</event>
<event>
 6    1  0.1614874E-005  0.3279405E+04  0.7818608E-02  0.8168156E-01
          2   -1    0    0  501    0  0.00000000000E+00  0.00000000000E+00  0.27920785667E+04  0.27920785667E+04  0.00000000000E+00 0. -1.
         -2   -1    0    0    0  501 -0.00000000000E+00 -0.00000000000E+00 -0.96294750706E+03  0.96294750706E+03  0.00000000000E+00 0.  1.
         23    2    1    2    0    0  0.12036741213E+04  0.57654177770E+02 -0.35583069167E+03  0.12597879590E+04  0.91075935788E+02 0.  0.
         13    1    3    3    0    0  0.39235934765E+03 -0.21965336286E+02 -0.12902723687E+03  0.41361378306E+03  0.00000000000E+00 0.  1.
        -13    1    3    3    0    0  0.81131477366E+03  0.79619514056E+02 -0.22680345480E+03  0.84617417597E+03  0.00000000000E+00 0. -1.
         22    1    1    2    0    0 -0.12036741213E+04 -0.57654177770E+02  0.21849617513E+04  0.24952381147E+04  0.00000000000E+00 0. -1.
<mgrwt>
<rscale>  0 0.32794055E+04</rscale>
<asrwt>0</asrwt>
<pdfrwt beam="1">  1        2 0.42955055E+00 0.32794055E+04</pdfrwt>
<pdfrwt beam="2">  1       -2 0.14814577E+00 0.32794055E+04</pdfrwt>
<totfact> 0.60541670E-01</totfact>
</mgrwt>
</event>
<event>
 6    1  0.1614874E-005  0.1715614E+04  0.7818608E-02  0.8752509E-01
         -2   -1    0    0    0  501 -0.00000000000E+00  0.00000000000E+00  0.33448027369E+03  0.33448027369E+03  0.00000000000E+00 0. -1.
          2   -1    0    0  501    0  0.00000000000E+00 -0.00000000000E+00 -0.21999298695E+04  0.21999298695E+04  0.00000000000E+00 0.  1.
         23    2    1    2    0    0 -0.43106873889E+03  0.29209244522E+03  0.67496090677E+02  0.53255668175E+03  0.89009228797E+02 0.  0.
         11    1    3    3    0    0 -0.14318945475E+03  0.78373328561E+02  0.60081782565E+02  0.17394084965E+03  0.00000000000E+00 0.  1.
        -11    1    3    3    0    0 -0.28787928414E+03  0.21371911666E+03  0.74143081120E+01  0.35861583209E+03  0.00000000000E+00 0. -1.
         22    1    1    2    0    0  0.43106873889E+03 -0.29209244522E+03 -0.19329456865E+04  0.20018534615E+04  0.00000000000E+00 0.  1.
<mgrwt>
<rscale>  0 0.17156143E+04</rscale>
<asrwt>0</asrwt>
<pdfrwt beam="1">  1        2 0.33845075E+00 0.17156143E+04</pdfrwt>
<pdfrwt beam="2">  1       -2 0.51458504E-01 0.17156143E+04</pdfrwt>
<totfact> 0.17519209E+01</totfact>
</mgrwt>
</event>
<event>
 6    1  0.1614874E-005  0.1807650E+04  0.7818608E-02  0.8702242E-01
         -2   -1    0    0    0  501 -0.00000000000E+00  0.00000000000E+00  0.76344230777E+03  0.76344230777E+03  0.00000000000E+00 0.  1.
          2   -1    0    0  501    0  0.00000000000E+00 -0.00000000000E+00 -0.10700210318E+04  0.10700210318E+04  0.00000000000E+00 0. -1.
         23    2    1    2    0    0  0.66891540552E+03 -0.59905643755E+03 -0.23618000861E+03  0.93275672015E+03  0.89093587850E+02 0.  0.
         13    1    3    3    0    0  0.29886367571E+03 -0.27217113168E+03 -0.60742555010E+02  0.40876188615E+03  0.00000000000E+00 0.  1.
        -13    1    3    3    0    0  0.37005172982E+03 -0.32688530587E+03 -0.17543745360E+03  0.52399483400E+03  0.00000000000E+00 0. -1.
         22    1    1    2    0    0 -0.66891540552E+03  0.59905643755E+03 -0.70398715423E+02  0.90070661941E+03  0.00000000000E+00 0.  1.
<mgrwt>
<rscale>  0 0.18076497E+04</rscale>
<asrwt>0</asrwt>
<pdfrwt beam="1">  1        2 0.16461862E+00 0.18076497E+04</pdfrwt>
<pdfrwt beam="2">  1       -2 0.11745266E+00 0.18076497E+04</pdfrwt>
<totfact> 0.12015670E+01</totfact>
</mgrwt>
</event>
<event>
 6    1  0.1614874E-005  0.1606816E+04  0.7818608E-02  0.8816371E-01
          2   -1    0    0  501    0  0.00000000000E+00  0.00000000000E+00  0.99745655185E+03  0.99745655185E+03  0.00000000000E+00 0. -1.
         -2   -1    0    0    0  501 -0.00000000000E+00 -0.00000000000E+00 -0.64711050396E+03  0.64711050396E+03  0.00000000000E+00 0.  1.
         23    2    1    2    0    0 -0.31727393899E+03  0.62244126340E+03 -0.22479530498E+03  0.73964526111E+03  0.91903777898E+02 0.  0.
         13    1    3    3    0    0 -0.10940439338E+03  0.24575814001E+03 -0.13142538534E+03  0.29939775648E+03  0.00000000000E+00 0. -1.
        -13    1    3    3    0    0 -0.20786954561E+03  0.37668312340E+03 -0.93369919637E+02  0.44024750463E+03  0.00000000000E+00 0.  1.
         22    1    1    2    0    0  0.31727393899E+03 -0.62244126340E+03  0.57514135286E+03  0.90492179470E+03  0.00000000000E+00 0. -1.
<mgrwt>
<rscale>  0 0.16068162E+04</rscale>
<asrwt>0</asrwt>
<pdfrwt beam="1">  1        2 0.15345485E+00 0.16068162E+04</pdfrwt>
<pdfrwt beam="2">  1       -2 0.99555462E-01 0.16068162E+04</pdfrwt>
<totfact> 0.20232728E+01</totfact>
</mgrwt>
</event>
<event>
 6    1  0.1614874E-005  0.1993461E+04  0.7818608E-02  0.8609684E-01
          2   -1    0    0  501    0  0.00000000000E+00  0.00000000000E+00  0.11427590840E+04  0.11427590840E+04  0.00000000000E+00 0. -1.
         -2   -1    0    0    0  501 -0.00000000000E+00 -0.00000000000E+00 -0.86936221191E+03  0.86936221191E+03  0.00000000000E+00 0.  1.
         23    2    1    2    0    0 -0.29693543636E+03 -0.58054606772E+03 -0.62070296774E+03  0.90549628548E+03  0.97195466650E+02 0.  0.
         13    1    3    3    0    0 -0.22641626573E+03 -0.33986371974E+03 -0.39230527332E+03  0.56628182106E+03  0.00000000000E+00 0.  1.
        -13    1    3    3    0    0 -0.70519170626E+02 -0.24068234798E+03 -0.22839769442E+03  0.33921446442E+03  0.00000000000E+00 0. -1.
         22    1    1    2    0    0  0.29693543636E+03  0.58054606772E+03  0.89409983982E+03  0.11066250104E+04  0.00000000000E+00 0. -1.
<mgrwt>
<rscale>  0 0.19934609E+04</rscale>
<asrwt>0</asrwt>
<pdfrwt beam="1">  1        2 0.17580909E+00 0.19934609E+04</pdfrwt>
<pdfrwt beam="2">  1       -2 0.13374803E+00 0.19934609E+04</pdfrwt>
<totfact> 0.77031242E+00</totfact>
</mgrwt>
</event>
<event>
 6    1  0.1614874E-005  0.2119376E+04  0.7818608E-02  0.8552756E-01
         -1   -1    0    0    0  501 -0.00000000000E+00  0.00000000000E+00  0.75768218549E+03  0.75768218549E+03  0.00000000000E+00 0.  1.
          1   -1    0    0  501    0  0.00000000000E+00 -0.00000000000E+00 -0.14820710760E+04  0.14820710760E+04  0.00000000000E+00 0. -1.
         23    2    1    2    0    0 -0.70663779966E+03  0.73217246480E+03 -0.58077965438E+02  0.10234540602E+04  0.93121776361E+02 0.  0.
         13    1    3    3    0    0 -0.35613335887E+03  0.40272446132E+03  0.95832329526E+01  0.53768931494E+03  0.00000000000E+00 0.  1.
        -13    1    3    3    0    0 -0.35050444078E+03  0.32944800349E+03 -0.67661198391E+02  0.48576474530E+03  0.00000000000E+00 0. -1.
         22    1    1    2    0    0  0.70663779966E+03 -0.73217246480E+03 -0.66631092508E+03  0.12162992013E+04  0.00000000000E+00 0. -1.
<mgrwt>
<rscale>  0 0.21193762E+04</rscale>
<asrwt>0</asrwt>
<pdfrwt beam="1">  1        1 0.22801093E+00 0.21193762E+04</pdfrwt>
<pdfrwt beam="2">  1       -1 0.11656649E+00 0.21193762E+04</pdfrwt>
<totfact> 0.41065378E+00</totfact>
</mgrwt>
</event>
<event>
 6    1  0.1614874E-005  0.1102233E+04  0.7818608E-02  0.9203018E-01
         -2   -1    0    0    0  501 -0.00000000000E+00  0.00000000000E+00  0.94858860740E+03  0.94858860740E+03  0.00000000000E+00 0. -1.
          2   -1    0    0  501    0  0.00000000000E+00 -0.00000000000E+00 -0.32019081224E+03  0.32019081224E+03  0.00000000000E+00 0.  1.
         23    2    1    2    0    0 -0.20079065237E+03 -0.13254374727E+03 -0.24961893066E+03  0.35839592800E+03  0.90847672744E+02 0.  0.
         11    1    3    3    0    0 -0.74263943727E+02 -0.86041628197E+02 -0.16098918744E+03  0.19706804305E+03  0.00000000000E+00 0.  1.
        -11    1    3    3    0    0 -0.12652670864E+03 -0.46502119070E+02 -0.88629743228E+02  0.16132788495E+03  0.00000000000E+00 0. -1.
         22    1    1    2    0    0  0.20079065237E+03  0.13254374727E+03  0.87801672583E+03  0.91038349164E+03  0.00000000000E+00 0. -1.
<mgrwt>
<rscale>  0 0.11022329E+04</rscale>
<asrwt>0</asrwt>
<pdfrwt beam="1">  1        2 0.49260125E-01 0.11022329E+04</pdfrwt>
<pdfrwt beam="2">  1       -2 0.14593671E+00 0.11022329E+04</pdfrwt>
<totfact> 0.32617996E+01</totfact>
</mgrwt>
</event>
<event>
 6    1  0.1614874E-005  0.4757572E+04  0.7818608E-02  0.7867032E-01
         -2   -1    0    0    0  501 -0.00000000000E+00  0.00000000000E+00  0.14527217931E+04  0.14527217931E+04  0.00000000000E+00 0.  1.
          2   -1    0    0  501    0  0.00000000000E+00 -0.00000000000E+00 -0.38951876421E+04  0.38951876421E+04  0.00000000000E+00 0. -1.
         23    2    1    2    0    0  0.18738151813E+04  0.77241250495E+03 -0.26196508004E+04  0.33134073049E+04  0.91067232203E+02 0.  0.
         11    1    3    3    0    0  0.73168793810E+03  0.34985873115E+03 -0.10478048435E+04  0.13250144756E+04  0.00000000000E+00 0. -1.
        -11    1    3    3    0    0  0.11421272432E+04  0.42255377380E+03 -0.15718459569E+04  0.19883928293E+04  0.00000000000E+00 0.  1.
         22    1    1    2    0    0 -0.18738151813E+04 -0.77241250495E+03  0.17718495141E+03  0.20345021303E+04  0.00000000000E+00 0.  1.
<mgrwt>
<rscale>  0 0.47575725E+04</rscale>
<asrwt>0</asrwt>
<pdfrwt beam="1">  1        2 0.59925963E+00 0.47575725E+04</pdfrwt>
<pdfrwt beam="2">  1       -2 0.22349567E+00 0.47575725E+04</pdfrwt>
<totfact> 0.28796276E-02</totfact>
</mgrwt>
</event>
<event>
 6    1  0.1614874E-005  0.5413981E+04  0.7818608E-02  0.7767638E-01
          2   -1    0    0  501    0  0.00000000000E+00  0.00000000000E+00  0.20919132643E+04  0.20919132643E+04  0.00000000000E+00 0. -1.
         -2   -1    0    0    0  501 -0.00000000000E+00 -0.00000000000E+00 -0.35029166263E+04  0.35029166263E+04  0.00000000000E+00 0.  1.
         23    2    1    2    0    0  0.25274012736E+03  0.54545262233E+03 -0.34324432669E+04  0.34858928540E+04  0.91575508744E+02 0.  0.
         13    1    3    3    0    0  0.23508789880E+03  0.41938993858E+03 -0.27024593144E+04  0.27448935474E+04  0.00000000000E+00 0.  1.
        -13    1    3    3    0    0  0.17652228564E+02  0.12606268375E+03 -0.72998395254E+03  0.74099930659E+03  0.00000000000E+00 0. -1.
         22    1    1    2    0    0 -0.25274012736E+03 -0.54545262233E+03  0.20214399049E+04  0.21089370366E+04  0.00000000000E+00 0. -1.
<mgrwt>
<rscale>  0 0.54139811E+04</rscale>
<asrwt>0</asrwt>
<pdfrwt beam="1">  1        2 0.32183281E+00 0.54139811E+04</pdfrwt>
<pdfrwt beam="2">  1       -2 0.53891025E+00 0.54139811E+04</pdfrwt>
<totfact> 0.41405598E-03</totfact>
</mgrwt>
</event>
<event>
 6    1  0.1614874E-005  0.2938151E+04  0.7818608E-02  0.8261616E-01
         -2   -1    0    0    0  501 -0.00000000000E+00  0.00000000000E+00  0.16232646077E+04  0.16232646077E+04  0.00000000000E+00 0.  1.
          2   -1    0    0  501    0  0.00000000000E+00 -0.00000000000E+00 -0.13295320763E+04  0.13295320763E+04  0.00000000000E+00 0. -1.
         23    2    1    2    0    0 -0.51984347867E+03  0.24067703066E+03 -0.12109582007E+04  0.13427479659E+04  0.91595090301E+02 0.  0.
         11    1    3    3    0    0 -0.27259545595E+03  0.17458497625E+03 -0.70361882242E+03  0.77451122897E+03  0.00000000000E+00 0. -1.
        -11    1    3    3    0    0 -0.24724802271E+03  0.66092054409E+02 -0.50733937831E+03  0.56823673691E+03  0.00000000000E+00 0.  1.
         22    1    1    2    0    0  0.51984347867E+03 -0.24067703066E+03  0.15046907321E+04  0.16100487181E+04  0.00000000000E+00 0.  1.
<mgrwt>
<rscale>  0 0.29381507E+04</rscale>
<asrwt>0</asrwt>
<pdfrwt beam="1">  1        2 0.20454340E+00 0.29381507E+04</pdfrwt>
<pdfrwt beam="2">  1       -2 0.24973302E+00 0.29381507E+04</pdfrwt>
<totfact> 0.88186704E-01</totfact>
</mgrwt>
</event>
<event>
 6    1  0.1614874E-005  0.1677943E+04  0.7818608E-02  0.8774045E-01
          1   -1    0    0  501    0  0.00000000000E+00  0.00000000000E+00  0.28093278328E+04  0.28093278328E+04  0.00000000000E+00 0. -1.
         -1   -1    0    0    0  501 -0.00000000000E+00 -0.00000000000E+00 -0.25054864746E+03  0.25054864746E+03  0.00000000000E+00 0.  1.
         23    2    1    2    0    0  0.62907187170E+03 -0.27546970869E+03  0.41311892028E+03  0.80699544630E+03  0.94654254468E+02 0.  0.
         13    1    3    3    0    0  0.47367802064E+03 -0.16123698871E+03  0.29711059375E+03  0.58193035552E+03  0.00000000000E+00 0.  1.
        -13    1    3    3    0    0  0.15539385106E+03 -0.11423271998E+03  0.11600832654E+03  0.22506509078E+03  0.00000000000E+00 0. -1.
         22    1    1    2    0    0 -0.62907187170E+03  0.27546970869E+03  0.21456602651E+04  0.22528810340E+04  0.00000000000E+00 0. -1.
<mgrwt>
<rscale>  0 0.16779431E+04</rscale>
<asrwt>0</asrwt>
<pdfrwt beam="1">  1        1 0.43220426E+00 0.16779431E+04</pdfrwt>
<pdfrwt beam="2">  1       -1 0.38545948E-01 0.16779431E+04</pdfrwt>
<totfact> 0.51150728E+00</totfact>
</mgrwt>
</event>
<event>
 6    1  0.1614874E-005  0.2627833E+04  0.7818608E-02  0.8358808E-01
         -1   -1    0    0    0  501 -0.00000000000E+00  0.00000000000E+00  0.80320881971E+03  0.80320881971E+03  0.00000000000E+00 0.  1.
          1   -1    0    0  501    0  0.00000000000E+00 -0.00000000000E+00 -0.21493494452E+04  0.21493494452E+04  0.00000000000E+00 0. -1.
         23    2    1    2    0    0  0.91505472701E+02 -0.13049563324E+04 -0.55539049683E+03  0.14239739371E+04  0.89212603431E+02 0.  0.
         13    1    3    3    0    0 -0.95874517881E+01 -0.39005214912E+03 -0.14645764048E+03  0.41675225100E+03  0.00000000000E+00 0.  1.
        -13    1    3    3    0    0  0.10109292449E+03 -0.91490418331E+03 -0.40893285635E+03  0.10072216861E+04  0.00000000000E+00 0. -1.
         22    1    1    2    0    0 -0.91505472701E+02  0.13049563324E+04 -0.79075012864E+03  0.15285843277E+04  0.00000000000E+00 0. -1.
<mgrwt>
<rscale>  0 0.26278329E+04</rscale>
<asrwt>0</asrwt>
<pdfrwt beam="1">  1        1 0.33066914E+00 0.26278329E+04</pdfrwt>
<pdfrwt beam="2">  1       -1 0.12357059E+00 0.26278329E+04</pdfrwt>
<totfact> 0.11931900E+00</totfact>
</mgrwt>
</event>
<event>
 6    1  0.1614874E-005  0.2966279E+04  0.7818608E-02  0.8253426E-01
          1   -1    0    0  501    0  0.00000000000E+00  0.00000000000E+00  0.73301787392E+03  0.73301787392E+03  0.00000000000E+00 0. -1.
         -1   -1    0    0    0  501 -0.00000000000E+00 -0.00000000000E+00 -0.30008846273E+04  0.30008846273E+04  0.00000000000E+00 0.  1.
         23    2    1    2    0    0  0.18135844490E+03  0.13989269954E+04 -0.56405230583E+03  0.15219189353E+04  0.90524128934E+02 0.  0.
         13    1    3    3    0    0  0.25482773114E+02  0.28570597148E+03 -0.78019454890E+02  0.29726134832E+03  0.00000000000E+00 0.  1.
        -13    1    3    3    0    0  0.15587567179E+03  0.11132210240E+04 -0.48603285094E+03  0.12246575870E+04  0.00000000000E+00 0. -1.
         22    1    1    2    0    0 -0.18135844490E+03 -0.13989269954E+04 -0.17038144475E+04  0.22119835659E+04  0.00000000000E+00 0.  1.
<mgrwt>
<rscale>  0 0.29662785E+04</rscale>
<asrwt>0</asrwt>
<pdfrwt beam="1">  1        1 0.11277198E+00 0.29662785E+04</pdfrwt>
<pdfrwt beam="2">  1       -1 0.46167455E+00 0.29662785E+04</pdfrwt>
<totfact> 0.58188081E-02</totfact>
</mgrwt>
</event>
<event>
 6    1  0.1614874E-005  0.1604923E+04  0.7818608E-02  0.8817529E-01
          2   -1    0    0  501    0  0.00000000000E+00  0.00000000000E+00  0.13423565707E+04  0.13423565707E+04  0.00000000000E+00 0. -1.
         -2   -1    0    0    0  501 -0.00000000000E+00 -0.00000000000E+00 -0.47971190516E+03  0.47971190516E+03  0.00000000000E+00 0.  1.
         23    2    1    2    0    0 -0.36072023938E+03  0.43505357287E+03 -0.21000632201E+03  0.60964493458E+03  0.90407901222E+02 0.  0.
         13    1    3    3    0    0 -0.67073696499E+02  0.34335788690E+02 -0.22419836863E+02  0.78616004935E+02  0.00000000000E+00 0.  1.
        -13    1    3    3    0    0 -0.29364654288E+03  0.40071778419E+03 -0.18758648514E+03  0.53102892964E+03  0.00000000000E+00 0. -1.
         22    1    1    2    0    0  0.36072023938E+03 -0.43505357287E+03  0.10726509876E+04  0.12124235413E+04  0.00000000000E+00 0. -1.
<mgrwt>
<rscale>  0 0.16049230E+04</rscale>
<asrwt>0</asrwt>
<pdfrwt beam="1">  1        2 0.20651639E+00 0.16049230E+04</pdfrwt>
<pdfrwt beam="2">  1       -2 0.73801832E-01 0.16049230E+04</pdfrwt>
<totfact> 0.24778136E+01</totfact>
</mgrwt>
</event>
<event>
 6    1  0.1614874E-005  0.1859113E+04  0.7818608E-02  0.8675480E-01
          2   -1    0    0  501    0  0.00000000000E+00  0.00000000000E+00  0.28937410509E+04  0.28937410509E+04  0.00000000000E+00 0. -1.
         -2   -1    0    0    0  501 -0.00000000000E+00 -0.00000000000E+00 -0.29860148138E+03  0.29860148138E+03  0.00000000000E+00 0.  1.
         23    2    1    2    0    0  0.11323672384E+03 -0.52102355363E+03 -0.20279319438E+01  0.54100944687E+03  0.91646113007E+02 0.  0.
         11    1    3    3    0    0  0.52198707814E+02 -0.35664533008E+03 -0.36567280622E+02  0.36229513187E+03  0.00000000000E+00 0.  1.
        -11    1    3    3    0    0  0.61038016028E+02 -0.16437822356E+03  0.34539348678E+02  0.17871431501E+03  0.00000000000E+00 0. -1.
         22    1    1    2    0    0 -0.11323672384E+03  0.52102355363E+03  0.25971675014E+04  0.26513330854E+04  0.00000000000E+00 0.  1.
<mgrwt>
<rscale>  0 0.18591131E+04</rscale>
<asrwt>0</asrwt>
<pdfrwt beam="1">  1        2 0.44519091E+00 0.18591131E+04</pdfrwt>
<pdfrwt beam="2">  1       -2 0.45938691E-01 0.18591131E+04</pdfrwt>
<totfact> 0.85808683E+00</totfact>
</mgrwt>
</event>
<event>
 6    1  0.2481250E-005  0.2778063E+04  0.7818608E-02  0.8310112E-01
         -1   -1    0    0    0  501 -0.00000000000E+00  0.00000000000E+00  0.96025506346E+03  0.96025506346E+03  0.00000000000E+00 0.  1.
          1   -1    0    0  501    0  0.00000000000E+00 -0.00000000000E+00 -0.20092661894E+04  0.20092661894E+04  0.00000000000E+00 0. -1.
         23    2    1    2    0    0 -0.90292823976E+02  0.58985077924E+03  0.81390063586E+03  0.10133727493E+04  0.91724304752E+02 0.  0.
         13    1    3    3    0    0 -0.81243530278E+02  0.38674452833E+03  0.59830365897E+03  0.71703494318E+03  0.00000000000E+00 0.  1.
        -13    1    3    3    0    0 -0.90492936974E+01  0.20310625091E+03  0.21559697689E+03  0.29633780609E+03  0.00000000000E+00 0. -1.
         22    1    1    2    0    0  0.90292823976E+02 -0.58985077924E+03 -0.18629117618E+04  0.19561485036E+04  0.00000000000E+00 0. -1.
<mgrwt>
<rscale>  0 0.27780627E+04</rscale>
<asrwt>0</asrwt>
<pdfrwt beam="1">  1        1 0.30911788E+00 0.27780627E+04</pdfrwt>
<pdfrwt beam="2">  1       -1 0.14773155E+00 0.27780627E+04</pdfrwt>
<totfact> 0.92593534E-01</totfact>
</mgrwt>
</event>
<event>
 6    1  0.1614874E-005  0.2463934E+04  0.7818608E-02  0.8415948E-01
          2   -1    0    0  501    0  0.00000000000E+00  0.00000000000E+00  0.66610175149E+03  0.66610175149E+03  0.00000000000E+00 0. -1.
         -2   -1    0    0    0  501 -0.00000000000E+00 -0.00000000000E+00 -0.22785447174E+04  0.22785447174E+04  0.00000000000E+00 0.  1.
         23    2    1    2    0    0 -0.43737586749E+03  0.52054221758E+03 -0.20333710824E+04  0.21449950893E+04  0.64374875604E+02 0.  0.
         13    1    3    3    0    0 -0.31095900712E+03  0.34800798822E+03 -0.13091133088E+04  0.13898139153E+04  0.00000000000E+00 0.  1.
        -13    1    3    3    0    0 -0.12641686037E+03  0.17253422937E+03 -0.72425777359E+03  0.75518117395E+03  0.00000000000E+00 0. -1.
         22    1    1    2    0    0  0.43737586749E+03 -0.52054221758E+03  0.42092811645E+03  0.79965137964E+03  0.00000000000E+00 0. -1.
<mgrwt>
<rscale>  0 0.24639339E+04</rscale>
<asrwt>0</asrwt>
<pdfrwt beam="1">  1        2 0.10247719E+00 0.24639339E+04</pdfrwt>
<pdfrwt beam="2">  1       -2 0.35054534E+00 0.24639339E+04</pdfrwt>
<totfact> 0.60255494E-01</totfact>
</mgrwt>
</event>
<event>
 6    1  0.1614874E-005  0.1243340E+04  0.7818608E-02  0.9075745E-01
         -1   -1    0    0    0  501 -0.00000000000E+00  0.00000000000E+00  0.88517604065E+03  0.88517604065E+03  0.00000000000E+00 0.  1.
          1   -1    0    0  501    0  0.00000000000E+00 -0.00000000000E+00 -0.43660640606E+03  0.43660640606E+03  0.00000000000E+00 0. -1.
         23    2    1    2    0    0 -0.63032510828E+02  0.16649065573E+03  0.85495639639E+03  0.87811315992E+03  0.91869723151E+02 0.  0.
         11    1    3    3    0    0 -0.61452177873E+02  0.43035452956E+02  0.38270372471E+03  0.38998789890E+03  0.00000000000E+00 0. -1.
        -11    1    3    3    0    0 -0.15803329550E+01  0.12345520278E+03  0.47225267167E+03  0.48812526102E+03  0.00000000000E+00 0.  1.
         22    1    1    2    0    0  0.63032510828E+02 -0.16649065573E+03 -0.40638676180E+03  0.44366928678E+03  0.00000000000E+00 0. -1.
<mgrwt>
<rscale>  0 0.12433399E+04</rscale>
<asrwt>0</asrwt>
<pdfrwt beam="1">  1        1 0.67170217E-01 0.12433399E+04</pdfrwt>
<pdfrwt beam="2">  1       -1 0.13618093E+00 0.12433399E+04</pdfrwt>
<totfact> 0.23711073E+01</totfact>
</mgrwt>
</event>
<event>
 6    1  0.1614874E-005  0.3613463E+04  0.7818608E-02  0.8087415E-01
          1   -1    0    0  501    0  0.00000000000E+00  0.00000000000E+00  0.23488184992E+04  0.23488184992E+04  0.00000000000E+00 0. -1.
         -1   -1    0    0    0  501 -0.00000000000E+00 -0.00000000000E+00 -0.13897531598E+04  0.13897531598E+04  0.00000000000E+00 0.  1.
         23    2    1    2    0    0  0.56953568024E+03  0.15014821956E+04 -0.37478147957E+03  0.16509972266E+04  0.80690830916E+02 0.  0.
         13    1    3    3    0    0  0.24594258830E+03  0.75974742144E+03 -0.17769223337E+03  0.81809438999E+03  0.00000000000E+00 0. -1.
        -13    1    3    3    0    0  0.32359309194E+03  0.74173477412E+03 -0.19708924620E+03  0.83290283662E+03  0.00000000000E+00 0.  1.
         22    1    1    2    0    0 -0.56953568024E+03 -0.15014821956E+04  0.13338468189E+04  0.20875744325E+04  0.00000000000E+00 0. -1.
<mgrwt>
<rscale>  0 0.36134626E+04</rscale>
<asrwt>0</asrwt>
<pdfrwt beam="1">  1        1 0.36135669E+00 0.36134626E+04</pdfrwt>
<pdfrwt beam="2">  1       -1 0.21380818E+00 0.36134626E+04</pdfrwt>
<totfact> 0.16867327E-01</totfact>
</mgrwt>
</event>
<event>
 6    1  0.1614874E-005  0.1372453E+04  0.7818608E-02  0.8974004E-01
          2   -1    0    0  501    0  0.00000000000E+00  0.00000000000E+00  0.65660282598E+03  0.65660282598E+03  0.00000000000E+00 0. -1.
         -2   -1    0    0    0  501 -0.00000000000E+00 -0.00000000000E+00 -0.71718636384E+03  0.71718636384E+03  0.00000000000E+00 0.  1.
         23    2    1    2    0    0  0.25453002749E+03 -0.24086682837E+03 -0.61765294905E+03  0.71566405523E+03  0.88755341144E+02 0.  0.
         11    1    3    3    0    0  0.16167942336E+03 -0.15109682699E+03 -0.30022716373E+03  0.37297028958E+03  0.00000000000E+00 0. -1.
        -11    1    3    3    0    0  0.92850604123E+02 -0.89770001377E+02 -0.31742578532E+03  0.34269376565E+03  0.00000000000E+00 0.  1.
         22    1    1    2    0    0 -0.25453002749E+03  0.24086682837E+03  0.55706941119E+03  0.65812513459E+03  0.00000000000E+00 0. -1.
<mgrwt>
<rscale>  0 0.13724527E+04</rscale>
<asrwt>0</asrwt>
<pdfrwt beam="1">  1        2 0.10101582E+00 0.13724527E+04</pdfrwt>
<pdfrwt beam="2">  1       -2 0.11033636E+00 0.13724527E+04</pdfrwt>
<totfact> 0.28241480E+01</totfact>
</mgrwt>
</event>
<event>
 6    1  0.1614874E-005  0.2159330E+04  0.7818608E-02  0.8535549E-01
          3   -1    0    0  501    0  0.00000000000E+00  0.00000000000E+00  0.11066165408E+04  0.11066165408E+04  0.00000000000E+00 0. -1.
         -3   -1    0    0    0  501 -0.00000000000E+00 -0.00000000000E+00 -0.10533699255E+04  0.10533699255E+04  0.00000000000E+00 0.  1.
         23    2    1    2    0    0  0.12417294230E+03  0.10655025768E+04 -0.77625594498E+02  0.10793189893E+04  0.90493573537E+02 0.  0.
         11    1    3    3    0    0  0.43645122082E+02  0.62208290794E+03 -0.79372955899E+02  0.62864306817E+03  0.00000000000E+00 0. -1.
        -11    1    3    3    0    0  0.80527820218E+02  0.44341966888E+03  0.17473614002E+01  0.45067592109E+03  0.00000000000E+00 0.  1.
         22    1    1    2    0    0 -0.12417294230E+03 -0.10655025768E+04  0.13087220980E+03  0.10806674771E+04  0.00000000000E+00 0. -1.
<mgrwt>
<rscale>  0 0.21593301E+04</rscale>
<asrwt>0</asrwt>
<pdfrwt beam="1">  1        3 0.17024870E+00 0.21593301E+04</pdfrwt>
<pdfrwt beam="2">  1       -3 0.16205691E+00 0.21593301E+04</pdfrwt>
<totfact> 0.14571163E-01</totfact>
</mgrwt>
</event>
<event>
 6    1  0.1614874E-005  0.1684140E+04  0.7818608E-02  0.8770462E-01
         -1   -1    0    0    0  501 -0.00000000000E+00  0.00000000000E+00  0.69410392651E+03  0.69410392651E+03  0.00000000000E+00 0.  1.
          1   -1    0    0  501    0  0.00000000000E+00 -0.00000000000E+00 -0.10215786689E+04  0.10215786689E+04  0.00000000000E+00 0. -1.
         23    2    1    2    0    0  0.35724390692E+03  0.39904259896E+03  0.49466864929E+03  0.73447009993E+03  0.88831583859E+02 0.  0.
         13    1    3    3    0    0  0.50423399752E+01  0.47217906310E+01  0.29367476481E+02  0.30169010160E+02  0.00000000000E+00 0. -1.
        -13    1    3    3    0    0  0.35220156694E+03  0.39432080833E+03  0.46530117281E+03  0.70430108977E+03  0.00000000000E+00 0.  1.
         22    1    1    2    0    0 -0.35724390692E+03 -0.39904259896E+03 -0.82214339172E+03  0.98121249552E+03  0.00000000000E+00 0. -1.
<mgrwt>
<rscale>  0 0.16841399E+04</rscale>
<asrwt>0</asrwt>
<pdfrwt beam="1">  1        1 0.15716595E+00 0.16841399E+04</pdfrwt>
<pdfrwt beam="2">  1       -1 0.10678522E+00 0.16841399E+04</pdfrwt>
<totfact> 0.11354264E+01</totfact>
</mgrwt>
</event>
<event>
 6    1  0.1614874E-005  0.1729737E+04  0.7818608E-02  0.8744584E-01
         -1   -1    0    0    0  501 -0.00000000000E+00  0.00000000000E+00  0.16182452456E+04  0.16182452456E+04  0.00000000000E+00 0.  1.
          1   -1    0    0  501    0  0.00000000000E+00 -0.00000000000E+00 -0.46222752960E+03  0.46222752960E+03  0.00000000000E+00 0. -1.
         23    2    1    2    0    0  0.64753251429E+03 -0.14530707651E+03 -0.82965052874E+02  0.67495123317E+03  0.90903595110E+02 0.  0.
         13    1    3    3    0    0  0.16051780114E+03 -0.12903448035E+02  0.11691100673E+02  0.16145942304E+03  0.00000000000E+00 0.  1.
        -13    1    3    3    0    0  0.48701471316E+03 -0.13240362848E+03 -0.94656153547E+02  0.51349181013E+03  0.00000000000E+00 0. -1.
         22    1    1    2    0    0 -0.64753251429E+03  0.14530707651E+03  0.12389827689E+04  0.14055215420E+04  0.00000000000E+00 0.  1.
<mgrwt>
<rscale>  0 0.17297370E+04</rscale>
<asrwt>0</asrwt>
<pdfrwt beam="1">  1        1 0.71111929E-01 0.17297370E+04</pdfrwt>
<pdfrwt beam="2">  1       -1 0.24896080E+00 0.17297370E+04</pdfrwt>
<totfact> 0.33194472E+00</totfact>
</mgrwt>
</event>
<event>
 6    1  0.1614874E-005  0.3061028E+04  0.7818608E-02  0.8226516E-01
          2   -1    0    0  501    0  0.00000000000E+00  0.00000000000E+00  0.28747012794E+04  0.28747012794E+04  0.00000000000E+00 0. -1.
         -2   -1    0    0    0  501 -0.00000000000E+00 -0.00000000000E+00 -0.81485786107E+03  0.81485786107E+03  0.00000000000E+00 0.  1.
         23    2    1    2    0    0 -0.66754678477E+03 -0.10424670867E+02 -0.62731073316E+03  0.92071013455E+03  0.91983761060E+02 0.  0.
         13    1    3    3    0    0 -0.57367317247E+03 -0.10585851171E+01 -0.49197970213E+03  0.75574205700E+03  0.00000000000E+00 0. -1.
        -13    1    3    3    0    0 -0.93873612301E+02 -0.93660857504E+01 -0.13533103104E+03  0.16496807755E+03  0.00000000000E+00 0.  1.
         22    1    1    2    0    0  0.66754678477E+03  0.10424670867E+02  0.26871541515E+04  0.27688490059E+04  0.00000000000E+00 0. -1.
<mgrwt>
<rscale>  0 0.30610279E+04</rscale>
<asrwt>0</asrwt>
<pdfrwt beam="1">  1        2 0.44226173E+00 0.30610279E+04</pdfrwt>
<pdfrwt beam="2">  1       -2 0.12536275E+00 0.30610279E+04</pdfrwt>
<totfact> 0.84377772E-01</totfact>
</mgrwt>
</event>
<event>
 6    1  0.1614874E-005  0.2382555E+04  0.7818608E-02  0.8446064E-01
         -1   -1    0    0    0  501 -0.00000000000E+00  0.00000000000E+00  0.67694632513E+03  0.67694632513E+03  0.00000000000E+00 0.  1.
          1   -1    0    0  501    0  0.00000000000E+00 -0.00000000000E+00 -0.20963887228E+04  0.20963887228E+04  0.00000000000E+00 0. -1.
         23    2    1    2    0    0  0.12741695662E+03  0.11810796528E+04 -0.77853779851E+03  0.14235413851E+04  0.95732671146E+02 0.  0.
         13    1    3    3    0    0  0.51241859210E+02  0.86488708043E+03 -0.57577075132E+03  0.10402727277E+04  0.00000000000E+00 0. -1.
        -13    1    3    3    0    0  0.76175097414E+02  0.31619257236E+03 -0.20276704719E+03  0.38326865735E+03  0.00000000000E+00 0.  1.
         22    1    1    2    0    0 -0.12741695662E+03 -0.11810796528E+04 -0.64090459919E+03  0.13497936629E+04  0.00000000000E+00 0.  1.
<mgrwt>
<rscale>  0 0.23825555E+04</rscale>
<asrwt>0</asrwt>
<pdfrwt beam="1">  1        1 0.32252134E+00 0.23825555E+04</pdfrwt>
<pdfrwt beam="2">  1       -1 0.10414559E+00 0.23825555E+04</pdfrwt>
<totfact> 0.19954358E+00</totfact>
</mgrwt>
</event>
<event>
 6    1  0.1614874E-005  0.1046703E+04  0.7818608E-02  0.9258754E-01
          1   -1    0    0  501    0  0.00000000000E+00  0.00000000000E+00  0.19002233559E+04  0.19002233559E+04  0.00000000000E+00 0.  1.
         -1   -1    0    0    0  501 -0.00000000000E+00 -0.00000000000E+00 -0.14413934674E+03  0.14413934674E+03  0.00000000000E+00 0. -1.
         23    2    1    2    0    0 -0.24710054127E+03  0.29947423670E+03  0.15584731220E+04  0.16087096771E+04  0.91459593272E+02 0.  0.
         13    1    3    3    0    0 -0.10085506260E+03  0.13173302002E+03  0.49057047126E+03  0.51786554190E+03  0.00000000000E+00 0. -1.
        -13    1    3    3    0    0 -0.14624547868E+03  0.16774121667E+03  0.10679026507E+04  0.10908441352E+04  0.00000000000E+00 0.  1.
         22    1    1    2    0    0  0.24710054127E+03 -0.29947423670E+03  0.19761088715E+03  0.43565302554E+03  0.00000000000E+00 0. -1.
<mgrwt>
<rscale>  0 0.10467033E+04</rscale>
<asrwt>0</asrwt>
<pdfrwt beam="1">  1        1 0.29234204E+00 0.10467033E+04</pdfrwt>
<pdfrwt beam="2">  1       -1 0.22175285E-01 0.10467033E+04</pdfrwt>
<totfact> 0.60014209E+01</totfact>
</mgrwt>
</event>
<event>
 6    1  0.1614874E-005  0.5854832E+03  0.7818608E-02  0.9935990E-01
         -2   -1    0    0    0  501 -0.00000000000E+00  0.00000000000E+00  0.78951457937E+02  0.78951457937E+02  0.00000000000E+00 0.  1.
          2   -1    0    0  501    0  0.00000000000E+00 -0.00000000000E+00 -0.10854471436E+04  0.10854471436E+04  0.00000000000E+00 0. -1.
         23    2    1    2    0    0  0.26941286553E+03 -0.96567464220E+02 -0.52319572747E+03  0.60271593592E+03  0.87316452698E+02 0.  0.
         13    1    3    3    0    0  0.19402802694E+03 -0.10649152239E+03 -0.35855511122E+03  0.42136574061E+03  0.00000000000E+00 0.  1.
        -13    1    3    3    0    0  0.75384838586E+02  0.99240581683E+01 -0.16464061625E+03  0.18135019531E+03  0.00000000000E+00 0. -1.
         22    1    1    2    0    0 -0.26941286553E+03  0.96567464220E+02 -0.48329995815E+03  0.56168266557E+03  0.00000000000E+00 0.  1.
<mgrwt>
<rscale>  0 0.58548317E+03</rscale>
<asrwt>0</asrwt>
<pdfrwt beam="1">  1        2 0.16699186E+00 0.58548317E+03</pdfrwt>
<pdfrwt beam="2">  1       -2 0.12146379E-01 0.58548317E+03</pdfrwt>
<totfact> 0.11201360E+03</totfact>
</mgrwt>
</event>
<event>
 6    1  0.1614874E-005  0.2994727E+04  0.7818608E-02  0.8245238E-01
          3   -1    0    0  501    0  0.00000000000E+00  0.00000000000E+00  0.17376013343E+04  0.17376013343E+04  0.00000000000E+00 0. -1.
         -3   -1    0    0    0  501 -0.00000000000E+00 -0.00000000000E+00 -0.12903407810E+04  0.12903407810E+04  0.00000000000E+00 0.  1.
         23    2    1    2    0    0  0.12842496863E+04 -0.68588109849E+03  0.57150926244E+03  0.15667207496E+04  0.90889670036E+02 0.  0.
         11    1    3    3    0    0  0.10947320793E+04 -0.56040565019E+03  0.50888362915E+03  0.13309603173E+04  0.00000000000E+00 0.  1.
        -11    1    3    3    0    0  0.18951760700E+03 -0.12547544829E+03  0.62625633287E+02  0.23576043229E+03  0.00000000000E+00 0. -1.
         22    1    1    2    0    0 -0.12842496863E+04  0.68588109849E+03 -0.12424870913E+03  0.14612213658E+04  0.00000000000E+00 0.  1.
<mgrwt>
<rscale>  0 0.29947273E+04</rscale>
<asrwt>0</asrwt>
<pdfrwt beam="1">  1        3 0.26732328E+00 0.29947273E+04</pdfrwt>
<pdfrwt beam="2">  1       -3 0.19851397E+00 0.29947273E+04</pdfrwt>
<totfact> 0.19564815E-02</totfact>
</mgrwt>
</event>
<event>
 6    1  0.1614874E-005  0.2127621E+04  0.7818608E-02  0.8549173E-01
          1   -1    0    0  501    0  0.00000000000E+00  0.00000000000E+00  0.24138148758E+04  0.24138148758E+04  0.00000000000E+00 0. -1.
         -1   -1    0    0    0  501 -0.00000000000E+00 -0.00000000000E+00 -0.46883974126E+03  0.46883974126E+03  0.00000000000E+00 0.  1.
         23    2    1    2    0    0  0.16026871829E+02 -0.78892015084E+03  0.11211116757E+02  0.79409168013E+03  0.88340490627E+02 0.  0.
         11    1    3    3    0    0 -0.16091199648E+02 -0.54247501478E+03  0.38451441037E+02  0.54407405900E+03  0.00000000000E+00 0.  1.
        -11    1    3    3    0    0  0.32118071478E+02 -0.24644513607E+03 -0.27240324280E+02  0.25001762113E+03  0.00000000000E+00 0. -1.
         22    1    1    2    0    0 -0.16026871829E+02  0.78892015084E+03  0.19337640178E+04  0.20885629369E+04  0.00000000000E+00 0. -1.
<mgrwt>
<rscale>  0 0.21276206E+04</rscale>
<asrwt>0</asrwt>
<pdfrwt beam="1">  1        1 0.37135613E+00 0.21276206E+04</pdfrwt>
<pdfrwt beam="2">  1       -1 0.72129193E-01 0.21276206E+04</pdfrwt>
<totfact> 0.27657535E+00</totfact>
</mgrwt>
</event>
<event>
 6    1  0.1614874E-005  0.4187962E+04  0.7818608E-02  0.7967666E-01
         -2   -1    0    0    0  501 -0.00000000000E+00  0.00000000000E+00  0.15775881868E+04  0.15775881868E+04  0.00000000000E+00 0.  1.
          2   -1    0    0  501    0  0.00000000000E+00 -0.00000000000E+00 -0.27794054498E+04  0.27794054498E+04  0.00000000000E+00 0. -1.
         23    2    1    2    0    0 -0.25487125003E+03 -0.13063557515E+03 -0.27581462183E+04  0.27745320021E+04  0.92909965668E+02 0.  0.
         13    1    3    3    0    0 -0.17742562961E+03 -0.11919906138E+03 -0.16792175132E+04  0.16927668850E+04  0.00000000000E+00 0.  1.
        -13    1    3    3    0    0 -0.77445620415E+02 -0.11436513770E+02 -0.10789287051E+04  0.10817651172E+04  0.00000000000E+00 0. -1.
         22    1    1    2    0    0  0.25487125003E+03  0.13063557515E+03  0.15563289552E+04  0.15824616344E+04  0.00000000000E+00 0.  1.
<mgrwt>
<rscale>  0 0.41879624E+04</rscale>
<asrwt>0</asrwt>
<pdfrwt beam="1">  1        2 0.42760084E+00 0.41879624E+04</pdfrwt>
<pdfrwt beam="2">  1       -2 0.24270587E+00 0.41879624E+04</pdfrwt>
<totfact> 0.13175916E-01</totfact>
</mgrwt>
</event>
<event>
 6    1  0.1614874E-005  0.8052786E+03  0.7818608E-02  0.9552408E-01
          2   -1    0    0  501    0  0.00000000000E+00  0.00000000000E+00  0.19334346699E+04  0.19334346699E+04  0.00000000000E+00 0. -1.
         -2   -1    0    0    0  501 -0.00000000000E+00 -0.00000000000E+00 -0.83849948034E+02  0.83849948034E+02  0.00000000000E+00 0.  1.
         23    2    1    2    0    0  0.24572811461E+03  0.27309562457E+03  0.54462119843E+03  0.66159537480E+03  0.78311325504E+02 0.  0.
         11    1    3    3    0    0  0.14295182526E+03  0.12607203113E+03  0.22323640387E+03  0.29353683481E+03  0.00000000000E+00 0.  1.
        -11    1    3    3    0    0  0.10277628935E+03  0.14702359344E+03  0.32138479457E+03  0.36805853999E+03  0.00000000000E+00 0. -1.
         22    1    1    2    0    0 -0.24572811461E+03 -0.27309562457E+03  0.13049635235E+04  0.13556892432E+04  0.00000000000E+00 0. -1.
<mgrwt>
<rscale>  0 0.80527858E+03</rscale>
<asrwt>0</asrwt>
<pdfrwt beam="1">  1        2 0.29745145E+00 0.80527858E+03</pdfrwt>
<pdfrwt beam="2">  1       -2 0.12899993E-01 0.80527858E+03</pdfrwt>
<totfact> 0.33424068E+02</totfact>
</mgrwt>
</event>
<event>
 6    1  0.1614874E-005  0.1654635E+04  0.7818608E-02  0.8787669E-01
          2   -1    0    0  501    0  0.00000000000E+00  0.00000000000E+00  0.17124299588E+04  0.17124299588E+04  0.00000000000E+00 0.  1.
         -2   -1    0    0    0  501 -0.00000000000E+00 -0.00000000000E+00 -0.39969761412E+03  0.39969761412E+03  0.00000000000E+00 0. -1.
         23    2    1    2    0    0  0.77700434222E+03  0.24266961329E+03  0.48859350542E+03  0.95375409454E+03  0.91098684230E+02 0.  0.
         13    1    3    3    0    0  0.41447235505E+03  0.17507688018E+03  0.25390025336E+03  0.51662809227E+03  0.00000000000E+00 0.  1.
        -13    1    3    3    0    0  0.36253198717E+03  0.67592733110E+02  0.23469325206E+03  0.43712600226E+03  0.00000000000E+00 0. -1.
         22    1    1    2    0    0 -0.77700434222E+03 -0.24266961329E+03  0.82413883924E+03  0.11583734784E+04  0.00000000000E+00 0.  1.
<mgrwt>
<rscale>  0 0.16546349E+04</rscale>
<asrwt>0</asrwt>
<pdfrwt beam="1">  1        2 0.26345076E+00 0.16546349E+04</pdfrwt>
<pdfrwt beam="2">  1       -2 0.61491941E-01 0.16546349E+04</pdfrwt>
<totfact> 0.22655792E+01</totfact>
</mgrwt>
</event>
<event>
 6    1  0.1614874E-005  0.1955433E+04  0.7818608E-02  0.8627745E-01
          1   -1    0    0  501    0  0.00000000000E+00  0.00000000000E+00  0.43784694690E+03  0.43784694690E+03  0.00000000000E+00 0. -1.
         -1   -1    0    0    0  501 -0.00000000000E+00 -0.00000000000E+00 -0.21832512315E+04  0.21832512315E+04  0.00000000000E+00 0.  1.
         23    2    1    2    0    0 -0.34744661519E+03 -0.23574753882E+03  0.30598647114E+03  0.52717838881E+03  0.89405148890E+02 0.  0.
         13    1    3    3    0    0 -0.17208431917E+03 -0.12489346430E+03  0.20906179814E+03  0.29819159239E+03  0.00000000000E+00 0. -1.
        -13    1    3    3    0    0 -0.17536229601E+03 -0.11085407453E+03  0.96924672998E+02  0.22898679643E+03  0.00000000000E+00 0.  1.
         22    1    1    2    0    0  0.34744661519E+03  0.23574753882E+03 -0.20513907558E+04  0.20939197896E+04  0.00000000000E+00 0.  1.
<mgrwt>
<rscale>  0 0.19554333E+04</rscale>
<asrwt>0</asrwt>
<pdfrwt beam="1">  1        1 0.67361068E-01 0.19554333E+04</pdfrwt>
<pdfrwt beam="2">  1       -1 0.33588481E+00 0.19554333E+04</pdfrwt>
<totfact> 0.95438847E-01</totfact>
</mgrwt>
</event>
<event>
 6    1  0.1614874E-005  0.1808309E+04  0.7818608E-02  0.8701893E-01
         -1   -1    0    0    0  501 -0.00000000000E+00  0.00000000000E+00  0.81098276509E+03  0.81098276509E+03  0.00000000000E+00 0.  1.
          1   -1    0    0  501    0  0.00000000000E+00 -0.00000000000E+00 -0.10080305653E+04  0.10080305653E+04  0.00000000000E+00 0. -1.
         23    2    1    2    0    0 -0.12747542283E+03 -0.54677807196E+02 -0.99537626181E+03  0.10087245062E+04  0.86669376688E+02 0.  0.
         13    1    3    3    0    0 -0.85157823459E+02 -0.41139041494E+02 -0.88035144470E+03  0.88541681813E+03  0.00000000000E+00 0. -1.
        -13    1    3    3    0    0 -0.42317599370E+02 -0.13538765701E+02 -0.11502481711E+03  0.12330768810E+03  0.00000000000E+00 0.  1.
         22    1    1    2    0    0  0.12747542283E+03  0.54677807196E+02  0.79832846158E+03  0.81028882418E+03  0.00000000000E+00 0.  1.
<mgrwt>
<rscale>  0 0.18083091E+04</rscale>
<asrwt>0</asrwt>
<pdfrwt beam="1">  1        1 0.15508163E+00 0.18083091E+04</pdfrwt>
<pdfrwt beam="2">  1       -1 0.12476658E+00 0.18083091E+04</pdfrwt>
<totfact> 0.79080421E+00</totfact>
</mgrwt>
</event>
<event>
 6    1  0.1614874E-005  0.6650468E+04  0.7818608E-02  0.7614598E-01
          2   -1    0    0  501    0  0.00000000000E+00  0.00000000000E+00  0.33244653759E+04  0.33244653759E+04  0.00000000000E+00 0. -1.
         -2   -1    0    0    0  501 -0.00000000000E+00 -0.00000000000E+00 -0.33260032142E+04  0.33260032142E+04  0.00000000000E+00 0.  1.
         23    2    1    2    0    0 -0.17589449826E+04  0.20956932801E+04 -0.18894916286E+04  0.33262863914E+04  0.90469701033E+02 0.  0.
         13    1    3    3    0    0 -0.86827193158E+03  0.10066195664E+04 -0.86755418459E+03  0.15873970398E+04  0.00000000000E+00 0.  1.
        -13    1    3    3    0    0 -0.89067305098E+03  0.10890737137E+04 -0.10219374440E+04  0.17388893516E+04  0.00000000000E+00 0. -1.
         22    1    1    2    0    0  0.17589449826E+04 -0.20956932801E+04  0.18879537904E+04  0.33241821987E+04  0.00000000000E+00 0. -1.
<mgrwt>
<rscale>  0 0.66504684E+04</rscale>
<asrwt>0</asrwt>
<pdfrwt beam="1">  1        2 0.51145621E+00 0.66504684E+04</pdfrwt>
<pdfrwt beam="2">  1       -2 0.51169280E+00 0.66504684E+04</pdfrwt>
<totfact> 0.97524740E-04</totfact>
</mgrwt>
</event>
<event>
 6    1  0.1614874E-005  0.1062982E+04  0.7818608E-02  0.9242043E-01
          2   -1    0    0  501    0  0.00000000000E+00  0.00000000000E+00  0.20538820218E+04  0.20538820218E+04  0.00000000000E+00 0. -1.
         -2   -1    0    0    0  501 -0.00000000000E+00 -0.00000000000E+00 -0.13753596669E+03  0.13753596669E+03  0.00000000000E+00 0.  1.
         23    2    1    2    0    0 -0.36162085796E+03  0.26565447152E+03  0.15366817307E+04  0.16036366156E+04  0.94433628402E+02 0.  0.
         13    1    3    3    0    0 -0.11264417709E+03  0.10726459622E+03  0.39731867657E+03  0.42668083503E+03  0.00000000000E+00 0.  1.
        -13    1    3    3    0    0 -0.24897668087E+03  0.15838987530E+03  0.11393630541E+04  0.11769557805E+04  0.00000000000E+00 0. -1.
         22    1    1    2    0    0  0.36162085796E+03 -0.26565447152E+03  0.37966432445E+03  0.58778137297E+03  0.00000000000E+00 0. -1.
<mgrwt>
<rscale>  0 0.10629819E+04</rscale>
<asrwt>0</asrwt>
<pdfrwt beam="1">  1        2 0.31598183E+00 0.10629819E+04</pdfrwt>
<pdfrwt beam="2">  1       -2 0.21159381E-01 0.10629819E+04</pdfrwt>
<totfact> 0.12043126E+02</totfact>
</mgrwt>
</event>
<event>
 6    1  0.1614874E-005  0.5184232E+04  0.7818608E-02  0.7800699E-01
          2   -1    0    0  501    0  0.00000000000E+00  0.00000000000E+00  0.34590727562E+04  0.34590727562E+04  0.00000000000E+00 0. -1.
         -2   -1    0    0    0  501 -0.00000000000E+00 -0.00000000000E+00 -0.19424469909E+04  0.19424469909E+04  0.00000000000E+00 0.  1.
         23    2    1    2    0    0 -0.19939648531E+04 -0.34157011869E+03 -0.92874309911E+03  0.22278160961E+04  0.89637227597E+02 0.  0.
         11    1    3    3    0    0 -0.88809902301E+03 -0.12604185078E+03 -0.45173059164E+03  0.10043241261E+04  0.00000000000E+00 0.  1.
        -11    1    3    3    0    0 -0.11058658301E+04 -0.21552826791E+03 -0.47701250747E+03  0.12234919701E+04  0.00000000000E+00 0. -1.
         22    1    1    2    0    0  0.19939648531E+04  0.34157011869E+03  0.24453688643E+04  0.31737036510E+04  0.00000000000E+00 0. -1.
<mgrwt>
<rscale>  0 0.51842320E+04</rscale>
<asrwt>0</asrwt>
<pdfrwt beam="1">  1        2 0.53216504E+00 0.51842320E+04</pdfrwt>
<pdfrwt beam="2">  1       -2 0.29883800E+00 0.51842320E+04</pdfrwt>
<totfact> 0.20087775E-02</totfact>
</mgrwt>
</event>
<event>
 6    1  0.1614874E-005  0.1036912E+04  0.7818608E-02  0.9268962E-01
          2   -1    0    0  501    0  0.00000000000E+00  0.00000000000E+00  0.39166333875E+03  0.39166333875E+03  0.00000000000E+00 0. -1.
         -2   -1    0    0    0  501 -0.00000000000E+00 -0.00000000000E+00 -0.68629526337E+03  0.68629526337E+03  0.00000000000E+00 0.  1.
         23    2    1    2    0    0  0.15231799637E+03 -0.20916207091E+00 -0.65914999067E+03  0.68289628267E+03  0.93101057529E+02 0.  0.
         11    1    3    3    0    0  0.64624825477E+02 -0.28350468266E+02 -0.15373156429E+03  0.16915528658E+03  0.00000000000E+00 0.  1.
        -11    1    3    3    0    0  0.87693170891E+02  0.28141306195E+02 -0.50541842638E+03  0.51374099609E+03  0.00000000000E+00 0. -1.
         22    1    1    2    0    0 -0.15231799637E+03  0.20916207091E+00  0.36451806605E+03  0.39506231945E+03  0.00000000000E+00 0. -1.
<mgrwt>
<rscale>  0 0.10369121E+04</rscale>
<asrwt>0</asrwt>
<pdfrwt beam="1">  1        2 0.60255899E-01 0.10369121E+04</pdfrwt>
<pdfrwt beam="2">  1       -2 0.10558388E+00 0.10369121E+04</pdfrwt>
<totfact> 0.58861571E+01</totfact>
</mgrwt>
</event>
<event>
 6    1  0.1614874E-005  0.2796188E+04  0.7818608E-02  0.8304453E-01
          3   -1    0    0  501    0  0.00000000000E+00  0.00000000000E+00  0.15164363467E+04  0.15164363467E+04  0.00000000000E+00 0. -1.
         -3   -1    0    0    0  501 -0.00000000000E+00 -0.00000000000E+00 -0.12889868686E+04  0.12889868686E+04  0.00000000000E+00 0.  1.
         23    2    1    2    0    0 -0.59061310129E+03 -0.11863836587E+04 -0.32887055681E+03  0.13681264463E+04  0.85346990095E+02 0.  0.
         11    1    3    3    0    0 -0.28593960006E+03 -0.47986029873E+03 -0.13745873973E+03  0.57525843437E+03  0.00000000000E+00 0.  1.
        -11    1    3    3    0    0 -0.30467350123E+03 -0.70652336001E+03 -0.19141181708E+03  0.79286801191E+03  0.00000000000E+00 0. -1.
         22    1    1    2    0    0  0.59061310129E+03  0.11863836587E+04  0.55632003483E+03  0.14372967690E+04  0.00000000000E+00 0. -1.
<mgrwt>
<rscale>  0 0.27961878E+04</rscale>
<asrwt>0</asrwt>
<pdfrwt beam="1">  1        3 0.23329790E+00 0.27961878E+04</pdfrwt>
<pdfrwt beam="2">  1       -3 0.19830567E+00 0.27961878E+04</pdfrwt>
<totfact> 0.31368126E-02</totfact>
</mgrwt>
</event>
<event>
 6    1  0.1614874E-005  0.1634093E+04  0.7818608E-02  0.8799873E-01
          2   -1    0    0  501    0  0.00000000000E+00  0.00000000000E+00  0.23511807318E+04  0.23511807318E+04  0.00000000000E+00 0. -1.
         -2   -1    0    0    0  501 -0.00000000000E+00 -0.00000000000E+00 -0.28392749024E+03  0.28392749024E+03  0.00000000000E+00 0.  1.
         23    2    1    2    0    0  0.17130319839E+02 -0.25737149963E+03  0.22827082116E+04  0.22990213570E+04  0.90602891731E+02 0.  0.
         13    1    3    3    0    0 -0.34657325552E+02 -0.12665045184E+03  0.12220480363E+04  0.12290821251E+04  0.00000000000E+00 0. -1.
        -13    1    3    3    0    0  0.51787645391E+02 -0.13072104779E+03  0.10606601753E+04  0.10699392319E+04  0.00000000000E+00 0.  1.
         22    1    1    2    0    0 -0.17130319839E+02  0.25737149963E+03 -0.21545497009E+03  0.33608686498E+03  0.00000000000E+00 0.  1.
<mgrwt>
<rscale>  0 0.16340928E+04</rscale>
<asrwt>0</asrwt>
<pdfrwt beam="1">  1        2 0.36172010E+00 0.16340928E+04</pdfrwt>
<pdfrwt beam="2">  1       -2 0.43681154E-01 0.16340928E+04</pdfrwt>
<totfact> 0.20176880E+01</totfact>
</mgrwt>
</event>
<event>
 6    1  0.1614874E-005  0.2154320E+04  0.7818608E-02  0.8537685E-01
          2   -1    0    0  501    0  0.00000000000E+00  0.00000000000E+00  0.11618128369E+04  0.11618128369E+04  0.00000000000E+00 0. -1.
         -2   -1    0    0    0  501 -0.00000000000E+00 -0.00000000000E+00 -0.99867553136E+03  0.99867553136E+03  0.00000000000E+00 0.  1.
         23    2    1    2    0    0  0.46061659211E+03 -0.70227874436E+03 -0.59160545760E+03  0.10313295140E+04  0.90997083634E+02 0.  0.
         13    1    3    3    0    0  0.33989014363E+03 -0.47195506865E+03 -0.44893586899E+03  0.73471784450E+03  0.00000000000E+00 0. -1.
        -13    1    3    3    0    0  0.12072644847E+03 -0.23032367571E+03 -0.14266958861E+03  0.29661166948E+03  0.00000000000E+00 0.  1.
         22    1    1    2    0    0 -0.46061659211E+03  0.70227874436E+03  0.75474276316E+03  0.11291588543E+04  0.00000000000E+00 0. -1.
<mgrwt>
<rscale>  0 0.21543204E+04</rscale>
<asrwt>0</asrwt>
<pdfrwt beam="1">  1        2 0.17874044E+00 0.21543204E+04</pdfrwt>
<pdfrwt beam="2">  1       -2 0.15364239E+00 0.21543204E+04</pdfrwt>
<totfact> 0.51499843E+00</totfact>
</mgrwt>
</event>
<event>
 6    1  0.1614874E-005  0.1164099E+04  0.7818608E-02  0.9144875E-01
          2   -1    0    0  501    0  0.00000000000E+00  0.00000000000E+00  0.17543489778E+04  0.17543489778E+04  0.00000000000E+00 0.  1.
         -2   -1    0    0    0  501 -0.00000000000E+00 -0.00000000000E+00 -0.19310945944E+03  0.19310945944E+03  0.00000000000E+00 0. -1.
         23    2    1    2    0    0 -0.13307027390E+03 -0.14984009529E+03  0.16931283971E+04  0.17075533970E+04  0.94313745271E+02 0.  0.
         13    1    3    3    0    0  0.99039135205E+01 -0.32343632033E+02  0.18003880693E+03  0.18318889169E+03  0.00000000000E+00 0. -1.
        -13    1    3    3    0    0 -0.14297418742E+03 -0.11749646325E+03  0.15130895902E+04  0.15243645053E+04  0.00000000000E+00 0.  1.
         22    1    1    2    0    0  0.13307027390E+03  0.14984009529E+03 -0.13188887881E+03  0.23990504018E+03  0.00000000000E+00 0. -1.
<mgrwt>
<rscale>  0 0.11640986E+04</rscale>
<asrwt>0</asrwt>
<pdfrwt beam="1">  1        2 0.26989983E+00 0.11640986E+04</pdfrwt>
<pdfrwt beam="2">  1       -2 0.29709149E-01 0.11640986E+04</pdfrwt>
<totfact> 0.94483952E+01</totfact>
</mgrwt>
</event>
<event>
 6    1  0.1614874E-005  0.2055446E+04  0.7818608E-02  0.8581128E-01
         -2   -1    0    0    0  501 -0.00000000000E+00  0.00000000000E+00  0.45147156044E+03  0.45147156044E+03  0.00000000000E+00 0.  1.
          2   -1    0    0  501    0  0.00000000000E+00 -0.00000000000E+00 -0.23394937321E+04  0.23394937321E+04  0.00000000000E+00 0. -1.
         23    2    1    2    0    0 -0.87457418714E+03 -0.50600844035E+03 -0.70704824549E+03  0.12367375213E+04  0.93155379270E+02 0.  0.
         11    1    3    3    0    0 -0.93847371284E+02 -0.23234559047E+02 -0.62933104805E+02  0.11535921945E+03  0.00000000000E+00 0. -1.
        -11    1    3    3    0    0 -0.78072681586E+03 -0.48277388130E+03 -0.64411514068E+03  0.11213783019E+04  0.00000000000E+00 0.  1.
         22    1    1    2    0    0  0.87457418714E+03  0.50600844035E+03 -0.11809739261E+04  0.15542277712E+04  0.00000000000E+00 0. -1.
<mgrwt>
<rscale>  0 0.20554463E+04</rscale>
<asrwt>0</asrwt>
<pdfrwt beam="1">  1        2 0.35992212E+00 0.20554463E+04</pdfrwt>
<pdfrwt beam="2">  1       -2 0.69457161E-01 0.20554463E+04</pdfrwt>
<totfact> 0.75296572E+00</totfact>
</mgrwt>
</event>
<event>
 6    1  0.1614874E-005  0.3495064E+04  0.7818608E-02  0.8114961E-01
         -2   -1    0    0    0  501 -0.00000000000E+00  0.00000000000E+00  0.10713185251E+04  0.10713185251E+04  0.00000000000E+00 0.  1.
          2   -1    0    0  501    0  0.00000000000E+00 -0.00000000000E+00 -0.28505693012E+04  0.28505693012E+04  0.00000000000E+00 0. -1.
         23    2    1    2    0    0 -0.74098435034E+03  0.14605031316E+04 -0.20982087089E+03  0.16535762445E+04  0.90345966509E+02 0.  0.
         11    1    3    3    0    0 -0.87154454498E+02  0.22901907691E+03 -0.12149302872E+02  0.24534311095E+03  0.00000000000E+00 0. -1.
        -11    1    3    3    0    0 -0.65382989584E+03  0.12314840547E+04 -0.19767156802E+03  0.14082331336E+04  0.00000000000E+00 0.  1.
         22    1    1    2    0    0  0.74098435034E+03 -0.14605031316E+04 -0.15694299051E+04  0.22683115818E+04  0.00000000000E+00 0.  1.
<mgrwt>
<rscale>  0 0.34950638E+04</rscale>
<asrwt>0</asrwt>
<pdfrwt beam="1">  1        2 0.43854912E+00 0.34950638E+04</pdfrwt>
<pdfrwt beam="2">  1       -2 0.16481824E+00 0.34950638E+04</pdfrwt>
<totfact> 0.41105023E-01</totfact>
</mgrwt>
</event>
<event>
 6    1  0.1614874E-005  0.3545795E+04  0.7818608E-02  0.8103022E-01
         -2   -1    0    0    0  501 -0.00000000000E+00  0.00000000000E+00  0.12649540541E+04  0.12649540541E+04  0.00000000000E+00 0.  1.
          2   -1    0    0  501    0  0.00000000000E+00 -0.00000000000E+00 -0.24848054133E+04  0.24848054133E+04  0.00000000000E+00 0. -1.
         23    2    1    2    0    0  0.27141021227E+03 -0.15139227566E+04 -0.15402885674E+04  0.21786752493E+04  0.92257004255E+02 0.  0.
         13    1    3    3    0    0  0.13684387074E+03 -0.99855696702E+03 -0.98756694997E+03  0.14110743219E+04  0.00000000000E+00 0.  1.
        -13    1    3    3    0    0  0.13456634153E+03 -0.51536578955E+03 -0.55272161740E+03  0.76760092734E+03  0.00000000000E+00 0. -1.
         22    1    1    2    0    0 -0.27141021227E+03  0.15139227566E+04  0.32043720815E+03  0.15710842182E+04  0.00000000000E+00 0.  1.
<mgrwt>
<rscale>  0 0.35457945E+04</rscale>
<asrwt>0</asrwt>
<pdfrwt beam="1">  1        2 0.38227775E+00 0.35457945E+04</pdfrwt>
<pdfrwt beam="2">  1       -2 0.19460832E+00 0.35457945E+04</pdfrwt>
<totfact> 0.41985128E-01</totfact>
</mgrwt>
</event>
<event>
 6    1  0.1614874E-005  0.1856307E+04  0.7818608E-02  0.8676916E-01
         -1   -1    0    0    0  501 -0.00000000000E+00  0.00000000000E+00  0.71082061553E+03  0.71082061553E+03  0.00000000000E+00 0.  1.
          1   -1    0    0  501    0  0.00000000000E+00 -0.00000000000E+00 -0.12119352496E+04  0.12119352496E+04  0.00000000000E+00 0. -1.
         23    2    1    2    0    0  0.58764495895E+03  0.75633860100E+02  0.48588849288E+03  0.77157288611E+03  0.90498687770E+02 0.  0.
         13    1    3    3    0    0  0.18065571564E+03 -0.17799762094E+02  0.13692434383E+03  0.22737984752E+03  0.00000000000E+00 0.  1.
        -13    1    3    3    0    0  0.40698924332E+03  0.93433622194E+02  0.34896414905E+03  0.54419303859E+03  0.00000000000E+00 0. -1.
         22    1    1    2    0    0 -0.58764495895E+03 -0.75633860100E+02 -0.98700312693E+03  0.11511829790E+04  0.00000000000E+00 0. -1.
<mgrwt>
<rscale>  0 0.18563066E+04</rscale>
<asrwt>0</asrwt>
<pdfrwt beam="1">  1        1 0.18645158E+00 0.18563066E+04</pdfrwt>
<pdfrwt beam="2">  1       -1 0.10935702E+00 0.18563066E+04</pdfrwt>
<totfact> 0.76116116E+00</totfact>
</mgrwt>
</event>
<event>
 6    1  0.1614874E-005  0.2151341E+04  0.7818608E-02  0.8538958E-01
         -2   -1    0    0    0  501 -0.00000000000E+00  0.00000000000E+00  0.54703768343E+03  0.54703768343E+03  0.00000000000E+00 0.  1.
          2   -1    0    0  501    0  0.00000000000E+00 -0.00000000000E+00 -0.21151505985E+04  0.21151505985E+04  0.00000000000E+00 0. -1.
         23    2    1    2    0    0  0.64466676347E+03  0.75183434612E+03 -0.27234740594E+03  0.10312810575E+04  0.92289707777E+02 0.  0.
         13    1    3    3    0    0  0.41415531769E+03  0.54477164686E+03 -0.17243877832E+03  0.70571659089E+03  0.00000000000E+00 0. -1.
        -13    1    3    3    0    0  0.23051144579E+03  0.20706269926E+03 -0.99908627616E+02  0.32556446663E+03  0.00000000000E+00 0.  1.
         22    1    1    2    0    0 -0.64466676347E+03 -0.75183434612E+03 -0.12957655091E+04  0.16309072244E+04  0.00000000000E+00 0. -1.
<mgrwt>
<rscale>  0 0.21513411E+04</rscale>
<asrwt>0</asrwt>
<pdfrwt beam="1">  1        2 0.32540778E+00 0.21513411E+04</pdfrwt>
<pdfrwt beam="2">  1       -2 0.84159643E-01 0.21513411E+04</pdfrwt>
<totfact> 0.65166928E+00</totfact>
</mgrwt>
</event>
<event>
 6    1  0.1614874E-005  0.2248696E+04  0.7818608E-02  0.8498429E-01
         -1   -1    0    0    0  501 -0.00000000000E+00  0.00000000000E+00  0.18154654832E+04  0.18154654832E+04  0.00000000000E+00 0.  1.
          1   -1    0    0  501    0  0.00000000000E+00 -0.00000000000E+00 -0.69632772957E+03  0.69632772957E+03  0.00000000000E+00 0. -1.
         23    2    1    2    0    0 -0.56586342401E+03 -0.96356611338E+03  0.44076117611E+03  0.12045610794E+04  0.89643238407E+02 0.  0.
         11    1    3    3    0    0 -0.50435660734E+03 -0.86774260492E+03  0.42364718009E+03  0.10894171602E+04  0.00000000000E+00 0. -1.
        -11    1    3    3    0    0 -0.61506816665E+02 -0.95823508464E+02  0.17113996018E+02  0.11514391921E+03  0.00000000000E+00 0.  1.
         22    1    1    2    0    0  0.56586342401E+03  0.96356611338E+03  0.67837657748E+03  0.13072321333E+04  0.00000000000E+00 0.  1.
<mgrwt>
<rscale>  0 0.22486965E+04</rscale>
<asrwt>0</asrwt>
<pdfrwt beam="1">  1        1 0.10712734E+00 0.22486965E+04</pdfrwt>
<pdfrwt beam="2">  1       -1 0.27930238E+00 0.22486965E+04</pdfrwt>
<totfact> 0.11214442E+00</totfact>
</mgrwt>
</event>
<event>
 6    1  0.1614874E-005  0.5062939E+04  0.7818608E-02  0.7818871E-01
          1   -1    0    0  501    0  0.00000000000E+00  0.00000000000E+00  0.26441253399E+04  0.26441253399E+04  0.00000000000E+00 0. -1.
         -1   -1    0    0    0  501 -0.00000000000E+00 -0.00000000000E+00 -0.24236138537E+04  0.24236138537E+04  0.00000000000E+00 0.  1.
         23    2    1    2    0    0 -0.12932177038E+04 -0.65787387809E+03  0.21856530781E+04  0.26249965659E+04  0.91200461886E+02 0.  0.
         13    1    3    3    0    0 -0.10066687426E+04 -0.48538098061E+03  0.16263818413E+04  0.19733460283E+04  0.00000000000E+00 0. -1.
        -13    1    3    3    0    0 -0.28654896122E+03 -0.17249289748E+03  0.55927123682E+03  0.65165053763E+03  0.00000000000E+00 0.  1.
         22    1    1    2    0    0  0.12932177038E+04  0.65787387809E+03 -0.19651415919E+04  0.24427426277E+04  0.00000000000E+00 0. -1.
<mgrwt>
<rscale>  0 0.50629394E+04</rscale>
<asrwt>0</asrwt>
<pdfrwt beam="1">  1        1 0.40678851E+00 0.50629394E+04</pdfrwt>
<pdfrwt beam="2">  1       -1 0.37286367E+00 0.50629394E+04</pdfrwt>
<totfact> 0.84393489E-03</totfact>
</mgrwt>
</event>
<event>
 6    1  0.1614874E-005  0.1345966E+04  0.7818608E-02  0.8993887E-01
          1   -1    0    0  501    0  0.00000000000E+00  0.00000000000E+00  0.55808237418E+03  0.55808237418E+03  0.00000000000E+00 0. -1.
         -1   -1    0    0    0  501 -0.00000000000E+00 -0.00000000000E+00 -0.81153982056E+03  0.81153982056E+03  0.00000000000E+00 0.  1.
         23    2    1    2    0    0  0.22920599993E+03  0.63806520695E+02  0.50994103280E+03  0.57000734964E+03  0.90894770093E+02 0.  0.
         11    1    3    3    0    0  0.20656848939E+03  0.55907876233E+02  0.36509959343E+03  0.42319492501E+03  0.00000000000E+00 0. -1.
        -11    1    3    3    0    0  0.22637510538E+02  0.78986444618E+01  0.14484143937E+03  0.14681242463E+03  0.00000000000E+00 0.  1.
         22    1    1    2    0    0 -0.22920599993E+03 -0.63806520695E+02 -0.76339847917E+03  0.79961484509E+03  0.00000000000E+00 0.  1.
<mgrwt>
<rscale>  0 0.13459659E+04</rscale>
<asrwt>0</asrwt>
<pdfrwt beam="1">  1        1 0.85858827E-01 0.13459659E+04</pdfrwt>
<pdfrwt beam="2">  1       -1 0.12485228E+00 0.13459659E+04</pdfrwt>
<totfact> 0.20888691E+01</totfact>
</mgrwt>
</event>
<event>
 6    1  0.1614874E-005  0.2621470E+04  0.7818608E-02  0.8360945E-01
          1   -1    0    0  501    0  0.00000000000E+00  0.00000000000E+00  0.12812444857E+04  0.12812444857E+04  0.00000000000E+00 0. -1.
         -1   -1    0    0    0  501 -0.00000000000E+00 -0.00000000000E+00 -0.13409045195E+04  0.13409045195E+04  0.00000000000E+00 0.  1.
         23    2    1    2    0    0  0.72426553399E+03  0.39572762992E+03  0.98698502552E+03  0.12892473580E+04  0.82815389890E+02 0.  0.
         13    1    3    3    0    0  0.43614776514E+03  0.27683253602E+03  0.58166630503E+03  0.77794396742E+03  0.00000000000E+00 0.  1.
        -13    1    3    3    0    0  0.28811776885E+03  0.11889509390E+03  0.40531872049E+03  0.51130339062E+03  0.00000000000E+00 0. -1.
         22    1    1    2    0    0 -0.72426553399E+03 -0.39572762992E+03 -0.10466450593E+04  0.13329016471E+04  0.00000000000E+00 0.  1.
<mgrwt>
<rscale>  0 0.26214702E+04</rscale>
<asrwt>0</asrwt>
<pdfrwt beam="1">  1        1 0.19711454E+00 0.26214702E+04</pdfrwt>
<pdfrwt beam="2">  1       -1 0.20629300E+00 0.26214702E+04</pdfrwt>
<totfact> 0.11175894E+00</totfact>
</mgrwt>
</event>
<event>
 6    1  0.1614874E-005  0.1393156E+04  0.7818608E-02  0.8958787E-01
         -1   -1    0    0    0  501 -0.00000000000E+00  0.00000000000E+00  0.20136109778E+03  0.20136109778E+03  0.00000000000E+00 0.  1.
          1   -1    0    0  501    0  0.00000000000E+00 -0.00000000000E+00 -0.24097060855E+04  0.24097060855E+04  0.00000000000E+00 0. -1.
         23    2    1    2    0    0  0.29052266647E+03  0.34110204946E+03 -0.11675436887E+03  0.47202409238E+03  0.91766732842E+02 0.  0.
         11    1    3    3    0    0  0.22222040926E+03  0.25772553985E+03 -0.46732300598E+02  0.34349420971E+03  0.00000000000E+00 0. -1.
        -11    1    3    3    0    0  0.68302257215E+02  0.83376509604E+02 -0.70022068269E+02  0.12852988267E+03  0.00000000000E+00 0.  1.
         22    1    1    2    0    0 -0.29052266647E+03 -0.34110204946E+03 -0.20915906189E+04  0.21390430909E+04  0.00000000000E+00 0. -1.
<mgrwt>
<rscale>  0 0.13931562E+04</rscale>
<asrwt>0</asrwt>
<pdfrwt beam="1">  1        1 0.37072399E+00 0.13931562E+04</pdfrwt>
<pdfrwt beam="2">  1       -1 0.30978633E-01 0.13931562E+04</pdfrwt>
<totfact> 0.14760814E+01</totfact>
</mgrwt>
</event>
<event>
 6    1  0.1614874E-005  0.1058256E+04  0.7818608E-02  0.9246861E-01
         -2   -1    0    0    0  501 -0.00000000000E+00  0.00000000000E+00  0.23439731869E+03  0.23439731869E+03  0.00000000000E+00 0.  1.
          2   -1    0    0  501    0  0.00000000000E+00 -0.00000000000E+00 -0.11944533890E+04  0.11944533890E+04  0.00000000000E+00 0. -1.
         23    2    1    2    0    0 -0.39805394107E+03  0.10835888813E+03 -0.40326231356E+02  0.42083703453E+03  0.72725621722E+02 0.  0.
         11    1    3    3    0    0 -0.21584082180E+03  0.21445859206E+02 -0.25854366430E+02  0.21843908418E+03  0.00000000000E+00 0. -1.
        -11    1    3    3    0    0 -0.18221311927E+03  0.86913028927E+02 -0.14471864926E+02  0.20239795035E+03  0.00000000000E+00 0.  1.
         22    1    1    2    0    0  0.39805394107E+03 -0.10835888813E+03 -0.91972983899E+03  0.10080136732E+04  0.00000000000E+00 0. -1.
<mgrwt>
<rscale>  0 0.10582564E+04</rscale>
<asrwt>0</asrwt>
<pdfrwt beam="1">  1        2 0.18376206E+00 0.10582564E+04</pdfrwt>
<pdfrwt beam="2">  1       -2 0.36061127E-01 0.10582564E+04</pdfrwt>
<totfact> 0.13726272E+02</totfact>
</mgrwt>
</event>
<event>
 6    1  0.1614874E-005  0.1458180E+04  0.7818608E-02  0.8912749E-01
         -1   -1    0    0    0  501 -0.00000000000E+00  0.00000000000E+00  0.10419530694E+04  0.10419530694E+04  0.00000000000E+00 0.  1.
          1   -1    0    0  501    0  0.00000000000E+00 -0.00000000000E+00 -0.51016898842E+03  0.51016898842E+03  0.00000000000E+00 0. -1.
         23    2    1    2    0    0 -0.13158482929E+03 -0.65118183947E+03 -0.44932580658E+02  0.67237524017E+03  0.93365793702E+02 0.  0.
         13    1    3    3    0    0  0.76398585555E+01 -0.14847978882E+03  0.15376448855E+01  0.14868416015E+03  0.00000000000E+00 0. -1.
        -13    1    3    3    0    0 -0.13922468784E+03 -0.50270205066E+03 -0.46470225543E+02  0.52369108003E+03  0.00000000000E+00 0.  1.
         22    1    1    2    0    0  0.13158482929E+03  0.65118183947E+03  0.57671666163E+03  0.87974681765E+03  0.00000000000E+00 0.  1.
<mgrwt>
<rscale>  0 0.14581799E+04</rscale>
<asrwt>0</asrwt>
<pdfrwt beam="1">  1        1 0.78487537E-01 0.14581799E+04</pdfrwt>
<pdfrwt beam="2">  1       -1 0.16030047E+00 0.14581799E+04</pdfrwt>
<totfact> 0.12161637E+01</totfact>
</mgrwt>
</event>
<event>
 6    1  0.1614874E-005  0.8476582E+03  0.7818608E-02  0.9493485E-01
         -2   -1    0    0    0  501 -0.00000000000E+00  0.00000000000E+00  0.11585157801E+03  0.11585157801E+03  0.00000000000E+00 0.  1.
          2   -1    0    0  501    0  0.00000000000E+00 -0.00000000000E+00 -0.15505279522E+04  0.15505279522E+04  0.00000000000E+00 0. -1.
         23    2    1    2    0    0  0.10728537156E+03  0.31422549238E+03 -0.22344638478E+03  0.41046317224E+03  0.91125835416E+02 0.  0.
         11    1    3    3    0    0  0.11395797607E+03  0.20314976471E+03 -0.15598793680E+03  0.28033637587E+03  0.00000000000E+00 0. -1.
        -11    1    3    3    0    0 -0.66726045063E+01  0.11107572767E+03 -0.67458447985E+02  0.13012679636E+03  0.00000000000E+00 0.  1.
         22    1    1    2    0    0 -0.10728537156E+03 -0.31422549238E+03 -0.12112299894E+04  0.12559163580E+04  0.00000000000E+00 0. -1.
<mgrwt>
<rscale>  0 0.84765821E+03</rscale>
<asrwt>0</asrwt>
<pdfrwt beam="1">  1        2 0.23854276E+00 0.84765821E+03</pdfrwt>
<pdfrwt beam="2">  1       -2 0.17823320E-01 0.84765821E+03</pdfrwt>
<totfact> 0.31250499E+02</totfact>
</mgrwt>
</event>
<event>
 6    1  0.1614874E-005  0.8658775E+03  0.7818608E-02  0.9469271E-01
         -1   -1    0    0    0  501 -0.00000000000E+00  0.00000000000E+00  0.20041442252E+03  0.20041442252E+03  0.00000000000E+00 0.  1.
          1   -1    0    0  501    0  0.00000000000E+00 -0.00000000000E+00 -0.93524183755E+03  0.93524183755E+03  0.00000000000E+00 0. -1.
         23    2    1    2    0    0 -0.78093185847E+02  0.21843924988E+03 -0.84327968680E+03  0.87957786033E+03  0.93393418688E+02 0.  0.
         11    1    3    3    0    0  0.13434013616E+02  0.87178777418E+02 -0.25037518963E+03  0.26545874922E+03  0.00000000000E+00 0. -1.
        -11    1    3    3    0    0 -0.91527199462E+02  0.13126047246E+03 -0.59290449716E+03  0.61411911111E+03  0.00000000000E+00 0.  1.
         22    1    1    2    0    0  0.78093185847E+02 -0.21843924988E+03  0.10845227177E+03  0.25607839974E+03  0.00000000000E+00 0.  1.
<mgrwt>
<rscale>  0 0.86587748E+03</rscale>
<asrwt>0</asrwt>
<pdfrwt beam="1">  1        1 0.14388336E+00 0.86587748E+03</pdfrwt>
<pdfrwt beam="2">  1       -1 0.30832988E-01 0.86587748E+03</pdfrwt>
<totfact> 0.16687810E+02</totfact>
</mgrwt>
</event>
<event>
 6    1  0.1614874E-005  0.1461114E+04  0.7818608E-02  0.8910731E-01
         -2   -1    0    0    0  501 -0.00000000000E+00  0.00000000000E+00  0.11773723323E+04  0.11773723323E+04  0.00000000000E+00 0. -1.
          2   -1    0    0  501    0  0.00000000000E+00 -0.00000000000E+00 -0.45330917672E+03  0.45330917672E+03  0.00000000000E+00 0.  1.
         23    2    1    2    0    0  0.47366096462E+03  0.53831136770E+03  0.50095854455E+03  0.87974242664E+03  0.94092698310E+02 0.  0.
         11    1    3    3    0    0  0.25941451791E+03  0.27176553555E+03  0.20798815313E+03  0.42943156644E+03  0.00000000000E+00 0. -1.
        -11    1    3    3    0    0  0.21424644672E+03  0.26654583215E+03  0.29297039142E+03  0.45031086020E+03  0.00000000000E+00 0.  1.
         22    1    1    2    0    0 -0.47366096462E+03 -0.53831136770E+03  0.22310461106E+03  0.75093908240E+03  0.00000000000E+00 0. -1.
<mgrwt>
<rscale>  0 0.14611142E+04</rscale>
<asrwt>0</asrwt>
<pdfrwt beam="1">  1        2 0.69739874E-01 0.14611142E+04</pdfrwt>
<pdfrwt beam="2">  1       -2 0.18113420E+00 0.14611142E+04</pdfrwt>
<totfact> 0.11887594E+01</totfact>
</mgrwt>
</event>
<event>
 6    1  0.1614874E-005  0.1525828E+04  0.7818608E-02  0.8867457E-01
         -2   -1    0    0    0  501 -0.00000000000E+00  0.00000000000E+00  0.52742214523E+03  0.52742214523E+03  0.00000000000E+00 0.  1.
          2   -1    0    0  501    0  0.00000000000E+00 -0.00000000000E+00 -0.11035526901E+04  0.11035526901E+04  0.00000000000E+00 0. -1.
         23    2    1    2    0    0 -0.31398822497E+03  0.69214731539E+03 -0.29362097449E+03  0.82013072642E+03  0.93512673596E+02 0.  0.
         11    1    3    3    0    0 -0.21001040999E+03  0.35007242994E+03 -0.15811728939E+03  0.43778551337E+03  0.00000000000E+00 0. -1.
        -11    1    3    3    0    0 -0.10397781498E+03  0.34207488545E+03 -0.13550368510E+03  0.38234521305E+03  0.00000000000E+00 0.  1.
         22    1    1    2    0    0  0.31398822497E+03 -0.69214731539E+03 -0.28250957040E+03  0.81084410894E+03  0.00000000000E+00 0.  1.
<mgrwt>
<rscale>  0 0.15258285E+04</rscale>
<asrwt>0</asrwt>
<pdfrwt beam="1">  1        2 0.16977734E+00 0.15258285E+04</pdfrwt>
<pdfrwt beam="2">  1       -2 0.81141869E-01 0.15258285E+04</pdfrwt>
<totfact> 0.27990814E+01</totfact>
</mgrwt>
</event>
<event>
 6    1  0.1721232E-005  0.1540592E+04  0.7818608E-02  0.8857900E-01
         -2   -1    0    0    0  501 -0.00000000000E+00  0.00000000000E+00  0.51158315412E+03  0.51158315412E+03  0.00000000000E+00 0.  1.
          2   -1    0    0  501    0  0.00000000000E+00 -0.00000000000E+00 -0.11598418798E+04  0.11598418798E+04  0.00000000000E+00 0. -1.
         23    2    1    2    0    0  0.15639550195E+03  0.12410787205E+03  0.47749728848E+03  0.52810140504E+03  0.10500055502E+03 0.  0.
         11    1    3    3    0    0  0.91684207932E+02  0.72385571675E+01  0.19091586300E+03  0.21191332529E+03  0.00000000000E+00 0. -1.
        -11    1    3    3    0    0  0.64711294021E+02  0.11686931489E+03  0.28658142549E+03  0.31618807974E+03  0.00000000000E+00 0.  1.
         22    1    1    2    0    0 -0.15639550195E+03 -0.12410787205E+03 -0.11257560142E+04  0.11433236289E+04  0.00000000000E+00 0. -1.
<mgrwt>
<rscale>  0 0.15405915E+04</rscale>
<asrwt>0</asrwt>
<pdfrwt beam="1">  1        2 0.17843721E+00 0.15405915E+04</pdfrwt>
<pdfrwt beam="2">  1       -2 0.78705101E-01 0.15405915E+04</pdfrwt>
<totfact> 0.27663770E+01</totfact>
</mgrwt>
</event>
<event>
 6    1  0.1614874E-005  0.2103410E+04  0.7818608E-02  0.8559743E-01
          1   -1    0    0  501    0  0.00000000000E+00  0.00000000000E+00  0.12353959009E+04  0.12353959009E+04  0.00000000000E+00 0. -1.
         -1   -1    0    0    0  501 -0.00000000000E+00 -0.00000000000E+00 -0.89532677274E+03  0.89532677274E+03  0.00000000000E+00 0.  1.
         23    2    1    2    0    0 -0.92043921337E+03  0.30617221766E+03 -0.23632861462E+03  0.10023680617E+04  0.89110856228E+02 0.  0.
         13    1    3    3    0    0 -0.53020306564E+03  0.14283795917E+03 -0.10188224415E+03  0.55847825836E+03  0.00000000000E+00 0. -1.
        -13    1    3    3    0    0 -0.39023614773E+03  0.16333425849E+03 -0.13444637048E+03  0.44388980336E+03  0.00000000000E+00 0.  1.
         22    1    1    2    0    0  0.92043921337E+03 -0.30617221766E+03  0.57639774279E+03  0.11283546119E+04  0.00000000000E+00 0. -1.
<mgrwt>
<rscale>  0 0.21034096E+04</rscale>
<asrwt>0</asrwt>
<pdfrwt beam="1">  1        1 0.19006091E+00 0.21034096E+04</pdfrwt>
<pdfrwt beam="2">  1       -1 0.13774258E+00 0.21034096E+04</pdfrwt>
<totfact> 0.40489925E+00</totfact>
</mgrwt>
</event>
<event>
 6    1  0.1614874E-005  0.3295504E+04  0.7818608E-02  0.8164040E-01
          2   -1    0    0  501    0  0.00000000000E+00  0.00000000000E+00  0.31423432232E+04  0.31423432232E+04  0.00000000000E+00 0. -1.
         -2   -1    0    0    0  501 -0.00000000000E+00 -0.00000000000E+00 -0.86403246451E+03  0.86403246451E+03  0.00000000000E+00 0.  1.
         23    2    1    2    0    0 -0.10624500341E+04  0.11454534430E+04  0.50848443194E+03  0.16456239236E+04  0.93048456575E+02 0.  0.
         13    1    3    3    0    0 -0.30554308742E+03  0.30061638145E+03  0.17826449233E+03  0.46422517843E+03  0.00000000000E+00 0.  1.
        -13    1    3    3    0    0 -0.75690694667E+03  0.84483706156E+03  0.33021993962E+03  0.11813987451E+04  0.00000000000E+00 0. -1.
         22    1    1    2    0    0  0.10624500341E+04 -0.11454534430E+04  0.17698263267E+04  0.23607517641E+04  0.00000000000E+00 0. -1.
<mgrwt>
<rscale>  0 0.32955039E+04</rscale>
<asrwt>0</asrwt>
<pdfrwt beam="1">  1        2 0.48343741E+00 0.32955039E+04</pdfrwt>
<pdfrwt beam="2">  1       -2 0.13292807E+00 0.32955039E+04</pdfrwt>
<totfact> 0.48423174E-01</totfact>
</mgrwt>
</event>
<event>
 6    1  0.1614874E-005  0.5026461E+04  0.7818608E-02  0.7824438E-01
         -1   -1    0    0    0  501 -0.00000000000E+00  0.00000000000E+00  0.13364290352E+04  0.13364290352E+04  0.00000000000E+00 0.  1.
          1   -1    0    0  501    0  0.00000000000E+00 -0.00000000000E+00 -0.47262727725E+04  0.47262727725E+04  0.00000000000E+00 0. -1.
         23    2    1    2    0    0  0.17560692296E+04  0.11496060970E+04 -0.29869209453E+02  0.21010352209E+04  0.89908355721E+02 0.  0.
         11    1    3    3    0    0  0.10045890586E+04  0.66664336240E+03  0.26664490438E+02  0.12059533757E+04  0.00000000000E+00 0. -1.
        -11    1    3    3    0    0  0.75148017098E+03  0.48296273455E+03 -0.56533699891E+02  0.89508184517E+03  0.00000000000E+00 0.  1.
         22    1    1    2    0    0 -0.17560692296E+04 -0.11496060970E+04 -0.33599745278E+04  0.39616665868E+04  0.00000000000E+00 0.  1.
<mgrwt>
<rscale>  0 0.50264612E+04</rscale>
<asrwt>0</asrwt>
<pdfrwt beam="1">  1        1 0.72711888E+00 0.50264612E+04</pdfrwt>
<pdfrwt beam="2">  1       -1 0.20560447E+00 0.50264612E+04</pdfrwt>
<totfact> 0.18077270E-03</totfact>
</mgrwt>
</event>
<event>
 6    1  0.1614874E-005  0.2800433E+04  0.7818608E-02  0.8303134E-01
          2   -1    0    0  501    0  0.00000000000E+00  0.00000000000E+00  0.30831685862E+04  0.30831685862E+04  0.00000000000E+00 0. -1.
         -2   -1    0    0    0  501 -0.00000000000E+00 -0.00000000000E+00 -0.63590612061E+03  0.63590612061E+03  0.00000000000E+00 0.  1.
         23    2    1    2    0    0  0.22655615798E+03 -0.11947394801E+04  0.21429117058E+04  0.24655359149E+04  0.89814534172E+02 0.  0.
         11    1    3    3    0    0  0.22871689486E+02 -0.52703967562E+02  0.75186419001E+02  0.94624626704E+02  0.00000000000E+00 0.  1.
        -11    1    3    3    0    0  0.20368446849E+03 -0.11420355125E+04  0.20677252868E+04  0.23709112882E+04  0.00000000000E+00 0. -1.
         22    1    1    2    0    0 -0.22655615798E+03  0.11947394801E+04  0.30435075975E+03  0.12535387919E+04  0.00000000000E+00 0.  1.
<mgrwt>
<rscale>  0 0.28004327E+04</rscale>
<asrwt>0</asrwt>
<pdfrwt beam="1">  1        2 0.47433362E+00 0.28004327E+04</pdfrwt>
<pdfrwt beam="2">  1       -2 0.97831712E-01 0.28004327E+04</pdfrwt>
<totfact> 0.11671436E+00</totfact>
</mgrwt>
</event>
<event>
 6    1  0.1614874E-005  0.2879646E+04  0.7818608E-02  0.8278959E-01
         -2   -1    0    0    0  501 -0.00000000000E+00  0.00000000000E+00  0.64714220434E+03  0.64714220434E+03  0.00000000000E+00 0.  1.
          2   -1    0    0  501    0  0.00000000000E+00 -0.00000000000E+00 -0.32034550655E+04  0.32034550655E+04  0.00000000000E+00 0. -1.
         23    2    1    2    0    0 -0.13448542149E+04 -0.47539078279E+03 -0.15272273472E+04  0.20917208528E+04  0.90793723312E+02 0.  0.
         11    1    3    3    0    0 -0.10665326447E+04 -0.37200785455E+03 -0.11540246610E+04  0.16148234096E+04  0.00000000000E+00 0. -1.
        -11    1    3    3    0    0 -0.27832157010E+03 -0.10338292825E+03 -0.37320268626E+03  0.47689744314E+03  0.00000000000E+00 0.  1.
         22    1    1    2    0    0  0.13448542149E+04  0.47539078279E+03 -0.10290855139E+04  0.17588764171E+04  0.00000000000E+00 0. -1.
<mgrwt>
<rscale>  0 0.28796465E+04</rscale>
<asrwt>0</asrwt>
<pdfrwt beam="1">  1        2 0.49283924E+00 0.28796465E+04</pdfrwt>
<pdfrwt beam="2">  1       -2 0.99560339E-01 0.28796465E+04</pdfrwt>
<totfact> 0.93038390E-01</totfact>
</mgrwt>
</event>
<event>
 6    1  0.1614874E-005  0.3879385E+04  0.7818608E-02  0.8029330E-01
         -2   -1    0    0    0  501 -0.00000000000E+00  0.00000000000E+00  0.11234554961E+04  0.11234554961E+04  0.00000000000E+00 0.  1.
          2   -1    0    0  501    0  0.00000000000E+00 -0.00000000000E+00 -0.33489594598E+04  0.33489594598E+04  0.00000000000E+00 0. -1.
         23    2    1    2    0    0  0.96763881792E+03 -0.12373398159E+04 -0.24232441272E+04  0.28892422317E+04  0.90960824245E+02 0.  0.
         13    1    3    3    0    0  0.26310305847E+03 -0.39475142680E+03 -0.69232982096E+03  0.83926902083E+03  0.00000000000E+00 0. -1.
        -13    1    3    3    0    0  0.70453575945E+03 -0.84258838915E+03 -0.17309143062E+04  0.20499732109E+04  0.00000000000E+00 0.  1.
         22    1    1    2    0    0 -0.96763881792E+03  0.12373398159E+04  0.19774016348E+03  0.15831727241E+04  0.00000000000E+00 0.  1.
<mgrwt>
<rscale>  0 0.38793850E+04</rscale>
<asrwt>0</asrwt>
<pdfrwt beam="1">  1        2 0.51522453E+00 0.38793850E+04</pdfrwt>
<pdfrwt beam="2">  1       -2 0.17283931E+00 0.38793850E+04</pdfrwt>
<totfact> 0.16716042E-01</totfact>
</mgrwt>
</event>
<event>
 6    1  0.1614874E-005  0.1404307E+04  0.7818608E-02  0.8950706E-01
          2   -1    0    0  501    0  0.00000000000E+00  0.00000000000E+00  0.15229265794E+04  0.15229265794E+04  0.00000000000E+00 0. -1.
         -2   -1    0    0    0  501 -0.00000000000E+00 -0.00000000000E+00 -0.32373185761E+03  0.32373185761E+03  0.00000000000E+00 0.  1.
         23    2    1    2    0    0 -0.23679350629E+02 -0.56185679425E+03  0.11485157093E+04  0.12820239259E+04  0.90847361395E+02 0.  0.
         11    1    3    3    0    0  0.10121487822E+01 -0.13158819098E+03  0.36189949878E+03  0.38508145069E+03  0.00000000000E+00 0.  1.
        -11    1    3    3    0    0 -0.24691499411E+02 -0.43026860327E+03  0.78661621056E+03  0.89694247520E+03  0.00000000000E+00 0. -1.
         22    1    1    2    0    0  0.23679350629E+02  0.56185679425E+03  0.50679012500E+02  0.56463451117E+03  0.00000000000E+00 0.  1.
<mgrwt>
<rscale>  0 0.14043074E+04</rscale>
<asrwt>0</asrwt>
<pdfrwt beam="1">  1        2 0.23429639E+00 0.14043074E+04</pdfrwt>
<pdfrwt beam="2">  1       -2 0.49804902E-01 0.14043074E+04</pdfrwt>
<totfact> 0.45720917E+01</totfact>
</mgrwt>
</event>
<event>
 6    1  0.1614874E-005  0.2884219E+04  0.7818608E-02  0.8277588E-01
         -2   -1    0    0    0  501 -0.00000000000E+00  0.00000000000E+00  0.83173538139E+03  0.83173538139E+03  0.00000000000E+00 0.  1.
          2   -1    0    0  501    0  0.00000000000E+00 -0.00000000000E+00 -0.25004102140E+04  0.25004102140E+04  0.00000000000E+00 0. -1.
         23    2    1    2    0    0  0.96528757150E+03 -0.10502351932E+04 -0.60227787111E+03  0.15511412338E+04  0.92338704491E+02 0.  0.
         11    1    3    3    0    0  0.50139698887E+03 -0.59066028408E+03 -0.28944034746E+03  0.82707570776E+03  0.00000000000E+00 0.  1.
        -11    1    3    3    0    0  0.46389058263E+03 -0.45957490911E+03 -0.31283752365E+03  0.72406552599E+03  0.00000000000E+00 0. -1.
         22    1    1    2    0    0 -0.96528757150E+03  0.10502351932E+04 -0.10663969615E+04  0.17810043617E+04  0.00000000000E+00 0. -1.
<mgrwt>
<rscale>  0 0.28842189E+04</rscale>
<asrwt>0</asrwt>
<pdfrwt beam="1">  1        2 0.38467849E+00 0.28842189E+04</pdfrwt>
<pdfrwt beam="2">  1       -2 0.12795929E+00 0.28842189E+04</pdfrwt>
<totfact> 0.13588244E+00</totfact>
</mgrwt>
</event>
<event>
 6    1  0.1614874E-005  0.2236919E+04  0.7818608E-02  0.8503217E-01
          2   -1    0    0  501    0  0.00000000000E+00  0.00000000000E+00  0.51333876779E+04  0.51333876779E+04  0.00000000000E+00 0. -1.
         -2   -1    0    0    0  501 -0.00000000000E+00 -0.00000000000E+00 -0.24368921404E+03  0.24368921404E+03  0.00000000000E+00 0.  1.
         23    2    1    2    0    0  0.13488160890E+03 -0.92609140675E+03  0.98386184423E+03  0.13606857206E+04  0.87425165925E+02 0.  0.
         11    1    3    3    0    0  0.97801884721E+02 -0.75073985272E+03  0.84026978441E+03  0.11310299933E+04  0.00000000000E+00 0. -1.
        -11    1    3    3    0    0  0.37079724174E+02 -0.17535155402E+03  0.14359205982E+03  0.22965572731E+03  0.00000000000E+00 0.  1.
         22    1    1    2    0    0 -0.13488160890E+03  0.92609140675E+03  0.39058366196E+04  0.40163911713E+04  0.00000000000E+00 0. -1.
<mgrwt>
<rscale>  0 0.22369186E+04</rscale>
<asrwt>0</asrwt>
<pdfrwt beam="1">  1        2 0.78975187E+00 0.22369186E+04</pdfrwt>
<pdfrwt beam="2">  1       -2 0.37490652E-01 0.22369186E+04</pdfrwt>
<totfact> 0.14267162E-01</totfact>
</mgrwt>
</event>
<event>
 6    1  0.1614874E-005  0.1793218E+04  0.7818608E-02  0.8709914E-01
         -2   -1    0    0    0  501 -0.00000000000E+00  0.00000000000E+00  0.11698767383E+04  0.11698767383E+04  0.00000000000E+00 0.  1.
          2   -1    0    0  501    0  0.00000000000E+00 -0.00000000000E+00 -0.68717303429E+03  0.68717303429E+03  0.00000000000E+00 0. -1.
         23    2    1    2    0    0  0.59170837846E+03 -0.66529943614E+03  0.32919000953E+03  0.95355179292E+03  0.90292937346E+02 0.  0.
         13    1    3    3    0    0  0.32134029826E+03 -0.32987103169E+03  0.21264780808E+03  0.50724114099E+03  0.00000000000E+00 0.  1.
        -13    1    3    3    0    0  0.27036808020E+03 -0.33542840445E+03  0.11654220145E+03  0.44631065193E+03  0.00000000000E+00 0. -1.
         22    1    1    2    0    0 -0.59170837846E+03  0.66529943614E+03  0.15351369448E+03  0.90349797967E+03  0.00000000000E+00 0. -1.
<mgrwt>
<rscale>  0 0.17932181E+04</rscale>
<asrwt>0</asrwt>
<pdfrwt beam="1">  1        2 0.10571893E+00 0.17932181E+04</pdfrwt>
<pdfrwt beam="2">  1       -2 0.17998104E+00 0.17932181E+04</pdfrwt>
<totfact> 0.71807016E+00</totfact>
</mgrwt>
</event>
<event>
 6    1  0.1614874E-005  0.7648104E+03  0.7818608E-02  0.9612397E-01
          1   -1    0    0  501    0  0.00000000000E+00  0.00000000000E+00  0.71116341858E+03  0.71116341858E+03  0.00000000000E+00 0. -1.
         -1   -1    0    0    0  501 -0.00000000000E+00 -0.00000000000E+00 -0.20562607993E+03  0.20562607993E+03  0.00000000000E+00 0.  1.
         23    2    1    2    0    0  0.11077329379E+03 -0.35175883073E+03  0.16449474622E+03  0.41447978583E+03  0.93434328313E+02 0.  0.
         11    1    3    3    0    0  0.89621017713E+02 -0.13328654747E+03  0.60984599985E+02  0.17180323626E+03  0.00000000000E+00 0.  1.
        -11    1    3    3    0    0  0.21152276078E+02 -0.21847228326E+03  0.10351014624E+03  0.24267654957E+03  0.00000000000E+00 0. -1.
         22    1    1    2    0    0 -0.11077329379E+03  0.35175883073E+03  0.34104259243E+03  0.50230971269E+03  0.00000000000E+00 0.  1.
<mgrwt>
<rscale>  0 0.76481042E+03</rscale>
<asrwt>0</asrwt>
<pdfrwt beam="1">  1        1 0.10940976E+00 0.76481042E+03</pdfrwt>
<pdfrwt beam="2">  1       -1 0.31634782E-01 0.76481042E+03</pdfrwt>
<totfact> 0.24974239E+02</totfact>
</mgrwt>
</event>
<event>
 6    1  0.1614874E-005  0.2603104E+04  0.7818608E-02  0.8367147E-01
          2   -1    0    0  501    0  0.00000000000E+00  0.00000000000E+00  0.33362799494E+04  0.33362799494E+04  0.00000000000E+00 0. -1.
         -2   -1    0    0    0  501 -0.00000000000E+00 -0.00000000000E+00 -0.50776261853E+03  0.50776261853E+03  0.00000000000E+00 0.  1.
         23    2    1    2    0    0 -0.43624098542E+02  0.10932571710E+04  0.24531117211E+04  0.26873041896E+04  0.82051127780E+02 0.  0.
         11    1    3    3    0    0 -0.38055944145E+02  0.20433515935E+03  0.43661230910E+03  0.48356118609E+03  0.00000000000E+00 0.  1.
        -11    1    3    3    0    0 -0.55681543973E+01  0.88892201166E+03  0.20164994120E+04  0.22037430036E+04  0.00000000000E+00 0. -1.
         22    1    1    2    0    0  0.43624098542E+02 -0.10932571710E+04  0.37540560978E+03  0.11567383783E+04  0.00000000000E+00 0.  1.
<mgrwt>
<rscale>  0 0.26031045E+04</rscale>
<asrwt>0</asrwt>
<pdfrwt beam="1">  1        2 0.51327382E+00 0.26031045E+04</pdfrwt>
<pdfrwt beam="2">  1       -2 0.78117328E-01 0.26031045E+04</pdfrwt>
<totfact> 0.13586129E+00</totfact>
</mgrwt>
</event>
<event>
 6    1  0.1614874E-005  0.3408783E+04  0.7818608E-02  0.8135754E-01
         -2   -1    0    0    0  501 -0.00000000000E+00  0.00000000000E+00  0.91061940461E+03  0.91061940461E+03  0.00000000000E+00 0.  1.
          2   -1    0    0  501    0  0.00000000000E+00 -0.00000000000E+00 -0.31900809959E+04  0.31900809959E+04  0.00000000000E+00 0. -1.
         23    2    1    2    0    0 -0.13665363789E+04 -0.56943603822E+03 -0.21535492812E+04  0.26149235039E+04  0.91495071193E+02 0.  0.
         11    1    3    3    0    0 -0.51128698167E+03 -0.25879124910E+03 -0.80721123353E+03  0.98993801006E+03  0.00000000000E+00 0. -1.
        -11    1    3    3    0    0 -0.85524939727E+03 -0.31064478912E+03 -0.13463380477E+04  0.16249854938E+04  0.00000000000E+00 0.  1.
         22    1    1    2    0    0  0.13665363789E+04  0.56943603822E+03 -0.12591231005E+03  0.14857768966E+04  0.00000000000E+00 0.  1.
<mgrwt>
<rscale>  0 0.34087826E+04</rscale>
<asrwt>0</asrwt>
<pdfrwt beam="1">  1        2 0.49078170E+00 0.34087826E+04</pdfrwt>
<pdfrwt beam="2">  1       -2 0.14009529E+00 0.34087826E+04</pdfrwt>
<totfact> 0.39026737E-01</totfact>
</mgrwt>
</event>
<event>
 6    1  0.1614874E-005  0.1752820E+04  0.7818608E-02  0.8731800E-01
         -2   -1    0    0    0  501 -0.00000000000E+00  0.00000000000E+00  0.25779355576E+03  0.25779355576E+03  0.00000000000E+00 0.  1.
          2   -1    0    0  501    0  0.00000000000E+00 -0.00000000000E+00 -0.29794932917E+04  0.29794932917E+04  0.00000000000E+00 0. -1.
         23    2    1    2    0    0  0.65508242644E+03  0.39860675828E+02 -0.29848885394E+03  0.72677438233E+03  0.91561716753E+02 0.  0.
         13    1    3    3    0    0  0.29803662085E+03  0.80892217648E+00 -0.18184640575E+03  0.34913406738E+03  0.00000000000E+00 0. -1.
        -13    1    3    3    0    0  0.35704580559E+03  0.39051753651E+02 -0.11664244819E+03  0.37764031494E+03  0.00000000000E+00 0.  1.
         22    1    1    2    0    0 -0.65508242644E+03 -0.39860675828E+02 -0.24232108820E+04  0.25105124651E+04  0.00000000000E+00 0. -1.
<mgrwt>
<rscale>  0 0.17528196E+04</rscale>
<asrwt>0</asrwt>
<pdfrwt beam="1">  1        2 0.45838360E+00 0.17528196E+04</pdfrwt>
<pdfrwt beam="2">  1       -2 0.39660545E-01 0.17528196E+04</pdfrwt>
<totfact> 0.10262751E+01</totfact>
</mgrwt>
</event>
<event>
 6    1  0.1614874E-005  0.1937540E+04  0.7818608E-02  0.8636393E-01
          1   -1    0    0  501    0  0.00000000000E+00  0.00000000000E+00  0.11021739615E+04  0.11021739615E+04  0.00000000000E+00 0. -1.
         -1   -1    0    0    0  501 -0.00000000000E+00 -0.00000000000E+00 -0.85151308609E+03  0.85151308609E+03  0.00000000000E+00 0.  1.
         23    2    1    2    0    0  0.29243167536E+03  0.54905278268E+03 -0.61908534814E+03  0.88437243705E+03  0.10896190258E+03 0.  0.
         11    1    3    3    0    0  0.23886951122E+03  0.34664720065E+03 -0.43865718036E+03  0.60798276866E+03  0.00000000000E+00 0.  1.
        -11    1    3    3    0    0  0.53562164143E+02  0.20240558204E+03 -0.18042816778E+03  0.27638966840E+03  0.00000000000E+00 0. -1.
         22    1    1    2    0    0 -0.29243167536E+03 -0.54905278268E+03  0.86974622355E+03  0.10693146105E+04  0.00000000000E+00 0. -1.
<mgrwt>
<rscale>  0 0.19375402E+04</rscale>
<asrwt>0</asrwt>
<pdfrwt beam="1">  1        1 0.16956523E+00 0.19375402E+04</pdfrwt>
<pdfrwt beam="2">  1       -1 0.13100201E+00 0.19375402E+04</pdfrwt>
<totfact> 0.58597446E+00</totfact>
</mgrwt>
</event>
<event>
 6    1  0.1614874E-005  0.1294511E+04  0.7818608E-02  0.9033929E-01
         -1   -1    0    0    0  501 -0.00000000000E+00  0.00000000000E+00  0.64734359199E+03  0.64734359199E+03  0.00000000000E+00 0.  1.
          1   -1    0    0  501    0  0.00000000000E+00 -0.00000000000E+00 -0.64716743249E+03  0.64716743249E+03  0.00000000000E+00 0. -1.
         23    2    1    2    0    0 -0.13342485556E+03  0.22905012489E+03  0.58749933750E+03  0.65013949561E+03  0.85204110197E+02 0.  0.
         13    1    3    3    0    0 -0.12435460036E+03  0.19176410650E+03  0.41855368991E+03  0.47689069031E+03  0.00000000000E+00 0. -1.
        -13    1    3    3    0    0 -0.90702552094E+01  0.37286018396E+02  0.16894564760E+03  0.17324880530E+03  0.00000000000E+00 0.  1.
         22    1    1    2    0    0  0.13342485556E+03 -0.22905012489E+03 -0.58732317801E+03  0.64437152887E+03  0.00000000000E+00 0. -1.
<mgrwt>
<rscale>  0 0.12945110E+04</rscale>
<asrwt>0</asrwt>
<pdfrwt beam="1">  1        1 0.99564221E-01 0.12945110E+04</pdfrwt>
<pdfrwt beam="2">  1       -1 0.99591322E-01 0.12945110E+04</pdfrwt>
<totfact> 0.29004032E+01</totfact>
</mgrwt>
</event>
<event>
 6    1  0.1614874E-005  0.3910795E+04  0.7818608E-02  0.8022788E-01
         -1   -1    0    0    0  501 -0.00000000000E+00  0.00000000000E+00  0.20437137623E+04  0.20437137623E+04  0.00000000000E+00 0.  1.
          1   -1    0    0  501    0  0.00000000000E+00 -0.00000000000E+00 -0.18708972555E+04  0.18708972555E+04  0.00000000000E+00 0. -1.
         23    2    1    2    0    0 -0.18605509200E+04  0.59607826852E+03  0.36609240712E+02  0.19561648360E+04  0.91003302152E+02 0.  0.
         11    1    3    3    0    0 -0.36482217300E+03  0.15502276192E+03  0.11587079185E+02  0.39656214523E+03  0.00000000000E+00 0.  1.
        -11    1    3    3    0    0 -0.14957287470E+04  0.44105550660E+03  0.25022161527E+02  0.15596026908E+04  0.00000000000E+00 0. -1.
         22    1    1    2    0    0  0.18605509200E+04 -0.59607826852E+03  0.13620726609E+03  0.19584461819E+04  0.00000000000E+00 0. -1.
<mgrwt>
<rscale>  0 0.39107945E+04</rscale>
<asrwt>0</asrwt>
<pdfrwt beam="1">  1        1 0.28783035E+00 0.39107945E+04</pdfrwt>
<pdfrwt beam="2">  1       -1 0.31441750E+00 0.39107945E+04</pdfrwt>
<totfact> 0.76498056E-02</totfact>
</mgrwt>
</event>
<event>
 6    1  0.1614874E-005  0.1244070E+04  0.7818608E-02  0.9075133E-01
          1   -1    0    0  501    0  0.00000000000E+00  0.00000000000E+00  0.20009463747E+04  0.20009463747E+04  0.00000000000E+00 0. -1.
         -1   -1    0    0    0  501 -0.00000000000E+00 -0.00000000000E+00 -0.19337225101E+03  0.19337225101E+03  0.00000000000E+00 0.  1.
         23    2    1    2    0    0 -0.45594475285E+03  0.39359756965E+03  0.11584320211E+04  0.13087735202E+04  0.90103913608E+02 0.  0.
         11    1    3    3    0    0 -0.20570251674E+03  0.23528330341E+03  0.57128089729E+03  0.65117864051E+03  0.00000000000E+00 0. -1.
        -11    1    3    3    0    0 -0.25024223611E+03  0.15831426624E+03  0.58715112380E+03  0.65759487970E+03  0.00000000000E+00 0.  1.
         22    1    1    2    0    0  0.45594475285E+03 -0.39359756965E+03  0.64914210257E+03  0.88554510546E+03  0.00000000000E+00 0.  1.
<mgrwt>
<rscale>  0 0.12440699E+04</rscale>
<asrwt>0</asrwt>
<pdfrwt beam="1">  1        1 0.30783789E+00 0.12440699E+04</pdfrwt>
<pdfrwt beam="2">  1       -1 0.29749578E-01 0.12440699E+04</pdfrwt>
<totfact> 0.30447975E+01</totfact>
</mgrwt>
</event>
<event>
 6    1  0.1614874E-005  0.2193008E+04  0.7818608E-02  0.8521344E-01
         -1   -1    0    0    0  501 -0.00000000000E+00  0.00000000000E+00  0.15131669806E+04  0.15131669806E+04  0.00000000000E+00 0.  1.
          1   -1    0    0  501    0  0.00000000000E+00 -0.00000000000E+00 -0.79457272365E+03  0.79457272365E+03  0.00000000000E+00 0. -1.
         23    2    1    2    0    0  0.91295125092E+03  0.98657310884E+02  0.98683742356E+03  0.13510957538E+04  0.91642696115E+02 0.  0.
         13    1    3    3    0    0  0.18568997432E+03 -0.48199663643E+01  0.16089394470E+03  0.24574551894E+03  0.00000000000E+00 0.  1.
        -13    1    3    3    0    0  0.72726127660E+03  0.10347727725E+03  0.82594347886E+03  0.11053502348E+04  0.00000000000E+00 0. -1.
         22    1    1    2    0    0 -0.91295125092E+03 -0.98657310884E+02 -0.26824316663E+03  0.95664395048E+03  0.00000000000E+00 0. -1.
<mgrwt>
<rscale>  0 0.21930082E+04</rscale>
<asrwt>0</asrwt>
<pdfrwt beam="1">  1        1 0.12224196E+00 0.21930082E+04</pdfrwt>
<pdfrwt beam="2">  1       -1 0.23279492E+00 0.21930082E+04</pdfrwt>
<totfact> 0.18442815E+00</totfact>
</mgrwt>
</event>
<event>
 6    1  0.1614874E-005  0.1495658E+04  0.7818608E-02  0.8887345E-01
          2   -1    0    0  501    0  0.00000000000E+00  0.00000000000E+00  0.95458204592E+03  0.95458204592E+03  0.00000000000E+00 0.  1.
         -2   -1    0    0    0  501 -0.00000000000E+00 -0.00000000000E+00 -0.58585699132E+03  0.58585699132E+03  0.00000000000E+00 0. -1.
         23    2    1    2    0    0 -0.69879448093E+03 -0.23389844067E+03  0.29818922106E+03  0.80017049749E+03  0.91289683843E+02 0.  0.
         13    1    3    3    0    0 -0.30750709946E+03 -0.55417866050E+02  0.12465259786E+03  0.33640753001E+03  0.00000000000E+00 0.  1.
        -13    1    3    3    0    0 -0.39128738146E+03 -0.17848057462E+03  0.17353662320E+03  0.46376296748E+03  0.00000000000E+00 0. -1.
         22    1    1    2    0    0  0.69879448093E+03  0.23389844067E+03  0.70535833541E+02  0.74026853974E+03  0.00000000000E+00 0. -1.
<mgrwt>
<rscale>  0 0.14956585E+04</rscale>
<asrwt>0</asrwt>
<pdfrwt beam="1">  1        2 0.14685878E+00 0.14956585E+04</pdfrwt>
<pdfrwt beam="2">  1       -2 0.90131845E-01 0.14956585E+04</pdfrwt>
<totfact> 0.27453331E+01</totfact>
</mgrwt>
</event>
<event>
 6    1  0.1614874E-005  0.1169539E+04  0.7818608E-02  0.9139945E-01
         -1   -1    0    0    0  501 -0.00000000000E+00  0.00000000000E+00  0.36611873749E+03  0.36611873749E+03  0.00000000000E+00 0.  1.
          1   -1    0    0  501    0  0.00000000000E+00 -0.00000000000E+00 -0.93400153636E+03  0.93400153636E+03  0.00000000000E+00 0. -1.
         23    2    1    2    0    0  0.75694191538E+02 -0.45280845168E+03 -0.68227004401E+03  0.82699286353E+03  0.87519591076E+02 0.  0.
         13    1    3    3    0    0  0.69847464667E+01 -0.17750600827E+03 -0.32883119956E+03  0.37374741131E+03  0.00000000000E+00 0.  1.
        -13    1    3    3    0    0  0.68709445071E+02 -0.27530244341E+03 -0.35343884445E+03  0.45324545222E+03  0.00000000000E+00 0. -1.
         22    1    1    2    0    0 -0.75694191538E+02  0.45280845168E+03  0.11438724515E+03  0.47312741032E+03  0.00000000000E+00 0.  1.
<mgrwt>
<rscale>  0 0.11695392E+04</rscale>
<asrwt>0</asrwt>
<pdfrwt beam="1">  1        1 0.14369254E+00 0.11695392E+04</pdfrwt>
<pdfrwt beam="2">  1       -1 0.56325960E-01 0.11695392E+04</pdfrwt>
<totfact> 0.54005838E+01</totfact>
</mgrwt>
</event>
<event>
 6    1  0.1614874E-005  0.2520078E+04  0.7818608E-02  0.8395867E-01
         -1   -1    0    0    0  501 -0.00000000000E+00  0.00000000000E+00  0.12564186149E+04  0.12564186149E+04  0.00000000000E+00 0.  1.
          1   -1    0    0  501    0  0.00000000000E+00 -0.00000000000E+00 -0.12636696720E+04  0.12636696720E+04  0.00000000000E+00 0. -1.
         23    2    1    2    0    0  0.71459064086E+03  0.58375637644E+03  0.85204035738E+03  0.12592183387E+04  0.90811689555E+02 0.  0.
         11    1    3    3    0    0  0.21303270398E+03  0.22893599509E+03  0.29525567057E+03  0.43008200825E+03  0.00000000000E+00 0. -1.
        -11    1    3    3    0    0  0.50155793688E+03  0.35482038135E+03  0.55678468681E+03  0.82913633049E+03  0.00000000000E+00 0.  1.
         22    1    1    2    0    0 -0.71459064086E+03 -0.58375637644E+03 -0.85929141448E+03  0.12608699481E+04  0.00000000000E+00 0. -1.
<mgrwt>
<rscale>  0 0.25200779E+04</rscale>
<asrwt>0</asrwt>
<pdfrwt beam="1">  1        1 0.19441072E+00 0.25200779E+04</pdfrwt>
<pdfrwt beam="2">  1       -1 0.19329517E+00 0.25200779E+04</pdfrwt>
<totfact> 0.14274199E+00</totfact>
</mgrwt>
</event>
<event>
 6    1  0.1614874E-005  0.1549202E+04  0.7818608E-02  0.8852377E-01
         -2   -1    0    0    0  501 -0.00000000000E+00  0.00000000000E+00  0.21594413789E+03  0.21594413789E+03  0.00000000000E+00 0.  1.
          2   -1    0    0  501    0  0.00000000000E+00 -0.00000000000E+00 -0.27785289756E+04  0.27785289756E+04  0.00000000000E+00 0. -1.
         23    2    1    2    0    0 -0.23880069943E+03  0.71828496936E+03 -0.98510737736E+03  0.12447890822E+04  0.78129655660E+02 0.  0.
         11    1    3    3    0    0 -0.31308665861E+02  0.18356114850E+03 -0.27203806334E+03  0.32966594562E+03  0.00000000000E+00 0. -1.
        -11    1    3    3    0    0 -0.20749203357E+03  0.53472382086E+03 -0.71306931402E+03  0.91512313663E+03  0.00000000000E+00 0.  1.
         22    1    1    2    0    0  0.23880069943E+03 -0.71828496936E+03 -0.15774774603E+04  0.17496840312E+04  0.00000000000E+00 0. -1.
<mgrwt>
<rscale>  0 0.15492024E+04</rscale>
<asrwt>0</asrwt>
<pdfrwt beam="1">  1        2 0.42746601E+00 0.15492024E+04</pdfrwt>
<pdfrwt beam="2">  1       -2 0.33222174E-01 0.15492024E+04</pdfrwt>
<totfact> 0.19495097E+01</totfact>
</mgrwt>
</event>
<event>
 6    1  0.1614874E-005  0.1899338E+04  0.7818608E-02  0.8655186E-01
          1   -1    0    0  501    0  0.00000000000E+00  0.00000000000E+00  0.97171454957E+03  0.97171454957E+03  0.00000000000E+00 0. -1.
         -1   -1    0    0    0  501 -0.00000000000E+00 -0.00000000000E+00 -0.92812351756E+03  0.92812351756E+03  0.00000000000E+00 0.  1.
         23    2    1    2    0    0 -0.22780019214E+03 -0.27712805351E+03 -0.85537923817E+03  0.93193288984E+03  0.90179734380E+02 0.  0.
         13    1    3    3    0    0 -0.12481930160E+03 -0.98574025411E+02 -0.30030655575E+03  0.33982454880E+03  0.00000000000E+00 0.  1.
        -13    1    3    3    0    0 -0.10298089054E+03 -0.17855402810E+03 -0.55507268241E+03  0.59210834104E+03  0.00000000000E+00 0. -1.
         22    1    1    2    0    0  0.22780019214E+03  0.27712805351E+03  0.89897027017E+03  0.96790517729E+03  0.00000000000E+00 0. -1.
<mgrwt>
<rscale>  0 0.18993379E+04</rscale>
<asrwt>0</asrwt>
<pdfrwt beam="1">  1        1 0.14949455E+00 0.18993379E+04</pdfrwt>
<pdfrwt beam="2">  1       -1 0.14278823E+00 0.18993379E+04</pdfrwt>
<totfact> 0.59315414E+00</totfact>
</mgrwt>
</event>
<event>
 6    1  0.1614874E-005  0.1857444E+04  0.7818608E-02  0.8676334E-01
          1   -1    0    0  501    0  0.00000000000E+00  0.00000000000E+00  0.69766302427E+03  0.69766302427E+03  0.00000000000E+00 0. -1.
         -1   -1    0    0    0  501 -0.00000000000E+00 -0.00000000000E+00 -0.12363050313E+04  0.12363050313E+04  0.00000000000E+00 0.  1.
         23    2    1    2    0    0 -0.64721680168E+03  0.63183896333E+03 -0.48087179124E+03  0.10276306671E+04  0.81713183262E+02 0.  0.
         11    1    3    3    0    0 -0.23949891478E+03  0.18370584029E+03 -0.17581720662E+03  0.34931254785E+03  0.00000000000E+00 0.  1.
        -11    1    3    3    0    0 -0.40771788689E+03  0.44813312304E+03 -0.30505458463E+03  0.67831811922E+03  0.00000000000E+00 0. -1.
         22    1    1    2    0    0  0.64721680168E+03 -0.63183896333E+03 -0.57770215791E+02  0.90633738850E+03  0.00000000000E+00 0. -1.
<mgrwt>
<rscale>  0 0.18574437E+04</rscale>
<asrwt>0</asrwt>
<pdfrwt beam="1">  1        1 0.10733277E+00 0.18574437E+04</pdfrwt>
<pdfrwt beam="2">  1       -1 0.19020077E+00 0.18574437E+04</pdfrwt>
<totfact> 0.45281078E+00</totfact>
</mgrwt>
</event>
<event>
 6    1  0.1614874E-005  0.2114315E+04  0.7818608E-02  0.8554964E-01
          1   -1    0    0  501    0  0.00000000000E+00  0.00000000000E+00  0.24552356977E+04  0.24552356977E+04  0.00000000000E+00 0. -1.
         -1   -1    0    0    0  501 -0.00000000000E+00 -0.00000000000E+00 -0.45518304539E+03  0.45518304539E+03  0.00000000000E+00 0.  1.
         23    2    1    2    0    0 -0.84167392539E+03  0.13375396184E+02  0.18777104478E+04  0.20597945529E+04  0.91450405173E+02 0.  0.
         13    1    3    3    0    0 -0.19952351432E+03 -0.46522111350E+00  0.54515119532E+03  0.58051673099E+03  0.00000000000E+00 0.  1.
        -13    1    3    3    0    0 -0.64215041107E+03  0.13840617298E+02  0.13325592524E+04  0.14792778219E+04  0.00000000000E+00 0. -1.
         22    1    1    2    0    0  0.84167392539E+03 -0.13375396184E+02  0.12234220452E+03  0.85062419017E+03  0.00000000000E+00 0.  1.
<mgrwt>
<rscale>  0 0.21143147E+04</rscale>
<asrwt>0</asrwt>
<pdfrwt beam="1">  1        1 0.37772856E+00 0.21143147E+04</pdfrwt>
<pdfrwt beam="2">  1       -1 0.70028162E-01 0.21143147E+04</pdfrwt>
<totfact> 0.27557405E+00</totfact>
</mgrwt>
</event>
<event>
 6    1  0.1614874E-005  0.2414558E+04  0.7818608E-02  0.8434073E-01
         -1   -1    0    0    0  501 -0.00000000000E+00  0.00000000000E+00  0.89808098675E+03  0.89808098675E+03  0.00000000000E+00 0.  1.
          1   -1    0    0  501    0  0.00000000000E+00 -0.00000000000E+00 -0.16229295658E+04  0.16229295658E+04  0.00000000000E+00 0. -1.
         23    2    1    2    0    0  0.15664545665E+03 -0.17325260822E+03 -0.15978897115E+04  0.16172655198E+04  0.87988442712E+02 0.  0.
         13    1    3    3    0    0  0.12724979121E+03 -0.10901891739E+03 -0.87252255973E+03  0.88846679789E+03  0.00000000000E+00 0.  1.
        -13    1    3    3    0    0  0.29395665443E+02 -0.64233690833E+02 -0.72536715178E+03  0.72879872191E+03  0.00000000000E+00 0. -1.
         22    1    1    2    0    0 -0.15664545665E+03  0.17325260822E+03  0.87304113243E+03  0.90374503277E+03  0.00000000000E+00 0.  1.
<mgrwt>
<rscale>  0 0.24145577E+04</rscale>
<asrwt>0</asrwt>
<pdfrwt beam="1">  1        1 0.24968147E+00 0.24145577E+04</pdfrwt>
<pdfrwt beam="2">  1       -1 0.13816631E+00 0.24145577E+04</pdfrwt>
<totfact> 0.20895365E+00</totfact>
</mgrwt>
</event>
<event>
 6    1  0.1614874E-005  0.1734654E+04  0.7818608E-02  0.8741843E-01
          2   -1    0    0  501    0  0.00000000000E+00  0.00000000000E+00  0.83481277249E+03  0.83481277249E+03  0.00000000000E+00 0. -1.
         -2   -1    0    0    0  501 -0.00000000000E+00 -0.00000000000E+00 -0.90110777112E+03  0.90110777112E+03  0.00000000000E+00 0.  1.
         23    2    1    2    0    0 -0.29392293289E+03 -0.25412900538E+03 -0.80661386728E+03  0.89983187061E+03  0.89995681087E+02 0.  0.
         13    1    3    3    0    0 -0.17452335847E+03 -0.19391761656E+03 -0.59245791490E+03  0.64735525455E+03  0.00000000000E+00 0.  1.
        -13    1    3    3    0    0 -0.11939957442E+03 -0.60211388817E+02 -0.21415595238E+03  0.25247661605E+03  0.00000000000E+00 0. -1.
         22    1    1    2    0    0  0.29392293289E+03  0.25412900538E+03  0.74031886865E+03  0.83608867301E+03  0.00000000000E+00 0. -1.
<mgrwt>
<rscale>  0 0.17346542E+04</rscale>
<asrwt>0</asrwt>
<pdfrwt beam="1">  1        2 0.12843273E+00 0.17346542E+04</pdfrwt>
<pdfrwt beam="2">  1       -2 0.13863196E+00 0.17346542E+04</pdfrwt>
<totfact> 0.11370239E+01</totfact>
</mgrwt>
</event>
<event>
 6    1  0.2082234E-005  0.4574090E+04  0.7818608E-02  0.7897793E-01
          2   -1    0    0  501    0  0.00000000000E+00  0.00000000000E+00  0.30089837135E+04  0.30089837135E+04  0.00000000000E+00 0. -1.
         -2   -1    0    0    0  501 -0.00000000000E+00 -0.00000000000E+00 -0.17383191204E+04  0.17383191204E+04  0.00000000000E+00 0.  1.
         23    2    1    2    0    0 -0.17066543641E+03  0.15077712151E+04 -0.11390776007E+04  0.18996093516E+04  0.92288569752E+02 0.  0.
         11    1    3    3    0    0 -0.14762834375E+03  0.91325178906E+03 -0.68105927238E+03  0.11487665953E+04  0.00000000000E+00 0.  1.
        -11    1    3    3    0    0 -0.23037092661E+02  0.59451942608E+03 -0.45801832830E+03  0.75084275630E+03  0.00000000000E+00 0. -1.
         22    1    1    2    0    0  0.17066543641E+03 -0.15077712151E+04  0.24097421938E+04  0.28476934823E+04  0.00000000000E+00 0. -1.
<mgrwt>
<rscale>  0 0.45740896E+04</rscale>
<asrwt>0</asrwt>
<pdfrwt beam="1">  1        2 0.46292057E+00 0.45740896E+04</pdfrwt>
<pdfrwt beam="2">  1       -2 0.26743371E+00 0.45740896E+04</pdfrwt>
<totfact> 0.65011692E-02</totfact>
</mgrwt>
</event>
<event>
 6    1  0.1614874E-005  0.7971785E+03  0.7818608E-02  0.9564110E-01
         -2   -1    0    0    0  501 -0.00000000000E+00  0.00000000000E+00  0.25407119473E+03  0.25407119473E+03  0.00000000000E+00 0.  1.
          2   -1    0    0  501    0  0.00000000000E+00 -0.00000000000E+00 -0.62531056821E+03  0.62531056821E+03  0.00000000000E+00 0. -1.
         23    2    1    2    0    0 -0.28259176765E+03 -0.15561346770E+03 -0.43612986129E+03  0.55031576062E+03  0.92544702717E+02 0.  0.
         11    1    3    3    0    0 -0.10391820941E+03 -0.94420209254E+02 -0.23987832283E+03  0.27794923984E+03  0.00000000000E+00 0. -1.
        -11    1    3    3    0    0 -0.17867355824E+03 -0.61193258450E+02 -0.19625153846E+03  0.27236652078E+03  0.00000000000E+00 0.  1.
         22    1    1    2    0    0  0.28259176765E+03  0.15561346770E+03  0.64890487817E+02  0.32906600232E+03  0.00000000000E+00 0.  1.
<mgrwt>
<rscale>  0 0.79717853E+03</rscale>
<asrwt>0</asrwt>
<pdfrwt beam="1">  1        2 0.96201625E-01 0.79717853E+03</pdfrwt>
<pdfrwt beam="2">  1       -2 0.39087876E-01 0.79717853E+03</pdfrwt>
<totfact> 0.29350815E+02</totfact>
</mgrwt>
</event>
<event>
 6    1  0.1614874E-005  0.2366939E+04  0.7818608E-02  0.8451986E-01
          1   -1    0    0  501    0  0.00000000000E+00  0.00000000000E+00  0.15380884161E+04  0.15380884161E+04  0.00000000000E+00 0.  1.
         -1   -1    0    0    0  501 -0.00000000000E+00 -0.00000000000E+00 -0.91061085668E+03  0.91061085668E+03  0.00000000000E+00 0. -1.
         23    2    1    2    0    0 -0.51131098495E+03  0.15068760020E+03 -0.77685592064E+03  0.94660134008E+03  0.91669511966E+02 0.  0.
         11    1    3    3    0    0 -0.44542071964E+03  0.12467860679E+03 -0.61166652672E+03  0.76686394646E+03  0.00000000000E+00 0. -1.
        -11    1    3    3    0    0 -0.65890265313E+02  0.26008993406E+02 -0.16518939392E+03  0.17973739362E+03  0.00000000000E+00 0.  1.
         22    1    1    2    0    0  0.51131098495E+03 -0.15068760020E+03  0.14043334801E+04  0.15020979327E+04  0.00000000000E+00 0.  1.
<mgrwt>
<rscale>  0 0.23669390E+04</rscale>
<asrwt>0</asrwt>
<pdfrwt beam="1">  1        1 0.23662899E+00 0.23669390E+04</pdfrwt>
<pdfrwt beam="2">  1       -1 0.14009398E+00 0.23669390E+04</pdfrwt>
<totfact> 0.23149524E+00</totfact>
</mgrwt>
</event>
<event>
 6    1  0.1614874E-005  0.2335974E+04  0.7818608E-02  0.8463871E-01
          2   -1    0    0  501    0  0.00000000000E+00  0.00000000000E+00  0.37431262814E+04  0.37431262814E+04  0.00000000000E+00 0. -1.
         -2   -1    0    0    0  501 -0.00000000000E+00 -0.00000000000E+00 -0.36445292635E+03  0.36445292635E+03  0.00000000000E+00 0.  1.
         23    2    1    2    0    0 -0.11506992531E+04 -0.56096688123E+02  0.13795170849E+04  0.18002254416E+04  0.10241407962E+03 0.  0.
         13    1    3    3    0    0 -0.61216076223E+03  0.19794332619E+02  0.71130366787E+03  0.93866155900E+03  0.00000000000E+00 0.  1.
        -13    1    3    3    0    0 -0.53853849087E+03 -0.75891020742E+02  0.66821341700E+03  0.86156388262E+03  0.00000000000E+00 0. -1.
         22    1    1    2    0    0  0.11506992531E+04  0.56096688123E+02  0.19991562702E+04  0.23073537662E+04  0.00000000000E+00 0. -1.
<mgrwt>
<rscale>  0 0.23359737E+04</rscale>
<asrwt>0</asrwt>
<pdfrwt beam="1">  1        2 0.57586556E+00 0.23359737E+04</pdfrwt>
<pdfrwt beam="2">  1       -2 0.56069684E-01 0.23359737E+04</pdfrwt>
<totfact> 0.14690426E+00</totfact>
</mgrwt>
</event>
<event>
 6    1  0.1614874E-005  0.1120376E+04  0.7818608E-02  0.9185557E-01
         -1   -1    0    0    0  501 -0.00000000000E+00  0.00000000000E+00  0.56070700673E+03  0.56070700673E+03  0.00000000000E+00 0.  1.
          1   -1    0    0  501    0  0.00000000000E+00 -0.00000000000E+00 -0.55966899778E+03  0.55966899778E+03  0.00000000000E+00 0. -1.
         23    2    1    2    0    0  0.32948989765E+03  0.31991137930E+03 -0.31352925129E+03  0.56372580513E+03  0.92624557772E+02 0.  0.
         11    1    3    3    0    0  0.17210446564E+03  0.16477201229E+03 -0.21808162099E+03  0.32300055192E+03  0.00000000000E+00 0.  1.
        -11    1    3    3    0    0  0.15738543200E+03  0.15513936701E+03 -0.95447630295E+02  0.24072525321E+03  0.00000000000E+00 0. -1.
         22    1    1    2    0    0 -0.32948989765E+03 -0.31991137930E+03  0.31456726024E+03  0.55665019938E+03  0.00000000000E+00 0.  1.
<mgrwt>
<rscale>  0 0.11203755E+04</rscale>
<asrwt>0</asrwt>
<pdfrwt beam="1">  1        1 0.86102923E-01 0.11203755E+04</pdfrwt>
<pdfrwt beam="2">  1       -1 0.86262617E-01 0.11203755E+04</pdfrwt>
<totfact> 0.49961013E+01</totfact>
</mgrwt>
</event>
<event>
 6    1  0.1614874E-005  0.1950922E+04  0.7818608E-02  0.8629916E-01
          2   -1    0    0  501    0  0.00000000000E+00  0.00000000000E+00  0.22885161298E+04  0.22885161298E+04  0.00000000000E+00 0. -1.
         -2   -1    0    0    0  501 -0.00000000000E+00 -0.00000000000E+00 -0.41578224964E+03  0.41578224964E+03  0.00000000000E+00 0.  1.
         23    2    1    2    0    0  0.19652458882E+03 -0.16085272187E+03  0.22408608426E+04  0.22570702803E+04  0.91724708362E+02 0.  0.
         11    1    3    3    0    0  0.82725526910E+02 -0.76988485832E+02  0.13860720105E+04  0.13906711898E+04  0.00000000000E+00 0. -1.
        -11    1    3    3    0    0  0.11379906191E+03 -0.83864236040E+02  0.85478883214E+03  0.86639909056E+03  0.00000000000E+00 0.  1.
         22    1    1    2    0    0 -0.19652458882E+03  0.16085272187E+03 -0.36812696247E+03  0.44722809912E+03  0.00000000000E+00 0.  1.
<mgrwt>
<rscale>  0 0.19509222E+04</rscale>
<asrwt>0</asrwt>
<pdfrwt beam="1">  1        2 0.35207940E+00 0.19509222E+04</pdfrwt>
<pdfrwt beam="2">  1       -2 0.63966501E-01 0.19509222E+04</pdfrwt>
<totfact> 0.97018665E+00</totfact>
</mgrwt>
</event>
<event>
 6    1  0.1614874E-005  0.1538622E+04  0.7818608E-02  0.8859168E-01
          2   -1    0    0  501    0  0.00000000000E+00  0.00000000000E+00  0.27058471677E+04  0.27058471677E+04  0.00000000000E+00 0. -1.
         -2   -1    0    0    0  501 -0.00000000000E+00 -0.00000000000E+00 -0.21872614395E+03  0.21872614395E+03  0.00000000000E+00 0.  1.
         23    2    1    2    0    0 -0.51228018141E+03 -0.55188755961E+03  0.15211843248E+04  0.16998102452E+04  0.91335955241E+02 0.  0.
         11    1    3    3    0    0 -0.29402987129E+03 -0.31407384200E+03  0.76632330048E+03  0.87883294448E+03  0.00000000000E+00 0.  1.
        -11    1    3    3    0    0 -0.21825031012E+03 -0.23781371760E+03  0.75486102435E+03  0.82097730068E+03  0.00000000000E+00 0. -1.
         22    1    1    2    0    0  0.51228018141E+03  0.55188755961E+03  0.96593669889E+03  0.12247630665E+04  0.00000000000E+00 0.  1.
<mgrwt>
<rscale>  0 0.15386221E+04</rscale>
<asrwt>0</asrwt>
<pdfrwt beam="1">  1        2 0.41628416E+00 0.15386221E+04</pdfrwt>
<pdfrwt beam="2">  1       -2 0.33650178E-01 0.15386221E+04</pdfrwt>
<totfact> 0.21042437E+01</totfact>
</mgrwt>
</event>
<event>
 6    1  0.1614874E-005  0.1815541E+04  0.7818608E-02  0.8698078E-01
          1   -1    0    0  501    0  0.00000000000E+00  0.00000000000E+00  0.78254313218E+03  0.78254313218E+03  0.00000000000E+00 0. -1.
         -1   -1    0    0    0  501 -0.00000000000E+00 -0.00000000000E+00 -0.10530375320E+04  0.10530375320E+04  0.00000000000E+00 0.  1.
         23    2    1    2    0    0  0.13077104549E+03  0.89182504184E+03 -0.22211449795E+03  0.93292148903E+03  0.92491528844E+02 0.  0.
         13    1    3    3    0    0  0.19386387310E+02  0.41323637431E+03 -0.79451749599E+02  0.42125136627E+03  0.00000000000E+00 0. -1.
        -13    1    3    3    0    0  0.11138465818E+03  0.47858866752E+03 -0.14266274835E+03  0.51167012276E+03  0.00000000000E+00 0.  1.
         22    1    1    2    0    0 -0.13077104549E+03 -0.89182504184E+03 -0.48379901868E+02  0.90265917515E+03  0.00000000000E+00 0. -1.
<mgrwt>
<rscale>  0 0.18155410E+04</rscale>
<asrwt>0</asrwt>
<pdfrwt beam="1">  1        1 0.12039125E+00 0.18155410E+04</pdfrwt>
<pdfrwt beam="2">  1       -1 0.16200577E+00 0.18155410E+04</pdfrwt>
<totfact> 0.60914180E+00</totfact>
</mgrwt>
</event>
<event>
 6    1  0.1614874E-005  0.1738955E+04  0.7818608E-02  0.8739454E-01
         -1   -1    0    0    0  501 -0.00000000000E+00  0.00000000000E+00  0.32124524581E+03  0.32124524581E+03  0.00000000000E+00 0.  1.
          1   -1    0    0  501    0  0.00000000000E+00 -0.00000000000E+00 -0.23533133103E+04  0.23533133103E+04  0.00000000000E+00 0. -1.
         23    2    1    2    0    0 -0.66572728728E+03  0.41401548192E+02 -0.16684825203E+03  0.69366182533E+03  0.91768619360E+02 0.  0.
         13    1    3    3    0    0 -0.21471897332E+03 -0.28362510854E+01 -0.13171956976E+02  0.21514130769E+03  0.00000000000E+00 0.  1.
        -13    1    3    3    0    0 -0.45100831396E+03  0.44237799277E+02 -0.15367629505E+03  0.47852051765E+03  0.00000000000E+00 0. -1.
         22    1    1    2    0    0  0.66572728728E+03 -0.41401548192E+02 -0.18652198125E+04  0.19808967308E+04  0.00000000000E+00 0. -1.
<mgrwt>
<rscale>  0 0.17389545E+04</rscale>
<asrwt>0</asrwt>
<pdfrwt beam="1">  1        1 0.36204821E+00 0.17389545E+04</pdfrwt>
<pdfrwt beam="2">  1       -1 0.49422344E-01 0.17389545E+04</pdfrwt>
<totfact> 0.66649503E+00</totfact>
</mgrwt>
</event>
<event>
 6    1  0.1614874E-005  0.1801535E+04  0.7818608E-02  0.8705484E-01
         -2   -1    0    0    0  501 -0.00000000000E+00  0.00000000000E+00  0.52183466172E+03  0.52183466172E+03  0.00000000000E+00 0.  1.
          2   -1    0    0  501    0  0.00000000000E+00 -0.00000000000E+00 -0.15548635645E+04  0.15548635645E+04  0.00000000000E+00 0. -1.
         23    2    1    2    0    0 -0.53867019241E+02  0.43259170278E+03 -0.14233481673E+04  0.14915603234E+04  0.93781426629E+02 0.  0.
         13    1    3    3    0    0 -0.31163006512E+02  0.27404411268E+03 -0.74097275782E+03  0.79064020673E+03  0.00000000000E+00 0.  1.
        -13    1    3    3    0    0 -0.22704012730E+02  0.15854759010E+03 -0.68237540948E+03  0.70092011669E+03  0.00000000000E+00 0. -1.
         22    1    1    2    0    0  0.53867019241E+02 -0.43259170278E+03  0.39031926450E+03  0.58513790282E+03  0.00000000000E+00 0.  1.
<mgrwt>
<rscale>  0 0.18015346E+04</rscale>
<asrwt>0</asrwt>
<pdfrwt beam="1">  1        2 0.23920978E+00 0.18015346E+04</pdfrwt>
<pdfrwt beam="2">  1       -2 0.80282256E-01 0.18015346E+04</pdfrwt>
<totfact> 0.15302611E+01</totfact>
</mgrwt>
</event>
<event>
 6    1  0.1614874E-005  0.3425524E+04  0.7818608E-02  0.8131670E-01
         -1   -1    0    0    0  501 -0.00000000000E+00  0.00000000000E+00  0.22678842146E+04  0.22678842146E+04  0.00000000000E+00 0.  1.
          1   -1    0    0  501    0  0.00000000000E+00 -0.00000000000E+00 -0.12935196806E+04  0.12935196806E+04  0.00000000000E+00 0. -1.
         23    2    1    2    0    0  0.15488425674E+04 -0.64954725897E+03  0.14431589747E+03  0.16879563568E+04  0.86859911459E+02 0.  0.
         13    1    3    3    0    0  0.10452255496E+04 -0.46524665615E+03  0.66097770595E+02  0.11460016648E+04  0.00000000000E+00 0. -1.
        -13    1    3    3    0    0  0.50361701779E+03 -0.18430060282E+03  0.78218126871E+02  0.54195469200E+03  0.00000000000E+00 0.  1.
         22    1    1    2    0    0 -0.15488425674E+04  0.64954725897E+03  0.83004863651E+03  0.18734475384E+04  0.00000000000E+00 0.  1.
<mgrwt>
<rscale>  0 0.34255235E+04</rscale>
<asrwt>0</asrwt>
<pdfrwt beam="1">  1        1 0.19900303E+00 0.34255235E+04</pdfrwt>
<pdfrwt beam="2">  1       -1 0.34890526E+00 0.34255235E+04</pdfrwt>
<totfact> 0.11853443E-01</totfact>
</mgrwt>
</event>
<event>
 6    1  0.1614874E-005  0.2122064E+04  0.7818608E-02  0.8551586E-01
         -1   -1    0    0    0  501 -0.00000000000E+00  0.00000000000E+00  0.36271955035E+03  0.36271955035E+03  0.00000000000E+00 0.  1.
          1   -1    0    0  501    0  0.00000000000E+00 -0.00000000000E+00 -0.31037443579E+04  0.31037443579E+04  0.00000000000E+00 0. -1.
         23    2    1    2    0    0 -0.19577522698E+03  0.56420225671E+03  0.56185730997E+02  0.60621235937E+03  0.87661064924E+02 0.  0.
         11    1    3    3    0    0 -0.46448726266E+02  0.24316216944E+03  0.47266426132E+02  0.25203063278E+03  0.00000000000E+00 0.  1.
        -11    1    3    3    0    0 -0.14932650072E+03  0.32104008727E+03  0.89193048651E+01  0.35418172659E+03  0.00000000000E+00 0. -1.
         22    1    1    2    0    0  0.19577522698E+03 -0.56420225671E+03 -0.27972105385E+04  0.28602515489E+04  0.00000000000E+00 0. -1.
<mgrwt>
<rscale>  0 0.21220639E+04</rscale>
<asrwt>0</asrwt>
<pdfrwt beam="1">  1        1 0.47749916E+00 0.21220639E+04</pdfrwt>
<pdfrwt beam="2">  1       -1 0.55803004E-01 0.21220639E+04</pdfrwt>
<totfact> 0.14975101E+00</totfact>
</mgrwt>
</event>
<event>
 6    1  0.1614874E-005  0.4112825E+04  0.7818608E-02  0.7982165E-01
         -2   -1    0    0    0  501 -0.00000000000E+00  0.00000000000E+00  0.17501520815E+04  0.17501520815E+04  0.00000000000E+00 0.  1.
          2   -1    0    0  501    0  0.00000000000E+00 -0.00000000000E+00 -0.24162650733E+04  0.24162650733E+04  0.00000000000E+00 0. -1.
         23    2    1    2    0    0  0.11759983892E+04 -0.84795975404E+03  0.11427132720E+04  0.18482583145E+04  0.90869242971E+02 0.  0.
         11    1    3    3    0    0  0.49626395111E+03 -0.32957610479E+03  0.51842598779E+03  0.78972389025E+03  0.00000000000E+00 0. -1.
        -11    1    3    3    0    0  0.67973443807E+03 -0.51838364925E+03  0.62428728421E+03  0.10585344243E+04  0.00000000000E+00 0.  1.
         22    1    1    2    0    0 -0.11759983892E+04  0.84795975404E+03 -0.18088262638E+04  0.23181588402E+04  0.00000000000E+00 0. -1.
<mgrwt>
<rscale>  0 0.41128245E+04</rscale>
<asrwt>0</asrwt>
<pdfrwt beam="1">  1        2 0.37173309E+00 0.41128245E+04</pdfrwt>
<pdfrwt beam="2">  1       -2 0.26925417E+00 0.41128245E+04</pdfrwt>
<totfact> 0.14898326E-01</totfact>
</mgrwt>
</event>
<event>
 6    1  0.1614874E-005  0.2028539E+04  0.7818608E-02  0.8593393E-01
         -1   -1    0    0    0  501 -0.00000000000E+00  0.00000000000E+00  0.64947225513E+03  0.64947225513E+03  0.00000000000E+00 0.  1.
          1   -1    0    0  501    0  0.00000000000E+00 -0.00000000000E+00 -0.15839665678E+04  0.15839665678E+04  0.00000000000E+00 0. -1.
         23    2    1    2    0    0 -0.89111445419E+03 -0.34323145390E+03 -0.98667557949E+02  0.96438438545E+03  0.91701442077E+02 0.  0.
         13    1    3    3    0    0 -0.65591754524E+03 -0.21374588367E+03 -0.51477765052E+02  0.69178399030E+03  0.00000000000E+00 0.  1.
        -13    1    3    3    0    0 -0.23519690895E+03 -0.12948557024E+03 -0.47189792897E+02  0.27260039514E+03  0.00000000000E+00 0. -1.
         22    1    1    2    0    0  0.89111445419E+03  0.34323145390E+03 -0.83582675476E+03  0.12690544375E+04  0.00000000000E+00 0. -1.
<mgrwt>
<rscale>  0 0.20285387E+04</rscale>
<asrwt>0</asrwt>
<pdfrwt beam="1">  1        1 0.24368716E+00 0.20285387E+04</pdfrwt>
<pdfrwt beam="2">  1       -1 0.99918810E-01 0.20285387E+04</pdfrwt>
<totfact> 0.50573119E+00</totfact>
</mgrwt>
</event>
<event>
 6    1  0.1614874E-005  0.4506412E+04  0.7818608E-02  0.7909515E-01
          1   -1    0    0  501    0  0.00000000000E+00  0.00000000000E+00  0.30916271878E+04  0.30916271878E+04  0.00000000000E+00 0. -1.
         -1   -1    0    0    0  501 -0.00000000000E+00 -0.00000000000E+00 -0.16421569307E+04  0.16421569307E+04  0.00000000000E+00 0.  1.
         23    2    1    2    0    0 -0.18112927670E+04  0.10670506986E+04 -0.12412807201E+03  0.21078385016E+04  0.90535570070E+02 0.  0.
         11    1    3    3    0    0 -0.15542503970E+04  0.93624001141E+03 -0.81405944064E+02  0.18162782230E+04  0.00000000000E+00 0. -1.
        -11    1    3    3    0    0 -0.25704237002E+03  0.13081068715E+03 -0.42722127950E+02  0.29156027863E+03  0.00000000000E+00 0.  1.
         22    1    1    2    0    0  0.18112927670E+04 -0.10670506986E+04  0.15735983292E+04  0.26259456169E+04  0.00000000000E+00 0. -1.
<mgrwt>
<rscale>  0 0.45064119E+04</rscale>
<asrwt>0</asrwt>
<pdfrwt beam="1">  1        1 0.47563495E+00 0.45064119E+04</pdfrwt>
<pdfrwt beam="2">  1       -1 0.25263953E+00 0.45064119E+04</pdfrwt>
<totfact> 0.25750861E-02</totfact>
</mgrwt>
</event>
<event>
 6    1  0.1614874E-005  0.3668072E+04  0.7818608E-02  0.8075074E-01
          2   -1    0    0  501    0  0.00000000000E+00  0.00000000000E+00  0.28516320067E+04  0.28516320067E+04  0.00000000000E+00 0. -1.
         -2   -1    0    0    0  501 -0.00000000000E+00 -0.00000000000E+00 -0.11795661171E+04  0.11795661171E+04  0.00000000000E+00 0.  1.
         23    2    1    2    0    0 -0.75952407593E+02 -0.10438443084E+04  0.24902891113E+04  0.27027144209E+04  0.88009514865E+02 0.  0.
         11    1    3    3    0    0 -0.85825394566E+02 -0.60207714069E+03  0.14127296228E+04  0.15380727775E+04  0.00000000000E+00 0. -1.
        -11    1    3    3    0    0  0.98729869722E+01 -0.44176716775E+03  0.10775594885E+04  0.11646416434E+04  0.00000000000E+00 0.  1.
         22    1    1    2    0    0  0.75952407593E+02  0.10438443084E+04 -0.81822322163E+03  0.13284837029E+04  0.00000000000E+00 0.  1.
<mgrwt>
<rscale>  0 0.36680722E+04</rscale>
<asrwt>0</asrwt>
<pdfrwt beam="1">  1        2 0.43871261E+00 0.36680722E+04</pdfrwt>
<pdfrwt beam="2">  1       -2 0.18147171E+00 0.36680722E+04</pdfrwt>
<totfact> 0.30870108E-01</totfact>
</mgrwt>
</event>
<event>
 6    1  0.1614874E-005  0.3600635E+04  0.7818608E-02  0.8090346E-01
          2   -1    0    0  501    0  0.00000000000E+00  0.00000000000E+00  0.76471523308E+03  0.76471523308E+03  0.00000000000E+00 0. -1.
         -2   -1    0    0    0  501 -0.00000000000E+00 -0.00000000000E+00 -0.42383655657E+04  0.42383655657E+04  0.00000000000E+00 0.  1.
         23    2    1    2    0    0 -0.23007109606E+03 -0.11093076106E+04 -0.36800472584E+04  0.38515184794E+04  0.89166637488E+02 0.  0.
         13    1    3    3    0    0 -0.10504906300E+03 -0.36012557232E+03 -0.13188703534E+04  0.13711837012E+04  0.00000000000E+00 0. -1.
        -13    1    3    3    0    0 -0.12502203306E+03 -0.74918203832E+03 -0.23611769050E+04  0.24803347782E+04  0.00000000000E+00 0.  1.
         22    1    1    2    0    0  0.23007109606E+03  0.11093076106E+04  0.20639692580E+03  0.11515623193E+04  0.00000000000E+00 0. -1.
<mgrwt>
<rscale>  0 0.36006348E+04</rscale>
<asrwt>0</asrwt>
<pdfrwt beam="1">  1        2 0.11764850E+00 0.36006348E+04</pdfrwt>
<pdfrwt beam="2">  1       -2 0.65205624E+00 0.36006348E+04</pdfrwt>
<totfact> 0.97977152E-03</totfact>
</mgrwt>
</event>
<event>
 6    1  0.1614874E-005  0.2648408E+04  0.7818608E-02  0.8351942E-01
         -2   -1    0    0    0  501 -0.00000000000E+00  0.00000000000E+00  0.46586135925E+03  0.46586135925E+03  0.00000000000E+00 0. -1.
          2   -1    0    0  501    0  0.00000000000E+00 -0.00000000000E+00 -0.37640291039E+04  0.37640291039E+04  0.00000000000E+00 0.  1.
         23    2    1    2    0    0  0.87722828390E+03  0.77407536344E+03 -0.26358466530E+04  0.28854979019E+04  0.98429840111E+02 0.  0.
         13    1    3    3    0    0  0.48163103103E+03  0.35947343950E+03 -0.13427961777E+04  0.14711530099E+04  0.00000000000E+00 0. -1.
        -13    1    3    3    0    0  0.39559725287E+03  0.41460192394E+03 -0.12930504752E+04  0.14143448919E+04  0.00000000000E+00 0.  1.
         22    1    1    2    0    0 -0.87722828390E+03 -0.77407536344E+03 -0.66232109170E+03  0.13443925613E+04  0.00000000000E+00 0. -1.
<mgrwt>
<rscale>  0 0.26484076E+04</rscale>
<asrwt>0</asrwt>
<pdfrwt beam="1">  1        2 0.57908141E+00 0.26484076E+04</pdfrwt>
<pdfrwt beam="2">  1       -2 0.71670978E-01 0.26484076E+04</pdfrwt>
<totfact> 0.81414624E-01</totfact>
</mgrwt>
</event>
<event>
 6    1  0.1614874E-005  0.8547522E+03  0.7818608E-02  0.9483981E-01
          2   -1    0    0  501    0  0.00000000000E+00  0.00000000000E+00  0.32434926074E+04  0.32434926074E+04  0.00000000000E+00 0. -1.
         -2   -1    0    0    0  501 -0.00000000000E+00 -0.00000000000E+00 -0.56312859912E+02  0.56312859912E+02  0.00000000000E+00 0.  1.
         23    2    1    2    0    0  0.30807186171E+03  0.25929729511E+03  0.21050421568E+04  0.21451777678E+04  0.91879347286E+02 0.  0.
         13    1    3    3    0    0  0.22415901648E+03  0.14855353910E+03  0.15400231741E+04  0.15633255564E+04  0.00000000000E+00 0. -1.
        -13    1    3    3    0    0  0.83912845229E+02  0.11074375601E+03  0.56501898268E+03  0.58185221137E+03  0.00000000000E+00 0.  1.
         22    1    1    2    0    0 -0.30807186171E+03 -0.25929729511E+03  0.10821375907E+04  0.11546276995E+04  0.00000000000E+00 0.  1.
<mgrwt>
<rscale>  0 0.85475223E+03</rscale>
<asrwt>0</asrwt>
<pdfrwt beam="1">  1        2 0.49899872E+00 0.85475223E+03</pdfrwt>
<pdfrwt beam="2">  1       -2 0.86635194E-02 0.85475223E+03</pdfrwt>
<totfact> 0.11052464E+02</totfact>
</mgrwt>
</event>
<event>
 6    1  0.1614874E-005  0.2001378E+04  0.7818608E-02  0.8605977E-01
          2   -1    0    0  501    0  0.00000000000E+00  0.00000000000E+00  0.74538957392E+03  0.74538957392E+03  0.00000000000E+00 0.  1.
         -2   -1    0    0    0  501 -0.00000000000E+00 -0.00000000000E+00 -0.13434297876E+04  0.13434297876E+04  0.00000000000E+00 0. -1.
         23    2    1    2    0    0  0.65027174817E+03  0.15897448079E+03 -0.10733925003E+04  0.12677919391E+04  0.83658288273E+02 0.  0.
         11    1    3    3    0    0  0.60934315928E+03  0.16593457876E+03 -0.98395048029E+03  0.11691842959E+04  0.00000000000E+00 0. -1.
        -11    1    3    3    0    0  0.40928588886E+02 -0.69600979722E+01 -0.89442020015E+02  0.98607643195E+02  0.00000000000E+00 0.  1.
         22    1    1    2    0    0 -0.65027174817E+03 -0.15897448079E+03  0.47535228659E+03  0.82102742242E+03  0.00000000000E+00 0.  1.
<mgrwt>
<rscale>  0 0.20013781E+04</rscale>
<asrwt>0</asrwt>
<pdfrwt beam="1">  1        2 0.11467532E+00 0.20013781E+04</pdfrwt>
<pdfrwt beam="2">  1       -2 0.20668150E+00 0.20013781E+04</pdfrwt>
<totfact> 0.42220232E+00</totfact>
</mgrwt>
</event>
<event>
 6    1  0.1614874E-005  0.2163298E+04  0.7818608E-02  0.8533861E-01
         -2   -1    0    0    0  501 -0.00000000000E+00  0.00000000000E+00  0.54579615360E+03  0.54579615360E+03  0.00000000000E+00 0.  1.
          2   -1    0    0  501    0  0.00000000000E+00 -0.00000000000E+00 -0.21435929259E+04  0.21435929259E+04  0.00000000000E+00 0. -1.
         23    2    1    2    0    0 -0.14596016090E+03  0.94530114761E+03 -0.14230906779E+04  0.17170615381E+04  0.90634540871E+02 0.  0.
         11    1    3    3    0    0 -0.93466337044E+02  0.34945290568E+03 -0.57253324068E+03  0.67723526277E+03  0.00000000000E+00 0.  1.
        -11    1    3    3    0    0 -0.52493823860E+02  0.59584824193E+03 -0.85055743717E+03  0.10398262753E+04  0.00000000000E+00 0. -1.
         22    1    1    2    0    0  0.14596016090E+03 -0.94530114761E+03 -0.17470609441E+03  0.97232754135E+03  0.00000000000E+00 0.  1.
<mgrwt>
<rscale>  0 0.21632982E+04</rscale>
<asrwt>0</asrwt>
<pdfrwt beam="1">  1        2 0.32978352E+00 0.21632982E+04</pdfrwt>
<pdfrwt beam="2">  1       -2 0.83968640E-01 0.21632982E+04</pdfrwt>
<totfact> 0.63082848E+00</totfact>
</mgrwt>
</event>
<event>
 6    1  0.1614874E-005  0.8363463E+03  0.7818608E-02  0.9508848E-01
         -2   -1    0    0    0  501 -0.00000000000E+00  0.00000000000E+00  0.22731768845E+03  0.22731768845E+03  0.00000000000E+00 0. -1.
          2   -1    0    0  501    0  0.00000000000E+00 -0.00000000000E+00 -0.76927045667E+03  0.76927045667E+03  0.00000000000E+00 0.  1.
         23    2    1    2    0    0 -0.24253699479E+03 -0.23041535231E+03 -0.56340824745E+03  0.66136319675E+03  0.89760772597E+02 0.  0.
         11    1    3    3    0    0 -0.19982744211E+03 -0.15548603785E+03 -0.47243366595E+03  0.53600418218E+03  0.00000000000E+00 0. -1.
        -11    1    3    3    0    0 -0.42709552684E+02 -0.74929314460E+02 -0.90974581495E+02  0.12535901457E+03  0.00000000000E+00 0.  1.
         22    1    1    2    0    0  0.24253699479E+03  0.23041535231E+03  0.21455479217E+02  0.33522494837E+03  0.00000000000E+00 0. -1.
<mgrwt>
<rscale>  0 0.83634630E+03</rscale>
<asrwt>0</asrwt>
<pdfrwt beam="1">  1        2 0.11834930E+00 0.83634630E+03</pdfrwt>
<pdfrwt beam="2">  1       -2 0.34971953E-01 0.83634630E+03</pdfrwt>
<totfact> 0.27945976E+02</totfact>
</mgrwt>
</event>
<event>
 6    1  0.1614874E-005  0.2597935E+04  0.7818608E-02  0.8368903E-01
         -1   -1    0    0    0  501 -0.00000000000E+00  0.00000000000E+00  0.52852484360E+03  0.52852484360E+03  0.00000000000E+00 0.  1.
          1   -1    0    0  501    0  0.00000000000E+00 -0.00000000000E+00 -0.31925022572E+04  0.31925022572E+04  0.00000000000E+00 0. -1.
         23    2    1    2    0    0 -0.81180425145E+03 -0.83218656414E+03 -0.50791003952E+03  0.12714991582E+04  0.84716472681E+02 0.  0.
         13    1    3    3    0    0 -0.10257702206E+03 -0.68672652375E+02 -0.48352926881E+02  0.13257444768E+03  0.00000000000E+00 0.  1.
        -13    1    3    3    0    0 -0.70922722939E+03 -0.76351391176E+03 -0.45955711264E+03  0.11389247105E+04  0.00000000000E+00 0. -1.
         22    1    1    2    0    0  0.81180425145E+03  0.83218656414E+03 -0.21560673741E+04  0.24495279427E+04  0.00000000000E+00 0.  1.
<mgrwt>
<rscale>  0 0.25979351E+04</rscale>
<asrwt>0</asrwt>
<pdfrwt beam="1">  1        1 0.49115419E+00 0.25979351E+04</pdfrwt>
<pdfrwt beam="2">  1       -1 0.81311515E-01 0.25979351E+04</pdfrwt>
<totfact> 0.57146410E-01</totfact>
</mgrwt>
</event>
<event>
 6    1  0.1614874E-005  0.3218996E+04  0.7818608E-02  0.8183818E-01
          1   -1    0    0  501    0  0.00000000000E+00  0.00000000000E+00  0.93758411530E+03  0.93758411530E+03  0.00000000000E+00 0. -1.
         -1   -1    0    0    0  501 -0.00000000000E+00 -0.00000000000E+00 -0.27629354061E+04  0.27629354061E+04  0.00000000000E+00 0.  1.
         23    2    1    2    0    0  0.12804977898E+04  0.39125437012E+03  0.10987576993E+03  0.13472540565E+04  0.10132243533E+03 0.  0.
         11    1    3    3    0    0  0.77108079656E+03  0.19302476415E+03  0.36346425156E+02  0.79570422710E+03  0.00000000000E+00 0.  1.
        -11    1    3    3    0    0  0.50941699328E+03  0.19822960596E+03  0.73529344777E+02  0.55154982936E+03  0.00000000000E+00 0. -1.
         22    1    1    2    0    0 -0.12804977898E+04 -0.39125437012E+03 -0.19352270607E+04  0.23532654649E+04  0.00000000000E+00 0.  1.
<mgrwt>
<rscale>  0 0.32189963E+04</rscale>
<asrwt>0</asrwt>
<pdfrwt beam="1">  1        1 0.14424371E+00 0.32189963E+04</pdfrwt>
<pdfrwt beam="2">  1       -1 0.42506698E+00 0.32189963E+04</pdfrwt>
<totfact> 0.68080629E-02</totfact>
</mgrwt>
</event>
<event>
 6    1  0.1859316E-005  0.4966196E+04  0.7818608E-02  0.7833743E-01
          2   -1    0    0  501    0  0.00000000000E+00  0.00000000000E+00  0.28745130504E+04  0.28745130504E+04  0.00000000000E+00 0. -1.
         -2   -1    0    0    0  501 -0.00000000000E+00 -0.00000000000E+00 -0.21449805036E+04  0.21449805036E+04  0.00000000000E+00 0.  1.
         23    2    1    2    0    0  0.22465962629E+04 -0.95100218966E+03 -0.98611873982E+02  0.24431738699E+04  0.88172125741E+02 0.  0.
         11    1    3    3    0    0  0.14610316186E+04 -0.66116887147E+03 -0.79127254180E+02  0.16056209981E+04  0.00000000000E+00 0.  1.
        -11    1    3    3    0    0  0.78556464423E+03 -0.28983331819E+03 -0.19484619802E+02  0.83755287177E+03  0.00000000000E+00 0. -1.
         22    1    1    2    0    0 -0.22465962629E+04  0.95100218966E+03  0.82814442071E+03  0.25763196841E+04  0.00000000000E+00 0. -1.
<mgrwt>
<rscale>  0 0.49661955E+04</rscale>
<asrwt>0</asrwt>
<pdfrwt beam="1">  1        2 0.44223278E+00 0.49661955E+04</pdfrwt>
<pdfrwt beam="2">  1       -2 0.32999700E+00 0.49661955E+04</pdfrwt>
<totfact> 0.31555216E-02</totfact>
</mgrwt>
</event>
<event>
 6    1  0.1614874E-005  0.1758137E+04  0.7818608E-02  0.8728884E-01
         -1   -1    0    0    0  501 -0.00000000000E+00  0.00000000000E+00  0.84513849816E+03  0.84513849816E+03  0.00000000000E+00 0.  1.
          1   -1    0    0  501    0  0.00000000000E+00 -0.00000000000E+00 -0.91436109535E+03  0.91436109535E+03  0.00000000000E+00 0. -1.
         23    2    1    2    0    0  0.24495124679E+03 -0.34667694455E+03 -0.80210736790E+03  0.91256033694E+03  0.95938114058E+02 0.  0.
         11    1    3    3    0    0  0.76485594232E+02 -0.16199403557E+03 -0.26175602920E+03  0.31718816577E+03  0.00000000000E+00 0. -1.
        -11    1    3    3    0    0  0.16846565256E+03 -0.18468290897E+03 -0.54035133870E+03  0.59537217117E+03  0.00000000000E+00 0.  1.
         22    1    1    2    0    0 -0.24495124679E+03  0.34667694455E+03  0.73288477071E+03  0.84693925657E+03  0.00000000000E+00 0.  1.
<mgrwt>
<rscale>  0 0.17581374E+04</rscale>
<asrwt>0</asrwt>
<pdfrwt beam="1">  1        1 0.14067094E+00 0.17581374E+04</pdfrwt>
<pdfrwt beam="2">  1       -1 0.13002131E+00 0.17581374E+04</pdfrwt>
<totfact> 0.85035298E+00</totfact>
</mgrwt>
</event>
<event>
 6    1  0.1614874E-005  0.1899507E+04  0.7818608E-02  0.8655102E-01
          2   -1    0    0  501    0  0.00000000000E+00  0.00000000000E+00  0.33109260853E+04  0.33109260853E+04  0.00000000000E+00 0. -1.
         -2   -1    0    0    0  501 -0.00000000000E+00 -0.00000000000E+00 -0.27244078229E+03  0.27244078229E+03  0.00000000000E+00 0.  1.
         23    2    1    2    0    0 -0.85042397211E+03 -0.22247276070E+03  0.85573934431E+03  0.12302636013E+04  0.92431821846E+02 0.  0.
         13    1    3    3    0    0 -0.42982740584E+03 -0.87851984059E+02  0.48161887189E+03  0.65148009001E+03  0.00000000000E+00 0.  1.
        -13    1    3    3    0    0 -0.42059656626E+03 -0.13462077664E+03  0.37412047242E+03  0.57878351129E+03  0.00000000000E+00 0. -1.
         22    1    1    2    0    0  0.85042397211E+03  0.22247276070E+03  0.21827459587E+04  0.23531032663E+04  0.00000000000E+00 0. -1.
<mgrwt>
<rscale>  0 0.18995066E+04</rscale>
<asrwt>0</asrwt>
<pdfrwt beam="1">  1        2 0.50937322E+00 0.18995066E+04</pdfrwt>
<pdfrwt beam="2">  1       -2 0.41913969E-01 0.18995066E+04</pdfrwt>
<totfact> 0.55626628E+00</totfact>
</mgrwt>
</event>
<event>
 6    1  0.1614874E-005  0.1778232E+04  0.7818608E-02  0.8717962E-01
         -2   -1    0    0    0  501 -0.00000000000E+00  0.00000000000E+00  0.31965068648E+03  0.31965068648E+03  0.00000000000E+00 0. -1.
          2   -1    0    0  501    0  0.00000000000E+00 -0.00000000000E+00 -0.24730973817E+04  0.24730973817E+04  0.00000000000E+00 0.  1.
         23    2    1    2    0    0 -0.77997028876E+03 -0.29991371301E+03 -0.62085467677E+03  0.10471421042E+04  0.11289007948E+03 0.  0.
         11    1    3    3    0    0 -0.29603631987E+03 -0.55922089998E+02 -0.22131252818E+03  0.37382351178E+03  0.00000000000E+00 0. -1.
        -11    1    3    3    0    0 -0.48393396890E+03 -0.24399162301E+03 -0.39954214858E+03  0.67331859238E+03  0.00000000000E+00 0.  1.
         22    1    1    2    0    0  0.77997028876E+03  0.29991371301E+03 -0.15325920185E+04  0.17456059641E+04  0.00000000000E+00 0.  1.
<mgrwt>
<rscale>  0 0.17782320E+04</rscale>
<asrwt>0</asrwt>
<pdfrwt beam="1">  1        2 0.38047652E+00 0.17782320E+04</pdfrwt>
<pdfrwt beam="2">  1       -2 0.49177029E-01 0.17782320E+04</pdfrwt>
<totfact> 0.13373538E+01</totfact>
</mgrwt>
</event>
<event>
 6    1  0.1614874E-005  0.4518951E+04  0.7818608E-02  0.7907327E-01
         -2   -1    0    0    0  501 -0.00000000000E+00  0.00000000000E+00  0.13321831724E+04  0.13321831724E+04  0.00000000000E+00 0.  1.
          2   -1    0    0  501    0  0.00000000000E+00 -0.00000000000E+00 -0.38322286740E+04  0.38322286740E+04  0.00000000000E+00 0. -1.
         23    2    1    2    0    0  0.18008038185E+04 -0.13473719817E+04 -0.14861402052E+04  0.26973671366E+04  0.94186572286E+02 0.  0.
         13    1    3    3    0    0  0.11459611342E+04 -0.82961617804E+03 -0.88682512809E+03  0.16697151648E+04  0.00000000000E+00 0. -1.
        -13    1    3    3    0    0  0.65484268437E+03 -0.51775580367E+03 -0.59931507710E+03  0.10276519718E+04  0.00000000000E+00 0.  1.
         22    1    1    2    0    0 -0.18008038185E+04  0.13473719817E+04 -0.10139052964E+04  0.24670447098E+04  0.00000000000E+00 0.  1.
<mgrwt>
<rscale>  0 0.45189515E+04</rscale>
<asrwt>0</asrwt>
<pdfrwt beam="1">  1        2 0.58957364E+00 0.45189515E+04</pdfrwt>
<pdfrwt beam="2">  1       -2 0.20495126E+00 0.45189515E+04</pdfrwt>
<totfact> 0.43194308E-02</totfact>
</mgrwt>
</event>
<event>
 6    1  0.1614874E-005  0.1628144E+04  0.7818608E-02  0.8803443E-01
         -1   -1    0    0    0  501 -0.00000000000E+00  0.00000000000E+00  0.41431753057E+03  0.41431753057E+03  0.00000000000E+00 0. -1.
          1   -1    0    0  501    0  0.00000000000E+00 -0.00000000000E+00 -0.15995288029E+04  0.15995288029E+04  0.00000000000E+00 0.  1.
         23    2    1    2    0    0  0.68111011250E+03  0.42627410021E+03 -0.73453331475E+03  0.10925802398E+04  0.92583994798E+02 0.  0.
         11    1    3    3    0    0  0.17632921112E+03  0.86052858403E+02 -0.22683799647E+03  0.29992092587E+03  0.00000000000E+00 0. -1.
        -11    1    3    3    0    0  0.50478090138E+03  0.34022124180E+03 -0.50769531828E+03  0.79265931394E+03  0.00000000000E+00 0.  1.
         22    1    1    2    0    0 -0.68111011250E+03 -0.42627410021E+03 -0.45067795756E+03  0.92126609364E+03  0.00000000000E+00 0. -1.
<mgrwt>
<rscale>  0 0.16281435E+04</rscale>
<asrwt>0</asrwt>
<pdfrwt beam="1">  1        1 0.24608135E+00 0.16281435E+04</pdfrwt>
<pdfrwt beam="2">  1       -1 0.63741160E-01 0.16281435E+04</pdfrwt>
<totfact> 0.13343695E+01</totfact>
</mgrwt>
</event>
<event>
 6    1  0.1614874E-005  0.4337030E+04  0.7818608E-02  0.7939806E-01
         -2   -1    0    0    0  501 -0.00000000000E+00  0.00000000000E+00  0.10081303149E+04  0.10081303149E+04  0.00000000000E+00 0.  1.
          2   -1    0    0  501    0  0.00000000000E+00 -0.00000000000E+00 -0.46645338936E+04  0.46645338936E+04  0.00000000000E+00 0. -1.
         23    2    1    2    0    0  0.76348203679E+03 -0.17424573888E+04 -0.31876841698E+04  0.37133887158E+04  0.94142531622E+02 0.  0.
         11    1    3    3    0    0  0.35961662158E+03 -0.71688150305E+03 -0.13025781590E+04  0.15296905126E+04  0.00000000000E+00 0. -1.
        -11    1    3    3    0    0  0.40386541521E+03 -0.10255758857E+04 -0.18851060107E+04  0.21836982032E+04  0.00000000000E+00 0.  1.
         22    1    1    2    0    0 -0.76348203679E+03  0.17424573888E+04 -0.46871940887E+03  0.19592754927E+04  0.00000000000E+00 0.  1.
<mgrwt>
<rscale>  0 0.43370303E+04</rscale>
<asrwt>0</asrwt>
<pdfrwt beam="1">  1        2 0.71762061E+00 0.43370303E+04</pdfrwt>
<pdfrwt beam="2">  1       -2 0.15509697E+00 0.43370303E+04</pdfrwt>
<totfact> 0.17441920E-02</totfact>
</mgrwt>
</event>
<event>
 6    1  0.1614874E-005  0.5378426E+03  0.7818608E-02  0.1004348E+00
         -1   -1    0    0    0  501 -0.00000000000E+00  0.00000000000E+00  0.69579509050E+03  0.69579509050E+03  0.00000000000E+00 0.  1.
          1   -1    0    0  501    0  0.00000000000E+00 -0.00000000000E+00 -0.10393670981E+03  0.10393670981E+03  0.00000000000E+00 0. -1.
         23    2    1    2    0    0  0.65561434176E+02 -0.21269089753E+03  0.98036537384E+02  0.25807163704E+03  0.86337058333E+02 0.  0.
         13    1    3    3    0    0 -0.28922109608E+01 -0.82450075835E+02  0.23010399217E+01  0.82532870265E+02  0.00000000000E+00 0. -1.
        -13    1    3    3    0    0  0.68453645137E+02 -0.13024082169E+03  0.95735497463E+02  0.17553876678E+03  0.00000000000E+00 0.  1.
         22    1    1    2    0    0 -0.65561434176E+02  0.21269089753E+03  0.49382184331E+03  0.54166016327E+03  0.00000000000E+00 0.  1.
<mgrwt>
<rscale>  0 0.53784255E+03</rscale>
<asrwt>0</asrwt>
<pdfrwt beam="1">  1        1 0.15990263E-01 0.53784255E+03</pdfrwt>
<pdfrwt beam="2">  1       -1 0.10704540E+00 0.53784255E+03</pdfrwt>
<totfact> 0.29330018E+02</totfact>
</mgrwt>
</event>
<event>
 6    1  0.1614874E-005  0.3495756E+03  0.7818608E-02  0.1062789E+00
          2   -1    0    0  501    0  0.00000000000E+00  0.00000000000E+00  0.48100647497E+03  0.48100647497E+03  0.00000000000E+00 0.  1.
         -2   -1    0    0    0  501 -0.00000000000E+00 -0.00000000000E+00 -0.63514265576E+02  0.63514265576E+02  0.00000000000E+00 0. -1.
         23    2    1    2    0    0  0.46121794613E+02  0.95973771511E+02  0.30652176601E+02  0.14329337891E+03  0.90858415965E+02 0.  0.
         11    1    3    3    0    0  0.10607587604E+02  0.88463121215E+02  0.49991285604E+02  0.10216346395E+03  0.00000000000E+00 0. -1.
        -11    1    3    3    0    0  0.35514207009E+02  0.75106502960E+01 -0.19339109003E+02  0.41129914957E+02  0.00000000000E+00 0.  1.
         22    1    1    2    0    0 -0.46121794613E+02 -0.95973771511E+02  0.38684003279E+03  0.40122736164E+03  0.00000000000E+00 0.  1.
<mgrwt>
<rscale>  0 0.34957559E+03</rscale>
<asrwt>0</asrwt>
<pdfrwt beam="1">  1        2 0.74000994E-01 0.34957559E+03</pdfrwt>
<pdfrwt beam="2">  1       -2 0.97714258E-02 0.34957559E+03</pdfrwt>
<totfact> 0.44944294E+03</totfact>
</mgrwt>
</event>
<event>
 6    1  0.1614874E-005  0.3599598E+04  0.7818608E-02  0.8090584E-01
          1   -1    0    0  501    0  0.00000000000E+00  0.00000000000E+00  0.15476944855E+04  0.15476944855E+04  0.00000000000E+00 0. -1.
         -1   -1    0    0    0  501 -0.00000000000E+00 -0.00000000000E+00 -0.20929690874E+04  0.20929690874E+04  0.00000000000E+00 0.  1.
         23    2    1    2    0    0 -0.55389366846E+03 -0.75854037975E+03 -0.18242242210E+04  0.20538763056E+04  0.91826828226E+02 0.  0.
         11    1    3    3    0    0 -0.12240021276E+03 -0.11912228742E+03 -0.28740991100E+03  0.33432975995E+03  0.00000000000E+00 0.  1.
        -11    1    3    3    0    0 -0.43149345570E+03 -0.63941809233E+03 -0.15368143100E+04  0.17195465456E+04  0.00000000000E+00 0. -1.
         22    1    1    2    0    0  0.55389366846E+03  0.75854037975E+03  0.12789496191E+04  0.15867872673E+04  0.00000000000E+00 0. -1.
<mgrwt>
<rscale>  0 0.35995982E+04</rscale>
<asrwt>0</asrwt>
<pdfrwt beam="1">  1        1 0.23810684E+00 0.35995982E+04</pdfrwt>
<pdfrwt beam="2">  1       -1 0.32199524E+00 0.35995982E+04</pdfrwt>
<totfact> 0.11648082E-01</totfact>
</mgrwt>
</event>
<event>
 6    1  0.1614874E-005  0.8703163E+03  0.7818608E-02  0.9463468E-01
         -1   -1    0    0    0  501 -0.00000000000E+00  0.00000000000E+00  0.18101607841E+03  0.18101607841E+03  0.00000000000E+00 0.  1.
          1   -1    0    0  501    0  0.00000000000E+00 -0.00000000000E+00 -0.10461094010E+04  0.10461094010E+04  0.00000000000E+00 0. -1.
         23    2    1    2    0    0  0.27271161555E+02  0.25914090097E+03 -0.92022907581E+03  0.96078420573E+03  0.91580648679E+02 0.  0.
         13    1    3    3    0    0 -0.23639200593E+02  0.14379003155E+03 -0.40720234018E+03  0.43249061357E+03  0.00000000000E+00 0. -1.
        -13    1    3    3    0    0  0.50910362148E+02  0.11535086942E+03 -0.51302673563E+03  0.52829359216E+03  0.00000000000E+00 0.  1.
         22    1    1    2    0    0 -0.27271161555E+02 -0.25914090097E+03  0.55135753176E+02  0.26634127372E+03  0.00000000000E+00 0.  1.
<mgrwt>
<rscale>  0 0.87031631E+03</rscale>
<asrwt>0</asrwt>
<pdfrwt beam="1">  1        1 0.16093991E+00 0.87031631E+03</pdfrwt>
<pdfrwt beam="2">  1       -1 0.27848628E-01 0.87031631E+03</pdfrwt>
<totfact> 0.16316568E+02</totfact>
</mgrwt>
</event>
<event>
 6    1  0.1614874E-005  0.2375900E+04  0.7818608E-02  0.8448582E-01
         -2   -1    0    0    0  501 -0.00000000000E+00  0.00000000000E+00  0.61360242272E+03  0.61360242272E+03  0.00000000000E+00 0. -1.
          2   -1    0    0  501    0  0.00000000000E+00 -0.00000000000E+00 -0.22999018252E+04  0.22999018252E+04  0.00000000000E+00 0.  1.
         23    2    1    2    0    0 -0.28411057339E+03 -0.41260229228E+03 -0.21631745625E+04  0.22218617191E+04  0.79911459147E+02 0.  0.
         13    1    3    3    0    0 -0.14268611596E+03 -0.15396866425E+03 -0.79086551598E+03  0.81825053720E+03  0.00000000000E+00 0.  1.
        -13    1    3    3    0    0 -0.14142445743E+03 -0.25863362802E+03 -0.13723090465E+04  0.14036111819E+04  0.00000000000E+00 0. -1.
         22    1    1    2    0    0  0.28411057339E+03  0.41260229228E+03  0.47687516001E+03  0.69164252887E+03  0.00000000000E+00 0. -1.
<mgrwt>
<rscale>  0 0.23759001E+04</rscale>
<asrwt>0</asrwt>
<pdfrwt beam="1">  1        2 0.35383105E+00 0.23759001E+04</pdfrwt>
<pdfrwt beam="2">  1       -2 0.94400373E-01 0.23759001E+04</pdfrwt>
<totfact> 0.38637879E+00</totfact>
</mgrwt>
</event>
<event>
 6    1  0.1614874E-005  0.2756217E+04  0.7818608E-02  0.8316992E-01
          1   -1    0    0  501    0  0.00000000000E+00  0.00000000000E+00  0.22321043370E+04  0.22321043370E+04  0.00000000000E+00 0. -1.
         -1   -1    0    0    0  501 -0.00000000000E+00 -0.00000000000E+00 -0.85084875287E+03  0.85084875287E+03  0.00000000000E+00 0.  1.
         23    2    1    2    0    0 -0.47348250405E+03  0.74426955217E+03  0.18736705169E+04  0.20727079147E+04  0.85755734751E+02 0.  0.
         11    1    3    3    0    0 -0.31474154815E+03  0.45026540703E+03  0.10839989296E+04  0.12152591733E+04  0.00000000000E+00 0.  1.
        -11    1    3    3    0    0 -0.15874095590E+03  0.29400414514E+03  0.78967158727E+03  0.85744874143E+03  0.00000000000E+00 0. -1.
         22    1    1    2    0    0  0.47348250405E+03 -0.74426955217E+03 -0.49241493274E+03  0.10102451752E+04  0.00000000000E+00 0.  1.
<mgrwt>
<rscale>  0 0.27562171E+04</rscale>
<asrwt>0</asrwt>
<pdfrwt beam="1">  1        1 0.34340066E+00 0.27562171E+04</pdfrwt>
<pdfrwt beam="2">  1       -1 0.13089981E+00 0.27562171E+04</pdfrwt>
<totfact> 0.89676169E-01</totfact>
</mgrwt>
</event>
<event>
 6    1  0.1614874E-005  0.1307847E+04  0.7818608E-02  0.9023365E-01
         -2   -1    0    0    0  501 -0.00000000000E+00  0.00000000000E+00  0.14611818082E+03  0.14611818082E+03  0.00000000000E+00 0. -1.
          2   -1    0    0  501    0  0.00000000000E+00 -0.00000000000E+00 -0.29265073055E+04  0.29265073055E+04  0.00000000000E+00 0.  1.
         23    2    1    2    0    0  0.25459614899E+03 -0.54868507509E+03 -0.19620812685E+04  0.20550291724E+04  0.86645740268E+02 0.  0.
         13    1    3    3    0    0  0.10881307549E+03 -0.30612537379E+03 -0.94378921030E+03  0.99814382899E+03  0.00000000000E+00 0. -1.
        -13    1    3    3    0    0  0.14578307349E+03 -0.24255970130E+03 -0.10182920582E+04  0.10568853434E+04  0.00000000000E+00 0.  1.
         22    1    1    2    0    0 -0.25459614899E+03  0.54868507509E+03 -0.81830785613E+03  0.10175963139E+04  0.00000000000E+00 0. -1.
<mgrwt>
<rscale>  0 0.13078470E+04</rscale>
<asrwt>0</asrwt>
<pdfrwt beam="1">  1        2 0.45023185E+00 0.13078470E+04</pdfrwt>
<pdfrwt beam="2">  1       -2 0.22479722E-01 0.13078470E+04</pdfrwt>
<totfact> 0.33263176E+01</totfact>
</mgrwt>
</event>
<event>
 6    1  0.1614874E-005  0.2208644E+04  0.7818608E-02  0.8514839E-01
          1   -1    0    0  501    0  0.00000000000E+00  0.00000000000E+00  0.30147819350E+04  0.30147819350E+04  0.00000000000E+00 0. -1.
         -1   -1    0    0    0  501 -0.00000000000E+00 -0.00000000000E+00 -0.40451598993E+03  0.40451598993E+03  0.00000000000E+00 0.  1.
         23    2    1    2    0    0 -0.24041692747E+03 -0.10174743667E+04  0.18487472055E+04  0.21258663741E+04  0.91581794889E+02 0.  0.
         13    1    3    3    0    0 -0.97396160130E+02 -0.26044882469E+03  0.44987047078E+03  0.52886958957E+03  0.00000000000E+00 0. -1.
        -13    1    3    3    0    0 -0.14302076734E+03 -0.75702554198E+03  0.13988767347E+04  0.15969967846E+04  0.00000000000E+00 0.  1.
         22    1    1    2    0    0  0.24041692747E+03  0.10174743667E+04  0.76151873966E+03  0.12934315508E+04  0.00000000000E+00 0.  1.
<mgrwt>
<rscale>  0 0.22086444E+04</rscale>
<asrwt>0</asrwt>
<pdfrwt beam="1">  1        1 0.46381259E+00 0.22086444E+04</pdfrwt>
<pdfrwt beam="2">  1       -1 0.62233231E-01 0.22086444E+04</pdfrwt>
<totfact> 0.13923803E+00</totfact>
</mgrwt>
</event>
<event>
 6    1  0.1614874E-005  0.2320118E+04  0.7818608E-02  0.8470031E-01
          2   -1    0    0  501    0  0.00000000000E+00  0.00000000000E+00  0.23555891859E+04  0.23555891859E+04  0.00000000000E+00 0. -1.
         -2   -1    0    0    0  501 -0.00000000000E+00 -0.00000000000E+00 -0.57129533181E+03  0.57129533181E+03  0.00000000000E+00 0.  1.
         23    2    1    2    0    0 -0.72337325894E+03 -0.49555010799E+03 -0.62305480398E+02  0.88268103385E+03  0.80031577222E+02 0.  0.
         13    1    3    3    0    0 -0.35334170053E+03 -0.28845496601E+03 -0.20681428972E+02  0.45660086099E+03  0.00000000000E+00 0. -1.
        -13    1    3    3    0    0 -0.37003155841E+03 -0.20709514199E+03 -0.41624051427E+02  0.42608017287E+03  0.00000000000E+00 0.  1.
         22    1    1    2    0    0  0.72337325894E+03  0.49555010799E+03  0.18465993345E+04  0.20442034838E+04  0.00000000000E+00 0. -1.
<mgrwt>
<rscale>  0 0.23201182E+04</rscale>
<asrwt>0</asrwt>
<pdfrwt beam="1">  1        2 0.36239833E+00 0.23201182E+04</pdfrwt>
<pdfrwt beam="2">  1       -2 0.87891591E-01 0.23201182E+04</pdfrwt>
<totfact> 0.42576166E+00</totfact>
</mgrwt>
</event>
<event>
 6    1  0.1614874E-005  0.1640841E+04  0.7818608E-02  0.8795843E-01
         -2   -1    0    0    0  501 -0.00000000000E+00  0.00000000000E+00  0.39208914416E+03  0.39208914416E+03  0.00000000000E+00 0.  1.
          2   -1    0    0  501    0  0.00000000000E+00 -0.00000000000E+00 -0.17166759951E+04  0.17166759951E+04  0.00000000000E+00 0. -1.
         23    2    1    2    0    0 -0.33824407115E+03 -0.72294533923E+03 -0.89347986364E+03  0.12016200298E+04  0.92333168474E+02 0.  0.
         13    1    3    3    0    0 -0.15522970927E+03 -0.37580007427E+03 -0.51771523450E+03  0.65829402435E+03  0.00000000000E+00 0. -1.
        -13    1    3    3    0    0 -0.18301436188E+03 -0.34714526496E+03 -0.37576462914E+03  0.54332600541E+03  0.00000000000E+00 0.  1.
         22    1    1    2    0    0  0.33824407115E+03  0.72294533923E+03 -0.43110698731E+03  0.90714510950E+03  0.00000000000E+00 0. -1.
<mgrwt>
<rscale>  0 0.16408413E+04</rscale>
<asrwt>0</asrwt>
<pdfrwt beam="1">  1        2 0.26410400E+00 0.16408413E+04</pdfrwt>
<pdfrwt beam="2">  1       -2 0.60321406E-01 0.16408413E+04</pdfrwt>
<totfact> 0.23496619E+01</totfact>
</mgrwt>
</event>
<event>
 6    1  0.1614874E-005  0.5116686E+03  0.7818608E-02  0.1010777E+00
          2   -1    0    0  501    0  0.00000000000E+00  0.00000000000E+00  0.38269294376E+03  0.38269294376E+03  0.00000000000E+00 0. -1.
         -2   -1    0    0    0  501 -0.00000000000E+00 -0.00000000000E+00 -0.17102794146E+03  0.17102794146E+03  0.00000000000E+00 0.  1.
         23    2    1    2    0    0 -0.19379565392E+02  0.10981354950E+03 -0.12577850606E+03  0.19832996729E+03  0.10526138955E+03 0.  0.
         13    1    3    3    0    0 -0.33821445119E+01  0.81784699268E+02 -0.15349022119E+02  0.83281260893E+02  0.00000000000E+00 0. -1.
        -13    1    3    3    0    0 -0.15997420880E+02  0.28028850236E+02 -0.11042948394E+03  0.11504870640E+03  0.00000000000E+00 0.  1.
         22    1    1    2    0    0  0.19379565392E+02 -0.10981354950E+03  0.33744350837E+03  0.35539091793E+03  0.00000000000E+00 0. -1.
<mgrwt>
<rscale>  0 0.51166859E+03</rscale>
<asrwt>0</asrwt>
<pdfrwt beam="1">  1        2 0.58875837E-01 0.51166859E+03</pdfrwt>
<pdfrwt beam="2">  1       -2 0.26311991E-01 0.51166859E+03</pdfrwt>
<totfact> 0.10928807E+03</totfact>
</mgrwt>
</event>
<event>
 6    1  0.1614874E-005  0.1912575E+04  0.7818608E-02  0.8648622E-01
          2   -1    0    0  501    0  0.00000000000E+00  0.00000000000E+00  0.76157569866E+03  0.76157569866E+03  0.00000000000E+00 0. -1.
         -2   -1    0    0    0  501 -0.00000000000E+00 -0.00000000000E+00 -0.12007815595E+04  0.12007815595E+04  0.00000000000E+00 0.  1.
         23    2    1    2    0    0 -0.69653773269E+03  0.45607112024E+03  0.25815530027E+03  0.87631938183E+03  0.90143331028E+02 0.  0.
         13    1    3    3    0    0 -0.53734498207E+03  0.38903808061E+03  0.22442706313E+03  0.70032689837E+03  0.00000000000E+00 0. -1.
        -13    1    3    3    0    0 -0.15919275062E+03  0.67033039637E+02  0.33728237150E+02  0.17599248346E+03  0.00000000000E+00 0.  1.
         22    1    1    2    0    0  0.69653773269E+03 -0.45607112024E+03 -0.69736116110E+03  0.10860378763E+04  0.00000000000E+00 0. -1.
<mgrwt>
<rscale>  0 0.19125753E+04</rscale>
<asrwt>0</asrwt>
<pdfrwt beam="1">  1        2 0.11716549E+00 0.19125753E+04</pdfrwt>
<pdfrwt beam="2">  1       -2 0.18473562E+00 0.19125753E+04</pdfrwt>
<totfact> 0.57829975E+00</totfact>
</mgrwt>
</event>
<event>
 6    1  0.1614874E-005  0.3240994E+04  0.7818608E-02  0.8178074E-01
         -2   -1    0    0    0  501 -0.00000000000E+00  0.00000000000E+00  0.10377738939E+04  0.10377738939E+04  0.00000000000E+00 0.  1.
          2   -1    0    0  501    0  0.00000000000E+00 -0.00000000000E+00 -0.25304257262E+04  0.25304257262E+04  0.00000000000E+00 0. -1.
         23    2    1    2    0    0 -0.91642060713E+03  0.39107279678E+02 -0.22160156580E+04  0.24000338216E+04  0.89893489461E+02 0.  0.
         13    1    3    3    0    0 -0.18291503593E+03 -0.11124676071E+02 -0.36704431383E+03  0.41024772650E+03  0.00000000000E+00 0. -1.
        -13    1    3    3    0    0 -0.73350557120E+03  0.50231955749E+02 -0.18489713442E+04  0.19897860951E+04  0.00000000000E+00 0.  1.
         22    1    1    2    0    0  0.91642060713E+03 -0.39107279678E+02  0.72336382574E+03  0.11681657985E+04  0.00000000000E+00 0.  1.
<mgrwt>
<rscale>  0 0.32409935E+04</rscale>
<asrwt>0</asrwt>
<pdfrwt beam="1">  1        2 0.38929626E+00 0.32409935E+04</pdfrwt>
<pdfrwt beam="2">  1       -2 0.15965752E+00 0.32409935E+04</pdfrwt>
<totfact> 0.71051213E-01</totfact>
</mgrwt>
</event>
<event>
 6    1  0.1614874E-005  0.2653781E+04  0.7818608E-02  0.8350159E-01
         -1   -1    0    0    0  501 -0.00000000000E+00  0.00000000000E+00  0.15751618681E+04  0.15751618681E+04  0.00000000000E+00 0.  1.
          1   -1    0    0  501    0  0.00000000000E+00 -0.00000000000E+00 -0.11177506819E+04  0.11177506819E+04  0.00000000000E+00 0. -1.
         23    2    1    2    0    0 -0.10329652972E+04 -0.82822005963E+03  0.17015758524E+03  0.13381135229E+04  0.92889309197E+02 0.  0.
         11    1    3    3    0    0 -0.46400153453E+03 -0.31379296736E+03  0.65445949495E+02  0.56395622412E+03  0.00000000000E+00 0. -1.
        -11    1    3    3    0    0 -0.56896376270E+03 -0.51442709226E+03  0.10471163575E+03  0.77415729873E+03  0.00000000000E+00 0.  1.
         22    1    1    2    0    0  0.10329652972E+04  0.82822005963E+03  0.28725360096E+03  0.13547990271E+04  0.00000000000E+00 0.  1.
<mgrwt>
<rscale>  0 0.26537809E+04</rscale>
<asrwt>0</asrwt>
<pdfrwt beam="1">  1        1 0.17196164E+00 0.26537809E+04</pdfrwt>
<pdfrwt beam="2">  1       -1 0.24233260E+00 0.26537809E+04</pdfrwt>
<totfact> 0.84351647E-01</totfact>
</mgrwt>
</event>
<event>
 6    1  0.1614874E-005  0.9655535E+03  0.7818608E-02  0.9347153E-01
         -1   -1    0    0    0  501 -0.00000000000E+00  0.00000000000E+00  0.21271112393E+03  0.21271112393E+03  0.00000000000E+00 0.  1.
          1   -1    0    0  501    0  0.00000000000E+00 -0.00000000000E+00 -0.10957273479E+04  0.10957273479E+04  0.00000000000E+00 0. -1.
         23    2    1    2    0    0  0.23547309917E+03  0.33128950339E+03 -0.78757636143E+03  0.89093507921E+03  0.91041061007E+02 0.  0.
         13    1    3    3    0    0  0.11977352668E+03  0.11722296040E+03 -0.39470180157E+03  0.42880815326E+03  0.00000000000E+00 0. -1.
        -13    1    3    3    0    0  0.11569957249E+03  0.21406654299E+03 -0.39287455986E+03  0.46212692595E+03  0.00000000000E+00 0.  1.
         22    1    1    2    0    0 -0.23547309917E+03 -0.33128950339E+03 -0.95439862545E+02  0.41750339263E+03  0.00000000000E+00 0.  1.
<mgrwt>
<rscale>  0 0.96555351E+03</rscale>
<asrwt>0</asrwt>
<pdfrwt beam="1">  1        1 0.16857344E+00 0.96555351E+03</pdfrwt>
<pdfrwt beam="2">  1       -1 0.32724788E-01 0.96555351E+03</pdfrwt>
<totfact> 0.11212997E+02</totfact>
</mgrwt>
</event>
<event>
 6    1  0.1614874E-005  0.2516665E+04  0.7818608E-02  0.8397073E-01
         -2   -1    0    0    0  501 -0.00000000000E+00  0.00000000000E+00  0.12285890786E+04  0.12285890786E+04  0.00000000000E+00 0.  1.
          2   -1    0    0  501    0  0.00000000000E+00 -0.00000000000E+00 -0.12887958285E+04  0.12887958285E+04  0.00000000000E+00 0. -1.
         23    2    1    2    0    0 -0.44703146705E+03  0.10632696024E+04  0.46885234296E+03  0.12484156783E+04  0.91322539890E+02 0.  0.
         13    1    3    3    0    0 -0.35173268343E+03  0.74562215009E+03  0.35737021466E+03  0.89854423465E+03  0.00000000000E+00 0.  1.
        -13    1    3    3    0    0 -0.95298783621E+02  0.31764745233E+03  0.11148212830E+03  0.34987144362E+03  0.00000000000E+00 0. -1.
         22    1    1    2    0    0  0.44703146705E+03 -0.10632696024E+04 -0.52905909283E+03  0.12689692288E+04  0.00000000000E+00 0. -1.
<mgrwt>
<rscale>  0 0.25166648E+04</rscale>
<asrwt>0</asrwt>
<pdfrwt beam="1">  1        2 0.19827628E+00 0.25166648E+04</pdfrwt>
<pdfrwt beam="2">  1       -2 0.18901370E+00 0.25166648E+04</pdfrwt>
<totfact> 0.23526508E+00</totfact>
</mgrwt>
</event>
<event>
 6    1  0.1614874E-005  0.1212828E+04  0.7818608E-02  0.9101702E-01
          2   -1    0    0  501    0  0.00000000000E+00  0.00000000000E+00  0.47825786493E+03  0.47825786493E+03  0.00000000000E+00 0.  1.
         -2   -1    0    0    0  501 -0.00000000000E+00 -0.00000000000E+00 -0.76891107863E+03  0.76891107863E+03  0.00000000000E+00 0. -1.
         23    2    1    2    0    0 -0.45636013777E+03  0.24196637475E+03  0.17390813988E+03  0.55245349599E+03  0.90269165631E+02 0.  0.
         13    1    3    3    0    0 -0.28140327090E+03  0.11019417817E+03  0.70918643469E+02  0.31041909054E+03  0.00000000000E+00 0.  1.
        -13    1    3    3    0    0 -0.17495686687E+03  0.13177219657E+03  0.10298949641E+03  0.24203440546E+03  0.00000000000E+00 0. -1.
         22    1    1    2    0    0  0.45636013777E+03 -0.24196637475E+03 -0.46456135358E+03  0.69471544757E+03  0.00000000000E+00 0. -1.
<mgrwt>
<rscale>  0 0.12128277E+04</rscale>
<asrwt>0</asrwt>
<pdfrwt beam="1">  1        2 0.73578133E-01 0.12128277E+04</pdfrwt>
<pdfrwt beam="2">  1       -2 0.11829401E+00 0.12128277E+04</pdfrwt>
<totfact> 0.35164205E+01</totfact>
</mgrwt>
</event>
<event>
 6    1  0.1614874E-005  0.1424426E+04  0.7818608E-02  0.8936325E-01
          2   -1    0    0  501    0  0.00000000000E+00  0.00000000000E+00  0.67015309713E+03  0.67015309713E+03  0.00000000000E+00 0. -1.
         -2   -1    0    0    0  501 -0.00000000000E+00 -0.00000000000E+00 -0.75691238148E+03  0.75691238148E+03  0.00000000000E+00 0.  1.
         23    2    1    2    0    0  0.27709213712E+02 -0.11751638569E+03 -0.74374376999E+03  0.75907856572E+03  0.92019411589E+02 0.  0.
         11    1    3    3    0    0 -0.22542374266E+02 -0.51014782746E+02 -0.45928827179E+03  0.46266227781E+03  0.00000000000E+00 0. -1.
        -11    1    3    3    0    0  0.50251587978E+02 -0.66501602944E+02 -0.28445549820E+03  0.29641628792E+03  0.00000000000E+00 0.  1.
         22    1    1    2    0    0 -0.27709213712E+02  0.11751638569E+03  0.65698448563E+03  0.66798691289E+03  0.00000000000E+00 0. -1.
<mgrwt>
<rscale>  0 0.14244257E+04</rscale>
<asrwt>0</asrwt>
<pdfrwt beam="1">  1        2 0.10310048E+00 0.14244257E+04</pdfrwt>
<pdfrwt beam="2">  1       -2 0.11644806E+00 0.14244257E+04</pdfrwt>
<totfact> 0.24048066E+01</totfact>
</mgrwt>
</event>
<event>
 6    1  0.1614874E-005  0.3295911E+04  0.7818608E-02  0.8163937E-01
          2   -1    0    0  501    0  0.00000000000E+00  0.00000000000E+00  0.38170246821E+04  0.38170246821E+04  0.00000000000E+00 0. -1.
         -2   -1    0    0    0  501 -0.00000000000E+00 -0.00000000000E+00 -0.71148537023E+03  0.71148537023E+03  0.00000000000E+00 0.  1.
         23    2    1    2    0    0  0.12905433923E+04 -0.17533969722E+03  0.16939715605E+03  0.13164737798E+04  0.90341351171E+02 0.  0.
         13    1    3    3    0    0  0.10239172076E+04 -0.17268311139E+03  0.11985417844E+03  0.10452707444E+04  0.00000000000E+00 0.  1.
        -13    1    3    3    0    0  0.26662618467E+03 -0.26565858269E+01  0.49542977609E+02  0.27120303544E+03  0.00000000000E+00 0. -1.
         22    1    1    2    0    0 -0.12905433923E+04  0.17533969722E+03  0.29361421558E+04  0.32120362725E+04  0.00000000000E+00 0. -1.
<mgrwt>
<rscale>  0 0.32959109E+04</rscale>
<asrwt>0</asrwt>
<pdfrwt beam="1">  1        2 0.58723456E+00 0.32959109E+04</pdfrwt>
<pdfrwt beam="2">  1       -2 0.10945929E+00 0.32959109E+04</pdfrwt>
<totfact> 0.26430429E-01</totfact>
</mgrwt>
</event>
<event>
 6    1  0.1636309E-005  0.3430084E+04  0.7818608E-02  0.8130562E-01
          2   -1    0    0  501    0  0.00000000000E+00  0.00000000000E+00  0.14449600314E+04  0.14449600314E+04  0.00000000000E+00 0. -1.
         -2   -1    0    0    0  501 -0.00000000000E+00 -0.00000000000E+00 -0.20356061979E+04  0.20356061979E+04  0.00000000000E+00 0.  1.
         23    2    1    2    0    0  0.91526512396E+03 -0.25437372999E+03 -0.17428350360E+04  0.19872626994E+04  0.96554813848E+02 0.  0.
         11    1    3    3    0    0  0.37269887642E+03 -0.14734509192E+03 -0.68640741788E+03  0.79483971461E+03  0.00000000000E+00 0.  1.
        -11    1    3    3    0    0  0.54256624755E+03 -0.10702863806E+03 -0.10564276181E+04  0.11924229848E+04  0.00000000000E+00 0. -1.
         22    1    1    2    0    0 -0.91526512396E+03  0.25437372999E+03  0.11521888695E+04  0.14933035300E+04  0.00000000000E+00 0. -1.
<mgrwt>
<rscale>  0 0.34300843E+04</rscale>
<asrwt>0</asrwt>
<pdfrwt beam="1">  1        2 0.22230154E+00 0.34300843E+04</pdfrwt>
<pdfrwt beam="2">  1       -2 0.31317018E+00 0.34300843E+04</pdfrwt>
<totfact> 0.29734116E-01</totfact>
</mgrwt>
</event>
<event>
 6    1  0.1614874E-005  0.1394713E+04  0.7818608E-02  0.8957654E-01
          2   -1    0    0  501    0  0.00000000000E+00  0.00000000000E+00  0.26695308806E+04  0.26695308806E+04  0.00000000000E+00 0. -1.
         -2   -1    0    0    0  501 -0.00000000000E+00 -0.00000000000E+00 -0.18216917351E+03  0.18216917351E+03  0.00000000000E+00 0.  1.
         23    2    1    2    0    0  0.84329939456E+02 -0.16669378128E+03  0.26165279774E+04  0.26245827259E+04  0.85542230373E+02 0.  0.
         11    1    3    3    0    0  0.81200323799E+02 -0.10587666656E+03  0.13462998017E+04  0.13528956047E+04  0.00000000000E+00 0. -1.
        -11    1    3    3    0    0  0.31296156578E+01 -0.60817114726E+02  0.12702281757E+04  0.12716871212E+04  0.00000000000E+00 0.  1.
         22    1    1    2    0    0 -0.84329939456E+02  0.16669378128E+03 -0.12916627029E+03  0.22711732824E+03  0.00000000000E+00 0.  1.
<mgrwt>
<rscale>  0 0.13947132E+04</rscale>
<asrwt>0</asrwt>
<pdfrwt beam="1">  1        2 0.41069703E+00 0.13947132E+04</pdfrwt>
<pdfrwt beam="2">  1       -2 0.28026029E-01 0.13947132E+04</pdfrwt>
<totfact> 0.31538729E+01</totfact>
</mgrwt>
</event>
<event>
 6    1  0.1614874E-005  0.1168710E+04  0.7818608E-02  0.9140694E-01
          1   -1    0    0  501    0  0.00000000000E+00  0.00000000000E+00  0.32982176662E+04  0.32982176662E+04  0.00000000000E+00 0. -1.
         -1   -1    0    0    0  501 -0.00000000000E+00 -0.00000000000E+00 -0.10353195836E+03  0.10353195836E+03  0.00000000000E+00 0.  1.
         23    2    1    2    0    0 -0.34015250860E+03  0.42992260725E+03  0.10502769537E+04  0.11883752590E+04  0.92827255734E+02 0.  0.
         13    1    3    3    0    0 -0.28629614625E+03  0.30319559467E+03  0.75299501097E+03  0.86075230963E+03  0.00000000000E+00 0. -1.
        -13    1    3    3    0    0 -0.53856362348E+02  0.12672701258E+03  0.29728194278E+03  0.32762294942E+03  0.00000000000E+00 0.  1.
         22    1    1    2    0    0  0.34015250860E+03 -0.42992260725E+03  0.21444087541E+04  0.22133743655E+04  0.00000000000E+00 0.  1.
<mgrwt>
<rscale>  0 0.11687103E+04</rscale>
<asrwt>0</asrwt>
<pdfrwt beam="1">  1        1 0.50741802E+00 0.11687103E+04</pdfrwt>
<pdfrwt beam="2">  1       -1 0.15927996E-01 0.11687103E+04</pdfrwt>
<totfact> 0.10812218E+01</totfact>
</mgrwt>
</event>
<event>
 6    1  0.1614874E-005  0.2021870E+04  0.7818608E-02  0.8596464E-01
          2   -1    0    0  501    0  0.00000000000E+00  0.00000000000E+00  0.18098185889E+04  0.18098185889E+04  0.00000000000E+00 0. -1.
         -2   -1    0    0    0  501 -0.00000000000E+00 -0.00000000000E+00 -0.56469157099E+03  0.56469157099E+03  0.00000000000E+00 0.  1.
         23    2    1    2    0    0 -0.62863093655E+03  0.78797629057E+03  0.67260010499E+03  0.12152558501E+04  0.91500770333E+02 0.  0.
         11    1    3    3    0    0 -0.38657747634E+03  0.50386165112E+03  0.37191123515E+03  0.73595969694E+03  0.00000000000E+00 0.  1.
        -11    1    3    3    0    0 -0.24205346021E+03  0.28411463945E+03  0.30068886984E+03  0.47929615311E+03  0.00000000000E+00 0. -1.
         22    1    1    2    0    0  0.62863093655E+03 -0.78797629057E+03  0.57252691296E+03  0.11592543099E+04  0.00000000000E+00 0.  1.
<mgrwt>
<rscale>  0 0.20218697E+04</rscale>
<asrwt>0</asrwt>
<pdfrwt beam="1">  1        2 0.27843363E+00 0.20218697E+04</pdfrwt>
<pdfrwt beam="2">  1       -2 0.86875627E-01 0.20218697E+04</pdfrwt>
<totfact> 0.90582713E+00</totfact>
</mgrwt>
</event>
<event>
 6    1  0.1614874E-005  0.7696975E+03  0.7818608E-02  0.9604945E-01
          2   -1    0    0  501    0  0.00000000000E+00  0.00000000000E+00  0.17445933065E+03  0.17445933065E+03  0.00000000000E+00 0.  1.
         -2   -1    0    0    0  501 -0.00000000000E+00 -0.00000000000E+00 -0.84895747650E+03  0.84895747650E+03  0.00000000000E+00 0. -1.
         23    2    1    2    0    0 -0.14702502654E+03  0.18329182185E+03 -0.73790439059E+03  0.78003931793E+03  0.93521107067E+02 0.  0.
         13    1    3    3    0    0 -0.80249526966E+02  0.70247798397E+02 -0.20363049077E+03  0.22986978168E+03  0.00000000000E+00 0. -1.
        -13    1    3    3    0    0 -0.66775499576E+02  0.11304402345E+03 -0.53427389982E+03  0.55016953625E+03  0.00000000000E+00 0.  1.
         22    1    1    2    0    0  0.14702502654E+03 -0.18329182185E+03  0.63406244745E+02  0.24337748922E+03  0.00000000000E+00 0.  1.
<mgrwt>
<rscale>  0 0.76969748E+03</rscale>
<asrwt>0</asrwt>
<pdfrwt beam="1">  1        2 0.26839897E-01 0.76969748E+03</pdfrwt>
<pdfrwt beam="2">  1       -2 0.13060884E+00 0.76969748E+03</pdfrwt>
<totfact> 0.87461175E+01</totfact>
</mgrwt>
</event>
<event>
 6    1  0.1614874E-005  0.3632816E+04  0.7818608E-02  0.8083016E-01
          2   -1    0    0  501    0  0.00000000000E+00  0.00000000000E+00  0.32078854794E+04  0.32078854794E+04  0.00000000000E+00 0. -1.
         -2   -1    0    0    0  501 -0.00000000000E+00 -0.00000000000E+00 -0.10285086945E+04  0.10285086945E+04  0.00000000000E+00 0.  1.
         23    2    1    2    0    0 -0.23324926667E+03 -0.14872830137E+04  0.22730428266E+04  0.27280211066E+04  0.94654545390E+02 0.  0.
         11    1    3    3    0    0 -0.19372458659E+02 -0.36638784418E+03  0.52580960843E+03  0.64116385491E+03  0.00000000000E+00 0. -1.
        -11    1    3    3    0    0 -0.21387680801E+03 -0.11208951695E+04  0.17472332182E+04  0.20868572516E+04  0.00000000000E+00 0.  1.
         22    1    1    2    0    0  0.23324926667E+03  0.14872830137E+04 -0.93666041711E+02  0.15083730674E+04  0.00000000000E+00 0.  1.
<mgrwt>
<rscale>  0 0.36328160E+04</rscale>
<asrwt>0</asrwt>
<pdfrwt beam="1">  1        2 0.49352084E+00 0.36328160E+04</pdfrwt>
<pdfrwt beam="2">  1       -2 0.15823211E+00 0.36328160E+04</pdfrwt>
<totfact> 0.27014457E-01</totfact>
</mgrwt>
</event>
<event>
 6    1  0.1614874E-005  0.1788310E+04  0.7818608E-02  0.8712541E-01
         -1   -1    0    0    0  501 -0.00000000000E+00  0.00000000000E+00  0.12488594926E+04  0.12488594926E+04  0.00000000000E+00 0.  1.
          1   -1    0    0  501    0  0.00000000000E+00 -0.00000000000E+00 -0.64019468456E+03  0.64019468456E+03  0.00000000000E+00 0. -1.
         23    2    1    2    0    0 -0.77886387554E+02 -0.36181495511E+03  0.11620289170E+04  0.12233303695E+04  0.96175038303E+02 0.  0.
         11    1    3    3    0    0  0.10246876716E+02 -0.53594663135E+02  0.99312316631E+02  0.11331514741E+03  0.00000000000E+00 0. -1.
        -11    1    3    3    0    0 -0.88133264270E+02 -0.30822029198E+03  0.10627166003E+04  0.11100152221E+04  0.00000000000E+00 0.  1.
         22    1    1    2    0    0  0.77886387554E+02  0.36181495511E+03 -0.55336410889E+03  0.66572380769E+03  0.00000000000E+00 0. -1.
<mgrwt>
<rscale>  0 0.17883101E+04</rscale>
<asrwt>0</asrwt>
<pdfrwt beam="1">  1        1 0.98491490E-01 0.17883101E+04</pdfrwt>
<pdfrwt beam="2">  1       -1 0.19213223E+00 0.17883101E+04</pdfrwt>
<totfact> 0.50221879E+00</totfact>
</mgrwt>
</event>
<event>
 6    1  0.1614874E-005  0.1738698E+04  0.7818608E-02  0.8739596E-01
         -2   -1    0    0    0  501 -0.00000000000E+00  0.00000000000E+00  0.20690347476E+03  0.20690347476E+03  0.00000000000E+00 0. -1.
          2   -1    0    0  501    0  0.00000000000E+00 -0.00000000000E+00 -0.36527556965E+04  0.36527556965E+04  0.00000000000E+00 0.  1.
         23    2    1    2    0    0 -0.52009296647E+03  0.41614693046E+03 -0.29593977643E+04  0.30348483440E+04  0.92705892520E+02 0.  0.
         11    1    3    3    0    0 -0.42437428121E+03  0.29013963843E+03 -0.22932790518E+04  0.23501921942E+04  0.00000000000E+00 0. -1.
        -11    1    3    3    0    0 -0.95718685253E+02  0.12600729203E+03 -0.66611871247E+03  0.68465614980E+03  0.00000000000E+00 0.  1.
         22    1    1    2    0    0  0.52009296647E+03 -0.41614693046E+03 -0.48645445741E+03  0.82481082718E+03  0.00000000000E+00 0. -1.
<mgrwt>
<rscale>  0 0.17386982E+04</rscale>
<asrwt>0</asrwt>
<pdfrwt beam="1">  1        2 0.56196235E+00 0.17386982E+04</pdfrwt>
<pdfrwt beam="2">  1       -2 0.31831307E-01 0.17386982E+04</pdfrwt>
<totfact> 0.55648435E+00</totfact>
</mgrwt>
</event>
<event>
 6    1  0.1614874E-005  0.2127080E+04  0.7818608E-02  0.8549407E-01
         -2   -1    0    0    0  501 -0.00000000000E+00  0.00000000000E+00  0.60800586139E+03  0.60800586139E+03  0.00000000000E+00 0.  1.
          2   -1    0    0  501    0  0.00000000000E+00 -0.00000000000E+00 -0.18603720172E+04  0.18603720172E+04  0.00000000000E+00 0. -1.
         23    2    1    2    0    0 -0.65812497769E+03  0.75816165004E+03 -0.10250585695E+04  0.14390060737E+04  0.10979906870E+03 0.  0.
         13    1    3    3    0    0 -0.32763776141E+03  0.44382087953E+03 -0.60802494490E+03  0.82098587651E+03  0.00000000000E+00 0.  1.
        -13    1    3    3    0    0 -0.33048721628E+03  0.31434077051E+03 -0.41703362459E+03  0.61802019721E+03  0.00000000000E+00 0. -1.
         22    1    1    2    0    0  0.65812497769E+03 -0.75816165004E+03 -0.22730758631E+03  0.10293718049E+04  0.00000000000E+00 0.  1.
<mgrwt>
<rscale>  0 0.21270798E+04</rscale>
<asrwt>0</asrwt>
<pdfrwt beam="1">  1        2 0.28621108E+00 0.21270798E+04</pdfrwt>
<pdfrwt beam="2">  1       -2 0.93539362E-01 0.21270798E+04</pdfrwt>
<totfact> 0.70975919E+00</totfact>
</mgrwt>
</event>
<event>
 6    1  0.1614874E-005  0.1540943E+04  0.7818608E-02  0.8857674E-01
         -2   -1    0    0    0  501 -0.00000000000E+00  0.00000000000E+00  0.65431313141E+03  0.65431313141E+03  0.00000000000E+00 0.  1.
          2   -1    0    0  501    0  0.00000000000E+00 -0.00000000000E+00 -0.90725075131E+03  0.90725075131E+03  0.00000000000E+00 0. -1.
         23    2    1    2    0    0 -0.57209199436E+03  0.51126198447E+03 -0.10153155739E+03  0.77951410008E+03  0.93034984283E+02 0.  0.
         11    1    3    3    0    0 -0.18739655013E+03  0.17084113035E+03 -0.77912087253E+02  0.26528183534E+03  0.00000000000E+00 0. -1.
        -11    1    3    3    0    0 -0.38469544423E+03  0.34042085411E+03 -0.23619470134E+02  0.51423226474E+03  0.00000000000E+00 0.  1.
         22    1    1    2    0    0  0.57209199436E+03 -0.51126198447E+03 -0.15140606251E+03  0.78204978265E+03  0.00000000000E+00 0. -1.
<mgrwt>
<rscale>  0 0.15409427E+04</rscale>
<asrwt>0</asrwt>
<pdfrwt beam="1">  1        2 0.13957704E+00 0.15409427E+04</pdfrwt>
<pdfrwt beam="2">  1       -2 0.10066356E+00 0.15409427E+04</pdfrwt>
<totfact> 0.22712001E+01</totfact>
</mgrwt>
</event>
<event>
 6    1  0.1614874E-005  0.1809808E+04  0.7818608E-02  0.8701101E-01
          2   -1    0    0  501    0  0.00000000000E+00  0.00000000000E+00  0.67022497019E+03  0.67022497019E+03  0.00000000000E+00 0. -1.
         -2   -1    0    0    0  501 -0.00000000000E+00 -0.00000000000E+00 -0.12217561876E+04  0.12217561876E+04  0.00000000000E+00 0.  1.
         23    2    1    2    0    0 -0.29794718065E+03  0.74611067823E+03 -0.70639413275E+03  0.10737903554E+04  0.92624995739E+02 0.  0.
         13    1    3    3    0    0 -0.10272819651E+03  0.37739178905E+03 -0.32515360646E+03  0.50862806902E+03  0.00000000000E+00 0. -1.
        -13    1    3    3    0    0 -0.19521898414E+03  0.36871888919E+03 -0.38124052628E+03  0.56516228633E+03  0.00000000000E+00 0.  1.
         22    1    1    2    0    0  0.29794718065E+03 -0.74611067823E+03  0.15486291534E+03  0.81819080243E+03  0.00000000000E+00 0. -1.
<mgrwt>
<rscale>  0 0.18098083E+04</rscale>
<asrwt>0</asrwt>
<pdfrwt beam="1">  1        2 0.10311153E+00 0.18098083E+04</pdfrwt>
<pdfrwt beam="2">  1       -2 0.18796249E+00 0.18098083E+04</pdfrwt>
<totfact> 0.65262381E+00</totfact>
</mgrwt>
</event>
<event>
 6    1  0.1883094E-005  0.2092985E+04  0.7818608E-02  0.8564340E-01
          1   -1    0    0  501    0  0.00000000000E+00  0.00000000000E+00  0.17162430399E+04  0.17162430399E+04  0.00000000000E+00 0. -1.
         -1   -1    0    0    0  501 -0.00000000000E+00 -0.00000000000E+00 -0.63810707890E+03  0.63810707890E+03  0.00000000000E+00 0.  1.
         23    2    1    2    0    0  0.10118165728E+04  0.21643815032E+03  0.37611393831E+03  0.11039689088E+04  0.81654192506E+02 0.  0.
         13    1    3    3    0    0  0.57733868112E+03  0.95636513814E+02  0.18049169400E+03  0.61240799071E+03  0.00000000000E+00 0. -1.
        -13    1    3    3    0    0  0.43447789169E+03  0.12080163650E+03  0.19562224432E+03  0.49156091811E+03  0.00000000000E+00 0.  1.
         22    1    1    2    0    0 -0.10118165728E+04 -0.21643815032E+03  0.70202202270E+03  0.12503812100E+04  0.00000000000E+00 0.  1.
<mgrwt>
<rscale>  0 0.20929853E+04</rscale>
<asrwt>0</asrwt>
<pdfrwt beam="1">  1        1 0.26403739E+00 0.20929853E+04</pdfrwt>
<pdfrwt beam="2">  1       -1 0.98170321E-01 0.20929853E+04</pdfrwt>
<totfact> 0.42498095E+00</totfact>
</mgrwt>
</event>
<event>
 6    1  0.1614874E-005  0.2865769E+04  0.7818608E-02  0.8283136E-01
         -2   -1    0    0    0  501 -0.00000000000E+00  0.00000000000E+00  0.12498920241E+04  0.12498920241E+04  0.00000000000E+00 0.  1.
          2   -1    0    0  501    0  0.00000000000E+00 -0.00000000000E+00 -0.16426684091E+04  0.16426684091E+04  0.00000000000E+00 0. -1.
         23    2    1    2    0    0  0.12071075609E+03 -0.11168999882E+04 -0.10919937689E+04  0.15693289266E+04  0.91138456023E+02 0.  0.
         13    1    3    3    0    0  0.94757065248E+02 -0.90846716173E+03 -0.93496582613E+03  0.13070778789E+04  0.00000000000E+00 0.  1.
        -13    1    3    3    0    0  0.25953690840E+02 -0.20843282645E+03 -0.15702794280E+03  0.26225104772E+03  0.00000000000E+00 0. -1.
         22    1    1    2    0    0 -0.12071075609E+03  0.11168999882E+04  0.69921738384E+03  0.13232315066E+04  0.00000000000E+00 0.  1.
<mgrwt>
<rscale>  0 0.28657691E+04</rscale>
<asrwt>0</asrwt>
<pdfrwt beam="1">  1        2 0.25271822E+00 0.28657691E+04</pdfrwt>
<pdfrwt beam="2">  1       -2 0.19229108E+00 0.28657691E+04</pdfrwt>
<totfact> 0.13670787E+00</totfact>
</mgrwt>
</event>
<event>
 6    1  0.1614874E-005  0.1685981E+04  0.7818608E-02  0.8769401E-01
          1   -1    0    0  501    0  0.00000000000E+00  0.00000000000E+00  0.98352771536E+03  0.98352771536E+03  0.00000000000E+00 0. -1.
         -1   -1    0    0    0  501 -0.00000000000E+00 -0.00000000000E+00 -0.72253475643E+03  0.72253475643E+03  0.00000000000E+00 0.  1.
         23    2    1    2    0    0  0.22715989903E+03  0.25418689519E+03 -0.64651994311E+03  0.73663363748E+03  0.91806762334E+02 0.  0.
         13    1    3    3    0    0  0.10215973159E+03  0.18190108328E+03 -0.38625716818E+03  0.43899796677E+03  0.00000000000E+00 0.  1.
        -13    1    3    3    0    0  0.12500016745E+03  0.72285811915E+02 -0.26026277493E+03  0.29763567071E+03  0.00000000000E+00 0. -1.
         22    1    1    2    0    0 -0.22715989903E+03 -0.25418689519E+03  0.90751290204E+03  0.96942883431E+03  0.00000000000E+00 0. -1.
<mgrwt>
<rscale>  0 0.16859810E+04</rscale>
<asrwt>0</asrwt>
<pdfrwt beam="1">  1        1 0.15131196E+00 0.16859810E+04</pdfrwt>
<pdfrwt beam="2">  1       -1 0.11115919E+00 0.16859810E+04</pdfrwt>
<totfact> 0.11058601E+01</totfact>
</mgrwt>
</event>
<event>
 6    1  0.1614874E-005  0.3181307E+04  0.7818608E-02  0.8193772E-01
          2   -1    0    0  501    0  0.00000000000E+00  0.00000000000E+00  0.34840557715E+04  0.34840557715E+04  0.00000000000E+00 0. -1.
         -2   -1    0    0    0  501 -0.00000000000E+00 -0.00000000000E+00 -0.72621621303E+03  0.72621621303E+03  0.00000000000E+00 0.  1.
         23    2    1    2    0    0 -0.11781433604E+04 -0.64531538732E+03  0.25574906465E+03  0.13703933663E+04  0.90092550182E+02 0.  0.
         13    1    3    3    0    0 -0.64830967774E+03 -0.30397483856E+03  0.13923217324E+03  0.72944618636E+03  0.00000000000E+00 0. -1.
        -13    1    3    3    0    0 -0.52983368269E+03 -0.34134054875E+03  0.11651689141E+03  0.64094717998E+03  0.00000000000E+00 0.  1.
         22    1    1    2    0    0  0.11781433604E+04  0.64531538732E+03  0.25020904939E+04  0.28398786182E+04  0.00000000000E+00 0. -1.
<mgrwt>
<rscale>  0 0.31813065E+04</rscale>
<asrwt>0</asrwt>
<pdfrwt beam="1">  1        2 0.53600857E+00 0.31813065E+04</pdfrwt>
<pdfrwt beam="2">  1       -2 0.11172557E+00 0.31813065E+04</pdfrwt>
<totfact> 0.44450383E-01</totfact>
</mgrwt>
</event>
<event>
 6    1  0.1614874E-005  0.2284278E+03  0.7818608E-02  0.1127751E+00
          2   -1    0    0  501    0  0.00000000000E+00  0.00000000000E+00  0.23618684802E+04  0.23618684802E+04  0.00000000000E+00 0. -1.
         -2   -1    0    0    0  501 -0.00000000000E+00 -0.00000000000E+00 -0.55230930322E+01  0.55230930322E+01  0.00000000000E+00 0.  1.
         23    2    1    2    0    0 -0.16908043471E+02  0.67326315142E+02  0.20589751272E+04  0.20620265684E+04  0.88069744130E+02 0.  0.
         13    1    3    3    0    0 -0.51301026294E+02  0.27913914627E+02  0.92108187641E+03  0.92293163614E+03  0.00000000000E+00 0.  1.
        -13    1    3    3    0    0  0.34392982823E+02  0.39412400515E+02  0.11378932508E+04  0.11390949323E+04  0.00000000000E+00 0. -1.
         22    1    1    2    0    0  0.16908043471E+02 -0.67326315142E+02  0.29737025991E+03  0.30536500474E+03  0.00000000000E+00 0.  1.
<mgrwt>
<rscale>  0 0.22842784E+03</rscale>
<asrwt>0</asrwt>
<pdfrwt beam="1">  1        2 0.36336357E+00 0.22842784E+03</pdfrwt>
<pdfrwt beam="2">  1       -2 0.84970851E-03 0.22842784E+03</pdfrwt>
<totfact> 0.12837364E+04</totfact>
</mgrwt>
</event>
<event>
 6    1  0.1614874E-005  0.1714511E+04  0.7818608E-02  0.8753131E-01
          2   -1    0    0  501    0  0.00000000000E+00  0.00000000000E+00  0.98953815332E+03  0.98953815332E+03  0.00000000000E+00 0. -1.
         -2   -1    0    0    0  501 -0.00000000000E+00 -0.00000000000E+00 -0.74265658465E+03  0.74265658465E+03  0.00000000000E+00 0.  1.
         23    2    1    2    0    0  0.67908464593E+03 -0.37153654589E+03  0.49009267555E+03  0.92080888415E+03  0.92210678464E+02 0.  0.
         11    1    3    3    0    0  0.20912586218E+03 -0.12835445371E+03  0.10780011119E+03  0.26800999233E+03  0.00000000000E+00 0.  1.
        -11    1    3    3    0    0  0.46995878376E+03 -0.24318209218E+03  0.38229256436E+03  0.65279889181E+03  0.00000000000E+00 0. -1.
         22    1    1    2    0    0 -0.67908464593E+03  0.37153654589E+03 -0.24321110688E+03  0.81138585382E+03  0.00000000000E+00 0.  1.
<mgrwt>
<rscale>  0 0.17145110E+04</rscale>
<asrwt>0</asrwt>
<pdfrwt beam="1">  1        2 0.15223664E+00 0.17145110E+04</pdfrwt>
<pdfrwt beam="2">  1       -2 0.11425486E+00 0.17145110E+04</pdfrwt>
<totfact> 0.14568729E+01</totfact>
</mgrwt>
</event>
<event>
 6    1  0.1614874E-005  0.1700418E+04  0.7818608E-02  0.8761126E-01
          1   -1    0    0  501    0  0.00000000000E+00  0.00000000000E+00  0.76538507845E+03  0.76538507845E+03  0.00000000000E+00 0. -1.
         -1   -1    0    0    0  501 -0.00000000000E+00 -0.00000000000E+00 -0.94443321882E+03  0.94443321882E+03  0.00000000000E+00 0.  1.
         23    2    1    2    0    0  0.17982127225E+02  0.55030823243E+03  0.55792503724E+03  0.78987700996E+03  0.97277109873E+02 0.  0.
         13    1    3    3    0    0  0.43581226613E+02  0.43929284360E+03  0.47828920924E+03  0.65087486772E+03  0.00000000000E+00 0. -1.
        -13    1    3    3    0    0 -0.25599099388E+02  0.11101538884E+03  0.79635827998E+02  0.13900214225E+03  0.00000000000E+00 0.  1.
         22    1    1    2    0    0 -0.17982127225E+02 -0.55030823243E+03 -0.73697317760E+03  0.91994128731E+03  0.00000000000E+00 0.  1.
<mgrwt>
<rscale>  0 0.17004177E+04</rscale>
<asrwt>0</asrwt>
<pdfrwt beam="1">  1        1 0.11775155E+00 0.17004177E+04</pdfrwt>
<pdfrwt beam="2">  1       -1 0.14529742E+00 0.17004177E+04</pdfrwt>
<totfact> 0.85795840E+00</totfact>
</mgrwt>
</event>
<event>
 6    1  0.1614874E-005  0.3924504E+03  0.7818608E-02  0.1046426E+00
          1   -1    0    0  501    0  0.00000000000E+00  0.00000000000E+00  0.65570753477E+02  0.65570753477E+02  0.00000000000E+00 0. -1.
         -1   -1    0    0    0  501 -0.00000000000E+00 -0.00000000000E+00 -0.58721815478E+03  0.58721815478E+03  0.00000000000E+00 0.  1.
         23    2    1    2    0    0  0.15222846747E+03 -0.10373696252E+03 -0.23788795562E+03  0.31447797625E+03  0.91492373558E+02 0.  0.
         13    1    3    3    0    0  0.50686144978E+02  0.11279958501E+02 -0.68094824065E+02  0.85634267796E+02  0.00000000000E+00 0.  1.
        -13    1    3    3    0    0  0.10154232249E+03 -0.11501692102E+03 -0.16979313155E+03  0.22884370845E+03  0.00000000000E+00 0. -1.
         22    1    1    2    0    0 -0.15222846747E+03  0.10373696252E+03 -0.28375944569E+03  0.33831093201E+03  0.00000000000E+00 0.  1.
<mgrwt>
<rscale>  0 0.39245044E+03</rscale>
<asrwt>0</asrwt>
<pdfrwt beam="1">  1        1 0.10087808E-01 0.39245044E+03</pdfrwt>
<pdfrwt beam="2">  1       -1 0.90341253E-01 0.39245044E+03</pdfrwt>
<totfact> 0.80108728E+02</totfact>
</mgrwt>
</event>
<event>
 6    1  0.1614874E-005  0.1290027E+04  0.7818608E-02  0.9037512E-01
          2   -1    0    0  501    0  0.00000000000E+00  0.00000000000E+00  0.11022699399E+04  0.11022699399E+04  0.00000000000E+00 0.  1.
         -2   -1    0    0    0  501 -0.00000000000E+00 -0.00000000000E+00 -0.37744120848E+03  0.37744120848E+03  0.00000000000E+00 0. -1.
         23    2    1    2    0    0 -0.36513789108E+03  0.29810553517E+03  0.86394720849E+03  0.98823730339E+03  0.89529878598E+02 0.  0.
         13    1    3    3    0    0 -0.16607209376E+03  0.17575354243E+03  0.37297297568E+03  0.44449756871E+03  0.00000000000E+00 0.  1.
        -13    1    3    3    0    0 -0.19906579731E+03  0.12235199274E+03  0.49097423281E+03  0.54373973468E+03  0.00000000000E+00 0. -1.
         22    1    1    2    0    0  0.36513789108E+03 -0.29810553517E+03 -0.13911847710E+03  0.49147384495E+03  0.00000000000E+00 0. -1.
<mgrwt>
<rscale>  0 0.12900265E+04</rscale>
<asrwt>0</asrwt>
<pdfrwt beam="1">  1        2 0.16957999E+00 0.12900265E+04</pdfrwt>
<pdfrwt beam="2">  1       -2 0.58067879E-01 0.12900265E+04</pdfrwt>
<totfact> 0.59110958E+01</totfact>
</mgrwt>
</event>
<event>
 6    1  0.1614874E-005  0.2523311E+04  0.7818608E-02  0.8394728E-01
         -1   -1    0    0    0  501 -0.00000000000E+00  0.00000000000E+00  0.13115794835E+04  0.13115794835E+04  0.00000000000E+00 0.  1.
          1   -1    0    0  501    0  0.00000000000E+00 -0.00000000000E+00 -0.12136318473E+04  0.12136318473E+04  0.00000000000E+00 0. -1.
         23    2    1    2    0    0 -0.10693862780E+04  0.63824293472E+03 -0.14274513990E+03  0.12567973338E+04  0.90676943696E+02 0.  0.
         13    1    3    3    0    0 -0.10195771246E+04  0.59154328959E+03 -0.14945509011E+03  0.11881909781E+04  0.00000000000E+00 0. -1.
        -13    1    3    3    0    0 -0.49809153359E+02  0.46699645127E+02  0.67099502150E+01  0.68606355720E+02  0.00000000000E+00 0.  1.
         22    1    1    2    0    0  0.10693862780E+04 -0.63824293472E+03  0.24069277613E+03  0.12684139970E+04  0.00000000000E+00 0. -1.
<mgrwt>
<rscale>  0 0.25233110E+04</rscale>
<asrwt>0</asrwt>
<pdfrwt beam="1">  1        1 0.18671259E+00 0.25233110E+04</pdfrwt>
<pdfrwt beam="2">  1       -1 0.20178146E+00 0.25233110E+04</pdfrwt>
<totfact> 0.13547164E+00</totfact>
</mgrwt>
</event>
<event>
 6    1  0.1614874E-005  0.1902882E+04  0.7818608E-02  0.8653423E-01
          2   -1    0    0  501    0  0.00000000000E+00  0.00000000000E+00  0.62338426542E+03  0.62338426542E+03  0.00000000000E+00 0. -1.
         -2   -1    0    0    0  501 -0.00000000000E+00 -0.00000000000E+00 -0.14521382380E+04  0.14521382380E+04  0.00000000000E+00 0.  1.
         23    2    1    2    0    0 -0.68611903991E+03  0.31162271197E+02  0.29932409639E+03  0.75480657872E+03  0.91693143291E+02 0.  0.
         11    1    3    3    0    0 -0.33693607633E+03 -0.27207587798E+02  0.12742798255E+03  0.36125346102E+03  0.00000000000E+00 0. -1.
        -11    1    3    3    0    0 -0.34918296359E+03  0.58369858996E+02  0.17189611384E+03  0.39355311770E+03  0.00000000000E+00 0.  1.
         22    1    1    2    0    0  0.68611903991E+03 -0.31162271197E+02 -0.11280780690E+04  0.13207159247E+04  0.00000000000E+00 0.  1.
<mgrwt>
<rscale>  0 0.19028822E+04</rscale>
<asrwt>0</asrwt>
<pdfrwt beam="1">  1        2 0.95905273E-01 0.19028822E+04</pdfrwt>
<pdfrwt beam="2">  1       -2 0.22340588E+00 0.19028822E+04</pdfrwt>
<totfact> 0.41665704E+00</totfact>
</mgrwt>
</event>
<event>
 6    1  0.1614874E-005  0.2563032E+04  0.7818608E-02  0.8380868E-01
          2   -1    0    0  501    0  0.00000000000E+00  0.00000000000E+00  0.21192618761E+04  0.21192618761E+04  0.00000000000E+00 0. -1.
         -2   -1    0    0    0  501 -0.00000000000E+00 -0.00000000000E+00 -0.77493200017E+03  0.77493200017E+03  0.00000000000E+00 0.  1.
         23    2    1    2    0    0  0.82880644974E+02  0.42642051768E+03 -0.68644280637E+03  0.81747980197E+03  0.91464971427E+02 0.  0.
         13    1    3    3    0    0  0.44733638242E+02  0.19585582510E+03 -0.23527899728E+03  0.30938133295E+03  0.00000000000E+00 0. -1.
        -13    1    3    3    0    0  0.38147006732E+02  0.23056469258E+03 -0.45116380909E+03  0.50809846902E+03  0.00000000000E+00 0.  1.
         22    1    1    2    0    0 -0.82880644974E+02 -0.42642051768E+03  0.20307726823E+04  0.20767140743E+04  0.00000000000E+00 0. -1.
<mgrwt>
<rscale>  0 0.25630325E+04</rscale>
<asrwt>0</asrwt>
<pdfrwt beam="1">  1        2 0.32604029E+00 0.25630325E+04</pdfrwt>
<pdfrwt beam="2">  1       -2 0.11922031E+00 0.25630325E+04</pdfrwt>
<totfact> 0.27444621E+00</totfact>
</mgrwt>
</event>
<event>
 6    1  0.1614874E-005  0.1137429E+04  0.7818608E-02  0.9169460E-01
         -2   -1    0    0    0  501 -0.00000000000E+00  0.00000000000E+00  0.36688078523E+03  0.36688078523E+03  0.00000000000E+00 0.  1.
          2   -1    0    0  501    0  0.00000000000E+00 -0.00000000000E+00 -0.88158362320E+03  0.88158362320E+03  0.00000000000E+00 0. -1.
         23    2    1    2    0    0  0.15799487048E+03 -0.13495461323E+03 -0.83579542323E+03  0.86600450851E+03  0.90745206725E+02 0.  0.
         13    1    3    3    0    0  0.11898300073E+03 -0.46093739535E+02 -0.53181955814E+03  0.54691281728E+03  0.00000000000E+00 0. -1.
        -13    1    3    3    0    0  0.39011869745E+02 -0.88860873699E+02 -0.30397586509E+03  0.31909169124E+03  0.00000000000E+00 0.  1.
         22    1    1    2    0    0 -0.15799487048E+03  0.13495461323E+03  0.32109258526E+03  0.38245989991E+03  0.00000000000E+00 0.  1.
<mgrwt>
<rscale>  0 0.11374288E+04</rscale>
<asrwt>0</asrwt>
<pdfrwt beam="1">  1        2 0.13562825E+00 0.11374288E+04</pdfrwt>
<pdfrwt beam="2">  1       -2 0.56443198E-01 0.11374288E+04</pdfrwt>
<totfact> 0.88075669E+01</totfact>
</mgrwt>
</event>
<event>
 6    1  0.1614874E-005  0.1456681E+04  0.7818608E-02  0.8913782E-01
         -2   -1    0    0    0  501 -0.00000000000E+00  0.00000000000E+00  0.44572246227E+03  0.44572246227E+03  0.00000000000E+00 0. -1.
          2   -1    0    0  501    0  0.00000000000E+00 -0.00000000000E+00 -0.11901577572E+04  0.11901577572E+04  0.00000000000E+00 0.  1.
         23    2    1    2    0    0 -0.51230505344E+03  0.51357118731E+03 -0.36214777079E+03  0.81590730327E+03  0.91333933582E+02 0.  0.
         13    1    3    3    0    0 -0.38671426676E+03  0.36293241700E+03 -0.22242164689E+03  0.57509934136E+03  0.00000000000E+00 0. -1.
        -13    1    3    3    0    0 -0.12559078668E+03  0.15063877031E+03 -0.13972612390E+03  0.24080796191E+03  0.00000000000E+00 0.  1.
         22    1    1    2    0    0  0.51230505344E+03 -0.51357118731E+03 -0.38228752416E+03  0.81997291623E+03  0.00000000000E+00 0.  1.
<mgrwt>
<rscale>  0 0.14566812E+04</rscale>
<asrwt>0</asrwt>
<pdfrwt beam="1">  1        2 0.18310119E+00 0.14566812E+04</pdfrwt>
<pdfrwt beam="2">  1       -2 0.68572686E-01 0.14566812E+04</pdfrwt>
<totfact> 0.36188860E+01</totfact>
</mgrwt>
</event>
<event>
 6    1  0.1614874E-005  0.1688445E+04  0.7818608E-02  0.8767982E-01
         -1   -1    0    0    0  501 -0.00000000000E+00  0.00000000000E+00  0.12440992623E+04  0.12440992623E+04  0.00000000000E+00 0.  1.
          1   -1    0    0  501    0  0.00000000000E+00 -0.00000000000E+00 -0.57287343874E+03  0.57287343874E+03  0.00000000000E+00 0. -1.
         23    2    1    2    0    0  0.57895323262E+03 -0.26743894535E+03 -0.25461290446E+03  0.69274506156E+03  0.91419659532E+02 0.  0.
         13    1    3    3    0    0  0.44813075567E+03 -0.18271364669E+03 -0.15672057413E+03  0.50869125137E+03  0.00000000000E+00 0. -1.
        -13    1    3    3    0    0  0.13082247695E+03 -0.84725298665E+02 -0.97892330332E+02  0.18405381019E+03  0.00000000000E+00 0.  1.
         22    1    1    2    0    0 -0.57895323262E+03  0.26743894535E+03  0.92583872803E+03  0.11242276395E+04  0.00000000000E+00 0.  1.
<mgrwt>
<rscale>  0 0.16884448E+04</rscale>
<asrwt>0</asrwt>
<pdfrwt beam="1">  1        1 0.88134375E-01 0.16884448E+04</pdfrwt>
<pdfrwt beam="2">  1       -1 0.19139989E+00 0.16884448E+04</pdfrwt>
<totfact> 0.60224529E+00</totfact>
</mgrwt>
</event>
<event>
 6    1  0.1614874E-005  0.1635615E+04  0.7818608E-02  0.8798962E-01
         -2   -1    0    0    0  501 -0.00000000000E+00  0.00000000000E+00  0.43199351853E+03  0.43199351853E+03  0.00000000000E+00 0.  1.
          2   -1    0    0  501    0  0.00000000000E+00 -0.00000000000E+00 -0.15481931589E+04  0.15481931589E+04  0.00000000000E+00 0. -1.
         23    2    1    2    0    0 -0.67549564174E+03  0.10654542473E+03 -0.22305365679E+02  0.69012816181E+03  0.90183484294E+02 0.  0.
         11    1    3    3    0    0 -0.20745169673E+03  0.35740809608E+02 -0.48542506064E+02  0.21603237452E+03  0.00000000000E+00 0. -1.
        -11    1    3    3    0    0 -0.46804394501E+03  0.70804615121E+02  0.26237140385E+02  0.47409578728E+03  0.00000000000E+00 0.  1.
         22    1    1    2    0    0  0.67549564174E+03 -0.10654542473E+03 -0.10938942747E+04  0.12900585156E+04  0.00000000000E+00 0. -1.
<mgrwt>
<rscale>  0 0.16356154E+04</rscale>
<asrwt>0</asrwt>
<pdfrwt beam="1">  1        2 0.23818357E+00 0.16356154E+04</pdfrwt>
<pdfrwt beam="2">  1       -2 0.66460540E-01 0.16356154E+04</pdfrwt>
<totfact> 0.23726985E+01</totfact>
</mgrwt>
</event>
<event>
 6    1  0.1614874E-005  0.1656207E+04  0.7818608E-02  0.8786743E-01
          2   -1    0    0  501    0  0.00000000000E+00  0.00000000000E+00  0.77494693990E+03  0.77494693990E+03  0.00000000000E+00 0. -1.
         -2   -1    0    0    0  501 -0.00000000000E+00 -0.00000000000E+00 -0.88490678764E+03  0.88490678764E+03  0.00000000000E+00 0.  1.
         23    2    1    2    0    0 -0.27130599105E+03  0.35095237916E+03 -0.75290020121E+03  0.87873477927E+03  0.92420701602E+02 0.  0.
         13    1    3    3    0    0 -0.24820698942E+03  0.26889613984E+03 -0.57683018495E+03  0.68311412362E+03  0.00000000000E+00 0. -1.
        -13    1    3    3    0    0 -0.23099001623E+02  0.82056239324E+02 -0.17607001627E+03  0.19562065565E+03  0.00000000000E+00 0.  1.
         22    1    1    2    0    0  0.27130599105E+03 -0.35095237916E+03  0.64294035347E+03  0.78111894827E+03  0.00000000000E+00 0. -1.
<mgrwt>
<rscale>  0 0.16562075E+04</rscale>
<asrwt>0</asrwt>
<pdfrwt beam="1">  1        2 0.11922261E+00 0.16562075E+04</pdfrwt>
<pdfrwt beam="2">  1       -2 0.13613951E+00 0.16562075E+04</pdfrwt>
<totfact> 0.13241714E+01</totfact>
</mgrwt>
</event>
<event>
 6    1  0.1614874E-005  0.3617036E+04  0.7818608E-02  0.8086600E-01
          1   -1    0    0  501    0  0.00000000000E+00  0.00000000000E+00  0.30688553098E+04  0.30688553098E+04  0.00000000000E+00 0. -1.
         -1   -1    0    0    0  501 -0.00000000000E+00 -0.00000000000E+00 -0.10657842123E+04  0.10657842123E+04  0.00000000000E+00 0.  1.
         23    2    1    2    0    0 -0.71810731738E+02 -0.58059191420E+03  0.29569133955E+04  0.30156851525E+04  0.93682220692E+02 0.  0.
         11    1    3    3    0    0 -0.12265609222E+02 -0.23659519356E+03  0.98374128803E+03  0.10118669145E+04  0.00000000000E+00 0. -1.
        -11    1    3    3    0    0 -0.59545122517E+02 -0.34399672064E+03  0.19731721075E+04  0.20038182380E+04  0.00000000000E+00 0.  1.
         22    1    1    2    0    0  0.71810731738E+02  0.58059191420E+03 -0.95384229799E+03  0.11189543697E+04  0.00000000000E+00 0.  1.
<mgrwt>
<rscale>  0 0.36170361E+04</rscale>
<asrwt>0</asrwt>
<pdfrwt beam="1">  1        1 0.47213158E+00 0.36170361E+04</pdfrwt>
<pdfrwt beam="2">  1       -1 0.16396680E+00 0.36170361E+04</pdfrwt>
<totfact> 0.11717763E-01</totfact>
</mgrwt>
</event>
<event>
 6    1  0.1614874E-005  0.2505916E+04  0.7818608E-02  0.8400881E-01
         -2   -1    0    0    0  501 -0.00000000000E+00  0.00000000000E+00  0.18775072605E+04  0.18775072605E+04  0.00000000000E+00 0. -1.
          2   -1    0    0  501    0  0.00000000000E+00 -0.00000000000E+00 -0.83616381005E+03  0.83616381005E+03  0.00000000000E+00 0.  1.
         23    2    1    2    0    0 -0.46342952050E+03  0.46731702996E+03  0.16738553789E+04  0.18008603198E+04  0.90299142491E+02 0.  0.
         13    1    3    3    0    0 -0.11422392399E+03  0.14081393611E+03  0.36792941619E+03  0.41018011252E+03  0.00000000000E+00 0. -1.
        -13    1    3    3    0    0 -0.34920559650E+03  0.32650309385E+03  0.13059259627E+04  0.13906802073E+04  0.00000000000E+00 0.  1.
         22    1    1    2    0    0  0.46342952050E+03 -0.46731702996E+03 -0.63251192846E+03  0.91281075071E+03  0.00000000000E+00 0.  1.
<mgrwt>
<rscale>  0 0.25059159E+04</rscale>
<asrwt>0</asrwt>
<pdfrwt beam="1">  1        2 0.12864059E+00 0.25059159E+04</pdfrwt>
<pdfrwt beam="2">  1       -2 0.28884727E+00 0.25059159E+04</pdfrwt>
<totfact> 0.10760686E+00</totfact>
</mgrwt>
</event>
<event>
 6    1  0.1614874E-005  0.1978761E+04  0.7818608E-02  0.8616615E-01
         -1   -1    0    0    0  501 -0.00000000000E+00  0.00000000000E+00  0.53622419931E+03  0.53622419931E+03  0.00000000000E+00 0.  1.
          1   -1    0    0  501    0  0.00000000000E+00 -0.00000000000E+00 -0.18254938079E+04  0.18254938079E+04  0.00000000000E+00 0. -1.
         23    2    1    2    0    0 -0.37798345821E+03  0.97983339261E+02  0.43599054789E+03  0.59282150460E+03  0.94219684826E+02 0.  0.
         11    1    3    3    0    0 -0.23363356123E+03  0.21168209020E+02  0.29507032751E+03  0.37696051807E+03  0.00000000000E+00 0.  1.
        -11    1    3    3    0    0 -0.14434989699E+03  0.76815130241E+02  0.14092022038E+03  0.21586098653E+03  0.00000000000E+00 0. -1.
         22    1    1    2    0    0  0.37798345821E+03 -0.97983339261E+02 -0.17252601565E+04  0.17688965027E+04  0.00000000000E+00 0. -1.
<mgrwt>
<rscale>  0 0.19787612E+04</rscale>
<asrwt>0</asrwt>
<pdfrwt beam="1">  1        1 0.28084520E+00 0.19787612E+04</pdfrwt>
<pdfrwt beam="2">  1       -1 0.82496031E-01 0.19787612E+04</pdfrwt>
<totfact> 0.53128874E+00</totfact>
</mgrwt>
</event>
<event>
 6    1  0.1614874E-005  0.1499912E+04  0.7818608E-02  0.8884512E-01
          1   -1    0    0  501    0  0.00000000000E+00  0.00000000000E+00  0.28345681715E+04  0.28345681715E+04  0.00000000000E+00 0. -1.
         -1   -1    0    0    0  501 -0.00000000000E+00 -0.00000000000E+00 -0.19841951518E+03  0.19841951518E+03  0.00000000000E+00 0.  1.
         23    2    1    2    0    0  0.67640167263E+03  0.30758181684E+03  0.14825571927E+04  0.16607999948E+04  0.90305018283E+02 0.  0.
         13    1    3    3    0    0  0.37667635703E+03  0.14475941203E+03  0.71855545192E+03  0.82411304006E+03  0.00000000000E+00 0. -1.
        -13    1    3    3    0    0  0.29972531560E+03  0.16282240481E+03  0.76400174079E+03  0.83668695476E+03  0.00000000000E+00 0.  1.
         22    1    1    2    0    0 -0.67640167263E+03 -0.30758181684E+03  0.11535914636E+04  0.13721876918E+04  0.00000000000E+00 0.  1.
<mgrwt>
<rscale>  0 0.14999115E+04</rscale>
<asrwt>0</asrwt>
<pdfrwt beam="1">  1        1 0.43608738E+00 0.14999115E+04</pdfrwt>
<pdfrwt beam="2">  1       -1 0.30526081E-01 0.14999115E+04</pdfrwt>
<totfact> 0.75737652E+00</totfact>
</mgrwt>
</event>
<event>
 6    1  0.1614874E-005  0.4535043E+04  0.7818608E-02  0.7904530E-01
          2   -1    0    0  501    0  0.00000000000E+00  0.00000000000E+00  0.23571955396E+04  0.23571955396E+04  0.00000000000E+00 0. -1.
         -2   -1    0    0    0  501 -0.00000000000E+00 -0.00000000000E+00 -0.21812591235E+04  0.21812591235E+04  0.00000000000E+00 0.  1.
         23    2    1    2    0    0 -0.99226384868E+03 -0.11937938653E+04  0.17407934856E+04  0.23342520893E+04  0.92949010790E+02 0.  0.
         11    1    3    3    0    0 -0.40476407958E+03 -0.50649458383E+03  0.79366273214E+03  0.10248274274E+04  0.00000000000E+00 0.  1.
        -11    1    3    3    0    0 -0.58749976911E+03 -0.68729928151E+03  0.94713075348E+03  0.13094246619E+04  0.00000000000E+00 0. -1.
         22    1    1    2    0    0  0.99226384868E+03  0.11937938653E+04 -0.15648570695E+04  0.22042025738E+04  0.00000000000E+00 0. -1.
<mgrwt>
<rscale>  0 0.45350432E+04</rscale>
<asrwt>0</asrwt>
<pdfrwt beam="1">  1        2 0.36264547E+00 0.45350432E+04</pdfrwt>
<pdfrwt beam="2">  1       -2 0.33557833E+00 0.45350432E+04</pdfrwt>
<totfact> 0.60898846E-02</totfact>
</mgrwt>
</event>
<event>
 6    1  0.1614874E-005  0.1788595E+04  0.7818608E-02  0.8712388E-01
          1   -1    0    0  501    0  0.00000000000E+00  0.00000000000E+00  0.21591066567E+04  0.21591066567E+04  0.00000000000E+00 0. -1.
         -1   -1    0    0    0  501 -0.00000000000E+00 -0.00000000000E+00 -0.37041602045E+03  0.37041602045E+03  0.00000000000E+00 0.  1.
         23    2    1    2    0    0 -0.73791945008E+03 -0.90913387205E+01  0.16051682096E+04  0.17690700170E+04  0.91847573598E+02 0.  0.
         11    1    3    3    0    0 -0.71552559270E+03 -0.11801464432E+01  0.15095248358E+04  0.16705219234E+04  0.00000000000E+00 0.  1.
        -11    1    3    3    0    0 -0.22393857377E+02 -0.79111922773E+01  0.95643373775E+02  0.98548093632E+02  0.00000000000E+00 0. -1.
         22    1    1    2    0    0  0.73791945008E+03  0.90913387205E+01  0.18352242669E+03  0.76045266016E+03  0.00000000000E+00 0.  1.
<mgrwt>
<rscale>  0 0.17885946E+04</rscale>
<asrwt>0</asrwt>
<pdfrwt beam="1">  1        1 0.33217025E+00 0.17885946E+04</pdfrwt>
<pdfrwt beam="2">  1       -1 0.56987081E-01 0.17885946E+04</pdfrwt>
<totfact> 0.68427292E+00</totfact>
</mgrwt>
</event>
<event>
 6    1  0.1614874E-005  0.2692318E+04  0.7818608E-02  0.8337502E-01
          2   -1    0    0  501    0  0.00000000000E+00  0.00000000000E+00  0.14213892612E+04  0.14213892612E+04  0.00000000000E+00 0. -1.
         -2   -1    0    0    0  501 -0.00000000000E+00 -0.00000000000E+00 -0.12749103460E+04  0.12749103460E+04  0.00000000000E+00 0.  1.
         23    2    1    2    0    0 -0.55881303069E+03  0.11632910623E+04  0.45131947167E+03  0.13702355575E+04  0.91313298514E+02 0.  0.
         13    1    3    3    0    0 -0.35603401488E+03  0.63703692567E+03  0.25017286912E+03  0.77146790527E+03  0.00000000000E+00 0. -1.
        -13    1    3    3    0    0 -0.20277901581E+03  0.52625413667E+03  0.20114660255E+03  0.59876765221E+03  0.00000000000E+00 0.  1.
         22    1    1    2    0    0  0.55881303069E+03 -0.11632910623E+04 -0.30484055650E+03  0.13260640497E+04  0.00000000000E+00 0. -1.
<mgrwt>
<rscale>  0 0.26923179E+04</rscale>
<asrwt>0</asrwt>
<pdfrwt beam="1">  1        2 0.21867527E+00 0.26923179E+04</pdfrwt>
<pdfrwt beam="2">  1       -2 0.19614005E+00 0.26923179E+04</pdfrwt>
<totfact> 0.17419975E+00</totfact>
</mgrwt>
</event>
<event>
 6    1  0.1614874E-005  0.1800987E+04  0.7818608E-02  0.8705775E-01
         -2   -1    0    0    0  501 -0.00000000000E+00  0.00000000000E+00  0.24795621013E+03  0.24795621013E+03  0.00000000000E+00 0.  1.
          2   -1    0    0  501    0  0.00000000000E+00 -0.00000000000E+00 -0.32702876615E+04  0.32702876615E+04  0.00000000000E+00 0. -1.
         23    2    1    2    0    0  0.22368527786E+03 -0.86391797372E+03 -0.13178396201E+04  0.15942683594E+04  0.92741406979E+02 0.  0.
         11    1    3    3    0    0  0.45076923432E+02 -0.16103892779E+03 -0.31556523664E+03  0.35713706594E+03  0.00000000000E+00 0. -1.
        -11    1    3    3    0    0  0.17860835443E+03 -0.70287904593E+03 -0.10022743835E+04  0.12371312934E+04  0.00000000000E+00 0.  1.
         22    1    1    2    0    0 -0.22368527786E+03  0.86391797372E+03 -0.17044918313E+04  0.19239755122E+04  0.00000000000E+00 0. -1.
<mgrwt>
<rscale>  0 0.18009865E+04</rscale>
<asrwt>0</asrwt>
<pdfrwt beam="1">  1        2 0.50312114E+00 0.18009865E+04</pdfrwt>
<pdfrwt beam="2">  1       -2 0.38147112E-01 0.18009865E+04</pdfrwt>
<totfact> 0.71826943E+00</totfact>
</mgrwt>
</event>
<event>
 6    1  0.1716325E-005  0.2567941E+04  0.7818608E-02  0.8379173E-01
         -2   -1    0    0    0  501 -0.00000000000E+00  0.00000000000E+00  0.66205638504E+03  0.66205638504E+03  0.00000000000E+00 0.  1.
          2   -1    0    0  501    0  0.00000000000E+00 -0.00000000000E+00 -0.24900902804E+04  0.24900902804E+04  0.00000000000E+00 0. -1.
         23    2    1    2    0    0 -0.30663829046E+02  0.95633588395E+03 -0.19628771772E+04  0.21858644582E+04  0.97969504343E+02 0.  0.
         13    1    3    3    0    0  0.33134334668E+02  0.49239603245E+03 -0.10131221583E+04  0.11269286777E+04  0.00000000000E+00 0.  1.
        -13    1    3    3    0    0 -0.63798163713E+02  0.46393985150E+03 -0.94975501882E+03  0.10589357805E+04  0.00000000000E+00 0. -1.
         22    1    1    2    0    0  0.30663829046E+02 -0.95633588395E+03  0.13484328179E+03  0.96628220722E+03  0.00000000000E+00 0.  1.
<mgrwt>
<rscale>  0 0.25679409E+04</rscale>
<asrwt>0</asrwt>
<pdfrwt beam="1">  1        2 0.38309081E+00 0.25679409E+04</pdfrwt>
<pdfrwt beam="2">  1       -2 0.10185483E+00 0.25679409E+04</pdfrwt>
<totfact> 0.24730021E+00</totfact>
</mgrwt>
</event>
<event>
 6    1  0.1614874E-005  0.2336132E+04  0.7818608E-02  0.8463810E-01
         -1   -1    0    0    0  501 -0.00000000000E+00  0.00000000000E+00  0.14374020185E+04  0.14374020185E+04  0.00000000000E+00 0.  1.
          1   -1    0    0  501    0  0.00000000000E+00 -0.00000000000E+00 -0.94919727139E+03  0.94919727139E+03  0.00000000000E+00 0. -1.
         23    2    1    2    0    0 -0.31527312307E+03 -0.40425048433E+03  0.13146551288E+04  0.14140583758E+04  0.91800796939E+02 0.  0.
         11    1    3    3    0    0 -0.15791975800E+03 -0.13047114631E+03  0.53592887944E+03  0.57374309042E+03  0.00000000000E+00 0. -1.
        -11    1    3    3    0    0 -0.15735336506E+03 -0.27377933801E+03  0.77872624933E+03  0.84031528536E+03  0.00000000000E+00 0.  1.
         22    1    1    2    0    0  0.31527312307E+03  0.40425048433E+03 -0.82645038167E+03  0.97254091409E+03  0.00000000000E+00 0. -1.
<mgrwt>
<rscale>  0 0.23361319E+04</rscale>
<asrwt>0</asrwt>
<pdfrwt beam="1">  1        1 0.14603035E+00 0.23361319E+04</pdfrwt>
<pdfrwt beam="2">  1       -1 0.22113877E+00 0.23361319E+04</pdfrwt>
<totfact> 0.16172905E+00</totfact>
</mgrwt>
</event>
<event>
 6    1  0.1614874E-005  0.2288979E+04  0.7818608E-02  0.8482279E-01
          2   -1    0    0  501    0  0.00000000000E+00  0.00000000000E+00  0.19203449219E+04  0.19203449219E+04  0.00000000000E+00 0. -1.
         -2   -1    0    0    0  501 -0.00000000000E+00 -0.00000000000E+00 -0.68209441953E+03  0.68209441953E+03  0.00000000000E+00 0.  1.
         23    2    1    2    0    0  0.57074297571E+03  0.97473455127E+03  0.81164912577E+03  0.13950273470E+04  0.10710744951E+03 0.  0.
         11    1    3    3    0    0  0.31996829516E+03  0.58736834268E+03  0.53926618888E+03  0.85917943549E+03  0.00000000000E+00 0.  1.
        -11    1    3    3    0    0  0.25077468054E+03  0.38736620859E+03  0.27238293689E+03  0.53584791151E+03  0.00000000000E+00 0. -1.
         22    1    1    2    0    0 -0.57074297571E+03 -0.97473455127E+03  0.42660137658E+03  0.12074119944E+04  0.00000000000E+00 0. -1.
<mgrwt>
<rscale>  0 0.22889793E+04</rscale>
<asrwt>0</asrwt>
<pdfrwt beam="1">  1        2 0.29543768E+00 0.22889793E+04</pdfrwt>
<pdfrwt beam="2">  1       -2 0.10493760E+00 0.22889793E+04</pdfrwt>
<totfact> 0.49419769E+00</totfact>
</mgrwt>
</event>
<event>
 6    1  0.1614874E-005  0.7693232E+03  0.7818608E-02  0.9605514E-01
          1   -1    0    0  501    0  0.00000000000E+00  0.00000000000E+00  0.21595886191E+03  0.21595886191E+03  0.00000000000E+00 0. -1.
         -1   -1    0    0    0  501 -0.00000000000E+00 -0.00000000000E+00 -0.68515155511E+03  0.68515155511E+03  0.00000000000E+00 0.  1.
         23    2    1    2    0    0  0.33409375196E+03 -0.17946581469E+03 -0.25379676993E+03  0.46496592548E+03  0.89184626973E+02 0.  0.
         11    1    3    3    0    0  0.29578772605E+03 -0.15864092535E+03 -0.18427428204E+03  0.38290251123E+03  0.00000000000E+00 0. -1.
        -11    1    3    3    0    0  0.38306025906E+02 -0.20824889337E+02 -0.69522487890E+02  0.82063414254E+02  0.00000000000E+00 0.  1.
         22    1    1    2    0    0 -0.33409375196E+03  0.17946581469E+03 -0.21539592327E+03  0.43614449154E+03  0.00000000000E+00 0.  1.
<mgrwt>
<rscale>  0 0.76932321E+03</rscale>
<asrwt>0</asrwt>
<pdfrwt beam="1">  1        1 0.33224440E-01 0.76932321E+03</pdfrwt>
<pdfrwt beam="2">  1       -1 0.10540793E+00 0.76932321E+03</pdfrwt>
<totfact> 0.11512934E+02</totfact>
</mgrwt>
</event>
<event>
 6    1  0.1614874E-005  0.2461106E+03  0.7818608E-02  0.1115788E+00
          1   -1    0    0  501    0  0.00000000000E+00  0.00000000000E+00  0.64951786631E+02  0.64951786631E+02  0.00000000000E+00 0.  1.
         -1   -1    0    0    0  501 -0.00000000000E+00 -0.00000000000E+00 -0.23313604321E+03  0.23313604321E+03  0.00000000000E+00 0. -1.
         23    2    1    2    0    0 -0.33892045585E+02  0.98977951743E+02 -0.11874805486E+03  0.18237593017E+03  0.90634285384E+02 0.  0.
         13    1    3    3    0    0 -0.63620428721E+02  0.73397363570E+02 -0.98105965677E+02  0.13805619302E+03  0.00000000000E+00 0. -1.
        -13    1    3    3    0    0  0.29728383137E+02  0.25580588173E+02 -0.20642089182E+02  0.44319737149E+02  0.00000000000E+00 0.  1.
         22    1    1    2    0    0  0.33892045585E+02 -0.98977951743E+02 -0.49436201719E+02  0.11571189967E+03  0.00000000000E+00 0. -1.
<mgrwt>
<rscale>  0 0.24611056E+03</rscale>
<asrwt>0</asrwt>
<pdfrwt beam="1">  1        1 0.99925824E-02 0.24611056E+03</pdfrwt>
<pdfrwt beam="2">  1       -1 0.35867084E-01 0.24611056E+03</pdfrwt>
<totfact> 0.47568702E+03</totfact>
</mgrwt>
</event>
<event>
 6    1  0.1614874E-005  0.5210028E+04  0.7818608E-02  0.7796901E-01
          2   -1    0    0  501    0  0.00000000000E+00  0.00000000000E+00  0.28639608152E+04  0.28639608152E+04  0.00000000000E+00 0. -1.
         -2   -1    0    0    0  501 -0.00000000000E+00 -0.00000000000E+00 -0.23694802084E+04  0.23694802084E+04  0.00000000000E+00 0.  1.
         23    2    1    2    0    0 -0.18585205136E+04  0.63096552366E+03 -0.14720168678E+04  0.24550731017E+04  0.91292300199E+02 0.  0.
         11    1    3    3    0    0 -0.59566939960E+03  0.16326572599E+03 -0.43692784521E+03  0.75656042245E+03  0.00000000000E+00 0. -1.
        -11    1    3    3    0    0 -0.12628511140E+04  0.46769979767E+03 -0.10350890226E+04  0.16985126793E+04  0.00000000000E+00 0.  1.
         22    1    1    2    0    0  0.18585205136E+04 -0.63096552366E+03  0.19664974746E+04  0.27783679219E+04  0.00000000000E+00 0. -1.
<mgrwt>
<rscale>  0 0.52100282E+04</rscale>
<asrwt>0</asrwt>
<pdfrwt beam="1">  1        2 0.44060936E+00 0.52100282E+04</pdfrwt>
<pdfrwt beam="2">  1       -2 0.36453542E+00 0.52100282E+04</pdfrwt>
<totfact> 0.19045653E-02</totfact>
</mgrwt>
</event>
<event>
 6    1  0.1614874E-005  0.9811071E+03  0.7818608E-02  0.9329512E-01
          1   -1    0    0  501    0  0.00000000000E+00  0.00000000000E+00  0.19175762347E+03  0.19175762347E+03  0.00000000000E+00 0. -1.
         -1   -1    0    0    0  501 -0.00000000000E+00 -0.00000000000E+00 -0.12549320177E+04  0.12549320177E+04  0.00000000000E+00 0.  1.
         23    2    1    2    0    0  0.14117098272E+03 -0.43751390316E+03 -0.76982096411E+03  0.90134214025E+03  0.91900354600E+02 0.  0.
         11    1    3    3    0    0  0.13082073422E+03 -0.27281217744E+03 -0.46623814682E+03  0.55580442443E+03  0.00000000000E+00 0. -1.
        -11    1    3    3    0    0  0.10350248502E+02 -0.16470172572E+03 -0.30358281729E+03  0.34553771582E+03  0.00000000000E+00 0.  1.
         22    1    1    2    0    0 -0.14117098272E+03  0.43751390316E+03 -0.29335343015E+03  0.54534750096E+03  0.00000000000E+00 0.  1.
<mgrwt>
<rscale>  0 0.98110709E+03</rscale>
<asrwt>0</asrwt>
<pdfrwt beam="1">  1        1 0.29501174E-01 0.98110709E+03</pdfrwt>
<pdfrwt beam="2">  1       -1 0.19306646E+00 0.98110709E+03</pdfrwt>
<totfact> 0.26579997E+01</totfact>
</mgrwt>
</event>
<event>
 6    1  0.1614874E-005  0.1221909E+04  0.7818608E-02  0.9093893E-01
         -2   -1    0    0    0  501 -0.00000000000E+00  0.00000000000E+00  0.42234380444E+03  0.42234380444E+03  0.00000000000E+00 0.  1.
          2   -1    0    0  501    0  0.00000000000E+00 -0.00000000000E+00 -0.88379443223E+03  0.88379443223E+03  0.00000000000E+00 0. -1.
         23    2    1    2    0    0  0.57232281511E+03 -0.19591595652E+03 -0.29407205625E+03  0.67848223779E+03  0.89012954239E+02 0.  0.
         13    1    3    3    0    0  0.47675947642E+03 -0.17105801898E+03 -0.27995164725E+03  0.57873428187E+03  0.00000000000E+00 0. -1.
        -13    1    3    3    0    0  0.95563338693E+02 -0.24857937538E+02 -0.14120408991E+02  0.99747955924E+02  0.00000000000E+00 0.  1.
         22    1    1    2    0    0 -0.57232281511E+03  0.19591595652E+03 -0.16737857155E+03  0.62765599888E+03  0.00000000000E+00 0.  1.
<mgrwt>
<rscale>  0 0.12219085E+04</rscale>
<asrwt>0</asrwt>
<pdfrwt beam="1">  1        2 0.13596837E+00 0.12219085E+04</pdfrwt>
<pdfrwt beam="2">  1       -2 0.64975971E-01 0.12219085E+04</pdfrwt>
<totfact> 0.64769521E+01</totfact>
</mgrwt>
</event>
<event>
 6    1  0.1614874E-005  0.3871706E+04  0.7818608E-02  0.8030940E-01
          2   -1    0    0  501    0  0.00000000000E+00  0.00000000000E+00  0.20924518860E+04  0.20924518860E+04  0.00000000000E+00 0.  1.
         -2   -1    0    0    0  501 -0.00000000000E+00 -0.00000000000E+00 -0.17909740932E+04  0.17909740932E+04  0.00000000000E+00 0. -1.
         23    2    1    2    0    0  0.92843828374E+03  0.12517476352E+04  0.13008492447E+04  0.20320445792E+04  0.90147798101E+02 0.  0.
         13    1    3    3    0    0  0.32894591995E+03  0.45933200349E+03  0.52716875245E+03  0.77272129597E+03  0.00000000000E+00 0. -1.
        -13    1    3    3    0    0  0.59949236379E+03  0.79241563174E+03  0.77368049228E+03  0.12593232833E+04  0.00000000000E+00 0.  1.
         22    1    1    2    0    0 -0.92843828374E+03 -0.12517476352E+04 -0.99937145191E+03  0.18513813999E+04  0.00000000000E+00 0. -1.
<mgrwt>
<rscale>  0 0.38717061E+04</rscale>
<asrwt>0</asrwt>
<pdfrwt beam="1">  1        2 0.32191567E+00 0.38717061E+04</pdfrwt>
<pdfrwt beam="2">  1       -2 0.27553448E+00 0.38717061E+04</pdfrwt>
<totfact> 0.21208052E-01</totfact>
</mgrwt>
</event>
<event>
 6    1  0.1614874E-005  0.1295638E+04  0.7818608E-02  0.9033032E-01
         -2   -1    0    0    0  501 -0.00000000000E+00  0.00000000000E+00  0.68525012549E+03  0.68525012549E+03  0.00000000000E+00 0.  1.
          2   -1    0    0  501    0  0.00000000000E+00 -0.00000000000E+00 -0.61243217683E+03  0.61243217683E+03  0.00000000000E+00 0. -1.
         23    2    1    2    0    0 -0.18365732842E+03 -0.51321893194E+03  0.38112593075E+03  0.67144153536E+03  0.91940600010E+02 0.  0.
         13    1    3    3    0    0 -0.11457748214E+03 -0.36785775951E+03  0.31411617712E+03  0.49710793936E+03  0.00000000000E+00 0.  1.
        -13    1    3    3    0    0 -0.69079846279E+02 -0.14536117243E+03  0.67009753628E+02  0.17433359600E+03  0.00000000000E+00 0. -1.
         22    1    1    2    0    0  0.18365732842E+03  0.51321893194E+03 -0.30830798208E+03  0.62624076696E+03  0.00000000000E+00 0. -1.
<mgrwt>
<rscale>  0 0.12956376E+04</rscale>
<asrwt>0</asrwt>
<pdfrwt beam="1">  1        2 0.94220335E-01 0.12956376E+04</pdfrwt>
<pdfrwt beam="2">  1       -2 0.10542310E+00 0.12956376E+04</pdfrwt>
<totfact> 0.34534593E+01</totfact>
</mgrwt>
</event>
<event>
 6    1  0.1614874E-005  0.2330586E+04  0.7818608E-02  0.8465958E-01
          1   -1    0    0  501    0  0.00000000000E+00  0.00000000000E+00  0.10904955983E+04  0.10904955983E+04  0.00000000000E+00 0. -1.
         -1   -1    0    0    0  501 -0.00000000000E+00 -0.00000000000E+00 -0.12452207302E+04  0.12452207302E+04  0.00000000000E+00 0.  1.
         23    2    1    2    0    0 -0.97619572468E+03 -0.63050137807E+03 -0.21774546589E+02  0.11660300719E+04  0.93069420773E+02 0.  0.
         13    1    3    3    0    0 -0.59703210486E+03 -0.37826795322E+03  0.31799953439E+02  0.70749220187E+03  0.00000000000E+00 0. -1.
        -13    1    3    3    0    0 -0.37916361982E+03 -0.25223342485E+03 -0.53574500028E+02  0.45853787004E+03  0.00000000000E+00 0.  1.
         22    1    1    2    0    0  0.97619572468E+03  0.63050137807E+03 -0.13295058538E+03  0.11696862566E+04  0.00000000000E+00 0. -1.
<mgrwt>
<rscale>  0 0.23305860E+04</rscale>
<asrwt>0</asrwt>
<pdfrwt beam="1">  1        1 0.16776855E+00 0.23305860E+04</pdfrwt>
<pdfrwt beam="2">  1       -1 0.19157242E+00 0.23305860E+04</pdfrwt>
<totfact> 0.20018600E+00</totfact>
</mgrwt>
</event>
<event>
 6    1  0.1614874E-005  0.1934555E+04  0.7818608E-02  0.8637845E-01
         -1   -1    0    0    0  501 -0.00000000000E+00  0.00000000000E+00  0.47069300181E+03  0.47069300181E+03  0.00000000000E+00 0.  1.
          1   -1    0    0  501    0  0.00000000000E+00 -0.00000000000E+00 -0.19877617985E+04  0.19877617985E+04  0.00000000000E+00 0. -1.
         23    2    1    2    0    0 -0.15645470714E+03  0.95249254397E+03 -0.73950800698E+03  0.12189706724E+04  0.85424153871E+02 0.  0.
         13    1    3    3    0    0 -0.43548203587E+02  0.19541080086E+03 -0.19607235453E+03  0.28022525821E+03  0.00000000000E+00 0. -1.
        -13    1    3    3    0    0 -0.11290650355E+03  0.75708174311E+03 -0.54343565244E+03  0.93874541418E+03  0.00000000000E+00 0.  1.
         22    1    1    2    0    0  0.15645470714E+03 -0.95249254397E+03 -0.77756078976E+03  0.12394841280E+04  0.00000000000E+00 0.  1.
<mgrwt>
<rscale>  0 0.19345548E+04</rscale>
<asrwt>0</asrwt>
<pdfrwt beam="1">  1        1 0.30580951E+00 0.19345548E+04</pdfrwt>
<pdfrwt beam="2">  1       -1 0.72414308E-01 0.19345548E+04</pdfrwt>
<totfact> 0.54506262E+00</totfact>
</mgrwt>
</event>
<event>
 6    1  0.1614874E-005  0.2041188E+04  0.7818608E-02  0.8587602E-01
          1   -1    0    0  501    0  0.00000000000E+00  0.00000000000E+00  0.16177932792E+04  0.16177932792E+04  0.00000000000E+00 0. -1.
         -1   -1    0    0    0  501 -0.00000000000E+00 -0.00000000000E+00 -0.64384747786E+03  0.64384747786E+03  0.00000000000E+00 0.  1.
         23    2    1    2    0    0 -0.35277352605E+03  0.14081311769E+03  0.15351068205E+04  0.15840131423E+04  0.90924088526E+02 0.  0.
         11    1    3    3    0    0 -0.85010060743E+02  0.78237569828E+02  0.44171503635E+03  0.45657420108E+03  0.00000000000E+00 0.  1.
        -11    1    3    3    0    0 -0.26776346531E+03  0.62575547862E+02  0.10933917842E+04  0.11274389412E+04  0.00000000000E+00 0. -1.
         22    1    1    2    0    0  0.35277352605E+03 -0.14081311769E+03 -0.56116101918E+03  0.67762761473E+03  0.00000000000E+00 0.  1.
<mgrwt>
<rscale>  0 0.20411880E+04</rscale>
<asrwt>0</asrwt>
<pdfrwt beam="1">  1        1 0.24889127E+00 0.20411880E+04</pdfrwt>
<pdfrwt beam="2">  1       -1 0.99053458E-01 0.20411880E+04</pdfrwt>
<totfact> 0.48845294E+00</totfact>
</mgrwt>
</event>
<event>
 6    1  0.1614874E-005  0.2068358E+04  0.7818608E-02  0.8575311E-01
          2   -1    0    0  501    0  0.00000000000E+00  0.00000000000E+00  0.13770978550E+04  0.13770978550E+04  0.00000000000E+00 0. -1.
         -2   -1    0    0    0  501 -0.00000000000E+00 -0.00000000000E+00 -0.77665249995E+03  0.77665249995E+03  0.00000000000E+00 0.  1.
         23    2    1    2    0    0  0.31518502810E+03  0.78774232553E+03  0.91310296756E+03  0.12495189930E+04  0.87527772967E+02 0.  0.
         11    1    3    3    0    0  0.33480649654E+02  0.44249550189E+02  0.85129986616E+02  0.10161737654E+03  0.00000000000E+00 0. -1.
        -11    1    3    3    0    0  0.28170437845E+03  0.74349277535E+03  0.82797298095E+03  0.11479016164E+04  0.00000000000E+00 0.  1.
         22    1    1    2    0    0 -0.31518502810E+03 -0.78774232553E+03 -0.31265761250E+03  0.90423136200E+03  0.00000000000E+00 0.  1.
<mgrwt>
<rscale>  0 0.20683583E+04</rscale>
<asrwt>0</asrwt>
<pdfrwt beam="1">  1        2 0.21186121E+00 0.20683583E+04</pdfrwt>
<pdfrwt beam="2">  1       -2 0.11948500E+00 0.20683583E+04</pdfrwt>
<totfact> 0.73976319E+00</totfact>
</mgrwt>
</event>
<event>
 6    1  0.1614874E-005  0.6566579E+04  0.7818608E-02  0.7623865E-01
         -2   -1    0    0    0  501 -0.00000000000E+00  0.00000000000E+00  0.55623569277E+04  0.55623569277E+04  0.00000000000E+00 0.  1.
          2   -1    0    0  501    0  0.00000000000E+00 -0.00000000000E+00 -0.19380256781E+04  0.19380256781E+04  0.00000000000E+00 0. -1.
         23    2    1    2    0    0 -0.71989337455E+03  0.30945253184E+04  0.86952368077E+03  0.32952312223E+04  0.90243891902E+02 0.  0.
         11    1    3    3    0    0 -0.36492952288E+03  0.13830005358E+04  0.40756595759E+03  0.14872706709E+04  0.00000000000E+00 0.  1.
        -11    1    3    3    0    0 -0.35496385167E+03  0.17115247825E+04  0.46195772318E+03  0.18079605513E+04  0.00000000000E+00 0. -1.
         22    1    1    2    0    0  0.71989337455E+03 -0.30945253184E+04  0.27548075689E+04  0.42051513835E+04  0.00000000000E+00 0.  1.
<mgrwt>
<rscale>  0 0.65665792E+04</rscale>
<asrwt>0</asrwt>
<pdfrwt beam="1">  1        2 0.29815780E+00 0.65665792E+04</pdfrwt>
<pdfrwt beam="2">  1       -2 0.85574721E+00 0.65665792E+04</pdfrwt>
<totfact> 0.13427700E-04</totfact>
</mgrwt>
</event>
<event>
 6    1  0.1614874E-005  0.4768262E+04  0.7818608E-02  0.7865284E-01
         -2   -1    0    0    0  501 -0.00000000000E+00  0.00000000000E+00  0.14739958553E+04  0.14739958553E+04  0.00000000000E+00 0.  1.
          2   -1    0    0  501    0  0.00000000000E+00 -0.00000000000E+00 -0.38562391380E+04  0.38562391380E+04  0.00000000000E+00 0. -1.
         23    2    1    2    0    0  0.72234431164E+03 -0.22629222466E+04 -0.14075203643E+04  0.27626129093E+04  0.91203682991E+02 0.  0.
         11    1    3    3    0    0  0.83900643003E+02 -0.29428704043E+03 -0.14825470895E+03  0.34003476115E+03  0.00000000000E+00 0. -1.
        -11    1    3    3    0    0  0.63844366864E+03 -0.19686352062E+04 -0.12592656553E+04  0.24225781481E+04  0.00000000000E+00 0.  1.
         22    1    1    2    0    0 -0.72234431164E+03  0.22629222466E+04 -0.97472291834E+03  0.25676220840E+04  0.00000000000E+00 0.  1.
<mgrwt>
<rscale>  0 0.47682620E+04</rscale>
<asrwt>0</asrwt>
<pdfrwt beam="1">  1        2 0.59326755E+00 0.47682620E+04</pdfrwt>
<pdfrwt beam="2">  1       -2 0.22676860E+00 0.47682620E+04</pdfrwt>
<totfact> 0.29430908E-02</totfact>
</mgrwt>
</event>
<event>
 6    1  0.1614874E-005  0.3720577E+04  0.7818608E-02  0.8063417E-01
         -1   -1    0    0    0  501 -0.00000000000E+00  0.00000000000E+00  0.11645826925E+04  0.11645826925E+04  0.00000000000E+00 0.  1.
          1   -1    0    0  501    0  0.00000000000E+00 -0.00000000000E+00 -0.29715997484E+04  0.29715997484E+04  0.00000000000E+00 0. -1.
         23    2    1    2    0    0  0.10505420318E+03 -0.11992798437E+04 -0.24790513256E+04  0.27574371458E+04  0.91954383632E+02 0.  0.
         13    1    3    3    0    0 -0.14195240167E+02 -0.26713351446E+03 -0.53295636605E+03  0.59632567235E+03  0.00000000000E+00 0. -1.
        -13    1    3    3    0    0  0.11924944335E+03 -0.93214632921E+03 -0.19460949596E+04  0.21611114734E+04  0.00000000000E+00 0.  1.
         22    1    1    2    0    0 -0.10505420318E+03  0.11992798437E+04  0.67203426970E+03  0.13787452951E+04  0.00000000000E+00 0.  1.
<mgrwt>
<rscale>  0 0.37205772E+04</rscale>
<asrwt>0</asrwt>
<pdfrwt beam="1">  1        1 0.45716919E+00 0.37205772E+04</pdfrwt>
<pdfrwt beam="2">  1       -1 0.17916657E+00 0.37205772E+04</pdfrwt>
<totfact> 0.10588918E-01</totfact>
</mgrwt>
</event>
<event>
 6    1  0.1614874E-005  0.4184810E+04  0.7818608E-02  0.7968268E-01
          2   -1    0    0  501    0  0.00000000000E+00  0.00000000000E+00  0.11819815893E+04  0.11819815893E+04  0.00000000000E+00 0. -1.
         -2   -1    0    0    0  501 -0.00000000000E+00 -0.00000000000E+00 -0.37040834875E+04  0.37040834875E+04  0.00000000000E+00 0.  1.
         23    2    1    2    0    0  0.10909772297E+04 -0.48419088940E+03  0.74363942124E+03  0.14090349506E+04  0.87793907281E+02 0.  0.
         13    1    3    3    0    0  0.43384528064E+03 -0.20278387402E+03  0.34815731953E+03  0.59207815889E+03  0.00000000000E+00 0.  1.
        -13    1    3    3    0    0  0.65713194907E+03 -0.28140701538E+03  0.39548210171E+03  0.81695679174E+03  0.00000000000E+00 0. -1.
         22    1    1    2    0    0 -0.10909772297E+04  0.48419088940E+03 -0.32657413194E+04  0.34770301262E+04  0.00000000000E+00 0.  1.
<mgrwt>
<rscale>  0 0.41848099E+04</rscale>
<asrwt>0</asrwt>
<pdfrwt beam="1">  1        2 0.18184333E+00 0.41848099E+04</pdfrwt>
<pdfrwt beam="2">  1       -2 0.56985898E+00 0.41848099E+04</pdfrwt>
<totfact> 0.10323989E-02</totfact>
</mgrwt>
</event>
<event>
 6    1  0.1614874E-005  0.3064051E+04  0.7818608E-02  0.8225674E-01
         -2   -1    0    0    0  501 -0.00000000000E+00  0.00000000000E+00  0.16897140058E+04  0.16897140058E+04  0.00000000000E+00 0. -1.
          2   -1    0    0  501    0  0.00000000000E+00 -0.00000000000E+00 -0.13890529881E+04  0.13890529881E+04  0.00000000000E+00 0.  1.
         23    2    1    2    0    0 -0.12775809020E+04  0.46864405959E+03  0.85464215877E+03  0.16095034639E+04  0.90818307255E+02 0.  0.
         11    1    3    3    0    0 -0.36393974948E+03  0.91972451558E+02  0.24846441723E+03  0.45016179283E+03  0.00000000000E+00 0. -1.
        -11    1    3    3    0    0 -0.91364115255E+03  0.37667160803E+03  0.60617774154E+03  0.11593416711E+04  0.00000000000E+00 0.  1.
         22    1    1    2    0    0  0.12775809020E+04 -0.46864405959E+03 -0.55398114114E+03  0.14692635300E+04  0.00000000000E+00 0.  1.
<mgrwt>
<rscale>  0 0.30640511E+04</rscale>
<asrwt>0</asrwt>
<pdfrwt beam="1">  1        2 0.21370046E+00 0.30640511E+04</pdfrwt>
<pdfrwt beam="2">  1       -2 0.25995600E+00 0.30640511E+04</pdfrwt>
<totfact> 0.69793270E-01</totfact>
</mgrwt>
</event>
<event>
 6    1  0.1614874E-005  0.2139741E+04  0.7818608E-02  0.8543936E-01
          2   -1    0    0  501    0  0.00000000000E+00  0.00000000000E+00  0.42063273077E+04  0.42063273077E+04  0.00000000000E+00 0. -1.
         -2   -1    0    0    0  501 -0.00000000000E+00 -0.00000000000E+00 -0.27211926266E+03  0.27211926266E+03  0.00000000000E+00 0.  1.
         23    2    1    2    0    0 -0.42502747174E+03  0.93496308574E+03  0.25830483874E+04  0.27812616235E+04  0.92048482970E+02 0.  0.
         13    1    3    3    0    0 -0.35284406339E+03  0.67929505697E+03  0.19256735952E+04  0.20722353879E+04  0.00000000000E+00 0.  1.
        -13    1    3    3    0    0 -0.72183408350E+02  0.25566802876E+03  0.65737479220E+03  0.70902623562E+03  0.00000000000E+00 0. -1.
         22    1    1    2    0    0  0.42502747174E+03 -0.93496308574E+03  0.13511596576E+04  0.16971849468E+04  0.00000000000E+00 0.  1.
<mgrwt>
<rscale>  0 0.21397408E+04</rscale>
<asrwt>0</asrwt>
<pdfrwt beam="1">  1        2 0.64712723E+00 0.21397408E+04</pdfrwt>
<pdfrwt beam="2">  1       -2 0.41864505E-01 0.21397408E+04</pdfrwt>
<totfact> 0.11518957E+00</totfact>
</mgrwt>
</event>
<event>
 6    1  0.1614874E-005  0.3213349E+04  0.7818608E-02  0.8185301E-01
          2   -1    0    0  501    0  0.00000000000E+00  0.00000000000E+00  0.25615465407E+04  0.25615465407E+04  0.00000000000E+00 0. -1.
         -2   -1    0    0    0  501 -0.00000000000E+00 -0.00000000000E+00 -0.10077517308E+04  0.10077517308E+04  0.00000000000E+00 0.  1.
         23    2    1    2    0    0 -0.15853327144E+04 -0.67934299796E+02  0.10487541884E+04  0.19040772911E+04  0.87920976588E+02 0.  0.
         11    1    3    3    0    0 -0.24605025645E+03 -0.16846028650E+02  0.20151683647E+03  0.31848634627E+03  0.00000000000E+00 0. -1.
        -11    1    3    3    0    0 -0.13392824579E+04 -0.51088271147E+02  0.84723735197E+03  0.15855909448E+04  0.00000000000E+00 0.  1.
         22    1    1    2    0    0  0.15853327144E+04  0.67934299796E+02  0.50504062146E+03  0.16652209805E+04  0.00000000000E+00 0. -1.
<mgrwt>
<rscale>  0 0.32133490E+04</rscale>
<asrwt>0</asrwt>
<pdfrwt beam="1">  1        2 0.39408408E+00 0.32133490E+04</pdfrwt>
<pdfrwt beam="2">  1       -2 0.15503873E+00 0.32133490E+04</pdfrwt>
<totfact> 0.73948017E-01</totfact>
</mgrwt>
</event>
<event>
 6    1  0.1614874E-005  0.3161102E+04  0.7818608E-02  0.8199166E-01
          2   -1    0    0  501    0  0.00000000000E+00  0.00000000000E+00  0.14036360099E+04  0.14036360099E+04  0.00000000000E+00 0. -1.
         -2   -1    0    0    0  501 -0.00000000000E+00 -0.00000000000E+00 -0.17797644834E+04  0.17797644834E+04  0.00000000000E+00 0.  1.
         23    2    1    2    0    0  0.11317137607E+04 -0.24813793849E+03 -0.12688703493E+04  0.17207533966E+04  0.92799868979E+02 0.  0.
         13    1    3    3    0    0  0.10875160376E+04 -0.25381673217E+03 -0.12053621344E+04  0.16431713059E+04  0.00000000000E+00 0. -1.
        -13    1    3    3    0    0  0.44197723192E+02  0.56787936806E+01 -0.63508214928E+02  0.77582090693E+02  0.00000000000E+00 0.  1.
         22    1    1    2    0    0 -0.11317137607E+04  0.24813793849E+03  0.89274187579E+03  0.14626470967E+04  0.00000000000E+00 0. -1.
<mgrwt>
<rscale>  0 0.31611020E+04</rscale>
<asrwt>0</asrwt>
<pdfrwt beam="1">  1        2 0.21594400E+00 0.31611020E+04</pdfrwt>
<pdfrwt beam="2">  1       -2 0.27380992E+00 0.31611020E+04</pdfrwt>
<totfact> 0.55886598E-01</totfact>
</mgrwt>
</event>
<event>
 6    1  0.1614874E-005  0.1770634E+04  0.7818608E-02  0.8722074E-01
          1   -1    0    0  501    0  0.00000000000E+00  0.00000000000E+00  0.14453994704E+04  0.14453994704E+04  0.00000000000E+00 0. -1.
         -1   -1    0    0    0  501 -0.00000000000E+00 -0.00000000000E+00 -0.54226282227E+03  0.54226282227E+03  0.00000000000E+00 0.  1.
         23    2    1    2    0    0  0.32034983521E+03 -0.70242875189E+03  0.93377786448E+03  0.12150245686E+04  0.91178033577E+02 0.  0.
         11    1    3    3    0    0  0.16242412704E+03 -0.30303182239E+03  0.47758369356E+03  0.58846925729E+03  0.00000000000E+00 0.  1.
        -11    1    3    3    0    0  0.15792570817E+03 -0.39939692950E+03  0.45619417091E+03  0.62655531134E+03  0.00000000000E+00 0. -1.
         22    1    1    2    0    0 -0.32034983521E+03  0.70242875189E+03 -0.30641216383E+02  0.77263772399E+03  0.00000000000E+00 0.  1.
<mgrwt>
<rscale>  0 0.17706342E+04</rscale>
<asrwt>0</asrwt>
<pdfrwt beam="1">  1        1 0.22236915E+00 0.17706342E+04</pdfrwt>
<pdfrwt beam="2">  1       -1 0.83425050E-01 0.17706342E+04</pdfrwt>
<totfact> 0.96292423E+00</totfact>
</mgrwt>
</event>
<event>
 6    1  0.1614874E-005  0.2213796E+04  0.7818608E-02  0.8512708E-01
          2   -1    0    0  501    0  0.00000000000E+00  0.00000000000E+00  0.10673016059E+04  0.10673016059E+04  0.00000000000E+00 0. -1.
         -2   -1    0    0    0  501 -0.00000000000E+00 -0.00000000000E+00 -0.11479633167E+04  0.11479633167E+04  0.00000000000E+00 0.  1.
         23    2    1    2    0    0 -0.72918822512E+03  0.23733626826E+02 -0.87089079444E+03  0.11397460908E+04  0.91058349854E+02 0.  0.
         13    1    3    3    0    0 -0.62700508514E+03  0.27267185237E+02 -0.69610582278E+03  0.93725247009E+03  0.00000000000E+00 0. -1.
        -13    1    3    3    0    0 -0.10218313997E+03 -0.35335584110E+01 -0.17478497166E+03  0.20249362076E+03  0.00000000000E+00 0.  1.
         22    1    1    2    0    0  0.72918822512E+03 -0.23733626826E+02  0.79022908364E+03  0.10755188317E+04  0.00000000000E+00 0. -1.
<mgrwt>
<rscale>  0 0.22137959E+04</rscale>
<asrwt>0</asrwt>
<pdfrwt beam="1">  1        2 0.16420025E+00 0.22137959E+04</pdfrwt>
<pdfrwt beam="2">  1       -2 0.17660974E+00 0.22137959E+04</pdfrwt>
<totfact> 0.39899610E+00</totfact>
</mgrwt>
</event>
<event>
 6    1  0.1614874E-005  0.2456919E+04  0.7818608E-02  0.8418496E-01
         -2   -1    0    0    0  501 -0.00000000000E+00  0.00000000000E+00  0.28354349740E+04  0.28354349740E+04  0.00000000000E+00 0.  1.
          2   -1    0    0  501    0  0.00000000000E+00 -0.00000000000E+00 -0.53223324045E+03  0.53223324045E+03  0.00000000000E+00 0. -1.
         23    2    1    2    0    0  0.11915119453E+04  0.95809624696E+02  0.77394020185E+03  0.14266579022E+04  0.86539781876E+02 0.  0.
         11    1    3    3    0    0  0.72494714525E+03  0.16393547589E+02  0.46030986964E+03  0.85889597036E+03  0.00000000000E+00 0. -1.
        -11    1    3    3    0    0  0.46656480005E+03  0.79416077108E+02  0.31363033221E+03  0.56776193183E+03  0.00000000000E+00 0.  1.
         22    1    1    2    0    0 -0.11915119453E+04 -0.95809624696E+02  0.15292615317E+04  0.19410103123E+04  0.00000000000E+00 0. -1.
<mgrwt>
<rscale>  0 0.24569190E+04</rscale>
<asrwt>0</asrwt>
<pdfrwt beam="1">  1        2 0.81882039E-01 0.24569190E+04</pdfrwt>
<pdfrwt beam="2">  1       -2 0.43622075E+00 0.24569190E+04</pdfrwt>
<totfact> 0.21930571E-01</totfact>
</mgrwt>
</event>
<event>
 6    1  0.1614874E-005  0.5805209E+03  0.7818608E-02  0.9946664E-01
         -1   -1    0    0    0  501 -0.00000000000E+00  0.00000000000E+00  0.78585248418E+03  0.78585248418E+03  0.00000000000E+00 0.  1.
          1   -1    0    0  501    0  0.00000000000E+00 -0.00000000000E+00 -0.10720984880E+03  0.10720984880E+03  0.00000000000E+00 0. -1.
         23    2    1    2    0    0 -0.52749455891E+01 -0.18583929789E+03  0.17177689346E+02  0.20596703790E+03  0.86967108716E+02 0.  0.
         11    1    3    3    0    0 -0.67069716687E+01 -0.11428796190E+03  0.52744689863E+02  0.12605048200E+03  0.00000000000E+00 0.  1.
        -11    1    3    3    0    0  0.14320260796E+01 -0.71551335992E+02 -0.35567000517E+02  0.79916555898E+02  0.00000000000E+00 0. -1.
         22    1    1    2    0    0  0.52749455891E+01  0.18583929789E+03  0.66146494604E+03  0.68709529509E+03  0.00000000000E+00 0.  1.
<mgrwt>
<rscale>  0 0.58052089E+03</rscale>
<asrwt>0</asrwt>
<pdfrwt beam="1">  1        1 0.16493823E-01 0.58052089E+03</pdfrwt>
<pdfrwt beam="2">  1       -1 0.12090038E+00 0.58052089E+03</pdfrwt>
<totfact> 0.21045721E+02</totfact>
</mgrwt>
</event>
<event>
 6    1  0.1614874E-005  0.8710376E+03  0.7818608E-02  0.9462528E-01
          1   -1    0    0  501    0  0.00000000000E+00  0.00000000000E+00  0.68425218012E+03  0.68425218012E+03  0.00000000000E+00 0. -1.
         -1   -1    0    0    0  501 -0.00000000000E+00 -0.00000000000E+00 -0.27720281416E+03  0.27720281416E+03  0.00000000000E+00 0.  1.
         23    2    1    2    0    0  0.82074740005E+02 -0.42342134856E+03  0.24494961121E+03  0.50069667167E+03  0.68373559412E+02 0.  0.
         11    1    3    3    0    0  0.58362852416E+02 -0.34546023381E+03  0.22635154902E+03  0.41711391661E+03  0.00000000000E+00 0.  1.
        -11    1    3    3    0    0  0.23711887589E+02 -0.77961114752E+02  0.18598062188E+02  0.83582755061E+02  0.00000000000E+00 0. -1.
         22    1    1    2    0    0 -0.82074740005E+02  0.42342134856E+03  0.16209975475E+03  0.46075832261E+03  0.00000000000E+00 0. -1.
<mgrwt>
<rscale>  0 0.87103761E+03</rscale>
<asrwt>0</asrwt>
<pdfrwt beam="1">  1        1 0.10526957E+00 0.87103761E+03</pdfrwt>
<pdfrwt beam="2">  1       -1 0.42646587E-01 0.87103761E+03</pdfrwt>
<totfact> 0.15389869E+02</totfact>
</mgrwt>
</event>
<event>
 6    1  0.1614874E-005  0.3756313E+04  0.7818608E-02  0.8055596E-01
         -2   -1    0    0    0  501 -0.00000000000E+00  0.00000000000E+00  0.10165177626E+04  0.10165177626E+04  0.00000000000E+00 0.  1.
          2   -1    0    0  501    0  0.00000000000E+00 -0.00000000000E+00 -0.34701525525E+04  0.34701525525E+04  0.00000000000E+00 0. -1.
         23    2    1    2    0    0 -0.13791079376E+04 -0.31878183935E+03 -0.27000149134E+04  0.30499157328E+04  0.91350314666E+02 0.  0.
         13    1    3    3    0    0 -0.47442435220E+03 -0.94633057291E+02 -0.10118376683E+04  0.11215388306E+04  0.00000000000E+00 0. -1.
        -13    1    3    3    0    0 -0.90468358538E+03 -0.22414878205E+03 -0.16881772450E+04  0.19283769022E+04  0.00000000000E+00 0.  1.
         22    1    1    2    0    0  0.13791079376E+04  0.31878183935E+03  0.24638012339E+03  0.14367545823E+04  0.00000000000E+00 0.  1.
<mgrwt>
<rscale>  0 0.37563129E+04</rscale>
<asrwt>0</asrwt>
<pdfrwt beam="1">  1        2 0.53386963E+00 0.37563129E+04</pdfrwt>
<pdfrwt beam="2">  1       -2 0.15638735E+00 0.37563129E+04</pdfrwt>
<totfact> 0.18363209E-01</totfact>
</mgrwt>
</event>
<event>
 6    1  0.1614874E-005  0.2789220E+04  0.7818608E-02  0.8306623E-01
         -1   -1    0    0    0  501 -0.00000000000E+00  0.00000000000E+00  0.83016947949E+03  0.83016947949E+03  0.00000000000E+00 0.  1.
          1   -1    0    0  501    0  0.00000000000E+00 -0.00000000000E+00 -0.23428191642E+04  0.23428191642E+04  0.00000000000E+00 0. -1.
         23    2    1    2    0    0  0.99410715947E+03 -0.72352494441E+03 -0.11909758123E+02  0.12328964508E+04  0.90301862303E+02 0.  0.
         11    1    3    3    0    0  0.37185720124E+03 -0.22325195009E+03 -0.23976033315E+02  0.43438929718E+03  0.00000000000E+00 0.  1.
        -11    1    3    3    0    0  0.62224995823E+03 -0.50027299432E+03  0.12066275192E+02  0.79850715360E+03  0.00000000000E+00 0. -1.
         22    1    1    2    0    0 -0.99410715947E+03  0.72352494441E+03 -0.15007399266E+04  0.19400921929E+04  0.00000000000E+00 0. -1.
<mgrwt>
<rscale>  0 0.27892199E+04</rscale>
<asrwt>0</asrwt>
<pdfrwt beam="1">  1        1 0.36043372E+00 0.27892199E+04</pdfrwt>
<pdfrwt beam="2">  1       -1 0.12771838E+00 0.27892199E+04</pdfrwt>
<totfact> 0.79900578E-01</totfact>
</mgrwt>
</event>
<event>
 6    1  0.1614874E-005  0.3269406E+04  0.7818608E-02  0.8170724E-01
          2   -1    0    0  501    0  0.00000000000E+00  0.00000000000E+00  0.14843172311E+04  0.14843172311E+04  0.00000000000E+00 0. -1.
         -2   -1    0    0    0  501 -0.00000000000E+00 -0.00000000000E+00 -0.18003248373E+04  0.18003248373E+04  0.00000000000E+00 0.  1.
         23    2    1    2    0    0  0.39113014033E+03  0.94329233734E+03 -0.14389416396E+04  0.17668265118E+04  0.91321740513E+02 0.  0.
         11    1    3    3    0    0  0.23567020974E+03  0.44927148453E+03 -0.70868824248E+03  0.87156430606E+03  0.00000000000E+00 0.  1.
        -11    1    3    3    0    0  0.15545993058E+03  0.49402085281E+03 -0.73025339716E+03  0.89526220578E+03  0.00000000000E+00 0. -1.
         22    1    1    2    0    0 -0.39113014033E+03 -0.94329233734E+03  0.11229340334E+04  0.15178155566E+04  0.00000000000E+00 0. -1.
<mgrwt>
<rscale>  0 0.32694056E+04</rscale>
<asrwt>0</asrwt>
<pdfrwt beam="1">  1        2 0.22835650E+00 0.32694056E+04</pdfrwt>
<pdfrwt beam="2">  1       -2 0.27697305E+00 0.32694056E+04</pdfrwt>
<totfact> 0.47665431E-01</totfact>
</mgrwt>
</event>
<event>
 6    1  0.1614874E-005  0.7070303E+03  0.7818608E-02  0.9705284E-01
          2   -1    0    0  501    0  0.00000000000E+00  0.00000000000E+00  0.41174607229E+03  0.41174607229E+03  0.00000000000E+00 0. -1.
         -2   -1    0    0    0  501 -0.00000000000E+00 -0.00000000000E+00 -0.30351945936E+03  0.30351945936E+03  0.00000000000E+00 0.  1.
         23    2    1    2    0    0 -0.24532277885E+03 -0.55724222812E+02  0.29778612009E+03  0.40027146569E+03  0.90841720012E+02 0.  0.
         13    1    3    3    0    0 -0.16571466686E+03 -0.38669173231E+02  0.13126001019E+03  0.21490892501E+03  0.00000000000E+00 0. -1.
        -13    1    3    3    0    0 -0.79608111993E+02 -0.17055049582E+02  0.16652610990E+03  0.18536254069E+03  0.00000000000E+00 0.  1.
         22    1    1    2    0    0  0.24532277885E+03  0.55724222812E+02 -0.18955950716E+03  0.31499406596E+03  0.00000000000E+00 0.  1.
<mgrwt>
<rscale>  0 0.70703025E+03</rscale>
<asrwt>0</asrwt>
<pdfrwt beam="1">  1        2 0.63345550E-01 0.70703025E+03</pdfrwt>
<pdfrwt beam="2">  1       -2 0.46695301E-01 0.70703025E+03</pdfrwt>
<totfact> 0.33753017E+02</totfact>
</mgrwt>
</event>
<event>
 6    1  0.1614874E-005  0.1532499E+04  0.7818608E-02  0.8863124E-01
         -2   -1    0    0    0  501 -0.00000000000E+00  0.00000000000E+00  0.39670970486E+03  0.39670970486E+03  0.00000000000E+00 0.  1.
          2   -1    0    0  501    0  0.00000000000E+00 -0.00000000000E+00 -0.14800203464E+04  0.14800203464E+04  0.00000000000E+00 0. -1.
         23    2    1    2    0    0 -0.44835126997E+03 -0.27766070265E+03  0.13169301295E+03  0.55221194737E+03  0.97368670934E+02 0.  0.
         11    1    3    3    0    0 -0.70863176265E+02 -0.62079518267E+01  0.12540053349E+02  0.72231442975E+02  0.00000000000E+00 0. -1.
        -11    1    3    3    0    0 -0.37748809371E+03 -0.27145275082E+03  0.11915295960E+03  0.47998050440E+03  0.00000000000E+00 0.  1.
         22    1    1    2    0    0  0.44835126997E+03  0.27766070265E+03 -0.12150036545E+04  0.13245181039E+04  0.00000000000E+00 0. -1.
<mgrwt>
<rscale>  0 0.15324992E+04</rscale>
<asrwt>0</asrwt>
<pdfrwt beam="1">  1        2 0.22769544E+00 0.15324992E+04</pdfrwt>
<pdfrwt beam="2">  1       -2 0.61032262E-01 0.15324992E+04</pdfrwt>
<totfact> 0.31363885E+01</totfact>
</mgrwt>
</event>
<event>
 6    1  0.1614874E-005  0.2630171E+04  0.7818608E-02  0.8358024E-01
         -2   -1    0    0    0  501 -0.00000000000E+00  0.00000000000E+00  0.13789705211E+04  0.13789705211E+04  0.00000000000E+00 0.  1.
          2   -1    0    0  501    0  0.00000000000E+00 -0.00000000000E+00 -0.12541600470E+04  0.12541600470E+04  0.00000000000E+00 0. -1.
         23    2    1    2    0    0  0.49763201091E+03  0.15624811514E+02 -0.11543314394E+04  0.12605105231E+04  0.92325260904E+02 0.  0.
         13    1    3    3    0    0  0.28490620407E+03  0.49238495400E+02 -0.71447649689E+03  0.77076107787E+03  0.00000000000E+00 0. -1.
        -13    1    3    3    0    0  0.21272580684E+03 -0.33613683885E+02 -0.43985494255E+03  0.48974944525E+03  0.00000000000E+00 0.  1.
         22    1    1    2    0    0 -0.49763201091E+03 -0.15624811514E+02  0.12791419136E+04  0.13726200450E+04  0.00000000000E+00 0.  1.
<mgrwt>
<rscale>  0 0.26301709E+04</rscale>
<asrwt>0</asrwt>
<pdfrwt beam="1">  1        2 0.19294770E+00 0.26301709E+04</pdfrwt>
<pdfrwt beam="2">  1       -2 0.21214931E+00 0.26301709E+04</pdfrwt>
<totfact> 0.17213625E+00</totfact>
</mgrwt>
</event>
<event>
 6    1  0.1614874E-005  0.2025602E+04  0.7818608E-02  0.8594744E-01
         -2   -1    0    0    0  501 -0.00000000000E+00  0.00000000000E+00  0.60584889755E+03  0.60584889755E+03  0.00000000000E+00 0. -1.
          2   -1    0    0  501    0  0.00000000000E+00 -0.00000000000E+00 -0.16931044074E+04  0.16931044074E+04  0.00000000000E+00 0.  1.
         23    2    1    2    0    0  0.19892146643E+03  0.79270664782E+03 -0.12176458009E+04  0.14713330978E+04  0.11918980234E+03 0.  0.
         13    1    3    3    0    0  0.16804331571E+03  0.44931261237E+03 -0.66524918682E+03  0.82016879980E+03  0.00000000000E+00 0. -1.
        -13    1    3    3    0    0  0.30878150718E+02  0.34339403545E+03 -0.55239661410E+03  0.65116429804E+03  0.00000000000E+00 0.  1.
         22    1    1    2    0    0 -0.19892146643E+03 -0.79270664782E+03  0.13039029103E+03  0.82762020716E+03  0.00000000000E+00 0.  1.
<mgrwt>
<rscale>  0 0.20256016E+04</rscale>
<asrwt>0</asrwt>
<pdfrwt beam="1">  1        2 0.26047760E+00 0.20256016E+04</pdfrwt>
<pdfrwt beam="2">  1       -2 0.93207522E-01 0.20256016E+04</pdfrwt>
<totfact> 0.89381640E+00</totfact>
</mgrwt>
</event>
<event>
 6    1  0.1614874E-005  0.6134652E+03  0.7818608E-02  0.9877857E-01
          2   -1    0    0  501    0  0.00000000000E+00  0.00000000000E+00  0.46881359107E+03  0.46881359107E+03  0.00000000000E+00 0.  1.
         -2   -1    0    0    0  501 -0.00000000000E+00 -0.00000000000E+00 -0.20068722756E+03  0.20068722756E+03  0.00000000000E+00 0. -1.
         23    2    1    2    0    0 -0.13113443486E+03  0.22240648966E+03  0.30246572469E+03  0.40903953863E+03  0.95744153357E+02 0.  0.
         13    1    3    3    0    0 -0.72237578871E+02  0.19084555540E+03  0.25726088631E+03  0.32836482370E+03  0.00000000000E+00 0.  1.
        -13    1    3    3    0    0 -0.58896855987E+02  0.31560934263E+02  0.45204838380E+02  0.80674714934E+02  0.00000000000E+00 0. -1.
         22    1    1    2    0    0  0.13113443486E+03 -0.22240648966E+03 -0.34339361180E+02  0.26046127999E+03  0.00000000000E+00 0. -1.
<mgrwt>
<rscale>  0 0.61346524E+03</rscale>
<asrwt>0</asrwt>
<pdfrwt beam="1">  1        2 0.72125168E-01 0.61346524E+03</pdfrwt>
<pdfrwt beam="2">  1       -2 0.30874958E-01 0.61346524E+03</pdfrwt>
<totfact> 0.64847563E+02</totfact>
</mgrwt>
</event>
<event>
 6    1  0.1614874E-005  0.1377357E+04  0.7818608E-02  0.8970373E-01
          1   -1    0    0  501    0  0.00000000000E+00  0.00000000000E+00  0.85627631282E+03  0.85627631282E+03  0.00000000000E+00 0. -1.
         -1   -1    0    0    0  501 -0.00000000000E+00 -0.00000000000E+00 -0.55388473912E+03  0.55388473912E+03  0.00000000000E+00 0.  1.
         23    2    1    2    0    0  0.24572820903E+03  0.55188385855E+03  0.48352169386E+03  0.77947391359E+03  0.93958541397E+02 0.  0.
         11    1    3    3    0    0  0.12503960756E+03  0.37284919566E+03  0.34330923025E+03  0.52202744539E+03  0.00000000000E+00 0.  1.
        -11    1    3    3    0    0  0.12068860147E+03  0.17903466289E+03  0.14021246361E+03  0.25744646821E+03  0.00000000000E+00 0. -1.
         22    1    1    2    0    0 -0.24572820903E+03 -0.55188385855E+03 -0.18113012015E+03  0.63068713834E+03  0.00000000000E+00 0.  1.
<mgrwt>
<rscale>  0 0.13773574E+04</rscale>
<asrwt>0</asrwt>
<pdfrwt beam="1">  1        1 0.13173482E+00 0.13773574E+04</pdfrwt>
<pdfrwt beam="2">  1       -1 0.85213037E-01 0.13773574E+04</pdfrwt>
<totfact> 0.26324763E+01</totfact>
</mgrwt>
</event>
<event>
 6    1  0.1614874E-005  0.2741174E+04  0.7818608E-02  0.8321768E-01
          2   -1    0    0  501    0  0.00000000000E+00  0.00000000000E+00  0.22238366610E+04  0.22238366610E+04  0.00000000000E+00 0. -1.
         -2   -1    0    0    0  501 -0.00000000000E+00 -0.00000000000E+00 -0.84471508988E+03  0.84471508988E+03  0.00000000000E+00 0.  1.
         23    2    1    2    0    0 -0.37671312943E+02 -0.12899875132E+04  0.12019145212E+04  0.17659047340E+04  0.91291298114E+02 0.  0.
         13    1    3    3    0    0 -0.60644093059E+02 -0.56378614003E+03  0.54061680099E+03  0.78345328082E+03  0.00000000000E+00 0. -1.
        -13    1    3    3    0    0  0.22972780116E+02 -0.72620137317E+03  0.66129772025E+03  0.98245145317E+03  0.00000000000E+00 0.  1.
         22    1    1    2    0    0  0.37671312943E+02  0.12899875132E+04  0.17720704985E+03  0.13026470169E+04  0.00000000000E+00 0. -1.
<mgrwt>
<rscale>  0 0.27411738E+04</rscale>
<asrwt>0</asrwt>
<pdfrwt beam="1">  1        2 0.34212871E+00 0.27411738E+04</pdfrwt>
<pdfrwt beam="2">  1       -2 0.12995617E+00 0.27411738E+04</pdfrwt>
<totfact> 0.19026249E+00</totfact>
</mgrwt>
</event>
<event>
 6    1  0.1614874E-005  0.5318303E+03  0.7818608E-02  0.1005789E+00
          1   -1    0    0  501    0  0.00000000000E+00  0.00000000000E+00  0.51852234327E+03  0.51852234327E+03  0.00000000000E+00 0. -1.
         -1   -1    0    0    0  501 -0.00000000000E+00 -0.00000000000E+00 -0.13636992805E+03  0.13636992805E+03  0.00000000000E+00 0.  1.
         23    2    1    2    0    0  0.17298686367E+03 -0.15244707499E+03  0.33954848883E+03  0.42041485189E+03  0.91054410952E+02 0.  0.
         13    1    3    3    0    0  0.17667205367E+02 -0.66009381134E+02  0.11818844816E+03  0.13652061317E+03  0.00000000000E+00 0. -1.
        -13    1    3    3    0    0  0.15531965830E+03 -0.86437693851E+02  0.22136004067E+03  0.28389423872E+03  0.00000000000E+00 0.  1.
         22    1    1    2    0    0 -0.17298686367E+03  0.15244707499E+03  0.42603926392E+02  0.23447741942E+03  0.00000000000E+00 0. -1.
<mgrwt>
<rscale>  0 0.53183025E+03</rscale>
<asrwt>0</asrwt>
<pdfrwt beam="1">  1        1 0.79772667E-01 0.53183025E+03</pdfrwt>
<pdfrwt beam="2">  1       -1 0.20979989E-01 0.53183025E+03</pdfrwt>
<totfact> 0.80036861E+02</totfact>
</mgrwt>
</event>
<event>
 6    1  0.1614874E-005  0.2601959E+04  0.7818608E-02  0.8367536E-01
          1   -1    0    0  501    0  0.00000000000E+00  0.00000000000E+00  0.69181413964E+03  0.69181413964E+03  0.00000000000E+00 0. -1.
         -1   -1    0    0    0  501 -0.00000000000E+00 -0.00000000000E+00 -0.24465349715E+04  0.24465349715E+04  0.00000000000E+00 0.  1.
         23    2    1    2    0    0  0.81927296188E+03  0.67854605941E+03 -0.17783838769E+04  0.20743035856E+04  0.91941345345E+02 0.  0.
         11    1    3    3    0    0  0.29588683348E+03  0.26570415700E+03 -0.58523801389E+03  0.70756713475E+03  0.00000000000E+00 0. -1.
        -11    1    3    3    0    0  0.52338612839E+03  0.41284190241E+03 -0.11931458630E+04  0.13667364509E+04  0.00000000000E+00 0.  1.
         22    1    1    2    0    0 -0.81927296188E+03 -0.67854605941E+03  0.23663044964E+02  0.10640455256E+04  0.00000000000E+00 0. -1.
<mgrwt>
<rscale>  0 0.26019589E+04</rscale>
<asrwt>0</asrwt>
<pdfrwt beam="1">  1        1 0.10643294E+00 0.26019589E+04</pdfrwt>
<pdfrwt beam="2">  1       -1 0.37639000E+00 0.26019589E+04</pdfrwt>
<totfact> 0.25277050E-01</totfact>
</mgrwt>
</event>
<event>
 6    1  0.1614874E-005  0.1462220E+04  0.7818608E-02  0.8909972E-01
          1   -1    0    0  501    0  0.00000000000E+00  0.00000000000E+00  0.43124300236E+03  0.43124300236E+03  0.00000000000E+00 0. -1.
         -1   -1    0    0    0  501 -0.00000000000E+00 -0.00000000000E+00 -0.12394914766E+04  0.12394914766E+04  0.00000000000E+00 0.  1.
         23    2    1    2    0    0 -0.48409531436E+03  0.53825090916E+03 -0.31460699545E+03  0.79452433056E+03  0.90714032382E+02 0.  0.
         13    1    3    3    0    0 -0.33062378749E+03  0.31103847012E+03 -0.17163484457E+03  0.48529943192E+03  0.00000000000E+00 0. -1.
        -13    1    3    3    0    0 -0.15347152687E+03  0.22721243903E+03 -0.14297215089E+03  0.30922489864E+03  0.00000000000E+00 0.  1.
         22    1    1    2    0    0  0.48409531436E+03 -0.53825090916E+03 -0.49364147880E+03  0.87621014841E+03  0.00000000000E+00 0.  1.
<mgrwt>
<rscale>  0 0.14622203E+04</rscale>
<asrwt>0</asrwt>
<pdfrwt beam="1">  1        1 0.66345078E-01 0.14622203E+04</pdfrwt>
<pdfrwt beam="2">  1       -1 0.19069099E+00 0.14622203E+04</pdfrwt>
<totfact> 0.91945251E+00</totfact>
</mgrwt>
</event>
<event>
 6    1  0.1614874E-005  0.1798323E+04  0.7818608E-02  0.8707192E-01
         -1   -1    0    0    0  501 -0.00000000000E+00  0.00000000000E+00  0.44223890430E+03  0.44223890430E+03  0.00000000000E+00 0.  1.
          1   -1    0    0  501    0  0.00000000000E+00 -0.00000000000E+00 -0.18281779337E+04  0.18281779337E+04  0.00000000000E+00 0. -1.
         23    2    1    2    0    0  0.43392302243E+03 -0.59106958749E+03 -0.13468786217E+04  0.15361293180E+04  0.89212180637E+02 0.  0.
         13    1    3    3    0    0  0.35670147440E+03 -0.44152194703E+03 -0.98052961979E+03  0.11329677431E+04  0.00000000000E+00 0. -1.
        -13    1    3    3    0    0  0.77221548032E+02 -0.14954764046E+03 -0.36634900193E+03  0.40316157488E+03  0.00000000000E+00 0.  1.
         22    1    1    2    0    0 -0.43392302243E+03  0.59106958749E+03 -0.39060407677E+02  0.73428752005E+03  0.00000000000E+00 0.  1.
<mgrwt>
<rscale>  0 0.17983230E+04</rscale>
<asrwt>0</asrwt>
<pdfrwt beam="1">  1        1 0.28125814E+00 0.17983230E+04</pdfrwt>
<pdfrwt beam="2">  1       -1 0.68036755E-01 0.17983230E+04</pdfrwt>
<totfact> 0.80461228E+00</totfact>
</mgrwt>
</event>
<event>
 6    1  0.1614874E-005  0.2494831E+04  0.7818608E-02  0.8404829E-01
         -2   -1    0    0    0  501 -0.00000000000E+00  0.00000000000E+00  0.86341143527E+03  0.86341143527E+03  0.00000000000E+00 0.  1.
          2   -1    0    0  501    0  0.00000000000E+00 -0.00000000000E+00 -0.18022068462E+04  0.18022068462E+04  0.00000000000E+00 0. -1.
         23    2    1    2    0    0 -0.80388647232E+02  0.69688676195E+03  0.62988755718E+03  0.94722375517E+03  0.91438581018E+02 0.  0.
         11    1    3    3    0    0 -0.86433423617E+02  0.36202979631E+03  0.31718106790E+03  0.48901957012E+03  0.00000000000E+00 0. -1.
        -11    1    3    3    0    0  0.60447763853E+01  0.33485696564E+03  0.31270648928E+03  0.45820418505E+03  0.00000000000E+00 0.  1.
         22    1    1    2    0    0  0.80388647232E+02 -0.69688676195E+03 -0.15686829681E+04  0.17183945263E+04  0.00000000000E+00 0. -1.
<mgrwt>
<rscale>  0 0.24948315E+04</rscale>
<asrwt>0</asrwt>
<pdfrwt beam="1">  1        2 0.27726259E+00 0.24948315E+04</pdfrwt>
<pdfrwt beam="2">  1       -2 0.13283253E+00 0.24948315E+04</pdfrwt>
<totfact> 0.31569619E+00</totfact>
</mgrwt>
</event>
<event>
 6    1  0.1614874E-005  0.2986450E+04  0.7818608E-02  0.8247611E-01
          2   -1    0    0  501    0  0.00000000000E+00  0.00000000000E+00  0.10954319827E+04  0.10954319827E+04  0.00000000000E+00 0. -1.
         -2   -1    0    0    0  501 -0.00000000000E+00 -0.00000000000E+00 -0.20354718918E+04  0.20354718918E+04  0.00000000000E+00 0.  1.
         23    2    1    2    0    0 -0.12674332048E+04  0.28714262627E+03 -0.12384975886E+04  0.17975191578E+04  0.91438665212E+02 0.  0.
         11    1    3    3    0    0 -0.55226143403E+03  0.17091262744E+03 -0.56109331133E+03  0.80562368495E+03  0.00000000000E+00 0. -1.
        -11    1    3    3    0    0 -0.71517177077E+03  0.11622999883E+03 -0.67740427722E+03  0.99189547289E+03  0.00000000000E+00 0.  1.
         22    1    1    2    0    0  0.12674332048E+04 -0.28714262627E+03  0.29845767945E+03  0.13333847168E+04  0.00000000000E+00 0.  1.
<mgrwt>
<rscale>  0 0.29864501E+04</rscale>
<asrwt>0</asrwt>
<pdfrwt beam="1">  1        2 0.16852800E+00 0.29864501E+04</pdfrwt>
<pdfrwt beam="2">  1       -2 0.31314952E+00 0.29864501E+04</pdfrwt>
<totfact> 0.49588448E-01</totfact>
</mgrwt>
</event>
<event>
 6    1  0.1614874E-005  0.2272414E+04  0.7818608E-02  0.8488878E-01
         -2   -1    0    0    0  501 -0.00000000000E+00  0.00000000000E+00  0.89797981920E+03  0.89797981920E+03  0.00000000000E+00 0. -1.
          2   -1    0    0  501    0  0.00000000000E+00 -0.00000000000E+00 -0.14376338421E+04  0.14376338421E+04  0.00000000000E+00 0.  1.
         23    2    1    2    0    0 -0.58843870972E+02  0.20130746129E+03 -0.14161157874E+04  0.14344075141E+04  0.90297830780E+02 0.  0.
         11    1    3    3    0    0  0.22969299784E+02  0.25011926010E+02 -0.21922531401E+03  0.22183985999E+03  0.00000000000E+00 0. -1.
        -11    1    3    3    0    0 -0.81813170756E+02  0.17629553528E+03 -0.11968904734E+04  0.12125676542E+04  0.00000000000E+00 0.  1.
         22    1    1    2    0    0  0.58843870972E+02 -0.20130746129E+03  0.87646176447E+03  0.90120614717E+03  0.00000000000E+00 0. -1.
<mgrwt>
<rscale>  0 0.22724139E+04</rscale>
<asrwt>0</asrwt>
<pdfrwt beam="1">  1        2 0.22117444E+00 0.22724139E+04</pdfrwt>
<pdfrwt beam="2">  1       -2 0.13815074E+00 0.22724139E+04</pdfrwt>
<totfact> 0.46530745E+00</totfact>
</mgrwt>
</event>
<event>
 6    1  0.1614874E-005  0.1067053E+04  0.7818608E-02  0.9237913E-01
          1   -1    0    0  501    0  0.00000000000E+00  0.00000000000E+00  0.10951632476E+04  0.10951632476E+04  0.00000000000E+00 0. -1.
         -1   -1    0    0    0  501 -0.00000000000E+00 -0.00000000000E+00 -0.25991599384E+03  0.25991599384E+03  0.00000000000E+00 0.  1.
         23    2    1    2    0    0  0.30704383699E+03 -0.43067790439E+03  0.44836411581E+03  0.69976409771E+03  0.94233947873E+02 0.  0.
         13    1    3    3    0    0  0.15938360907E+03 -0.15174856215E+03  0.15805736662E+03  0.27094813544E+03  0.00000000000E+00 0.  1.
        -13    1    3    3    0    0  0.14766022792E+03 -0.27892934224E+03  0.29030674920E+03  0.42881596227E+03  0.00000000000E+00 0. -1.
         22    1    1    2    0    0 -0.30704383699E+03  0.43067790439E+03  0.38688313793E+03  0.65531514371E+03  0.00000000000E+00 0. -1.
<mgrwt>
<rscale>  0 0.10670528E+04</rscale>
<asrwt>0</asrwt>
<pdfrwt beam="1">  1        1 0.16848665E+00 0.10670528E+04</pdfrwt>
<pdfrwt beam="2">  1       -1 0.39987077E-01 0.10670528E+04</pdfrwt>
<totfact> 0.77749912E+01</totfact>
</mgrwt>
</event>
<event>
 6    1  0.1614874E-005  0.2484558E+04  0.7818608E-02  0.8408508E-01
          1   -1    0    0  501    0  0.00000000000E+00  0.00000000000E+00  0.84736319139E+03  0.84736319139E+03  0.00000000000E+00 0. -1.
         -1   -1    0    0    0  501 -0.00000000000E+00 -0.00000000000E+00 -0.18212458865E+04  0.18212458865E+04  0.00000000000E+00 0.  1.
         23    2    1    2    0    0  0.45524839981E+03  0.11498231080E+04 -0.59342108963E+03  0.13747407235E+04  0.91756100161E+02 0.  0.
         11    1    3    3    0    0  0.76208277498E+02  0.12458332452E+03 -0.87739274259E+02  0.17037278701E+03  0.00000000000E+00 0.  1.
        -11    1    3    3    0    0  0.37904012231E+03  0.10252397835E+04 -0.50568181537E+03  0.12043679365E+04  0.00000000000E+00 0. -1.
         22    1    1    2    0    0 -0.45524839981E+03 -0.11498231080E+04 -0.38046160550E+03  0.12938683544E+04  0.00000000000E+00 0. -1.
<mgrwt>
<rscale>  0 0.24845577E+04</rscale>
<asrwt>0</asrwt>
<pdfrwt beam="1">  1        1 0.13036357E+00 0.24845577E+04</pdfrwt>
<pdfrwt beam="2">  1       -1 0.28019167E+00 0.24845577E+04</pdfrwt>
<totfact> 0.79478523E-01</totfact>
</mgrwt>
</event>
<event>
 6    1  0.1614874E-005  0.3067142E+04  0.7818608E-02  0.8224814E-01
          2   -1    0    0  501    0  0.00000000000E+00  0.00000000000E+00  0.18108646631E+04  0.18108646631E+04  0.00000000000E+00 0. -1.
         -2   -1    0    0    0  501 -0.00000000000E+00 -0.00000000000E+00 -0.12987386500E+04  0.12987386500E+04  0.00000000000E+00 0.  1.
         23    2    1    2    0    0  0.75636116545E+03  0.11955953120E+04  0.85350203862E+03  0.16542449539E+04  0.80810116410E+02 0.  0.
         11    1    3    3    0    0  0.26901628476E+03  0.42454265614E+03  0.25846013601E+03  0.56516180891E+03  0.00000000000E+00 0.  1.
        -11    1    3    3    0    0  0.48734488070E+03  0.77105265589E+03  0.59504190261E+03  0.10890831450E+04  0.00000000000E+00 0. -1.
         22    1    1    2    0    0 -0.75636116545E+03 -0.11955953120E+04 -0.34137602558E+03  0.14553583592E+04  0.00000000000E+00 0.  1.
<mgrwt>
<rscale>  0 0.30671419E+04</rscale>
<asrwt>0</asrwt>
<pdfrwt beam="1">  1        2 0.27859456E+00 0.30671419E+04</pdfrwt>
<pdfrwt beam="2">  1       -2 0.19980595E+00 0.30671419E+04</pdfrwt>
<totfact> 0.96645306E-01</totfact>
</mgrwt>
</event>
<event>
 6    1  0.1614874E-005  0.1838138E+04  0.7818608E-02  0.8686277E-01
         -2   -1    0    0    0  501 -0.00000000000E+00  0.00000000000E+00  0.36212737288E+03  0.36212737288E+03  0.00000000000E+00 0.  1.
          2   -1    0    0  501    0  0.00000000000E+00 -0.00000000000E+00 -0.23325722107E+04  0.23325722107E+04  0.00000000000E+00 0. -1.
         23    2    1    2    0    0  0.51447986091E+03 -0.44213117938E+02 -0.20982351011E+04  0.21627459404E+04  0.90747651097E+02 0.  0.
         11    1    3    3    0    0  0.17278767100E+03 -0.58158351953E+02 -0.72959760905E+03  0.75203101285E+03  0.00000000000E+00 0. -1.
        -11    1    3    3    0    0  0.34169218991E+03  0.13945234015E+02 -0.13686374920E+04  0.14107149275E+04  0.00000000000E+00 0.  1.
         22    1    1    2    0    0 -0.51447986091E+03  0.44213117938E+02  0.12779026329E+03  0.53195364316E+03  0.00000000000E+00 0.  1.
<mgrwt>
<rscale>  0 0.18381385E+04</rscale>
<asrwt>0</asrwt>
<pdfrwt beam="1">  1        2 0.35885726E+00 0.18381385E+04</pdfrwt>
<pdfrwt beam="2">  1       -2 0.55711904E-01 0.18381385E+04</pdfrwt>
<totfact> 0.12382249E+01</totfact>
</mgrwt>
</event>
<event>
 6    1  0.1614874E-005  0.2357235E+04  0.7818608E-02  0.8455690E-01
         -1   -1    0    0    0  501 -0.00000000000E+00  0.00000000000E+00  0.52007588916E+03  0.52007588916E+03  0.00000000000E+00 0.  1.
          1   -1    0    0  501    0  0.00000000000E+00 -0.00000000000E+00 -0.26710324318E+04  0.26710324318E+04  0.00000000000E+00 0. -1.
         23    2    1    2    0    0 -0.90527679142E+03  0.17493491384E+02 -0.57991188449E+02  0.91068378479E+03  0.78421212775E+02 0.  0.
         11    1    3    3    0    0 -0.66766895363E+03 -0.19920478245E+02 -0.31733685814E+02  0.66871943587E+03  0.00000000000E+00 0.  1.
        -11    1    3    3    0    0 -0.23760783779E+03  0.37413969628E+02 -0.26257502634E+02  0.24196434892E+03  0.00000000000E+00 0. -1.
         22    1    1    2    0    0  0.90527679142E+03 -0.17493491384E+02 -0.20929653542E+04  0.22804245362E+04  0.00000000000E+00 0. -1.
<mgrwt>
<rscale>  0 0.23572353E+04</rscale>
<asrwt>0</asrwt>
<pdfrwt beam="1">  1        1 0.41092806E+00 0.23572353E+04</pdfrwt>
<pdfrwt beam="2">  1       -1 0.80011676E-01 0.23572353E+04</pdfrwt>
<totfact> 0.14427019E+00</totfact>
</mgrwt>
</event>
<event>
 6    1  0.1614874E-005  0.3933525E+04  0.7818608E-02  0.8018093E-01
         -2   -1    0    0    0  501 -0.00000000000E+00  0.00000000000E+00  0.24083062323E+04  0.24083062323E+04  0.00000000000E+00 0.  1.
          2   -1    0    0  501    0  0.00000000000E+00 -0.00000000000E+00 -0.16061722315E+04  0.16061722315E+04  0.00000000000E+00 0. -1.
         23    2    1    2    0    0  0.37576251166E+03 -0.10773482451E+04 -0.12324657628E+04  0.16817819759E+04  0.86844985540E+02 0.  0.
         11    1    3    3    0    0  0.24897105369E+03 -0.63194574377E+03 -0.68387515712E+03  0.96386059115E+03  0.00000000000E+00 0. -1.
        -11    1    3    3    0    0  0.12679145797E+03 -0.44540250134E+03 -0.54859060569E+03  0.71792138474E+03  0.00000000000E+00 0.  1.
         22    1    1    2    0    0 -0.37576251166E+03  0.10773482451E+04  0.20345997637E+04  0.23326964879E+04  0.00000000000E+00 0.  1.
<mgrwt>
<rscale>  0 0.39335249E+04</rscale>
<asrwt>0</asrwt>
<pdfrwt beam="1">  1        2 0.24710342E+00 0.39335249E+04</pdfrwt>
<pdfrwt beam="2">  1       -2 0.37050865E+00 0.39335249E+04</pdfrwt>
<totfact> 0.10106911E-01</totfact>
</mgrwt>
</event>
<event>
 6    1  0.1614874E-005  0.4863465E+03  0.7818608E-02  0.1017405E+00
          1   -1    0    0  501    0  0.00000000000E+00  0.00000000000E+00  0.11460566304E+04  0.11460566304E+04  0.00000000000E+00 0. -1.
         -1   -1    0    0    0  501 -0.00000000000E+00 -0.00000000000E+00 -0.51597123064E+02  0.51597123064E+02  0.00000000000E+00 0.  1.
         23    2    1    2    0    0 -0.22357956737E+03 -0.50427660558E+02  0.69263994571E+03  0.73506351147E+03  0.89652103162E+02 0.  0.
         11    1    3    3    0    0 -0.45426542469E+02 -0.49900035737E+02  0.21120399607E+03  0.22172215109E+03  0.00000000000E+00 0. -1.
        -11    1    3    3    0    0 -0.17815302490E+03 -0.52762482122E+00  0.48143594964E+03  0.51334136038E+03  0.00000000000E+00 0.  1.
         22    1    1    2    0    0  0.22357956737E+03  0.50427660558E+02  0.40181956167E+03  0.46259024204E+03  0.00000000000E+00 0. -1.
<mgrwt>
<rscale>  0 0.48634648E+03</rscale>
<asrwt>0</asrwt>
<pdfrwt beam="1">  1        1 0.17631639E+00 0.48634648E+03</pdfrwt>
<pdfrwt beam="2">  1       -1 0.79380198E-02 0.48634648E+03</pdfrwt>
<totfact> 0.10822186E+03</totfact>
</mgrwt>
</event>
<event>
 6    1  0.1614874E-005  0.1840752E+04  0.7818608E-02  0.8684923E-01
         -2   -1    0    0    0  501 -0.00000000000E+00  0.00000000000E+00  0.10457706693E+04  0.10457706693E+04  0.00000000000E+00 0. -1.
          2   -1    0    0  501    0  0.00000000000E+00 -0.00000000000E+00 -0.81001663283E+03  0.81001663283E+03  0.00000000000E+00 0.  1.
         23    2    1    2    0    0 -0.55765581704E+03  0.32805204295E+03 -0.53877784636E+03  0.84658078675E+03  0.88426848821E+02 0.  0.
         11    1    3    3    0    0 -0.31794891122E+03  0.14229487020E+03 -0.26020114617E+03  0.43479187745E+03  0.00000000000E+00 0. -1.
        -11    1    3    3    0    0 -0.23970690583E+03  0.18575717275E+03 -0.27857670019E+03  0.41178890930E+03  0.00000000000E+00 0.  1.
         22    1    1    2    0    0  0.55765581704E+03 -0.32805204295E+03  0.77453188284E+03  0.10092065154E+04  0.00000000000E+00 0. -1.
<mgrwt>
<rscale>  0 0.18407516E+04</rscale>
<asrwt>0</asrwt>
<pdfrwt beam="1">  1        2 0.12461794E+00 0.18407516E+04</pdfrwt>
<pdfrwt beam="2">  1       -2 0.16088780E+00 0.18407516E+04</pdfrwt>
<totfact> 0.79062960E+00</totfact>
</mgrwt>
</event>
<event>
 6    1  0.1614874E-005  0.2529332E+04  0.7818608E-02  0.8392610E-01
         -2   -1    0    0    0  501 -0.00000000000E+00  0.00000000000E+00  0.47484255951E+03  0.47484255951E+03  0.00000000000E+00 0.  1.
          2   -1    0    0  501    0  0.00000000000E+00 -0.00000000000E+00 -0.33682312457E+04  0.33682312457E+04  0.00000000000E+00 0. -1.
         23    2    1    2    0    0  0.11322571147E+04  0.55041471723E+03 -0.12943826279E+04  0.18079367314E+04  0.90809153806E+02 0.  0.
         11    1    3    3    0    0  0.18258411000E+03  0.11990286843E+03 -0.25338465835E+03  0.33454064053E+03  0.00000000000E+00 0. -1.
        -11    1    3    3    0    0  0.94967300475E+03  0.43051184879E+03 -0.10409979696E+04  0.14733960909E+04  0.00000000000E+00 0.  1.
         22    1    1    2    0    0 -0.11322571147E+04 -0.55041471723E+03 -0.15990060583E+04  0.20351370738E+04  0.00000000000E+00 0. -1.
<mgrwt>
<rscale>  0 0.25293316E+04</rscale>
<asrwt>0</asrwt>
<pdfrwt beam="1">  1        2 0.51818941E+00 0.25293316E+04</pdfrwt>
<pdfrwt beam="2">  1       -2 0.73052703E-01 0.25293316E+04</pdfrwt>
<totfact> 0.15102078E+00</totfact>
</mgrwt>
</event>
<event>
 6    1  0.1614874E-005  0.2140370E+04  0.7818608E-02  0.8543665E-01
         -2   -1    0    0    0  501 -0.00000000000E+00  0.00000000000E+00  0.50671654236E+03  0.50671654236E+03  0.00000000000E+00 0. -1.
          2   -1    0    0  501    0  0.00000000000E+00 -0.00000000000E+00 -0.22602309030E+04  0.22602309030E+04  0.00000000000E+00 0.  1.
         23    2    1    2    0    0  0.29064402966E+03 -0.91960912541E+03 -0.14722038842E+04  0.17623129448E+04  0.90596596308E+02 0.  0.
         11    1    3    3    0    0  0.17097144386E+03 -0.51397134140E+03 -0.90638740440E+03  0.10559052520E+04  0.00000000000E+00 0.  1.
        -11    1    3    3    0    0  0.11967258580E+03 -0.40563778401E+03 -0.56581647980E+03  0.70640769278E+03  0.00000000000E+00 0. -1.
         22    1    1    2    0    0 -0.29064402966E+03  0.91960912541E+03 -0.28131047642E+03  0.10046345005E+04  0.00000000000E+00 0. -1.
<mgrwt>
<rscale>  0 0.21403704E+04</rscale>
<asrwt>0</asrwt>
<pdfrwt beam="1">  1        2 0.34772783E+00 0.21403704E+04</pdfrwt>
<pdfrwt beam="2">  1       -2 0.77956392E-01 0.21403704E+04</pdfrwt>
<totfact> 0.64250270E+00</totfact>
</mgrwt>
</event>
<event>
 6    1  0.1614874E-005  0.1953243E+04  0.7818608E-02  0.8628798E-01
          1   -1    0    0  501    0  0.00000000000E+00  0.00000000000E+00  0.22481152908E+04  0.22481152908E+04  0.00000000000E+00 0. -1.
         -1   -1    0    0    0  501 -0.00000000000E+00 -0.00000000000E+00 -0.42426196048E+03  0.42426196048E+03  0.00000000000E+00 0.  1.
         23    2    1    2    0    0  0.55063575197E+03 -0.66720843383E+03  0.15276746303E+04  0.17579984196E+04  0.91661560978E+02 0.  0.
         11    1    3    3    0    0  0.20733051986E+03 -0.31457678916E+03  0.62038964152E+03  0.72582904878E+03  0.00000000000E+00 0. -1.
        -11    1    3    3    0    0  0.34330523211E+03 -0.35263164467E+03  0.90728498873E+03  0.10321693708E+04  0.00000000000E+00 0.  1.
         22    1    1    2    0    0 -0.55063575197E+03  0.66720843383E+03  0.29617870006E+03  0.91437883171E+03  0.00000000000E+00 0.  1.
<mgrwt>
<rscale>  0 0.19532433E+04</rscale>
<asrwt>0</asrwt>
<pdfrwt beam="1">  1        1 0.34586389E+00 0.19532433E+04</pdfrwt>
<pdfrwt beam="2">  1       -1 0.65271072E-01 0.19532433E+04</pdfrwt>
<totfact> 0.44772320E+00</totfact>
</mgrwt>
</event>
<event>
 6    1  0.1614874E-005  0.1529807E+04  0.7818608E-02  0.8864870E-01
          2   -1    0    0  501    0  0.00000000000E+00  0.00000000000E+00  0.36400112530E+03  0.36400112530E+03  0.00000000000E+00 0. -1.
         -2   -1    0    0    0  501 -0.00000000000E+00 -0.00000000000E+00 -0.16073511625E+04  0.16073511625E+04  0.00000000000E+00 0.  1.
         23    2    1    2    0    0 -0.64230950058E+03 -0.34824680696E+03 -0.34174467908E+03  0.81086551283E+03  0.82922380101E+02 0.  0.
         13    1    3    3    0    0 -0.32341086934E+03 -0.15126733192E+03 -0.20605417621E+03  0.41223139090E+03  0.00000000000E+00 0.  1.
        -13    1    3    3    0    0 -0.31889863124E+03 -0.19697947504E+03 -0.13569050287E+03  0.39863412193E+03  0.00000000000E+00 0. -1.
         22    1    1    2    0    0  0.64230950058E+03  0.34824680696E+03 -0.90160535814E+03  0.11604867750E+04  0.00000000000E+00 0. -1.
<mgrwt>
<rscale>  0 0.15298073E+04</rscale>
<asrwt>0</asrwt>
<pdfrwt beam="1">  1        2 0.56000173E-01 0.15298073E+04</pdfrwt>
<pdfrwt beam="2">  1       -2 0.24728479E+00 0.15298073E+04</pdfrwt>
<totfact> 0.56955524E+00</totfact>
</mgrwt>
</event>
<event>
 6    1  0.1614874E-005  0.4084414E+04  0.7818608E-02  0.7987731E-01
          2   -1    0    0  501    0  0.00000000000E+00  0.00000000000E+00  0.32931457865E+04  0.32931457865E+04  0.00000000000E+00 0. -1.
         -2   -1    0    0    0  501 -0.00000000000E+00 -0.00000000000E+00 -0.12664512309E+04  0.12664512309E+04  0.00000000000E+00 0.  1.
         23    2    1    2    0    0  0.60785636777E+03  0.15279980049E+04 -0.33572133294E+03  0.16811814642E+04  0.96927990173E+02 0.  0.
         13    1    3    3    0    0  0.73864258677E+02  0.27976919674E+03 -0.71447858305E+02  0.29804618536E+03  0.00000000000E+00 0.  1.
        -13    1    3    3    0    0  0.53399210910E+03  0.12482288082E+04 -0.26427347463E+03  0.13831352788E+04  0.00000000000E+00 0. -1.
         22    1    1    2    0    0 -0.60785636777E+03 -0.15279980049E+04  0.23624158885E+04  0.28784155533E+04  0.00000000000E+00 0. -1.
<mgrwt>
<rscale>  0 0.40844136E+04</rscale>
<asrwt>0</asrwt>
<pdfrwt beam="1">  1        2 0.50663781E+00 0.40844136E+04</pdfrwt>
<pdfrwt beam="2">  1       -2 0.19483865E+00 0.40844136E+04</pdfrwt>
<totfact> 0.12673660E-01</totfact>
</mgrwt>
</event>
<event>
 6    1  0.1614874E-005  0.1607151E+04  0.7818608E-02  0.8816167E-01
         -1   -1    0    0    0  501 -0.00000000000E+00  0.00000000000E+00  0.32114022575E+03  0.32114022575E+03  0.00000000000E+00 0.  1.
          1   -1    0    0  501    0  0.00000000000E+00 -0.00000000000E+00 -0.20107538112E+04  0.20107538112E+04  0.00000000000E+00 0. -1.
         23    2    1    2    0    0  0.14458213550E+03  0.60343400921E+03 -0.11253996043E+03  0.63713806156E+03  0.90791351046E+02 0.  0.
         13    1    3    3    0    0  0.87269377228E+02  0.18554689676E+03 -0.27965081490E+02  0.20694356931E+03  0.00000000000E+00 0. -1.
        -13    1    3    3    0    0  0.57312758271E+02  0.41788711245E+03 -0.84574878943E+02  0.43019449225E+03  0.00000000000E+00 0.  1.
         22    1    1    2    0    0 -0.14458213550E+03 -0.60343400921E+03 -0.15770736250E+04  0.16947559753E+04  0.00000000000E+00 0. -1.
<mgrwt>
<rscale>  0 0.16071514E+04</rscale>
<asrwt>0</asrwt>
<pdfrwt beam="1">  1        1 0.30934675E+00 0.16071514E+04</pdfrwt>
<pdfrwt beam="2">  1       -1 0.49406188E-01 0.16071514E+04</pdfrwt>
<totfact> 0.11544032E+01</totfact>
</mgrwt>
</event>
<event>
 6    1  0.2950927E-005  0.3843102E+04  0.7818608E-02  0.8036968E-01
          2   -1    0    0  501    0  0.00000000000E+00  0.00000000000E+00  0.25813527045E+04  0.25813527045E+04  0.00000000000E+00 0. -1.
         -2   -1    0    0    0  501 -0.00000000000E+00 -0.00000000000E+00 -0.14303965115E+04  0.14303965115E+04  0.00000000000E+00 0.  1.
         23    2    1    2    0    0 -0.29433611144E+03 -0.37649789137E+03 -0.13658043683E+04  0.14500177446E+04  0.93517262164E+02 0.  0.
         11    1    3    3    0    0 -0.84732174849E+02 -0.62583179730E+02 -0.38297706829E+03  0.39719973650E+03  0.00000000000E+00 0.  1.
        -11    1    3    3    0    0 -0.20960393659E+03 -0.31391471164E+03 -0.98282730006E+03  0.10528180081E+04  0.00000000000E+00 0. -1.
         22    1    1    2    0    0  0.29433611144E+03  0.37649789137E+03  0.25167605613E+04  0.25617314715E+04  0.00000000000E+00 0. -1.
<mgrwt>
<rscale>  0 0.38431018E+04</rscale>
<asrwt>0</asrwt>
<pdfrwt beam="1">  1        2 0.39713119E+00 0.38431018E+04</pdfrwt>
<pdfrwt beam="2">  1       -2 0.22006100E+00 0.38431018E+04</pdfrwt>
<totfact> 0.24621207E-01</totfact>
</mgrwt>
</event>
<event>
 6    1  0.1614874E-005  0.1600982E+03  0.7818608E-02  0.1188586E+00
         -3   -1    0    0    0  501 -0.00000000000E+00  0.00000000000E+00  0.27718201492E+02  0.27718201492E+02  0.00000000000E+00 0.  1.
          3   -1    0    0  501    0  0.00000000000E+00 -0.00000000000E+00 -0.23117861320E+03  0.23117861320E+03  0.00000000000E+00 0. -1.
         23    2    1    2    0    0 -0.44856950872E+02  0.30373793483E+02 -0.13423387744E+03  0.17099330840E+03  0.91023427162E+02 0.  0.
         11    1    3    3    0    0 -0.62996214048E+01  0.13450241797E+02  0.11825620683E+02  0.18985245292E+02  0.00000000000E+00 0. -1.
        -11    1    3    3    0    0 -0.38557329467E+02  0.16923551686E+02 -0.14605949812E+03  0.15200806311E+03  0.00000000000E+00 0.  1.
         22    1    1    2    0    0  0.44856950872E+02 -0.30373793483E+02 -0.69226534272E+02  0.87903506298E+02  0.00000000000E+00 0. -1.
<mgrwt>
<rscale>  0 0.16009816E+03</rscale>
<asrwt>0</asrwt>
<pdfrwt beam="1">  1        3 0.35565941E-01 0.16009816E+03</pdfrwt>
<pdfrwt beam="2">  1       -3 0.42643386E-02 0.16009816E+03</pdfrwt>
<totfact> 0.53687604E+03</totfact>
</mgrwt>
</event>
<event>
 6    1  0.1614874E-005  0.4274017E+04  0.7818608E-02  0.7951440E-01
          2   -1    0    0  501    0  0.00000000000E+00  0.00000000000E+00  0.97122516735E+03  0.97122516735E+03  0.00000000000E+00 0. -1.
         -2   -1    0    0    0  501 -0.00000000000E+00 -0.00000000000E+00 -0.47021071931E+04  0.47021071931E+04  0.00000000000E+00 0.  1.
         23    2    1    2    0    0 -0.10197614483E+04  0.14338149602E+04 -0.25853175933E+03  0.17806526762E+04  0.90258135671E+02 0.  0.
         13    1    3    3    0    0 -0.65185307143E+03  0.96237374396E+03 -0.13679563988E+03  0.11703797234E+04  0.00000000000E+00 0.  1.
        -13    1    3    3    0    0 -0.36790837687E+03  0.47144121624E+03 -0.12173611945E+03  0.61027295280E+03  0.00000000000E+00 0. -1.
         22    1    1    2    0    0  0.10197614483E+04 -0.14338149602E+04 -0.34723502664E+04  0.38926796842E+04  0.00000000000E+00 0. -1.
<mgrwt>
<rscale>  0 0.42740168E+04</rscale>
<asrwt>0</asrwt>
<pdfrwt beam="1">  1        2 0.14941926E+00 0.42740168E+04</pdfrwt>
<pdfrwt beam="2">  1       -2 0.72340110E+00 0.42740168E+04</pdfrwt>
<totfact> 0.37777106E-03</totfact>
</mgrwt>
</event>
<event>
 6    1  0.1614874E-005  0.1280473E+04  0.7818608E-02  0.9045195E-01
          1   -1    0    0  501    0  0.00000000000E+00  0.00000000000E+00  0.23808910883E+03  0.23808910883E+03  0.00000000000E+00 0. -1.
         -1   -1    0    0    0  501 -0.00000000000E+00 -0.00000000000E+00 -0.17216364573E+04  0.17216364573E+04  0.00000000000E+00 0.  1.
         23    2    1    2    0    0 -0.33895279113E+03 -0.29015308189E+03 -0.49440595699E+02  0.45781345690E+03  0.89838651300E+02 0.  0.
         11    1    3    3    0    0 -0.17463360877E+03 -0.19378455820E+03 -0.57597224869E+02  0.26714563934E+03  0.00000000000E+00 0.  1.
        -11    1    3    3    0    0 -0.16431918236E+03 -0.96368523686E+02  0.81566291705E+01  0.19066781755E+03  0.00000000000E+00 0. -1.
         22    1    1    2    0    0  0.33895279113E+03  0.29015308189E+03 -0.14341067527E+04  0.15019121092E+04  0.00000000000E+00 0.  1.
<mgrwt>
<rscale>  0 0.12804732E+04</rscale>
<asrwt>0</asrwt>
<pdfrwt beam="1">  1        1 0.36629093E-01 0.12804732E+04</pdfrwt>
<pdfrwt beam="2">  1       -1 0.26486715E+00 0.12804732E+04</pdfrwt>
<totfact> 0.65222803E+00</totfact>
</mgrwt>
</event>
<event>
 6    1  0.1614874E-005  0.3018731E+04  0.7818608E-02  0.8238402E-01
         -1   -1    0    0    0  501 -0.00000000000E+00  0.00000000000E+00  0.11497291263E+04  0.11497291263E+04  0.00000000000E+00 0.  1.
          1   -1    0    0  501    0  0.00000000000E+00 -0.00000000000E+00 -0.19814965245E+04  0.19814965245E+04  0.00000000000E+00 0. -1.
         23    2    1    2    0    0 -0.30673409462E+03 -0.52750267995E+03 -0.18464506678E+04  0.19471956597E+04  0.99226943274E+02 0.  0.
         11    1    3    3    0    0 -0.19980152513E+03 -0.42657823099E+03 -0.14237218670E+04  0.14996244834E+04  0.00000000000E+00 0.  1.
        -11    1    3    3    0    0 -0.10693256949E+03 -0.10092444896E+03 -0.42272880077E+03  0.44757117625E+03  0.00000000000E+00 0. -1.
         22    1    1    2    0    0  0.30673409462E+03  0.52750267995E+03  0.10146832697E+04  0.11840299911E+04  0.00000000000E+00 0.  1.
<mgrwt>
<rscale>  0 0.30187310E+04</rscale>
<asrwt>0</asrwt>
<pdfrwt beam="1">  1        1 0.30484562E+00 0.30187310E+04</pdfrwt>
<pdfrwt beam="2">  1       -1 0.17688141E+00 0.30187310E+04</pdfrwt>
<totfact> 0.57127193E-01</totfact>
</mgrwt>
</event>
<event>
 6    1  0.1614874E-005  0.9620667E+03  0.7818608E-02  0.9351157E-01
          2   -1    0    0  501    0  0.00000000000E+00  0.00000000000E+00  0.86730999993E+03  0.86730999993E+03  0.00000000000E+00 0.  1.
         -2   -1    0    0    0  501 -0.00000000000E+00 -0.00000000000E+00 -0.26679394976E+03  0.26679394976E+03  0.00000000000E+00 0. -1.
         23    2    1    2    0    0 -0.15543611986E+03  0.12610866494E+03 -0.20786030299E+03  0.30131579472E+03  0.86726696351E+02 0.  0.
         13    1    3    3    0    0 -0.79645432948E+02  0.92668115671E+02 -0.70956436626E+02  0.14129964809E+03  0.00000000000E+00 0.  1.
        -13    1    3    3    0    0 -0.75790686909E+02  0.33440549268E+02 -0.13690386636E+03  0.16001614663E+03  0.00000000000E+00 0. -1.
         22    1    1    2    0    0  0.15543611986E+03 -0.12610866494E+03  0.80837635315E+03  0.83278815497E+03  0.00000000000E+00 0.  1.
<mgrwt>
<rscale>  0 0.96206665E+03</rscale>
<asrwt>0</asrwt>
<pdfrwt beam="1">  1        2 0.13343231E+00 0.96206665E+03</pdfrwt>
<pdfrwt beam="2">  1       -2 0.41045223E-01 0.96206665E+03</pdfrwt>
<totfact> 0.17347792E+02</totfact>
</mgrwt>
</event>
<event>
 6    1  0.1614874E-005  0.1576644E+04  0.7818608E-02  0.8835027E-01
          2   -1    0    0  501    0  0.00000000000E+00  0.00000000000E+00  0.37163406596E+03  0.37163406596E+03  0.00000000000E+00 0. -1.
         -2   -1    0    0    0  501 -0.00000000000E+00 -0.00000000000E+00 -0.16722130032E+04  0.16722130032E+04  0.00000000000E+00 0.  1.
         23    2    1    2    0    0  0.51088314107E+03  0.19500193075E+02  0.12129948187E+03  0.53284737356E+03  0.88492473421E+02 0.  0.
         11    1    3    3    0    0  0.37658394013E+02  0.91096807661E+01  0.33953875741E+02  0.51517051557E+02  0.00000000000E+00 0.  1.
        -11    1    3    3    0    0  0.47322474705E+03  0.10390512309E+02  0.87345606132E+02  0.48133032201E+03  0.00000000000E+00 0. -1.
         22    1    1    2    0    0 -0.51088314107E+03 -0.19500193075E+02 -0.14218784191E+04  0.15109996956E+04  0.00000000000E+00 0.  1.
<mgrwt>
<rscale>  0 0.15766437E+04</rscale>
<asrwt>0</asrwt>
<pdfrwt beam="1">  1        2 0.57174472E-01 0.15766437E+04</pdfrwt>
<pdfrwt beam="2">  1       -2 0.25726354E+00 0.15766437E+04</pdfrwt>
<totfact> 0.48157451E+00</totfact>
</mgrwt>
</event>
<event>
 6    1  0.1614874E-005  0.2133663E+04  0.7818608E-02  0.8546558E-01
         -2   -1    0    0    0  501 -0.00000000000E+00  0.00000000000E+00  0.33620216434E+03  0.33620216434E+03  0.00000000000E+00 0.  1.
          2   -1    0    0  501    0  0.00000000000E+00 -0.00000000000E+00 -0.33852526189E+04  0.33852526189E+04  0.00000000000E+00 0. -1.
         23    2    1    2    0    0  0.24029356112E+03  0.76896999558E+03 -0.27418206646E+04  0.28592216399E+04  0.92260390271E+02 0.  0.
         11    1    3    3    0    0  0.17048188654E+03  0.40616831864E+03 -0.14218741349E+04  0.14885438631E+04  0.00000000000E+00 0. -1.
        -11    1    3    3    0    0  0.69811674585E+02  0.36280167694E+03 -0.13199465296E+04  0.13706777768E+04  0.00000000000E+00 0.  1.
         22    1    1    2    0    0 -0.24029356112E+03 -0.76896999558E+03 -0.30722978993E+03  0.86223314332E+03  0.00000000000E+00 0.  1.
<mgrwt>
<rscale>  0 0.21336628E+04</rscale>
<asrwt>0</asrwt>
<pdfrwt beam="1">  1        2 0.52080808E+00 0.21336628E+04</pdfrwt>
<pdfrwt beam="2">  1       -2 0.51723411E-01 0.21336628E+04</pdfrwt>
<totfact> 0.31767490E+00</totfact>
</mgrwt>
</event>
<event>
 6    1  0.1614874E-005  0.4069278E+03  0.7818608E-02  0.1041407E+00
          1   -1    0    0  501    0  0.00000000000E+00  0.00000000000E+00  0.65219794925E+03  0.65219794925E+03  0.00000000000E+00 0. -1.
         -1   -1    0    0    0  501 -0.00000000000E+00 -0.00000000000E+00 -0.63473930000E+02  0.63473930000E+02  0.00000000000E+00 0.  1.
         23    2    1    2    0    0  0.14951209446E+03 -0.11916830792E+03  0.25015146981E+03  0.32684502416E+03  0.87732319987E+02 0.  0.
         13    1    3    3    0    0  0.56832881658E+02  0.20833816881E+01  0.55126287650E+02  0.79203689983E+02  0.00000000000E+00 0. -1.
        -13    1    3    3    0    0  0.92679212801E+02 -0.12125168961E+03  0.19502518216E+03  0.24764133418E+03  0.00000000000E+00 0.  1.
         22    1    1    2    0    0 -0.14951209446E+03  0.11916830792E+03  0.33857254944E+03  0.38882685508E+03  0.00000000000E+00 0. -1.
<mgrwt>
<rscale>  0 0.40692784E+03</rscale>
<asrwt>0</asrwt>
<pdfrwt beam="1">  1        1 0.10033814E+00 0.40692784E+03</pdfrwt>
<pdfrwt beam="2">  1       -1 0.97652204E-02 0.40692784E+03</pdfrwt>
<totfact> 0.19827737E+03</totfact>
</mgrwt>
</event>
<event>
 6    1  0.1614874E-005  0.3758506E+04  0.7818608E-02  0.8055119E-01
          1   -1    0    0  501    0  0.00000000000E+00  0.00000000000E+00  0.34268360057E+04  0.34268360057E+04  0.00000000000E+00 0. -1.
         -1   -1    0    0    0  501 -0.00000000000E+00 -0.00000000000E+00 -0.10305691400E+04  0.10305691400E+04  0.00000000000E+00 0.  1.
         23    2    1    2    0    0  0.18272233870E+04 -0.22014812684E+03  0.75467662223E+03  0.19912281384E+04  0.90786514890E+02 0.  0.
         11    1    3    3    0    0  0.15141338271E+04 -0.15869362840E+03  0.59657360799E+03  0.16351406618E+04  0.00000000000E+00 0. -1.
        -11    1    3    3    0    0  0.31308955993E+03 -0.61454498439E+02  0.15810301424E+03  0.35608747665E+03  0.00000000000E+00 0.  1.
         22    1    1    2    0    0 -0.18272233870E+04  0.22014812684E+03  0.16415902434E+04  0.24661770073E+04  0.00000000000E+00 0. -1.
<mgrwt>
<rscale>  0 0.37585058E+04</rscale>
<asrwt>0</asrwt>
<pdfrwt beam="1">  1        1 0.52720553E+00 0.37585058E+04</pdfrwt>
<pdfrwt beam="2">  1       -1 0.15854910E+00 0.37585058E+04</pdfrwt>
<totfact> 0.68152847E-02</totfact>
</mgrwt>
</event>
<event>
 6    1  0.1614874E-005  0.1418735E+04  0.7818608E-02  0.8940367E-01
          1   -1    0    0  501    0  0.00000000000E+00  0.00000000000E+00  0.23793384104E+04  0.23793384104E+04  0.00000000000E+00 0. -1.
         -1   -1    0    0    0  501 -0.00000000000E+00 -0.00000000000E+00 -0.21148844655E+03  0.21148844655E+03  0.00000000000E+00 0.  1.
         23    2    1    2    0    0 -0.11854079979E+03 -0.65758049903E+03  0.66864716480E+03  0.94946368368E+03  0.89040562114E+02 0.  0.
         11    1    3    3    0    0 -0.85749572605E+02 -0.23879772327E+03  0.23825925433E+03  0.34805863603E+03  0.00000000000E+00 0. -1.
        -11    1    3    3    0    0 -0.32791227186E+02 -0.41878277576E+03  0.43038791047E+03  0.60140504765E+03  0.00000000000E+00 0.  1.
         22    1    1    2    0    0  0.11854079979E+03  0.65758049903E+03  0.14992027991E+04  0.16413631733E+04  0.00000000000E+00 0.  1.
<mgrwt>
<rscale>  0 0.14187355E+04</rscale>
<asrwt>0</asrwt>
<pdfrwt beam="1">  1        1 0.36605205E+00 0.14187355E+04</pdfrwt>
<pdfrwt beam="2">  1       -1 0.32536686E-01 0.14187355E+04</pdfrwt>
<totfact> 0.14166359E+01</totfact>
</mgrwt>
</event>
<event>
 6    1  0.1614874E-005  0.2088578E+04  0.7818608E-02  0.8566291E-01
         -2   -1    0    0    0  501 -0.00000000000E+00  0.00000000000E+00  0.64808359047E+03  0.64808359047E+03  0.00000000000E+00 0.  1.
          2   -1    0    0  501    0  0.00000000000E+00 -0.00000000000E+00 -0.16827150269E+04  0.16827150269E+04  0.00000000000E+00 0. -1.
         23    2    1    2    0    0  0.46405144880E+03  0.91578721582E+03 -0.71709900771E+03  0.12561652775E+04  0.98540579211E+02 0.  0.
         13    1    3    3    0    0  0.39562253073E+02  0.10102210571E+03 -0.43135861793E+02  0.11675333093E+03  0.00000000000E+00 0.  1.
        -13    1    3    3    0    0  0.42448919573E+03  0.81476511011E+03 -0.67396314592E+03  0.11394119466E+04  0.00000000000E+00 0. -1.
         22    1    1    2    0    0 -0.46405144880E+03 -0.91578721582E+03 -0.31753242867E+03  0.10746333398E+04  0.00000000000E+00 0.  1.
<mgrwt>
<rscale>  0 0.20885785E+04</rscale>
<asrwt>0</asrwt>
<pdfrwt beam="1">  1        2 0.25887923E+00 0.20885785E+04</pdfrwt>
<pdfrwt beam="2">  1       -2 0.99705169E-01 0.20885785E+04</pdfrwt>
<totfact> 0.76935685E+00</totfact>
</mgrwt>
</event>
<event>
 6    1  0.1614874E-005  0.1448290E+04  0.7818608E-02  0.8919587E-01
         -2   -1    0    0    0  501 -0.00000000000E+00  0.00000000000E+00  0.14772913414E+04  0.14772913414E+04  0.00000000000E+00 0.  1.
          2   -1    0    0  501    0  0.00000000000E+00 -0.00000000000E+00 -0.35496436851E+03  0.35496436851E+03  0.00000000000E+00 0. -1.
         23    2    1    2    0    0 -0.29504506826E+03 -0.64424231836E+03  0.73332965653E+03  0.10239125469E+04  0.92329634597E+02 0.  0.
         13    1    3    3    0    0 -0.22183326366E+03 -0.44288229581E+03  0.45435205554E+03  0.67215363956E+03  0.00000000000E+00 0. -1.
        -13    1    3    3    0    0 -0.73211804592E+02 -0.20136002255E+03  0.27897760100E+03  0.35175890731E+03  0.00000000000E+00 0.  1.
         22    1    1    2    0    0  0.29504506826E+03  0.64424231836E+03  0.38899731631E+03  0.80834316300E+03  0.00000000000E+00 0.  1.
<mgrwt>
<rscale>  0 0.14482897E+04</rscale>
<asrwt>0</asrwt>
<pdfrwt beam="1">  1        2 0.54609904E-01 0.14482897E+04</pdfrwt>
<pdfrwt beam="2">  1       -2 0.22727559E+00 0.14482897E+04</pdfrwt>
<totfact> 0.78436786E+00</totfact>
</mgrwt>
</event>
<event>
 6    1  0.1614874E-005  0.2175242E+04  0.7818608E-02  0.8528804E-01
         -2   -1    0    0    0  501 -0.00000000000E+00  0.00000000000E+00  0.91719491223E+03  0.91719491223E+03  0.00000000000E+00 0.  1.
          2   -1    0    0  501    0  0.00000000000E+00 -0.00000000000E+00 -0.12897142651E+04  0.12897142651E+04  0.00000000000E+00 0. -1.
         23    2    1    2    0    0 -0.99196622653E+03 -0.44126043753E+03 -0.17866891239E+03  0.11040557140E+04  0.91151912169E+02 0.  0.
         11    1    3    3    0    0 -0.31488751610E+03 -0.12012278179E+03 -0.17072322320E+02  0.33745384083E+03  0.00000000000E+00 0. -1.
        -11    1    3    3    0    0 -0.67707871043E+03 -0.32113765575E+03 -0.16159659007E+03  0.76660187319E+03  0.00000000000E+00 0.  1.
         22    1    1    2    0    0  0.99196622653E+03  0.44126043753E+03 -0.19385044050E+03  0.11028534633E+04  0.00000000000E+00 0.  1.
<mgrwt>
<rscale>  0 0.21752419E+04</rscale>
<asrwt>0</asrwt>
<pdfrwt beam="1">  1        2 0.19841758E+00 0.21752419E+04</pdfrwt>
<pdfrwt beam="2">  1       -2 0.14110691E+00 0.21752419E+04</pdfrwt>
<totfact> 0.54027844E+00</totfact>
</mgrwt>
</event>
<event>
 6    1  0.1614874E-005  0.2555686E+04  0.7818608E-02  0.8383411E-01
          1   -1    0    0  501    0  0.00000000000E+00  0.00000000000E+00  0.19763381689E+04  0.19763381689E+04  0.00000000000E+00 0. -1.
         -1   -1    0    0    0  501 -0.00000000000E+00 -0.00000000000E+00 -0.82621625932E+03  0.82621625932E+03  0.00000000000E+00 0.  1.
         23    2    1    2    0    0 -0.10576163130E+04 -0.69796876856E+03  0.74214791417E+03  0.14713311381E+04  0.91209231161E+02 0.  0.
         11    1    3    3    0    0 -0.89940755175E+03 -0.55332610955E+03  0.62371357014E+03  0.12264266571E+04  0.00000000000E+00 0. -1.
        -11    1    3    3    0    0 -0.15820876126E+03 -0.14464265901E+03  0.11843434404E+03  0.24490448096E+03  0.00000000000E+00 0.  1.
         22    1    1    2    0    0  0.10576163130E+04  0.69796876856E+03  0.40797399544E+03  0.13312232902E+04  0.00000000000E+00 0.  1.
<mgrwt>
<rscale>  0 0.25556860E+04</rscale>
<asrwt>0</asrwt>
<pdfrwt beam="1">  1        1 0.30405203E+00 0.25556860E+04</pdfrwt>
<pdfrwt beam="2">  1       -1 0.12711019E+00 0.25556860E+04</pdfrwt>
<totfact> 0.14670647E+00</totfact>
</mgrwt>
</event>
<event>
 6    1  0.1614874E-005  0.2624522E+04  0.7818608E-02  0.8359919E-01
          2   -1    0    0  501    0  0.00000000000E+00  0.00000000000E+00  0.22094058885E+04  0.22094058885E+04  0.00000000000E+00 0. -1.
         -2   -1    0    0    0  501 -0.00000000000E+00 -0.00000000000E+00 -0.77940841944E+03  0.77940841944E+03  0.00000000000E+00 0.  1.
         23    2    1    2    0    0 -0.72421987272E+03  0.59275978237E+03  0.17608623610E+04  0.19961763275E+04  0.90692295492E+02 0.  0.
         13    1    3    3    0    0 -0.40810336509E+03  0.30176019422E+03  0.87316107619E+03  0.10099593241E+04  0.00000000000E+00 0.  1.
        -13    1    3    3    0    0 -0.31611650763E+03  0.29099958816E+03  0.88770128481E+03  0.98621700338E+03  0.00000000000E+00 0. -1.
         22    1    1    2    0    0  0.72421987272E+03 -0.59275978237E+03 -0.33086489189E+03  0.99263798050E+03  0.00000000000E+00 0.  1.
<mgrwt>
<rscale>  0 0.26245225E+04</rscale>
<asrwt>0</asrwt>
<pdfrwt beam="1">  1        2 0.33990860E+00 0.26245225E+04</pdfrwt>
<pdfrwt beam="2">  1       -2 0.11990899E+00 0.26245225E+04</pdfrwt>
<totfact> 0.23955045E+00</totfact>
</mgrwt>
</event>
<event>
 6    1  0.1614874E-005  0.1318425E+04  0.7818608E-02  0.9015080E-01
          2   -1    0    0  501    0  0.00000000000E+00  0.00000000000E+00  0.16034364768E+04  0.16034364768E+04  0.00000000000E+00 0.  1.
         -2   -1    0    0    0  501 -0.00000000000E+00 -0.00000000000E+00 -0.27101853228E+03  0.27101853228E+03  0.00000000000E+00 0. -1.
         23    2    1    2    0    0  0.96045650204E+02 -0.23408417616E+03  0.15300953527E+04  0.15533685314E+04  0.87987713276E+02 0.  0.
         11    1    3    3    0    0  0.34506091249E+02 -0.18532679174E+03  0.11348455955E+04  0.11503961125E+04  0.00000000000E+00 0. -1.
        -11    1    3    3    0    0  0.61539558955E+02 -0.48757384416E+02  0.39524975717E+03  0.40297241890E+03  0.00000000000E+00 0.  1.
         22    1    1    2    0    0 -0.96045650204E+02  0.23408417616E+03 -0.19767740815E+03  0.32108647767E+03  0.00000000000E+00 0. -1.
<mgrwt>
<rscale>  0 0.13184248E+04</rscale>
<asrwt>0</asrwt>
<pdfrwt beam="1">  1        2 0.24668253E+00 0.13184248E+04</pdfrwt>
<pdfrwt beam="2">  1       -2 0.41695160E-01 0.13184248E+04</pdfrwt>
<totfact> 0.59221852E+01</totfact>
</mgrwt>
</event>
<event>
 6    1  0.1614874E-005  0.3060797E+04  0.7818608E-02  0.8226580E-01
         -2   -1    0    0    0  501 -0.00000000000E+00  0.00000000000E+00  0.12855042788E+04  0.12855042788E+04  0.00000000000E+00 0. -1.
          2   -1    0    0  501    0  0.00000000000E+00 -0.00000000000E+00 -0.18219465482E+04  0.18219465482E+04  0.00000000000E+00 0.  1.
         23    2    1    2    0    0  0.21995060631E+03 -0.30453163577E+03  0.12364070520E+04  0.12952387800E+04  0.88449492023E+02 0.  0.
         11    1    3    3    0    0 -0.38588191273E+01 -0.23322301116E+02  0.12337512580E+03  0.12561943273E+03  0.00000000000E+00 0.  1.
        -11    1    3    3    0    0  0.22380942544E+03 -0.28120933465E+03  0.11130319262E+04  0.11696193473E+04  0.00000000000E+00 0. -1.
         22    1    1    2    0    0 -0.21995060631E+03  0.30453163577E+03 -0.17728493215E+04  0.18122120469E+04  0.00000000000E+00 0.  1.
<mgrwt>
<rscale>  0 0.30607973E+04</rscale>
<asrwt>0</asrwt>
<pdfrwt beam="1">  1        2 0.28029947E+00 0.30607973E+04</pdfrwt>
<pdfrwt beam="2">  1       -2 0.19776989E+00 0.30607973E+04</pdfrwt>
<totfact> 0.98327527E-01</totfact>
</mgrwt>
</event>
<event>
 6    1  0.1614874E-005  0.2205793E+04  0.7818608E-02  0.8516021E-01
          2   -1    0    0  501    0  0.00000000000E+00  0.00000000000E+00  0.20164507911E+04  0.20164507911E+04  0.00000000000E+00 0.  1.
         -2   -1    0    0    0  501 -0.00000000000E+00 -0.00000000000E+00 -0.60322847150E+03  0.60322847150E+03  0.00000000000E+00 0. -1.
         23    2    1    2    0    0 -0.91597229100E+03 -0.20143079915E+03  0.13927579374E+04  0.16815969658E+04  0.91728285389E+02 0.  0.
         11    1    3    3    0    0 -0.58763882352E+03 -0.87430959442E+02  0.84795199104E+03  0.10353676346E+04  0.00000000000E+00 0. -1.
        -11    1    3    3    0    0 -0.32833346748E+03 -0.11399983971E+03  0.54480594636E+03  0.64622933120E+03  0.00000000000E+00 0.  1.
         22    1    1    2    0    0  0.91597229100E+03  0.20143079915E+03  0.20464382215E+02  0.93808229685E+03  0.00000000000E+00 0. -1.
<mgrwt>
<rscale>  0 0.22057929E+04</rscale>
<asrwt>0</asrwt>
<pdfrwt beam="1">  1        2 0.31022320E+00 0.22057929E+04</pdfrwt>
<pdfrwt beam="2">  1       -2 0.92804381E-01 0.22057929E+04</pdfrwt>
<totfact> 0.58819800E+00</totfact>
</mgrwt>
</event>
<event>
 6    1  0.1614874E-005  0.3801297E+04  0.7818608E-02  0.8045877E-01
          1   -1    0    0  501    0  0.00000000000E+00  0.00000000000E+00  0.25678551324E+04  0.25678551324E+04  0.00000000000E+00 0. -1.
         -1   -1    0    0    0  501 -0.00000000000E+00 -0.00000000000E+00 -0.14068023941E+04  0.14068023941E+04  0.00000000000E+00 0.  1.
         23    2    1    2    0    0 -0.33523609809E+03 -0.10532097043E+04 -0.10344842028E+04  0.15166061880E+04  0.91119925796E+02 0.  0.
         11    1    3    3    0    0 -0.79302896596E+02 -0.25552268937E+03 -0.19883196150E+03  0.33333908127E+03  0.00000000000E+00 0.  1.
        -11    1    3    3    0    0 -0.25593320150E+03 -0.79768701492E+03 -0.83565224132E+03  0.11832671067E+04  0.00000000000E+00 0. -1.
         22    1    1    2    0    0  0.33523609809E+03  0.10532097043E+04  0.21955369411E+04  0.24580513385E+04  0.00000000000E+00 0. -1.
<mgrwt>
<rscale>  0 0.38012970E+04</rscale>
<asrwt>0</asrwt>
<pdfrwt beam="1">  1        1 0.39505464E+00 0.38012970E+04</pdfrwt>
<pdfrwt beam="2">  1       -1 0.21643114E+00 0.38012970E+04</pdfrwt>
<totfact> 0.11241998E-01</totfact>
</mgrwt>
</event>
<event>
 6    1  0.1614874E-005  0.6160390E+04  0.7818608E-02  0.7670827E-01
         -2   -1    0    0    0  501 -0.00000000000E+00  0.00000000000E+00  0.32368534004E+04  0.32368534004E+04  0.00000000000E+00 0.  1.
          2   -1    0    0  501    0  0.00000000000E+00 -0.00000000000E+00 -0.29311187464E+04  0.29311187464E+04  0.00000000000E+00 0. -1.
         23    2    1    2    0    0 -0.67562108818E+03 -0.17458409178E+02 -0.28552500051E+04  0.29355438544E+04  0.90534405756E+02 0.  0.
         13    1    3    3    0    0 -0.17331735070E+03  0.27498937822E+02 -0.64077000411E+03  0.66436533158E+03  0.00000000000E+00 0. -1.
        -13    1    3    3    0    0 -0.50230373748E+03 -0.44957347000E+02 -0.22144800010E+04  0.22711785228E+04  0.00000000000E+00 0.  1.
         22    1    1    2    0    0  0.67562108818E+03  0.17458409178E+02  0.31609846590E+04  0.32324282924E+04  0.00000000000E+00 0.  1.
<mgrwt>
<rscale>  0 0.61603901E+04</rscale>
<asrwt>0</asrwt>
<pdfrwt beam="1">  1        2 0.45094135E+00 0.61603901E+04</pdfrwt>
<pdfrwt beam="2">  1       -2 0.49797744E+00 0.61603901E+04</pdfrwt>
<totfact> 0.21948137E-03</totfact>
</mgrwt>
</event>
<event>
 6    1  0.1614874E-005  0.1680172E+04  0.7818608E-02  0.8772755E-01
          2   -1    0    0  501    0  0.00000000000E+00  0.00000000000E+00  0.44758611949E+04  0.44758611949E+04  0.00000000000E+00 0.  1.
         -2   -1    0    0    0  501 -0.00000000000E+00 -0.00000000000E+00 -0.15767784697E+03  0.15767784697E+03  0.00000000000E+00 0. -1.
         23    2    1    2    0    0 -0.77973665810E+03 -0.65104141816E+02  0.13411947767E+04  0.15554408045E+04  0.91459620486E+02 0.  0.
         11    1    3    3    0    0 -0.40578508280E+03 -0.36593649490E+02  0.60793016462E+03  0.73183311873E+03  0.00000000000E+00 0. -1.
        -11    1    3    3    0    0 -0.37395157530E+03 -0.28510492326E+02  0.73326461206E+03  0.82360768582E+03  0.00000000000E+00 0.  1.
         22    1    1    2    0    0  0.77973665810E+03  0.65104141816E+02  0.29769885713E+04  0.30780982373E+04  0.00000000000E+00 0. -1.
<mgrwt>
<rscale>  0 0.16801716E+04</rscale>
<asrwt>0</asrwt>
<pdfrwt beam="1">  1        2 0.68859393E+00 0.16801716E+04</pdfrwt>
<pdfrwt beam="2">  1       -2 0.24258134E-01 0.16801716E+04</pdfrwt>
<totfact> 0.19267926E+00</totfact>
</mgrwt>
</event>
<event>
 6    1  0.1614874E-005  0.6367763E+04  0.7818608E-02  0.7646404E-01
         -2   -1    0    0    0  501 -0.00000000000E+00  0.00000000000E+00  0.42040405781E+04  0.42040405781E+04  0.00000000000E+00 0.  1.
          2   -1    0    0  501    0  0.00000000000E+00 -0.00000000000E+00 -0.24112761951E+04  0.24112761951E+04  0.00000000000E+00 0. -1.
         23    2    1    2    0    0  0.23632302943E+04  0.18436490184E+04 -0.21702832230E+03  0.30065544029E+04  0.91482009977E+02 0.  0.
         11    1    3    3    0    0  0.14487842736E+04  0.10922854850E+04 -0.16464237406E+03  0.18218590954E+04  0.00000000000E+00 0. -1.
        -11    1    3    3    0    0  0.91444602068E+03  0.75136353341E+03 -0.52385948237E+02  0.11846953075E+04  0.00000000000E+00 0.  1.
         22    1    1    2    0    0 -0.23632302943E+04 -0.18436490184E+04  0.20097927053E+04  0.36087623703E+04  0.00000000000E+00 0.  1.
<mgrwt>
<rscale>  0 0.63677635E+04</rscale>
<asrwt>0</asrwt>
<pdfrwt beam="1">  1        2 0.37096557E+00 0.63677635E+04</pdfrwt>
<pdfrwt beam="2">  1       -2 0.64677547E+00 0.63677635E+04</pdfrwt>
<totfact> 0.90473029E-04</totfact>
</mgrwt>
</event>
<event>
 6    1  0.1614874E-005  0.5983829E+04  0.7818608E-02  0.7692410E-01
         -2   -1    0    0    0  501 -0.00000000000E+00  0.00000000000E+00  0.32066744937E+04  0.32066744937E+04  0.00000000000E+00 0.  1.
          2   -1    0    0  501    0  0.00000000000E+00 -0.00000000000E+00 -0.27915374374E+04  0.27915374374E+04  0.00000000000E+00 0. -1.
         23    2    1    2    0    0 -0.23678915102E+04  0.78454084677E+03 -0.14471889466E+04  0.28852274009E+04  0.88129242165E+02 0.  0.
         13    1    3    3    0    0 -0.15906327820E+04  0.49152490602E+03 -0.93730406236E+03  0.19105622957E+04  0.00000000000E+00 0.  1.
        -13    1    3    3    0    0 -0.77725872817E+03  0.29301594075E+03 -0.50988488425E+03  0.97466510517E+03  0.00000000000E+00 0. -1.
         22    1    1    2    0    0  0.23678915102E+04 -0.78454084677E+03  0.18623260028E+04  0.31129845302E+04  0.00000000000E+00 0.  1.
<mgrwt>
<rscale>  0 0.59838288E+04</rscale>
<asrwt>0</asrwt>
<pdfrwt beam="1">  1        2 0.42946730E+00 0.59838288E+04</pdfrwt>
<pdfrwt beam="2">  1       -2 0.49333453E+00 0.59838288E+04</pdfrwt>
<totfact> 0.28926369E-03</totfact>
</mgrwt>
</event>
<event>
 6    1  0.1614874E-005  0.2262786E+04  0.7818608E-02  0.8492740E-01
         -1   -1    0    0    0  501 -0.00000000000E+00  0.00000000000E+00  0.11894451696E+04  0.11894451696E+04  0.00000000000E+00 0.  1.
          1   -1    0    0  501    0  0.00000000000E+00 -0.00000000000E+00 -0.10761745372E+04  0.10761745372E+04  0.00000000000E+00 0. -1.
         23    2    1    2    0    0  0.59095291763E+03 -0.26672452124E+03 -0.86938056712E+03  0.10883471380E+04  0.91157014637E+02 0.  0.
         11    1    3    3    0    0  0.27505854357E+03 -0.16900685410E+03 -0.39603830201E+03  0.51094701856E+03  0.00000000000E+00 0. -1.
        -11    1    3    3    0    0  0.31589437406E+03 -0.97717667148E+02 -0.47334226511E+03  0.57740011948E+03  0.00000000000E+00 0.  1.
         22    1    1    2    0    0 -0.59095291763E+03  0.26672452124E+03  0.98265119953E+03  0.11772725687E+04  0.00000000000E+00 0.  1.
<mgrwt>
<rscale>  0 0.22627864E+04</rscale>
<asrwt>0</asrwt>
<pdfrwt beam="1">  1        1 0.16556531E+00 0.22627864E+04</pdfrwt>
<pdfrwt beam="2">  1       -1 0.18299156E+00 0.22627864E+04</pdfrwt>
<totfact> 0.23740774E+00</totfact>
</mgrwt>
</event>
<event>
 6    1  0.1614874E-005  0.2522074E+04  0.7818608E-02  0.8395163E-01
         -1   -1    0    0    0  501 -0.00000000000E+00  0.00000000000E+00  0.87346723743E+03  0.87346723743E+03  0.00000000000E+00 0.  1.
          1   -1    0    0  501    0  0.00000000000E+00 -0.00000000000E+00 -0.18205775789E+04  0.18205775789E+04  0.00000000000E+00 0. -1.
         23    2    1    2    0    0 -0.23743250925E+03 -0.91174813935E+03  0.41851396987E+03  0.10349521047E+04  0.91175928820E+02 0.  0.
         13    1    3    3    0    0 -0.85996729610E+02 -0.50784404009E+03  0.21940831519E+03  0.55985803141E+03  0.00000000000E+00 0. -1.
        -13    1    3    3    0    0 -0.15143577964E+03 -0.40390409926E+03  0.19910565467E+03  0.47509407329E+03  0.00000000000E+00 0.  1.
         22    1    1    2    0    0  0.23743250925E+03  0.91174813935E+03 -0.13656243113E+04  0.16590927116E+04  0.00000000000E+00 0. -1.
<mgrwt>
<rscale>  0 0.25220744E+04</rscale>
<asrwt>0</asrwt>
<pdfrwt beam="1">  1        1 0.28008885E+00 0.25220744E+04</pdfrwt>
<pdfrwt beam="2">  1       -1 0.13437958E+00 0.25220744E+04</pdfrwt>
<totfact> 0.16303292E+00</totfact>
</mgrwt>
</event>
<event>
 6    1  0.1614874E-005  0.5387485E+03  0.7818608E-02  0.1004132E+00
         -1   -1    0    0    0  501 -0.00000000000E+00  0.00000000000E+00  0.15492688062E+03  0.15492688062E+03  0.00000000000E+00 0.  1.
          1   -1    0    0  501    0  0.00000000000E+00 -0.00000000000E+00 -0.46836607102E+03  0.46836607102E+03  0.00000000000E+00 0. -1.
         23    2    1    2    0    0 -0.18702827895E+03  0.13520924219E+03 -0.30382303474E+03  0.39230899819E+03  0.91306063995E+02 0.  0.
         13    1    3    3    0    0 -0.27812635354E+02  0.37673748361E+02 -0.12617738203E+03  0.13458672199E+03  0.00000000000E+00 0. -1.
        -13    1    3    3    0    0 -0.15921564360E+03  0.97535493827E+02 -0.17764565272E+03  0.25772227620E+03  0.00000000000E+00 0.  1.
         22    1    1    2    0    0  0.18702827895E+03 -0.13520924219E+03 -0.96161556538E+01  0.23098395345E+03  0.00000000000E+00 0.  1.
<mgrwt>
<rscale>  0 0.53874853E+03</rscale>
<asrwt>0</asrwt>
<pdfrwt beam="1">  1        1 0.72056317E-01 0.53874853E+03</pdfrwt>
<pdfrwt beam="2">  1       -1 0.23834905E-01 0.53874853E+03</pdfrwt>
<totfact> 0.74214424E+02</totfact>
</mgrwt>
</event>
<event>
 6    1  0.1614874E-005  0.9830425E+03  0.7818608E-02  0.9327341E-01
          1   -1    0    0  501    0  0.00000000000E+00  0.00000000000E+00  0.45927089657E+03  0.45927089657E+03  0.00000000000E+00 0. -1.
         -1   -1    0    0    0  501 -0.00000000000E+00 -0.00000000000E+00 -0.52603629205E+03  0.52603629205E+03  0.00000000000E+00 0.  1.
         23    2    1    2    0    0 -0.17577855846E+03 -0.10873316868E+03 -0.47561134918E+03  0.52718491516E+03  0.94851334860E+02 0.  0.
         13    1    3    3    0    0 -0.36380481685E+02 -0.53235291729E+02 -0.23448633700E+03  0.24319000385E+03  0.00000000000E+00 0. -1.
        -13    1    3    3    0    0 -0.13939807677E+03 -0.55497876953E+02 -0.24112501218E+03  0.28399491132E+03  0.00000000000E+00 0.  1.
         22    1    1    2    0    0  0.17577855846E+03  0.10873316868E+03  0.40884595370E+03  0.45812227346E+03  0.00000000000E+00 0. -1.
<mgrwt>
<rscale>  0 0.98304254E+03</rscale>
<asrwt>0</asrwt>
<pdfrwt beam="1">  1        1 0.70657061E-01 0.98304254E+03</pdfrwt>
<pdfrwt beam="2">  1       -1 0.80928660E-01 0.98304254E+03</pdfrwt>
<totfact> 0.76115359E+01</totfact>
</mgrwt>
</event>
<event>
 6    1  0.1614874E-005  0.1966664E+04  0.7818608E-02  0.8622367E-01
          2   -1    0    0  501    0  0.00000000000E+00  0.00000000000E+00  0.13535557034E+04  0.13535557034E+04  0.00000000000E+00 0.  1.
         -2   -1    0    0    0  501 -0.00000000000E+00 -0.00000000000E+00 -0.71437199586E+03  0.71437199586E+03  0.00000000000E+00 0. -1.
         23    2    1    2    0    0 -0.69440447257E+03 -0.87142217002E+02  0.10434344377E+04  0.12597136247E+04  0.91277888823E+02 0.  0.
         11    1    3    3    0    0 -0.12560907269E+03  0.18331956717E+02  0.20325717529E+03  0.23963968595E+03  0.00000000000E+00 0. -1.
        -11    1    3    3    0    0 -0.56879539989E+03 -0.10547417372E+03  0.84017726238E+03  0.10200739387E+04  0.00000000000E+00 0.  1.
         22    1    1    2    0    0  0.69440447257E+03  0.87142217002E+02 -0.40425073013E+03  0.80821407456E+03  0.00000000000E+00 0. -1.
<mgrwt>
<rscale>  0 0.19666645E+04</rscale>
<asrwt>0</asrwt>
<pdfrwt beam="1">  1        2 0.20823934E+00 0.19666645E+04</pdfrwt>
<pdfrwt beam="2">  1       -2 0.10990338E+00 0.19666645E+04</pdfrwt>
<totfact> 0.94405607E+00</totfact>
</mgrwt>
</event>
<event>
 6    1  0.1614874E-005  0.1037333E+04  0.7818608E-02  0.9268521E-01
         -2   -1    0    0    0  501 -0.00000000000E+00  0.00000000000E+00  0.19026142395E+03  0.19026142395E+03  0.00000000000E+00 0.  1.
          2   -1    0    0  501    0  0.00000000000E+00 -0.00000000000E+00 -0.14139221232E+04  0.14139221232E+04  0.00000000000E+00 0. -1.
         23    2    1    2    0    0  0.15044036984E+03 -0.13393088318E+03 -0.13489983144E+04  0.13669509522E+04  0.90491254449E+02 0.  0.
         13    1    3    3    0    0  0.10614008142E+03 -0.42026803973E+02 -0.57174375738E+03  0.58302906723E+03  0.00000000000E+00 0. -1.
        -13    1    3    3    0    0  0.44300288422E+02 -0.91904079209E+02 -0.77725455697E+03  0.78392188493E+03  0.00000000000E+00 0.  1.
         22    1    1    2    0    0 -0.15044036984E+03  0.13393088318E+03  0.12533761512E+03  0.23723259496E+03  0.00000000000E+00 0.  1.
<mgrwt>
<rscale>  0 0.10373328E+04</rscale>
<asrwt>0</asrwt>
<pdfrwt beam="1">  1        2 0.21752648E+00 0.10373328E+04</pdfrwt>
<pdfrwt beam="2">  1       -2 0.29270989E-01 0.10373328E+04</pdfrwt>
<totfact> 0.15181467E+02</totfact>
</mgrwt>
</event>
<event>
 6    1  0.1614874E-005  0.1378486E+04  0.7818608E-02  0.8969540E-01
          2   -1    0    0  501    0  0.00000000000E+00  0.00000000000E+00  0.31828045084E+03  0.31828045084E+03  0.00000000000E+00 0.  1.
         -2   -1    0    0    0  501 -0.00000000000E+00 -0.00000000000E+00 -0.14925711787E+04  0.14925711787E+04  0.00000000000E+00 0. -1.
         23    2    1    2    0    0 -0.21756993545E+03 -0.62633680416E+03 -0.35807378402E+03  0.75926018393E+03  0.92869387011E+02 0.  0.
         11    1    3    3    0    0 -0.19494777325E+03 -0.49444162688E+03 -0.25049209773E+03  0.58755718676E+03  0.00000000000E+00 0.  1.
        -11    1    3    3    0    0 -0.22622162196E+02 -0.13189517728E+03 -0.10758168630E+03  0.17170299718E+03  0.00000000000E+00 0. -1.
         22    1    1    2    0    0  0.21756993545E+03  0.62633680416E+03 -0.81621694383E+03  0.10515914456E+04  0.00000000000E+00 0.  1.
<mgrwt>
<rscale>  0 0.13784865E+04</rscale>
<asrwt>0</asrwt>
<pdfrwt beam="1">  1        2 0.48966223E-01 0.13784865E+04</pdfrwt>
<pdfrwt beam="2">  1       -2 0.22962633E+00 0.13784865E+04</pdfrwt>
<totfact> 0.86127633E+00</totfact>
</mgrwt>
</event>
<event>
 6    1  0.1614874E-005  0.1384480E+04  0.7818608E-02  0.8965130E-01
         -1   -1    0    0    0  501 -0.00000000000E+00  0.00000000000E+00  0.12228004606E+04  0.12228004606E+04  0.00000000000E+00 0.  1.
          1   -1    0    0  501    0  0.00000000000E+00 -0.00000000000E+00 -0.39188412726E+03  0.39188412726E+03  0.00000000000E+00 0. -1.
         23    2    1    2    0    0 -0.61663730381E+03  0.29949219470E+03  0.50019120296E+03  0.85355631288E+03  0.91815034785E+02 0.  0.
         13    1    3    3    0    0 -0.27188826789E+03  0.14423087308E+03  0.27959451615E+03  0.41581109705E+03  0.00000000000E+00 0. -1.
        -13    1    3    3    0    0 -0.34474903592E+03  0.15526132162E+03  0.22059668681E+03  0.43774521583E+03  0.00000000000E+00 0.  1.
         22    1    1    2    0    0  0.61663730381E+03 -0.29949219470E+03  0.33072513043E+03  0.76112827502E+03  0.00000000000E+00 0. -1.
<mgrwt>
<rscale>  0 0.13844798E+04</rscale>
<asrwt>0</asrwt>
<pdfrwt beam="1">  1        1 0.60289866E-01 0.13844798E+04</pdfrwt>
<pdfrwt beam="2">  1       -1 0.18812315E+00 0.13844798E+04</pdfrwt>
<totfact> 0.10963500E+01</totfact>
</mgrwt>
</event>
<event>
 6    1  0.1614874E-005  0.3152931E+04  0.7818608E-02  0.8201360E-01
          1   -1    0    0  501    0  0.00000000000E+00  0.00000000000E+00  0.35908062491E+04  0.35908062491E+04  0.00000000000E+00 0. -1.
         -1   -1    0    0    0  501 -0.00000000000E+00 -0.00000000000E+00 -0.69211272477E+03  0.69211272477E+03  0.00000000000E+00 0.  1.
         23    2    1    2    0    0  0.19290998656E+03  0.23031189997E+03  0.35509618172E+04  0.35647882335E+04  0.90152583082E+02 0.  0.
         13    1    3    3    0    0  0.17436815221E+03  0.21549159951E+03  0.34480358146E+04  0.34591605717E+04  0.00000000000E+00 0. -1.
        -13    1    3    3    0    0  0.18541834350E+02  0.14820300456E+02  0.10292600268E+03  0.10562766188E+03  0.00000000000E+00 0.  1.
         22    1    1    2    0    0 -0.19290998656E+03 -0.23031189997E+03 -0.65226829295E+03  0.71813074030E+03  0.00000000000E+00 0.  1.
<mgrwt>
<rscale>  0 0.31529305E+04</rscale>
<asrwt>0</asrwt>
<pdfrwt beam="1">  1        1 0.55243172E+00 0.31529305E+04</pdfrwt>
<pdfrwt beam="2">  1       -1 0.10647888E+00 0.31529305E+04</pdfrwt>
<totfact> 0.14626788E-01</totfact>
</mgrwt>
</event>
<event>
 6    1  0.1614874E-005  0.1366570E+04  0.7818608E-02  0.8978378E-01
         -1   -1    0    0    0  501 -0.00000000000E+00  0.00000000000E+00  0.25979430141E+03  0.25979430141E+03  0.00000000000E+00 0.  1.
          1   -1    0    0  501    0  0.00000000000E+00 -0.00000000000E+00 -0.17971089749E+04  0.17971089749E+04  0.00000000000E+00 0. -1.
         23    2    1    2    0    0 -0.41977662620E+03  0.48864694330E+02  0.29259265677E+02  0.43432690488E+03  0.95831004453E+02 0.  0.
         13    1    3    3    0    0 -0.28174046941E+03  0.49291746690E+02 -0.22503756294E+02  0.28690379475E+03  0.00000000000E+00 0. -1.
        -13    1    3    3    0    0 -0.13803615679E+03 -0.42705236075E+00  0.51763021971E+02  0.14742311013E+03  0.00000000000E+00 0.  1.
         22    1    1    2    0    0  0.41977662620E+03 -0.48864694330E+02 -0.15665739392E+04  0.16225763715E+04  0.00000000000E+00 0. -1.
<mgrwt>
<rscale>  0 0.13665704E+04</rscale>
<asrwt>0</asrwt>
<pdfrwt beam="1">  1        1 0.27647830E+00 0.13665704E+04</pdfrwt>
<pdfrwt beam="2">  1       -1 0.39968354E-01 0.13665704E+04</pdfrwt>
<totfact> 0.24412983E+01</totfact>
</mgrwt>
</event>
<event>
 6    1  0.1614874E-005  0.3865528E+04  0.7818608E-02  0.8032237E-01
         -1   -1    0    0    0  501 -0.00000000000E+00  0.00000000000E+00  0.10594797916E+04  0.10594797916E+04  0.00000000000E+00 0.  1.
          1   -1    0    0  501    0  0.00000000000E+00 -0.00000000000E+00 -0.35258585703E+04  0.35258585703E+04  0.00000000000E+00 0. -1.
         23    2    1    2    0    0 -0.79883755076E+03 -0.42899523888E+03  0.78940337995E+03  0.12056496467E+04  0.90857177897E+02 0.  0.
         13    1    3    3    0    0 -0.75285966150E+03 -0.38054094183E+03  0.71668144530E+03  0.11069062166E+04  0.00000000000E+00 0.  1.
        -13    1    3    3    0    0 -0.45977889260E+02 -0.48454297052E+02  0.72721934650E+02  0.98743430074E+02  0.00000000000E+00 0. -1.
         22    1    1    2    0    0  0.79883755076E+03  0.42899523888E+03 -0.32557821586E+04  0.33796887152E+04  0.00000000000E+00 0. -1.
<mgrwt>
<rscale>  0 0.38655276E+04</rscale>
<asrwt>0</asrwt>
<pdfrwt beam="1">  1        1 0.54243978E+00 0.38655276E+04</pdfrwt>
<pdfrwt beam="2">  1       -1 0.16299689E+00 0.38655276E+04</pdfrwt>
<totfact> 0.52246543E-02</totfact>
</mgrwt>
</event>
<event>
 6    1  0.2016157E-005  0.2697064E+04  0.7818608E-02  0.8335958E-01
         -2   -1    0    0    0  501 -0.00000000000E+00  0.00000000000E+00  0.93607509403E+03  0.93607509403E+03  0.00000000000E+00 0.  1.
          2   -1    0    0  501    0  0.00000000000E+00 -0.00000000000E+00 -0.19427274669E+04  0.19427274669E+04  0.00000000000E+00 0. -1.
         23    2    1    2    0    0 -0.17592106031E+03  0.13324862241E+04 -0.40844576480E+03  0.14076401284E+04  0.90305213557E+02 0.  0.
         13    1    3    3    0    0 -0.82575853627E+02  0.61732242067E+03 -0.14229388154E+03  0.63886875912E+03  0.00000000000E+00 0.  1.
        -13    1    3    3    0    0 -0.93345206687E+02  0.71516380341E+03 -0.26615188325E+03  0.76877136931E+03  0.00000000000E+00 0. -1.
         22    1    1    2    0    0  0.17592106031E+03 -0.13324862241E+04 -0.59820660804E+03  0.14711624325E+04  0.00000000000E+00 0. -1.
<mgrwt>
<rscale>  0 0.26970642E+04</rscale>
<asrwt>0</asrwt>
<pdfrwt beam="1">  1        2 0.29888115E+00 0.26970642E+04</pdfrwt>
<pdfrwt beam="2">  1       -2 0.14401155E+00 0.26970642E+04</pdfrwt>
<totfact> 0.21049335E+00</totfact>
</mgrwt>
</event>
<event>
 6    1  0.1614874E-005  0.1965870E+04  0.7818608E-02  0.8622746E-01
         -1   -1    0    0    0  501 -0.00000000000E+00  0.00000000000E+00  0.49374987847E+03  0.49374987847E+03  0.00000000000E+00 0.  1.
          1   -1    0    0  501    0  0.00000000000E+00 -0.00000000000E+00 -0.19567818036E+04  0.19567818036E+04  0.00000000000E+00 0. -1.
         23    2    1    2    0    0 -0.77986047825E+03 -0.27581502201E+03 -0.13900522892E+04  0.16201207482E+04  0.91047131293E+02 0.  0.
         11    1    3    3    0    0 -0.46458896686E+03 -0.16605735660E+03 -0.91439656147E+03  0.10390086744E+04  0.00000000000E+00 0.  1.
        -11    1    3    3    0    0 -0.31527151139E+03 -0.10975766541E+03 -0.47565572773E+03  0.58111207381E+03  0.00000000000E+00 0. -1.
         22    1    1    2    0    0  0.77986047825E+03  0.27581502201E+03 -0.72979635972E+02  0.83041093391E+03  0.00000000000E+00 0.  1.
<mgrwt>
<rscale>  0 0.19658696E+04</rscale>
<asrwt>0</asrwt>
<pdfrwt beam="1">  1        1 0.30104336E+00 0.19658696E+04</pdfrwt>
<pdfrwt beam="2">  1       -1 0.75961519E-01 0.19658696E+04</pdfrwt>
<totfact> 0.51631075E+00</totfact>
</mgrwt>
</event>
<event>
 6    1  0.1614874E-005  0.3275405E+04  0.7818608E-02  0.8169182E-01
         -2   -1    0    0    0  501 -0.00000000000E+00  0.00000000000E+00  0.14425808826E+04  0.14425808826E+04  0.00000000000E+00 0.  1.
          2   -1    0    0  501    0  0.00000000000E+00 -0.00000000000E+00 -0.18592164607E+04  0.18592164607E+04  0.00000000000E+00 0. -1.
         23    2    1    2    0    0  0.13486827857E+04  0.52872166373E+03  0.55892491939E+03  0.15553122622E+04  0.90040620773E+02 0.  0.
         11    1    3    3    0    0  0.79963063689E+03  0.27758806550E+03  0.35745784664E+03  0.91882555563E+03  0.00000000000E+00 0.  1.
        -11    1    3    3    0    0  0.54905214877E+03  0.25113359822E+03  0.20146707275E+03  0.63648670656E+03  0.00000000000E+00 0. -1.
         22    1    1    2    0    0 -0.13486827857E+04 -0.52872166373E+03 -0.97556049757E+03  0.17464850811E+04  0.00000000000E+00 0. -1.
<mgrwt>
<rscale>  0 0.32754054E+04</rscale>
<asrwt>0</asrwt>
<pdfrwt beam="1">  1        2 0.28603330E+00 0.32754054E+04</pdfrwt>
<pdfrwt beam="2">  1       -2 0.22193552E+00 0.32754054E+04</pdfrwt>
<totfact> 0.64333486E-01</totfact>
</mgrwt>
</event>
<event>
 6    1  0.1614874E-005  0.1095610E+04  0.7818608E-02  0.9209481E-01
         -2   -1    0    0    0  501 -0.00000000000E+00  0.00000000000E+00  0.25731836588E+03  0.25731836588E+03  0.00000000000E+00 0. -1.
          2   -1    0    0  501    0  0.00000000000E+00 -0.00000000000E+00 -0.11662215156E+04  0.11662215156E+04  0.00000000000E+00 0.  1.
         23    2    1    2    0    0 -0.27181198064E+03  0.32666046517E+03 -0.17477811793E+02  0.43600358066E+03  0.95941837174E+02 0.  0.
         11    1    3    3    0    0  0.46024351056E+01  0.29306260659E+02 -0.15140425767E+01  0.29704067864E+02  0.00000000000E+00 0. -1.
        -11    1    3    3    0    0 -0.27641441575E+03  0.29735420451E+03 -0.15963769217E+02  0.40629951280E+03  0.00000000000E+00 0.  1.
         22    1    1    2    0    0  0.27181198064E+03 -0.32666046517E+03 -0.89142533795E+03  0.98753630083E+03  0.00000000000E+00 0. -1.
<mgrwt>
<rscale>  0 0.10956098E+04</rscale>
<asrwt>0</asrwt>
<pdfrwt beam="1">  1        2 0.17941870E+00 0.10956098E+04</pdfrwt>
<pdfrwt beam="2">  1       -2 0.39587440E-01 0.10956098E+04</pdfrwt>
<totfact> 0.11887297E+02</totfact>
</mgrwt>
</event>
<event>
 6    1  0.1614874E-005  0.1824209E+04  0.7818608E-02  0.8693530E-01
         -1   -1    0    0    0  501 -0.00000000000E+00  0.00000000000E+00  0.26834333467E+03  0.26834333467E+03  0.00000000000E+00 0.  1.
          1   -1    0    0  501    0  0.00000000000E+00 -0.00000000000E+00 -0.31002633770E+04  0.31002633770E+04  0.00000000000E+00 0. -1.
         23    2    1    2    0    0 -0.33064045642E+03  0.32102626056E+03 -0.28681443589E+04  0.29063371232E+04  0.90346213513E+02 0.  0.
         11    1    3    3    0    0 -0.31295902991E+03  0.31816218060E+03 -0.26368376450E+04  0.26743379169E+04  0.00000000000E+00 0.  1.
        -11    1    3    3    0    0 -0.17681426517E+02  0.28640799629E+01 -0.23130671396E+03  0.23199920629E+03  0.00000000000E+00 0. -1.
         22    1    1    2    0    0  0.33064045642E+03 -0.32102626056E+03  0.36224316571E+02  0.46226958856E+03  0.00000000000E+00 0.  1.
<mgrwt>
<rscale>  0 0.18242094E+04</rscale>
<asrwt>0</asrwt>
<pdfrwt beam="1">  1        1 0.47696359E+00 0.18242094E+04</pdfrwt>
<pdfrwt beam="2">  1       -1 0.41283591E-01 0.18242094E+04</pdfrwt>
<totfact> 0.27396014E+00</totfact>
</mgrwt>
</event>
<event>
 6    1  0.1614874E-005  0.2525600E+04  0.7818608E-02  0.8393922E-01
          1   -1    0    0  501    0  0.00000000000E+00  0.00000000000E+00  0.75499455274E+03  0.75499455274E+03  0.00000000000E+00 0. -1.
         -1   -1    0    0    0  501 -0.00000000000E+00 -0.00000000000E+00 -0.21121524288E+04  0.21121524288E+04  0.00000000000E+00 0.  1.
         23    2    1    2    0    0 -0.61582269103E+03 -0.84842494871E+03 -0.14757085465E+04  0.18121035029E+04  0.83312128145E+02 0.  0.
         13    1    3    3    0    0 -0.23118591292E+03 -0.33869939531E+03 -0.51099373952E+03  0.65519371833E+03  0.00000000000E+00 0. -1.
        -13    1    3    3    0    0 -0.38463677811E+03 -0.50972555341E+03 -0.96471480694E+03  0.11569097846E+04  0.00000000000E+00 0.  1.
         22    1    1    2    0    0  0.61582269103E+03  0.84842494871E+03  0.11855067042E+03  0.10550434786E+04  0.00000000000E+00 0. -1.
<mgrwt>
<rscale>  0 0.25255998E+04</rscale>
<asrwt>0</asrwt>
<pdfrwt beam="1">  1        1 0.11615301E+00 0.25255998E+04</pdfrwt>
<pdfrwt beam="2">  1       -1 0.32494653E+00 0.25255998E+04</pdfrwt>
<totfact> 0.48824331E-01</totfact>
</mgrwt>
</event>
<event>
 6    1  0.1614874E-005  0.6818613E+03  0.7818608E-02  0.9748765E-01
         -1   -1    0    0    0  501 -0.00000000000E+00  0.00000000000E+00  0.28915221962E+03  0.28915221962E+03  0.00000000000E+00 0.  1.
          1   -1    0    0  501    0  0.00000000000E+00 -0.00000000000E+00 -0.40198105980E+03  0.40198105980E+03  0.00000000000E+00 0. -1.
         23    2    1    2    0    0 -0.28704277154E+02 -0.15810024890E+03  0.24017963517E+03  0.30327427424E+03  0.92029365094E+02 0.  0.
         11    1    3    3    0    0  0.11258069236E+00 -0.13720238958E+03  0.13601718055E+03  0.19319726133E+03  0.00000000000E+00 0. -1.
        -11    1    3    3    0    0 -0.28816857846E+02 -0.20897859324E+02  0.10416245461E+03  0.11007701291E+03  0.00000000000E+00 0.  1.
         22    1    1    2    0    0  0.28704277154E+02  0.15810024890E+03 -0.35300847535E+03  0.38785900518E+03  0.00000000000E+00 0. -1.
<mgrwt>
<rscale>  0 0.68186132E+03</rscale>
<asrwt>0</asrwt>
<pdfrwt beam="1">  1        1 0.61843240E-01 0.68186132E+03</pdfrwt>
<pdfrwt beam="2">  1       -1 0.44484957E-01 0.68186132E+03</pdfrwt>
<totfact> 0.30220039E+02</totfact>
</mgrwt>
</event>
<event>
 6    1  0.1614874E-005  0.2174266E+03  0.7818608E-02  0.1135816E+00
         -1   -1    0    0    0  501 -0.00000000000E+00  0.00000000000E+00  0.29542313915E+02  0.29542313915E+02  0.00000000000E+00 0.  1.
          1   -1    0    0  501    0  0.00000000000E+00 -0.00000000000E+00 -0.40005593926E+03  0.40005593926E+03  0.00000000000E+00 0. -1.
         23    2    1    2    0    0 -0.41730050183E+02  0.49219855007E+00 -0.37378051954E+03  0.38773762794E+03  0.94270631622E+02 0.  0.
         13    1    3    3    0    0  0.28405221907E+02  0.12004438705E+02 -0.87818869844E+02  0.93075867339E+02  0.00000000000E+00 0. -1.
        -13    1    3    3    0    0 -0.70135272090E+02 -0.11512240154E+02 -0.28596164970E+03  0.29466176060E+03  0.00000000000E+00 0.  1.
         22    1    1    2    0    0  0.41730050183E+02 -0.49219855007E+00  0.32668941908E+01  0.41860625238E+02  0.00000000000E+00 0.  1.
<mgrwt>
<rscale>  0 0.21742657E+03</rscale>
<asrwt>0</asrwt>
<pdfrwt beam="1">  1        1 0.61547060E-01 0.21742657E+03</pdfrwt>
<pdfrwt beam="2">  1       -1 0.45449719E-02 0.21742657E+03</pdfrwt>
<totfact> 0.12044286E+04</totfact>
</mgrwt>
</event>
<event>
 6    1  0.1614874E-005  0.9083457E+03  0.7818608E-02  0.9415209E-01
         -1   -1    0    0    0  501 -0.00000000000E+00  0.00000000000E+00  0.17320454687E+03  0.17320454687E+03  0.00000000000E+00 0.  1.
          1   -1    0    0  501    0  0.00000000000E+00 -0.00000000000E+00 -0.11909213472E+04  0.11909213472E+04  0.00000000000E+00 0. -1.
         23    2    1    2    0    0  0.29697460336E+03  0.11924935922E+03 -0.98851197934E+03  0.10427736787E+04  0.88355458507E+02 0.  0.
         11    1    3    3    0    0  0.11577299926E+03  0.99343996673E+01 -0.27503078173E+03  0.29856994248E+03  0.00000000000E+00 0.  1.
        -11    1    3    3    0    0  0.18120160410E+03  0.10931495955E+03 -0.71348119761E+03  0.74420373626E+03  0.00000000000E+00 0. -1.
         22    1    1    2    0    0 -0.29697460336E+03 -0.11924935922E+03 -0.29204820962E+02  0.32135221531E+03  0.00000000000E+00 0.  1.
<mgrwt>
<rscale>  0 0.90834573E+03</rscale>
<asrwt>0</asrwt>
<pdfrwt beam="1">  1        1 0.18321867E+00 0.90834573E+03</pdfrwt>
<pdfrwt beam="2">  1       -1 0.26646853E-01 0.90834573E+03</pdfrwt>
<totfact> 0.13699460E+02</totfact>
</mgrwt>
</event>
<event>
 6    1  0.1614874E-005  0.3192118E+04  0.7818608E-02  0.8190902E-01
          1   -1    0    0  501    0  0.00000000000E+00  0.00000000000E+00  0.25968908463E+04  0.25968908463E+04  0.00000000000E+00 0. -1.
         -1   -1    0    0    0  501 -0.00000000000E+00 -0.00000000000E+00 -0.98094366752E+03  0.98094366752E+03  0.00000000000E+00 0.  1.
         23    2    1    2    0    0 -0.92458744959E+03  0.12087864748E+04  0.27411215053E+03  0.15489067338E+04  0.89151024773E+02 0.  0.
         13    1    3    3    0    0 -0.35391597837E+03  0.39343244787E+03  0.10068335177E+03  0.53868613135E+03  0.00000000000E+00 0.  1.
        -13    1    3    3    0    0 -0.57067147122E+03  0.81535402696E+03  0.17342879876E+03  0.10102206024E+04  0.00000000000E+00 0. -1.
         22    1    1    2    0    0  0.92458744959E+03 -0.12087864748E+04  0.13418350283E+04  0.20289277801E+04  0.00000000000E+00 0. -1.
<mgrwt>
<rscale>  0 0.31921176E+04</rscale>
<asrwt>0</asrwt>
<pdfrwt beam="1">  1        1 0.39952167E+00 0.31921176E+04</pdfrwt>
<pdfrwt beam="2">  1       -1 0.15091441E+00 0.31921176E+04</pdfrwt>
<totfact> 0.33307541E-01</totfact>
</mgrwt>
</event>
<event>
 6    1  0.1614874E-005  0.5773388E+04  0.7818608E-02  0.7719152E-01
          2   -1    0    0  501    0  0.00000000000E+00  0.00000000000E+00  0.32873895051E+04  0.32873895051E+04  0.00000000000E+00 0. -1.
         -2   -1    0    0    0  501 -0.00000000000E+00 -0.00000000000E+00 -0.25348391648E+04  0.25348391648E+04  0.00000000000E+00 0.  1.
         23    2    1    2    0    0 -0.96884661132E+03 -0.25340749586E+04 -0.61620975691E+03  0.27835276554E+04  0.90067152377E+02 0.  0.
         11    1    3    3    0    0 -0.76892145469E+03 -0.20215367765E+04 -0.45410164910E+03  0.22099908258E+04  0.00000000000E+00 0.  1.
        -11    1    3    3    0    0 -0.19992515663E+03 -0.51253818202E+03 -0.16210810781E+03  0.57353682959E+03  0.00000000000E+00 0. -1.
         22    1    1    2    0    0  0.96884661132E+03  0.25340749586E+04  0.13687600973E+04  0.30387010145E+04  0.00000000000E+00 0. -1.
<mgrwt>
<rscale>  0 0.57733885E+04</rscale>
<asrwt>0</asrwt>
<pdfrwt beam="1">  1        2 0.50575223E+00 0.57733885E+04</pdfrwt>
<pdfrwt beam="2">  1       -2 0.38997526E+00 0.57733885E+04</pdfrwt>
<totfact> 0.67090836E-03</totfact>
</mgrwt>
</event>
<event>
 6    1  0.1614874E-005  0.8154023E+03  0.7818608E-02  0.9537987E-01
          2   -1    0    0  501    0  0.00000000000E+00  0.00000000000E+00  0.66782502570E+03  0.66782502570E+03  0.00000000000E+00 0. -1.
         -2   -1    0    0    0  501 -0.00000000000E+00 -0.00000000000E+00 -0.24889786719E+03  0.24889786719E+03  0.00000000000E+00 0.  1.
         23    2    1    2    0    0 -0.66252673886E+02 -0.38992213905E+03  0.29642458344E+03  0.50267510312E+03  0.91575293076E+02 0.  0.
         11    1    3    3    0    0  0.22771964174E+02 -0.10582399980E+03  0.77689040575E+02  0.13323989009E+03  0.00000000000E+00 0.  1.
        -11    1    3    3    0    0 -0.89024638060E+02 -0.28409813926E+03  0.21873554287E+03  0.36943521303E+03  0.00000000000E+00 0. -1.
         22    1    1    2    0    0  0.66252673886E+02  0.38992213905E+03  0.12250257506E+03  0.41404778977E+03  0.00000000000E+00 0. -1.
<mgrwt>
<rscale>  0 0.81540229E+03</rscale>
<asrwt>0</asrwt>
<pdfrwt beam="1">  1        2 0.10274231E+00 0.81540229E+03</pdfrwt>
<pdfrwt beam="2">  1       -2 0.38291980E-01 0.81540229E+03</pdfrwt>
<totfact> 0.28144371E+02</totfact>
</mgrwt>
</event>
<event>
 6    1  0.1614874E-005  0.1589691E+04  0.7818608E-02  0.8826907E-01
          2   -1    0    0  501    0  0.00000000000E+00  0.00000000000E+00  0.89932564436E+03  0.89932564436E+03  0.00000000000E+00 0. -1.
         -2   -1    0    0    0  501 -0.00000000000E+00 -0.00000000000E+00 -0.70250316127E+03  0.70250316127E+03  0.00000000000E+00 0.  1.
         23    2    1    2    0    0  0.72540092153E+03 -0.25838357803E+03 -0.89167067465E+02  0.78039189789E+03  0.89956534030E+02 0.  0.
         13    1    3    3    0    0  0.14392352100E+03 -0.51882302628E+02 -0.54340173126E+02  0.16235334193E+03  0.00000000000E+00 0.  1.
        -13    1    3    3    0    0  0.58147740054E+03 -0.20650127541E+03 -0.34826894339E+02  0.61803855596E+03  0.00000000000E+00 0. -1.
         22    1    1    2    0    0 -0.72540092153E+03  0.25838357803E+03  0.28598955055E+03  0.82143690773E+03  0.00000000000E+00 0. -1.
<mgrwt>
<rscale>  0 0.15896907E+04</rscale>
<asrwt>0</asrwt>
<pdfrwt beam="1">  1        2 0.13835779E+00 0.15896907E+04</pdfrwt>
<pdfrwt beam="2">  1       -2 0.10807741E+00 0.15896907E+04</pdfrwt>
<totfact> 0.19317004E+01</totfact>
</mgrwt>
</event>
<event>
 6    1  0.1614874E-005  0.8567622E+03  0.7818608E-02  0.9481306E-01
          4   -1    0    0  501    0  0.00000000000E+00  0.00000000000E+00  0.10464459432E+04  0.10464459432E+04  0.00000000000E+00 0. -1.
         -4   -1    0    0    0  501 -0.00000000000E+00 -0.00000000000E+00 -0.17536537147E+03  0.17536537147E+03  0.00000000000E+00 0.  1.
         23    2    1    2    0    0 -0.31380885812E+03  0.27528352493E+03  0.54250999826E+03  0.69057159449E+03  0.91186678662E+02 0.  0.
         11    1    3    3    0    0 -0.26788025559E+03  0.23611090124E+03  0.50828988663E+03  0.62118177523E+03  0.00000000000E+00 0.  1.
        -11    1    3    3    0    0 -0.45928602529E+02  0.39172623688E+02  0.34220111626E+02  0.69389819258E+02  0.00000000000E+00 0. -1.
         22    1    1    2    0    0  0.31380885812E+03 -0.27528352493E+03  0.32857057344E+03  0.53123972015E+03  0.00000000000E+00 0.  1.
<mgrwt>
<rscale>  0 0.85676223E+03</rscale>
<asrwt>0</asrwt>
<pdfrwt beam="1">  1        4 0.16099168E+00 0.85676223E+03</pdfrwt>
<pdfrwt beam="2">  1       -4 0.26979289E-01 0.85676223E+03</pdfrwt>
<totfact> 0.64754388E+00</totfact>
</mgrwt>
</event>
<event>
 6    1  0.1614874E-005  0.1450186E+04  0.7818608E-02  0.8918271E-01
          2   -1    0    0  501    0  0.00000000000E+00  0.00000000000E+00  0.75903512502E+03  0.75903512502E+03  0.00000000000E+00 0. -1.
         -2   -1    0    0    0  501 -0.00000000000E+00 -0.00000000000E+00 -0.69266905438E+03  0.69266905438E+03  0.00000000000E+00 0.  1.
         23    2    1    2    0    0  0.32575502296E+03 -0.24680855633E+03  0.62876927214E+03  0.75648611323E+03  0.99446686495E+02 0.  0.
         13    1    3    3    0    0  0.15304765261E+03 -0.17037586498E+03  0.30136436063E+03  0.37851287587E+03  0.00000000000E+00 0. -1.
        -13    1    3    3    0    0  0.17270737035E+03 -0.76432691346E+02  0.32740491151E+03  0.37797323736E+03  0.00000000000E+00 0.  1.
         22    1    1    2    0    0 -0.32575502296E+03  0.24680855633E+03 -0.56240320151E+03  0.69521806617E+03  0.00000000000E+00 0.  1.
<mgrwt>
<rscale>  0 0.14501864E+04</rscale>
<asrwt>0</asrwt>
<pdfrwt beam="1">  1        2 0.11677463E+00 0.14501864E+04</pdfrwt>
<pdfrwt beam="2">  1       -2 0.10656447E+00 0.14501864E+04</pdfrwt>
<totfact> 0.25401689E+01</totfact>
</mgrwt>
</event>
<event>
 6    1  0.1614874E-005  0.1045947E+04  0.7818608E-02  0.9259538E-01
          2   -1    0    0  501    0  0.00000000000E+00  0.00000000000E+00  0.40507070520E+03  0.40507070520E+03  0.00000000000E+00 0. -1.
         -2   -1    0    0    0  501 -0.00000000000E+00 -0.00000000000E+00 -0.67519440326E+03  0.67519440326E+03  0.00000000000E+00 0.  1.
         23    2    1    2    0    0 -0.20667336461E+03  0.19233592882E+03  0.31361999847E+03  0.43183339087E+03  0.91736496965E+02 0.  0.
         11    1    3    3    0    0 -0.53213622933E+02  0.80723337026E+01  0.84415843939E+02  0.10011436932E+03  0.00000000000E+00 0.  1.
        -11    1    3    3    0    0 -0.15345974168E+03  0.18426359512E+03  0.22920415453E+03  0.33171902154E+03  0.00000000000E+00 0. -1.
         22    1    1    2    0    0  0.20667336461E+03 -0.19233592882E+03 -0.58374369652E+03  0.64843171759E+03  0.00000000000E+00 0.  1.
<mgrwt>
<rscale>  0 0.10459474E+04</rscale>
<asrwt>0</asrwt>
<pdfrwt beam="1">  1        2 0.62318571E-01 0.10459474E+04</pdfrwt>
<pdfrwt beam="2">  1       -2 0.10387606E+00 0.10459474E+04</pdfrwt>
<totfact> 0.58902139E+01</totfact>
</mgrwt>
</event>
<event>
 6    1  0.1614874E-005  0.4942643E+04  0.7818608E-02  0.7837416E-01
          2   -1    0    0  501    0  0.00000000000E+00  0.00000000000E+00  0.18341006314E+04  0.18341006314E+04  0.00000000000E+00 0. -1.
         -2   -1    0    0    0  501 -0.00000000000E+00 -0.00000000000E+00 -0.33299319161E+04  0.33299319161E+04  0.00000000000E+00 0.  1.
         23    2    1    2    0    0  0.13826726849E+04  0.11614544666E+04  0.10131028496E+04  0.20728336341E+04  0.97476453774E+02 0.  0.
         11    1    3    3    0    0  0.69780644030E+03  0.54004321129E+03  0.45620308330E+03  0.99332862205E+03  0.00000000000E+00 0.  1.
        -11    1    3    3    0    0  0.68486624462E+03  0.62141125532E+03  0.55689976635E+03  0.10795050120E+04  0.00000000000E+00 0. -1.
         22    1    1    2    0    0 -0.13826726849E+04 -0.11614544666E+04 -0.25089341344E+04  0.30911989134E+04  0.00000000000E+00 0.  1.
<mgrwt>
<rscale>  0 0.49426431E+04</rscale>
<asrwt>0</asrwt>
<pdfrwt beam="1">  1        2 0.28216933E+00 0.49426431E+04</pdfrwt>
<pdfrwt beam="2">  1       -2 0.51229721E+00 0.49426431E+04</pdfrwt>
<totfact> 0.84461147E-03</totfact>
</mgrwt>
</event>
<event>
 6    1  0.1614874E-005  0.2796501E+03  0.7818608E-02  0.1095880E+00
         -1   -1    0    0    0  501 -0.00000000000E+00  0.00000000000E+00  0.19984500448E+02  0.19984500448E+02  0.00000000000E+00 0.  1.
          1   -1    0    0  501    0  0.00000000000E+00 -0.00000000000E+00 -0.97831021989E+03  0.97831021989E+03  0.00000000000E+00 0. -1.
         23    2    1    2    0    0 -0.91648761043E+01 -0.10154278939E+03 -0.78841511243E+03  0.80014188184E+03  0.90739784730E+02 0.  0.
         11    1    3    3    0    0  0.20658274515E+02 -0.54342565205E+01 -0.33564218621E+03  0.33632123426E+03  0.00000000000E+00 0. -1.
        -11    1    3    3    0    0 -0.29823150619E+02 -0.96108532866E+02 -0.45277292622E+03  0.46382064758E+03  0.00000000000E+00 0.  1.
         22    1    1    2    0    0  0.91648761043E+01  0.10154278939E+03 -0.16991060701E+03  0.19815283850E+03  0.00000000000E+00 0.  1.
<mgrwt>
<rscale>  0 0.27965007E+03</rscale>
<asrwt>0</asrwt>
<pdfrwt beam="1">  1        1 0.15050925E+00 0.27965007E+03</pdfrwt>
<pdfrwt beam="2">  1       -1 0.30745389E-02 0.27965007E+03</pdfrwt>
<totfact> 0.60387920E+03</totfact>
</mgrwt>
</event>
<event>
 6    1  0.1614874E-005  0.4659474E+04  0.7818608E-02  0.7883297E-01
          2   -1    0    0  501    0  0.00000000000E+00  0.00000000000E+00  0.36876807567E+04  0.36876807567E+04  0.00000000000E+00 0. -1.
         -2   -1    0    0    0  501 -0.00000000000E+00 -0.00000000000E+00 -0.14718393666E+04  0.14718393666E+04  0.00000000000E+00 0.  1.
         23    2    1    2    0    0 -0.16997312198E+04  0.15837092936E+04  0.12869056720E+04  0.26574923627E+04  0.94435708373E+02 0.  0.
         13    1    3    3    0    0 -0.10714228420E+04  0.96415729745E+03  0.75412892406E+03  0.16267318877E+04  0.00000000000E+00 0.  1.
        -13    1    3    3    0    0 -0.62830837783E+03  0.61955199618E+03  0.53277674793E+03  0.10307604750E+04  0.00000000000E+00 0. -1.
         22    1    1    2    0    0  0.16997312198E+04 -0.15837092936E+04  0.92893571810E+03  0.25020277606E+04  0.00000000000E+00 0. -1.
<mgrwt>
<rscale>  0 0.46594737E+04</rscale>
<asrwt>0</asrwt>
<pdfrwt beam="1">  1        2 0.56733550E+00 0.46594737E+04</pdfrwt>
<pdfrwt beam="2">  1       -2 0.22643683E+00 0.46594737E+04</pdfrwt>
<totfact> 0.40023533E-02</totfact>
</mgrwt>
</event>
<event>
 6    1  0.1614874E-005  0.1554630E+04  0.7818608E-02  0.8848916E-01
          1   -1    0    0  501    0  0.00000000000E+00  0.00000000000E+00  0.10292852981E+04  0.10292852981E+04  0.00000000000E+00 0. -1.
         -1   -1    0    0    0  501 -0.00000000000E+00 -0.00000000000E+00 -0.58702748269E+03  0.58702748269E+03  0.00000000000E+00 0.  1.
         23    2    1    2    0    0 -0.48711848835E+03  0.19093017757E+03  0.81587536582E+03  0.97340623360E+03  0.90157244073E+02 0.  0.
         13    1    3    3    0    0 -0.71974818526E+02 -0.39450935522E+01  0.10143169457E+03  0.12443603549E+03  0.00000000000E+00 0.  1.
        -13    1    3    3    0    0 -0.41514366983E+03  0.19487527112E+03  0.71444367125E+03  0.84897019811E+03  0.00000000000E+00 0. -1.
         22    1    1    2    0    0  0.48711848835E+03 -0.19093017757E+03 -0.37361755043E+03  0.64290654717E+03  0.00000000000E+00 0.  1.
<mgrwt>
<rscale>  0 0.15546302E+04</rscale>
<asrwt>0</asrwt>
<pdfrwt beam="1">  1        1 0.15835158E+00 0.15546302E+04</pdfrwt>
<pdfrwt beam="2">  1       -1 0.90311920E-01 0.15546302E+04</pdfrwt>
<totfact> 0.16579077E+01</totfact>
</mgrwt>
</event>
<event>
 6    1  0.1614874E-005  0.1202843E+04  0.7818608E-02  0.9110372E-01
          1   -1    0    0  501    0  0.00000000000E+00  0.00000000000E+00  0.73503698985E+03  0.73503698985E+03  0.00000000000E+00 0. -1.
         -1   -1    0    0    0  501 -0.00000000000E+00 -0.00000000000E+00 -0.49209483923E+03  0.49209483923E+03  0.00000000000E+00 0.  1.
         23    2    1    2    0    0 -0.12030260463E+03  0.55304498284E+03  0.31898433611E+03  0.65606801154E+03  0.91338706772E+02 0.  0.
         11    1    3    3    0    0  0.12269593066E+02  0.10084272332E+03  0.66999788392E+02  0.12169128730E+03  0.00000000000E+00 0. -1.
        -11    1    3    3    0    0 -0.13257219769E+03  0.45220225952E+03  0.25198454772E+03  0.53437672424E+03  0.00000000000E+00 0.  1.
         22    1    1    2    0    0  0.12030260463E+03 -0.55304498284E+03 -0.76042185488E+02  0.57106381754E+03  0.00000000000E+00 0.  1.
<mgrwt>
<rscale>  0 0.12028431E+04</rscale>
<asrwt>0</asrwt>
<pdfrwt beam="1">  1        1 0.11308261E+00 0.12028431E+04</pdfrwt>
<pdfrwt beam="2">  1       -1 0.75706898E-01 0.12028431E+04</pdfrwt>
<totfact> 0.43860474E+01</totfact>
</mgrwt>
</event>
<event>
 6    1  0.1614874E-005  0.2044771E+04  0.7818608E-02  0.8585970E-01
          2   -1    0    0  501    0  0.00000000000E+00  0.00000000000E+00  0.30421956618E+04  0.30421956618E+04  0.00000000000E+00 0. -1.
         -2   -1    0    0    0  501 -0.00000000000E+00 -0.00000000000E+00 -0.34359128572E+03  0.34359128572E+03  0.00000000000E+00 0.  1.
         23    2    1    2    0    0  0.22213505257E+02 -0.57346244350E+03  0.27489712994E+04  0.28096884829E+04  0.90297021521E+02 0.  0.
         11    1    3    3    0    0 -0.28914052360E+02 -0.34868355390E+03  0.17165471315E+04  0.17518419728E+04  0.00000000000E+00 0. -1.
        -11    1    3    3    0    0  0.51127557617E+02 -0.22477888960E+03  0.10324241679E+04  0.10578465101E+04  0.00000000000E+00 0.  1.
         22    1    1    2    0    0 -0.22213505257E+02  0.57346244350E+03 -0.50366923365E+02  0.57609846458E+03  0.00000000000E+00 0.  1.
<mgrwt>
<rscale>  0 0.20447708E+04</rscale>
<asrwt>0</asrwt>
<pdfrwt beam="1">  1        2 0.46803008E+00 0.20447708E+04</pdfrwt>
<pdfrwt beam="2">  1       -2 0.52860200E-01 0.20447708E+04</pdfrwt>
<totfact> 0.51296343E+00</totfact>
</mgrwt>
</event>
<event>
 6    1  0.1614874E-005  0.3238586E+04  0.7818608E-02  0.8178700E-01
          2   -1    0    0  501    0  0.00000000000E+00  0.00000000000E+00  0.26154341356E+04  0.26154341356E+04  0.00000000000E+00 0. -1.
         -2   -1    0    0    0  501 -0.00000000000E+00 -0.00000000000E+00 -0.10025524756E+04  0.10025524756E+04  0.00000000000E+00 0.  1.
         23    2    1    2    0    0  0.35350117654E+03  0.55957119779E+03 -0.84237967565E+03  0.10750766180E+04  0.90017828013E+02 0.  0.
         13    1    3    3    0    0  0.18688606720E+03  0.36464546111E+03 -0.47928500516E+03  0.63056072713E+03  0.00000000000E+00 0. -1.
        -13    1    3    3    0    0  0.16661510934E+03  0.19492573667E+03 -0.36309467049E+03  0.44451589085E+03  0.00000000000E+00 0.  1.
         22    1    1    2    0    0 -0.35350117654E+03 -0.55957119779E+03  0.24552613356E+04  0.25429099932E+04  0.00000000000E+00 0. -1.
<mgrwt>
<rscale>  0 0.32385861E+04</rscale>
<asrwt>0</asrwt>
<pdfrwt beam="1">  1        2 0.40237448E+00 0.32385861E+04</pdfrwt>
<pdfrwt beam="2">  1       -2 0.15423884E+00 0.32385861E+04</pdfrwt>
<totfact> 0.69566943E-01</totfact>
</mgrwt>
</event>
<event>
 6    1  0.1614874E-005  0.2307358E+04  0.7818608E-02  0.8475026E-01
          2   -1    0    0  501    0  0.00000000000E+00  0.00000000000E+00  0.14098927833E+04  0.14098927833E+04  0.00000000000E+00 0. -1.
         -2   -1    0    0    0  501 -0.00000000000E+00 -0.00000000000E+00 -0.94402592739E+03  0.94402592739E+03  0.00000000000E+00 0.  1.
         23    2    1    2    0    0  0.17054857994E+02  0.45957574536E+03  0.13106925021E+04  0.13920293686E+04  0.91269896556E+02 0.  0.
         13    1    3    3    0    0  0.50357383570E+02  0.36245893122E+03  0.10420469965E+04  0.11044339210E+04  0.00000000000E+00 0.  1.
        -13    1    3    3    0    0 -0.33302525576E+02  0.97116814141E+02  0.26864550557E+03  0.28759544757E+03  0.00000000000E+00 0. -1.
         22    1    1    2    0    0 -0.17054857994E+02 -0.45957574536E+03 -0.84482564622E+03  0.96188934209E+03  0.00000000000E+00 0.  1.
<mgrwt>
<rscale>  0 0.23073581E+04</rscale>
<asrwt>0</asrwt>
<pdfrwt beam="1">  1        2 0.21690658E+00 0.23073581E+04</pdfrwt>
<pdfrwt beam="2">  1       -2 0.14523476E+00 0.23073581E+04</pdfrwt>
<totfact> 0.42233475E+00</totfact>
</mgrwt>
</event>
<event>
 6    1  0.1614874E-005  0.2199004E+04  0.7818608E-02  0.8518843E-01
         -2   -1    0    0    0  501 -0.00000000000E+00  0.00000000000E+00  0.44987821925E+03  0.44987821925E+03  0.00000000000E+00 0.  1.
          2   -1    0    0  501    0  0.00000000000E+00 -0.00000000000E+00 -0.26871812128E+04  0.26871812128E+04  0.00000000000E+00 0. -1.
         23    2    1    2    0    0 -0.23508298288E+03  0.50620685728E+03  0.22763191039E+03  0.60972615923E+03  0.91871167548E+02 0.  0.
         11    1    3    3    0    0 -0.10023447253E+03  0.12061298783E+03  0.54000715508E+02  0.16586295425E+03  0.00000000000E+00 0.  1.
        -11    1    3    3    0    0 -0.13484851035E+03  0.38559386945E+03  0.17363119488E+03  0.44386320498E+03  0.00000000000E+00 0. -1.
         22    1    1    2    0    0  0.23508298288E+03 -0.50620685728E+03 -0.24649349039E+04  0.25273332728E+04  0.00000000000E+00 0. -1.
<mgrwt>
<rscale>  0 0.21990037E+04</rscale>
<asrwt>0</asrwt>
<pdfrwt beam="1">  1        2 0.41341248E+00 0.21990037E+04</pdfrwt>
<pdfrwt beam="2">  1       -2 0.69212036E-01 0.21990037E+04</pdfrwt>
<totfact> 0.47093252E+00</totfact>
</mgrwt>
</event>
<event>
 6    1  0.1614874E-005  0.1825818E+04  0.7818608E-02  0.8692689E-01
          2   -1    0    0  501    0  0.00000000000E+00  0.00000000000E+00  0.12776057063E+04  0.12776057063E+04  0.00000000000E+00 0.  1.
         -2   -1    0    0    0  501 -0.00000000000E+00 -0.00000000000E+00 -0.65231623556E+03  0.65231623556E+03  0.00000000000E+00 0. -1.
         23    2    1    2    0    0 -0.75845392855E+03 -0.85332955994E+02 -0.20918762600E+03  0.79904347798E+03  0.11034918087E+03 0.  0.
         11    1    3    3    0    0 -0.47337400997E+03 -0.41079106029E+02 -0.75632645031E+02  0.48113484935E+03  0.00000000000E+00 0. -1.
        -11    1    3    3    0    0 -0.28507991858E+03 -0.44253849965E+02 -0.13355498097E+03  0.31790862863E+03  0.00000000000E+00 0.  1.
         22    1    1    2    0    0  0.75845392855E+03  0.85332955994E+02  0.83447709674E+03  0.11308784639E+04  0.00000000000E+00 0.  1.
<mgrwt>
<rscale>  0 0.18258181E+04</rscale>
<asrwt>0</asrwt>
<pdfrwt beam="1">  1        2 0.19655472E+00 0.18258181E+04</pdfrwt>
<pdfrwt beam="2">  1       -2 0.10035634E+00 0.18258181E+04</pdfrwt>
<totfact> 0.13149625E+01</totfact>
</mgrwt>
</event>
<event>
 6    1  0.1614874E-005  0.2093163E+04  0.7818608E-02  0.8564261E-01
         -1   -1    0    0    0  501 -0.00000000000E+00  0.00000000000E+00  0.35410010021E+03  0.35410010021E+03  0.00000000000E+00 0.  1.
          1   -1    0    0  501    0  0.00000000000E+00 -0.00000000000E+00 -0.30932856944E+04  0.30932856944E+04  0.00000000000E+00 0. -1.
         23    2    1    2    0    0  0.16343430147E+03 -0.48361597267E+03  0.12880880317E+03  0.53431404075E+03  0.91129613441E+02 0.  0.
         13    1    3    3    0    0  0.12300274238E+03 -0.22482793708E+03  0.73548631523E+02  0.26662084901E+03  0.00000000000E+00 0.  1.
        -13    1    3    3    0    0  0.40431559090E+02 -0.25878803558E+03  0.55260171646E+02  0.26769319174E+03  0.00000000000E+00 0. -1.
         22    1    1    2    0    0 -0.16343430147E+03  0.48361597267E+03 -0.28679943974E+04  0.29130717539E+04  0.00000000000E+00 0. -1.
<mgrwt>
<rscale>  0 0.20931629E+04</rscale>
<asrwt>0</asrwt>
<pdfrwt beam="1">  1        1 0.47589010E+00 0.20931629E+04</pdfrwt>
<pdfrwt beam="2">  1       -1 0.54476939E-01 0.20931629E+04</pdfrwt>
<totfact> 0.16016218E+00</totfact>
</mgrwt>
</event>
<event>
 6    1  0.1614874E-005  0.1586221E+04  0.7818608E-02  0.8829058E-01
         -2   -1    0    0    0  501 -0.00000000000E+00  0.00000000000E+00  0.95619108838E+03  0.95619108838E+03  0.00000000000E+00 0.  1.
          2   -1    0    0  501    0  0.00000000000E+00 -0.00000000000E+00 -0.65784344905E+03  0.65784344905E+03  0.00000000000E+00 0. -1.
         23    2    1    2    0    0  0.17731826270E+03  0.52462620185E+03  0.72363951509E+03  0.91578845076E+03  0.91323166859E+02 0.  0.
         13    1    3    3    0    0  0.86561923741E+02  0.28340455039E+03  0.31343718783E+03  0.43133974607E+03  0.00000000000E+00 0.  1.
        -13    1    3    3    0    0  0.90756338954E+02  0.24122165145E+03  0.41020232726E+03  0.48444870470E+03  0.00000000000E+00 0. -1.
         22    1    1    2    0    0 -0.17731826270E+03 -0.52462620185E+03 -0.42529187576E+03  0.69824608666E+03  0.00000000000E+00 0. -1.
<mgrwt>
<rscale>  0 0.15862207E+04</rscale>
<asrwt>0</asrwt>
<pdfrwt beam="1">  1        2 0.10120668E+00 0.15862207E+04</pdfrwt>
<pdfrwt beam="2">  1       -2 0.14710632E+00 0.15862207E+04</pdfrwt>
<totfact> 0.13406682E+01</totfact>
</mgrwt>
</event>
<event>
 6    1  0.1614874E-005  0.1456692E+04  0.7818608E-02  0.8913775E-01
          2   -1    0    0  501    0  0.00000000000E+00  0.00000000000E+00  0.94315573558E+03  0.94315573558E+03  0.00000000000E+00 0. -1.
         -2   -1    0    0    0  501 -0.00000000000E+00 -0.00000000000E+00 -0.56246021660E+03  0.56246021660E+03  0.00000000000E+00 0.  1.
         23    2    1    2    0    0 -0.17712588627E+03  0.27152267773E+03 -0.47970191046E+03  0.58616944439E+03  0.91556269712E+02 0.  0.
         11    1    3    3    0    0 -0.14744210729E+03  0.16462842744E+03 -0.36427685045E+03  0.42607431029E+03  0.00000000000E+00 0. -1.
        -11    1    3    3    0    0 -0.29683778980E+02  0.10689425030E+03 -0.11542506002E+03  0.16009513410E+03  0.00000000000E+00 0.  1.
         22    1    1    2    0    0  0.17712588627E+03 -0.27152267773E+03  0.86039742944E+03  0.91944650779E+03  0.00000000000E+00 0. -1.
<mgrwt>
<rscale>  0 0.14566916E+04</rscale>
<asrwt>0</asrwt>
<pdfrwt beam="1">  1        2 0.14510088E+00 0.14566916E+04</pdfrwt>
<pdfrwt beam="2">  1       -2 0.86532341E-01 0.14566916E+04</pdfrwt>
<totfact> 0.30768012E+01</totfact>
</mgrwt>
</event>
<event>
 6    1  0.1701058E-005  0.4242509E+04  0.7818608E-02  0.7957335E-01
          1   -1    0    0  501    0  0.00000000000E+00  0.00000000000E+00  0.27112423891E+04  0.27112423891E+04  0.00000000000E+00 0. -1.
         -1   -1    0    0    0  501 -0.00000000000E+00 -0.00000000000E+00 -0.16596528650E+04  0.16596528650E+04  0.00000000000E+00 0.  1.
         23    2    1    2    0    0  0.10272813511E+04  0.44585630829E+03 -0.13288432053E+04  0.17402005168E+04  0.91535524931E+02 0.  0.
         13    1    3    3    0    0  0.46914341575E+03  0.16110287485E+03 -0.62346341043E+03  0.79671594999E+03  0.00000000000E+00 0. -1.
        -13    1    3    3    0    0  0.55813793531E+03  0.28475343344E+03 -0.70537979491E+03  0.94348456678E+03  0.00000000000E+00 0.  1.
         22    1    1    2    0    0 -0.10272813511E+04 -0.44585630829E+03  0.23804327294E+04  0.26306947373E+04  0.00000000000E+00 0. -1.
<mgrwt>
<rscale>  0 0.42425093E+04</rscale>
<asrwt>0</asrwt>
<pdfrwt beam="1">  1        1 0.41711421E+00 0.42425093E+04</pdfrwt>
<pdfrwt beam="2">  1       -1 0.25533121E+00 0.42425093E+04</pdfrwt>
<totfact> 0.47577503E-02</totfact>
</mgrwt>
</event>
<event>
 6    1  0.1614874E-005  0.3189526E+04  0.7818608E-02  0.8191589E-01
         -1   -1    0    0    0  501 -0.00000000000E+00  0.00000000000E+00  0.11831414452E+04  0.11831414452E+04  0.00000000000E+00 0.  1.
          1   -1    0    0  501    0  0.00000000000E+00 -0.00000000000E+00 -0.21495894161E+04  0.21495894161E+04  0.00000000000E+00 0. -1.
         23    2    1    2    0    0  0.53628108464E+03 -0.11506838108E+04 -0.14898560273E+04  0.19595496542E+04  0.92158728084E+02 0.  0.
         13    1    3    3    0    0  0.47160200161E+03 -0.10342000826E+04 -0.13719440208E+04  0.17816308975E+04  0.00000000000E+00 0. -1.
        -13    1    3    3    0    0  0.64679083030E+02 -0.11648372815E+03 -0.11791200647E+03  0.17791875667E+03  0.00000000000E+00 0.  1.
         22    1    1    2    0    0 -0.53628108464E+03  0.11506838108E+04  0.52340805644E+03  0.13731812071E+04  0.00000000000E+00 0.  1.
<mgrwt>
<rscale>  0 0.31895256E+04</rscale>
<asrwt>0</asrwt>
<pdfrwt beam="1">  1        1 0.33070606E+00 0.31895256E+04</pdfrwt>
<pdfrwt beam="2">  1       -1 0.18202176E+00 0.31895256E+04</pdfrwt>
<totfact> 0.39740869E-01</totfact>
</mgrwt>
</event>
<event>
 6    1  0.1614874E-005  0.3354116E+04  0.7818608E-02  0.8149261E-01
         -2   -1    0    0    0  501 -0.00000000000E+00  0.00000000000E+00  0.16572381744E+04  0.16572381744E+04  0.00000000000E+00 0.  1.
          2   -1    0    0  501    0  0.00000000000E+00 -0.00000000000E+00 -0.16971144340E+04  0.16971144340E+04  0.00000000000E+00 0. -1.
         23    2    1    2    0    0 -0.33847368821E+03 -0.62407983949E+03  0.14982108714E+04  0.16603183390E+04  0.89336934238E+02 0.  0.
         13    1    3    3    0    0 -0.87583605726E+02 -0.10263955645E+03  0.33413275750E+03  0.36034770177E+03  0.00000000000E+00 0. -1.
        -13    1    3    3    0    0 -0.25089008248E+03 -0.52144028305E+03  0.11640781139E+04  0.12999706372E+04  0.00000000000E+00 0.  1.
         22    1    1    2    0    0  0.33847368821E+03  0.62407983949E+03 -0.15380871310E+04  0.16940342695E+04  0.00000000000E+00 0. -1.
<mgrwt>
<rscale>  0 0.33541156E+04</rscale>
<asrwt>0</asrwt>
<pdfrwt beam="1">  1        2 0.26109453E+00 0.33541156E+04</pdfrwt>
<pdfrwt beam="2">  1       -2 0.25495972E+00 0.33541156E+04</pdfrwt>
<totfact> 0.49034850E-01</totfact>
</mgrwt>
</event>
<event>
 6    1  0.1614874E-005  0.4379851E+04  0.7818608E-02  0.7932016E-01
         -1   -1    0    0    0  501 -0.00000000000E+00  0.00000000000E+00  0.32710490720E+04  0.32710490720E+04  0.00000000000E+00 0.  1.
          1   -1    0    0  501    0  0.00000000000E+00 -0.00000000000E+00 -0.14661272577E+04  0.14661272577E+04  0.00000000000E+00 0. -1.
         23    2    1    2    0    0  0.16420604436E+04  0.11543731771E+04 -0.41693094381E+02  0.20097367697E+04  0.91452920772E+02 0.  0.
         13    1    3    3    0    0  0.41060695008E+02  0.25370325369E+02 -0.14890141410E+02  0.50510893826E+02  0.00000000000E+00 0. -1.
        -13    1    3    3    0    0  0.16009997486E+04  0.11290028517E+04 -0.26802952971E+02  0.19592258758E+04  0.00000000000E+00 0.  1.
         22    1    1    2    0    0 -0.16420604436E+04 -0.11543731771E+04  0.18466149087E+04  0.27274395600E+04  0.00000000000E+00 0.  1.
<mgrwt>
<rscale>  0 0.43798512E+04</rscale>
<asrwt>0</asrwt>
<pdfrwt beam="1">  1        1 0.22555804E+00 0.43798512E+04</pdfrwt>
<pdfrwt beam="2">  1       -1 0.50323832E+00 0.43798512E+04</pdfrwt>
<totfact> 0.74653597E-03</totfact>
</mgrwt>
</event>
<event>
 6    1  0.1614874E-005  0.2720482E+04  0.7818608E-02  0.8328390E-01
          1   -1    0    0  501    0  0.00000000000E+00  0.00000000000E+00  0.14880151463E+04  0.14880151463E+04  0.00000000000E+00 0. -1.
         -1   -1    0    0    0  501 -0.00000000000E+00 -0.00000000000E+00 -0.12434385231E+04  0.12434385231E+04  0.00000000000E+00 0.  1.
         23    2    1    2    0    0  0.32035328183E+03 -0.48787023900E+03 -0.11094977133E+04  0.12569500565E+04  0.91075097578E+02 0.  0.
         11    1    3    3    0    0  0.21559922478E+03 -0.24863599036E+03 -0.64292153659E+03  0.72225409908E+03  0.00000000000E+00 0. -1.
        -11    1    3    3    0    0  0.10475405705E+03 -0.23923424865E+03 -0.46657617674E+03  0.53469595743E+03  0.00000000000E+00 0.  1.
         22    1    1    2    0    0 -0.32035328183E+03  0.48787023900E+03  0.13540743366E+04  0.14745036129E+04  0.00000000000E+00 0. -1.
<mgrwt>
<rscale>  0 0.27204818E+04</rscale>
<asrwt>0</asrwt>
<pdfrwt beam="1">  1        1 0.22892541E+00 0.27204818E+04</pdfrwt>
<pdfrwt beam="2">  1       -1 0.19129823E+00 0.27204818E+04</pdfrwt>
<totfact> 0.10057524E+00</totfact>
</mgrwt>
</event>
<event>
 6    1  0.1614874E-005  0.2550364E+04  0.7818608E-02  0.8385260E-01
          2   -1    0    0  501    0  0.00000000000E+00  0.00000000000E+00  0.14053949214E+04  0.14053949214E+04  0.00000000000E+00 0. -1.
         -2   -1    0    0    0  501 -0.00000000000E+00 -0.00000000000E+00 -0.11570335429E+04  0.11570335429E+04  0.00000000000E+00 0.  1.
         23    2    1    2    0    0  0.78596793650E+03  0.96406929884E+03  0.39882156890E+03  0.13095064878E+04  0.92592589922E+02 0.  0.
         13    1    3    3    0    0  0.69338986948E+03  0.81044353004E+03  0.36246799692E+03  0.11264951288E+04  0.00000000000E+00 0. -1.
        -13    1    3    3    0    0  0.92578067020E+02  0.15362576880E+03  0.36353571983E+02  0.18301135902E+03  0.00000000000E+00 0.  1.
         22    1    1    2    0    0 -0.78596793650E+03 -0.96406929884E+03 -0.15046019044E+03  0.12529219765E+04  0.00000000000E+00 0.  1.
<mgrwt>
<rscale>  0 0.25503639E+04</rscale>
<asrwt>0</asrwt>
<pdfrwt beam="1">  1        2 0.21621460E+00 0.25503639E+04</pdfrwt>
<pdfrwt beam="2">  1       -2 0.17800516E+00 0.25503639E+04</pdfrwt>
<totfact> 0.23892184E+00</totfact>
</mgrwt>
</event>
<event>
 6    1  0.1614874E-005  0.2968884E+04  0.7818608E-02  0.8252673E-01
         -3   -1    0    0    0  501 -0.00000000000E+00  0.00000000000E+00  0.17686369746E+04  0.17686369746E+04  0.00000000000E+00 0.  1.
          3   -1    0    0  501    0  0.00000000000E+00 -0.00000000000E+00 -0.12459128467E+04  0.12459128467E+04  0.00000000000E+00 0. -1.
         23    2    1    2    0    0  0.11248443973E+04 -0.84029264941E+03  0.74620091827E+03  0.15928225160E+04  0.94345652506E+02 0.  0.
         13    1    3    3    0    0  0.92244492729E+03 -0.72820492263E+03  0.60575420570E+03  0.13221668620E+04  0.00000000000E+00 0. -1.
        -13    1    3    3    0    0  0.20239947006E+03 -0.11208772678E+03  0.14044671256E+03  0.27065565401E+03  0.00000000000E+00 0.  1.
         22    1    1    2    0    0 -0.11248443973E+04  0.84029264941E+03 -0.22347679040E+03  0.14217273053E+04  0.00000000000E+00 0. -1.
<mgrwt>
<rscale>  0 0.29688836E+04</rscale>
<asrwt>0</asrwt>
<pdfrwt beam="1">  1        3 0.19167890E+00 0.29688836E+04</pdfrwt>
<pdfrwt beam="2">  1       -3 0.27209800E+00 0.29688836E+04</pdfrwt>
<totfact> 0.20233093E-02</totfact>
</mgrwt>
</event>
<event>
 6    1  0.1614874E-005  0.1467948E+04  0.7818608E-02  0.8906051E-01
          2   -1    0    0  501    0  0.00000000000E+00  0.00000000000E+00  0.22609191353E+04  0.22609191353E+04  0.00000000000E+00 0.  1.
         -2   -1    0    0    0  501 -0.00000000000E+00 -0.00000000000E+00 -0.23827386916E+03  0.23827386916E+03  0.00000000000E+00 0. -1.
         23    2    1    2    0    0 -0.24970637356E+02  0.12225289545E+03  0.22416835037E+04  0.22471075970E+04  0.93692681718E+02 0.  0.
         11    1    3    3    0    0 -0.54813973367E+02  0.49976093095E+02  0.13346513906E+04  0.13367110817E+04  0.00000000000E+00 0.  1.
        -11    1    3    3    0    0  0.29843336011E+02  0.72276802352E+02  0.90703211311E+03  0.91039651530E+03  0.00000000000E+00 0. -1.
         22    1    1    2    0    0  0.24970637356E+02 -0.12225289545E+03 -0.21903823752E+03  0.25208540749E+03  0.00000000000E+00 0. -1.
<mgrwt>
<rscale>  0 0.14679482E+04</rscale>
<asrwt>0</asrwt>
<pdfrwt beam="1">  1        2 0.34783370E+00 0.14679482E+04</pdfrwt>
<pdfrwt beam="2">  1       -2 0.36657520E-01 0.14679482E+04</pdfrwt>
<totfact> 0.32432749E+01</totfact>
</mgrwt>
</event>
<event>
 6    1  0.1614874E-005  0.1724649E+04  0.7818608E-02  0.8747430E-01
         -1   -1    0    0    0  501 -0.00000000000E+00  0.00000000000E+00  0.63943553152E+03  0.63943553152E+03  0.00000000000E+00 0.  1.
          1   -1    0    0  501    0  0.00000000000E+00 -0.00000000000E+00 -0.11629064367E+04  0.11629064367E+04  0.00000000000E+00 0. -1.
         23    2    1    2    0    0 -0.60771689113E+03 -0.56316518431E+03 -0.50311558755E+03  0.97355418866E+03  0.90595911887E+02 0.  0.
         11    1    3    3    0    0 -0.31220312956E+03 -0.26112944643E+03 -0.19981994296E+03  0.45341745831E+03  0.00000000000E+00 0.  1.
        -11    1    3    3    0    0 -0.29551376157E+03 -0.30203573788E+03 -0.30329564459E+03  0.52013673035E+03  0.00000000000E+00 0. -1.
         22    1    1    2    0    0  0.60771689113E+03  0.56316518431E+03 -0.20355317626E+02  0.82878777955E+03  0.00000000000E+00 0.  1.
<mgrwt>
<rscale>  0 0.17246492E+04</rscale>
<asrwt>0</asrwt>
<pdfrwt beam="1">  1        1 0.17890868E+00 0.17246492E+04</pdfrwt>
<pdfrwt beam="2">  1       -1 0.98374697E-01 0.17246492E+04</pdfrwt>
<totfact> 0.10693331E+01</totfact>
</mgrwt>
</event>
<event>
 6    1  0.1614874E-005  0.2352917E+04  0.7818608E-02  0.8457344E-01
          1   -1    0    0  501    0  0.00000000000E+00  0.00000000000E+00  0.38403969558E+04  0.38403969558E+04  0.00000000000E+00 0. -1.
         -1   -1    0    0    0  501 -0.00000000000E+00 -0.00000000000E+00 -0.36039373869E+03  0.36039373869E+03  0.00000000000E+00 0.  1.
         23    2    1    2    0    0  0.31841110015E+03  0.63307873375E+03  0.34152864948E+04  0.34891991221E+04  0.90301493247E+02 0.  0.
         13    1    3    3    0    0  0.15813712769E+03  0.25261603786E+03  0.12643192555E+04  0.12989708979E+04  0.00000000000E+00 0.  1.
        -13    1    3    3    0    0  0.16027397246E+03  0.38046269590E+03  0.21509672393E+04  0.21902282241E+04  0.00000000000E+00 0. -1.
         22    1    1    2    0    0 -0.31841110015E+03 -0.63307873375E+03  0.64716722275E+02  0.71159157244E+03  0.00000000000E+00 0.  1.
<mgrwt>
<rscale>  0 0.23529174E+04</rscale>
<asrwt>0</asrwt>
<pdfrwt beam="1">  1        1 0.59083027E+00 0.23529174E+04</pdfrwt>
<pdfrwt beam="2">  1       -1 0.55445193E-01 0.23529174E+04</pdfrwt>
<totfact> 0.39121756E-01</totfact>
</mgrwt>
</event>
<event>
 6    1  0.1614874E-005  0.8571448E+03  0.7818608E-02  0.9480797E-01
         -2   -1    0    0    0  501 -0.00000000000E+00  0.00000000000E+00  0.50542808920E+03  0.50542808920E+03  0.00000000000E+00 0. -1.
          2   -1    0    0  501    0  0.00000000000E+00 -0.00000000000E+00 -0.36340339660E+03  0.36340339660E+03  0.00000000000E+00 0.  1.
         23    2    1    2    0    0 -0.23782107539E+03  0.34512247027E+03  0.14079661611E+03  0.44970156374E+03  0.82094006710E+02 0.  0.
         11    1    3    3    0    0 -0.78221842500E+02  0.17407923676E+03  0.86551726234E+02  0.20955533548E+03  0.00000000000E+00 0.  1.
        -11    1    3    3    0    0 -0.15959923289E+03  0.17104323351E+03  0.54244889873E+02  0.24014622826E+03  0.00000000000E+00 0. -1.
         22    1    1    2    0    0  0.23782107539E+03 -0.34512247027E+03  0.12280765009E+01  0.41912992206E+03  0.00000000000E+00 0.  1.
<mgrwt>
<rscale>  0 0.85714476E+03</rscale>
<asrwt>0</asrwt>
<pdfrwt beam="1">  1        2 0.55908215E-01 0.85714476E+03</pdfrwt>
<pdfrwt beam="2">  1       -2 0.77758168E-01 0.85714476E+03</pdfrwt>
<totfact> 0.13127437E+02</totfact>
</mgrwt>
</event>
<event>
 6    1  0.1614874E-005  0.4839523E+04  0.7818608E-02  0.7853751E-01
          2   -1    0    0  501    0  0.00000000000E+00  0.00000000000E+00  0.27155962964E+04  0.27155962964E+04  0.00000000000E+00 0. -1.
         -2   -1    0    0    0  501 -0.00000000000E+00 -0.00000000000E+00 -0.21561546052E+04  0.21561546052E+04  0.00000000000E+00 0.  1.
         23    2    1    2    0    0  0.91179613527E+03  0.47813291444E+03 -0.19236270093E+04  0.21837007816E+04  0.90691544753E+02 0.  0.
         13    1    3    3    0    0  0.53169525691E+03  0.28646937800E+03 -0.12203626112E+04  0.13616348459E+04  0.00000000000E+00 0. -1.
        -13    1    3    3    0    0  0.38010087836E+03  0.19166353644E+03 -0.70326439812E+03  0.82206593567E+03  0.00000000000E+00 0.  1.
         22    1    1    2    0    0 -0.91179613527E+03 -0.47813291444E+03  0.24830687005E+04  0.26880501200E+04  0.00000000000E+00 0. -1.
<mgrwt>
<rscale>  0 0.48395229E+04</rscale>
<asrwt>0</asrwt>
<pdfrwt beam="1">  1        2 0.41778405E+00 0.48395229E+04</pdfrwt>
<pdfrwt beam="2">  1       -2 0.33171609E+00 0.48395229E+04</pdfrwt>
<totfact> 0.38814438E-02</totfact>
</mgrwt>
</event>
<event>
 6    1  0.1614874E-005  0.2932823E+04  0.7818608E-02  0.8263178E-01
          1   -1    0    0  501    0  0.00000000000E+00  0.00000000000E+00  0.11964857700E+04  0.11964857700E+04  0.00000000000E+00 0. -1.
         -1   -1    0    0    0  501 -0.00000000000E+00 -0.00000000000E+00 -0.17972315363E+04  0.17972315363E+04  0.00000000000E+00 0.  1.
         23    2    1    2    0    0  0.84562921610E+03  0.92224024854E+03  0.47711848243E+03  0.13422309497E+04  0.91247076386E+02 0.  0.
         11    1    3    3    0    0  0.73048182673E+03  0.74642500445E+03  0.39515614391E+03  0.11166478247E+04  0.00000000000E+00 0. -1.
        -11    1    3    3    0    0  0.11514738937E+03  0.17581524410E+03  0.81962338513E+02  0.22558312497E+03  0.00000000000E+00 0.  1.
         22    1    1    2    0    0 -0.84562921610E+03 -0.92224024854E+03 -0.10778642488E+04  0.16514863566E+04  0.00000000000E+00 0.  1.
<mgrwt>
<rscale>  0 0.29328225E+04</rscale>
<asrwt>0</asrwt>
<pdfrwt beam="1">  1        1 0.18407473E+00 0.29328225E+04</pdfrwt>
<pdfrwt beam="2">  1       -1 0.27649716E+00 0.29328225E+04</pdfrwt>
<totfact> 0.43142786E-01</totfact>
</mgrwt>
</event>
<event>
 6    1  0.1614874E-005  0.1378660E+04  0.7818608E-02  0.8969412E-01
         -1   -1    0    0    0  501 -0.00000000000E+00  0.00000000000E+00  0.81082642447E+03  0.81082642447E+03  0.00000000000E+00 0.  1.
          1   -1    0    0  501    0  0.00000000000E+00 -0.00000000000E+00 -0.58603891039E+03  0.58603891039E+03  0.00000000000E+00 0. -1.
         23    2    1    2    0    0  0.40671767867E+03  0.12208599689E+03 -0.43330349465E+03  0.61366163430E+03  0.92219423976E+02 0.  0.
         13    1    3    3    0    0  0.33431689866E+03  0.12836158916E+03 -0.38809976112E+03  0.52807756143E+03  0.00000000000E+00 0.  1.
        -13    1    3    3    0    0  0.72400780012E+02 -0.62755922739E+01 -0.45203733526E+02  0.85584072872E+02  0.00000000000E+00 0. -1.
         22    1    1    2    0    0 -0.40671767867E+03 -0.12208599689E+03  0.65809100874E+03  0.78320370055E+03  0.00000000000E+00 0.  1.
<mgrwt>
<rscale>  0 0.13786600E+04</rscale>
<asrwt>0</asrwt>
<pdfrwt beam="1">  1        1 0.90159832E-01 0.13786600E+04</pdfrwt>
<pdfrwt beam="2">  1       -1 0.12474253E+00 0.13786600E+04</pdfrwt>
<totfact> 0.19472649E+01</totfact>
</mgrwt>
</event>
<event>
 6    1  0.1614874E-005  0.2545877E+04  0.7818608E-02  0.8386822E-01
          1   -1    0    0  501    0  0.00000000000E+00  0.00000000000E+00  0.12045568234E+04  0.12045568234E+04  0.00000000000E+00 0. -1.
         -1   -1    0    0    0  501 -0.00000000000E+00 -0.00000000000E+00 -0.13452018947E+04  0.13452018947E+04  0.00000000000E+00 0.  1.
         23    2    1    2    0    0 -0.28635838116E+03  0.72906502455E+03 -0.10735243362E+04  0.13316451538E+04  0.85366168601E+02 0.  0.
         11    1    3    3    0    0 -0.14746495036E+02  0.28140781555E+02 -0.77773497476E+02  0.84012377731E+02  0.00000000000E+00 0. -1.
        -11    1    3    3    0    0 -0.27161188612E+03  0.70092424299E+03 -0.99575083875E+03  0.12476327761E+04  0.00000000000E+00 0.  1.
         22    1    1    2    0    0  0.28635838116E+03 -0.72906502455E+03  0.93287926497E+03  0.12181135643E+04  0.00000000000E+00 0. -1.
<mgrwt>
<rscale>  0 0.25458768E+04</rscale>
<asrwt>0</asrwt>
<pdfrwt beam="1">  1        1 0.18531643E+00 0.25458768E+04</pdfrwt>
<pdfrwt beam="2">  1       -1 0.20695414E+00 0.25458768E+04</pdfrwt>
<totfact> 0.12652854E+00</totfact>
</mgrwt>
</event>
<event>
 6    1  0.1614874E-005  0.2025130E+04  0.7818608E-02  0.8594961E-01
         -2   -1    0    0    0  501 -0.00000000000E+00  0.00000000000E+00  0.41838609823E+04  0.41838609823E+04  0.00000000000E+00 0. -1.
          2   -1    0    0  501    0  0.00000000000E+00 -0.00000000000E+00 -0.24505775279E+03  0.24505775279E+03  0.00000000000E+00 0.  1.
         23    2    1    2    0    0  0.84358819970E+03 -0.52740091493E+03  0.23609570873E+04  0.25636061006E+04  0.90360917765E+02 0.  0.
         13    1    3    3    0    0  0.55311680339E+03 -0.37559327765E+03  0.16697614777E+04  0.17986416822E+04  0.00000000000E+00 0. -1.
        -13    1    3    3    0    0  0.29047139631E+03 -0.15180763728E+03  0.69119560951E+03  0.76496441840E+03  0.00000000000E+00 0.  1.
         22    1    1    2    0    0 -0.84358819970E+03  0.52740091493E+03  0.15778461422E+04  0.18653126344E+04  0.00000000000E+00 0.  1.
<mgrwt>
<rscale>  0 0.20251297E+04</rscale>
<asrwt>0</asrwt>
<pdfrwt beam="1">  1        2 0.37701196E-01 0.20251297E+04</pdfrwt>
<pdfrwt beam="2">  1       -2 0.64367087E+00 0.20251297E+04</pdfrwt>
<totfact> 0.44161537E-02</totfact>
</mgrwt>
</event>
<event>
 6    1  0.1614874E-005  0.3500264E+04  0.7818608E-02  0.8113727E-01
         -1   -1    0    0    0  501 -0.00000000000E+00  0.00000000000E+00  0.19607022528E+04  0.19607022528E+04  0.00000000000E+00 0.  1.
          1   -1    0    0  501    0  0.00000000000E+00 -0.00000000000E+00 -0.15621763972E+04  0.15621763972E+04  0.00000000000E+00 0. -1.
         23    2    1    2    0    0 -0.37058200064E+03  0.12389165106E+04 -0.98571803955E+03  0.16285776441E+04  0.91542067431E+02 0.  0.
         11    1    3    3    0    0 -0.26262751785E+03  0.72194745069E+03 -0.57815989073E+03  0.96148333004E+03  0.00000000000E+00 0. -1.
        -11    1    3    3    0    0 -0.10795448278E+03  0.51696905986E+03 -0.40755814881E+03  0.66709431407E+03  0.00000000000E+00 0.  1.
         22    1    1    2    0    0  0.37058200064E+03 -0.12389165106E+04  0.13842438952E+04  0.18943010058E+04  0.00000000000E+00 0.  1.
<mgrwt>
<rscale>  0 0.35002644E+04</rscale>
<asrwt>0</asrwt>
<pdfrwt beam="1">  1        1 0.24033483E+00 0.35002644E+04</pdfrwt>
<pdfrwt beam="2">  1       -1 0.30164650E+00 0.35002644E+04</pdfrwt>
<totfact> 0.15573411E-01</totfact>
</mgrwt>
</event>
<event>
 6    1  0.1614874E-005  0.4999302E+04  0.7818608E-02  0.7828615E-01
         -1   -1    0    0    0  501 -0.00000000000E+00  0.00000000000E+00  0.33846967137E+04  0.33846967137E+04  0.00000000000E+00 0.  1.
          1   -1    0    0  501    0  0.00000000000E+00 -0.00000000000E+00 -0.18460311615E+04  0.18460311615E+04  0.00000000000E+00 0. -1.
         23    2    1    2    0    0 -0.44358455706E+03 -0.18724751955E+04  0.24374982290E+04  0.31068562223E+04  0.90704757024E+02 0.  0.
         13    1    3    3    0    0 -0.26600077179E+03 -0.11351718543E+04  0.15476274530E+04  0.19376589696E+04  0.00000000000E+00 0.  1.
        -13    1    3    3    0    0 -0.17758378526E+03 -0.73730334126E+03  0.88987077600E+03  0.11691972527E+04  0.00000000000E+00 0. -1.
         22    1    1    2    0    0  0.44358455706E+03  0.18724751955E+04 -0.89883267680E+03  0.21238716529E+04  0.00000000000E+00 0. -1.
<mgrwt>
<rscale>  0 0.49993022E+04</rscale>
<asrwt>0</asrwt>
<pdfrwt beam="1">  1        1 0.28400479E+00 0.49993022E+04</pdfrwt>
<pdfrwt beam="2">  1       -1 0.52072257E+00 0.49993022E+04</pdfrwt>
<totfact> 0.30454624E-03</totfact>
</mgrwt>
</event>
<event>
 6    1  0.1614874E-005  0.6420923E+03  0.7818608E-02  0.9821732E-01
         -2   -1    0    0    0  501 -0.00000000000E+00  0.00000000000E+00  0.69234474097E+02  0.69234474097E+02  0.00000000000E+00 0.  1.
          2   -1    0    0  501    0  0.00000000000E+00 -0.00000000000E+00 -0.14887185246E+04  0.14887185246E+04  0.00000000000E+00 0. -1.
         23    2    1    2    0    0  0.14569050165E+03  0.26954217302E+03 -0.89963698799E+03  0.95452970307E+03  0.88890598886E+02 0.  0.
         11    1    3    3    0    0  0.97575966537E+01  0.10192822215E+03 -0.32248709427E+03  0.33835262543E+03  0.00000000000E+00 0.  1.
        -11    1    3    3    0    0  0.13593290500E+03  0.16761395088E+03 -0.57714989372E+03  0.61617707764E+03  0.00000000000E+00 0. -1.
         22    1    1    2    0    0 -0.14569050165E+03 -0.26954217302E+03 -0.51984706256E+03  0.60342329568E+03  0.00000000000E+00 0.  1.
<mgrwt>
<rscale>  0 0.64209234E+03</rscale>
<asrwt>0</asrwt>
<pdfrwt beam="1">  1        2 0.22903359E+00 0.64209234E+03</pdfrwt>
<pdfrwt beam="2">  1       -2 0.10651459E-01 0.64209234E+03</pdfrwt>
<totfact> 0.81129823E+02</totfact>
</mgrwt>
</event>
<event>
 6    1  0.1614874E-005  0.1319595E+04  0.7818608E-02  0.9014169E-01
         -1   -1    0    0    0  501 -0.00000000000E+00  0.00000000000E+00  0.25468385501E+03  0.25468385501E+03  0.00000000000E+00 0.  1.
          1   -1    0    0  501    0  0.00000000000E+00 -0.00000000000E+00 -0.17093059131E+04  0.17093059131E+04  0.00000000000E+00 0. -1.
         23    2    1    2    0    0  0.64418344738E+03 -0.41704108123E+02 -0.55128094292E+03  0.85370299575E+03  0.90479723773E+02 0.  0.
         11    1    3    3    0    0  0.12365997842E+03  0.10856167844E+01 -0.15393679063E+03  0.19745760136E+03  0.00000000000E+00 0. -1.
        -11    1    3    3    0    0  0.52052346896E+03 -0.42789724908E+02 -0.39734415229E+03  0.65624539439E+03  0.00000000000E+00 0.  1.
         22    1    1    2    0    0 -0.64418344738E+03  0.41704108123E+02 -0.90334111518E+03  0.11102867724E+04  0.00000000000E+00 0. -1.
<mgrwt>
<rscale>  0 0.13195948E+04</rscale>
<asrwt>0</asrwt>
<pdfrwt beam="1">  1        1 0.26297014E+00 0.13195948E+04</pdfrwt>
<pdfrwt beam="2">  1       -1 0.39182132E-01 0.13195948E+04</pdfrwt>
<totfact> 0.29154121E+01</totfact>
</mgrwt>
</event>
<event>
 6    1  0.1614874E-005  0.3536920E+04  0.7818608E-02  0.8105096E-01
         -2   -1    0    0    0  501 -0.00000000000E+00  0.00000000000E+00  0.15359390985E+04  0.15359390985E+04  0.00000000000E+00 0. -1.
          2   -1    0    0  501    0  0.00000000000E+00 -0.00000000000E+00 -0.20361816295E+04  0.20361816295E+04  0.00000000000E+00 0.  1.
         23    2    1    2    0    0  0.34148904452E+03  0.78079199251E+03  0.13134041524E+04  0.15682332075E+04  0.89855563871E+02 0.  0.
         11    1    3    3    0    0  0.99535395699E+02  0.14008029384E+03  0.27756966262E+03  0.32645780942E+03  0.00000000000E+00 0.  1.
        -11    1    3    3    0    0  0.24195364882E+03  0.64071169867E+03  0.10358344898E+04  0.12417753980E+04  0.00000000000E+00 0. -1.
         22    1    1    2    0    0 -0.34148904452E+03 -0.78079199251E+03 -0.18136466833E+04  0.20038875205E+04  0.00000000000E+00 0.  1.
<mgrwt>
<rscale>  0 0.35369201E+04</rscale>
<asrwt>0</asrwt>
<pdfrwt beam="1">  1        2 0.31325871E+00 0.35369201E+04</pdfrwt>
<pdfrwt beam="2">  1       -2 0.23629832E+00 0.35369201E+04</pdfrwt>
<totfact> 0.40812557E-01</totfact>
</mgrwt>
</event>
<event>
 6    1  0.1614874E-005  0.4826935E+04  0.7818608E-02  0.7855773E-01
          2   -1    0    0  501    0  0.00000000000E+00  0.00000000000E+00  0.32469473401E+04  0.32469473401E+04  0.00000000000E+00 0. -1.
         -2   -1    0    0    0  501 -0.00000000000E+00 -0.00000000000E+00 -0.17939390275E+04  0.17939390275E+04  0.00000000000E+00 0.  1.
         23    2    1    2    0    0 -0.12773376511E+04  0.19353300204E+03  0.28546524200E+04  0.31346721347E+04  0.89902476357E+02 0.  0.
         11    1    3    3    0    0 -0.38690961592E+03  0.88151650696E+02  0.80587244842E+03  0.89827622006E+03  0.00000000000E+00 0.  1.
        -11    1    3    3    0    0 -0.89042803517E+03  0.10538135134E+03  0.20487799716E+04  0.22363959147E+04  0.00000000000E+00 0. -1.
         22    1    1    2    0    0  0.12773376511E+04 -0.19353300204E+03 -0.14016441074E+04  0.19062142329E+04  0.00000000000E+00 0.  1.
<mgrwt>
<rscale>  0 0.48269351E+04</rscale>
<asrwt>0</asrwt>
<pdfrwt beam="1">  1        2 0.49953036E+00 0.48269351E+04</pdfrwt>
<pdfrwt beam="2">  1       -2 0.27599062E+00 0.48269351E+04</pdfrwt>
<totfact> 0.39677359E-02</totfact>
</mgrwt>
</event>
<event>
 6    1  0.1614874E-005  0.2398771E+04  0.7818608E-02  0.8439964E-01
          2   -1    0    0  501    0  0.00000000000E+00  0.00000000000E+00  0.11889064142E+04  0.11889064142E+04  0.00000000000E+00 0. -1.
         -2   -1    0    0    0  501 -0.00000000000E+00 -0.00000000000E+00 -0.12099572050E+04  0.12099572050E+04  0.00000000000E+00 0.  1.
         23    2    1    2    0    0 -0.50174105161E+03  0.19841271853E+03  0.10587260098E+04  0.11917887959E+04  0.91367830411E+02 0.  0.
         11    1    3    3    0    0 -0.14518619533E+03  0.93486152431E+02  0.28105154649E+03  0.32986158278E+03  0.00000000000E+00 0. -1.
        -11    1    3    3    0    0 -0.35655485628E+03  0.10492656610E+03  0.77767446332E+03  0.86192721311E+03  0.00000000000E+00 0.  1.
         22    1    1    2    0    0  0.50174105161E+03 -0.19841271853E+03 -0.10797768006E+04  0.12070748233E+04  0.00000000000E+00 0.  1.
<mgrwt>
<rscale>  0 0.23987713E+04</rscale>
<asrwt>0</asrwt>
<pdfrwt beam="1">  1        2 0.18290868E+00 0.23987713E+04</pdfrwt>
<pdfrwt beam="2">  1       -2 0.18614726E+00 0.23987713E+04</pdfrwt>
<totfact> 0.28464535E+00</totfact>
</mgrwt>
</event>
<event>
 6    1  0.1614874E-005  0.3978757E+04  0.7818608E-02  0.8008846E-01
         -2   -1    0    0    0  501 -0.00000000000E+00  0.00000000000E+00  0.31317213512E+04  0.31317213512E+04  0.00000000000E+00 0. -1.
          2   -1    0    0  501    0  0.00000000000E+00 -0.00000000000E+00 -0.12637226311E+04  0.12637226311E+04  0.00000000000E+00 0.  1.
         23    2    1    2    0    0 -0.93635596709E+03 -0.17512957384E+04  0.10425637039E+04  0.22448295988E+04  0.92312461772E+02 0.  0.
         13    1    3    3    0    0 -0.52471523549E+03 -0.10762996232E+04  0.63494687863E+03  0.13553244984E+04  0.00000000000E+00 0.  1.
        -13    1    3    3    0    0 -0.41164073160E+03 -0.67499611527E+03  0.40761682522E+03  0.88950510046E+03  0.00000000000E+00 0. -1.
         22    1    1    2    0    0  0.93635596709E+03  0.17512957384E+04  0.82543501621E+03  0.21506143835E+04  0.00000000000E+00 0.  1.
<mgrwt>
<rscale>  0 0.39787572E+04</rscale>
<asrwt>0</asrwt>
<pdfrwt beam="1">  1        2 0.19441887E+00 0.39787572E+04</pdfrwt>
<pdfrwt beam="2">  1       -2 0.48180328E+00 0.39787572E+04</pdfrwt>
<totfact> 0.29516163E-02</totfact>
</mgrwt>
</event>
<event>
 6    1  0.1614874E-005  0.1227549E+04  0.7818608E-02  0.9089079E-01
          2   -1    0    0  501    0  0.00000000000E+00  0.00000000000E+00  0.22942844891E+04  0.22942844891E+04  0.00000000000E+00 0. -1.
         -2   -1    0    0    0  501 -0.00000000000E+00 -0.00000000000E+00 -0.16419883347E+03  0.16419883347E+03  0.00000000000E+00 0.  1.
         23    2    1    2    0    0 -0.35408047975E+03  0.49366863580E+03  0.11879955990E+04  0.13374947486E+04  0.92070360225E+02 0.  0.
         13    1    3    3    0    0 -0.69300505498E+02  0.74523247605E+02  0.27615862814E+03  0.29431252504E+03  0.00000000000E+00 0. -1.
        -13    1    3    3    0    0 -0.28477997426E+03  0.41914538819E+03  0.91183697088E+03  0.10431822236E+04  0.00000000000E+00 0.  1.
         22    1    1    2    0    0  0.35408047975E+03 -0.49366863580E+03  0.94209005663E+03  0.11209885739E+04  0.00000000000E+00 0. -1.
<mgrwt>
<rscale>  0 0.12275485E+04</rscale>
<asrwt>0</asrwt>
<pdfrwt beam="1">  1        2 0.35296682E+00 0.12275485E+04</pdfrwt>
<pdfrwt beam="2">  1       -2 0.25261361E-01 0.12275485E+04</pdfrwt>
<totfact> 0.63561410E+01</totfact>
</mgrwt>
</event>
<event>
 6    1  0.1614874E-005  0.3796712E+04  0.7818608E-02  0.8046861E-01
          2   -1    0    0  501    0  0.00000000000E+00  0.00000000000E+00  0.18145324078E+04  0.18145324078E+04  0.00000000000E+00 0. -1.
         -2   -1    0    0    0  501 -0.00000000000E+00 -0.00000000000E+00 -0.19860521737E+04  0.19860521737E+04  0.00000000000E+00 0.  1.
         23    2    1    2    0    0  0.17497343865E+04 -0.43164021806E+02 -0.81881299649E+03  0.19344596975E+04  0.90807720562E+02 0.  0.
         11    1    3    3    0    0  0.66749562131E+03  0.17700879582E+02 -0.34302521979E+03  0.75068637061E+03  0.00000000000E+00 0. -1.
        -11    1    3    3    0    0  0.10822387652E+04 -0.60864901388E+02 -0.47578777670E+03  0.11837733269E+04  0.00000000000E+00 0.  1.
         22    1    1    2    0    0 -0.17497343865E+04  0.43164021806E+02  0.64729323061E+03  0.18661248839E+04  0.00000000000E+00 0.  1.
<mgrwt>
<rscale>  0 0.37967123E+04</rscale>
<asrwt>0</asrwt>
<pdfrwt beam="1">  1        2 0.27915883E+00 0.37967123E+04</pdfrwt>
<pdfrwt beam="2">  1       -2 0.30554649E+00 0.37967123E+04</pdfrwt>
<totfact> 0.19964047E-01</totfact>
</mgrwt>
</event>
<event>
 6    1  0.1614874E-005  0.3745266E+04  0.7818608E-02  0.8058004E-01
          2   -1    0    0  501    0  0.00000000000E+00  0.00000000000E+00  0.12558181948E+04  0.12558181948E+04  0.00000000000E+00 0. -1.
         -2   -1    0    0    0  501 -0.00000000000E+00 -0.00000000000E+00 -0.27924066418E+04  0.27924066418E+04  0.00000000000E+00 0.  1.
         23    2    1    2    0    0 -0.13152351917E+04  0.13118841036E+04 -0.52268604369E+03  0.19318880027E+04  0.90039124080E+02 0.  0.
         13    1    3    3    0    0 -0.54540165882E+03  0.48975600411E+03 -0.22838364017E+03  0.76777796276E+03  0.00000000000E+00 0.  1.
        -13    1    3    3    0    0 -0.76983353289E+03  0.82212809953E+03 -0.29430240352E+03  0.11641100400E+04  0.00000000000E+00 0. -1.
         22    1    1    2    0    0  0.13152351917E+04 -0.13118841036E+04 -0.10139024034E+04  0.21163368339E+04  0.00000000000E+00 0.  1.
<mgrwt>
<rscale>  0 0.37452664E+04</rscale>
<asrwt>0</asrwt>
<pdfrwt beam="1">  1        2 0.19320280E+00 0.37452664E+04</pdfrwt>
<pdfrwt beam="2">  1       -2 0.42960102E+00 0.37452664E+04</pdfrwt>
<totfact> 0.66905338E-02</totfact>
</mgrwt>
</event>
<event>
 6    1  0.1614874E-005  0.1808183E+04  0.7818608E-02  0.8701960E-01
          1   -1    0    0  501    0  0.00000000000E+00  0.00000000000E+00  0.28465485317E+04  0.28465485317E+04  0.00000000000E+00 0. -1.
         -1   -1    0    0    0  501 -0.00000000000E+00 -0.00000000000E+00 -0.28714820161E+03  0.28714820161E+03  0.00000000000E+00 0.  1.
         23    2    1    2    0    0  0.58377685079E+03  0.68362149793E+03  0.11592077102E+04  0.14697637008E+04  0.91154027826E+02 0.  0.
         13    1    3    3    0    0  0.38988136226E+03  0.47820337035E+03  0.85817016378E+03  0.10569493697E+04  0.00000000000E+00 0. -1.
        -13    1    3    3    0    0  0.19389548853E+03  0.20541812757E+03  0.30103754641E+03  0.41281433109E+03  0.00000000000E+00 0.  1.
         22    1    1    2    0    0 -0.58377685079E+03 -0.68362149793E+03  0.14001926199E+04  0.16639330325E+04  0.00000000000E+00 0. -1.
<mgrwt>
<rscale>  0 0.18081828E+04</rscale>
<asrwt>0</asrwt>
<pdfrwt beam="1">  1        1 0.43793052E+00 0.18081828E+04</pdfrwt>
<pdfrwt beam="2">  1       -1 0.44176648E-01 0.18081828E+04</pdfrwt>
<totfact> 0.36982740E+00</totfact>
</mgrwt>
</event>
<event>
 6    1  0.1614874E-005  0.3106708E+04  0.7818608E-02  0.8213899E-01
          2   -1    0    0  501    0  0.00000000000E+00  0.00000000000E+00  0.31993373887E+04  0.31993373887E+04  0.00000000000E+00 0. -1.
         -2   -1    0    0    0  501 -0.00000000000E+00 -0.00000000000E+00 -0.75419003429E+03  0.75419003429E+03  0.00000000000E+00 0.  1.
         23    2    1    2    0    0  0.43090929572E+03 -0.13609556874E+04  0.19987247037E+04  0.24578080685E+04  0.89648516142E+02 0.  0.
         13    1    3    3    0    0  0.32894760766E+03 -0.11488550715E+04  0.16693044855E+04  0.20529617554E+04  0.00000000000E+00 0. -1.
        -13    1    3    3    0    0  0.10196168806E+03 -0.21210061585E+03  0.32942021820E+03  0.40484631311E+03  0.00000000000E+00 0.  1.
         22    1    1    2    0    0 -0.43090929572E+03  0.13609556874E+04  0.44642265074E+03  0.14957193545E+04  0.00000000000E+00 0.  1.
<mgrwt>
<rscale>  0 0.31067078E+04</rscale>
<asrwt>0</asrwt>
<pdfrwt beam="1">  1        2 0.49220575E+00 0.31067078E+04</pdfrwt>
<pdfrwt beam="2">  1       -2 0.11602924E+00 0.31067078E+04</pdfrwt>
<totfact> 0.63493730E-01</totfact>
</mgrwt>
</event>
<event>
 6    1  0.1614874E-005  0.1754330E+04  0.7818608E-02  0.8730971E-01
         -1   -1    0    0    0  501 -0.00000000000E+00  0.00000000000E+00  0.16516354196E+04  0.16516354196E+04  0.00000000000E+00 0.  1.
          1   -1    0    0  501    0  0.00000000000E+00 -0.00000000000E+00 -0.46585236869E+03  0.46585236869E+03  0.00000000000E+00 0. -1.
         23    2    1    2    0    0 -0.18701952204E+03 -0.45713506571E+03 -0.27680721727E+03  0.57375236326E+03  0.92848095791E+02 0.  0.
         13    1    3    3    0    0 -0.14369304434E+02 -0.81246565261E+02 -0.82738103377E+02  0.11684637362E+03  0.00000000000E+00 0.  1.
        -13    1    3    3    0    0 -0.17265021761E+03 -0.37588850044E+03 -0.19406911390E+03  0.45690598965E+03  0.00000000000E+00 0. -1.
         22    1    1    2    0    0  0.18701952204E+03  0.45713506571E+03  0.14625902682E+04  0.15437354250E+04  0.00000000000E+00 0.  1.
<mgrwt>
<rscale>  0 0.17543298E+04</rscale>
<asrwt>0</asrwt>
<pdfrwt beam="1">  1        1 0.71669596E-01 0.17543298E+04</pdfrwt>
<pdfrwt beam="2">  1       -1 0.25409775E+00 0.17543298E+04</pdfrwt>
<totfact> 0.30339517E+00</totfact>
</mgrwt>
</event>
<event>
 6    1  0.1614874E-005  0.2913563E+04  0.7818608E-02  0.8268853E-01
         -2   -1    0    0    0  501 -0.00000000000E+00  0.00000000000E+00  0.12296030093E+04  0.12296030093E+04  0.00000000000E+00 0. -1.
          2   -1    0    0  501    0  0.00000000000E+00 -0.00000000000E+00 -0.17259333501E+04  0.17259333501E+04  0.00000000000E+00 0.  1.
         23    2    1    2    0    0  0.11328244443E+04 -0.25653690037E+03 -0.11380484354E+04  0.16285455849E+04  0.88904883039E+02 0.  0.
         11    1    3    3    0    0  0.93206081013E+03 -0.20823089678E+03 -0.88615007620E+03  0.13028274704E+04  0.00000000000E+00 0.  1.
        -11    1    3    3    0    0  0.20076363414E+03 -0.48306003593E+02 -0.25189835916E+03  0.32571811451E+03  0.00000000000E+00 0. -1.
         22    1    1    2    0    0 -0.11328244443E+04  0.25653690037E+03  0.64171809449E+03  0.13269907745E+04  0.00000000000E+00 0. -1.
<mgrwt>
<rscale>  0 0.29135633E+04</rscale>
<asrwt>0</asrwt>
<pdfrwt beam="1">  1        2 0.26552821E+00 0.29135633E+04</pdfrwt>
<pdfrwt beam="2">  1       -2 0.18916969E+00 0.29135633E+04</pdfrwt>
<totfact> 0.12842090E+00</totfact>
</mgrwt>
</event>
<event>
 6    1  0.1614874E-005  0.2704437E+04  0.7818608E-02  0.8333567E-01
         -2   -1    0    0    0  501 -0.00000000000E+00  0.00000000000E+00  0.13452042379E+04  0.13452042379E+04  0.00000000000E+00 0.  1.
          2   -1    0    0  501    0  0.00000000000E+00 -0.00000000000E+00 -0.13592693613E+04  0.13592693613E+04  0.00000000000E+00 0. -1.
         23    2    1    2    0    0  0.41843055348E+03  0.12707819542E+04 -0.18765555178E+03  0.13553610984E+04  0.10871153461E+03 0.  0.
         11    1    3    3    0    0  0.27761155368E+03  0.77808986926E+03 -0.16494903432E+03  0.84243706192E+03  0.00000000000E+00 0.  1.
        -11    1    3    3    0    0  0.14081899980E+03  0.49269208494E+03 -0.22706517463E+02  0.51292403648E+03  0.00000000000E+00 0. -1.
         22    1    1    2    0    0 -0.41843055348E+03 -0.12707819542E+04  0.17359042837E+03  0.13491125009E+04  0.00000000000E+00 0.  1.
<mgrwt>
<rscale>  0 0.27044370E+04</rscale>
<asrwt>0</asrwt>
<pdfrwt beam="1">  1        2 0.20911836E+00 0.27044370E+04</pdfrwt>
<pdfrwt beam="2">  1       -2 0.20695450E+00 0.27044370E+04</pdfrwt>
<totfact> 0.16048010E+00</totfact>
</mgrwt>
</event>
<event>
 6    1  0.1614874E-005  0.1309974E+04  0.7818608E-02  0.9021693E-01
          2   -1    0    0  501    0  0.00000000000E+00  0.00000000000E+00  0.12233944001E+04  0.12233944001E+04  0.00000000000E+00 0. -1.
         -2   -1    0    0    0  501 -0.00000000000E+00 -0.00000000000E+00 -0.35067040269E+03  0.35067040269E+03  0.00000000000E+00 0.  1.
         23    2    1    2    0    0 -0.10082966441E+03 -0.64358416959E+03  0.45424871911E+03  0.79979820587E+03  0.94699877149E+02 0.  0.
         11    1    3    3    0    0 -0.93198469548E+02 -0.30075442160E+03  0.20182757949E+03  0.37399672282E+03  0.00000000000E+00 0. -1.
        -11    1    3    3    0    0 -0.76311948600E+01 -0.34282974799E+03  0.25242113961E+03  0.42580148305E+03  0.00000000000E+00 0.  1.
         22    1    1    2    0    0  0.10082966441E+03  0.64358416959E+03  0.41847527833E+03  0.77426659695E+03  0.00000000000E+00 0.  1.
<mgrwt>
<rscale>  0 0.13099744E+04</rscale>
<asrwt>0</asrwt>
<pdfrwt beam="1">  1        2 0.18821452E+00 0.13099744E+04</pdfrwt>
<pdfrwt beam="2">  1       -2 0.53949293E-01 0.13099744E+04</pdfrwt>
<totfact> 0.58130623E+01</totfact>
</mgrwt>
</event>
<event>
 6    1  0.1614874E-005  0.1116276E+04  0.7818608E-02  0.9189472E-01
          1   -1    0    0  501    0  0.00000000000E+00  0.00000000000E+00  0.56680368443E+03  0.56680368443E+03  0.00000000000E+00 0. -1.
         -1   -1    0    0    0  501 -0.00000000000E+00 -0.00000000000E+00 -0.54960437466E+03  0.54960437466E+03  0.00000000000E+00 0.  1.
         23    2    1    2    0    0  0.21340628357E+03  0.48333033473E+03 -0.16004087695E+03  0.55912488320E+03  0.88640275187E+02 0.  0.
         11    1    3    3    0    0  0.62458106868E+02  0.13532611555E+03 -0.44120309836E+01  0.14910948555E+03  0.00000000000E+00 0.  1.
        -11    1    3    3    0    0  0.15094817670E+03  0.34800421918E+03 -0.15562884597E+03  0.41001539766E+03  0.00000000000E+00 0. -1.
         22    1    1    2    0    0 -0.21340628357E+03 -0.48333033473E+03  0.17724018672E+03  0.55728317589E+03  0.00000000000E+00 0. -1.
<mgrwt>
<rscale>  0 0.11162756E+04</rscale>
<asrwt>0</asrwt>
<pdfrwt beam="1">  1        1 0.87200567E-01 0.11162756E+04</pdfrwt>
<pdfrwt beam="2">  1       -1 0.84554519E-01 0.11162756E+04</pdfrwt>
<totfact> 0.51263115E+01</totfact>
</mgrwt>
</event>
<event>
 6    1  0.1614874E-005  0.3013051E+04  0.7818608E-02  0.8240014E-01
          2   -1    0    0  501    0  0.00000000000E+00  0.00000000000E+00  0.22690036162E+04  0.22690036162E+04  0.00000000000E+00 0. -1.
         -2   -1    0    0    0  501 -0.00000000000E+00 -0.00000000000E+00 -0.10002713497E+04  0.10002713497E+04  0.00000000000E+00 0.  1.
         23    2    1    2    0    0 -0.74821338464E+03 -0.56662962397E+03  0.19117057025E+04  0.21315987206E+04  0.90564966209E+02 0.  0.
         13    1    3    3    0    0 -0.15846943370E+03 -0.84339281941E+02  0.31828948513E+03  0.36542286771E+03  0.00000000000E+00 0. -1.
        -13    1    3    3    0    0 -0.58974395094E+03 -0.48229034203E+03  0.15934162174E+04  0.17661758529E+04  0.00000000000E+00 0.  1.
         22    1    1    2    0    0  0.74821338464E+03  0.56662962397E+03 -0.64297343593E+03  0.11376762453E+04  0.00000000000E+00 0.  1.
<mgrwt>
<rscale>  0 0.30130512E+04</rscale>
<asrwt>0</asrwt>
<pdfrwt beam="1">  1        2 0.34907748E+00 0.30130512E+04</pdfrwt>
<pdfrwt beam="2">  1       -2 0.15388790E+00 0.30130512E+04</pdfrwt>
<totfact> 0.11297110E+00</totfact>
</mgrwt>
</event>
<event>
 6    1  0.1614874E-005  0.2555981E+04  0.7818608E-02  0.8383309E-01
          2   -1    0    0  501    0  0.00000000000E+00  0.00000000000E+00  0.18113352878E+04  0.18113352878E+04  0.00000000000E+00 0. -1.
         -2   -1    0    0    0  501 -0.00000000000E+00 -0.00000000000E+00 -0.90168850927E+03  0.90168850927E+03  0.00000000000E+00 0.  1.
         23    2    1    2    0    0  0.12352467544E+04 -0.27102631606E+03  0.63809507816E+03  0.14195671360E+04  0.93358002627E+02 0.  0.
         11    1    3    3    0    0  0.20836332905E+03 -0.59418836789E+02  0.14672830884E+03  0.26167741911E+03  0.00000000000E+00 0. -1.
        -11    1    3    3    0    0  0.10268834253E+04 -0.21160747927E+03  0.49136676933E+03  0.11578897169E+04  0.00000000000E+00 0.  1.
         22    1    1    2    0    0 -0.12352467544E+04  0.27102631606E+03  0.27155170040E+03  0.12934566611E+04  0.00000000000E+00 0. -1.
<mgrwt>
<rscale>  0 0.25559814E+04</rscale>
<asrwt>0</asrwt>
<pdfrwt beam="1">  1        2 0.27866697E+00 0.25559814E+04</pdfrwt>
<pdfrwt beam="2">  1       -2 0.13872131E+00 0.25559814E+04</pdfrwt>
<totfact> 0.27775012E+00</totfact>
</mgrwt>
</event>
<event>
 6    1  0.1614874E-005  0.1873662E+04  0.7818608E-02  0.8668079E-01
         -1   -1    0    0    0  501 -0.00000000000E+00  0.00000000000E+00  0.60663011482E+03  0.60663011482E+03  0.00000000000E+00 0.  1.
          1   -1    0    0  501    0  0.00000000000E+00 -0.00000000000E+00 -0.14467668807E+04  0.14467668807E+04  0.00000000000E+00 0. -1.
         23    2    1    2    0    0  0.84659189807E+03 -0.37805864756E+03 -0.29133068051E+03  0.97597678863E+03  0.89503875083E+02 0.  0.
         13    1    3    3    0    0  0.33084028680E+03 -0.12902238164E+03 -0.15369211871E+03  0.38694100027E+03  0.00000000000E+00 0.  1.
        -13    1    3    3    0    0  0.51575161127E+03 -0.24903626593E+03 -0.13763856180E+03  0.58903578836E+03  0.00000000000E+00 0. -1.
         22    1    1    2    0    0 -0.84659189807E+03  0.37805864756E+03 -0.54880608537E+03  0.10774202069E+04  0.00000000000E+00 0. -1.
<mgrwt>
<rscale>  0 0.18736620E+04</rscale>
<asrwt>0</asrwt>
<pdfrwt beam="1">  1        1 0.22257952E+00 0.18736620E+04</pdfrwt>
<pdfrwt beam="2">  1       -1 0.93327711E-01 0.18736620E+04</pdfrwt>
<totfact> 0.74438757E+00</totfact>
</mgrwt>
</event>
<event>
 6    1  0.1614874E-005  0.1405205E+04  0.7818608E-02  0.8950059E-01
          1   -1    0    0  501    0  0.00000000000E+00  0.00000000000E+00  0.76824872776E+03  0.76824872776E+03  0.00000000000E+00 0. -1.
         -1   -1    0    0    0  501 -0.00000000000E+00 -0.00000000000E+00 -0.64256588617E+03  0.64256588617E+03  0.00000000000E+00 0.  1.
         23    2    1    2    0    0  0.22138287427E+03 -0.10204329442E+03 -0.59534789737E+03  0.64969140612E+03  0.90755679341E+02 0.  0.
         13    1    3    3    0    0  0.76600155346E+02 -0.22997312694E+01 -0.11515017124E+03  0.13832004374E+03  0.00000000000E+00 0. -1.
        -13    1    3    3    0    0  0.14478271892E+03 -0.99743563151E+02 -0.48019772613E+03  0.51137136238E+03  0.00000000000E+00 0.  1.
         22    1    1    2    0    0 -0.22138287427E+03  0.10204329442E+03  0.72103073896E+03  0.76112320782E+03  0.00000000000E+00 0. -1.
<mgrwt>
<rscale>  0 0.14052052E+04</rscale>
<asrwt>0</asrwt>
<pdfrwt beam="1">  1        1 0.11819211E+00 0.14052052E+04</pdfrwt>
<pdfrwt beam="2">  1       -1 0.98856290E-01 0.14052052E+04</pdfrwt>
<totfact> 0.22502382E+01</totfact>
</mgrwt>
</event>
<event>
 6    1  0.1614874E-005  0.2559750E+04  0.7818608E-02  0.8382003E-01
         -4   -1    0    0    0  501 -0.00000000000E+00  0.00000000000E+00  0.68961884315E+03  0.68961884315E+03  0.00000000000E+00 0.  1.
          4   -1    0    0  501    0  0.00000000000E+00 -0.00000000000E+00 -0.23753409512E+04  0.23753409512E+04  0.00000000000E+00 0. -1.
         23    2    1    2    0    0  0.31924325632E+03  0.26528833502E+03  0.60377968979E+03  0.73813521143E+03  0.89440031043E+02 0.  0.
         13    1    3    3    0    0  0.11843963214E+03  0.96883354366E+02  0.15098712203E+03  0.21496846706E+03  0.00000000000E+00 0. -1.
        -13    1    3    3    0    0  0.20080362418E+03  0.16840498066E+03  0.45279256776E+03  0.52316674437E+03  0.00000000000E+00 0.  1.
         22    1    1    2    0    0 -0.31924325632E+03 -0.26528833502E+03 -0.22895017978E+04  0.23268245829E+04  0.00000000000E+00 0. -1.
<mgrwt>
<rscale>  0 0.25597499E+04</rscale>
<asrwt>0</asrwt>
<pdfrwt beam="1">  1        4 0.36543707E+00 0.25597499E+04</pdfrwt>
<pdfrwt beam="2">  1       -4 0.10609521E+00 0.25597499E+04</pdfrwt>
<totfact> 0.14864568E-02</totfact>
</mgrwt>
</event>
<event>
 6    1  0.1614874E-005  0.2811948E+04  0.7818608E-02  0.8299569E-01
         -2   -1    0    0    0  501 -0.00000000000E+00  0.00000000000E+00  0.13791187963E+04  0.13791187963E+04  0.00000000000E+00 0.  1.
          2   -1    0    0  501    0  0.00000000000E+00 -0.00000000000E+00 -0.14333523258E+04  0.14333523258E+04  0.00000000000E+00 0. -1.
         23    2    1    2    0    0 -0.32826399954E+02  0.41215448104E+03 -0.13699628733E+04  0.14333073919E+04  0.81381303695E+02 0.  0.
         13    1    3    3    0    0  0.20990296348E+02  0.74074887572E+02 -0.20072275949E+03  0.21498211015E+03  0.00000000000E+00 0. -1.
        -13    1    3    3    0    0 -0.53816696302E+02  0.33807959347E+03 -0.11692401138E+04  0.12183252817E+04  0.00000000000E+00 0.  1.
         22    1    1    2    0    0  0.32826399954E+02 -0.41215448104E+03  0.13157293437E+04  0.13791637302E+04  0.00000000000E+00 0.  1.
<mgrwt>
<rscale>  0 0.28119482E+04</rscale>
<asrwt>0</asrwt>
<pdfrwt beam="1">  1        2 0.22051574E+00 0.28119482E+04</pdfrwt>
<pdfrwt beam="2">  1       -2 0.21217212E+00 0.28119482E+04</pdfrwt>
<totfact> 0.13350297E+00</totfact>
</mgrwt>
</event>
<event>
 6    1  0.1614874E-005  0.1348205E+04  0.7818608E-02  0.8992188E-01
          2   -1    0    0  501    0  0.00000000000E+00  0.00000000000E+00  0.29389147948E+03  0.29389147948E+03  0.00000000000E+00 0. -1.
         -2   -1    0    0    0  501 -0.00000000000E+00 -0.00000000000E+00 -0.15461974315E+04  0.15461974315E+04  0.00000000000E+00 0.  1.
         23    2    1    2    0    0  0.10327295305E+03 -0.53929705176E+03 -0.11553882908E+04  0.12825051541E+04  0.91601063612E+02 0.  0.
         11    1    3    3    0    0  0.78159517095E+02 -0.36344804407E+03 -0.87347509715E+03  0.94929560001E+03  0.00000000000E+00 0. -1.
        -11    1    3    3    0    0  0.25113435958E+02 -0.17584900769E+03 -0.28191319363E+03  0.33320955405E+03  0.00000000000E+00 0.  1.
         22    1    1    2    0    0 -0.10327295305E+03  0.53929705176E+03 -0.96917661194E+02  0.55758375687E+03  0.00000000000E+00 0.  1.
<mgrwt>
<rscale>  0 0.13482051E+04</rscale>
<asrwt>0</asrwt>
<pdfrwt beam="1">  1        2 0.45214074E-01 0.13482051E+04</pdfrwt>
<pdfrwt beam="2">  1       -2 0.23787653E+00 0.13482051E+04</pdfrwt>
<totfact> 0.83854401E+00</totfact>
</mgrwt>
</event>
<event>
 6    1  0.1614874E-005  0.1276779E+04  0.7818608E-02  0.9048185E-01
          2   -1    0    0  501    0  0.00000000000E+00  0.00000000000E+00  0.72259222324E+03  0.72259222324E+03  0.00000000000E+00 0. -1.
         -2   -1    0    0    0  501 -0.00000000000E+00 -0.00000000000E+00 -0.56399890805E+03  0.56399890805E+03  0.00000000000E+00 0.  1.
         23    2    1    2    0    0 -0.33803492561E+03  0.30548702691E+03 -0.36621985104E+03  0.59159559606E+03  0.90985907926E+02 0.  0.
         13    1    3    3    0    0 -0.88614262112E+02  0.62897390628E+02 -0.43552827026E+02  0.11707014111E+03  0.00000000000E+00 0.  1.
        -13    1    3    3    0    0 -0.24942066349E+03  0.24258963628E+03 -0.32266702401E+03  0.47452545495E+03  0.00000000000E+00 0. -1.
         22    1    1    2    0    0  0.33803492561E+03 -0.30548702691E+03  0.52481316623E+03  0.69499553523E+03  0.00000000000E+00 0. -1.
<mgrwt>
<rscale>  0 0.12767791E+04</rscale>
<asrwt>0</asrwt>
<pdfrwt beam="1">  1        2 0.11116803E+00 0.12767791E+04</pdfrwt>
<pdfrwt beam="2">  1       -2 0.86769063E-01 0.12767791E+04</pdfrwt>
<totfact> 0.44421306E+01</totfact>
</mgrwt>
</event>
<event>
 6    1  0.1614874E-005  0.2485852E+04  0.7818608E-02  0.8408043E-01
         -1   -1    0    0    0  501 -0.00000000000E+00  0.00000000000E+00  0.57257148482E+03  0.57257148482E+03  0.00000000000E+00 0.  1.
          1   -1    0    0  501    0  0.00000000000E+00 -0.00000000000E+00 -0.26981174902E+04  0.26981174902E+04  0.00000000000E+00 0. -1.
         23    2    1    2    0    0 -0.10744597979E+04 -0.22382224444E+03 -0.30127575750E+03  0.11417168776E+04  0.90499127455E+02 0.  0.
         13    1    3    3    0    0 -0.44225923112E+03 -0.63240280694E+02 -0.87025322477E+02  0.45515488283E+03  0.00000000000E+00 0. -1.
        -13    1    3    3    0    0 -0.63220056678E+03 -0.16058196374E+03 -0.21425043502E+03  0.68656199474E+03  0.00000000000E+00 0.  1.
         22    1    1    2    0    0  0.10744597979E+04  0.22382224444E+03 -0.18242702479E+04  0.21289720974E+04  0.00000000000E+00 0. -1.
<mgrwt>
<rscale>  0 0.24858521E+04</rscale>
<asrwt>0</asrwt>
<pdfrwt beam="1">  1        1 0.41509501E+00 0.24858521E+04</pdfrwt>
<pdfrwt beam="2">  1       -1 0.88087919E-01 0.24858521E+04</pdfrwt>
<totfact> 0.11086542E+00</totfact>
</mgrwt>
</event>
<event>
 6    1  0.1614874E-005  0.1770770E+04  0.7818608E-02  0.8722000E-01
          1   -1    0    0  501    0  0.00000000000E+00  0.00000000000E+00  0.12496397317E+04  0.12496397317E+04  0.00000000000E+00 0. -1.
         -1   -1    0    0    0  501 -0.00000000000E+00 -0.00000000000E+00 -0.62730588346E+03  0.62730588346E+03  0.00000000000E+00 0.  1.
         23    2    1    2    0    0 -0.58443896933E+03 -0.61260700561E+03  0.57731406133E+03  0.10290759120E+04  0.94071542742E+02 0.  0.
         11    1    3    3    0    0 -0.19705815453E+03 -0.21011674330E+03  0.25133287275E+03  0.38229461807E+03  0.00000000000E+00 0.  1.
        -11    1    3    3    0    0 -0.38738081480E+03 -0.40249026231E+03  0.32598118858E+03  0.64678129398E+03  0.00000000000E+00 0. -1.
         22    1    1    2    0    0  0.58443896933E+03  0.61260700561E+03  0.45019786872E+02  0.84786970308E+03  0.00000000000E+00 0.  1.
<mgrwt>
<rscale>  0 0.17707697E+04</rscale>
<asrwt>0</asrwt>
<pdfrwt beam="1">  1        1 0.19225227E+00 0.17707697E+04</pdfrwt>
<pdfrwt beam="2">  1       -1 0.96508598E-01 0.17707697E+04</pdfrwt>
<totfact> 0.96125869E+00</totfact>
</mgrwt>
</event>
<event>
 6    1  0.1614874E-005  0.7057517E+03  0.7818608E-02  0.9707446E-01
          1   -1    0    0  501    0  0.00000000000E+00  0.00000000000E+00  0.82348969654E+03  0.82348969654E+03  0.00000000000E+00 0.  1.
         -1   -1    0    0    0  501 -0.00000000000E+00 -0.00000000000E+00 -0.15121182825E+03  0.15121182825E+03  0.00000000000E+00 0. -1.
         23    2    1    2    0    0 -0.10068291816E+03  0.18890182393E+03 -0.35575367282E+02  0.23519009675E+03  0.90707363305E+02 0.  0.
         13    1    3    3    0    0 -0.10575201010E+03  0.10939974260E+03 -0.31752427310E+02  0.15543489943E+03  0.00000000000E+00 0. -1.
        -13    1    3    3    0    0  0.50690919433E+01  0.79502081326E+02 -0.38229399722E+01  0.79755197312E+02  0.00000000000E+00 0.  1.
         22    1    1    2    0    0  0.10068291816E+03 -0.18890182393E+03  0.70785323557E+03  0.73951142804E+03  0.00000000000E+00 0.  1.
<mgrwt>
<rscale>  0 0.70575175E+03</rscale>
<asrwt>0</asrwt>
<pdfrwt beam="1">  1        1 0.12669072E+00 0.70575175E+03</pdfrwt>
<pdfrwt beam="2">  1       -1 0.23263359E-01 0.70575175E+03</pdfrwt>
<totfact> 0.33797311E+02</totfact>
</mgrwt>
</event>
<event>
 6    1  0.1614874E-005  0.2480872E+04  0.7818608E-02  0.8409832E-01
          1   -1    0    0  501    0  0.00000000000E+00  0.00000000000E+00  0.79065822896E+03  0.79065822896E+03  0.00000000000E+00 0. -1.
         -1   -1    0    0    0  501 -0.00000000000E+00 -0.00000000000E+00 -0.19460759758E+04  0.19460759758E+04  0.00000000000E+00 0.  1.
         23    2    1    2    0    0  0.76791433168E+03  0.84447005264E+03 -0.11096360060E+04  0.15944041043E+04  0.89500230856E+02 0.  0.
         13    1    3    3    0    0  0.44377487201E+03  0.45675547009E+03 -0.56384015132E+03  0.85057475434E+03  0.00000000000E+00 0. -1.
        -13    1    3    3    0    0  0.32413945967E+03  0.38771458255E+03 -0.54579585473E+03  0.74382934997E+03  0.00000000000E+00 0.  1.
         22    1    1    2    0    0 -0.76791433168E+03 -0.84447005264E+03 -0.45781740800E+02  0.11423301004E+04  0.00000000000E+00 0. -1.
<mgrwt>
<rscale>  0 0.24808716E+04</rscale>
<asrwt>0</asrwt>
<pdfrwt beam="1">  1        1 0.12163973E+00 0.24808716E+04</pdfrwt>
<pdfrwt beam="2">  1       -1 0.29939630E+00 0.24808716E+04</pdfrwt>
<totfact> 0.66818878E-01</totfact>
</mgrwt>
</event>
<event>
 6    1  0.1614874E-005  0.9538720E+03  0.7818608E-02  0.9360636E-01
          1   -1    0    0  501    0  0.00000000000E+00  0.00000000000E+00  0.47688370098E+03  0.47688370098E+03  0.00000000000E+00 0. -1.
         -1   -1    0    0    0  501 -0.00000000000E+00 -0.00000000000E+00 -0.47698828787E+03  0.47698828787E+03  0.00000000000E+00 0.  1.
         23    2    1    2    0    0 -0.68529434800E+01 -0.24454575481E+03  0.40374509888E+03  0.48170236074E+03  0.95799115049E+02 0.  0.
         13    1    3    3    0    0 -0.45299122158E+02 -0.80257728731E+02  0.17070471526E+03  0.19399333313E+03  0.00000000000E+00 0.  1.
        -13    1    3    3    0    0  0.38446178678E+02 -0.16428802607E+03  0.23304038362E+03  0.28770902760E+03  0.00000000000E+00 0. -1.
         22    1    1    2    0    0  0.68529434800E+01  0.24454575481E+03 -0.40384968576E+03  0.47216962812E+03  0.00000000000E+00 0.  1.
<mgrwt>
<rscale>  0 0.95387198E+03</rscale>
<asrwt>0</asrwt>
<pdfrwt beam="1">  1        1 0.73366723E-01 0.95387198E+03</pdfrwt>
<pdfrwt beam="2">  1       -1 0.73382813E-01 0.95387198E+03</pdfrwt>
<totfact> 0.89029215E+01</totfact>
</mgrwt>
</event>
<event>
 6    1  0.1614874E-005  0.1531565E+04  0.7818608E-02  0.8863730E-01
         -1   -1    0    0    0  501 -0.00000000000E+00  0.00000000000E+00  0.84863941419E+03  0.84863941419E+03  0.00000000000E+00 0.  1.
          1   -1    0    0  501    0  0.00000000000E+00 -0.00000000000E+00 -0.69101490467E+03  0.69101490467E+03  0.00000000000E+00 0. -1.
         23    2    1    2    0    0 -0.28160632896E+03  0.24699361626E+03 -0.58924960805E+03  0.70411322562E+03  0.90842517122E+02 0.  0.
         11    1    3    3    0    0 -0.24351682940E+03  0.16282156349E+03 -0.44067946688E+03  0.52915942803E+03  0.00000000000E+00 0. -1.
        -11    1    3    3    0    0 -0.38089499560E+02  0.84172052771E+02 -0.14857014117E+03  0.17495379759E+03  0.00000000000E+00 0.  1.
         22    1    1    2    0    0  0.28160632896E+03 -0.24699361626E+03  0.74687411758E+03  0.83554109324E+03  0.00000000000E+00 0.  1.
<mgrwt>
<rscale>  0 0.15315645E+04</rscale>
<asrwt>0</asrwt>
<pdfrwt beam="1">  1        1 0.10630999E+00 0.15315645E+04</pdfrwt>
<pdfrwt beam="2">  1       -1 0.13055991E+00 0.15315645E+04</pdfrwt>
<totfact> 0.13451906E+01</totfact>
</mgrwt>
</event>
<event>
 6    1  0.1614874E-005  0.1150813E+04  0.7818608E-02  0.9157033E-01
         -2   -1    0    0    0  501 -0.00000000000E+00  0.00000000000E+00  0.36173535480E+03  0.36173535480E+03  0.00000000000E+00 0.  1.
          2   -1    0    0  501    0  0.00000000000E+00 -0.00000000000E+00 -0.91529033874E+03  0.91529033874E+03  0.00000000000E+00 0. -1.
         23    2    1    2    0    0  0.72350620338E+02 -0.62112698269E+02 -0.90404967720E+03  0.91379143090E+03  0.92824354422E+02 0.  0.
         11    1    3    3    0    0  0.64784840054E+01 -0.31725065990E+02 -0.76529401072E+02  0.83097531826E+02  0.00000000000E+00 0.  1.
        -11    1    3    3    0    0  0.65872136332E+02 -0.30387632279E+02 -0.82752027613E+03  0.83069389907E+03  0.00000000000E+00 0. -1.
         22    1    1    2    0    0 -0.72350620338E+02  0.62112698269E+02  0.35049469327E+03  0.36323426264E+03  0.00000000000E+00 0.  1.
<mgrwt>
<rscale>  0 0.11508134E+04</rscale>
<asrwt>0</asrwt>
<pdfrwt beam="1">  1        2 0.14081390E+00 0.11508134E+04</pdfrwt>
<pdfrwt beam="2">  1       -2 0.55651593E-01 0.11508134E+04</pdfrwt>
<totfact> 0.85984946E+01</totfact>
</mgrwt>
</event>
<event>
 6    1  0.1614874E-005  0.3116462E+04  0.7818608E-02  0.8211234E-01
          2   -1    0    0  501    0  0.00000000000E+00  0.00000000000E+00  0.12603103017E+04  0.12603103017E+04  0.00000000000E+00 0. -1.
         -2   -1    0    0    0  501 -0.00000000000E+00 -0.00000000000E+00 -0.19265765938E+04  0.19265765938E+04  0.00000000000E+00 0.  1.
         23    2    1    2    0    0 -0.14638026978E+04 -0.12848568236E+02 -0.87553745875E+03  0.17081449150E+04  0.91158022983E+02 0.  0.
         13    1    3    3    0    0 -0.65852693120E+03  0.31910812287E+02 -0.36448447532E+03  0.75334251958E+03  0.00000000000E+00 0. -1.
        -13    1    3    3    0    0 -0.80527576659E+03 -0.44759380523E+02 -0.51105298343E+03  0.95480239541E+03  0.00000000000E+00 0.  1.
         22    1    1    2    0    0  0.14638026978E+04  0.12848568236E+02  0.20927116663E+03  0.14787419805E+04  0.00000000000E+00 0. -1.
<mgrwt>
<rscale>  0 0.31164623E+04</rscale>
<asrwt>0</asrwt>
<pdfrwt beam="1">  1        2 0.19389389E+00 0.31164623E+04</pdfrwt>
<pdfrwt beam="2">  1       -2 0.29639640E+00 0.31164623E+04</pdfrwt>
<totfact> 0.49446689E-01</totfact>
</mgrwt>
</event>
<event>
 6    1  0.1614874E-005  0.3517976E+04  0.7818608E-02  0.8109543E-01
         -2   -1    0    0    0  501 -0.00000000000E+00  0.00000000000E+00  0.15547776997E+04  0.15547776997E+04  0.00000000000E+00 0. -1.
          2   -1    0    0  501    0  0.00000000000E+00 -0.00000000000E+00 -0.19900199932E+04  0.19900199932E+04  0.00000000000E+00 0.  1.
         23    2    1    2    0    0 -0.15615963654E+04 -0.79579135753E+03 -0.35301852095E+03  0.17901957888E+04  0.91169036289E+02 0.  0.
         13    1    3    3    0    0 -0.58834810714E+03 -0.30836493559E+03 -0.89454246105E+02  0.67025703340E+03  0.00000000000E+00 0.  1.
        -13    1    3    3    0    0 -0.97324825822E+03 -0.48742642194E+03 -0.26356427485E+03  0.11199387554E+04  0.00000000000E+00 0. -1.
         22    1    1    2    0    0  0.15615963654E+04  0.79579135753E+03 -0.82223772600E+02  0.17546019041E+04  0.00000000000E+00 0.  1.
<mgrwt>
<rscale>  0 0.35179760E+04</rscale>
<asrwt>0</asrwt>
<pdfrwt beam="1">  1        2 0.30615692E+00 0.35179760E+04</pdfrwt>
<pdfrwt beam="2">  1       -2 0.23919657E+00 0.35179760E+04</pdfrwt>
<totfact> 0.41607882E-01</totfact>
</mgrwt>
</event>
<event>
 6    1  0.1614874E-005  0.1721972E+04  0.7818608E-02  0.8748931E-01
          2   -1    0    0  501    0  0.00000000000E+00  0.00000000000E+00  0.21492989958E+04  0.21492989958E+04  0.00000000000E+00 0.  1.
         -2   -1    0    0    0  501 -0.00000000000E+00 -0.00000000000E+00 -0.34490171293E+03  0.34490171293E+03  0.00000000000E+00 0. -1.
         23    2    1    2    0    0  0.25945635946E+03  0.12102031888E+03  0.20771405671E+04  0.20987864713E+04  0.91805209679E+02 0.  0.
         13    1    3    3    0    0  0.23747426117E+03  0.10887171727E+03  0.20133787046E+04  0.20302563592E+04  0.00000000000E+00 0.  1.
        -13    1    3    3    0    0  0.21982098284E+02  0.12148601611E+02  0.63761862434E+02  0.68530112119E+02  0.00000000000E+00 0. -1.
         22    1    1    2    0    0 -0.25945635946E+03 -0.12102031888E+03 -0.27274328426E+03  0.39541423742E+03  0.00000000000E+00 0. -1.
<mgrwt>
<rscale>  0 0.17219720E+04</rscale>
<asrwt>0</asrwt>
<pdfrwt beam="1">  1        2 0.33066138E+00 0.17219720E+04</pdfrwt>
<pdfrwt beam="2">  1       -2 0.53061803E-01 0.17219720E+04</pdfrwt>
<totfact> 0.17548156E+01</totfact>
</mgrwt>
</event>
<event>
 6    1  0.1614874E-005  0.8427010E+03  0.7818608E-02  0.9500186E-01
          1   -1    0    0  501    0  0.00000000000E+00  0.00000000000E+00  0.23490359058E+03  0.23490359058E+03  0.00000000000E+00 0. -1.
         -1   -1    0    0    0  501 -0.00000000000E+00 -0.00000000000E+00 -0.75578341708E+03  0.75578341708E+03  0.00000000000E+00 0.  1.
         23    2    1    2    0    0 -0.41480204863E+03  0.32872450359E+02 -0.27341714115E+03  0.50655983616E+03  0.93298429797E+02 0.  0.
         11    1    3    3    0    0 -0.29907994166E+03  0.64633703693E+02 -0.18582230629E+03  0.35798918513E+03  0.00000000000E+00 0.  1.
        -11    1    3    3    0    0 -0.11572210697E+03 -0.31761253334E+02 -0.87594834853E+02  0.14857065103E+03  0.00000000000E+00 0. -1.
         22    1    1    2    0    0  0.41480204863E+03 -0.32872450359E+02 -0.24746268535E+03  0.48412717150E+03  0.00000000000E+00 0.  1.
<mgrwt>
<rscale>  0 0.84270099E+03</rscale>
<asrwt>0</asrwt>
<pdfrwt beam="1">  1        1 0.36139014E-01 0.84270099E+03</pdfrwt>
<pdfrwt beam="2">  1       -1 0.11627437E+00 0.84270099E+03</pdfrwt>
<totfact> 0.81520138E+01</totfact>
</mgrwt>
</event>
<event>
 6    1  0.1614874E-005  0.2179671E+04  0.7818608E-02  0.8526938E-01
         -1   -1    0    0    0  501 -0.00000000000E+00  0.00000000000E+00  0.81792725489E+03  0.81792725489E+03  0.00000000000E+00 0.  1.
          1   -1    0    0  501    0  0.00000000000E+00 -0.00000000000E+00 -0.14521354594E+04  0.14521354594E+04  0.00000000000E+00 0. -1.
         23    2    1    2    0    0 -0.79890813993E+03 -0.26743069554E+03  0.39920299790E+03  0.93675400802E+03  0.91496694178E+02 0.  0.
         13    1    3    3    0    0 -0.60352481181E+03 -0.24127058932E+03  0.31748331065E+03  0.72335976408E+03  0.00000000000E+00 0. -1.
        -13    1    3    3    0    0 -0.19538332812E+03 -0.26160106219E+02  0.81719687247E+02  0.21339424394E+03  0.00000000000E+00 0.  1.
         22    1    1    2    0    0  0.79890813993E+03  0.26743069554E+03 -0.10334112024E+04  0.13333087063E+04  0.00000000000E+00 0.  1.
<mgrwt>
<rscale>  0 0.21796708E+04</rscale>
<asrwt>0</asrwt>
<pdfrwt beam="1">  1        1 0.22340546E+00 0.21796708E+04</pdfrwt>
<pdfrwt beam="2">  1       -1 0.12583496E+00 0.21796708E+04</pdfrwt>
<totfact> 0.35507840E+00</totfact>
</mgrwt>
</event>
<event>
 6    1  0.1614874E-005  0.3064130E+04  0.7818608E-02  0.8225652E-01
          1   -1    0    0  501    0  0.00000000000E+00  0.00000000000E+00  0.30010558392E+04  0.30010558392E+04  0.00000000000E+00 0. -1.
         -1   -1    0    0    0  501 -0.00000000000E+00 -0.00000000000E+00 -0.78213254790E+03  0.78213254790E+03  0.00000000000E+00 0.  1.
         23    2    1    2    0    0 -0.13320400614E+04 -0.75246420282E+03  0.10436921689E+04  0.18540172458E+04  0.86910888770E+02 0.  0.
         11    1    3    3    0    0 -0.38134744174E+03 -0.26102822779E+03  0.31036017250E+03  0.55667319291E+03  0.00000000000E+00 0. -1.
        -11    1    3    3    0    0 -0.95069261961E+03 -0.49143597503E+03  0.73333199644E+03  0.12973440529E+04  0.00000000000E+00 0.  1.
         22    1    1    2    0    0  0.13320400614E+04  0.75246420282E+03  0.11752311224E+04  0.19291711414E+04  0.00000000000E+00 0.  1.
<mgrwt>
<rscale>  0 0.30641302E+04</rscale>
<asrwt>0</asrwt>
<pdfrwt beam="1">  1        1 0.46170089E+00 0.30641302E+04</pdfrwt>
<pdfrwt beam="2">  1       -1 0.12032809E+00 0.30641302E+04</pdfrwt>
<totfact> 0.31032741E-01</totfact>
</mgrwt>
</event>
<event>
 6    1  0.1614874E-005  0.1056469E+04  0.7818608E-02  0.9248690E-01
         -2   -1    0    0    0  501 -0.00000000000E+00  0.00000000000E+00  0.11985543665E+03  0.11985543665E+03  0.00000000000E+00 0.  1.
          2   -1    0    0  501    0  0.00000000000E+00 -0.00000000000E+00 -0.23280704330E+04  0.23280704330E+04  0.00000000000E+00 0. -1.
         23    2    1    2    0    0 -0.16281342869E+03  0.45805145376E+03 -0.15673507818E+04  0.16435464266E+04  0.91307373695E+02 0.  0.
         13    1    3    3    0    0 -0.33217819272E+02  0.18641839776E+03 -0.71382028662E+03  0.73850839138E+03  0.00000000000E+00 0. -1.
        -13    1    3    3    0    0 -0.12959560942E+03  0.27163305600E+03 -0.85353049517E+03  0.90503803527E+03  0.00000000000E+00 0.  1.
         22    1    1    2    0    0  0.16281342869E+03 -0.45805145376E+03 -0.64086421459E+03  0.80437944305E+03  0.00000000000E+00 0.  1.
<mgrwt>
<rscale>  0 0.10564694E+04</rscale>
<asrwt>0</asrwt>
<pdfrwt beam="1">  1        2 0.35816468E+00 0.10564694E+04</pdfrwt>
<pdfrwt beam="2">  1       -2 0.18439298E-01 0.10564694E+04</pdfrwt>
<totfact> 0.10794582E+02</totfact>
</mgrwt>
</event>
<event>
 6    1  0.1614874E-005  0.3167361E+04  0.7818608E-02  0.8197491E-01
         -1   -1    0    0    0  501 -0.00000000000E+00  0.00000000000E+00  0.23731635027E+04  0.23731635027E+04  0.00000000000E+00 0.  1.
          1   -1    0    0  501    0  0.00000000000E+00 -0.00000000000E+00 -0.10568357605E+04  0.10568357605E+04  0.00000000000E+00 0. -1.
         23    2    1    2    0    0 -0.11657101993E+04 -0.81084920008E+03 -0.97689887295E+02  0.14260525197E+04  0.87896420862E+02 0.  0.
         11    1    3    3    0    0 -0.11074982954E+04 -0.74813283261E+03 -0.10184347636E+03  0.13403832673E+04  0.00000000000E+00 0. -1.
        -11    1    3    3    0    0 -0.58211903890E+02 -0.62716367476E+02  0.41535890609E+01  0.85669252395E+02  0.00000000000E+00 0.  1.
         22    1    1    2    0    0  0.11657101993E+04  0.81084920008E+03  0.14140176295E+04  0.20039467434E+04  0.00000000000E+00 0.  1.
<mgrwt>
<rscale>  0 0.31673611E+04</rscale>
<asrwt>0</asrwt>
<pdfrwt beam="1">  1        1 0.16259012E+00 0.31673611E+04</pdfrwt>
<pdfrwt beam="2">  1       -1 0.36510208E+00 0.31673611E+04</pdfrwt>
<totfact> 0.14130331E-01</totfact>
</mgrwt>
</event>
<event>
 6    1  0.1614874E-005  0.3936856E+04  0.7818608E-02  0.8017407E-01
          2   -1    0    0  501    0  0.00000000000E+00  0.00000000000E+00  0.13830822845E+04  0.13830822845E+04  0.00000000000E+00 0. -1.
         -2   -1    0    0    0  501 -0.00000000000E+00 -0.00000000000E+00 -0.28015021253E+04  0.28015021253E+04  0.00000000000E+00 0.  1.
         23    2    1    2    0    0 -0.84349740112E+03  0.83967468471E+03  0.95544418218E+03  0.15290671643E+04  0.92905144050E+02 0.  0.
         13    1    3    3    0    0 -0.58142102729E+03  0.59041815622E+03  0.71776708433E+03  0.10962817145E+04  0.00000000000E+00 0. -1.
        -13    1    3    3    0    0 -0.26207637383E+03  0.24925652850E+03  0.23767709786E+03  0.43278544981E+03  0.00000000000E+00 0.  1.
         22    1    1    2    0    0  0.84349740112E+03 -0.83967468471E+03 -0.23738640229E+04  0.26555172455E+04  0.00000000000E+00 0.  1.
<mgrwt>
<rscale>  0 0.39368556E+04</rscale>
<asrwt>0</asrwt>
<pdfrwt beam="1">  1        2 0.21278189E+00 0.39368556E+04</pdfrwt>
<pdfrwt beam="2">  1       -2 0.43100032E+00 0.39368556E+04</pdfrwt>
<totfact> 0.54386850E-02</totfact>
</mgrwt>
</event>
<event>
 6    1  0.1614874E-005  0.9984606E+03  0.7818608E-02  0.9310235E-01
          1   -1    0    0  501    0  0.00000000000E+00  0.00000000000E+00  0.97577748566E+03  0.97577748566E+03  0.00000000000E+00 0. -1.
         -1   -1    0    0    0  501 -0.00000000000E+00 -0.00000000000E+00 -0.25541777353E+03  0.25541777353E+03  0.00000000000E+00 0.  1.
         23    2    1    2    0    0 -0.13296181570E+03 -0.14925361225E+03 -0.19518858775E+03  0.29408044519E+03  0.91810883064E+02 0.  0.
         11    1    3    3    0    0 -0.13054052826E+03 -0.87696690061E+02 -0.12661009191E+03  0.20189515680E+03  0.00000000000E+00 0.  1.
        -11    1    3    3    0    0 -0.24212874326E+01 -0.61556922191E+02 -0.68578495841E+02  0.92185288383E+02  0.00000000000E+00 0. -1.
         22    1    1    2    0    0  0.13296181570E+03  0.14925361225E+03  0.91554829988E+03  0.93711481400E+03  0.00000000000E+00 0. -1.
<mgrwt>
<rscale>  0 0.99846064E+03</rscale>
<asrwt>0</asrwt>
<pdfrwt beam="1">  1        1 0.15011961E+00 0.99846064E+03</pdfrwt>
<pdfrwt beam="2">  1       -1 0.39295042E-01 0.99846064E+03</pdfrwt>
<totfact> 0.99653736E+01</totfact>
</mgrwt>
</event>
<event>
 6    1  0.1614874E-005  0.1088945E+04  0.7818608E-02  0.9216035E-01
          2   -1    0    0  501    0  0.00000000000E+00  0.00000000000E+00  0.84211207132E+03  0.84211207132E+03  0.00000000000E+00 0. -1.
         -2   -1    0    0    0  501 -0.00000000000E+00 -0.00000000000E+00 -0.35203162108E+03  0.35203162108E+03  0.00000000000E+00 0.  1.
         23    2    1    2    0    0  0.27162612325E+01  0.10741455600E+03  0.82787326426E+03  0.83967331266E+03  0.90176856241E+02 0.  0.
         11    1    3    3    0    0 -0.33296886114E+02  0.97332944203E+02  0.61078891966E+03  0.61939122453E+03  0.00000000000E+00 0.  1.
        -11    1    3    3    0    0  0.36013147346E+02  0.10081611797E+02  0.21708434460E+03  0.22028208812E+03  0.00000000000E+00 0. -1.
         22    1    1    2    0    0 -0.27162612325E+01 -0.10741455600E+03 -0.33779281401E+03  0.35447037974E+03  0.00000000000E+00 0.  1.
<mgrwt>
<rscale>  0 0.10889446E+04</rscale>
<asrwt>0</asrwt>
<pdfrwt beam="1">  1        2 0.12955570E+00 0.10889446E+04</pdfrwt>
<pdfrwt beam="2">  1       -2 0.54158711E-01 0.10889446E+04</pdfrwt>
<totfact> 0.10253540E+02</totfact>
</mgrwt>
</event>
<event>
 6    1  0.1614874E-005  0.1578924E+04  0.7818608E-02  0.8833602E-01
         -2   -1    0    0    0  501 -0.00000000000E+00  0.00000000000E+00  0.91836556754E+03  0.91836556754E+03  0.00000000000E+00 0.  1.
          2   -1    0    0  501    0  0.00000000000E+00 -0.00000000000E+00 -0.67865119356E+03  0.67865119356E+03  0.00000000000E+00 0. -1.
         23    2    1    2    0    0 -0.11881985972E+03 -0.74547742725E+03  0.34370228990E+03  0.83500085557E+03  0.96127057177E+02 0.  0.
         11    1    3    3    0    0 -0.33540737454E+02 -0.45617412241E+03  0.23630613153E+03  0.51484016823E+03  0.00000000000E+00 0. -1.
        -11    1    3    3    0    0 -0.85279122269E+02 -0.28930330485E+03  0.10739615836E+03  0.32016068735E+03  0.00000000000E+00 0.  1.
         22    1    1    2    0    0  0.11881985972E+03  0.74547742725E+03 -0.10398791592E+03  0.76201590552E+03  0.00000000000E+00 0. -1.
<mgrwt>
<rscale>  0 0.15789235E+04</rscale>
<asrwt>0</asrwt>
<pdfrwt beam="1">  1        2 0.10440788E+00 0.15789235E+04</pdfrwt>
<pdfrwt beam="2">  1       -2 0.14128701E+00 0.15789235E+04</pdfrwt>
<totfact> 0.14344540E+01</totfact>
</mgrwt>
</event>
<event>
 6    1  0.1614874E-005  0.2021342E+04  0.7818608E-02  0.8596707E-01
         -2   -1    0    0    0  501 -0.00000000000E+00  0.00000000000E+00  0.55211706680E+03  0.55211706680E+03  0.00000000000E+00 0.  1.
          2   -1    0    0  501    0  0.00000000000E+00 -0.00000000000E+00 -0.18500708991E+04  0.18500708991E+04  0.00000000000E+00 0. -1.
         23    2    1    2    0    0  0.57124844512E+03 -0.80211661102E+03 -0.90966669509E+03  0.13436593906E+04  0.90615771863E+02 0.  0.
         11    1    3    3    0    0  0.26631182815E+03 -0.29741328677E+03 -0.36413235248E+03  0.54034158001E+03  0.00000000000E+00 0. -1.
        -11    1    3    3    0    0  0.30493661697E+03 -0.50470332425E+03 -0.54553434261E+03  0.80331781061E+03  0.00000000000E+00 0.  1.
         22    1    1    2    0    0 -0.57124844512E+03  0.80211661102E+03 -0.38828713719E+03  0.10585285753E+04  0.00000000000E+00 0.  1.
<mgrwt>
<rscale>  0 0.20213418E+04</rscale>
<asrwt>0</asrwt>
<pdfrwt beam="1">  1        2 0.28462629E+00 0.20213418E+04</pdfrwt>
<pdfrwt beam="2">  1       -2 0.84941087E-01 0.20213418E+04</pdfrwt>
<totfact> 0.90586029E+00</totfact>
</mgrwt>
</event>
<event>
 6    1  0.1614874E-005  0.2468506E+04  0.7818608E-02  0.8414292E-01
         -2   -1    0    0    0  501 -0.00000000000E+00  0.00000000000E+00  0.62005063637E+03  0.62005063637E+03  0.00000000000E+00 0. -1.
          2   -1    0    0  501    0  0.00000000000E+00 -0.00000000000E+00 -0.24568638956E+04  0.24568638956E+04  0.00000000000E+00 0.  1.
         23    2    1    2    0    0  0.63146103361E+03  0.27884785309E+02  0.39922908725E+03  0.75325234193E+03  0.92112042106E+02 0.  0.
         11    1    3    3    0    0  0.52952543640E+03  0.27065294718E+02  0.29201526879E+03  0.60531201473E+03  0.00000000000E+00 0. -1.
        -11    1    3    3    0    0  0.10193559721E+03  0.81949059139E+00  0.10721381846E+03  0.14794032720E+03  0.00000000000E+00 0.  1.
         22    1    1    2    0    0 -0.63146103361E+03 -0.27884785309E+02 -0.22360423465E+04  0.23236621901E+04  0.00000000000E+00 0.  1.
<mgrwt>
<rscale>  0 0.24685056E+04</rscale>
<asrwt>0</asrwt>
<pdfrwt beam="1">  1        2 0.37797906E+00 0.24685056E+04</pdfrwt>
<pdfrwt beam="2">  1       -2 0.95392406E-01 0.24685056E+04</pdfrwt>
<totfact> 0.30427631E+00</totfact>
</mgrwt>
</event>
<event>
 6    1  0.1614874E-005  0.3584012E+04  0.7818608E-02  0.8094164E-01
          2   -1    0    0  501    0  0.00000000000E+00  0.00000000000E+00  0.17928661838E+04  0.17928661838E+04  0.00000000000E+00 0. -1.
         -2   -1    0    0    0  501 -0.00000000000E+00 -0.00000000000E+00 -0.17911460559E+04  0.17911460559E+04  0.00000000000E+00 0.  1.
         23    2    1    2    0    0  0.14515877147E+04 -0.25489296529E+03  0.10183351344E+04  0.17935979333E+04  0.88936961129E+02 0.  0.
         11    1    3    3    0    0  0.63938640285E+03 -0.88852076044E+02  0.49167242884E+03  0.81145020848E+03  0.00000000000E+00 0.  1.
        -11    1    3    3    0    0  0.81220131188E+03 -0.16604088925E+03  0.52666270553E+03  0.98214772479E+03  0.00000000000E+00 0. -1.
         22    1    1    2    0    0 -0.14515877147E+04  0.25489296529E+03 -0.10166150065E+04  0.17904143065E+04  0.00000000000E+00 0.  1.
<mgrwt>
<rscale>  0 0.35840118E+04</rscale>
<asrwt>0</asrwt>
<pdfrwt beam="1">  1        2 0.27582557E+00 0.35840118E+04</pdfrwt>
<pdfrwt beam="2">  1       -2 0.27556093E+00 0.35840118E+04</pdfrwt>
<totfact> 0.31853297E-01</totfact>
</mgrwt>
</event>
<event>
 6    1  0.1614874E-005  0.2148104E+04  0.7818608E-02  0.8540344E-01
         -2   -1    0    0    0  501 -0.00000000000E+00  0.00000000000E+00  0.18392901833E+04  0.18392901833E+04  0.00000000000E+00 0.  1.
          2   -1    0    0  501    0  0.00000000000E+00 -0.00000000000E+00 -0.62719193740E+03  0.62719193740E+03  0.00000000000E+00 0. -1.
         23    2    1    2    0    0  0.23135884916E+03 -0.19920852475E+03  0.17871421900E+04  0.18154164626E+04  0.92998772546E+02 0.  0.
         13    1    3    3    0    0  0.12785233447E+03 -0.16703379973E+03  0.12224682985E+04  0.12404334930E+04  0.00000000000E+00 0. -1.
        -13    1    3    3    0    0  0.10350651470E+03 -0.32174725015E+02  0.56467389152E+03  0.57498296955E+03  0.00000000000E+00 0.  1.
         22    1    1    2    0    0 -0.23135884916E+03  0.19920852475E+03 -0.57504394418E+03  0.65106565810E+03  0.00000000000E+00 0. -1.
<mgrwt>
<rscale>  0 0.21481043E+04</rscale>
<asrwt>0</asrwt>
<pdfrwt beam="1">  1        2 0.96491069E-01 0.21481043E+04</pdfrwt>
<pdfrwt beam="2">  1       -2 0.28296772E+00 0.21481043E+04</pdfrwt>
<totfact> 0.17427554E+00</totfact>
</mgrwt>
</event>
<event>
 6    1  0.1614874E-005  0.6986910E+03  0.7818608E-02  0.9719473E-01
          1   -1    0    0  501    0  0.00000000000E+00  0.00000000000E+00  0.64252864185E+03  0.64252864185E+03  0.00000000000E+00 0. -1.
         -1   -1    0    0    0  501 -0.00000000000E+00 -0.00000000000E+00 -0.18994061500E+03  0.18994061500E+03  0.00000000000E+00 0.  1.
         23    2    1    2    0    0  0.16401016627E+03  0.93475241916E+02  0.57185444631E+03  0.60917251638E+03  0.91851464050E+02 0.  0.
         11    1    3    3    0    0  0.65785845912E+02  0.36880209743E+02  0.37051506425E+03  0.37811286705E+03  0.00000000000E+00 0. -1.
        -11    1    3    3    0    0  0.98224320359E+02  0.56595032173E+02  0.20133938206E+03  0.23105964932E+03  0.00000000000E+00 0.  1.
         22    1    1    2    0    0 -0.16401016627E+03 -0.93475241916E+02 -0.11926641946E+03  0.22329674047E+03  0.00000000000E+00 0.  1.
<mgrwt>
<rscale>  0 0.69869102E+03</rscale>
<asrwt>0</asrwt>
<pdfrwt beam="1">  1        1 0.98850559E-01 0.69869102E+03</pdfrwt>
<pdfrwt beam="2">  1       -1 0.29221633E-01 0.69869102E+03</pdfrwt>
<totfact> 0.33481444E+02</totfact>
</mgrwt>
</event>
<event>
 6    1  0.1614874E-005  0.2604655E+04  0.7818608E-02  0.8366622E-01
          1   -1    0    0  501    0  0.00000000000E+00  0.00000000000E+00  0.31406188508E+04  0.31406188508E+04  0.00000000000E+00 0. -1.
         -1   -1    0    0    0  501 -0.00000000000E+00 -0.00000000000E+00 -0.54003908830E+03  0.54003908830E+03  0.00000000000E+00 0.  1.
         23    2    1    2    0    0  0.72990348202E+03 -0.88285233841E+02  0.28181916235E+04  0.29139061555E+04  0.89953769118E+02 0.  0.
         13    1    3    3    0    0  0.31455092449E+03 -0.37881869629E+02  0.13925557617E+04  0.14281417541E+04  0.00000000000E+00 0.  1.
        -13    1    3    3    0    0  0.41535255753E+03 -0.50403364213E+02  0.14256358618E+04  0.14857644014E+04  0.00000000000E+00 0. -1.
         22    1    1    2    0    0 -0.72990348202E+03  0.88285233841E+02 -0.21761186104E+03  0.76675178359E+03  0.00000000000E+00 0.  1.
<mgrwt>
<rscale>  0 0.26046550E+04</rscale>
<asrwt>0</asrwt>
<pdfrwt beam="1">  1        1 0.48317212E+00 0.26046550E+04</pdfrwt>
<pdfrwt beam="2">  1       -1 0.83082939E-01 0.26046550E+04</pdfrwt>
<totfact> 0.59612875E-01</totfact>
</mgrwt>
</event>
<event>
 6    1  0.1614874E-005  0.3729911E+04  0.7818608E-02  0.8061365E-01
          2   -1    0    0  501    0  0.00000000000E+00  0.00000000000E+00  0.27078219129E+04  0.27078219129E+04  0.00000000000E+00 0. -1.
         -2   -1    0    0    0  501 -0.00000000000E+00 -0.00000000000E+00 -0.12844486632E+04  0.12844486632E+04  0.00000000000E+00 0.  1.
         23    2    1    2    0    0 -0.19843605715E+03 -0.94506567932E+03  0.24184339349E+04  0.26056661716E+04  0.90263466017E+02 0.  0.
         13    1    3    3    0    0 -0.99510142224E+02 -0.59265763573E+03  0.15989094914E+04  0.17081150146E+04  0.00000000000E+00 0. -1.
        -13    1    3    3    0    0 -0.98925914923E+02 -0.35240804359E+03  0.81952444356E+03  0.89755115700E+03  0.00000000000E+00 0.  1.
         22    1    1    2    0    0  0.19843605715E+03  0.94506567932E+03 -0.99506068526E+03  0.13866044044E+04  0.00000000000E+00 0.  1.
<mgrwt>
<rscale>  0 0.37299106E+04</rscale>
<asrwt>0</asrwt>
<pdfrwt beam="1">  1        2 0.41658798E+00 0.37299106E+04</pdfrwt>
<pdfrwt beam="2">  1       -2 0.19760749E+00 0.37299106E+04</pdfrwt>
<totfact> 0.29211919E-01</totfact>
</mgrwt>
</event>
<event>
 6    1  0.1614874E-005  0.2602749E+04  0.7818608E-02  0.8367268E-01
         -1   -1    0    0    0  501 -0.00000000000E+00  0.00000000000E+00  0.97771460322E+03  0.97771460322E+03  0.00000000000E+00 0.  1.
          1   -1    0    0  501    0  0.00000000000E+00 -0.00000000000E+00 -0.17321772921E+04  0.17321772921E+04  0.00000000000E+00 0. -1.
         23    2    1    2    0    0  0.47550385657E+03  0.11177763796E+03 -0.16316001255E+04  0.17059156801E+04  0.97114263793E+02 0.  0.
         13    1    3    3    0    0  0.21186643234E+03  0.85310663789E+02 -0.87262990015E+03  0.90202452136E+03  0.00000000000E+00 0. -1.
        -13    1    3    3    0    0  0.26363742424E+03  0.26466974173E+02 -0.75897022533E+03  0.80389115875E+03  0.00000000000E+00 0.  1.
         22    1    1    2    0    0 -0.47550385657E+03 -0.11177763796E+03  0.87713743661E+03  0.10039762152E+04  0.00000000000E+00 0.  1.
<mgrwt>
<rscale>  0 0.26027486E+04</rscale>
<asrwt>0</asrwt>
<pdfrwt beam="1">  1        1 0.26648881E+00 0.26027486E+04</pdfrwt>
<pdfrwt beam="2">  1       -1 0.15041763E+00 0.26027486E+04</pdfrwt>
<totfact> 0.13815865E+00</totfact>
</mgrwt>
</event>
<event>
 6    1  0.1614874E-005  0.7027231E+04  0.7818608E-02  0.7574634E-01
         -1   -1    0    0    0  501 -0.00000000000E+00  0.00000000000E+00  0.26488793726E+04  0.26488793726E+04  0.00000000000E+00 0.  1.
          1   -1    0    0  501    0  0.00000000000E+00 -0.00000000000E+00 -0.46606479538E+04  0.46606479538E+04  0.00000000000E+00 0. -1.
         23    2    1    2    0    0  0.33428109707E+04  0.55656301397E+03 -0.19691043020E+04  0.39204318992E+04  0.90922769844E+02 0.  0.
         13    1    3    3    0    0  0.12592928088E+04  0.16744446787E+03 -0.72149207598E+03  0.14609609317E+04  0.00000000000E+00 0. -1.
        -13    1    3    3    0    0  0.20835181619E+04  0.38911854610E+03 -0.12476122260E+04  0.24594709675E+04  0.00000000000E+00 0.  1.
         22    1    1    2    0    0 -0.33428109707E+04 -0.55656301397E+03 -0.42664279222E+02  0.33890954272E+04  0.00000000000E+00 0.  1.
<mgrwt>
<rscale>  0 0.70272311E+04</rscale>
<asrwt>0</asrwt>
<pdfrwt beam="1">  1        1 0.71702276E+00 0.70272311E+04</pdfrwt>
<pdfrwt beam="2">  1       -1 0.40751990E+00 0.70272311E+04</pdfrwt>
<totfact> 0.84620232E-05</totfact>
</mgrwt>
</event>
<event>
 6    1  0.1614874E-005  0.2108392E+04  0.7818608E-02  0.8557556E-01
          2   -1    0    0  501    0  0.00000000000E+00  0.00000000000E+00  0.31886024743E+04  0.31886024743E+04  0.00000000000E+00 0.  1.
         -2   -1    0    0    0  501 -0.00000000000E+00 -0.00000000000E+00 -0.34853162370E+03  0.34853162370E+03  0.00000000000E+00 0. -1.
         23    2    1    2    0    0  0.29626365114E+03 -0.42845275897E+03  0.29564237554E+04  0.30033907925E+04  0.92579227304E+02 0.  0.
         11    1    3    3    0    0  0.15491580603E+03 -0.26544836585E+03  0.15096758180E+04  0.15406436373E+04  0.00000000000E+00 0. -1.
        -11    1    3    3    0    0  0.14134784511E+03 -0.16300439312E+03  0.14467479374E+04  0.14627471552E+04  0.00000000000E+00 0.  1.
         22    1    1    2    0    0 -0.29626365114E+03  0.42845275897E+03 -0.11635290484E+03  0.53374330546E+03  0.00000000000E+00 0. -1.
<mgrwt>
<rscale>  0 0.21083916E+04</rscale>
<asrwt>0</asrwt>
<pdfrwt beam="1">  1        2 0.49055421E+00 0.21083916E+04</pdfrwt>
<pdfrwt beam="2">  1       -2 0.53620252E-01 0.21083916E+04</pdfrwt>
<totfact> 0.39918659E+00</totfact>
</mgrwt>
</event>
<event>
 6    1  0.1614874E-005  0.4111611E+04  0.7818608E-02  0.7982402E-01
         -1   -1    0    0    0  501 -0.00000000000E+00  0.00000000000E+00  0.18322591811E+04  0.18322591811E+04  0.00000000000E+00 0.  1.
          1   -1    0    0  501    0  0.00000000000E+00 -0.00000000000E+00 -0.23066255085E+04  0.23066255085E+04  0.00000000000E+00 0. -1.
         23    2    1    2    0    0 -0.18759398730E+04  0.60448462898E+03 -0.82220264107E+03  0.21374996255E+04  0.91298369140E+02 0.  0.
         11    1    3    3    0    0 -0.75922723808E+03  0.23341883801E+03 -0.37860948651E+03  0.87991789177E+03  0.00000000000E+00 0.  1.
        -11    1    3    3    0    0 -0.11167126349E+04  0.37106579097E+03 -0.44359315456E+03  0.12575817337E+04  0.00000000000E+00 0. -1.
         22    1    1    2    0    0  0.18759398730E+04 -0.60448462898E+03  0.34783631365E+03  0.20013850641E+04  0.00000000000E+00 0. -1.
<mgrwt>
<rscale>  0 0.41116108E+04</rscale>
<asrwt>0</asrwt>
<pdfrwt beam="1">  1        1 0.35486546E+00 0.41116108E+04</pdfrwt>
<pdfrwt beam="2">  1       -1 0.28188603E+00 0.41116108E+04</pdfrwt>
<totfact> 0.61815121E-02</totfact>
</mgrwt>
</event>
<event>
 6    1  0.1614874E-005  0.1949388E+04  0.7818608E-02  0.8630656E-01
         -2   -1    0    0    0  501 -0.00000000000E+00  0.00000000000E+00  0.94409064164E+03  0.94409064164E+03  0.00000000000E+00 0.  1.
          2   -1    0    0  501    0  0.00000000000E+00 -0.00000000000E+00 -0.10062890482E+04  0.10062890482E+04  0.00000000000E+00 0. -1.
         23    2    1    2    0    0  0.40609833823E+03  0.88264101916E+03  0.12237688223E+02  0.97595074879E+03  0.91427971868E+02 0.  0.
         11    1    3    3    0    0  0.22482312161E+03  0.38189657154E+03  0.14574349619E+02  0.44339918700E+03  0.00000000000E+00 0.  1.
        -11    1    3    3    0    0  0.18127521662E+03  0.50074444762E+03 -0.23366613964E+01  0.53255156179E+03  0.00000000000E+00 0. -1.
         22    1    1    2    0    0 -0.40609833823E+03 -0.88264101916E+03 -0.74436094826E+02  0.97442894109E+03  0.00000000000E+00 0.  1.
<mgrwt>
<rscale>  0 0.19493877E+04</rscale>
<asrwt>0</asrwt>
<pdfrwt beam="1">  1        2 0.15481370E+00 0.19493877E+04</pdfrwt>
<pdfrwt beam="2">  1       -2 0.14524471E+00 0.19493877E+04</pdfrwt>
<totfact> 0.75938982E+00</totfact>
</mgrwt>
</event>
<event>
 6    1  0.1614874E-005  0.2254519E+04  0.7818608E-02  0.8496073E-01
          2   -1    0    0  501    0  0.00000000000E+00  0.00000000000E+00  0.32718423468E+04  0.32718423468E+04  0.00000000000E+00 0. -1.
         -2   -1    0    0    0  501 -0.00000000000E+00 -0.00000000000E+00 -0.38837867260E+03  0.38837867260E+03  0.00000000000E+00 0.  1.
         23    2    1    2    0    0 -0.46138957966E+03  0.81789182528E+03  0.43703816241E+03  0.10397582422E+04  0.90925599711E+02 0.  0.
         11    1    3    3    0    0 -0.79386712301E+02  0.21248407157E+03  0.87430863138E+02  0.24309645532E+03  0.00000000000E+00 0. -1.
        -11    1    3    3    0    0 -0.38200286736E+03  0.60540775371E+03  0.34960729927E+03  0.79666178685E+03  0.00000000000E+00 0.  1.
         22    1    1    2    0    0  0.46138957966E+03 -0.81789182528E+03  0.24464255118E+04  0.26204627772E+04  0.00000000000E+00 0. -1.
<mgrwt>
<rscale>  0 0.22545188E+04</rscale>
<asrwt>0</asrwt>
<pdfrwt beam="1">  1        2 0.50336034E+00 0.22545188E+04</pdfrwt>
<pdfrwt beam="2">  1       -2 0.59750567E-01 0.22545188E+04</pdfrwt>
<totfact> 0.27705790E+00</totfact>
</mgrwt>
</event>
<event>
 6    1  0.1614874E-005  0.9478778E+03  0.7818608E-02  0.9367635E-01
         -2   -1    0    0    0  501 -0.00000000000E+00  0.00000000000E+00  0.18325551786E+03  0.18325551786E+03  0.00000000000E+00 0.  1.
          2   -1    0    0  501    0  0.00000000000E+00 -0.00000000000E+00 -0.12257097982E+04  0.12257097982E+04  0.00000000000E+00 0. -1.
         23    2    1    2    0    0 -0.45565075460E+03 -0.81610371567E+02 -0.41178634241E+03  0.62664830177E+03  0.94033182456E+02 0.  0.
         13    1    3    3    0    0 -0.27437503684E+03 -0.47362709186E+02 -0.30711015287E+03  0.41453773418E+03  0.00000000000E+00 0. -1.
        -13    1    3    3    0    0 -0.18127571775E+03 -0.34247662381E+02 -0.10467618954E+03  0.21211056759E+03  0.00000000000E+00 0.  1.
         22    1    1    2    0    0  0.45565075460E+03  0.81610371567E+02 -0.63066793792E+03  0.78231701428E+03  0.00000000000E+00 0. -1.
<mgrwt>
<rscale>  0 0.94787781E+03</rscale>
<asrwt>0</asrwt>
<pdfrwt beam="1">  1        2 0.18857074E+00 0.94787781E+03</pdfrwt>
<pdfrwt beam="2">  1       -2 0.28193156E-01 0.94787781E+03</pdfrwt>
<totfact> 0.21028165E+02</totfact>
</mgrwt>
</event>
<event>
 6    1  0.1614874E-005  0.3262656E+03  0.7818608E-02  0.1072801E+00
         -2   -1    0    0    0  501 -0.00000000000E+00  0.00000000000E+00  0.36988599700E+02  0.36988599700E+02  0.00000000000E+00 0.  1.
          2   -1    0    0  501    0  0.00000000000E+00 -0.00000000000E+00 -0.71947313434E+03  0.71947313434E+03  0.00000000000E+00 0. -1.
         23    2    1    2    0    0 -0.65145366222E+02 -0.13563728181E+03 -0.35047632266E+03  0.39194720240E+03  0.90263867442E+02 0.  0.
         11    1    3    3    0    0  0.14066600938E+02 -0.20633893544E+02 -0.16443988078E+02  0.29900360677E+02  0.00000000000E+00 0. -1.
        -11    1    3    3    0    0 -0.79211967160E+02 -0.11500338826E+03 -0.33403233458E+03  0.36204684172E+03  0.00000000000E+00 0.  1.
         22    1    1    2    0    0  0.65145366222E+02  0.13563728181E+03 -0.33200821198E+03  0.36451453164E+03  0.00000000000E+00 0. -1.
<mgrwt>
<rscale>  0 0.32626556E+03</rscale>
<asrwt>0</asrwt>
<pdfrwt beam="1">  1        2 0.11068817E+00 0.32626556E+03</pdfrwt>
<pdfrwt beam="2">  1       -2 0.56905541E-02 0.32626556E+03</pdfrwt>
<totfact> 0.65285067E+03</totfact>
</mgrwt>
</event>
<event>
 6    1  0.1614874E-005  0.2122581E+04  0.7818608E-02  0.8551361E-01
         -1   -1    0    0    0  501 -0.00000000000E+00  0.00000000000E+00  0.51284923045E+03  0.51284923045E+03  0.00000000000E+00 0.  1.
          1   -1    0    0  501    0  0.00000000000E+00 -0.00000000000E+00 -0.21962347956E+04  0.21962347956E+04  0.00000000000E+00 0. -1.
         23    2    1    2    0    0  0.66094940640E+03 -0.73190642793E+03 -0.13370109823E+04  0.16638488904E+04  0.90849471130E+02 0.  0.
         13    1    3    3    0    0  0.31033069183E+03 -0.39206362975E+03 -0.62301037178E+03  0.79884976774E+03  0.00000000000E+00 0. -1.
        -13    1    3    3    0    0  0.35061871457E+03 -0.33984279818E+03 -0.71400061049E+03  0.86499912269E+03  0.00000000000E+00 0.  1.
         22    1    1    2    0    0 -0.66094940640E+03  0.73190642793E+03 -0.34637458289E+03  0.10452351356E+04  0.00000000000E+00 0.  1.
<mgrwt>
<rscale>  0 0.21225808E+04</rscale>
<asrwt>0</asrwt>
<pdfrwt beam="1">  1        1 0.33788227E+00 0.21225808E+04</pdfrwt>
<pdfrwt beam="2">  1       -1 0.78899883E-01 0.21225808E+04</pdfrwt>
<totfact> 0.32313441E+00</totfact>
</mgrwt>
</event>
<event>
 6    1  0.1614874E-005  0.6537276E+04  0.7818608E-02  0.7627135E-01
          2   -1    0    0  501    0  0.00000000000E+00  0.00000000000E+00  0.26883726448E+04  0.26883726448E+04  0.00000000000E+00 0. -1.
         -2   -1    0    0    0  501 -0.00000000000E+00 -0.00000000000E+00 -0.39741494201E+04  0.39741494201E+04  0.00000000000E+00 0.  1.
         23    2    1    2    0    0  0.17144494517E+04  0.24391044367E+04  0.72105876001E+03  0.30686444597E+04  0.89920569949E+02 0.  0.
         11    1    3    3    0    0  0.45606002636E+03  0.63961158255E+03  0.23053264460E+03  0.81868127156E+03  0.00000000000E+00 0.  1.
        -11    1    3    3    0    0  0.12583894254E+04  0.17994928541E+04  0.49052611541E+03  0.22499631881E+04  0.00000000000E+00 0. -1.
         22    1    1    2    0    0 -0.17144494517E+04 -0.24391044367E+04 -0.20068355353E+04  0.35938776052E+04  0.00000000000E+00 0.  1.
<mgrwt>
<rscale>  0 0.65372761E+04</rscale>
<asrwt>0</asrwt>
<pdfrwt beam="1">  1        2 0.41359579E+00 0.65372761E+04</pdfrwt>
<pdfrwt beam="2">  1       -2 0.61140760E+00 0.65372761E+04</pdfrwt>
<totfact> 0.82096154E-04</totfact>
</mgrwt>
</event>
<event>
 6    1  0.1614874E-005  0.1953102E+04  0.7818608E-02  0.8628867E-01
         -1   -1    0    0    0  501 -0.00000000000E+00  0.00000000000E+00  0.83019073337E+03  0.83019073337E+03  0.00000000000E+00 0.  1.
          1   -1    0    0  501    0  0.00000000000E+00 -0.00000000000E+00 -0.11487139160E+04  0.11487139160E+04  0.00000000000E+00 0. -1.
         23    2    1    2    0    0  0.20284936477E+03  0.50381114212E+03 -0.97933089550E+03  0.11235448624E+04  0.91052309956E+02 0.  0.
         13    1    3    3    0    0  0.42731064307E+02  0.19022848538E+03 -0.41258075102E+03  0.45632849639E+03  0.00000000000E+00 0.  1.
        -13    1    3    3    0    0  0.16011830046E+03  0.31358265674E+03 -0.56675014448E+03  0.66721636597E+03  0.00000000000E+00 0. -1.
         22    1    1    2    0    0 -0.20284936477E+03 -0.50381114212E+03  0.66080771291E+03  0.85535978697E+03  0.00000000000E+00 0.  1.
<mgrwt>
<rscale>  0 0.19531018E+04</rscale>
<asrwt>0</asrwt>
<pdfrwt beam="1">  1        1 0.17672522E+00 0.19531018E+04</pdfrwt>
<pdfrwt beam="2">  1       -1 0.12772165E+00 0.19531018E+04</pdfrwt>
<totfact> 0.57582344E+00</totfact>
</mgrwt>
</event>
<event>
 6    1  0.1614874E-005  0.3947565E+04  0.7818608E-02  0.8015209E-01
          2   -1    0    0  501    0  0.00000000000E+00  0.00000000000E+00  0.48321135631E+04  0.48321135631E+04  0.00000000000E+00 0. -1.
         -2   -1    0    0    0  501 -0.00000000000E+00 -0.00000000000E+00 -0.80623453383E+03  0.80623453383E+03  0.00000000000E+00 0.  1.
         23    2    1    2    0    0 -0.16040517736E+04 -0.75321759811E+03  0.77604046493E+03  0.19367579607E+04  0.92052987981E+02 0.  0.
         11    1    3    3    0    0 -0.47209359753E+03 -0.18275680247E+03  0.19753427383E+03  0.54340795267E+03  0.00000000000E+00 0.  1.
        -11    1    3    3    0    0 -0.11319581761E+04 -0.57046079563E+03  0.57850619110E+03  0.13933500080E+04  0.00000000000E+00 0. -1.
         22    1    1    2    0    0  0.16040517736E+04  0.75321759811E+03  0.32498385643E+04  0.37015901363E+04  0.00000000000E+00 0. -1.
<mgrwt>
<rscale>  0 0.39475647E+04</rscale>
<asrwt>0</asrwt>
<pdfrwt beam="1">  1        2 0.74340207E+00 0.39475647E+04</pdfrwt>
<pdfrwt beam="2">  1       -2 0.12403608E+00 0.39475647E+04</pdfrwt>
<totfact> 0.20981630E-02</totfact>
</mgrwt>
</event>
<event>
 6    1  0.1614874E-005  0.2856053E+04  0.7818608E-02  0.8286074E-01
          2   -1    0    0  501    0  0.00000000000E+00  0.00000000000E+00  0.20279641705E+04  0.20279641705E+04  0.00000000000E+00 0. -1.
         -2   -1    0    0    0  501 -0.00000000000E+00 -0.00000000000E+00 -0.10055697220E+04  0.10055697220E+04  0.00000000000E+00 0.  1.
         23    2    1    2    0    0  0.68549297719E+03 -0.46140817880E+03  0.17468644955E+04  0.19346003284E+04  0.91349525908E+02 0.  0.
         13    1    3    3    0    0  0.52384033139E+02 -0.12897238496E+02  0.14536003163E+03  0.15504826501E+03  0.00000000000E+00 0. -1.
        -13    1    3    3    0    0  0.63310894405E+03 -0.44851094030E+03  0.16015044639E+04  0.17795520634E+04  0.00000000000E+00 0.  1.
         22    1    1    2    0    0 -0.68549297719E+03  0.46140817880E+03 -0.72447004703E+03  0.10989335641E+04  0.00000000000E+00 0.  1.
<mgrwt>
<rscale>  0 0.28560528E+04</rscale>
<asrwt>0</asrwt>
<pdfrwt beam="1">  1        2 0.31199449E+00 0.28560528E+04</pdfrwt>
<pdfrwt beam="2">  1       -2 0.15470303E+00 0.28560528E+04</pdfrwt>
<totfact> 0.15407387E+00</totfact>
</mgrwt>
</event>
<event>
 6    1  0.1614874E-005  0.2089634E+04  0.7818608E-02  0.8565823E-01
          1   -1    0    0  501    0  0.00000000000E+00  0.00000000000E+00  0.15251107825E+04  0.15251107825E+04  0.00000000000E+00 0. -1.
         -1   -1    0    0    0  501 -0.00000000000E+00 -0.00000000000E+00 -0.71577935751E+03  0.71577935751E+03  0.00000000000E+00 0.  1.
         23    2    1    2    0    0 -0.18248180745E+03 -0.58613616110E+03  0.13094870640E+04  0.14490499588E+04  0.90189816078E+02 0.  0.
         13    1    3    3    0    0 -0.24585508829E+02 -0.20222398446E+03  0.48187223709E+03  0.52316330148E+03  0.00000000000E+00 0. -1.
        -13    1    3    3    0    0 -0.15789629863E+03 -0.38391217663E+03  0.82761482688E+03  0.92588665730E+03  0.00000000000E+00 0.  1.
         22    1    1    2    0    0  0.18248180745E+03  0.58613616110E+03 -0.50015563899E+03  0.79184018123E+03  0.00000000000E+00 0.  1.
<mgrwt>
<rscale>  0 0.20896342E+04</rscale>
<asrwt>0</asrwt>
<pdfrwt beam="1">  1        1 0.23463243E+00 0.20896342E+04</pdfrwt>
<pdfrwt beam="2">  1       -1 0.11011990E+00 0.20896342E+04</pdfrwt>
<totfact> 0.44035671E+00</totfact>
</mgrwt>
</event>
<event>
 6    1  0.1614874E-005  0.9591244E+03  0.7818608E-02  0.9354549E-01
         -1   -1    0    0    0  501 -0.00000000000E+00  0.00000000000E+00  0.97083465605E+02  0.97083465605E+02  0.00000000000E+00 0.  1.
          1   -1    0    0  501    0  0.00000000000E+00 -0.00000000000E+00 -0.23688885379E+04  0.23688885379E+04  0.00000000000E+00 0. -1.
         23    2    1    2    0    0 -0.41773654181E+03 -0.18862385801E+03 -0.14705655405E+04  0.15428969440E+04  0.88798607562E+02 0.  0.
         13    1    3    3    0    0 -0.40316844778E+03 -0.16458513423E+03 -0.13276308146E+04  0.13972246217E+04  0.00000000000E+00 0. -1.
        -13    1    3    3    0    0 -0.14568094027E+02 -0.24038723779E+02 -0.14293472597E+03  0.14567232233E+03  0.00000000000E+00 0.  1.
         22    1    1    2    0    0  0.41773654181E+03  0.18862385801E+03 -0.80123953175E+03  0.92307505947E+03  0.00000000000E+00 0.  1.
<mgrwt>
<rscale>  0 0.95912441E+03</rscale>
<asrwt>0</asrwt>
<pdfrwt beam="1">  1        1 0.36444436E+00 0.95912441E+03</pdfrwt>
<pdfrwt beam="2">  1       -1 0.14935919E-01 0.95912441E+03</pdfrwt>
<totfact> 0.56251462E+01</totfact>
</mgrwt>
</event>
<event>
 6    1  0.1614874E-005  0.3311705E+04  0.7818608E-02  0.8159923E-01
         -1   -1    0    0    0  501 -0.00000000000E+00  0.00000000000E+00  0.98296771499E+03  0.98296771499E+03  0.00000000000E+00 0.  1.
          1   -1    0    0  501    0  0.00000000000E+00 -0.00000000000E+00 -0.27893565896E+04  0.27893565896E+04  0.00000000000E+00 0. -1.
         23    2    1    2    0    0 -0.58953602008E+03  0.14961629267E+04 -0.13475716703E+04  0.21000296388E+04  0.90104689094E+02 0.  0.
         11    1    3    3    0    0 -0.11062802872E+03  0.35310124724E+03 -0.34574611185E+03  0.50641823170E+03  0.00000000000E+00 0. -1.
        -11    1    3    3    0    0 -0.47890799136E+03  0.11430616795E+04 -0.10018255585E+04  0.15936114071E+04  0.00000000000E+00 0.  1.
         22    1    1    2    0    0  0.58953602008E+03 -0.14961629267E+04 -0.45881720430E+03  0.16722946658E+04  0.00000000000E+00 0.  1.
<mgrwt>
<rscale>  0 0.33117050E+04</rscale>
<asrwt>0</asrwt>
<pdfrwt beam="1">  1        1 0.42913178E+00 0.33117050E+04</pdfrwt>
<pdfrwt beam="2">  1       -1 0.15122580E+00 0.33117050E+04</pdfrwt>
<totfact> 0.23976360E-01</totfact>
</mgrwt>
</event>
<event>
 6    1  0.1614874E-005  0.5168299E+04  0.7818608E-02  0.7803057E-01
          1   -1    0    0  501    0  0.00000000000E+00  0.00000000000E+00  0.39934891392E+04  0.39934891392E+04  0.00000000000E+00 0. -1.
         -1   -1    0    0    0  501 -0.00000000000E+00 -0.00000000000E+00 -0.16721788163E+04  0.16721788163E+04  0.00000000000E+00 0.  1.
         23    2    1    2    0    0  0.20453423368E+04  0.99783653612E+03 -0.17975005074E+03  0.22841880990E+04  0.78116346325E+02 0.  0.
         11    1    3    3    0    0  0.74820079450E+03  0.35726426316E+03 -0.10257214342E+03  0.83544193528E+03  0.00000000000E+00 0.  1.
        -11    1    3    3    0    0  0.12971415423E+04  0.64057227296E+03 -0.77177907319E+02  0.14487461638E+04  0.00000000000E+00 0. -1.
         22    1    1    2    0    0 -0.20453423368E+04 -0.99783653612E+03  0.25010603736E+04  0.33814798565E+04  0.00000000000E+00 0. -1.
<mgrwt>
<rscale>  0 0.51682987E+04</rscale>
<asrwt>0</asrwt>
<pdfrwt beam="1">  1        1 0.61438294E+00 0.51682987E+04</pdfrwt>
<pdfrwt beam="2">  1       -1 0.25725828E+00 0.51682987E+04</pdfrwt>
<totfact> 0.43155821E-03</totfact>
</mgrwt>
</event>
<event>
 6    1  0.1614874E-005  0.1829845E+04  0.7818608E-02  0.8690587E-01
          2   -1    0    0  501    0  0.00000000000E+00  0.00000000000E+00  0.14728056555E+04  0.14728056555E+04  0.00000000000E+00 0. -1.
         -2   -1    0    0    0  501 -0.00000000000E+00 -0.00000000000E+00 -0.56835962739E+03  0.56835962739E+03  0.00000000000E+00 0.  1.
         23    2    1    2    0    0  0.37915234864E+03 -0.27798406651E+03 -0.41908909991E+03  0.63660952400E+03  0.92759730888E+02 0.  0.
         11    1    3    3    0    0  0.33345211719E+03 -0.27039548719E+03 -0.39907843453E+03  0.58614642442E+03  0.00000000000E+00 0.  1.
        -11    1    3    3    0    0  0.45700231447E+02 -0.75885793165E+01 -0.20010665380E+02  0.50463099581E+02  0.00000000000E+00 0. -1.
         22    1    1    2    0    0 -0.37915234864E+03  0.27798406651E+03  0.13235351280E+04  0.14045557588E+04  0.00000000000E+00 0. -1.
<mgrwt>
<rscale>  0 0.18298451E+04</rscale>
<asrwt>0</asrwt>
<pdfrwt beam="1">  1        2 0.22658548E+00 0.18298451E+04</pdfrwt>
<pdfrwt beam="2">  1       -2 0.87439943E-01 0.18298451E+04</pdfrwt>
<totfact> 0.13990169E+01</totfact>
</mgrwt>
</event>
<event>
 6    1  0.1614874E-005  0.6081855E+04  0.7818608E-02  0.7680335E-01
          2   -1    0    0  501    0  0.00000000000E+00  0.00000000000E+00  0.16983357722E+04  0.16983357722E+04  0.00000000000E+00 0. -1.
         -2   -1    0    0    0  501 -0.00000000000E+00 -0.00000000000E+00 -0.54448835767E+04  0.54448835767E+04  0.00000000000E+00 0.  1.
         23    2    1    2    0    0  0.14565847046E+04 -0.24811200542E+04 -0.30277114368E+04  0.41776972281E+04  0.92313920523E+02 0.  0.
         11    1    3    3    0    0  0.79216163097E+03 -0.12705809004E+04 -0.16086822885E+04  0.21976702618E+04  0.00000000000E+00 0. -1.
        -11    1    3    3    0    0  0.66442307367E+03 -0.12105391538E+04 -0.14190291483E+04  0.19800269663E+04  0.00000000000E+00 0.  1.
         22    1    1    2    0    0 -0.14565847046E+04  0.24811200542E+04 -0.71883636773E+03  0.29655221208E+04  0.00000000000E+00 0. -1.
<mgrwt>
<rscale>  0 0.60818552E+04</rscale>
<asrwt>0</asrwt>
<pdfrwt beam="1">  1        2 0.26128243E+00 0.60818552E+04</pdfrwt>
<pdfrwt beam="2">  1       -2 0.83767439E+00 0.60818552E+04</pdfrwt>
<totfact> 0.27463947E-04</totfact>
</mgrwt>
</event>
<event>
 6    1  0.1614874E-005  0.3664764E+04  0.7818608E-02  0.8075816E-01
          2   -1    0    0  501    0  0.00000000000E+00  0.00000000000E+00  0.22466458442E+04  0.22466458442E+04  0.00000000000E+00 0. -1.
         -2   -1    0    0    0  501 -0.00000000000E+00 -0.00000000000E+00 -0.14945047813E+04  0.14945047813E+04  0.00000000000E+00 0.  1.
         23    2    1    2    0    0 -0.14154223738E+04  0.84328295616E+03 -0.43970574604E+03  0.17076695078E+04  0.90815000226E+02 0.  0.
         13    1    3    3    0    0 -0.59769585482E+03  0.40694129164E+03 -0.18125726869E+03  0.74545002996E+03  0.00000000000E+00 0. -1.
        -13    1    3    3    0    0 -0.81772651896E+03  0.43634166452E+03 -0.25844847735E+03  0.96221947780E+03  0.00000000000E+00 0.  1.
         22    1    1    2    0    0  0.14154223738E+04 -0.84328295616E+03  0.11918468089E+04  0.20334811177E+04  0.00000000000E+00 0. -1.
<mgrwt>
<rscale>  0 0.36647635E+04</rscale>
<asrwt>0</asrwt>
<pdfrwt beam="1">  1        2 0.34563782E+00 0.36647635E+04</pdfrwt>
<pdfrwt beam="2">  1       -2 0.22992381E+00 0.36647635E+04</pdfrwt>
<totfact> 0.33728414E-01</totfact>
</mgrwt>
</event>
<event>
 6    1  0.1614874E-005  0.4293567E+04  0.7818608E-02  0.7947809E-01
         -2   -1    0    0    0  501 -0.00000000000E+00  0.00000000000E+00  0.21751689023E+04  0.21751689023E+04  0.00000000000E+00 0.  1.
          2   -1    0    0  501    0  0.00000000000E+00 -0.00000000000E+00 -0.21187686749E+04  0.21187686749E+04  0.00000000000E+00 0. -1.
         23    2    1    2    0    0 -0.21207914477E+04 -0.25661439178E+03  0.23029711313E+03  0.21506113216E+04  0.92113981973E+02 0.  0.
         13    1    3    3    0    0 -0.31855364597E+03 -0.11782574804E+02  0.15044472825E+02  0.31912629254E+03  0.00000000000E+00 0.  1.
        -13    1    3    3    0    0 -0.18022378018E+04 -0.24483181698E+03  0.21525264031E+03  0.18314850291E+04  0.00000000000E+00 0. -1.
         22    1    1    2    0    0  0.21207914477E+04  0.25661439178E+03 -0.17389688579E+03  0.21433262555E+04  0.00000000000E+00 0. -1.
<mgrwt>
<rscale>  0 0.42935672E+04</rscale>
<asrwt>0</asrwt>
<pdfrwt beam="1">  1        2 0.32596441E+00 0.42935672E+04</pdfrwt>
<pdfrwt beam="2">  1       -2 0.33464137E+00 0.42935672E+04</pdfrwt>
<totfact> 0.85817641E-02</totfact>
</mgrwt>
</event>
<event>
 6    1  0.1614874E-005  0.2849628E+04  0.7818608E-02  0.8288024E-01
         -2   -1    0    0    0  501 -0.00000000000E+00  0.00000000000E+00  0.76940208966E+03  0.76940208966E+03  0.00000000000E+00 0.  1.
          2   -1    0    0  501    0  0.00000000000E+00 -0.00000000000E+00 -0.26385353740E+04  0.26385353740E+04  0.00000000000E+00 0. -1.
         23    2    1    2    0    0 -0.33707301499E+03  0.41442445942E+03 -0.25132919434E+04  0.25710944509E+04  0.92327856404E+02 0.  0.
         13    1    3    3    0    0 -0.16459639320E+03  0.26833000111E+03 -0.15493728325E+04  0.15810278733E+04  0.00000000000E+00 0. -1.
        -13    1    3    3    0    0 -0.17247662179E+03  0.14609445831E+03 -0.96391911085E+03  0.99006657759E+03  0.00000000000E+00 0.  1.
         22    1    1    2    0    0  0.33707301499E+03 -0.41442445942E+03  0.64415865901E+03  0.83684301274E+03  0.00000000000E+00 0.  1.
<mgrwt>
<rscale>  0 0.28496278E+04</rscale>
<asrwt>0</asrwt>
<pdfrwt beam="1">  1        2 0.40592852E+00 0.28496278E+04</pdfrwt>
<pdfrwt beam="2">  1       -2 0.11836955E+00 0.28496278E+04</pdfrwt>
<totfact> 0.13746165E+00</totfact>
</mgrwt>
</event>
<event>
 6    1  0.1614874E-005  0.2617685E+04  0.7818608E-02  0.8362219E-01
          1   -1    0    0  501    0  0.00000000000E+00  0.00000000000E+00  0.14983063234E+04  0.14983063234E+04  0.00000000000E+00 0. -1.
         -1   -1    0    0    0  501 -0.00000000000E+00 -0.00000000000E+00 -0.11433365604E+04  0.11433365604E+04  0.00000000000E+00 0.  1.
         23    2    1    2    0    0 -0.56389708730E+03  0.10789287911E+04  0.65825794248E+03  0.13870309992E+04  0.92109784639E+02 0.  0.
         11    1    3    3    0    0 -0.27259515914E+03  0.46917577378E+03  0.24920787774E+03  0.59710852767E+03  0.00000000000E+00 0. -1.
        -11    1    3    3    0    0 -0.29130192816E+03  0.60975301734E+03  0.40905006474E+03  0.78992247149E+03  0.00000000000E+00 0.  1.
         22    1    1    2    0    0  0.56389708730E+03 -0.10789287911E+04 -0.30328817941E+03  0.12546118847E+04  0.00000000000E+00 0.  1.
<mgrwt>
<rscale>  0 0.26176848E+04</rscale>
<asrwt>0</asrwt>
<pdfrwt beam="1">  1        1 0.23050866E+00 0.26176848E+04</pdfrwt>
<pdfrwt beam="2">  1       -1 0.17589793E+00 0.26176848E+04</pdfrwt>
<totfact> 0.12853162E+00</totfact>
</mgrwt>
</event>
<event>
 6    1  0.1947890E-005  0.2957397E+04  0.7818608E-02  0.8256002E-01
          1   -1    0    0  501    0  0.00000000000E+00  0.00000000000E+00  0.19820073301E+04  0.19820073301E+04  0.00000000000E+00 0. -1.
         -1   -1    0    0    0  501 -0.00000000000E+00 -0.00000000000E+00 -0.11031992556E+04  0.11031992556E+04  0.00000000000E+00 0.  1.
         23    2    1    2    0    0  0.13900886046E+04  0.65052814376E+02  0.95691150583E+03  0.16914066204E+04  0.92728248252E+02 0.  0.
         13    1    3    3    0    0  0.75267906507E+03  0.80850090193E+02  0.52853731717E+03  0.92326280534E+03  0.00000000000E+00 0. -1.
        -13    1    3    3    0    0  0.63740953955E+03 -0.15797275817E+02  0.42837418866E+03  0.76814381501E+03  0.00000000000E+00 0.  1.
         22    1    1    2    0    0 -0.13900886046E+04 -0.65052814376E+02 -0.78103431357E+02  0.13937999653E+04  0.00000000000E+00 0.  1.
<mgrwt>
<rscale>  0 0.29573968E+04</rscale>
<asrwt>0</asrwt>
<pdfrwt beam="1">  1        1 0.30492420E+00 0.29573968E+04</pdfrwt>
<pdfrwt beam="2">  1       -1 0.16972296E+00 0.29573968E+04</pdfrwt>
<totfact> 0.64720905E-01</totfact>
</mgrwt>
</event>
<event>
 6    1  0.1614874E-005  0.5230083E+04  0.7818608E-02  0.7793963E-01
         -2   -1    0    0    0  501 -0.00000000000E+00  0.00000000000E+00  0.28392891639E+04  0.28392891639E+04  0.00000000000E+00 0.  1.
          2   -1    0    0  501    0  0.00000000000E+00 -0.00000000000E+00 -0.24085049418E+04  0.24085049418E+04  0.00000000000E+00 0. -1.
         23    2    1    2    0    0  0.14740744840E+04  0.14804444140E+03 -0.19457802297E+04  0.24472814143E+04  0.91174982567E+02 0.  0.
         13    1    3    3    0    0  0.76302490009E+03  0.97442920510E+02 -0.10766875410E+04  0.13232377647E+04  0.00000000000E+00 0. -1.
        -13    1    3    3    0    0  0.71104958394E+03  0.50601520886E+02 -0.86909268870E+03  0.11240436496E+04  0.00000000000E+00 0.  1.
         22    1    1    2    0    0 -0.14740744840E+04 -0.14804444140E+03  0.23765644518E+04  0.28005126914E+04  0.00000000000E+00 0.  1.
<mgrwt>
<rscale>  0 0.52300830E+04</rscale>
<asrwt>0</asrwt>
<pdfrwt beam="1">  1        2 0.37053922E+00 0.52300830E+04</pdfrwt>
<pdfrwt beam="2">  1       -2 0.43681372E+00 0.52300830E+04</pdfrwt>
<totfact> 0.11955347E-02</totfact>
</mgrwt>
</event>
<event>
 6    1  0.1614874E-005  0.2024930E+04  0.7818608E-02  0.8595053E-01
          2   -1    0    0  501    0  0.00000000000E+00  0.00000000000E+00  0.19598284276E+04  0.19598284276E+04  0.00000000000E+00 0.  1.
         -2   -1    0    0    0  501 -0.00000000000E+00 -0.00000000000E+00 -0.52304835544E+03  0.52304835544E+03  0.00000000000E+00 0. -1.
         23    2    1    2    0    0 -0.12095064226E+03 -0.93763066418E+03  0.11559743085E+04  0.14966556125E+04  0.99604720907E+02 0.  0.
         11    1    3    3    0    0 -0.21576452319E+02 -0.54910614897E+03  0.67726243328E+03  0.87216254773E+03  0.00000000000E+00 0.  1.
        -11    1    3    3    0    0 -0.99374189941E+02 -0.38852451521E+03  0.47871187520E+03  0.62449306481E+03  0.00000000000E+00 0. -1.
         22    1    1    2    0    0  0.12095064226E+03  0.93763066418E+03  0.28080576371E+03  0.98622117053E+03  0.00000000000E+00 0. -1.
<mgrwt>
<rscale>  0 0.20249297E+04</rscale>
<asrwt>0</asrwt>
<pdfrwt beam="1">  1        2 0.30151206E+00 0.20249297E+04</pdfrwt>
<pdfrwt beam="2">  1       -2 0.80468979E-01 0.20249297E+04</pdfrwt>
<totfact> 0.88964056E+00</totfact>
</mgrwt>
</event>
<event>
 6    1  0.1614874E-005  0.3591263E+04  0.7818608E-02  0.8092496E-01
         -2   -1    0    0    0  501 -0.00000000000E+00  0.00000000000E+00  0.12630915301E+04  0.12630915301E+04  0.00000000000E+00 0.  1.
          2   -1    0    0  501    0  0.00000000000E+00 -0.00000000000E+00 -0.25526989705E+04  0.25526989705E+04  0.00000000000E+00 0. -1.
         23    2    1    2    0    0 -0.16368557459E+04  0.99429867725E+02  0.12894011830E+03  0.16475054161E+04  0.92008208223E+02 0.  0.
         13    1    3    3    0    0 -0.63097611445E+03  0.38600251041E+02  0.48292775239E+01  0.63217415189E+03  0.00000000000E+00 0. -1.
        -13    1    3    3    0    0 -0.10058796315E+04  0.60829616684E+02  0.12411084078E+03  0.10153312642E+04  0.00000000000E+00 0.  1.
         22    1    1    2    0    0  0.16368557459E+04 -0.99429867725E+02 -0.14185475587E+04  0.21682850845E+04  0.00000000000E+00 0. -1.
<mgrwt>
<rscale>  0 0.35912630E+04</rscale>
<asrwt>0</asrwt>
<pdfrwt beam="1">  1        2 0.39272292E+00 0.35912630E+04</pdfrwt>
<pdfrwt beam="2">  1       -2 0.19432177E+00 0.35912630E+04</pdfrwt>
<totfact> 0.38361396E-01</totfact>
</mgrwt>
</event>
<event>
 6    1  0.1614874E-005  0.2140657E+04  0.7818608E-02  0.8543542E-01
          1   -1    0    0  501    0  0.00000000000E+00  0.00000000000E+00  0.88248053506E+03  0.88248053506E+03  0.00000000000E+00 0. -1.
         -1   -1    0    0    0  501 -0.00000000000E+00 -0.00000000000E+00 -0.12981627063E+04  0.12981627063E+04  0.00000000000E+00 0.  1.
         23    2    1    2    0    0  0.59169624103E+03  0.76744208994E+03  0.24998125870E+03  0.10049818934E+04  0.91794190305E+02 0.  0.
         11    1    3    3    0    0  0.35025850009E+03  0.40524958718E+03  0.17341990565E+03  0.56301217435E+03  0.00000000000E+00 0.  1.
        -11    1    3    3    0    0  0.24143774093E+03  0.36219250276E+03  0.76561353056E+02  0.44196971908E+03  0.00000000000E+00 0. -1.
         22    1    1    2    0    0 -0.59169624103E+03 -0.76744208994E+03 -0.66566342995E+03  0.11756613479E+04  0.00000000000E+00 0. -1.
<mgrwt>
<rscale>  0 0.21406572E+04</rscale>
<asrwt>0</asrwt>
<pdfrwt beam="1">  1        1 0.13576624E+00 0.21406572E+04</pdfrwt>
<pdfrwt beam="2">  1       -1 0.19971734E+00 0.21406572E+04</pdfrwt>
<totfact> 0.26063008E+00</totfact>
</mgrwt>
</event>
<event>
 6    1  0.1614874E-005  0.1639475E+04  0.7818608E-02  0.8796657E-01
         -2   -1    0    0    0  501 -0.00000000000E+00  0.00000000000E+00  0.42539917030E+03  0.42539917030E+03  0.00000000000E+00 0.  1.
          2   -1    0    0  501    0  0.00000000000E+00 -0.00000000000E+00 -0.15796220082E+04  0.15796220082E+04  0.00000000000E+00 0. -1.
         23    2    1    2    0    0  0.25490332362E+03  0.52271399233E+03  0.12314789463E+03  0.60149646889E+03  0.91798561889E+02 0.  0.
         11    1    3    3    0    0  0.87406076413E+02  0.22925720320E+03  0.11457627753E+02  0.24562158832E+03  0.00000000000E+00 0.  1.
        -11    1    3    3    0    0  0.16749724721E+03  0.29345678913E+03  0.11169026687E+03  0.35587488057E+03  0.00000000000E+00 0. -1.
         22    1    1    2    0    0 -0.25490332362E+03 -0.52271399233E+03 -0.12773707326E+04  0.14035247096E+04  0.00000000000E+00 0. -1.
<mgrwt>
<rscale>  0 0.16394754E+04</rscale>
<asrwt>0</asrwt>
<pdfrwt beam="1">  1        2 0.24301877E+00 0.16394754E+04</pdfrwt>
<pdfrwt beam="2">  1       -2 0.65446026E-01 0.16394754E+04</pdfrwt>
<totfact> 0.23544069E+01</totfact>
</mgrwt>
</event>
<event>
 6    1  0.1614874E-005  0.1603527E+04  0.7818608E-02  0.8818384E-01
         -2   -1    0    0    0  501 -0.00000000000E+00  0.00000000000E+00  0.12356643201E+04  0.12356643201E+04  0.00000000000E+00 0.  1.
          2   -1    0    0  501    0  0.00000000000E+00 -0.00000000000E+00 -0.52022590104E+03  0.52022590104E+03  0.00000000000E+00 0. -1.
         23    2    1    2    0    0 -0.13155595077E+02 -0.16551458872E+03  0.12149085397E+04  0.12295457045E+04  0.90618600876E+02 0.  0.
         11    1    3    3    0    0  0.24275894752E+02 -0.75269373108E+01  0.22197466352E+03  0.22342498762E+03  0.00000000000E+00 0. -1.
        -11    1    3    3    0    0 -0.37431489829E+02 -0.15798765141E+03  0.99293387621E+03  0.10061207169E+04  0.00000000000E+00 0.  1.
         22    1    1    2    0    0  0.13155595077E+02  0.16551458872E+03 -0.49947012066E+03  0.52634451663E+03  0.00000000000E+00 0. -1.
<mgrwt>
<rscale>  0 0.16035268E+04</rscale>
<asrwt>0</asrwt>
<pdfrwt beam="1">  1        2 0.80034754E-01 0.16035268E+04</pdfrwt>
<pdfrwt beam="2">  1       -2 0.19010220E+00 0.16035268E+04</pdfrwt>
<totfact> 0.87130774E+00</totfact>
</mgrwt>
</event>
<event>
 6    1  0.1614874E-005  0.3591436E+04  0.7818608E-02  0.8092456E-01
          1   -1    0    0  501    0  0.00000000000E+00  0.00000000000E+00  0.21532403572E+04  0.21532403572E+04  0.00000000000E+00 0. -1.
         -1   -1    0    0    0  501 -0.00000000000E+00 -0.00000000000E+00 -0.14975582515E+04  0.14975582515E+04  0.00000000000E+00 0.  1.
         23    2    1    2    0    0  0.19106243286E+03  0.13961040595E+04 -0.80158322999E+03  0.16236741288E+04  0.90391390831E+02 0.  0.
         11    1    3    3    0    0  0.14553768098E+03  0.74227966971E+03 -0.41605999712E+03  0.86328804339E+03  0.00000000000E+00 0. -1.
        -11    1    3    3    0    0  0.45524751880E+02  0.65382438981E+03 -0.38552323287E+03  0.76038608537E+03  0.00000000000E+00 0.  1.
         22    1    1    2    0    0 -0.19106243286E+03 -0.13961040595E+04  0.14572653357E+04  0.20271244799E+04  0.00000000000E+00 0. -1.
<mgrwt>
<rscale>  0 0.35914358E+04</rscale>
<asrwt>0</asrwt>
<pdfrwt beam="1">  1        1 0.33126775E+00 0.35914358E+04</pdfrwt>
<pdfrwt beam="2">  1       -1 0.23039358E+00 0.35914358E+04</pdfrwt>
<totfact> 0.17810864E-01</totfact>
</mgrwt>
</event>
<event>
 6    1  0.1614874E-005  0.2197624E+04  0.7818608E-02  0.8519418E-01
         -2   -1    0    0    0  501 -0.00000000000E+00  0.00000000000E+00  0.62045381169E+03  0.62045381169E+03  0.00000000000E+00 0.  1.
          2   -1    0    0  501    0  0.00000000000E+00 -0.00000000000E+00 -0.19459748152E+04  0.19459748152E+04  0.00000000000E+00 0. -1.
         23    2    1    2    0    0 -0.43521770417E+03 -0.99849667431E+03 -0.51221520492E+03  0.12070624582E+04  0.90693457324E+02 0.  0.
         13    1    3    3    0    0 -0.37165058720E+03 -0.82786487083E+03 -0.46135816354E+03  0.10180057752E+04  0.00000000000E+00 0. -1.
        -13    1    3    3    0    0 -0.63567116979E+02 -0.17063180348E+03 -0.50857041376E+02  0.18905668297E+03  0.00000000000E+00 0.  1.
         22    1    1    2    0    0  0.43521770417E+03  0.99849667431E+03 -0.81330579863E+03  0.13593661687E+04  0.00000000000E+00 0. -1.
<mgrwt>
<rscale>  0 0.21976237E+04</rscale>
<asrwt>0</asrwt>
<pdfrwt beam="1">  1        2 0.29938074E+00 0.21976237E+04</pdfrwt>
<pdfrwt beam="2">  1       -2 0.95454434E-01 0.21976237E+04</pdfrwt>
<totfact> 0.60324457E+00</totfact>
</mgrwt>
</event>
<event>
 6    1  0.1614874E-005  0.1261383E+04  0.7818608E-02  0.9060762E-01
          1   -1    0    0  501    0  0.00000000000E+00  0.00000000000E+00  0.14341779992E+04  0.14341779992E+04  0.00000000000E+00 0. -1.
         -1   -1    0    0    0  501 -0.00000000000E+00 -0.00000000000E+00 -0.27735188345E+03  0.27735188345E+03  0.00000000000E+00 0.  1.
         23    2    1    2    0    0  0.13211016062E+02  0.58419323822E+03  0.89094903169E+03  0.10695432049E+04  0.93146227010E+02 0.  0.
         13    1    3    3    0    0 -0.18511156400E+02  0.41018939142E+03  0.56146395423E+03  0.69558591966E+03  0.00000000000E+00 0.  1.
        -13    1    3    3    0    0  0.31722172462E+02  0.17400384681E+03  0.32948507746E+03  0.37395728526E+03  0.00000000000E+00 0. -1.
         22    1    1    2    0    0 -0.13211016062E+02 -0.58419323822E+03  0.26587708403E+03  0.64198667770E+03  0.00000000000E+00 0.  1.
<mgrwt>
<rscale>  0 0.12613833E+04</rscale>
<asrwt>0</asrwt>
<pdfrwt beam="1">  1        1 0.22064276E+00 0.12613833E+04</pdfrwt>
<pdfrwt beam="2">  1       -1 0.42669521E-01 0.12613833E+04</pdfrwt>
<totfact> 0.38724579E+01</totfact>
</mgrwt>
</event>
<event>
 6    1  0.2606898E-005  0.4508433E+04  0.7818608E-02  0.7909162E-01
         -2   -1    0    0    0  501 -0.00000000000E+00  0.00000000000E+00  0.17073493574E+04  0.17073493574E+04  0.00000000000E+00 0.  1.
          2   -1    0    0  501    0  0.00000000000E+00 -0.00000000000E+00 -0.29762460363E+04  0.29762460363E+04  0.00000000000E+00 0. -1.
         23    2    1    2    0    0  0.19412251993E+04 -0.10588815553E+04 -0.18331174830E+03  0.22202480645E+04  0.79453435169E+02 0.  0.
         11    1    3    3    0    0  0.63514573826E+03 -0.38741632614E+03 -0.72429736348E+02  0.74749420419E+03  0.00000000000E+00 0.  1.
        -11    1    3    3    0    0  0.13060794611E+04 -0.67146522911E+03 -0.11088201195E+03  0.14727538603E+04  0.00000000000E+00 0. -1.
         22    1    1    2    0    0 -0.19412251993E+04  0.10588815553E+04 -0.10855849306E+04  0.24633473292E+04  0.00000000000E+00 0. -1.
<mgrwt>
<rscale>  0 0.45084329E+04</rscale>
<asrwt>0</asrwt>
<pdfrwt beam="1">  1        2 0.45788400E+00 0.45084329E+04</pdfrwt>
<pdfrwt beam="2">  1       -2 0.26266914E+00 0.45084329E+04</pdfrwt>
<totfact> 0.73273888E-02</totfact>
</mgrwt>
</event>
<event>
 6    1  0.1614874E-005  0.1686085E+04  0.7818608E-02  0.8769341E-01
         -1   -1    0    0    0  501 -0.00000000000E+00  0.00000000000E+00  0.80626700893E+03  0.80626700893E+03  0.00000000000E+00 0. -1.
          1   -1    0    0  501    0  0.00000000000E+00 -0.00000000000E+00 -0.88149546444E+03  0.88149546444E+03  0.00000000000E+00 0.  1.
         23    2    1    2    0    0  0.14777451027E+03 -0.73788107357E+03 -0.41266199445E+03  0.86303998803E+03  0.90787194404E+02 0.  0.
         11    1    3    3    0    0  0.13519559337E+03 -0.67339339334E+03 -0.34456879254E+03  0.76841666006E+03  0.00000000000E+00 0. -1.
        -11    1    3    3    0    0  0.12578916898E+02 -0.64487680232E+02 -0.68093201904E+02  0.94623327977E+02  0.00000000000E+00 0.  1.
         22    1    1    2    0    0 -0.14777451027E+03  0.73788107357E+03  0.33743353893E+03  0.82472248533E+03  0.00000000000E+00 0. -1.
<mgrwt>
<rscale>  0 0.16860851E+04</rscale>
<asrwt>0</asrwt>
<pdfrwt beam="1">  1        1 0.13561469E+00 0.16860851E+04</pdfrwt>
<pdfrwt beam="2">  1       -1 0.12404108E+00 0.16860851E+04</pdfrwt>
<totfact> 0.10245819E+01</totfact>
</mgrwt>
</event>
<event>
 6    1  0.1614874E-005  0.1422212E+04  0.7818608E-02  0.8937896E-01
         -1   -1    0    0    0  501 -0.00000000000E+00  0.00000000000E+00  0.23724101232E+03  0.23724101232E+03  0.00000000000E+00 0.  1.
          1   -1    0    0  501    0  0.00000000000E+00 -0.00000000000E+00 -0.21314683456E+04  0.21314683456E+04  0.00000000000E+00 0. -1.
         23    2    1    2    0    0  0.49161656378E+03  0.50745594552E+03 -0.87071864333E+03  0.11250179087E+04  0.91191867320E+02 0.  0.
         11    1    3    3    0    0  0.22150191145E+03  0.17021753570E+03 -0.37082715116E+03  0.46427349943E+03  0.00000000000E+00 0. -1.
        -11    1    3    3    0    0  0.27011465233E+03  0.33723840981E+03 -0.49989149217E+03  0.66074440929E+03  0.00000000000E+00 0.  1.
         22    1    1    2    0    0 -0.49161656378E+03 -0.50745594552E+03 -0.10235086900E+04  0.12436914492E+04  0.00000000000E+00 0.  1.
<mgrwt>
<rscale>  0 0.14222120E+04</rscale>
<asrwt>0</asrwt>
<pdfrwt beam="1">  1        1 0.32791820E+00 0.14222120E+04</pdfrwt>
<pdfrwt beam="2">  1       -1 0.36498618E-01 0.14222120E+04</pdfrwt>
<totfact> 0.17013227E+01</totfact>
</mgrwt>
</event>
<event>
 6    1  0.1614874E-005  0.2089542E+04  0.7818608E-02  0.8565864E-01
          2   -1    0    0  501    0  0.00000000000E+00  0.00000000000E+00  0.41950077248E+04  0.41950077248E+04  0.00000000000E+00 0. -1.
         -2   -1    0    0    0  501 -0.00000000000E+00 -0.00000000000E+00 -0.26020128572E+03  0.26020128572E+03  0.00000000000E+00 0.  1.
         23    2    1    2    0    0 -0.42538646160E+03  0.47488391728E+03  0.21161565859E+03  0.67782658820E+03  0.90550097224E+02 0.  0.
         11    1    3    3    0    0 -0.13718449420E+03  0.18821787841E+03  0.11619723558E+03  0.26028321644E+03  0.00000000000E+00 0. -1.
        -11    1    3    3    0    0 -0.28820196740E+03  0.28666603887E+03  0.95418423013E+02  0.41754337177E+03  0.00000000000E+00 0.  1.
         22    1    1    2    0    0  0.42538646160E+03 -0.47488391728E+03  0.37231907805E+04  0.37773824224E+04  0.00000000000E+00 0. -1.
<mgrwt>
<rscale>  0 0.20895420E+04</rscale>
<asrwt>0</asrwt>
<pdfrwt beam="1">  1        2 0.64538576E+00 0.20895420E+04</pdfrwt>
<pdfrwt beam="2">  1       -2 0.40030970E-01 0.20895420E+04</pdfrwt>
<totfact> 0.12932909E+00</totfact>
</mgrwt>
</event>
<event>
 6    1  0.1614874E-005  0.1950050E+04  0.7818608E-02  0.8630337E-01
          2   -1    0    0  501    0  0.00000000000E+00  0.00000000000E+00  0.20090317524E+04  0.20090317524E+04  0.00000000000E+00 0. -1.
         -2   -1    0    0    0  501 -0.00000000000E+00 -0.00000000000E+00 -0.47319975653E+03  0.47319975653E+03  0.00000000000E+00 0.  1.
         23    2    1    2    0    0  0.30855527203E+03  0.35941935680E+03 -0.31222170549E+03  0.57443405819E+03  0.90019241747E+02 0.  0.
         13    1    3    3    0    0  0.14862795620E+03  0.10665249672E+03 -0.12493243201E+03  0.22152457423E+03  0.00000000000E+00 0. -1.
        -13    1    3    3    0    0  0.15992731583E+03  0.25276686008E+03 -0.18728927348E+03  0.35290948395E+03  0.00000000000E+00 0.  1.
         22    1    1    2    0    0 -0.30855527203E+03 -0.35941935680E+03  0.18480537013E+04  0.19077974507E+04  0.00000000000E+00 0. -1.
<mgrwt>
<rscale>  0 0.19500496E+04</rscale>
<asrwt>0</asrwt>
<pdfrwt beam="1">  1        2 0.30908180E+00 0.19500496E+04</pdfrwt>
<pdfrwt beam="2">  1       -2 0.72799964E-01 0.19500496E+04</pdfrwt>
<totfact> 0.10506269E+01</totfact>
</mgrwt>
</event>
<event>
 6    1  0.1614874E-005  0.2903681E+04  0.7818608E-02  0.8271783E-01
         -2   -1    0    0    0  501 -0.00000000000E+00  0.00000000000E+00  0.12907958841E+04  0.12907958841E+04  0.00000000000E+00 0.  1.
          2   -1    0    0  501    0  0.00000000000E+00 -0.00000000000E+00 -0.16329779329E+04  0.16329779329E+04  0.00000000000E+00 0. -1.
         23    2    1    2    0    0 -0.43139791379E+03 -0.11430403951E+04  0.61584285670E+03  0.13712090922E+04  0.91139703862E+02 0.  0.
         11    1    3    3    0    0 -0.41122381299E+03 -0.11161370907E+04  0.58488961941E+03  0.13255047705E+04  0.00000000000E+00 0. -1.
        -11    1    3    3    0    0 -0.20174100800E+02 -0.26903304419E+02  0.30953237293E+02  0.45704321794E+02  0.00000000000E+00 0.  1.
         22    1    1    2    0    0  0.43139791379E+03  0.11430403951E+04 -0.95802490553E+03  0.15525647247E+04  0.00000000000E+00 0. -1.
<mgrwt>
<rscale>  0 0.29036812E+04</rscale>
<asrwt>0</asrwt>
<pdfrwt beam="1">  1        2 0.25122738E+00 0.29036812E+04</pdfrwt>
<pdfrwt beam="2">  1       -2 0.19858398E+00 0.29036812E+04</pdfrwt>
<totfact> 0.12532605E+00</totfact>
</mgrwt>
</event>
<event>
 6    1  0.1614874E-005  0.4201782E+04  0.7818608E-02  0.7965033E-01
         -1   -1    0    0    0  501 -0.00000000000E+00  0.00000000000E+00  0.14762190311E+04  0.14762190311E+04  0.00000000000E+00 0.  1.
          1   -1    0    0  501    0  0.00000000000E+00 -0.00000000000E+00 -0.29898974396E+04  0.29898974396E+04  0.00000000000E+00 0. -1.
         23    2    1    2    0    0 -0.27115046385E+03  0.60180400092E+03 -0.28760854698E+04  0.29522328456E+04  0.90113901739E+02 0.  0.
         11    1    3    3    0    0 -0.91131753109E+02  0.31121452459E+03 -0.13777750489E+04  0.14154234568E+04  0.00000000000E+00 0. -1.
        -11    1    3    3    0    0 -0.18001871074E+03  0.29058947632E+03 -0.14983104209E+04  0.15368093888E+04  0.00000000000E+00 0.  1.
         22    1    1    2    0    0  0.27115046385E+03 -0.60180400092E+03  0.13624070613E+04  0.15138836251E+04  0.00000000000E+00 0.  1.
<mgrwt>
<rscale>  0 0.42017822E+04</rscale>
<asrwt>0</asrwt>
<pdfrwt beam="1">  1        1 0.45998422E+00 0.42017822E+04</pdfrwt>
<pdfrwt beam="2">  1       -1 0.22711062E+00 0.42017822E+04</pdfrwt>
<totfact> 0.46160061E-02</totfact>
</mgrwt>
</event>
<event>
 6    1  0.1614874E-005  0.3200752E+04  0.7818608E-02  0.8188619E-01
          2   -1    0    0  501    0  0.00000000000E+00  0.00000000000E+00  0.14255470802E+04  0.14255470802E+04  0.00000000000E+00 0. -1.
         -2   -1    0    0    0  501 -0.00000000000E+00 -0.00000000000E+00 -0.17966460945E+04  0.17966460945E+04  0.00000000000E+00 0.  1.
         23    2    1    2    0    0  0.63238694368E+03 -0.86019761651E+02 -0.16617439976E+04  0.17823747421E+04  0.90299289741E+02 0.  0.
         13    1    3    3    0    0  0.23847771961E+03 -0.53771026853E+02 -0.53163537443E+03  0.58514879939E+03  0.00000000000E+00 0. -1.
        -13    1    3    3    0    0  0.39390922407E+03 -0.32248734798E+02 -0.11301086231E+04  0.11972259427E+04  0.00000000000E+00 0.  1.
         22    1    1    2    0    0 -0.63238694368E+03  0.86019761651E+02  0.12906449833E+04  0.14398184326E+04  0.00000000000E+00 0. -1.
<mgrwt>
<rscale>  0 0.32007522E+04</rscale>
<asrwt>0</asrwt>
<pdfrwt beam="1">  1        2 0.21931494E+00 0.32007522E+04</pdfrwt>
<pdfrwt beam="2">  1       -2 0.27640709E+00 0.32007522E+04</pdfrwt>
<totfact> 0.52180590E-01</totfact>
</mgrwt>
</event>
<event>
 6    1  0.1614874E-005  0.3972281E+04  0.7818608E-02  0.8010162E-01
         -2   -1    0    0    0  501 -0.00000000000E+00  0.00000000000E+00  0.27784914665E+04  0.27784914665E+04  0.00000000000E+00 0. -1.
          2   -1    0    0  501    0  0.00000000000E+00 -0.00000000000E+00 -0.14197470428E+04  0.14197470428E+04  0.00000000000E+00 0.  1.
         23    2    1    2    0    0 -0.93392090971E+03 -0.46142259354E+03 -0.11061901723E+04  0.15222299821E+04  0.91697031556E+02 0.  0.
         11    1    3    3    0    0 -0.16709936744E+03 -0.97187861202E+02 -0.25582489111E+03  0.32064630650E+03  0.00000000000E+00 0.  1.
        -11    1    3    3    0    0 -0.76682154227E+03 -0.36423473234E+03 -0.85036528120E+03  0.12015836756E+04  0.00000000000E+00 0. -1.
         22    1    1    2    0    0  0.93392090971E+03  0.46142259354E+03  0.24649345960E+04  0.26760085272E+04  0.00000000000E+00 0. -1.
<mgrwt>
<rscale>  0 0.39722815E+04</rscale>
<asrwt>0</asrwt>
<pdfrwt beam="1">  1        2 0.21842262E+00 0.39722815E+04</pdfrwt>
<pdfrwt beam="2">  1       -2 0.42746023E+00 0.39722815E+04</pdfrwt>
<totfact> 0.54537008E-02</totfact>
</mgrwt>
</event>
<event>
 6    1  0.1614874E-005  0.4238953E+04  0.7818608E-02  0.7958004E-01
         -2   -1    0    0    0  501 -0.00000000000E+00  0.00000000000E+00  0.19837330480E+04  0.19837330480E+04  0.00000000000E+00 0.  1.
          2   -1    0    0  501    0  0.00000000000E+00 -0.00000000000E+00 -0.22645086011E+04  0.22645086011E+04  0.00000000000E+00 0. -1.
         23    2    1    2    0    0  0.36188979511E+03  0.56780137758E+03 -0.21535230933E+04  0.22581295975E+04  0.90138435798E+02 0.  0.
         13    1    3    3    0    0  0.90949452976E+02  0.21797110573E+03 -0.70259243868E+03  0.74122826499E+03  0.00000000000E+00 0.  1.
        -13    1    3    3    0    0  0.27094034213E+03  0.34983027185E+03 -0.14509306546E+04  0.15169013326E+04  0.00000000000E+00 0. -1.
         22    1    1    2    0    0 -0.36188979511E+03 -0.56780137758E+03  0.18727475402E+04  0.19901120515E+04  0.00000000000E+00 0.  1.
<mgrwt>
<rscale>  0 0.42389530E+04</rscale>
<asrwt>0</asrwt>
<pdfrwt beam="1">  1        2 0.34838594E+00 0.42389530E+04</pdfrwt>
<pdfrwt beam="2">  1       -2 0.30518970E+00 0.42389530E+04</pdfrwt>
<totfact> 0.10854443E-01</totfact>
</mgrwt>
</event>
<event>
 6    1  0.1614874E-005  0.2411818E+04  0.7818608E-02  0.8435092E-01
         -2   -1    0    0    0  501 -0.00000000000E+00  0.00000000000E+00  0.59410497800E+03  0.59410497800E+03  0.00000000000E+00 0.  1.
          2   -1    0    0  501    0  0.00000000000E+00 -0.00000000000E+00 -0.24477443095E+04  0.24477443095E+04  0.00000000000E+00 0. -1.
         23    2    1    2    0    0 -0.60949561132E+03 -0.83077843650E+03 -0.14212880603E+03  0.10441140724E+04  0.91081765113E+02 0.  0.
         13    1    3    3    0    0 -0.17195913918E+03 -0.25307797242E+03 -0.18778560854E+01  0.30597701223E+03  0.00000000000E+00 0.  1.
        -13    1    3    3    0    0 -0.43753647214E+03 -0.57770046408E+03 -0.14025094994E+03  0.73813706018E+03  0.00000000000E+00 0. -1.
         22    1    1    2    0    0  0.60949561132E+03  0.83077843650E+03 -0.17115105254E+04  0.19977352151E+04  0.00000000000E+00 0. -1.
<mgrwt>
<rscale>  0 0.24118185E+04</rscale>
<asrwt>0</asrwt>
<pdfrwt beam="1">  1        2 0.37657605E+00 0.24118185E+04</pdfrwt>
<pdfrwt beam="2">  1       -2 0.91400765E-01 0.24118185E+04</pdfrwt>
<totfact> 0.34182777E+00</totfact>
</mgrwt>
</event>
<event>
 6    1  0.1614874E-005  0.3107226E+04  0.7818608E-02  0.8213758E-01
          2   -1    0    0  501    0  0.00000000000E+00  0.00000000000E+00  0.24013546307E+04  0.24013546307E+04  0.00000000000E+00 0. -1.
         -2   -1    0    0    0  501 -0.00000000000E+00 -0.00000000000E+00 -0.10051467133E+04  0.10051467133E+04  0.00000000000E+00 0.  1.
         23    2    1    2    0    0 -0.49158121328E+03  0.27615999154E+02 -0.91525279867E+03  0.10431847392E+04  0.90177502848E+02 0.  0.
         11    1    3    3    0    0 -0.21871064955E+03  0.20617266083E+02 -0.31787172402E+03  0.38639597930E+03  0.00000000000E+00 0.  1.
        -11    1    3    3    0    0 -0.27287056373E+03  0.69987330708E+01 -0.59738107465E+03  0.65678875993E+03  0.00000000000E+00 0. -1.
         22    1    1    2    0    0  0.49158121328E+03 -0.27615999154E+02  0.23114607161E+04  0.23633166048E+04  0.00000000000E+00 0. -1.
<mgrwt>
<rscale>  0 0.31072262E+04</rscale>
<asrwt>0</asrwt>
<pdfrwt beam="1">  1        2 0.36943917E+00 0.31072262E+04</pdfrwt>
<pdfrwt beam="2">  1       -2 0.15463796E+00 0.31072262E+04</pdfrwt>
<totfact> 0.93007976E-01</totfact>
</mgrwt>
</event>
<event>
 6    1  0.1614874E-005  0.1436094E+04  0.7818608E-02  0.8928099E-01
         -1   -1    0    0    0  501 -0.00000000000E+00  0.00000000000E+00  0.43056693643E+03  0.43056693643E+03  0.00000000000E+00 0.  1.
          1   -1    0    0  501    0  0.00000000000E+00 -0.00000000000E+00 -0.11974706790E+04  0.11974706790E+04  0.00000000000E+00 0. -1.
         23    2    1    2    0    0 -0.34483064944E+03  0.54873687629E+03 -0.72782235720E+03  0.97877057418E+03  0.90808133208E+02 0.  0.
         13    1    3    3    0    0 -0.13491757991E+03  0.29729718845E+03 -0.34626579586E+03  0.47590794594E+03  0.00000000000E+00 0. -1.
        -13    1    3    3    0    0 -0.20991306953E+03  0.25143968783E+03 -0.38155656134E+03  0.50286262824E+03  0.00000000000E+00 0.  1.
         22    1    1    2    0    0  0.34483064944E+03 -0.54873687629E+03 -0.39081385385E+02  0.64926704127E+03  0.00000000000E+00 0.  1.
<mgrwt>
<rscale>  0 0.14360937E+04</rscale>
<asrwt>0</asrwt>
<pdfrwt beam="1">  1        1 0.18422626E+00 0.14360937E+04</pdfrwt>
<pdfrwt beam="2">  1       -1 0.66241068E-01 0.14360937E+04</pdfrwt>
<totfact> 0.24098601E+01</totfact>
</mgrwt>
</event>
<event>
 6    1  0.1614874E-005  0.1134815E+04  0.7818608E-02  0.9171907E-01
         -2   -1    0    0    0  501 -0.00000000000E+00  0.00000000000E+00  0.22881247611E+03  0.22881247611E+03  0.00000000000E+00 0.  1.
          2   -1    0    0  501    0  0.00000000000E+00 -0.00000000000E+00 -0.14070541653E+04  0.14070541653E+04  0.00000000000E+00 0. -1.
         23    2    1    2    0    0  0.40740892039E+03 -0.38178844429E+03 -0.70704805016E+03  0.90527243800E+03  0.88638576060E+02 0.  0.
         13    1    3    3    0    0  0.11171275084E+03 -0.64308855533E+02 -0.20005154163E+03  0.23798316518E+03  0.00000000000E+00 0. -1.
        -13    1    3    3    0    0  0.29569616955E+03 -0.31747958876E+03 -0.50699650853E+03  0.66728927282E+03  0.00000000000E+00 0.  1.
         22    1    1    2    0    0 -0.40740892039E+03  0.38178844429E+03 -0.47119363906E+03  0.73059420344E+03  0.00000000000E+00 0.  1.
<mgrwt>
<rscale>  0 0.11348155E+04</rscale>
<asrwt>0</asrwt>
<pdfrwt beam="1">  1        2 0.21646987E+00 0.11348155E+04</pdfrwt>
<pdfrwt beam="2">  1       -2 0.35201919E-01 0.11348155E+04</pdfrwt>
<totfact> 0.10753930E+02</totfact>
</mgrwt>
</event>
<event>
 6    1  0.1614874E-005  0.3961516E+04  0.7818608E-02  0.8012355E-01
          2   -1    0    0  501    0  0.00000000000E+00  0.00000000000E+00  0.20995097651E+04  0.20995097651E+04  0.00000000000E+00 0. -1.
         -2   -1    0    0    0  501 -0.00000000000E+00 -0.00000000000E+00 -0.18687229540E+04  0.18687229540E+04  0.00000000000E+00 0.  1.
         23    2    1    2    0    0  0.42362409137E+03  0.19319904113E+04  0.20182086085E+03  0.19901317746E+04  0.88591762882E+02 0.  0.
         11    1    3    3    0    0  0.31697359750E+03  0.15316325553E+04  0.19062129646E+03  0.15756608216E+04  0.00000000000E+00 0. -1.
        -11    1    3    3    0    0  0.10665049388E+03  0.40035785595E+03  0.11199564394E+02  0.41447095304E+03  0.00000000000E+00 0.  1.
         22    1    1    2    0    0 -0.42362409137E+03 -0.19319904113E+04  0.28965950295E+02  0.19781009444E+04  0.00000000000E+00 0.  1.
<mgrwt>
<rscale>  0 0.39615159E+04</rscale>
<asrwt>0</asrwt>
<pdfrwt beam="1">  1        2 0.32300150E+00 0.39615159E+04</pdfrwt>
<pdfrwt beam="2">  1       -2 0.28749584E+00 0.39615159E+04</pdfrwt>
<totfact> 0.17635500E-01</totfact>
</mgrwt>
</event>
<event>
 6    1  0.1614874E-005  0.2557109E+04  0.7818608E-02  0.8382918E-01
          1   -1    0    0  501    0  0.00000000000E+00  0.00000000000E+00  0.18671254919E+04  0.18671254919E+04  0.00000000000E+00 0. -1.
         -1   -1    0    0    0  501 -0.00000000000E+00 -0.00000000000E+00 -0.87551803527E+03  0.87551803527E+03  0.00000000000E+00 0.  1.
         23    2    1    2    0    0 -0.28558385555E+03 -0.12375554424E+04  0.35418668096E+03  0.13215851692E+04  0.89652343404E+02 0.  0.
         13    1    3    3    0    0 -0.23345437930E+03 -0.86382948541E+03  0.27382157703E+03  0.93577806296E+03  0.00000000000E+00 0. -1.
        -13    1    3    3    0    0 -0.52129476254E+02 -0.37372595704E+03  0.80365103934E+02  0.38580710619E+03  0.00000000000E+00 0.  1.
         22    1    1    2    0    0  0.28558385555E+03  0.12375554424E+04  0.63742077570E+03  0.14210583580E+04  0.00000000000E+00 0. -1.
<mgrwt>
<rscale>  0 0.25571093E+04</rscale>
<asrwt>0</asrwt>
<pdfrwt beam="1">  1        1 0.28725007E+00 0.25571093E+04</pdfrwt>
<pdfrwt beam="2">  1       -1 0.13469508E+00 0.25571093E+04</pdfrwt>
<totfact> 0.15021615E+00</totfact>
</mgrwt>
</event>
<event>
 6    1  0.1614874E-005  0.2511109E+04  0.7818608E-02  0.8399038E-01
         -2   -1    0    0    0  501 -0.00000000000E+00  0.00000000000E+00  0.12274840056E+04  0.12274840056E+04  0.00000000000E+00 0.  1.
          2   -1    0    0  501    0  0.00000000000E+00 -0.00000000000E+00 -0.12842672926E+04  0.12842672926E+04  0.00000000000E+00 0. -1.
         23    2    1    2    0    0 -0.12980945569E+03 -0.12334527024E+04  0.15103283170E+03  0.12541966858E+04  0.10928104406E+03 0.  0.
         13    1    3    3    0    0 -0.57456211508E+02 -0.94672277020E+03  0.94923870882E+02  0.95320289609E+03  0.00000000000E+00 0.  1.
        -13    1    3    3    0    0 -0.72353244177E+02 -0.28672993222E+03  0.56108960815E+02  0.30099378974E+03  0.00000000000E+00 0. -1.
         22    1    1    2    0    0  0.12980945569E+03  0.12334527024E+04 -0.20781611873E+03  0.12575546124E+04  0.00000000000E+00 0. -1.
<mgrwt>
<rscale>  0 0.25111094E+04</rscale>
<asrwt>0</asrwt>
<pdfrwt beam="1">  1        2 0.19757958E+00 0.25111094E+04</pdfrwt>
<pdfrwt beam="2">  1       -2 0.18884369E+00 0.25111094E+04</pdfrwt>
<totfact> 0.23743911E+00</totfact>
</mgrwt>
</event>
<event>
 6    1  0.1614874E-005  0.9315397E+03  0.7818608E-02  0.9386992E-01
         -2   -1    0    0    0  501 -0.00000000000E+00  0.00000000000E+00  0.79760570500E+02  0.79760570500E+02  0.00000000000E+00 0.  1.
          2   -1    0    0  501    0  0.00000000000E+00 -0.00000000000E+00 -0.27199099263E+04  0.27199099263E+04  0.00000000000E+00 0. -1.
         23    2    1    2    0    0 -0.90004408277E+02 -0.43110013532E+03 -0.17449613400E+04  0.18020184012E+04  0.91826575941E+02 0.  0.
         13    1    3    3    0    0  0.16445228049E+02 -0.31275094450E+02 -0.11118570843E+03  0.11666549969E+03  0.00000000000E+00 0. -1.
        -13    1    3    3    0    0 -0.10644963633E+03 -0.39982504087E+03 -0.16337756316E+04  0.16853529016E+04  0.00000000000E+00 0.  1.
         22    1    1    2    0    0  0.90004408277E+02  0.43110013532E+03 -0.89518801580E+03  0.99765209558E+03  0.00000000000E+00 0.  1.
<mgrwt>
<rscale>  0 0.93153973E+03</rscale>
<asrwt>0</asrwt>
<pdfrwt beam="1">  1        2 0.41844761E+00 0.93153973E+03</pdfrwt>
<pdfrwt beam="2">  1       -2 0.12270859E-01 0.93153973E+03</pdfrwt>
<totfact> 0.12996399E+02</totfact>
</mgrwt>
</event>
<event>
 6    1  0.1614874E-005  0.3051891E+04  0.7818608E-02  0.8229066E-01
          2   -1    0    0  501    0  0.00000000000E+00  0.00000000000E+00  0.68500378196E+03  0.68500378196E+03  0.00000000000E+00 0.  1.
         -2   -1    0    0    0  501 -0.00000000000E+00 -0.00000000000E+00 -0.33992665071E+04  0.33992665071E+04  0.00000000000E+00 0. -1.
         23    2    1    2    0    0  0.13679146077E+03  0.13833084077E+04 -0.21964966340E+04  0.26009174046E+04  0.88993415097E+02 0.  0.
         13    1    3    3    0    0  0.10459971423E+03  0.60971226234E+03 -0.98173171610E+03  0.11603823962E+04  0.00000000000E+00 0. -1.
        -13    1    3    3    0    0  0.32191746539E+02  0.77359614537E+03 -0.12147649179E+04  0.14405350084E+04  0.00000000000E+00 0.  1.
         22    1    1    2    0    0 -0.13679146077E+03 -0.13833084077E+04 -0.51776609110E+03  0.14833528844E+04  0.00000000000E+00 0.  1.
<mgrwt>
<rscale>  0 0.30518915E+04</rscale>
<asrwt>0</asrwt>
<pdfrwt beam="1">  1        2 0.10538520E+00 0.30518915E+04</pdfrwt>
<pdfrwt beam="2">  1       -2 0.52296407E+00 0.30518915E+04</pdfrwt>
<totfact> 0.42896973E-02</totfact>
</mgrwt>
</event>
<event>
 6    1  0.1614874E-005  0.2400004E+04  0.7818608E-02  0.8439502E-01
         -1   -1    0    0    0  501 -0.00000000000E+00  0.00000000000E+00  0.10951856842E+04  0.10951856842E+04  0.00000000000E+00 0.  1.
          1   -1    0    0  501    0  0.00000000000E+00 -0.00000000000E+00 -0.13148503123E+04  0.13148503123E+04  0.00000000000E+00 0. -1.
         23    2    1    2    0    0  0.95511551196E+02 -0.16712632932E+03 -0.12976394593E+04  0.13150093287E+04  0.91256243151E+02 0.  0.
         13    1    3    3    0    0  0.39286381513E+02 -0.14804004238E+03 -0.89385897156E+03  0.90688650611E+03  0.00000000000E+00 0.  1.
        -13    1    3    3    0    0  0.56225169682E+02 -0.19086286940E+02 -0.40378048775E+03  0.40812282262E+03  0.00000000000E+00 0. -1.
         22    1    1    2    0    0 -0.95511551196E+02  0.16712632932E+03  0.10779748312E+04  0.10950266678E+04  0.00000000000E+00 0.  1.
<mgrwt>
<rscale>  0 0.24000044E+04</rscale>
<asrwt>0</asrwt>
<pdfrwt beam="1">  1        1 0.20228466E+00 0.24000044E+04</pdfrwt>
<pdfrwt beam="2">  1       -1 0.16849011E+00 0.24000044E+04</pdfrwt>
<totfact> 0.19971194E+00</totfact>
</mgrwt>
</event>
<event>
 6    1  0.1614874E-005  0.2560425E+04  0.7818608E-02  0.8381770E-01
         -1   -1    0    0    0  501 -0.00000000000E+00  0.00000000000E+00  0.68102808357E+03  0.68102808357E+03  0.00000000000E+00 0.  1.
          1   -1    0    0  501    0  0.00000000000E+00 -0.00000000000E+00 -0.24065734087E+04  0.24065734087E+04  0.00000000000E+00 0. -1.
         23    2    1    2    0    0  0.19036660362E+03  0.12642697019E+04 -0.84874462022E+03  0.15373122292E+04  0.91346246901E+02 0.  0.
         13    1    3    3    0    0  0.16054593545E+03  0.10926690704E+04 -0.76896939800E+03  0.13457394361E+04  0.00000000000E+00 0. -1.
        -13    1    3    3    0    0  0.29820668172E+02  0.17160063157E+03 -0.79775222217E+02  0.19157279317E+03  0.00000000000E+00 0.  1.
         22    1    1    2    0    0 -0.19036660362E+03 -0.12642697019E+04 -0.87680070493E+03  0.15502892631E+04  0.00000000000E+00 0. -1.
<mgrwt>
<rscale>  0 0.25604250E+04</rscale>
<asrwt>0</asrwt>
<pdfrwt beam="1">  1        1 0.37024206E+00 0.25604250E+04</pdfrwt>
<pdfrwt beam="2">  1       -1 0.10477355E+00 0.25604250E+04</pdfrwt>
<totfact> 0.11884825E+00</totfact>
</mgrwt>
</event>
<event>
 6    1  0.1614874E-005  0.8507881E+03  0.7818608E-02  0.9489280E-01
         -2   -1    0    0    0  501 -0.00000000000E+00  0.00000000000E+00  0.15567261432E+03  0.15567261432E+03  0.00000000000E+00 0.  1.
          2   -1    0    0  501    0  0.00000000000E+00 -0.00000000000E+00 -0.11624400592E+04  0.11624400592E+04  0.00000000000E+00 0. -1.
         23    2    1    2    0    0  0.36071176841E+03 -0.20851268621E+03 -0.53209515143E+03  0.68652395740E+03  0.12082786814E+03 0.  0.
         13    1    3    3    0    0  0.13215842284E+03 -0.69653188616E+02 -0.10495834196E+03  0.18257510498E+03  0.00000000000E+00 0. -1.
        -13    1    3    3    0    0  0.22855334557E+03 -0.13885949760E+03 -0.42713680947E+03  0.50394885242E+03  0.00000000000E+00 0.  1.
         22    1    1    2    0    0 -0.36071176841E+03  0.20851268621E+03 -0.47467229347E+03  0.63158871615E+03  0.00000000000E+00 0. -1.
<mgrwt>
<rscale>  0 0.85078807E+03</rscale>
<asrwt>0</asrwt>
<pdfrwt beam="1">  1        2 0.17883694E+00 0.85078807E+03</pdfrwt>
<pdfrwt beam="2">  1       -2 0.23949632E-01 0.85078807E+03</pdfrwt>
<totfact> 0.31020256E+02</totfact>
</mgrwt>
</event>
<event>
 6    1  0.1614874E-005  0.2661483E+04  0.7818608E-02  0.8347612E-01
          2   -1    0    0  501    0  0.00000000000E+00  0.00000000000E+00  0.59899492482E+03  0.59899492482E+03  0.00000000000E+00 0. -1.
         -2   -1    0    0    0  501 -0.00000000000E+00 -0.00000000000E+00 -0.29564074738E+04  0.29564074738E+04  0.00000000000E+00 0.  1.
         23    2    1    2    0    0 -0.10206479695E+04  0.30759118645E+03 -0.11940037121E+03  0.10764846663E+04  0.90709274851E+02 0.  0.
         11    1    3    3    0    0 -0.43284369999E+03  0.13236154586E+03 -0.95843227630E+02  0.46266529125E+03  0.00000000000E+00 0.  1.
        -11    1    3    3    0    0 -0.58780426951E+03  0.17522964059E+03 -0.23557143576E+02  0.61381937507E+03  0.00000000000E+00 0. -1.
         22    1    1    2    0    0  0.10206479695E+04 -0.30759118645E+03 -0.22380121778E+04  0.24789177323E+04  0.00000000000E+00 0.  1.
<mgrwt>
<rscale>  0 0.26614831E+04</rscale>
<asrwt>0</asrwt>
<pdfrwt beam="1">  1        2 0.92153066E-01 0.26614831E+04</pdfrwt>
<pdfrwt beam="2">  1       -2 0.45483192E+00 0.26614831E+04</pdfrwt>
<totfact> 0.14084710E-01</totfact>
</mgrwt>
</event>
<event>
 6    1  0.1614874E-005  0.1127131E+04  0.7818608E-02  0.9179145E-01
         -1   -1    0    0    0  501 -0.00000000000E+00  0.00000000000E+00  0.53541889188E+03  0.53541889188E+03  0.00000000000E+00 0.  1.
          1   -1    0    0  501    0  0.00000000000E+00 -0.00000000000E+00 -0.59319143701E+03  0.59319143701E+03  0.00000000000E+00 0. -1.
         23    2    1    2    0    0  0.36833693792E+03  0.63421005552E+01 -0.45092907792E+03  0.58982987143E+03  0.94074023210E+02 0.  0.
         11    1    3    3    0    0  0.23489707964E+03  0.24955901816E+02 -0.22182759895E+03  0.32404771055E+03  0.00000000000E+00 0. -1.
        -11    1    3    3    0    0  0.13343985828E+03 -0.18613801261E+02 -0.22910147897E+03  0.26578216088E+03  0.00000000000E+00 0.  1.
         22    1    1    2    0    0 -0.36833693792E+03 -0.63421005552E+01  0.39315653278E+03  0.53878045746E+03  0.00000000000E+00 0.  1.
<mgrwt>
<rscale>  0 0.11271307E+04</rscale>
<asrwt>0</asrwt>
<pdfrwt beam="1">  1        1 0.91260221E-01 0.11271307E+04</pdfrwt>
<pdfrwt beam="2">  1       -1 0.82372138E-01 0.11271307E+04</pdfrwt>
<totfact> 0.50775880E+01</totfact>
</mgrwt>
</event>
<event>
 6    1  0.1614874E-005  0.5365983E+03  0.7818608E-02  0.1004644E+00
         -3   -1    0    0    0  501 -0.00000000000E+00  0.00000000000E+00  0.45107383663E+03  0.45107383663E+03  0.00000000000E+00 0.  1.
          3   -1    0    0  501    0  0.00000000000E+00 -0.00000000000E+00 -0.15958460398E+03  0.15958460398E+03  0.00000000000E+00 0. -1.
         23    2    1    2    0    0  0.38211259350E+02 -0.18750524223E+03 -0.55346882283E+02  0.21453521884E+03  0.79647765436E+02 0.  0.
         11    1    3    3    0    0  0.46580902576E+02 -0.98799692830E+02  0.77720597956E+00  0.10923261343E+03  0.00000000000E+00 0.  1.
        -11    1    3    3    0    0 -0.83696432265E+01 -0.88705549400E+02 -0.56124088263E+02  0.10530260541E+03  0.00000000000E+00 0. -1.
         22    1    1    2    0    0 -0.38211259350E+02  0.18750524223E+03  0.34683611493E+03  0.39612322177E+03  0.00000000000E+00 0.  1.
<mgrwt>
<rscale>  0 0.53659832E+03</rscale>
<asrwt>0</asrwt>
<pdfrwt beam="1">  1        3 0.24551478E-01 0.53659832E+03</pdfrwt>
<pdfrwt beam="2">  1       -3 0.69395974E-01 0.53659832E+03</pdfrwt>
<totfact> 0.82077165E+01</totfact>
</mgrwt>
</event>
<event>
 6    1  0.1614874E-005  0.8528534E+03  0.7818608E-02  0.9486515E-01
          1   -1    0    0  501    0  0.00000000000E+00  0.00000000000E+00  0.62753821009E+03  0.62753821009E+03  0.00000000000E+00 0. -1.
         -1   -1    0    0    0  501 -0.00000000000E+00 -0.00000000000E+00 -0.28976681912E+03  0.28976681912E+03  0.00000000000E+00 0.  1.
         23    2    1    2    0    0  0.36696855500E+03 -0.10076730698E+03  0.36605152890E+03  0.53570348741E+03  0.90357811491E+02 0.  0.
         13    1    3    3    0    0  0.16981384829E+03 -0.70830377012E+02  0.12302539741E+03  0.22133443878E+03  0.00000000000E+00 0.  1.
        -13    1    3    3    0    0  0.19715470670E+03 -0.29936929966E+02  0.24302613149E+03  0.31436904863E+03  0.00000000000E+00 0. -1.
         22    1    1    2    0    0 -0.36696855500E+03  0.10076730698E+03 -0.28280137929E+02  0.38160154181E+03  0.00000000000E+00 0.  1.
<mgrwt>
<rscale>  0 0.85285345E+03</rscale>
<asrwt>0</asrwt>
<pdfrwt beam="1">  1        1 0.96544340E-01 0.85285345E+03</pdfrwt>
<pdfrwt beam="2">  1       -1 0.44579511E-01 0.85285345E+03</pdfrwt>
<totfact> 0.16135394E+02</totfact>
</mgrwt>
</event>
<event>
 6    1  0.1614874E-005  0.2081052E+04  0.7818608E-02  0.8569636E-01
          1   -1    0    0  501    0  0.00000000000E+00  0.00000000000E+00  0.15417851362E+04  0.15417851362E+04  0.00000000000E+00 0. -1.
         -1   -1    0    0    0  501 -0.00000000000E+00 -0.00000000000E+00 -0.70223434911E+03  0.70223434911E+03  0.00000000000E+00 0.  1.
         23    2    1    2    0    0 -0.85513081311E+03 -0.19651524454E+03 -0.17857803658E+03  0.89997586606E+03  0.90551065591E+02 0.  0.
         13    1    3    3    0    0 -0.75313134234E+03 -0.19418994489E+03 -0.17834532697E+03  0.79794962821E+03  0.00000000000E+00 0.  1.
        -13    1    3    3    0    0 -0.10199947077E+03 -0.23252996440E+01 -0.23270960683E+00  0.10202623785E+03  0.00000000000E+00 0. -1.
         22    1    1    2    0    0  0.85513081311E+03  0.19651524454E+03  0.10181288237E+04  0.13440436193E+04  0.00000000000E+00 0. -1.
<mgrwt>
<rscale>  0 0.20810521E+04</rscale>
<asrwt>0</asrwt>
<pdfrwt beam="1">  1        1 0.23719771E+00 0.20810521E+04</pdfrwt>
<pdfrwt beam="2">  1       -1 0.10803605E+00 0.20810521E+04</pdfrwt>
<totfact> 0.44893930E+00</totfact>
</mgrwt>
</event>
<event>
 6    1  0.1614874E-005  0.2236380E+04  0.7818608E-02  0.8503437E-01
         -2   -1    0    0    0  501 -0.00000000000E+00  0.00000000000E+00  0.44671395263E+03  0.44671395263E+03  0.00000000000E+00 0.  1.
          2   -1    0    0  501    0  0.00000000000E+00 -0.00000000000E+00 -0.27989911694E+04  0.27989911694E+04  0.00000000000E+00 0. -1.
         23    2    1    2    0    0 -0.51111180949E+03  0.91305041133E+02 -0.26123356877E+04  0.26650138954E+04  0.91811897897E+02 0.  0.
         11    1    3    3    0    0 -0.19805975432E+03  0.65606228672E+02 -0.12175470912E+04  0.12352946057E+04  0.00000000000E+00 0. -1.
        -11    1    3    3    0    0 -0.31305205517E+03  0.25698812461E+02 -0.13947885965E+04  0.14297192897E+04  0.00000000000E+00 0.  1.
         22    1    1    2    0    0  0.51111180949E+03 -0.91305041133E+02  0.26005847102E+03  0.58069122663E+03  0.00000000000E+00 0.  1.
<mgrwt>
<rscale>  0 0.22363796E+04</rscale>
<asrwt>0</asrwt>
<pdfrwt beam="1">  1        2 0.43061403E+00 0.22363796E+04</pdfrwt>
<pdfrwt beam="2">  1       -2 0.68725222E-01 0.22363796E+04</pdfrwt>
<totfact> 0.40856247E+00</totfact>
</mgrwt>
</event>
<event>
 6    1  0.1614874E-005  0.1095577E+04  0.7818608E-02  0.9209513E-01
         -2   -1    0    0    0  501 -0.00000000000E+00  0.00000000000E+00  0.11547748462E+03  0.11547748462E+03  0.00000000000E+00 0.  1.
          2   -1    0    0  501    0  0.00000000000E+00 -0.00000000000E+00 -0.25985354387E+04  0.25985354387E+04  0.00000000000E+00 0. -1.
         23    2    1    2    0    0 -0.19444932418E+03  0.49101000516E+03 -0.15740311165E+04  0.16627131772E+04  0.90220778756E+02 0.  0.
         11    1    3    3    0    0 -0.10388903796E+03  0.29140692067E+03 -0.78377548028E+03  0.84262383607E+03  0.00000000000E+00 0. -1.
        -11    1    3    3    0    0 -0.90560286218E+02  0.19960308449E+03 -0.79025563624E+03  0.82008934110E+03  0.00000000000E+00 0.  1.
         22    1    1    2    0    0  0.19444932418E+03 -0.49101000516E+03 -0.90902683755E+03  0.10512997461E+04  0.00000000000E+00 0. -1.
<mgrwt>
<rscale>  0 0.10955772E+04</rscale>
<asrwt>0</asrwt>
<pdfrwt beam="1">  1        2 0.39977464E+00 0.10955772E+04</pdfrwt>
<pdfrwt beam="2">  1       -2 0.17765769E-01 0.10955772E+04</pdfrwt>
<totfact> 0.80443043E+01</totfact>
</mgrwt>
</event>
<event>
 6    1  0.1614874E-005  0.4869771E+04  0.7818608E-02  0.7848916E-01
          2   -1    0    0  501    0  0.00000000000E+00  0.00000000000E+00  0.31441587535E+04  0.31441587535E+04  0.00000000000E+00 0.  1.
         -2   -1    0    0    0  501 -0.00000000000E+00 -0.00000000000E+00 -0.18856133332E+04  0.18856133332E+04  0.00000000000E+00 0. -1.
         23    2    1    2    0    0  0.42855399996E+03 -0.23920786436E+04  0.77062042772E+03  0.25511092281E+04  0.92756033276E+02 0.  0.
         13    1    3    3    0    0  0.16667258683E+03 -0.11702272899E+04  0.35471937643E+03  0.12341140536E+04  0.00000000000E+00 0. -1.
        -13    1    3    3    0    0  0.26188141314E+03 -0.12218513537E+04  0.41590105129E+03  0.13169951745E+04  0.00000000000E+00 0.  1.
         22    1    1    2    0    0 -0.42855399996E+03  0.23920786436E+04  0.48792499256E+03  0.24786628586E+04  0.00000000000E+00 0. -1.
<mgrwt>
<rscale>  0 0.48697711E+04</rscale>
<asrwt>0</asrwt>
<pdfrwt beam="1">  1        2 0.48371673E+00 0.48697711E+04</pdfrwt>
<pdfrwt beam="2">  1       -2 0.29009436E+00 0.48697711E+04</pdfrwt>
<totfact> 0.37859516E-02</totfact>
</mgrwt>
</event>
<event>
 6    1  0.1614874E-005  0.1532616E+04  0.7818608E-02  0.8863049E-01
         -1   -1    0    0    0  501 -0.00000000000E+00  0.00000000000E+00  0.12408116300E+04  0.12408116300E+04  0.00000000000E+00 0.  1.
          1   -1    0    0  501    0  0.00000000000E+00 -0.00000000000E+00 -0.47326098127E+03  0.47326098127E+03  0.00000000000E+00 0. -1.
         23    2    1    2    0    0  0.32245845406E+03  0.72299797209E+02 -0.38474623555E+03  0.51532542157E+03  0.91235459523E+02 0.  0.
         13    1    3    3    0    0  0.17920695730E+03  0.43287134426E+02 -0.14504833802E+03  0.23458032721E+03  0.00000000000E+00 0.  1.
        -13    1    3    3    0    0  0.14325149676E+03  0.29012662784E+02 -0.23969789753E+03  0.28074509436E+03  0.00000000000E+00 0. -1.
         22    1    1    2    0    0 -0.32245845406E+03 -0.72299797209E+02  0.11522968843E+04  0.11987471897E+04  0.00000000000E+00 0.  1.
<mgrwt>
<rscale>  0 0.15326157E+04</rscale>
<asrwt>0</asrwt>
<pdfrwt beam="1">  1        1 0.72809382E-01 0.15326157E+04</pdfrwt>
<pdfrwt beam="2">  1       -1 0.19089410E+00 0.15326157E+04</pdfrwt>
<totfact> 0.80313457E+00</totfact>
</mgrwt>
</event>
<event>
 6    1  0.1614874E-005  0.1508111E+04  0.7818608E-02  0.8879077E-01
         -2   -1    0    0    0  501 -0.00000000000E+00  0.00000000000E+00  0.20927780186E+03  0.20927780186E+03  0.00000000000E+00 0.  1.
          2   -1    0    0  501    0  0.00000000000E+00 -0.00000000000E+00 -0.27169625019E+04  0.27169625019E+04  0.00000000000E+00 0. -1.
         23    2    1    2    0    0 -0.66503677354E+02  0.16829042800E+03 -0.26733710715E+04  0.26808907961E+04  0.86707368056E+02 0.  0.
         13    1    3    3    0    0  0.17957543379E+02  0.10051655859E+02 -0.35135851070E+03  0.35196066853E+03  0.00000000000E+00 0.  1.
        -13    1    3    3    0    0 -0.84461220733E+02  0.15823877214E+03 -0.23220125608E+04  0.23289301276E+04  0.00000000000E+00 0. -1.
         22    1    1    2    0    0  0.66503677354E+02 -0.16829042800E+03  0.16568637138E+03  0.24534950768E+03  0.00000000000E+00 0.  1.
<mgrwt>
<rscale>  0 0.15081113E+04</rscale>
<asrwt>0</asrwt>
<pdfrwt beam="1">  1        2 0.41799419E+00 0.15081113E+04</pdfrwt>
<pdfrwt beam="2">  1       -2 0.32196588E-01 0.15081113E+04</pdfrwt>
<totfact> 0.22594070E+01</totfact>
</mgrwt>
</event>
<event>
 6    1  0.1614874E-005  0.3729077E+04  0.7818608E-02  0.8061548E-01
         -2   -1    0    0    0  501 -0.00000000000E+00  0.00000000000E+00  0.11995882223E+04  0.11995882223E+04  0.00000000000E+00 0.  1.
          2   -1    0    0  501    0  0.00000000000E+00 -0.00000000000E+00 -0.28980809654E+04  0.28980809654E+04  0.00000000000E+00 0. -1.
         23    2    1    2    0    0  0.58156557727E+03  0.91467261009E+03  0.81585024979E+03  0.13596470566E+04  0.90465374625E+02 0.  0.
         13    1    3    3    0    0  0.38989120498E+03  0.67978505561E+03  0.61199251693E+03  0.99431268439E+03  0.00000000000E+00 0.  1.
        -13    1    3    3    0    0  0.19167437230E+03  0.23488755448E+03  0.20385773286E+03  0.36533437218E+03  0.00000000000E+00 0. -1.
         22    1    1    2    0    0 -0.58156557727E+03 -0.91467261009E+03 -0.25143429930E+04  0.27380221311E+04  0.00000000000E+00 0. -1.
<mgrwt>
<rscale>  0 0.37290770E+04</rscale>
<asrwt>0</asrwt>
<pdfrwt beam="1">  1        2 0.44585860E+00 0.37290770E+04</pdfrwt>
<pdfrwt beam="2">  1       -2 0.18455204E+00 0.37290770E+04</pdfrwt>
<totfact> 0.27400354E-01</totfact>
</mgrwt>
</event>
<event>
 6    1  0.1614874E-005  0.9223566E+03  0.7818608E-02  0.9398058E-01
         -2   -1    0    0    0  501 -0.00000000000E+00  0.00000000000E+00  0.34128145995E+03  0.34128145995E+03  0.00000000000E+00 0.  1.
          2   -1    0    0  501    0  0.00000000000E+00 -0.00000000000E+00 -0.62319651161E+03  0.62319651161E+03  0.00000000000E+00 0. -1.
         23    2    1    2    0    0  0.18058263390E+03 -0.33268655966E+03  0.12328901182E+03  0.40996848768E+03  0.97895586284E+02 0.  0.
         11    1    3    3    0    0  0.46628314567E+02 -0.15619045409E+03  0.15996726293E+02  0.16378508150E+03  0.00000000000E+00 0.  1.
        -11    1    3    3    0    0  0.13395431933E+03 -0.17649610557E+03  0.10729228553E+03  0.24618340619E+03  0.00000000000E+00 0. -1.
         22    1    1    2    0    0 -0.18058263390E+03  0.33268655966E+03 -0.40520406348E+03  0.55450948387E+03  0.00000000000E+00 0. -1.
<mgrwt>
<rscale>  0 0.92235658E+03</rscale>
<asrwt>0</asrwt>
<pdfrwt beam="1">  1        2 0.95876385E-01 0.92235658E+03</pdfrwt>
<pdfrwt beam="2">  1       -2 0.52504841E-01 0.92235658E+03</pdfrwt>
<totfact> 0.16250146E+02</totfact>
</mgrwt>
</event>
<event>
 6    1  0.1614874E-005  0.1424239E+04  0.7818608E-02  0.8936458E-01
         -3   -1    0    0    0  501 -0.00000000000E+00  0.00000000000E+00  0.21531945897E+04  0.21531945897E+04  0.00000000000E+00 0.  1.
          3   -1    0    0  501    0  0.00000000000E+00 -0.00000000000E+00 -0.23551699458E+03  0.23551699458E+03  0.00000000000E+00 0. -1.
         23    2    1    2    0    0  0.13326416343E+03 -0.44689440475E+03  0.18589089982E+04  0.19186821233E+04  0.91238589426E+02 0.  0.
         13    1    3    3    0    0  0.89723523062E+02 -0.16681639594E+03  0.83935564343E+03  0.86046261785E+03  0.00000000000E+00 0. -1.
        -13    1    3    3    0    0  0.43540640368E+02 -0.28007800881E+03  0.10195533548E+04  0.10582195054E+04  0.00000000000E+00 0.  1.
         22    1    1    2    0    0 -0.13326416343E+03  0.44689440475E+03  0.58768596905E+02  0.47002946103E+03  0.00000000000E+00 0. -1.
<mgrwt>
<rscale>  0 0.14242386E+04</rscale>
<asrwt>0</asrwt>
<pdfrwt beam="1">  1        3 0.36233385E-01 0.14242386E+04</pdfrwt>
<pdfrwt beam="2">  1       -3 0.33126069E+00 0.14242386E+04</pdfrwt>
<totfact> 0.49241309E-01</totfact>
</mgrwt>
</event>
<event>
 6    1  0.1614874E-005  0.2865671E+04  0.7818608E-02  0.8283165E-01
         -2   -1    0    0    0  501 -0.00000000000E+00  0.00000000000E+00  0.91606789872E+03  0.91606789872E+03  0.00000000000E+00 0.  1.
          2   -1    0    0  501    0  0.00000000000E+00 -0.00000000000E+00 -0.22411188608E+04  0.22411188608E+04  0.00000000000E+00 0. -1.
         23    2    1    2    0    0 -0.39700701219E+03  0.27335444558E+03 -0.21481139595E+04  0.22033681614E+04  0.90002505163E+02 0.  0.
         13    1    3    3    0    0 -0.32528853081E+03  0.18500197491E+03 -0.17326792650E+04  0.17726296269E+04  0.00000000000E+00 0. -1.
        -13    1    3    3    0    0 -0.71718481383E+02  0.88352470661E+02 -0.41543469452E+03  0.43073853444E+03  0.00000000000E+00 0.  1.
         22    1    1    2    0    0  0.39700701219E+03 -0.27335444558E+03  0.82306299737E+03  0.95381859820E+03  0.00000000000E+00 0.  1.
<mgrwt>
<rscale>  0 0.28656706E+04</rscale>
<asrwt>0</asrwt>
<pdfrwt beam="1">  1        2 0.34478752E+00 0.28656706E+04</pdfrwt>
<pdfrwt beam="2">  1       -2 0.14093352E+00 0.28656706E+04</pdfrwt>
<totfact> 0.14955330E+00</totfact>
</mgrwt>
</event>
<event>
 6    1  0.1614874E-005  0.8268224E+03  0.7818608E-02  0.9521984E-01
         -1   -1    0    0    0  501 -0.00000000000E+00  0.00000000000E+00  0.55380553268E+03  0.55380553268E+03  0.00000000000E+00 0.  1.
          1   -1    0    0  501    0  0.00000000000E+00 -0.00000000000E+00 -0.30860800400E+03  0.30860800400E+03  0.00000000000E+00 0. -1.
         23    2    1    2    0    0 -0.35207920993E+03  0.15415457190E+03  0.26751365788E+03  0.47741819681E+03  0.92957922700E+02 0.  0.
         13    1    3    3    0    0 -0.18702161605E+02  0.15964179817E+02 -0.51348530569E+01  0.25119566115E+02  0.00000000000E+00 0. -1.
        -13    1    3    3    0    0 -0.33337704833E+03  0.13819039208E+03  0.27264851094E+03  0.45229863070E+03  0.00000000000E+00 0.  1.
         22    1    1    2    0    0  0.35207920993E+03 -0.15415457190E+03 -0.22316129196E+02  0.38499533987E+03  0.00000000000E+00 0. -1.
<mgrwt>
<rscale>  0 0.82682240E+03</rscale>
<asrwt>0</asrwt>
<pdfrwt beam="1">  1        1 0.47478155E-01 0.82682240E+03</pdfrwt>
<pdfrwt beam="2">  1       -1 0.85200851E-01 0.82682240E+03</pdfrwt>
<totfact> 0.11642249E+02</totfact>
</mgrwt>
</event>
<event>
 6    1  0.1614874E-005  0.3415663E+04  0.7818608E-02  0.8134073E-01
         -1   -1    0    0    0  501 -0.00000000000E+00  0.00000000000E+00  0.91111765859E+03  0.91111765859E+03  0.00000000000E+00 0.  1.
          1   -1    0    0  501    0  0.00000000000E+00 -0.00000000000E+00 -0.32012195749E+04  0.32012195749E+04  0.00000000000E+00 0. -1.
         23    2    1    2    0    0 -0.13291715009E+04  0.47074575288E+03  0.11591210241E+02  0.14130614618E+04  0.91158631640E+02 0.  0.
         11    1    3    3    0    0 -0.85020938356E+03  0.34492476476E+03 -0.61028685118E+01  0.91753274287E+03  0.00000000000E+00 0. -1.
        -11    1    3    3    0    0 -0.47896211734E+03  0.12582098811E+03  0.17694078753E+02  0.49552871896E+03  0.00000000000E+00 0.  1.
         22    1    1    2    0    0  0.13291715009E+04 -0.47074575288E+03 -0.23016931265E+04  0.26992757716E+04  0.00000000000E+00 0. -1.
<mgrwt>
<rscale>  0 0.34156626E+04</rscale>
<asrwt>0</asrwt>
<pdfrwt beam="1">  1        1 0.49249533E+00 0.34156626E+04</pdfrwt>
<pdfrwt beam="2">  1       -1 0.14017195E+00 0.34156626E+04</pdfrwt>
<totfact> 0.14546058E-01</totfact>
</mgrwt>
</event>
<event>
 6    1  0.1614874E-005  0.2703163E+04  0.7818608E-02  0.8333979E-01
         -1   -1    0    0    0  501 -0.00000000000E+00  0.00000000000E+00  0.83002863147E+03  0.83002863147E+03  0.00000000000E+00 0.  1.
          1   -1    0    0  501    0  0.00000000000E+00 -0.00000000000E+00 -0.22008548911E+04  0.22008548911E+04  0.00000000000E+00 0. -1.
         23    2    1    2    0    0  0.11823049177E+04  0.36810595894E+03 -0.83254402611E+02  0.12444938108E+04  0.92122929145E+02 0.  0.
         13    1    3    3    0    0  0.41887022815E+03  0.85890534591E+02 -0.39096350376E+02  0.42936927764E+03  0.00000000000E+00 0.  1.
        -13    1    3    3    0    0  0.76343468954E+03  0.28221542435E+03 -0.44158052234E+02  0.81512453313E+03  0.00000000000E+00 0. -1.
         22    1    1    2    0    0 -0.11823049177E+04 -0.36810595894E+03 -0.12875718570E+04  0.17863897118E+04  0.00000000000E+00 0. -1.
<mgrwt>
<rscale>  0 0.27031630E+04</rscale>
<asrwt>0</asrwt>
<pdfrwt beam="1">  1        1 0.33859306E+00 0.27031630E+04</pdfrwt>
<pdfrwt beam="2">  1       -1 0.12769671E+00 0.27031630E+04</pdfrwt>
<totfact> 0.10072668E+00</totfact>
</mgrwt>
</event>
<event>
 6    1  0.1614874E-005  0.8946151E+03  0.7818608E-02  0.9432338E-01
         -1   -1    0    0    0  501 -0.00000000000E+00  0.00000000000E+00  0.22679471975E+03  0.22679471975E+03  0.00000000000E+00 0.  1.
          1   -1    0    0  501    0  0.00000000000E+00 -0.00000000000E+00 -0.88222541553E+03  0.88222541553E+03  0.00000000000E+00 0. -1.
         23    2    1    2    0    0  0.33840884167E+02  0.18497090231E+03 -0.82823938391E+03  0.85363359914E+03  0.85734499339E+02 0.  0.
         13    1    3    3    0    0  0.14980813506E+02  0.56711513156E+02 -0.44973276050E+03  0.45354181325E+03  0.00000000000E+00 0.  1.
        -13    1    3    3    0    0  0.18860070660E+02  0.12825938916E+03 -0.37850662341E+03  0.40009178589E+03  0.00000000000E+00 0. -1.
         22    1    1    2    0    0 -0.33840884167E+02 -0.18497090231E+03  0.17280868814E+03  0.25538653614E+03  0.00000000000E+00 0.  1.
<mgrwt>
<rscale>  0 0.89461515E+03</rscale>
<asrwt>0</asrwt>
<pdfrwt beam="1">  1        1 0.13572699E+00 0.89461515E+03</pdfrwt>
<pdfrwt beam="2">  1       -1 0.34891495E-01 0.89461515E+03</pdfrwt>
<totfact> 0.14783906E+02</totfact>
</mgrwt>
</event>
<event>
 6    1  0.1614874E-005  0.1925423E+04  0.7818608E-02  0.8642304E-01
          2   -1    0    0  501    0  0.00000000000E+00  0.00000000000E+00  0.22504618505E+04  0.22504618505E+04  0.00000000000E+00 0. -1.
         -2   -1    0    0    0  501 -0.00000000000E+00 -0.00000000000E+00 -0.41183244520E+03  0.41183244520E+03  0.00000000000E+00 0.  1.
         23    2    1    2    0    0 -0.76976649758E+03 -0.20141595345E+03  0.17708198539E+03  0.82005417136E+03  0.89565435982E+02 0.  0.
         11    1    3    3    0    0 -0.42031849999E+03 -0.64793545712E+02  0.84547292119E+02  0.43360591510E+03  0.00000000000E+00 0. -1.
        -11    1    3    3    0    0 -0.34944799758E+03 -0.13662240774E+03  0.92534693274E+02  0.38644825627E+03  0.00000000000E+00 0.  1.
         22    1    1    2    0    0  0.76976649758E+03  0.20141595345E+03  0.16615474199E+04  0.18422401244E+04  0.00000000000E+00 0. -1.
<mgrwt>
<rscale>  0 0.19254228E+04</rscale>
<asrwt>0</asrwt>
<pdfrwt beam="1">  1        2 0.34622489E+00 0.19254228E+04</pdfrwt>
<pdfrwt beam="2">  1       -2 0.63358839E-01 0.19254228E+04</pdfrwt>
<totfact> 0.10427106E+01</totfact>
</mgrwt>
</event>
<event>
 6    1  0.1614874E-005  0.3579823E+04  0.7818608E-02  0.8095129E-01
         -1   -1    0    0    0  501 -0.00000000000E+00  0.00000000000E+00  0.14959796311E+04  0.14959796311E+04  0.00000000000E+00 0.  1.
          1   -1    0    0  501    0  0.00000000000E+00 -0.00000000000E+00 -0.21415953915E+04  0.21415953915E+04  0.00000000000E+00 0. -1.
         23    2    1    2    0    0  0.15625722624E+04 -0.77027577765E+03  0.89361334005E+02  0.17467687983E+04  0.90878697943E+02 0.  0.
         11    1    3    3    0    0  0.21738754731E+03 -0.77488082818E+02  0.27309808094E+02  0.23239529755E+03  0.00000000000E+00 0. -1.
        -11    1    3    3    0    0  0.13451847151E+04 -0.69278769483E+03  0.62051525911E+02  0.15143735007E+04  0.00000000000E+00 0.  1.
         22    1    1    2    0    0 -0.15625722624E+04  0.77027577765E+03 -0.73497709434E+03  0.18908062243E+04  0.00000000000E+00 0. -1.
<mgrwt>
<rscale>  0 0.35798229E+04</rscale>
<asrwt>0</asrwt>
<pdfrwt beam="1">  1        1 0.32947621E+00 0.35798229E+04</pdfrwt>
<pdfrwt beam="2">  1       -1 0.23015071E+00 0.35798229E+04</pdfrwt>
<totfact> 0.18224208E-01</totfact>
</mgrwt>
</event>
<event>
 6    1  0.1614874E-005  0.1516839E+04  0.7818608E-02  0.8873332E-01
         -1   -1    0    0    0  501 -0.00000000000E+00  0.00000000000E+00  0.37146865238E+03  0.37146865238E+03  0.00000000000E+00 0. -1.
          1   -1    0    0  501    0  0.00000000000E+00 -0.00000000000E+00 -0.15484487953E+04  0.15484487953E+04  0.00000000000E+00 0.  1.
         23    2    1    2    0    0 -0.20439246409E+03 -0.65860898794E+03 -0.98013939724E+03  0.12027784391E+04  0.10227735448E+03 0.  0.
         11    1    3    3    0    0 -0.76172800941E+02 -0.24096799643E+03 -0.44707540630E+03  0.51356040523E+03  0.00000000000E+00 0. -1.
        -11    1    3    3    0    0 -0.12821966315E+03 -0.41764099152E+03 -0.53306399094E+03  0.68921803390E+03  0.00000000000E+00 0.  1.
         22    1    1    2    0    0  0.20439246409E+03  0.65860898794E+03 -0.19684074563E+03  0.71713900850E+03  0.00000000000E+00 0. -1.
<mgrwt>
<rscale>  0 0.15168391E+04</rscale>
<asrwt>0</asrwt>
<pdfrwt beam="1">  1        1 0.23822289E+00 0.15168391E+04</pdfrwt>
<pdfrwt beam="2">  1       -1 0.57149024E-01 0.15168391E+04</pdfrwt>
<totfact> 0.18135436E+01</totfact>
</mgrwt>
</event>
<event>
 6    1  0.1931724E-005  0.1395385E+04  0.7818608E-02  0.8957166E-01
         -2   -1    0    0    0  501 -0.00000000000E+00  0.00000000000E+00  0.36233494755E+03  0.36233494755E+03  0.00000000000E+00 0.  1.
          2   -1    0    0  501    0  0.00000000000E+00 -0.00000000000E+00 -0.13434379301E+04  0.13434379301E+04  0.00000000000E+00 0. -1.
         23    2    1    2    0    0  0.19714698793E+03  0.14000948459E+03  0.30343300884E+03  0.39867597848E+03  0.91658902128E+02 0.  0.
         11    1    3    3    0    0  0.16532472057E+03  0.71635047484E+02  0.24014574234E+03  0.30022295186E+03  0.00000000000E+00 0.  1.
        -11    1    3    3    0    0  0.31822267355E+02  0.68374437110E+02  0.63287266504E+02  0.98453026623E+02  0.00000000000E+00 0. -1.
         22    1    1    2    0    0 -0.19714698793E+03 -0.14000948459E+03 -0.12845359914E+04  0.13070968992E+04  0.00000000000E+00 0. -1.
<mgrwt>
<rscale>  0 0.13953846E+04</rscale>
<asrwt>0</asrwt>
<pdfrwt beam="1">  1        2 0.20668276E+00 0.13953846E+04</pdfrwt>
<pdfrwt beam="2">  1       -2 0.55743838E-01 0.13953846E+04</pdfrwt>
<totfact> 0.45903693E+01</totfact>
</mgrwt>
</event>
<event>
 6    1  0.1614874E-005  0.3720040E+04  0.7818608E-02  0.8063535E-01
         -2   -1    0    0    0  501 -0.00000000000E+00  0.00000000000E+00  0.17426727291E+04  0.17426727291E+04  0.00000000000E+00 0.  1.
          2   -1    0    0  501    0  0.00000000000E+00 -0.00000000000E+00 -0.19852694021E+04  0.19852694021E+04  0.00000000000E+00 0. -1.
         23    2    1    2    0    0 -0.10464236156E+04 -0.30228007261E+03 -0.16307922191E+04  0.19634414937E+04  0.96143704133E+02 0.  0.
         13    1    3    3    0    0 -0.49248506527E+03 -0.12758380090E+03 -0.67950274403E+03  0.84884812829E+03  0.00000000000E+00 0.  1.
        -13    1    3    3    0    0 -0.55393855031E+03 -0.17469627171E+03 -0.95128947510E+03  0.11145933654E+04  0.00000000000E+00 0. -1.
         22    1    1    2    0    0  0.10464236156E+04  0.30228007261E+03  0.13881955461E+04  0.17645006375E+04  0.00000000000E+00 0.  1.
<mgrwt>
<rscale>  0 0.37200402E+04</rscale>
<asrwt>0</asrwt>
<pdfrwt beam="1">  1        2 0.30542606E+00 0.37200402E+04</pdfrwt>
<pdfrwt beam="2">  1       -2 0.26810350E+00 0.37200402E+04</pdfrwt>
<totfact> 0.27354339E-01</totfact>
</mgrwt>
</event>
<event>
 6    1  0.1614874E-005  0.1741901E+04  0.7818608E-02  0.8737821E-01
          1   -1    0    0  501    0  0.00000000000E+00  0.00000000000E+00  0.65758357306E+03  0.65758357306E+03  0.00000000000E+00 0. -1.
         -1   -1    0    0    0  501 -0.00000000000E+00 -0.00000000000E+00 -0.11535483068E+04  0.11535483068E+04  0.00000000000E+00 0.  1.
         23    2    1    2    0    0  0.43187488052E+03  0.75265132477E+03 -0.21023707115E+03  0.89754541640E+03  0.91587222444E+02 0.  0.
         13    1    3    3    0    0  0.12123475394E+03  0.29758070359E+03 -0.88027868652E+02  0.33316819531E+03  0.00000000000E+00 0.  1.
        -13    1    3    3    0    0  0.31064012658E+03  0.45507062119E+03 -0.12220920249E+03  0.56437722109E+03  0.00000000000E+00 0. -1.
         22    1    1    2    0    0 -0.43187488052E+03 -0.75265132477E+03 -0.28572766264E+03  0.91358646351E+03  0.00000000000E+00 0.  1.
<mgrwt>
<rscale>  0 0.17419006E+04</rscale>
<asrwt>0</asrwt>
<pdfrwt beam="1">  1        1 0.10116671E+00 0.17419006E+04</pdfrwt>
<pdfrwt beam="2">  1       -1 0.17746897E+00 0.17419006E+04</pdfrwt>
<totfact> 0.61605666E+00</totfact>
</mgrwt>
</event>
<event>
 6    1  0.1614874E-005  0.7221512E+03  0.7818608E-02  0.9680083E-01
         -2   -1    0    0    0  501 -0.00000000000E+00  0.00000000000E+00  0.25880348934E+03  0.25880348934E+03  0.00000000000E+00 0. -1.
          2   -1    0    0  501    0  0.00000000000E+00 -0.00000000000E+00 -0.50376280313E+03  0.50376280313E+03  0.00000000000E+00 0.  1.
         23    2    1    2    0    0  0.15992443423E+03 -0.31077145049E+03 -0.18818197649E+03  0.40847818884E+03  0.96370407144E+02 0.  0.
         13    1    3    3    0    0  0.37709489117E+02 -0.12286096995E+03 -0.11560874165E+03  0.17286470042E+03  0.00000000000E+00 0.  1.
        -13    1    3    3    0    0  0.12221494512E+03 -0.18791048055E+03 -0.72573234845E+02  0.23561348842E+03  0.00000000000E+00 0. -1.
         22    1    1    2    0    0 -0.15992443423E+03  0.31077145049E+03 -0.56777337297E+02  0.35408810363E+03  0.00000000000E+00 0. -1.
<mgrwt>
<rscale>  0 0.72215115E+03</rscale>
<asrwt>0</asrwt>
<pdfrwt beam="1">  1        2 0.77501970E-01 0.72215115E+03</pdfrwt>
<pdfrwt beam="2">  1       -2 0.39815921E-01 0.72215115E+03</pdfrwt>
<totfact> 0.36710235E+02</totfact>
</mgrwt>
</event>
<event>
 6    1  0.1614874E-005  0.3501690E+04  0.7818608E-02  0.8113390E-01
          1   -1    0    0  501    0  0.00000000000E+00  0.00000000000E+00  0.24435253747E+04  0.24435253747E+04  0.00000000000E+00 0.  1.
         -1   -1    0    0    0  501 -0.00000000000E+00 -0.00000000000E+00 -0.12545227082E+04  0.12545227082E+04  0.00000000000E+00 0. -1.
         23    2    1    2    0    0  0.14636275174E+04  0.95870295668E+03  0.59925701441E+03  0.18516687061E+04  0.90835890238E+02 0.  0.
         13    1    3    3    0    0  0.14290721976E+03  0.82340064863E+02  0.30771041202E+02  0.16777728308E+03  0.00000000000E+00 0. -1.
        -13    1    3    3    0    0  0.13207202977E+04  0.87636289182E+03  0.56848597321E+03  0.16838914230E+04  0.00000000000E+00 0.  1.
         22    1    1    2    0    0 -0.14636275174E+04 -0.95870295668E+03  0.58974565202E+03  0.18463793768E+04  0.00000000000E+00 0. -1.
<mgrwt>
<rscale>  0 0.35016899E+04</rscale>
<asrwt>0</asrwt>
<pdfrwt beam="1">  1        1 0.37592698E+00 0.35016899E+04</pdfrwt>
<pdfrwt beam="2">  1       -1 0.19300349E+00 0.35016899E+04</pdfrwt>
<totfact> 0.20354589E-01</totfact>
</mgrwt>
</event>
<event>
 6    1  0.1614874E-005  0.8296433E+03  0.7818608E-02  0.9518074E-01
          1   -1    0    0  501    0  0.00000000000E+00  0.00000000000E+00  0.16830553145E+04  0.16830553145E+04  0.00000000000E+00 0. -1.
         -1   -1    0    0    0  501 -0.00000000000E+00 -0.00000000000E+00 -0.10224084507E+03  0.10224084507E+03  0.00000000000E+00 0.  1.
         23    2    1    2    0    0  0.95125263370E+02  0.39819398880E+03  0.84697767730E+03  0.94498448767E+03  0.89538972730E+02 0.  0.
         13    1    3    3    0    0  0.33216612435E+01  0.14320425551E+03  0.36391722438E+03  0.39109364407E+03  0.00000000000E+00 0.  1.
        -13    1    3    3    0    0  0.91803602126E+02  0.25498973330E+03  0.48306045292E+03  0.55389084360E+03  0.00000000000E+00 0. -1.
         22    1    1    2    0    0 -0.95125263370E+02 -0.39819398880E+03  0.73383679216E+03  0.84031167193E+03  0.00000000000E+00 0.  1.
<mgrwt>
<rscale>  0 0.82964329E+03</rscale>
<asrwt>0</asrwt>
<pdfrwt beam="1">  1        1 0.25893157E+00 0.82964329E+03</pdfrwt>
<pdfrwt beam="2">  1       -1 0.15729362E-01 0.82964329E+03</pdfrwt>
<totfact> 0.15142337E+02</totfact>
</mgrwt>
</event>
<event>
 6    1  0.1614874E-005  0.2980697E+04  0.7818608E-02  0.8249265E-01
          2   -1    0    0  501    0  0.00000000000E+00  0.00000000000E+00  0.15714634439E+04  0.15714634439E+04  0.00000000000E+00 0. -1.
         -2   -1    0    0    0  501 -0.00000000000E+00 -0.00000000000E+00 -0.14134203348E+04  0.14134203348E+04  0.00000000000E+00 0.  1.
         23    2    1    2    0    0  0.57040749135E+01  0.34748516049E+03  0.15287390600E+04  0.15708166435E+04  0.98200512355E+02 0.  0.
         13    1    3    3    0    0 -0.26859834374E+02  0.30740904670E+03  0.13462075741E+04  0.13811215027E+04  0.00000000000E+00 0. -1.
        -13    1    3    3    0    0  0.32563909288E+02  0.40076113788E+02  0.18253148592E+03  0.18969514078E+03  0.00000000000E+00 0.  1.
         22    1    1    2    0    0 -0.57040749135E+01 -0.34748516049E+03 -0.13706959509E+04  0.14140671353E+04  0.00000000000E+00 0.  1.
<mgrwt>
<rscale>  0 0.29806968E+04</rscale>
<asrwt>0</asrwt>
<pdfrwt beam="1">  1        2 0.24176361E+00 0.29806968E+04</pdfrwt>
<pdfrwt beam="2">  1       -2 0.21744928E+00 0.29806968E+04</pdfrwt>
<totfact> 0.10178158E+00</totfact>
</mgrwt>
</event>
<event>
 6    1  0.1614874E-005  0.6643441E+03  0.7818608E-02  0.9780230E-01
         -1   -1    0    0    0  501 -0.00000000000E+00  0.00000000000E+00  0.13330735768E+03  0.13330735768E+03  0.00000000000E+00 0.  1.
          1   -1    0    0  501    0  0.00000000000E+00 -0.00000000000E+00 -0.82769816499E+03  0.82769816499E+03  0.00000000000E+00 0. -1.
         23    2    1    2    0    0  0.25035992535E+03  0.15044290756E+03 -0.56331543952E+03  0.64085881771E+03  0.89791865893E+02 0.  0.
         11    1    3    3    0    0  0.14995859199E+03  0.13656081755E+03 -0.34588764270E+03  0.40096720262E+03  0.00000000000E+00 0.  1.
        -11    1    3    3    0    0  0.10040133336E+03  0.13882090013E+02 -0.21742779681E+03  0.23989161509E+03  0.00000000000E+00 0. -1.
         22    1    1    2    0    0 -0.25035992535E+03 -0.15044290756E+03 -0.13107536780E+03  0.32014670496E+03  0.00000000000E+00 0.  1.
<mgrwt>
<rscale>  0 0.66434405E+03</rscale>
<asrwt>0</asrwt>
<pdfrwt beam="1">  1        1 0.12733818E+00 0.66434405E+03</pdfrwt>
<pdfrwt beam="2">  1       -1 0.20508824E-01 0.66434405E+03</pdfrwt>
<totfact> 0.41495324E+02</totfact>
</mgrwt>
</event>
<event>
 6    1  0.1614874E-005  0.3633719E+04  0.7818608E-02  0.8082811E-01
          2   -1    0    0  501    0  0.00000000000E+00  0.00000000000E+00  0.25846690385E+04  0.25846690385E+04  0.00000000000E+00 0. -1.
         -2   -1    0    0    0  501 -0.00000000000E+00 -0.00000000000E+00 -0.12771380707E+04  0.12771380707E+04  0.00000000000E+00 0.  1.
         23    2    1    2    0    0  0.99758702272E+03 -0.12066563669E+04 -0.32205912583E+03  0.16019922211E+04  0.10703990037E+03 0.  0.
         13    1    3    3    0    0  0.34948993901E+03 -0.35843420346E+03 -0.13197529055E+03  0.51772171386E+03  0.00000000000E+00 0.  1.
        -13    1    3    3    0    0  0.64809708371E+03 -0.84822216340E+03 -0.19008383528E+03  0.10842705072E+04  0.00000000000E+00 0. -1.
         22    1    1    2    0    0 -0.99758702272E+03  0.12066563669E+04  0.16295900936E+04  0.22598148881E+04  0.00000000000E+00 0. -1.
<mgrwt>
<rscale>  0 0.36337194E+04</rscale>
<asrwt>0</asrwt>
<pdfrwt beam="1">  1        2 0.39764139E+00 0.36337194E+04</pdfrwt>
<pdfrwt beam="2">  1       -2 0.19648278E+00 0.36337194E+04</pdfrwt>
<totfact> 0.35425281E-01</totfact>
</mgrwt>
</event>
<event>
 6    1  0.1614874E-005  0.4130224E+04  0.7818608E-02  0.7978779E-01
          1   -1    0    0  501    0  0.00000000000E+00  0.00000000000E+00  0.25291920393E+04  0.25291920393E+04  0.00000000000E+00 0. -1.
         -1   -1    0    0    0  501 -0.00000000000E+00 -0.00000000000E+00 -0.16861856825E+04  0.16861856825E+04  0.00000000000E+00 0.  1.
         23    2    1    2    0    0  0.12416879794E+04 -0.49108873636E+03 -0.11847017079E+04  0.17875068067E+04  0.93301993332E+02 0.  0.
         13    1    3    3    0    0  0.43608775047E+03 -0.17040210394E+03 -0.35684511289E+03  0.58868313865E+03  0.00000000000E+00 0. -1.
        -13    1    3    3    0    0  0.80560022897E+03 -0.32068663242E+03 -0.82785659497E+03  0.11988236680E+04  0.00000000000E+00 0.  1.
         22    1    1    2    0    0 -0.12416879794E+04  0.49108873636E+03  0.20277080646E+04  0.24278709152E+04  0.00000000000E+00 0. -1.
<mgrwt>
<rscale>  0 0.41302239E+04</rscale>
<asrwt>0</asrwt>
<pdfrwt beam="1">  1        1 0.38910647E+00 0.41302239E+04</pdfrwt>
<pdfrwt beam="2">  1       -1 0.25941318E+00 0.41302239E+04</pdfrwt>
<totfact> 0.60604427E-02</totfact>
</mgrwt>
</event>
<event>
 6    1  0.1614874E-005  0.3240107E+04  0.7818608E-02  0.8178305E-01
         -2   -1    0    0    0  501 -0.00000000000E+00  0.00000000000E+00  0.13292596596E+04  0.13292596596E+04  0.00000000000E+00 0.  1.
          2   -1    0    0  501    0  0.00000000000E+00 -0.00000000000E+00 -0.19744622443E+04  0.19744622443E+04  0.00000000000E+00 0. -1.
         23    2    1    2    0    0 -0.15973785856E+04 -0.17438502466E+03 -0.52236145532E+03  0.16921641403E+04  0.92355320122E+02 0.  0.
         11    1    3    3    0    0 -0.15183778132E+04 -0.15384120088E+03 -0.47797996584E+03  0.15992508079E+04  0.00000000000E+00 0. -1.
        -11    1    3    3    0    0 -0.79000772356E+02 -0.20543823784E+02 -0.44381489479E+02  0.92913332396E+02  0.00000000000E+00 0.  1.
         22    1    1    2    0    0  0.15973785856E+04  0.17438502466E+03 -0.12284112940E+03  0.16115577636E+04  0.00000000000E+00 0.  1.
<mgrwt>
<rscale>  0 0.32401068E+04</rscale>
<asrwt>0</asrwt>
<pdfrwt beam="1">  1        2 0.30376342E+00 0.32401068E+04</pdfrwt>
<pdfrwt beam="2">  1       -2 0.20450149E+00 0.32401068E+04</pdfrwt>
<totfact> 0.72015321E-01</totfact>
</mgrwt>
</event>
<event>
 6    1  0.1614874E-005  0.2621851E+04  0.7818608E-02  0.8360817E-01
         -1   -1    0    0    0  501 -0.00000000000E+00  0.00000000000E+00  0.97830251335E+03  0.97830251335E+03  0.00000000000E+00 0.  1.
          1   -1    0    0  501    0  0.00000000000E+00 -0.00000000000E+00 -0.17566399574E+04  0.17566399574E+04  0.00000000000E+00 0. -1.
         23    2    1    2    0    0  0.54305472211E+03 -0.88019586053E+03 -0.12272094021E+04  0.16074943704E+04  0.91334824402E+02 0.  0.
         13    1    3    3    0    0  0.26759225562E+03 -0.49364631925E+03 -0.71572761266E+03  0.90970232456E+03  0.00000000000E+00 0. -1.
        -13    1    3    3    0    0  0.27546246649E+03 -0.38654954128E+03 -0.51148178945E+03  0.69779204585E+03  0.00000000000E+00 0.  1.
         22    1    1    2    0    0 -0.54305472211E+03  0.88019586053E+03  0.44887195810E+03  0.11274481003E+04  0.00000000000E+00 0.  1.
<mgrwt>
<rscale>  0 0.26218507E+04</rscale>
<asrwt>0</asrwt>
<pdfrwt beam="1">  1        1 0.27025230E+00 0.26218507E+04</pdfrwt>
<pdfrwt beam="2">  1       -1 0.15050808E+00 0.26218507E+04</pdfrwt>
<totfact> 0.13252009E+00</totfact>
</mgrwt>
</event>
<event>
 6    1  0.1614874E-005  0.8168255E+03  0.7818608E-02  0.9535977E-01
          2   -1    0    0  501    0  0.00000000000E+00  0.00000000000E+00  0.20504227239E+04  0.20504227239E+04  0.00000000000E+00 0. -1.
         -2   -1    0    0    0  501 -0.00000000000E+00 -0.00000000000E+00 -0.81349555127E+02  0.81349555127E+02  0.00000000000E+00 0.  1.
         23    2    1    2    0    0 -0.35954403085E+03  0.12899948165E+02  0.52487568622E+03  0.64343606453E+03  0.95274153698E+02 0.  0.
         11    1    3    3    0    0 -0.28584890749E+03  0.40043820719E+02  0.45198927645E+03  0.53629041714E+03  0.00000000000E+00 0. -1.
        -11    1    3    3    0    0 -0.73695123358E+02 -0.27143872554E+02  0.72886409772E+02  0.10714564738E+03  0.00000000000E+00 0.  1.
         22    1    1    2    0    0  0.35954403085E+03 -0.12899948165E+02  0.14441974825E+04  0.14883362145E+04  0.00000000000E+00 0. -1.
<mgrwt>
<rscale>  0 0.81682551E+03</rscale>
<asrwt>0</asrwt>
<pdfrwt beam="1">  1        2 0.31544961E+00 0.81682551E+03</pdfrwt>
<pdfrwt beam="2">  1       -2 0.12515318E-01 0.81682551E+03</pdfrwt>
<totfact> 0.30309392E+02</totfact>
</mgrwt>
</event>
<event>
 6    1  0.1614874E-005  0.2110387E+04  0.7818608E-02  0.8556682E-01
         -2   -1    0    0    0  501 -0.00000000000E+00  0.00000000000E+00  0.11717088402E+04  0.11717088402E+04  0.00000000000E+00 0.  1.
          2   -1    0    0  501    0  0.00000000000E+00 -0.00000000000E+00 -0.95026434591E+03  0.95026434591E+03  0.00000000000E+00 0. -1.
         23    2    1    2    0    0  0.41892578725E+02  0.10451162596E+04 -0.15536763933E+02  0.10495072888E+04  0.84859730910E+02 0.  0.
         13    1    3    3    0    0  0.47749746484E+02  0.27135257098E+03  0.17851798605E+01  0.27552757201E+03  0.00000000000E+00 0.  1.
        -13    1    3    3    0    0 -0.58571677592E+01  0.77376368861E+03 -0.17321943794E+02  0.77397971676E+03  0.00000000000E+00 0. -1.
         22    1    1    2    0    0 -0.41892578725E+02 -0.10451162596E+04  0.23698125822E+03  0.10724658973E+04  0.00000000000E+00 0. -1.
<mgrwt>
<rscale>  0 0.21103868E+04</rscale>
<asrwt>0</asrwt>
<pdfrwt beam="1">  1        2 0.14619451E+00 0.21103868E+04</pdfrwt>
<pdfrwt beam="2">  1       -2 0.18026290E+00 0.21103868E+04</pdfrwt>
<totfact> 0.45109805E+00</totfact>
</mgrwt>
</event>
<event>
 6    1  0.1614874E-005  0.5296569E+04  0.7818608E-02  0.7784319E-01
          2   -1    0    0  501    0  0.00000000000E+00  0.00000000000E+00  0.20009091763E+04  0.20009091763E+04  0.00000000000E+00 0. -1.
         -2   -1    0    0    0  501 -0.00000000000E+00 -0.00000000000E+00 -0.35051125466E+04  0.35051125466E+04  0.00000000000E+00 0.  1.
         23    2    1    2    0    0 -0.28989272330E+03 -0.17866615816E+04 -0.27608491516E+04  0.33025344827E+04  0.90821656628E+02 0.  0.
         13    1    3    3    0    0 -0.56197014262E+01 -0.20871276989E+03 -0.30406308922E+03  0.36884544675E+03  0.00000000000E+00 0. -1.
        -13    1    3    3    0    0 -0.28427302187E+03 -0.15779488117E+04 -0.24567860624E+04  0.29336890359E+04  0.00000000000E+00 0.  1.
         22    1    1    2    0    0  0.28989272330E+03  0.17866615816E+04  0.12566457814E+04  0.22034872402E+04  0.00000000000E+00 0. -1.
<mgrwt>
<rscale>  0 0.52965694E+04</rscale>
<asrwt>0</asrwt>
<pdfrwt beam="1">  1        2 0.30783218E+00 0.52965694E+04</pdfrwt>
<pdfrwt beam="2">  1       -2 0.53924808E+00 0.52965694E+04</pdfrwt>
<totfact> 0.46733751E-03</totfact>
</mgrwt>
</event>
<event>
 6    1  0.1614874E-005  0.6138655E+04  0.7818608E-02  0.7673444E-01
         -2   -1    0    0    0  501 -0.00000000000E+00  0.00000000000E+00  0.32804053608E+04  0.32804053608E+04  0.00000000000E+00 0.  1.
          2   -1    0    0  501    0  0.00000000000E+00 -0.00000000000E+00 -0.28718316745E+04  0.28718316745E+04  0.00000000000E+00 0. -1.
         23    2    1    2    0    0  0.21303206513E+04  0.19542952101E+04 -0.82708173088E+03  0.30082936268E+04  0.90722158268E+02 0.  0.
         11    1    3    3    0    0  0.89052147300E+03  0.76818417484E+03 -0.30896240354E+03  0.12159741721E+04  0.00000000000E+00 0.  1.
        -11    1    3    3    0    0  0.12397991783E+04  0.11861110352E+04 -0.51811932734E+03  0.17923194547E+04  0.00000000000E+00 0. -1.
         22    1    1    2    0    0 -0.21303206513E+04 -0.19542952101E+04  0.12356554172E+04  0.31439434084E+04  0.00000000000E+00 0. -1.
<mgrwt>
<rscale>  0 0.61386552E+04</rscale>
<asrwt>0</asrwt>
<pdfrwt beam="1">  1        2 0.44182026E+00 0.61386552E+04</pdfrwt>
<pdfrwt beam="2">  1       -2 0.50467774E+00 0.61386552E+04</pdfrwt>
<totfact> 0.21762859E-03</totfact>
</mgrwt>
</event>
<event>
 6    1  0.1614874E-005  0.2977387E+04  0.7818608E-02  0.8250218E-01
         -3   -1    0    0    0  501 -0.00000000000E+00  0.00000000000E+00  0.79310317719E+03  0.79310317719E+03  0.00000000000E+00 0.  1.
          3   -1    0    0  501    0  0.00000000000E+00 -0.00000000000E+00 -0.27943496812E+04  0.27943496812E+04  0.00000000000E+00 0. -1.
         23    2    1    2    0    0 -0.16310302071E+02 -0.90270477637E+03  0.42278784438E+03  0.10007397971E+04  0.87112805911E+02 0.  0.
         11    1    3    3    0    0 -0.40079040634E+02 -0.78375195392E+03  0.38158814395E+03  0.87262991376E+03  0.00000000000E+00 0. -1.
        -11    1    3    3    0    0  0.23768738563E+02 -0.11895282244E+03  0.41199700430E+02  0.12810988336E+03  0.00000000000E+00 0.  1.
         22    1    1    2    0    0  0.16310302071E+02  0.90270477637E+03 -0.24240343484E+04  0.25867130613E+04  0.00000000000E+00 0. -1.
<mgrwt>
<rscale>  0 0.29773865E+04</rscale>
<asrwt>0</asrwt>
<pdfrwt beam="1">  1        3 0.42989995E+00 0.29773865E+04</pdfrwt>
<pdfrwt beam="2">  1       -3 0.12201587E+00 0.29773865E+04</pdfrwt>
<totfact> 0.93671834E-03</totfact>
</mgrwt>
</event>
<event>
 6    1  0.1614874E-005  0.3568622E+04  0.7818608E-02  0.8097717E-01
          2   -1    0    0  501    0  0.00000000000E+00  0.00000000000E+00  0.22284305608E+04  0.22284305608E+04  0.00000000000E+00 0. -1.
         -2   -1    0    0    0  501 -0.00000000000E+00 -0.00000000000E+00 -0.14287033346E+04  0.14287033346E+04  0.00000000000E+00 0.  1.
         23    2    1    2    0    0 -0.71714865538E+03 -0.21156512531E+03  0.20592208252E+04  0.21924202299E+04  0.85170777499E+02 0.  0.
         11    1    3    3    0    0 -0.21138230106E+03 -0.24348592284E+02  0.54879780045E+03  0.58860373505E+03  0.00000000000E+00 0. -1.
        -11    1    3    3    0    0 -0.50576635433E+03 -0.18721653303E+03  0.15104230247E+04  0.16038164948E+04  0.00000000000E+00 0.  1.
         22    1    1    2    0    0  0.71714865538E+03  0.21156512531E+03 -0.12594935990E+04  0.14647136656E+04  0.00000000000E+00 0.  1.
<mgrwt>
<rscale>  0 0.35686222E+04</rscale>
<asrwt>0</asrwt>
<pdfrwt beam="1">  1        2 0.34283547E+00 0.35686222E+04</pdfrwt>
<pdfrwt beam="2">  1       -2 0.21980051E+00 0.35686222E+04</pdfrwt>
<totfact> 0.40311254E-01</totfact>
</mgrwt>
</event>
<event>
 6    1  0.1614874E-005  0.2471494E+04  0.7818608E-02  0.8413212E-01
         -2   -1    0    0    0  501 -0.00000000000E+00  0.00000000000E+00  0.14545661882E+04  0.14545661882E+04  0.00000000000E+00 0.  1.
          2   -1    0    0  501    0  0.00000000000E+00 -0.00000000000E+00 -0.10498456920E+04  0.10498456920E+04  0.00000000000E+00 0. -1.
         23    2    1    2    0    0 -0.61950413691E+03 -0.49141009267E+03  0.11626367660E+04  0.14091008163E+04  0.92582969089E+02 0.  0.
         13    1    3    3    0    0 -0.61411204752E+02 -0.88411380638E+02  0.16526804814E+03  0.19723446968E+03  0.00000000000E+00 0. -1.
        -13    1    3    3    0    0 -0.55809293216E+03 -0.40299871203E+03  0.99736871783E+03  0.12118663466E+04  0.00000000000E+00 0.  1.
         22    1    1    2    0    0  0.61950413691E+03  0.49141009267E+03 -0.75791626972E+03  0.10953110639E+04  0.00000000000E+00 0. -1.
<mgrwt>
<rscale>  0 0.24714935E+04</rscale>
<asrwt>0</asrwt>
<pdfrwt beam="1">  1        2 0.16151472E+00 0.24714935E+04</pdfrwt>
<pdfrwt beam="2">  1       -2 0.22377941E+00 0.24714935E+04</pdfrwt>
<totfact> 0.19577149E+00</totfact>
</mgrwt>
</event>
<event>
 6    1  0.2327580E-005  0.3382335E+04  0.7818608E-02  0.8142256E-01
          1   -1    0    0  501    0  0.00000000000E+00  0.00000000000E+00  0.27410455755E+04  0.27410455755E+04  0.00000000000E+00 0. -1.
         -1   -1    0    0    0  501 -0.00000000000E+00 -0.00000000000E+00 -0.10434147141E+04  0.10434147141E+04  0.00000000000E+00 0.  1.
         23    2    1    2    0    0 -0.57256225780E+03  0.13942156741E+03 -0.92270161512E+03  0.10986814083E+04  0.91960066221E+02 0.  0.
         13    1    3    3    0    0 -0.17100966638E+03  0.71204496169E+02 -0.34873720157E+03  0.39488228883E+03  0.00000000000E+00 0.  1.
        -13    1    3    3    0    0 -0.40155259141E+03  0.68217071240E+02 -0.57396441356E+03  0.70379911943E+03  0.00000000000E+00 0. -1.
         22    1    1    2    0    0  0.57256225780E+03 -0.13942156741E+03  0.26203324765E+04  0.26857788814E+04  0.00000000000E+00 0. -1.
<mgrwt>
<rscale>  0 0.33823349E+04</rscale>
<asrwt>0</asrwt>
<pdfrwt beam="1">  1        1 0.42169932E+00 0.33823349E+04</pdfrwt>
<pdfrwt beam="2">  1       -1 0.16052534E+00 0.33823349E+04</pdfrwt>
<totfact> 0.21888567E-01</totfact>
</mgrwt>
</event>
<event>
 6    1  0.1614874E-005  0.3068244E+04  0.7818608E-02  0.8224507E-01
         -2   -1    0    0    0  501 -0.00000000000E+00  0.00000000000E+00  0.14942243872E+04  0.14942243872E+04  0.00000000000E+00 0.  1.
          2   -1    0    0  501    0  0.00000000000E+00 -0.00000000000E+00 -0.15750853065E+04  0.15750853065E+04  0.00000000000E+00 0. -1.
         23    2    1    2    0    0  0.59684736302E+03  0.17867744831E+03  0.13604471512E+04  0.14991118209E+04  0.91473466863E+02 0.  0.
         11    1    3    3    0    0  0.18529906279E+03  0.58727909020E+02  0.53059884891E+03  0.56508393044E+03  0.00000000000E+00 0. -1.
        -11    1    3    3    0    0  0.41154830023E+03  0.11994953929E+03  0.82984830231E+03  0.93402789051E+03  0.00000000000E+00 0.  1.
         22    1    1    2    0    0 -0.59684736302E+03 -0.17867744831E+03 -0.14413080706E+04  0.15701978727E+04  0.00000000000E+00 0. -1.
<mgrwt>
<rscale>  0 0.30682444E+04</rscale>
<asrwt>0</asrwt>
<pdfrwt beam="1">  1        2 0.24232082E+00 0.30682444E+04</pdfrwt>
<pdfrwt beam="2">  1       -2 0.22988068E+00 0.30682444E+04</pdfrwt>
<totfact> 0.83965175E-01</totfact>
</mgrwt>
</event>
<event>
 6    1  0.1614874E-005  0.2560989E+04  0.7818608E-02  0.8381574E-01
          1   -1    0    0  501    0  0.00000000000E+00  0.00000000000E+00  0.20576576369E+04  0.20576576369E+04  0.00000000000E+00 0. -1.
         -1   -1    0    0    0  501 -0.00000000000E+00 -0.00000000000E+00 -0.79686038332E+03  0.79686038332E+03  0.00000000000E+00 0.  1.
         23    2    1    2    0    0  0.29893114602E+03 -0.61775941468E+03  0.18340112024E+04  0.19603364080E+04  0.91297413333E+02 0.  0.
         11    1    3    3    0    0  0.18490196121E+03 -0.40753546318E+03  0.13099304656E+04  0.13842657670E+04  0.00000000000E+00 0.  1.
        -11    1    3    3    0    0  0.11402918481E+03 -0.21022395150E+03  0.52408073675E+03  0.57607064099E+03  0.00000000000E+00 0. -1.
         22    1    1    2    0    0 -0.29893114602E+03  0.61775941468E+03 -0.57321394880E+03  0.89418161220E+03  0.00000000000E+00 0.  1.
<mgrwt>
<rscale>  0 0.25609888E+04</rscale>
<asrwt>0</asrwt>
<pdfrwt beam="1">  1        1 0.31656271E+00 0.25609888E+04</pdfrwt>
<pdfrwt beam="2">  1       -1 0.12259391E+00 0.25609888E+04</pdfrwt>
<totfact> 0.14130319E+00</totfact>
</mgrwt>
</event>
<event>
 6    1  0.1614874E-005  0.4821298E+04  0.7818608E-02  0.7856681E-01
          2   -1    0    0  501    0  0.00000000000E+00  0.00000000000E+00  0.33579381299E+04  0.33579381299E+04  0.00000000000E+00 0. -1.
         -2   -1    0    0    0  501 -0.00000000000E+00 -0.00000000000E+00 -0.17305945034E+04  0.17305945034E+04  0.00000000000E+00 0.  1.
         23    2    1    2    0    0 -0.87036179991E+03  0.22404265073E+04  0.99694413081E+03  0.26036897566E+04  0.90896378178E+02 0.  0.
         11    1    3    3    0    0 -0.29036998754E+03  0.86688333739E+03  0.38839617816E+03  0.99330410324E+03  0.00000000000E+00 0. -1.
        -11    1    3    3    0    0 -0.57999181237E+03  0.13735431699E+04  0.60854795266E+03  0.16103856534E+04  0.00000000000E+00 0.  1.
         22    1    1    2    0    0  0.87036179991E+03 -0.22404265073E+04  0.63039949571E+03  0.24848428766E+04  0.00000000000E+00 0. -1.
<mgrwt>
<rscale>  0 0.48212983E+04</rscale>
<asrwt>0</asrwt>
<pdfrwt beam="1">  1        2 0.51660586E+00 0.48212983E+04</pdfrwt>
<pdfrwt beam="2">  1       -2 0.26624531E+00 0.48212983E+04</pdfrwt>
<totfact> 0.38366167E-02</totfact>
</mgrwt>
</event>
<event>
 6    1  0.1614874E-005  0.2042676E+04  0.7818608E-02  0.8586924E-01
         -1   -1    0    0    0  501 -0.00000000000E+00  0.00000000000E+00  0.10936964346E+04  0.10936964346E+04  0.00000000000E+00 0.  1.
          1   -1    0    0  501    0  0.00000000000E+00 -0.00000000000E+00 -0.95376717326E+03  0.95376717326E+03  0.00000000000E+00 0. -1.
         23    2    1    2    0    0 -0.14142187917E+03 -0.66927230931E+03 -0.68743089884E+03  0.97394117840E+03  0.89858813649E+02 0.  0.
         11    1    3    3    0    0 -0.97428866529E+01 -0.21852963298E+03 -0.24989669876E+03  0.33211215633E+03  0.00000000000E+00 0. -1.
        -11    1    3    3    0    0 -0.13167899252E+03 -0.45074267633E+03 -0.43753420008E+03  0.64182902207E+03  0.00000000000E+00 0.  1.
         22    1    1    2    0    0  0.14142187917E+03  0.66927230931E+03  0.82736016022E+03  0.10735224295E+04  0.00000000000E+00 0.  1.
<mgrwt>
<rscale>  0 0.20426764E+04</rscale>
<asrwt>0</asrwt>
<pdfrwt beam="1">  1        1 0.14673341E+00 0.20426764E+04</pdfrwt>
<pdfrwt beam="2">  1       -1 0.16826099E+00 0.20426764E+04</pdfrwt>
<totfact> 0.38557512E+00</totfact>
</mgrwt>
</event>
<event>
 6    1  0.1614874E-005  0.1405000E+04  0.7818608E-02  0.8950207E-01
         -2   -1    0    0    0  501 -0.00000000000E+00  0.00000000000E+00  0.36717957285E+03  0.36717957285E+03  0.00000000000E+00 0. -1.
          2   -1    0    0  501    0  0.00000000000E+00 -0.00000000000E+00 -0.13440465120E+04  0.13440465120E+04  0.00000000000E+00 0.  1.
         23    2    1    2    0    0  0.44558967120E+03  0.27562518114E+03 -0.10555754450E+04  0.11814011850E+04  0.83365725932E+02 0.  0.
         11    1    3    3    0    0  0.26640765091E+03  0.21166709726E+03 -0.68232653568E+03  0.76246016146E+03  0.00000000000E+00 0. -1.
        -11    1    3    3    0    0  0.17918202028E+03  0.63958083879E+02 -0.37324890933E+03  0.41894102354E+03  0.00000000000E+00 0.  1.
         22    1    1    2    0    0 -0.44558967120E+03 -0.27562518114E+03  0.78708505893E+02  0.52982489981E+03  0.00000000000E+00 0. -1.
<mgrwt>
<rscale>  0 0.14050002E+04</rscale>
<asrwt>0</asrwt>
<pdfrwt beam="1">  1        2 0.20677639E+00 0.14050002E+04</pdfrwt>
<pdfrwt beam="2">  1       -2 0.56489164E-01 0.14050002E+04</pdfrwt>
<totfact> 0.44580439E+01</totfact>
</mgrwt>
</event>
<event>
 6    1  0.1614874E-005  0.7769881E+03  0.7818608E-02  0.9593936E-01
         -2   -1    0    0    0  501 -0.00000000000E+00  0.00000000000E+00  0.21079056892E+03  0.21079056892E+03  0.00000000000E+00 0.  1.
          2   -1    0    0  501    0  0.00000000000E+00 -0.00000000000E+00 -0.71600754421E+03  0.71600754421E+03  0.00000000000E+00 0. -1.
         23    2    1    2    0    0  0.17325690476E+03  0.77326593735E+02  0.14092285790E+03  0.25337845112E+03  0.91345664760E+02 0.  0.
         13    1    3    3    0    0  0.88814312978E+02  0.81888186636E+02  0.54714110152E+02  0.13261708468E+03  0.00000000000E+00 0. -1.
        -13    1    3    3    0    0  0.84442591781E+02 -0.45615929014E+01  0.86208747747E+02  0.12076136644E+03  0.00000000000E+00 0.  1.
         22    1    1    2    0    0 -0.17325690476E+03 -0.77326593735E+02 -0.64613983319E+03  0.67341966201E+03  0.00000000000E+00 0. -1.
<mgrwt>
<rscale>  0 0.77698813E+03</rscale>
<asrwt>0</asrwt>
<pdfrwt beam="1">  1        2 0.11015501E+00 0.77698813E+03</pdfrwt>
<pdfrwt beam="2">  1       -2 0.32429318E-01 0.77698813E+03</pdfrwt>
<totfact> 0.35450211E+02</totfact>
</mgrwt>
</event>
<event>
 6    1  0.1614874E-005  0.2090506E+04  0.7818608E-02  0.8565437E-01
         -2   -1    0    0    0  501 -0.00000000000E+00  0.00000000000E+00  0.48201056802E+03  0.48201056802E+03  0.00000000000E+00 0.  1.
          2   -1    0    0  501    0  0.00000000000E+00 -0.00000000000E+00 -0.22666584243E+04  0.22666584243E+04  0.00000000000E+00 0. -1.
         23    2    1    2    0    0  0.47466824215E+03  0.35632239221E+03 -0.20221633946E+04  0.21093809366E+04  0.89819563483E+02 0.  0.
         13    1    3    3    0    0  0.28441403519E+03  0.16658699599E+03 -0.11985541966E+04  0.12430505753E+04  0.00000000000E+00 0. -1.
        -13    1    3    3    0    0  0.19025420695E+03  0.18973539622E+03 -0.82360919804E+03  0.86633036131E+03  0.00000000000E+00 0.  1.
         22    1    1    2    0    0 -0.47466824215E+03 -0.35632239221E+03  0.23751553828E+03  0.63928805574E+03  0.00000000000E+00 0.  1.
<mgrwt>
<rscale>  0 0.20905055E+04</rscale>
<asrwt>0</asrwt>
<pdfrwt beam="1">  1        2 0.34871668E+00 0.20905055E+04</pdfrwt>
<pdfrwt beam="2">  1       -2 0.74155472E-01 0.20905055E+04</pdfrwt>
<totfact> 0.71507904E+00</totfact>
</mgrwt>
</event>
<event>
 6    1  0.1614874E-005  0.6081819E+04  0.7818608E-02  0.7680339E-01
         -2   -1    0    0    0  501 -0.00000000000E+00  0.00000000000E+00  0.18753528757E+04  0.18753528757E+04  0.00000000000E+00 0.  1.
          2   -1    0    0  501    0  0.00000000000E+00 -0.00000000000E+00 -0.49308743539E+04  0.49308743539E+04  0.00000000000E+00 0. -1.
         23    2    1    2    0    0 -0.33524713402E+02  0.25245436913E+04  0.36723687283E+03  0.25530261427E+04  0.92923672637E+02 0.  0.
         11    1    3    3    0    0 -0.60490784445E+02  0.15950203556E+04  0.25378661104E+03  0.16162167905E+04  0.00000000000E+00 0.  1.
        -11    1    3    3    0    0  0.26966071043E+02  0.92952333571E+03  0.11345026179E+03  0.93680935228E+03  0.00000000000E+00 0. -1.
         22    1    1    2    0    0  0.33524713402E+02 -0.25245436913E+04 -0.34227583510E+04  0.42532010868E+04  0.00000000000E+00 0. -1.
<mgrwt>
<rscale>  0 0.60818186E+04</rscale>
<asrwt>0</asrwt>
<pdfrwt beam="1">  1        2 0.75859605E+00 0.60818186E+04</pdfrwt>
<pdfrwt beam="2">  1       -2 0.28851583E+00 0.60818186E+04</pdfrwt>
<totfact> 0.10242197E-03</totfact>
</mgrwt>
</event>
<event>
 6    1  0.1614874E-005  0.1366075E+04  0.7818608E-02  0.8978748E-01
          2   -1    0    0  501    0  0.00000000000E+00  0.00000000000E+00  0.28262135400E+04  0.28262135400E+04  0.00000000000E+00 0.  1.
         -2   -1    0    0    0  501 -0.00000000000E+00 -0.00000000000E+00 -0.16507610656E+03  0.16507610656E+03  0.00000000000E+00 0. -1.
         23    2    1    2    0    0  0.45166547175E+02  0.56363767047E+03  0.50939364246E+03  0.76649105286E+03  0.91100003181E+02 0.  0.
         13    1    3    3    0    0 -0.46749128525E+01  0.36070820699E+03  0.28382912992E+03  0.45901115498E+03  0.00000000000E+00 0.  1.
        -13    1    3    3    0    0  0.49841460027E+02  0.20292946348E+03  0.22556451254E+03  0.30747989788E+03  0.00000000000E+00 0. -1.
         22    1    1    2    0    0 -0.45166547175E+02 -0.56363767047E+03  0.21517437910E+04  0.22247985937E+04  0.00000000000E+00 0.  1.
<mgrwt>
<rscale>  0 0.13660751E+04</rscale>
<asrwt>0</asrwt>
<pdfrwt beam="1">  1        2 0.43480205E+00 0.13660751E+04</pdfrwt>
<pdfrwt beam="2">  1       -2 0.25396326E-01 0.13660751E+04</pdfrwt>
<totfact> 0.30552706E+01</totfact>
</mgrwt>
</event>
<event>
 6    1  0.1614874E-005  0.2152117E+04  0.7818608E-02  0.8538627E-01
          2   -1    0    0  501    0  0.00000000000E+00  0.00000000000E+00  0.22809371774E+04  0.22809371774E+04  0.00000000000E+00 0. -1.
         -2   -1    0    0    0  501 -0.00000000000E+00 -0.00000000000E+00 -0.50764285466E+03  0.50764285466E+03  0.00000000000E+00 0.  1.
         23    2    1    2    0    0  0.13855672921E+03 -0.10201966936E+04  0.12850961365E+04  0.16491342326E+04  0.90401197226E+02 0.  0.
         11    1    3    3    0    0  0.13799818671E+03 -0.94910928252E+03  0.12267521691E+04  0.15571682035E+04  0.00000000000E+00 0.  1.
        -11    1    3    3    0    0  0.55854249324E+00 -0.71087411032E+02  0.58343967400E+02  0.91966029103E+02  0.00000000000E+00 0. -1.
         22    1    1    2    0    0 -0.13855672921E+03  0.10201966936E+04  0.48819818621E+03  0.11394457994E+04  0.00000000000E+00 0. -1.
<mgrwt>
<rscale>  0 0.21521166E+04</rscale>
<asrwt>0</asrwt>
<pdfrwt beam="1">  1        2 0.35091341E+00 0.21521166E+04</pdfrwt>
<pdfrwt beam="2">  1       -2 0.78098902E-01 0.21521166E+04</pdfrwt>
<totfact> 0.62224084E+00</totfact>
</mgrwt>
</event>
<event>
 6    1  0.1614874E-005  0.2180194E+04  0.7818608E-02  0.8526717E-01
         -1   -1    0    0    0  501 -0.00000000000E+00  0.00000000000E+00  0.83751374196E+03  0.83751374196E+03  0.00000000000E+00 0.  1.
          1   -1    0    0  501    0  0.00000000000E+00 -0.00000000000E+00 -0.14188566324E+04  0.14188566324E+04  0.00000000000E+00 0. -1.
         23    2    1    2    0    0 -0.20172736694E+03 -0.10691920233E+04 -0.27422992042E+03  0.11258024243E+04  0.91452370013E+02 0.  0.
         13    1    3    3    0    0 -0.26249365980E+02 -0.34052476923E+03 -0.65222727367E+02  0.34770699136E+03  0.00000000000E+00 0. -1.
        -13    1    3    3    0    0 -0.17547800096E+03 -0.72866725409E+03 -0.20900719305E+03  0.77809543293E+03  0.00000000000E+00 0.  1.
         22    1    1    2    0    0  0.20172736694E+03  0.10691920233E+04 -0.30711296998E+03  0.11305679500E+04  0.00000000000E+00 0.  1.
<mgrwt>
<rscale>  0 0.21801944E+04</rscale>
<asrwt>0</asrwt>
<pdfrwt beam="1">  1        1 0.21828563E+00 0.21801944E+04</pdfrwt>
<pdfrwt beam="2">  1       -1 0.12884827E+00 0.21801944E+04</pdfrwt>
<totfact> 0.35301969E+00</totfact>
</mgrwt>
</event>
<event>
 6    1  0.1614874E-005  0.1561550E+04  0.7818608E-02  0.8844524E-01
          2   -1    0    0  501    0  0.00000000000E+00  0.00000000000E+00  0.49832664007E+03  0.49832664007E+03  0.00000000000E+00 0. -1.
         -2   -1    0    0    0  501 -0.00000000000E+00 -0.00000000000E+00 -0.12233139016E+04  0.12233139016E+04  0.00000000000E+00 0.  1.
         23    2    1    2    0    0  0.71793957390E+03 -0.28132107194E+03 -0.24863834813E+03  0.81528130571E+03  0.91015394229E+02 0.  0.
         13    1    3    3    0    0  0.39490919603E+03 -0.20245528324E+03 -0.13438503145E+03  0.46368173514E+03  0.00000000000E+00 0. -1.
        -13    1    3    3    0    0  0.32303037786E+03 -0.78865788700E+02 -0.11425331667E+03  0.35159957056E+03  0.00000000000E+00 0.  1.
         22    1    1    2    0    0 -0.71793957390E+03  0.28132107194E+03 -0.47634891336E+03  0.90635923592E+03  0.00000000000E+00 0.  1.
<mgrwt>
<rscale>  0 0.15615504E+04</rscale>
<asrwt>0</asrwt>
<pdfrwt beam="1">  1        2 0.76665636E-01 0.15615504E+04</pdfrwt>
<pdfrwt beam="2">  1       -2 0.18820214E+00 0.15615504E+04</pdfrwt>
<totfact> 0.94659671E+00</totfact>
</mgrwt>
</event>
<event>
 6    1  0.1614874E-005  0.5778994E+04  0.7818608E-02  0.7718424E-01
          2   -1    0    0  501    0  0.00000000000E+00  0.00000000000E+00  0.39570950219E+04  0.39570950219E+04  0.00000000000E+00 0. -1.
         -2   -1    0    0    0  501 -0.00000000000E+00 -0.00000000000E+00 -0.21099296624E+04  0.21099296624E+04  0.00000000000E+00 0.  1.
         23    2    1    2    0    0  0.26474999753E+04 -0.41919838258E+03 -0.20676071962E+03  0.26901036397E+04  0.94467953013E+02 0.  0.
         13    1    3    3    0    0  0.20098469482E+04 -0.33287105931E+03 -0.19486017095E+03  0.20465234872E+04  0.00000000000E+00 0.  1.
        -13    1    3    3    0    0  0.63765302704E+03 -0.86327323262E+02 -0.11900548669E+02  0.64358015250E+03  0.00000000000E+00 0. -1.
         22    1    1    2    0    0 -0.26474999753E+04  0.41919838258E+03  0.20539260791E+04  0.33769210446E+04  0.00000000000E+00 0.  1.
<mgrwt>
<rscale>  0 0.57789937E+04</rscale>
<asrwt>0</asrwt>
<pdfrwt beam="1">  1        2 0.60878385E+00 0.57789937E+04</pdfrwt>
<pdfrwt beam="2">  1       -2 0.32460456E+00 0.57789937E+04</pdfrwt>
<totfact> 0.56590425E-03</totfact>
</mgrwt>
</event>
<event>
 6    1  0.1614874E-005  0.1729524E+04  0.7818608E-02  0.8744703E-01
         -2   -1    0    0    0  501 -0.00000000000E+00  0.00000000000E+00  0.48290162943E+03  0.48290162943E+03  0.00000000000E+00 0.  1.
          2   -1    0    0  501    0  0.00000000000E+00 -0.00000000000E+00 -0.15485831163E+04  0.15485831163E+04  0.00000000000E+00 0. -1.
         23    2    1    2    0    0 -0.16278906548E+03  0.12751298314E+03 -0.15177221916E+04  0.15343925617E+04  0.90111275623E+02 0.  0.
         13    1    3    3    0    0 -0.90298069506E+02  0.31285854415E+02 -0.45935222859E+03  0.46918761275E+03  0.00000000000E+00 0. -1.
        -13    1    3    3    0    0 -0.72490995972E+02  0.96227128723E+02 -0.10583699630E+04  0.10652049490E+04  0.00000000000E+00 0.  1.
         22    1    1    2    0    0  0.16278906548E+03 -0.12751298314E+03  0.45204070469E+03  0.49709218401E+03  0.00000000000E+00 0.  1.
<mgrwt>
<rscale>  0 0.17295240E+04</rscale>
<asrwt>0</asrwt>
<pdfrwt beam="1">  1        2 0.23824356E+00 0.17295240E+04</pdfrwt>
<pdfrwt beam="2">  1       -2 0.74292559E-01 0.17295240E+04</pdfrwt>
<totfact> 0.18449367E+01</totfact>
</mgrwt>
</event>
<event>
 6    1  0.1614874E-005  0.2131258E+04  0.7818608E-02  0.8547598E-01
          2   -1    0    0  501    0  0.00000000000E+00  0.00000000000E+00  0.16241807309E+04  0.16241807309E+04  0.00000000000E+00 0. -1.
         -2   -1    0    0    0  501 -0.00000000000E+00 -0.00000000000E+00 -0.69916199699E+03  0.69916199699E+03  0.00000000000E+00 0.  1.
         23    2    1    2    0    0 -0.95243101485E+03  0.39932246109E+03  0.74047274972E+03  0.12742285843E+04  0.93676709977E+02 0.  0.
         11    1    3    3    0    0 -0.23264615480E+03  0.11996453161E+03  0.14542341521E+03  0.29943896186E+03  0.00000000000E+00 0. -1.
        -11    1    3    3    0    0 -0.71978486004E+03  0.27935792948E+03  0.59504933451E+03  0.97478962244E+03  0.00000000000E+00 0.  1.
         22    1    1    2    0    0  0.95243101485E+03 -0.39932246109E+03  0.18454598416E+03  0.10491141436E+04  0.00000000000E+00 0.  1.
<mgrwt>
<rscale>  0 0.21312583E+04</rscale>
<asrwt>0</asrwt>
<pdfrwt beam="1">  1        2 0.24987396E+00 0.21312583E+04</pdfrwt>
<pdfrwt beam="2">  1       -2 0.10756338E+00 0.21312583E+04</pdfrwt>
<totfact> 0.68926062E+00</totfact>
</mgrwt>
</event>
<event>
 6    1  0.1614874E-005  0.4901210E+03  0.7818608E-02  0.1016390E+00
         -2   -1    0    0    0  501 -0.00000000000E+00  0.00000000000E+00  0.62974918603E+02  0.62974918603E+02  0.00000000000E+00 0.  1.
          2   -1    0    0  501    0  0.00000000000E+00 -0.00000000000E+00 -0.95362819318E+03  0.95362819318E+03  0.00000000000E+00 0. -1.
         23    2    1    2    0    0  0.10463078010E+03 -0.56888012307E+02 -0.88435983129E+03  0.89734099074E+03  0.94576404912E+02 0.  0.
         11    1    3    3    0    0  0.92532883010E+02  0.14030146346E+01 -0.53498634002E+03  0.54293156741E+03  0.00000000000E+00 0. -1.
        -11    1    3    3    0    0  0.12097897092E+02 -0.58291026941E+02 -0.34937349127E+03  0.35440942332E+03  0.00000000000E+00 0.  1.
         22    1    1    2    0    0 -0.10463078010E+03  0.56888012307E+02 -0.62934432893E+01  0.11926212105E+03  0.00000000000E+00 0.  1.
<mgrwt>
<rscale>  0 0.49012104E+03</rscale>
<asrwt>0</asrwt>
<pdfrwt beam="1">  1        2 0.14671202E+00 0.49012104E+03</pdfrwt>
<pdfrwt beam="2">  1       -2 0.96884495E-02 0.49012104E+03</pdfrwt>
<totfact> 0.19606586E+03</totfact>
</mgrwt>
</event>
<event>
 6    1  0.1614874E-005  0.1942183E+04  0.7818608E-02  0.8634140E-01
         -2   -1    0    0    0  501 -0.00000000000E+00  0.00000000000E+00  0.15437796762E+04  0.15437796762E+04  0.00000000000E+00 0.  1.
          2   -1    0    0  501    0  0.00000000000E+00 -0.00000000000E+00 -0.61085033827E+03  0.61085033827E+03  0.00000000000E+00 0. -1.
         23    2    1    2    0    0 -0.93652172414E+03 -0.70319716456E+02  0.73107999123E+03  0.11940255376E+04  0.95923034099E+02 0.  0.
         13    1    3    3    0    0 -0.55061890506E+03 -0.78875018807E+02  0.46764610061E+03  0.72670167374E+03  0.00000000000E+00 0. -1.
        -13    1    3    3    0    0 -0.38590281908E+03  0.85553023505E+01  0.26343389062E+03  0.46732386382E+03  0.00000000000E+00 0.  1.
         22    1    1    2    0    0  0.93652172414E+03  0.70319716456E+02  0.20184934672E+03  0.96060447693E+03  0.00000000000E+00 0. -1.
<mgrwt>
<rscale>  0 0.19421826E+04</rscale>
<asrwt>0</asrwt>
<pdfrwt beam="1">  1        2 0.93976976E-01 0.19421826E+04</pdfrwt>
<pdfrwt beam="2">  1       -2 0.23750456E+00 0.19421826E+04</pdfrwt>
<totfact> 0.34757324E+00</totfact>
</mgrwt>
</event>
<event>
 6    1  0.1614874E-005  0.3071624E+04  0.7818608E-02  0.8223569E-01
          2   -1    0    0  501    0  0.00000000000E+00  0.00000000000E+00  0.79079921892E+03  0.79079921892E+03  0.00000000000E+00 0. -1.
         -2   -1    0    0    0  501 -0.00000000000E+00 -0.00000000000E+00 -0.29827028765E+04  0.29827028765E+04  0.00000000000E+00 0.  1.
         23    2    1    2    0    0  0.91191038346E+03 -0.42113798959E+03  0.32823939460E+03  0.10605592731E+04  0.90039534839E+02 0.  0.
         13    1    3    3    0    0  0.40076648769E+03 -0.21742786313E+03  0.18442011735E+03  0.49183272868E+03  0.00000000000E+00 0. -1.
        -13    1    3    3    0    0  0.51114389578E+03 -0.20371012646E+03  0.14381927725E+03  0.56872654442E+03  0.00000000000E+00 0.  1.
         22    1    1    2    0    0 -0.91191038346E+03  0.42113798959E+03 -0.25201430522E+04  0.27129428224E+04  0.00000000000E+00 0.  1.
<mgrwt>
<rscale>  0 0.30716244E+04</rscale>
<asrwt>0</asrwt>
<pdfrwt beam="1">  1        2 0.12166142E+00 0.30716244E+04</pdfrwt>
<pdfrwt beam="2">  1       -2 0.45887736E+00 0.30716244E+04</pdfrwt>
<totfact> 0.90129575E-02</totfact>
</mgrwt>
</event>
<event>
 6    1  0.1614874E-005  0.2179338E+04  0.7818608E-02  0.8527078E-01
         -1   -1    0    0    0  501 -0.00000000000E+00  0.00000000000E+00  0.29136089931E+03  0.29136089931E+03  0.00000000000E+00 0.  1.
          1   -1    0    0  501    0  0.00000000000E+00 -0.00000000000E+00 -0.40752833112E+04  0.40752833112E+04  0.00000000000E+00 0. -1.
         23    2    1    2    0    0 -0.61327194950E+03  0.86544051216E+03 -0.14122973039E+04  0.17686266169E+04  0.91469509169E+02 0.  0.
         11    1    3    3    0    0 -0.42667751868E+03  0.66038475192E+03 -0.10071234412E+04  0.12776773267E+04  0.00000000000E+00 0. -1.
        -11    1    3    3    0    0 -0.18659443082E+03  0.20505576024E+03 -0.40517386277E+03  0.49094929014E+03  0.00000000000E+00 0.  1.
         22    1    1    2    0    0  0.61327194950E+03 -0.86544051216E+03 -0.23716251080E+04  0.25980175936E+04  0.00000000000E+00 0.  1.
<mgrwt>
<rscale>  0 0.21793377E+04</rscale>
<asrwt>0</asrwt>
<pdfrwt beam="1">  1        1 0.62696663E+00 0.21793377E+04</pdfrwt>
<pdfrwt beam="2">  1       -1 0.44824756E-01 0.21793377E+04</pdfrwt>
<totfact> 0.37293409E-01</totfact>
</mgrwt>
</event>
<event>
 6    1  0.1725772E-005  0.6071442E+04  0.7818608E-02  0.7681606E-01
          1   -1    0    0  501    0  0.00000000000E+00  0.00000000000E+00  0.24538017261E+04  0.24538017261E+04  0.00000000000E+00 0. -1.
         -1   -1    0    0    0  501 -0.00000000000E+00 -0.00000000000E+00 -0.37556429270E+04  0.37556429270E+04  0.00000000000E+00 0.  1.
         23    2    1    2    0    0  0.12687472568E+03 -0.88677338267E+03 -0.36169606643E+04  0.37270582291E+04  0.78066432222E+02 0.  0.
         13    1    3    3    0    0  0.12003015328E+03 -0.60965471385E+03 -0.25649713547E+04  0.26391597448E+04  0.00000000000E+00 0. -1.
        -13    1    3    3    0    0  0.68445723948E+01 -0.27711866882E+03 -0.10519893095E+04  0.10878984843E+04  0.00000000000E+00 0.  1.
         22    1    1    2    0    0 -0.12687472568E+03  0.88677338267E+03  0.23151194634E+04  0.24823864240E+04  0.00000000000E+00 0. -1.
<mgrwt>
<rscale>  0 0.60714424E+04</rscale>
<asrwt>0</asrwt>
<pdfrwt beam="1">  1        1 0.37750796E+00 0.60714424E+04</pdfrwt>
<pdfrwt beam="2">  1       -1 0.57779122E+00 0.60714424E+04</pdfrwt>
<totfact> 0.54174965E-04</totfact>
</mgrwt>
</event>
<event>
 6    1  0.1614874E-005  0.2454840E+04  0.7818608E-02  0.8419253E-01
          2   -1    0    0  501    0  0.00000000000E+00  0.00000000000E+00  0.10701262847E+04  0.10701262847E+04  0.00000000000E+00 0. -1.
         -2   -1    0    0    0  501 -0.00000000000E+00 -0.00000000000E+00 -0.14078332072E+04  0.14078332072E+04  0.00000000000E+00 0.  1.
         23    2    1    2    0    0 -0.10479240218E+04 -0.60076391263E+03  0.41299734862E+02  0.12119784176E+04  0.90133136941E+02 0.  0.
         13    1    3    3    0    0 -0.55025782519E+03 -0.34823086975E+03 -0.12578348920E+02  0.65131146750E+03  0.00000000000E+00 0. -1.
        -13    1    3    3    0    0 -0.49766619664E+03 -0.25253304288E+03  0.53878083782E+02  0.56066695010E+03  0.00000000000E+00 0.  1.
         22    1    1    2    0    0  0.10479240218E+04  0.60076391263E+03 -0.37900665736E+03  0.12659810743E+04  0.00000000000E+00 0. -1.
<mgrwt>
<rscale>  0 0.24548396E+04</rscale>
<asrwt>0</asrwt>
<pdfrwt beam="1">  1        2 0.16463481E+00 0.24548396E+04</pdfrwt>
<pdfrwt beam="2">  1       -2 0.21658973E+00 0.24548396E+04</pdfrwt>
<totfact> 0.21144300E+00</totfact>
</mgrwt>
</event>
<event>
 6    1  0.1614874E-005  0.3269130E+04  0.7818608E-02  0.8170795E-01
          2   -1    0    0  501    0  0.00000000000E+00  0.00000000000E+00  0.99911169672E+03  0.99911169672E+03  0.00000000000E+00 0.  1.
         -2   -1    0    0    0  501 -0.00000000000E+00 -0.00000000000E+00 -0.26741777959E+04  0.26741777959E+04  0.00000000000E+00 0. -1.
         23    2    1    2    0    0  0.10902313513E+04 -0.84279082859E+02 -0.22017851017E+04  0.24595595924E+04  0.76605423176E+02 0.  0.
         11    1    3    3    0    0  0.98541935917E+03 -0.74030502449E+02 -0.19347281628E+04  0.21724881801E+04  0.00000000000E+00 0.  1.
        -11    1    3    3    0    0  0.10481199216E+03 -0.10248580410E+02 -0.26705693889E+03  0.28707141221E+03  0.00000000000E+00 0. -1.
         22    1    1    2    0    0 -0.10902313513E+04  0.84279082859E+02  0.52671900253E+03  0.12137299003E+04  0.00000000000E+00 0.  1.
<mgrwt>
<rscale>  0 0.32691297E+04</rscale>
<asrwt>0</asrwt>
<pdfrwt beam="1">  1        2 0.15370949E+00 0.32691297E+04</pdfrwt>
<pdfrwt beam="2">  1       -2 0.41141197E+00 0.32691297E+04</pdfrwt>
<totfact> 0.13178577E-01</totfact>
</mgrwt>
</event>
<event>
 6    1  0.1614874E-005  0.2090458E+04  0.7818608E-02  0.8565459E-01
         -2   -1    0    0    0  501 -0.00000000000E+00  0.00000000000E+00  0.50373627998E+03  0.50373627998E+03  0.00000000000E+00 0.  1.
          2   -1    0    0  501    0  0.00000000000E+00 -0.00000000000E+00 -0.21687998375E+04  0.21687998375E+04  0.00000000000E+00 0. -1.
         23    2    1    2    0    0 -0.34935708776E+03  0.27996270031E+03 -0.20387796394E+04  0.20893610166E+04  0.91528964972E+02 0.  0.
         11    1    3    3    0    0 -0.28159105120E+03  0.17748233846E+03 -0.15548413465E+04  0.15900707888E+04  0.00000000000E+00 0. -1.
        -11    1    3    3    0    0 -0.67766036554E+02  0.10248036185E+03 -0.48393829294E+03  0.49929022787E+03  0.00000000000E+00 0.  1.
         22    1    1    2    0    0  0.34935708776E+03 -0.27996270031E+03  0.37371608192E+03  0.58317510082E+03  0.00000000000E+00 0.  1.
<mgrwt>
<rscale>  0 0.20904575E+04</rscale>
<asrwt>0</asrwt>
<pdfrwt beam="1">  1        2 0.33366152E+00 0.20904575E+04</pdfrwt>
<pdfrwt beam="2">  1       -2 0.77497888E-01 0.20904575E+04</pdfrwt>
<totfact> 0.73604139E+00</totfact>
</mgrwt>
</event>
<event>
 6    1  0.1614874E-005  0.3726141E+04  0.7818608E-02  0.8062193E-01
         -2   -1    0    0    0  501 -0.00000000000E+00  0.00000000000E+00  0.19284341168E+04  0.19284341168E+04  0.00000000000E+00 0.  1.
          2   -1    0    0  501    0  0.00000000000E+00 -0.00000000000E+00 -0.17999224443E+04  0.17999224443E+04  0.00000000000E+00 0. -1.
         23    2    1    2    0    0 -0.17237917598E+04  0.42384301159E+03  0.62653177028E+03  0.18846849669E+04  0.91621152150E+02 0.  0.
         11    1    3    3    0    0 -0.14477777433E+04  0.38996683564E+03  0.53272308668E+03  0.15912034483E+04  0.00000000000E+00 0. -1.
        -11    1    3    3    0    0 -0.27601401651E+03  0.33876175946E+02  0.93808683593E+02  0.29348151854E+03  0.00000000000E+00 0.  1.
         22    1    1    2    0    0  0.17237917598E+04 -0.42384301159E+03 -0.49802009773E+03  0.18436715942E+04  0.00000000000E+00 0. -1.
<mgrwt>
<rscale>  0 0.37261411E+04</rscale>
<asrwt>0</asrwt>
<pdfrwt beam="1">  1        2 0.27691114E+00 0.37261411E+04</pdfrwt>
<pdfrwt beam="2">  1       -2 0.29668217E+00 0.37261411E+04</pdfrwt>
<totfact> 0.23183989E-01</totfact>
</mgrwt>
</event>
<event>
 6    1  0.1614874E-005  0.5916584E+03  0.7818608E-02  0.9922865E-01
         -1   -1    0    0    0  501 -0.00000000000E+00  0.00000000000E+00  0.13561036700E+03  0.13561036700E+03  0.00000000000E+00 0.  1.
          1   -1    0    0  501    0  0.00000000000E+00 -0.00000000000E+00 -0.64534084026E+03  0.64534084026E+03  0.00000000000E+00 0. -1.
         23    2    1    2    0    0 -0.25282043703E+03  0.17152566135E+02 -0.76822244123E+02  0.27933191062E+03  0.88950970748E+02 0.  0.
         11    1    3    3    0    0 -0.77794227572E+02 -0.27353816753E+02 -0.50841734779E+02  0.96876494207E+02  0.00000000000E+00 0. -1.
        -11    1    3    3    0    0 -0.17502620946E+03  0.44506382888E+02 -0.25980509344E+02  0.18245541642E+03  0.00000000000E+00 0.  1.
         22    1    1    2    0    0  0.25282043703E+03 -0.17152566135E+02 -0.43290822914E+03  0.50161929664E+03  0.00000000000E+00 0. -1.
<mgrwt>
<rscale>  0 0.59165838E+03</rscale>
<asrwt>0</asrwt>
<pdfrwt beam="1">  1        1 0.99283204E-01 0.59165838E+03</pdfrwt>
<pdfrwt beam="2">  1       -1 0.20863134E-01 0.59165838E+03</pdfrwt>
<totfact> 0.59207112E+02</totfact>
</mgrwt>
</event>
<event>
 6    1  0.1614874E-005  0.3344180E+04  0.7818608E-02  0.8151744E-01
          1   -1    0    0  501    0  0.00000000000E+00  0.00000000000E+00  0.25694749788E+04  0.25694749788E+04  0.00000000000E+00 0. -1.
         -1   -1    0    0    0  501 -0.00000000000E+00 -0.00000000000E+00 -0.10881150298E+04  0.10881150298E+04  0.00000000000E+00 0.  1.
         23    2    1    2    0    0  0.16501323922E+04 -0.24557548957E+03  0.63951338292E+03  0.17889140406E+04  0.89397119238E+02 0.  0.
         11    1    3    3    0    0  0.15187112132E+04 -0.21472816882E+03  0.61043447830E+03  0.16508246993E+04  0.00000000000E+00 0. -1.
        -11    1    3    3    0    0  0.13142117895E+03 -0.30847320758E+02  0.29078904619E+02  0.13808934125E+03  0.00000000000E+00 0.  1.
         22    1    1    2    0    0 -0.16501323922E+04  0.24557548957E+03  0.84184656603E+03  0.18686759680E+04  0.00000000000E+00 0. -1.
<mgrwt>
<rscale>  0 0.33441796E+04</rscale>
<asrwt>0</asrwt>
<pdfrwt beam="1">  1        1 0.39530384E+00 0.33441796E+04</pdfrwt>
<pdfrwt beam="2">  1       -1 0.16740231E+00 0.33441796E+04</pdfrwt>
<totfact> 0.25754603E-01</totfact>
</mgrwt>
</event>
<event>
 6    1  0.1614874E-005  0.2710959E+04  0.7818608E-02  0.8331458E-01
         -2   -1    0    0    0  501 -0.00000000000E+00  0.00000000000E+00  0.68205210022E+03  0.68205210022E+03  0.00000000000E+00 0.  1.
          2   -1    0    0  501    0  0.00000000000E+00 -0.00000000000E+00 -0.26938191266E+04  0.26938191266E+04  0.00000000000E+00 0. -1.
         23    2    1    2    0    0 -0.49694224870E+03  0.42925888696E+03  0.46749561710E+03  0.81111820833E+03  0.90254115144E+02 0.  0.
         13    1    3    3    0    0 -0.45993787415E+03  0.42379948027E+03  0.44251699970E+03  0.76613976700E+03  0.00000000000E+00 0.  1.
        -13    1    3    3    0    0 -0.37004374547E+02  0.54594066856E+01  0.24978617402E+02  0.44978441328E+02  0.00000000000E+00 0. -1.
         22    1    1    2    0    0  0.49694224870E+03 -0.42925888696E+03 -0.24792626435E+04  0.25647530185E+04  0.00000000000E+00 0. -1.
<mgrwt>
<rscale>  0 0.27109592E+04</rscale>
<asrwt>0</asrwt>
<pdfrwt beam="1">  1        2 0.41443371E+00 0.27109592E+04</pdfrwt>
<pdfrwt beam="2">  1       -2 0.10493109E+00 0.27109592E+04</pdfrwt>
<totfact> 0.17277321E+00</totfact>
</mgrwt>
</event>
<event>
 6    1  0.1614874E-005  0.3008554E+03  0.7818608E-02  0.1084814E+00
         -4   -1    0    0    0  501 -0.00000000000E+00  0.00000000000E+00  0.23999200527E+03  0.23999200527E+03  0.00000000000E+00 0.  1.
          4   -1    0    0  501    0  0.00000000000E+00 -0.00000000000E+00 -0.94288553666E+02  0.94288553666E+02  0.00000000000E+00 0. -1.
         23    2    1    2    0    0 -0.34942036884E+02 -0.48578465868E+02  0.21586962562E+03  0.24206285314E+03  0.91727402217E+02 0.  0.
         13    1    3    3    0    0 -0.29525621978E+02  0.22282056204E+02  0.56059590024E+02  0.67163457441E+02  0.00000000000E+00 0.  1.
        -13    1    3    3    0    0 -0.54164149068E+01 -0.70860522072E+02  0.15981003559E+03  0.17489939570E+03  0.00000000000E+00 0. -1.
         22    1    1    2    0    0  0.34942036884E+02  0.48578465868E+02 -0.70166174011E+02  0.92217705800E+02  0.00000000000E+00 0. -1.
<mgrwt>
<rscale>  0 0.30085544E+03</rscale>
<asrwt>0</asrwt>
<pdfrwt beam="1">  1        4 0.14505931E-01 0.30085544E+03</pdfrwt>
<pdfrwt beam="2">  1       -4 0.36921847E-01 0.30085544E+03</pdfrwt>
<totfact> 0.53957576E+02</totfact>
</mgrwt>
</event>
<event>
 6    1  0.1614874E-005  0.2233584E+04  0.7818608E-02  0.8504578E-01
          1   -1    0    0  501    0  0.00000000000E+00  0.00000000000E+00  0.16311034958E+04  0.16311034958E+04  0.00000000000E+00 0. -1.
         -1   -1    0    0    0  501 -0.00000000000E+00 -0.00000000000E+00 -0.76465091058E+03  0.76465091058E+03  0.00000000000E+00 0.  1.
         23    2    1    2    0    0  0.68578603122E+03  0.87760032244E+03  0.37208911204E+03  0.11771978627E+04  0.82823270433E+02 0.  0.
         13    1    3    3    0    0  0.26678218032E+03  0.27948718630E+03  0.11832469931E+03  0.40408730926E+03  0.00000000000E+00 0.  1.
        -13    1    3    3    0    0  0.41900385090E+03  0.59811313614E+03  0.25376441274E+03  0.77311055346E+03  0.00000000000E+00 0. -1.
         22    1    1    2    0    0 -0.68578603122E+03 -0.87760032244E+03  0.49436347323E+03  0.12185565437E+04  0.00000000000E+00 0. -1.
<mgrwt>
<rscale>  0 0.22335844E+04</rscale>
<asrwt>0</asrwt>
<pdfrwt beam="1">  1        1 0.25093900E+00 0.22335844E+04</pdfrwt>
<pdfrwt beam="2">  1       -1 0.11763860E+00 0.22335844E+04</pdfrwt>
<totfact> 0.31381899E+00</totfact>
</mgrwt>
</event>
<event>
 6    1  0.1614874E-005  0.3872456E+04  0.7818608E-02  0.8030782E-01
          1   -1    0    0  501    0  0.00000000000E+00  0.00000000000E+00  0.36753240282E+04  0.36753240282E+04  0.00000000000E+00 0. -1.
         -1   -1    0    0    0  501 -0.00000000000E+00 -0.00000000000E+00 -0.10200401186E+04  0.10200401186E+04  0.00000000000E+00 0.  1.
         23    2    1    2    0    0 -0.11504712633E+04 -0.73658396216E+03 -0.33381729538E+03  0.14088970354E+04  0.86120895371E+02 0.  0.
         13    1    3    3    0    0 -0.20241280602E+03 -0.11172592655E+03 -0.86250626448E+02  0.24676465968E+03  0.00000000000E+00 0. -1.
        -13    1    3    3    0    0 -0.94805845724E+03 -0.62485803561E+03 -0.24756666894E+03  0.11621323757E+04  0.00000000000E+00 0.  1.
         22    1    1    2    0    0  0.11504712633E+04  0.73658396216E+03  0.29891012050E+04  0.32864671115E+04  0.00000000000E+00 0. -1.
<mgrwt>
<rscale>  0 0.38724555E+04</rscale>
<asrwt>0</asrwt>
<pdfrwt beam="1">  1        1 0.56543446E+00 0.38724555E+04</pdfrwt>
<pdfrwt beam="2">  1       -1 0.15692925E+00 0.38724555E+04</pdfrwt>
<totfact> 0.43996382E-02</totfact>
</mgrwt>
</event>
<event>
 6    1  0.1614874E-005  0.1182831E+04  0.7818608E-02  0.9128019E-01
         -2   -1    0    0    0  501 -0.00000000000E+00  0.00000000000E+00  0.15211176750E+04  0.15211176750E+04  0.00000000000E+00 0. -1.
          2   -1    0    0  501    0  0.00000000000E+00 -0.00000000000E+00 -0.22994432956E+03  0.22994432956E+03  0.00000000000E+00 0.  1.
         23    2    1    2    0    0 -0.87427519577E+01  0.36973949155E+03  0.13261675926E+04  0.13795672877E+04  0.87759275567E+02 0.  0.
         13    1    3    3    0    0 -0.39658596917E+02  0.25919187989E+03  0.83691404619E+03  0.87702813845E+03  0.00000000000E+00 0. -1.
        -13    1    3    3    0    0  0.30915844960E+02  0.11054761166E+03  0.48925354639E+03  0.50253914929E+03  0.00000000000E+00 0.  1.
         22    1    1    2    0    0  0.87427519577E+01 -0.36973949155E+03 -0.34994247108E+02  0.37149471686E+03  0.00000000000E+00 0.  1.
<mgrwt>
<rscale>  0 0.11828312E+04</rscale>
<asrwt>0</asrwt>
<pdfrwt beam="1">  1        2 0.35376052E-01 0.11828312E+04</pdfrwt>
<pdfrwt beam="2">  1       -2 0.23401810E+00 0.11828312E+04</pdfrwt>
<totfact> 0.11803688E+01</totfact>
</mgrwt>
</event>
<event>
 6    1  0.1614874E-005  0.2791421E+04  0.7818608E-02  0.8305937E-01
          2   -1    0    0  501    0  0.00000000000E+00  0.00000000000E+00  0.38058505349E+04  0.38058505349E+04  0.00000000000E+00 0.  1.
         -2   -1    0    0    0  501 -0.00000000000E+00 -0.00000000000E+00 -0.51184568379E+03  0.51184568379E+03  0.00000000000E+00 0. -1.
         23    2    1    2    0    0  0.23082839189E+03  0.12977734967E+04  0.95090472345E+03  0.16292736322E+04  0.11320327024E+03 0.  0.
         13    1    3    3    0    0  0.16953077652E+03  0.69539938601E+03  0.55668929126E+03  0.90676565730E+03  0.00000000000E+00 0. -1.
        -13    1    3    3    0    0  0.61297615373E+02  0.60237411067E+03  0.39421543219E+03  0.72250797493E+03  0.00000000000E+00 0.  1.
         22    1    1    2    0    0 -0.23082839189E+03 -0.12977734967E+04  0.23431001277E+04  0.26884225865E+04  0.00000000000E+00 0.  1.
<mgrwt>
<rscale>  0 0.27914213E+04</rscale>
<asrwt>0</asrwt>
<pdfrwt beam="1">  1        2 0.58551545E+00 0.27914213E+04</pdfrwt>
<pdfrwt beam="2">  1       -2 0.78745492E-01 0.27914213E+04</pdfrwt>
<totfact> 0.60647479E-01</totfact>
</mgrwt>
</event>
<event>
 6    1  0.1614874E-005  0.1584792E+04  0.7818608E-02  0.8829946E-01
          2   -1    0    0  501    0  0.00000000000E+00  0.00000000000E+00  0.13076341166E+04  0.13076341166E+04  0.00000000000E+00 0. -1.
         -2   -1    0    0    0  501 -0.00000000000E+00 -0.00000000000E+00 -0.48017373579E+03  0.48017373579E+03  0.00000000000E+00 0.  1.
         23    2    1    2    0    0 -0.31030684532E+03 -0.32656326584E+03 -0.31674105924E+03  0.55812055870E+03  0.90773093947E+02 0.  0.
         13    1    3    3    0    0 -0.11373752909E+03 -0.11985078720E+03 -0.64611465471E+02  0.17741217035E+03  0.00000000000E+00 0. -1.
        -13    1    3    3    0    0 -0.19656931623E+03 -0.20671247864E+03 -0.25212959377E+03  0.38070838835E+03  0.00000000000E+00 0.  1.
         22    1    1    2    0    0  0.31030684532E+03  0.32656326584E+03  0.11442014401E+04  0.12296872937E+04  0.00000000000E+00 0. -1.
<mgrwt>
<rscale>  0 0.15847922E+04</rscale>
<asrwt>0</asrwt>
<pdfrwt beam="1">  1        2 0.20117448E+00 0.15847922E+04</pdfrwt>
<pdfrwt beam="2">  1       -2 0.73872883E-01 0.15847922E+04</pdfrwt>
<totfact> 0.25941200E+01</totfact>
</mgrwt>
</event>
<event>
 6    1  0.1614874E-005  0.1549579E+04  0.7818608E-02  0.8852136E-01
         -2   -1    0    0    0  501 -0.00000000000E+00  0.00000000000E+00  0.20586008813E+04  0.20586008813E+04  0.00000000000E+00 0.  1.
          2   -1    0    0  501    0  0.00000000000E+00 -0.00000000000E+00 -0.29160538029E+03  0.29160538029E+03  0.00000000000E+00 0. -1.
         23    2    1    2    0    0 -0.80617283271E+00  0.55166855102E+03  0.67178532066E+02  0.56310901520E+03  0.90774268045E+02 0.  0.
         11    1    3    3    0    0  0.44258110242E+02  0.30108110000E+03  0.29791367009E+02  0.30577137644E+03  0.00000000000E+00 0. -1.
        -11    1    3    3    0    0 -0.45064283075E+02  0.25058745101E+03  0.37387165056E+02  0.25733763877E+03  0.00000000000E+00 0.  1.
         22    1    1    2    0    0  0.80617283271E+00 -0.55166855102E+03  0.16998169690E+04  0.17870972464E+04  0.00000000000E+00 0.  1.
<mgrwt>
<rscale>  0 0.15495794E+04</rscale>
<asrwt>0</asrwt>
<pdfrwt beam="1">  1        2 0.44862367E-01 0.15495794E+04</pdfrwt>
<pdfrwt beam="2">  1       -2 0.31670782E+00 0.15495794E+04</pdfrwt>
<totfact> 0.27490563E+00</totfact>
</mgrwt>
</event>
<event>
 6    1  0.1614874E-005  0.2393258E+04  0.7818608E-02  0.8442032E-01
         -1   -1    0    0    0  501 -0.00000000000E+00  0.00000000000E+00  0.56789220302E+03  0.56789220302E+03  0.00000000000E+00 0.  1.
          1   -1    0    0  501    0  0.00000000000E+00 -0.00000000000E+00 -0.25214651237E+04  0.25214651237E+04  0.00000000000E+00 0. -1.
         23    2    1    2    0    0 -0.51717939309E+03  0.49023366325E+03  0.26014835182E+03  0.76376805912E+03  0.88661795372E+02 0.  0.
         13    1    3    3    0    0 -0.38369582765E+03  0.41326699060E+03  0.20923097971E+03  0.60148956478E+03  0.00000000000E+00 0.  1.
        -13    1    3    3    0    0 -0.13348356544E+03  0.76966672654E+02  0.50917372108E+02  0.16227849434E+03  0.00000000000E+00 0. -1.
         22    1    1    2    0    0  0.51717939309E+03 -0.49023366325E+03 -0.22137212725E+04  0.23255892676E+04  0.00000000000E+00 0. -1.
<mgrwt>
<rscale>  0 0.23932575E+04</rscale>
<asrwt>0</asrwt>
<pdfrwt beam="1">  1        1 0.38791771E+00 0.23932575E+04</pdfrwt>
<pdfrwt beam="2">  1       -1 0.87368032E-01 0.23932575E+04</pdfrwt>
<totfact> 0.15131253E+00</totfact>
</mgrwt>
</event>
<event>
 6    1  0.1614874E-005  0.4251085E+04  0.7818608E-02  0.7955725E-01
          1   -1    0    0  501    0  0.00000000000E+00  0.00000000000E+00  0.22734471972E+04  0.22734471972E+04  0.00000000000E+00 0. -1.
         -1   -1    0    0    0  501 -0.00000000000E+00 -0.00000000000E+00 -0.19872601717E+04  0.19872601717E+04  0.00000000000E+00 0.  1.
         23    2    1    2    0    0 -0.20422763241E+03 -0.34374175933E+03  0.22344984492E+04  0.22717919039E+04  0.90486529643E+02 0.  0.
         13    1    3    3    0    0 -0.58309166033E+02 -0.72942261706E+02  0.74741582818E+03  0.75322702594E+03  0.00000000000E+00 0. -1.
        -13    1    3    3    0    0 -0.14591846638E+03 -0.27079949763E+03  0.14870826211E+04  0.15185648780E+04  0.00000000000E+00 0.  1.
         22    1    1    2    0    0  0.20422763241E+03  0.34374175933E+03 -0.19483114237E+04  0.19889154650E+04  0.00000000000E+00 0.  1.
<mgrwt>
<rscale>  0 0.42510851E+04</rscale>
<asrwt>0</asrwt>
<pdfrwt beam="1">  1        1 0.34976111E+00 0.42510851E+04</pdfrwt>
<pdfrwt beam="2">  1       -1 0.30573234E+00 0.42510851E+04</pdfrwt>
<totfact> 0.45111430E-02</totfact>
</mgrwt>
</event>
<event>
 6    1  0.1614874E-005  0.1768798E+04  0.7818608E-02  0.8723071E-01
         -2   -1    0    0    0  501 -0.00000000000E+00  0.00000000000E+00  0.73788448417E+03  0.73788448417E+03  0.00000000000E+00 0.  1.
          2   -1    0    0  501    0  0.00000000000E+00 -0.00000000000E+00 -0.10600049817E+04  0.10600049817E+04  0.00000000000E+00 0. -1.
         23    2    1    2    0    0  0.87133338509E+03  0.56827560267E+02 -0.28813834627E+03  0.92404392682E+03  0.91554533122E+02 0.  0.
         13    1    3    3    0    0  0.26839824948E+03  0.56263791019E+02 -0.10850807829E+03  0.29491903559E+03  0.00000000000E+00 0. -1.
        -13    1    3    3    0    0  0.60293513561E+03  0.56376924852E+00 -0.17963026798E+03  0.62912489123E+03  0.00000000000E+00 0.  1.
         22    1    1    2    0    0 -0.87133338509E+03 -0.56827560267E+02 -0.33982151290E+02  0.87384553908E+03  0.00000000000E+00 0.  1.
<mgrwt>
<rscale>  0 0.17687976E+04</rscale>
<asrwt>0</asrwt>
<pdfrwt beam="1">  1        2 0.16307769E+00 0.17687976E+04</pdfrwt>
<pdfrwt beam="2">  1       -2 0.11352069E+00 0.17687976E+04</pdfrwt>
<totfact> 0.13290380E+01</totfact>
</mgrwt>
</event>
<event>
 6    1  0.1614874E-005  0.1542341E+04  0.7818608E-02  0.8856775E-01
          2   -1    0    0  501    0  0.00000000000E+00  0.00000000000E+00  0.15152691810E+04  0.15152691810E+04  0.00000000000E+00 0. -1.
         -2   -1    0    0    0  501 -0.00000000000E+00 -0.00000000000E+00 -0.39247410071E+03  0.39247410071E+03  0.00000000000E+00 0.  1.
         23    2    1    2    0    0 -0.68570333234E+03  0.19750730764E+03  0.21001913490E+03  0.74914148512E+03  0.88919801770E+02 0.  0.
         13    1    3    3    0    0 -0.44373693674E+03  0.87684216921E+02  0.15184679032E+03  0.47712518133E+03  0.00000000000E+00 0.  1.
        -13    1    3    3    0    0 -0.24196639560E+03  0.10982309072E+03  0.58172344585E+02  0.27201630379E+03  0.00000000000E+00 0. -1.
         22    1    1    2    0    0  0.68570333234E+03 -0.19750730764E+03  0.91277594535E+03  0.11586017966E+04  0.00000000000E+00 0.  1.
<mgrwt>
<rscale>  0 0.15423410E+04</rscale>
<asrwt>0</asrwt>
<pdfrwt beam="1">  1        2 0.23311833E+00 0.15423410E+04</pdfrwt>
<pdfrwt beam="2">  1       -2 0.60380632E-01 0.15423410E+04</pdfrwt>
<totfact> 0.30624413E+01</totfact>
</mgrwt>
</event>
<event>
 6    1  0.1614874E-005  0.1206816E+04  0.7818608E-02  0.9106912E-01
          2   -1    0    0  501    0  0.00000000000E+00  0.00000000000E+00  0.25762250941E+04  0.25762250941E+04  0.00000000000E+00 0. -1.
         -2   -1    0    0    0  501 -0.00000000000E+00 -0.00000000000E+00 -0.14133118224E+03  0.14133118224E+03  0.00000000000E+00 0.  1.
         23    2    1    2    0    0  0.30014842167E+03  0.42269635854E+03  0.19044224670E+04  0.19758277273E+04  0.91153655876E+02 0.  0.
         11    1    3    3    0    0  0.26729569090E+03  0.36270371146E+03  0.17474519927E+04  0.18046022928E+04  0.00000000000E+00 0. -1.
        -11    1    3    3    0    0  0.32852730769E+02  0.59992647082E+02  0.15697047429E+03  0.17122543451E+03  0.00000000000E+00 0.  1.
         22    1    1    2    0    0 -0.30014842167E+03 -0.42269635854E+03  0.53047144494E+03  0.74172854903E+03  0.00000000000E+00 0.  1.
<mgrwt>
<rscale>  0 0.12068155E+04</rscale>
<asrwt>0</asrwt>
<pdfrwt beam="1">  1        2 0.39634229E+00 0.12068155E+04</pdfrwt>
<pdfrwt beam="2">  1       -2 0.21743261E-01 0.12068155E+04</pdfrwt>
<totfact> 0.57565130E+01</totfact>
</mgrwt>
</event>
<event>
 6    1  0.1614874E-005  0.2658514E+04  0.7818608E-02  0.8348593E-01
          2   -1    0    0  501    0  0.00000000000E+00  0.00000000000E+00  0.25762671764E+04  0.25762671764E+04  0.00000000000E+00 0. -1.
         -2   -1    0    0    0  501 -0.00000000000E+00 -0.00000000000E+00 -0.68584675916E+03  0.68584675916E+03  0.00000000000E+00 0.  1.
         23    2    1    2    0    0 -0.10985153977E+04 -0.27782218855E+03  0.97596896145E+02  0.11412326505E+04  0.94686646079E+02 0.  0.
         13    1    3    3    0    0 -0.92550972179E+03 -0.21436775255E+03  0.11098040721E+03  0.95647186537E+03  0.00000000000E+00 0.  1.
        -13    1    3    3    0    0 -0.17300567594E+03 -0.63454436002E+02 -0.13383511067E+02  0.18476078513E+03  0.00000000000E+00 0. -1.
         22    1    1    2    0    0  0.10985153977E+04  0.27782218855E+03  0.17928235211E+04  0.21208812851E+04  0.00000000000E+00 0. -1.
<mgrwt>
<rscale>  0 0.26585142E+04</rscale>
<asrwt>0</asrwt>
<pdfrwt beam="1">  1        2 0.39634879E+00 0.26585142E+04</pdfrwt>
<pdfrwt beam="2">  1       -2 0.10551489E+00 0.26585142E+04</pdfrwt>
<totfact> 0.20091206E+00</totfact>
</mgrwt>
</event>
<event>
 6    1  0.1614874E-005  0.1552307E+04  0.7818608E-02  0.8850396E-01
         -2   -1    0    0    0  501 -0.00000000000E+00  0.00000000000E+00  0.43971553264E+03  0.43971553264E+03  0.00000000000E+00 0.  1.
          2   -1    0    0  501    0  0.00000000000E+00 -0.00000000000E+00 -0.13700089806E+04  0.13700089806E+04  0.00000000000E+00 0. -1.
         23    2    1    2    0    0 -0.51491432550E+03  0.35386363422E+03  0.65209276656E+02  0.63440246845E+03  0.88645405857E+02 0.  0.
         11    1    3    3    0    0 -0.29403058458E+03  0.21789905757E+03  0.79974693263E+02  0.37460637411E+03  0.00000000000E+00 0.  1.
        -11    1    3    3    0    0 -0.22088374092E+03  0.13596457665E+03 -0.14765416607E+02  0.25979609434E+03  0.00000000000E+00 0. -1.
         22    1    1    2    0    0  0.51491432550E+03 -0.35386363422E+03 -0.99550272457E+03  0.11753220447E+04  0.00000000000E+00 0. -1.
<mgrwt>
<rscale>  0 0.15523070E+04</rscale>
<asrwt>0</asrwt>
<pdfrwt beam="1">  1        2 0.21077061E+00 0.15523070E+04</pdfrwt>
<pdfrwt beam="2">  1       -2 0.67648545E-01 0.15523070E+04</pdfrwt>
<totfact> 0.29017045E+01</totfact>
</mgrwt>
</event>
<event>
 6    1  0.1614874E-005  0.1160471E+04  0.7818608E-02  0.9148178E-01
          2   -1    0    0  501    0  0.00000000000E+00  0.00000000000E+00  0.44867912320E+04  0.44867912320E+04  0.00000000000E+00 0. -1.
         -2   -1    0    0    0  501 -0.00000000000E+00 -0.00000000000E+00 -0.75036491546E+02  0.75036491546E+02  0.00000000000E+00 0.  1.
         23    2    1    2    0    0 -0.43644305136E+03 -0.25469456842E+03  0.33132824037E+04  0.33526985597E+04  0.85997007262E+02 0.  0.
         13    1    3    3    0    0 -0.22675065025E+03 -0.10027978811E+03  0.14015238891E+04  0.14232853210E+04  0.00000000000E+00 0.  1.
        -13    1    3    3    0    0 -0.20969240111E+03 -0.15441478030E+03  0.19117585146E+04  0.19294132387E+04  0.00000000000E+00 0. -1.
         22    1    1    2    0    0  0.43644305136E+03  0.25469456842E+03  0.10984723368E+04  0.12091291639E+04  0.00000000000E+00 0.  1.
<mgrwt>
<rscale>  0 0.11604707E+04</rscale>
<asrwt>0</asrwt>
<pdfrwt beam="1">  1        2 0.69027537E+00 0.11604707E+04</pdfrwt>
<pdfrwt beam="2">  1       -2 0.11544079E-01 0.11604707E+04</pdfrwt>
<totfact> 0.72489049E+00</totfact>
</mgrwt>
</event>
<event>
 6    1  0.1614874E-005  0.9721819E+03  0.7818608E-02  0.9339593E-01
          1   -1    0    0  501    0  0.00000000000E+00  0.00000000000E+00  0.98059325561E+03  0.98059325561E+03  0.00000000000E+00 0. -1.
         -1   -1    0    0    0  501 -0.00000000000E+00 -0.00000000000E+00 -0.24096066337E+03  0.24096066337E+03  0.00000000000E+00 0.  1.
         23    2    1    2    0    0  0.19059221188E+03  0.18317520502E+02  0.92890655859E+03  0.95232249971E+03  0.85964097636E+02 0.  0.
         13    1    3    3    0    0  0.87893472027E+02  0.46477253828E+02  0.54121527458E+03  0.55027208814E+03  0.00000000000E+00 0.  1.
        -13    1    3    3    0    0  0.10269873985E+03 -0.28159733327E+02  0.38769128401E+03  0.40205041158E+03  0.00000000000E+00 0. -1.
         22    1    1    2    0    0 -0.19059221188E+03 -0.18317520502E+02 -0.18927396634E+03  0.26923141927E+03  0.00000000000E+00 0.  1.
<mgrwt>
<rscale>  0 0.97218188E+03</rscale>
<asrwt>0</asrwt>
<pdfrwt beam="1">  1        1 0.15086050E+00 0.97218188E+03</pdfrwt>
<pdfrwt beam="2">  1       -1 0.37070872E-01 0.97218188E+03</pdfrwt>
<totfact> 0.10997022E+02</totfact>
</mgrwt>
</event>
<event>
 6    1  0.1614874E-005  0.8695821E+03  0.7818608E-02  0.9464425E-01
         -2   -1    0    0    0  501 -0.00000000000E+00  0.00000000000E+00  0.23978365679E+03  0.23978365679E+03  0.00000000000E+00 0.  1.
          2   -1    0    0  501    0  0.00000000000E+00 -0.00000000000E+00 -0.78839084741E+03  0.78839084741E+03  0.00000000000E+00 0. -1.
         23    2    1    2    0    0 -0.31038852812E+02  0.20455733842E+03  0.16812456880E+03  0.28217750015E+03  0.92472460071E+02 0.  0.
         11    1    3    3    0    0 -0.59681507482E+02  0.94332828881E+02  0.69272850172E+02  0.13137462735E+03  0.00000000000E+00 0. -1.
        -11    1    3    3    0    0  0.28642654670E+02  0.11022450954E+03  0.98851718627E+02  0.15080287280E+03  0.00000000000E+00 0.  1.
         22    1    1    2    0    0  0.31038852812E+02 -0.20455733842E+03 -0.71673175942E+03  0.74599700405E+03  0.00000000000E+00 0. -1.
<mgrwt>
<rscale>  0 0.86958206E+03</rscale>
<asrwt>0</asrwt>
<pdfrwt beam="1">  1        2 0.12129090E+00 0.86958206E+03</pdfrwt>
<pdfrwt beam="2">  1       -2 0.36889793E-01 0.86958206E+03</pdfrwt>
<totfact> 0.24392176E+02</totfact>
</mgrwt>
</event>
<event>
 6    1  0.1614874E-005  0.4387557E+03  0.7818608E-02  0.1031129E+00
         -1   -1    0    0    0  501 -0.00000000000E+00  0.00000000000E+00  0.40230195144E+03  0.40230195144E+03  0.00000000000E+00 0.  1.
          1   -1    0    0  501    0  0.00000000000E+00 -0.00000000000E+00 -0.11962815520E+03  0.11962815520E+03  0.00000000000E+00 0. -1.
         23    2    1    2    0    0 -0.74629077515E+02  0.13224012560E+02 -0.85250497309E+02  0.14628045669E+03  0.91574838247E+02 0.  0.
         13    1    3    3    0    0 -0.44035496513E+02  0.52830377746E+02 -0.51401599879E+02  0.85862088468E+02  0.00000000000E+00 0. -1.
        -13    1    3    3    0    0 -0.30593581002E+02 -0.39606365186E+02 -0.33848897430E+02  0.60418368225E+02  0.00000000000E+00 0.  1.
         22    1    1    2    0    0  0.74629077515E+02 -0.13224012560E+02  0.36792429355E+03  0.37564964995E+03  0.00000000000E+00 0.  1.
<mgrwt>
<rscale>  0 0.43875570E+03</rscale>
<asrwt>0</asrwt>
<pdfrwt beam="1">  1        1 0.18404332E-01 0.43875570E+03</pdfrwt>
<pdfrwt beam="2">  1       -1 0.61892607E-01 0.43875570E+03</pdfrwt>
<totfact> 0.78099759E+02</totfact>
</mgrwt>
</event>
<event>
 6    1  0.2755643E-005  0.4017104E+04  0.7818608E-02  0.8001105E-01
         -2   -1    0    0    0  501 -0.00000000000E+00  0.00000000000E+00  0.25506819467E+04  0.25506819467E+04  0.00000000000E+00 0.  1.
          2   -1    0    0  501    0  0.00000000000E+00 -0.00000000000E+00 -0.15816482165E+04  0.15816482165E+04  0.00000000000E+00 0. -1.
         23    2    1    2    0    0 -0.32542740252E+03  0.18810202015E+04  0.11240719407E+04  0.22170816572E+04  0.88166625137E+02 0.  0.
         11    1    3    3    0    0 -0.16231510882E+03  0.91475546967E+03  0.59799967315E+03  0.11048653189E+04  0.00000000000E+00 0. -1.
        -11    1    3    3    0    0 -0.16311229369E+03  0.96626473187E+03  0.52607226754E+03  0.11122163383E+04  0.00000000000E+00 0.  1.
         22    1    1    2    0    0  0.32542740252E+03 -0.18810202015E+04 -0.15503821047E+03  0.19152485060E+04  0.00000000000E+00 0. -1.
<mgrwt>
<rscale>  0 0.40171042E+04</rscale>
<asrwt>0</asrwt>
<pdfrwt beam="1">  1        2 0.24333049E+00 0.40171042E+04</pdfrwt>
<pdfrwt beam="2">  1       -2 0.39241261E+00 0.40171042E+04</pdfrwt>
<totfact> 0.74802560E-02</totfact>
</mgrwt>
</event>
<event>
 6    1  0.1614874E-005  0.8634485E+03  0.7818608E-02  0.9472462E-01
          2   -1    0    0  501    0  0.00000000000E+00  0.00000000000E+00  0.15931886821E+04  0.15931886821E+04  0.00000000000E+00 0. -1.
         -2   -1    0    0    0  501 -0.00000000000E+00 -0.00000000000E+00 -0.11698918167E+03  0.11698918167E+03  0.00000000000E+00 0.  1.
         23    2    1    2    0    0  0.30459801729E+03  0.22460082469E+03  0.35858992138E+03  0.53023013028E+03  0.96601121884E+02 0.  0.
         11    1    3    3    0    0  0.30289764874E+03  0.20108337713E+03  0.35126948048E+03  0.50554105480E+03  0.00000000000E+00 0.  1.
        -11    1    3    3    0    0  0.17003685495E+01  0.23517447564E+02  0.73204409041E+01  0.24689075482E+02  0.00000000000E+00 0. -1.
         22    1    1    2    0    0 -0.30459801729E+03 -0.22460082469E+03  0.11176095790E+04  0.11799477335E+04  0.00000000000E+00 0. -1.
<mgrwt>
<rscale>  0 0.86344853E+03</rscale>
<asrwt>0</asrwt>
<pdfrwt beam="1">  1        2 0.24510594E+00 0.86344853E+03</pdfrwt>
<pdfrwt beam="2">  1       -2 0.17998337E-01 0.86344853E+03</pdfrwt>
<totfact> 0.29068727E+02</totfact>
</mgrwt>
</event>
<event>
 6    1  0.1614874E-005  0.2343210E+04  0.7818608E-02  0.8461076E-01
         -2   -1    0    0    0  501 -0.00000000000E+00  0.00000000000E+00  0.63941268726E+03  0.63941268726E+03  0.00000000000E+00 0.  1.
          2   -1    0    0  501    0  0.00000000000E+00 -0.00000000000E+00 -0.21467482496E+04  0.21467482496E+04  0.00000000000E+00 0. -1.
         23    2    1    2    0    0 -0.38940577448E+03 -0.91727615518E+03 -0.14834532802E+04  0.17893646861E+04  0.90332405243E+02 0.  0.
         13    1    3    3    0    0 -0.27384085145E+02 -0.14146740803E+03 -0.23153009821E+03  0.27270698934E+03  0.00000000000E+00 0. -1.
        -13    1    3    3    0    0 -0.36202168933E+03 -0.77580874715E+03 -0.12519231819E+04  0.15166576968E+04  0.00000000000E+00 0.  1.
         22    1    1    2    0    0  0.38940577448E+03  0.91727615518E+03 -0.23882282156E+02  0.99679625073E+03  0.00000000000E+00 0.  1.
<mgrwt>
<rscale>  0 0.23432098E+04</rscale>
<asrwt>0</asrwt>
<pdfrwt beam="1">  1        2 0.33026897E+00 0.23432098E+04</pdfrwt>
<pdfrwt beam="2">  1       -2 0.98371181E-01 0.23432098E+04</pdfrwt>
<totfact> 0.42912045E+00</totfact>
</mgrwt>
</event>
<event>
 6    1  0.1614874E-005  0.7060446E+03  0.7818608E-02  0.9706951E-01
          1   -1    0    0  501    0  0.00000000000E+00  0.00000000000E+00  0.62152448672E+03  0.62152448672E+03  0.00000000000E+00 0. -1.
         -1   -1    0    0    0  501 -0.00000000000E+00 -0.00000000000E+00 -0.20051460120E+03  0.20051460120E+03  0.00000000000E+00 0.  1.
         23    2    1    2    0    0 -0.19567592494E+02 -0.26159471344E+03  0.47907705750E+03  0.55336366806E+03  0.88779712390E+02 0.  0.
         11    1    3    3    0    0 -0.42527574793E+02 -0.61917865710E+02  0.15008814906E+03  0.16783584004E+03  0.00000000000E+00 0.  1.
        -11    1    3    3    0    0  0.22959982298E+02 -0.19967684773E+03  0.32898890843E+03  0.38552782802E+03  0.00000000000E+00 0. -1.
         22    1    1    2    0    0  0.19567592494E+02  0.26159471344E+03 -0.58067171975E+02  0.26867541986E+03  0.00000000000E+00 0.  1.
<mgrwt>
<rscale>  0 0.70604457E+03</rscale>
<asrwt>0</asrwt>
<pdfrwt beam="1">  1        1 0.95619151E-01 0.70604457E+03</pdfrwt>
<pdfrwt beam="2">  1       -1 0.30848400E-01 0.70604457E+03</pdfrwt>
<totfact> 0.31969198E+02</totfact>
</mgrwt>
</event>
<event>
 6    1  0.1614875E-005  0.2917389E+04  0.7818608E-02  0.8267723E-01
         -2   -1    0    0    0  501 -0.00000000000E+00  0.00000000000E+00  0.10685840474E+04  0.10685840474E+04  0.00000000000E+00 0.  1.
          2   -1    0    0  501    0  0.00000000000E+00 -0.00000000000E+00 -0.19912231026E+04  0.19912231026E+04  0.00000000000E+00 0. -1.
         23    2    1    2    0    0 -0.14163801404E+04 -0.13518553717E+03 -0.79213358380E+03  0.16310176240E+04  0.91296460043E+02 0.  0.
         13    1    3    3    0    0 -0.58647990653E+03 -0.12469561291E+02 -0.31232903418E+03  0.66457775791E+03  0.00000000000E+00 0.  1.
        -13    1    3    3    0    0 -0.82990023388E+03 -0.12271597588E+03 -0.47980454963E+03  0.96643986609E+03  0.00000000000E+00 0. -1.
         22    1    1    2    0    0  0.14163801404E+04  0.13518553717E+03 -0.13050547141E+03  0.14287895260E+04  0.00000000000E+00 0. -1.
<mgrwt>
<rscale>  0 0.29173887E+04</rscale>
<asrwt>0</asrwt>
<pdfrwt beam="1">  1        2 0.30634201E+00 0.29173887E+04</pdfrwt>
<pdfrwt beam="2">  1       -2 0.16439755E+00 0.29173887E+04</pdfrwt>
<totfact> 0.13619499E+00</totfact>
</mgrwt>
</event>
<event>
 6    1  0.1614874E-005  0.1121293E+04  0.7818608E-02  0.9184683E-01
         -3   -1    0    0    0  501 -0.00000000000E+00  0.00000000000E+00  0.10403484462E+04  0.10403484462E+04  0.00000000000E+00 0.  1.
          3   -1    0    0  501    0  0.00000000000E+00 -0.00000000000E+00 -0.30213403477E+03  0.30213403477E+03  0.00000000000E+00 0. -1.
         23    2    1    2    0    0 -0.79760608686E+02  0.16765432362E+03  0.10002154674E+04  0.10213683575E+04  0.91063788839E+02 0.  0.
         13    1    3    3    0    0 -0.35022331780E+02  0.13897191364E+03  0.85073226303E+03  0.86271961834E+03  0.00000000000E+00 0.  1.
        -13    1    3    3    0    0 -0.44738276906E+02  0.28682409980E+02  0.14948320436E+03  0.15864873920E+03  0.00000000000E+00 0. -1.
         22    1    1    2    0    0  0.79760608686E+02 -0.16765432362E+03 -0.26200105598E+03  0.32111412342E+03  0.00000000000E+00 0. -1.
<mgrwt>
<rscale>  0 0.11212933E+04</rscale>
<asrwt>0</asrwt>
<pdfrwt beam="1">  1        3 0.46482160E-01 0.11212933E+04</pdfrwt>
<pdfrwt beam="2">  1       -3 0.16005361E+00 0.11212933E+04</pdfrwt>
<totfact> 0.32538060E+00</totfact>
</mgrwt>
</event>
<event>
 6    1  0.1614874E-005  0.1878137E+04  0.7818608E-02  0.8665816E-01
          2   -1    0    0  501    0  0.00000000000E+00  0.00000000000E+00  0.22078260378E+04  0.22078260378E+04  0.00000000000E+00 0. -1.
         -2   -1    0    0    0  501 -0.00000000000E+00 -0.00000000000E+00 -0.39942008135E+03  0.39942008135E+03  0.00000000000E+00 0.  1.
         23    2    1    2    0    0 -0.23754571741E+03 -0.32282585010E+02  0.21636167198E+04  0.21787081167E+04  0.89786494902E+02 0.  0.
         13    1    3    3    0    0 -0.99752072207E+02 -0.23808209618E+02  0.57245181854E+03  0.58156546605E+03  0.00000000000E+00 0.  1.
        -13    1    3    3    0    0 -0.13779364520E+03 -0.84743753927E+01  0.15911649012E+04  0.15971426507E+04  0.00000000000E+00 0. -1.
         22    1    1    2    0    0  0.23754571741E+03  0.32282585010E+02 -0.35521076331E+03  0.42853800243E+03  0.00000000000E+00 0.  1.
<mgrwt>
<rscale>  0 0.18781374E+04</rscale>
<asrwt>0</asrwt>
<pdfrwt beam="1">  1        2 0.33966554E+00 0.18781374E+04</pdfrwt>
<pdfrwt beam="2">  1       -2 0.61449245E-01 0.18781374E+04</pdfrwt>
<totfact> 0.11809384E+01</totfact>
</mgrwt>
</event>
<event>
 6    1  0.1614874E-005  0.8008648E+03  0.7818608E-02  0.9558766E-01
         -3   -1    0    0    0  501 -0.00000000000E+00  0.00000000000E+00  0.29543491768E+03  0.29543491768E+03  0.00000000000E+00 0.  1.
          3   -1    0    0  501    0  0.00000000000E+00 -0.00000000000E+00 -0.54274600540E+03  0.54274600540E+03  0.00000000000E+00 0. -1.
         23    2    1    2    0    0 -0.20360126325E+03  0.12303546055E+03  0.20524751592E+03  0.32690752392E+03  0.90281711635E+02 0.  0.
         11    1    3    3    0    0 -0.13405294386E+03  0.10761651305E+03  0.18566566938E+03  0.25302815342E+03  0.00000000000E+00 0. -1.
        -11    1    3    3    0    0 -0.69548319384E+02  0.15418947501E+02  0.19581846546E+02  0.73879370499E+02  0.00000000000E+00 0.  1.
         22    1    1    2    0    0  0.20360126325E+03 -0.12303546055E+03 -0.45255860365E+03  0.51127339915E+03  0.00000000000E+00 0. -1.
<mgrwt>
<rscale>  0 0.80086484E+03</rscale>
<asrwt>0</asrwt>
<pdfrwt beam="1">  1        3 0.83499384E-01 0.80086484E+03</pdfrwt>
<pdfrwt beam="2">  1       -3 0.45451527E-01 0.80086484E+03</pdfrwt>
<totfact> 0.16775300E+01</totfact>
</mgrwt>
</event>
<event>
 6    1  0.1614874E-005  0.1764954E+04  0.7818608E-02  0.8725162E-01
          1   -1    0    0  501    0  0.00000000000E+00  0.00000000000E+00  0.17583165695E+04  0.17583165695E+04  0.00000000000E+00 0. -1.
         -1   -1    0    0    0  501 -0.00000000000E+00 -0.00000000000E+00 -0.44290424804E+03  0.44290424804E+03  0.00000000000E+00 0.  1.
         23    2    1    2    0    0  0.85562681818E+03  0.18811917139E+02  0.40378420002E+03  0.95081409491E+03  0.92491203222E+02 0.  0.
         13    1    3    3    0    0  0.20330272207E+03 -0.69925705087E+01  0.13872629292E+03  0.24622322635E+03  0.00000000000E+00 0. -1.
        -13    1    3    3    0    0  0.65232409610E+03  0.25804487648E+02  0.26505790710E+03  0.70459086856E+03  0.00000000000E+00 0.  1.
         22    1    1    2    0    0 -0.85562681818E+03 -0.18811917139E+02  0.91162812144E+03  0.12504067226E+04  0.00000000000E+00 0.  1.
<mgrwt>
<rscale>  0 0.17649543E+04</rscale>
<asrwt>0</asrwt>
<pdfrwt beam="1">  1        1 0.27051024E+00 0.17649543E+04</pdfrwt>
<pdfrwt beam="2">  1       -1 0.68139116E-01 0.17649543E+04</pdfrwt>
<totfact> 0.89743021E+00</totfact>
</mgrwt>
</event>
<event>
 6    1  0.1614874E-005  0.1692701E+04  0.7818608E-02  0.8765538E-01
          2   -1    0    0  501    0  0.00000000000E+00  0.00000000000E+00  0.24509127822E+04  0.24509127822E+04  0.00000000000E+00 0. -1.
         -2   -1    0    0    0  501 -0.00000000000E+00 -0.00000000000E+00 -0.29226209524E+03  0.29226209524E+03  0.00000000000E+00 0.  1.
         23    2    1    2    0    0  0.31581078218E+03 -0.67428493003E+03  0.17262156254E+04  0.18821309184E+04  0.90552700179E+02 0.  0.
         13    1    3    3    0    0  0.27452962886E+03 -0.50704684195E+03  0.12826204001E+04  0.14062638827E+04  0.00000000000E+00 0.  1.
        -13    1    3    3    0    0  0.41281153319E+02 -0.16723808808E+03  0.44359522527E+03  0.47586703563E+03  0.00000000000E+00 0. -1.
         22    1    1    2    0    0 -0.31581078218E+03  0.67428493003E+03  0.43243506157E+03  0.86104395909E+03  0.00000000000E+00 0.  1.
<mgrwt>
<rscale>  0 0.16927007E+04</rscale>
<asrwt>0</asrwt>
<pdfrwt beam="1">  1        2 0.37706349E+00 0.16927007E+04</pdfrwt>
<pdfrwt beam="2">  1       -2 0.44963401E-01 0.16927007E+04</pdfrwt>
<totfact> 0.16621324E+01</totfact>
</mgrwt>
</event>
<event>
 6    1  0.1614874E-005  0.2499514E+04  0.7818608E-02  0.8403159E-01
         -2   -1    0    0    0  501 -0.00000000000E+00  0.00000000000E+00  0.46655372056E+03  0.46655372056E+03  0.00000000000E+00 0.  1.
          2   -1    0    0  501    0  0.00000000000E+00 -0.00000000000E+00 -0.33477219652E+04  0.33477219652E+04  0.00000000000E+00 0. -1.
         23    2    1    2    0    0 -0.23686081318E+03  0.30871276200E+03 -0.32521676425E+04  0.32766446158E+04  0.91645782402E+02 0.  0.
         11    1    3    3    0    0 -0.68533978159E+02  0.15978457405E+03 -0.15424482288E+04  0.15522160142E+04  0.00000000000E+00 0. -1.
        -11    1    3    3    0    0 -0.16832683502E+03  0.14892818795E+03 -0.17097194137E+04  0.17244286016E+04  0.00000000000E+00 0.  1.
         22    1    1    2    0    0  0.23686081318E+03 -0.30871276200E+03  0.37099939780E+03  0.53763106998E+03  0.00000000000E+00 0.  1.
<mgrwt>
<rscale>  0 0.24995137E+04</rscale>
<asrwt>0</asrwt>
<pdfrwt beam="1">  1        2 0.51503416E+00 0.24995137E+04</pdfrwt>
<pdfrwt beam="2">  1       -2 0.71777494E-01 0.24995137E+04</pdfrwt>
<totfact> 0.16250607E+00</totfact>
</mgrwt>
</event>
<event>
 6    1  0.1614874E-005  0.2057890E+04  0.7818608E-02  0.8580023E-01
         -2   -1    0    0    0  501 -0.00000000000E+00  0.00000000000E+00  0.16752328069E+04  0.16752328069E+04  0.00000000000E+00 0.  1.
          2   -1    0    0  501    0  0.00000000000E+00 -0.00000000000E+00 -0.63198875282E+03  0.63198875282E+03  0.00000000000E+00 0. -1.
         23    2    1    2    0    0  0.67491030432E+03  0.79478485702E+02 -0.34048583351E+03  0.76562201692E+03  0.91791728390E+02 0.  0.
         11    1    3    3    0    0  0.54027980039E+03  0.83666022176E+02 -0.30621993863E+03  0.62663619173E+03  0.00000000000E+00 0.  1.
        -11    1    3    3    0    0  0.13463050393E+03 -0.41875364735E+01 -0.34265894880E+02  0.13898582518E+03  0.00000000000E+00 0. -1.
         22    1    1    2    0    0 -0.67491030432E+03 -0.79478485702E+02  0.13837298876E+04  0.15415995428E+04  0.00000000000E+00 0.  1.
<mgrwt>
<rscale>  0 0.20578905E+04</rscale>
<asrwt>0</asrwt>
<pdfrwt beam="1">  1        2 0.97229039E-01 0.20578905E+04</pdfrwt>
<pdfrwt beam="2">  1       -2 0.25772812E+00 0.20578905E+04</pdfrwt>
<totfact> 0.24796046E+00</totfact>
</mgrwt>
</event>
<event>
 6    1  0.4503046E-005  0.3730504E+04  0.7818608E-02  0.8061235E-01
         -2   -1    0    0    0  501 -0.00000000000E+00  0.00000000000E+00  0.10572500408E+04  0.10572500408E+04  0.00000000000E+00 0.  1.
          2   -1    0    0  501    0  0.00000000000E+00 -0.00000000000E+00 -0.32907688073E+04  0.32907688073E+04  0.00000000000E+00 0. -1.
         23    2    1    2    0    0 -0.14925963665E+03  0.18298993116E+04 -0.74135436440E+03  0.19821438445E+04  0.92076040161E+02 0.  0.
         13    1    3    3    0    0 -0.24207833467E+02  0.86129984068E+03 -0.34508478839E+03  0.92817398473E+03  0.00000000000E+00 0. -1.
        -13    1    3    3    0    0 -0.12505180318E+03  0.96859947088E+03 -0.39626957601E+03  0.10539698598E+04  0.00000000000E+00 0.  1.
         22    1    1    2    0    0  0.14925963665E+03 -0.18298993116E+04 -0.14921644021E+04  0.23658750036E+04  0.00000000000E+00 0.  1.
<mgrwt>
<rscale>  0 0.37305042E+04</rscale>
<asrwt>0</asrwt>
<pdfrwt beam="1">  1        2 0.50627212E+00 0.37305042E+04</pdfrwt>
<pdfrwt beam="2">  1       -2 0.16265385E+00 0.37305042E+04</pdfrwt>
<totfact> 0.21911441E-01</totfact>
</mgrwt>
</event>
<event>
 6    1  0.1614874E-005  0.8837827E+03  0.7818608E-02  0.9446084E-01
         -2   -1    0    0    0  501 -0.00000000000E+00  0.00000000000E+00  0.82879181041E+02  0.82879181041E+02  0.00000000000E+00 0.  1.
          2   -1    0    0  501    0  0.00000000000E+00 -0.00000000000E+00 -0.23560555324E+04  0.23560555324E+04  0.00000000000E+00 0. -1.
         23    2    1    2    0    0 -0.18376288765E+03  0.39258314699E+03 -0.10044711967E+04  0.10982247911E+04  0.96150823153E+02 0.  0.
         11    1    3    3    0    0 -0.10747002640E+03  0.20282994086E+03 -0.64526996344E+03  0.68488182718E+03  0.00000000000E+00 0. -1.
        -11    1    3    3    0    0 -0.76292861246E+02  0.18975320613E+03 -0.35920123321E+03  0.41334296396E+03  0.00000000000E+00 0.  1.
         22    1    1    2    0    0  0.18376288765E+03 -0.39258314699E+03 -0.12687051547E+04  0.13407099223E+04  0.00000000000E+00 0.  1.
<mgrwt>
<rscale>  0 0.88378267E+03</rscale>
<asrwt>0</asrwt>
<pdfrwt beam="1">  1        2 0.36247005E+00 0.88378267E+03</pdfrwt>
<pdfrwt beam="2">  1       -2 0.12750644E-01 0.88378267E+03</pdfrwt>
<totfact> 0.19792515E+02</totfact>
</mgrwt>
</event>
<event>
 6    1  0.1614874E-005  0.3003233E+04  0.7818608E-02  0.8242808E-01
          1   -1    0    0  501    0  0.00000000000E+00  0.00000000000E+00  0.20006679272E+04  0.20006679272E+04  0.00000000000E+00 0. -1.
         -1   -1    0    0    0  501 -0.00000000000E+00 -0.00000000000E+00 -0.11270498424E+04  0.11270498424E+04  0.00000000000E+00 0.  1.
         23    2    1    2    0    0  0.73481549820E+03  0.13076612349E+04  0.40763070675E+03  0.15570249421E+04  0.90731227124E+02 0.  0.
         13    1    3    3    0    0  0.13977758960E+03  0.19034591460E+03  0.81257766256E+02  0.24974420180E+03  0.00000000000E+00 0.  1.
        -13    1    3    3    0    0  0.59503790860E+03  0.11173153203E+04  0.32637294049E+03  0.13072807403E+04  0.00000000000E+00 0. -1.
         22    1    1    2    0    0 -0.73481549820E+03 -0.13076612349E+04  0.46598737810E+03  0.15706928275E+04  0.00000000000E+00 0. -1.
<mgrwt>
<rscale>  0 0.30032332E+04</rscale>
<asrwt>0</asrwt>
<pdfrwt beam="1">  1        1 0.30779507E+00 0.30032332E+04</pdfrwt>
<pdfrwt beam="2">  1       -1 0.17339228E+00 0.30032332E+04</pdfrwt>
<totfact> 0.58856093E-01</totfact>
</mgrwt>
</event>
<event>
 6    1  0.1614874E-005  0.2829332E+04  0.7818608E-02  0.8294219E-01
          2   -1    0    0  501    0  0.00000000000E+00  0.00000000000E+00  0.17963128044E+04  0.17963128044E+04  0.00000000000E+00 0.  1.
         -2   -1    0    0    0  501 -0.00000000000E+00 -0.00000000000E+00 -0.11141044570E+04  0.11141044570E+04  0.00000000000E+00 0. -1.
         23    2    1    2    0    0  0.35362992164E+03 -0.12986979761E+04  0.78440868297E+03  0.15605596899E+04  0.91536927984E+02 0.  0.
         13    1    3    3    0    0  0.54640803803E+02 -0.35117461718E+03  0.19770929479E+03  0.40669176834E+03  0.00000000000E+00 0. -1.
        -13    1    3    3    0    0  0.29898911783E+03 -0.94752335893E+03  0.58669938818E+03  0.11538679216E+04  0.00000000000E+00 0.  1.
         22    1    1    2    0    0 -0.35362992164E+03  0.12986979761E+04 -0.10220033554E+03  0.13498575715E+04  0.00000000000E+00 0.  1.
<mgrwt>
<rscale>  0 0.28293321E+04</rscale>
<asrwt>0</asrwt>
<pdfrwt beam="1">  1        2 0.27635582E+00 0.28293321E+04</pdfrwt>
<pdfrwt beam="2">  1       -2 0.17140069E+00 0.28293321E+04</pdfrwt>
<totfact> 0.15678934E+00</totfact>
</mgrwt>
</event>
<event>
 6    1  0.1614874E-005  0.1373529E+04  0.7818608E-02  0.8973206E-01
         -2   -1    0    0    0  501 -0.00000000000E+00  0.00000000000E+00  0.46516753553E+03  0.46516753553E+03  0.00000000000E+00 0.  1.
          2   -1    0    0  501    0  0.00000000000E+00 -0.00000000000E+00 -0.10139258059E+04  0.10139258059E+04  0.00000000000E+00 0. -1.
         23    2    1    2    0    0 -0.23251725185E+03  0.55153223183E+03  0.80565884723E+02  0.61058832283E+03  0.89861910909E+02 0.  0.
         13    1    3    3    0    0 -0.17508607910E+03  0.30929998911E+03  0.31114164730E+02  0.35677683445E+03  0.00000000000E+00 0. -1.
        -13    1    3    3    0    0 -0.57431172750E+02  0.24223224273E+03  0.49451719993E+02  0.25381148837E+03  0.00000000000E+00 0.  1.
         22    1    1    2    0    0  0.23251725185E+03 -0.55153223183E+03 -0.62932415512E+03  0.86850501863E+03  0.00000000000E+00 0. -1.
<mgrwt>
<rscale>  0 0.13735288E+04</rscale>
<asrwt>0</asrwt>
<pdfrwt beam="1">  1        2 0.15598859E+00 0.13735288E+04</pdfrwt>
<pdfrwt beam="2">  1       -2 0.71564236E-01 0.13735288E+04</pdfrwt>
<totfact> 0.42624942E+01</totfact>
</mgrwt>
</event>
<event>
 6    1  0.1614874E-005  0.2195532E+04  0.7818608E-02  0.8520290E-01
         -1   -1    0    0    0  501 -0.00000000000E+00  0.00000000000E+00  0.91530953471E+03  0.91530953471E+03  0.00000000000E+00 0.  1.
          1   -1    0    0  501    0  0.00000000000E+00 -0.00000000000E+00 -0.13165930159E+04  0.13165930159E+04  0.00000000000E+00 0. -1.
         23    2    1    2    0    0  0.15065037383E+03  0.29460990329E+02 -0.13040476700E+04  0.13161806137E+04  0.90706104102E+02 0.  0.
         11    1    3    3    0    0  0.65670660508E+02  0.58696729577E+02 -0.60409307593E+03  0.61048045513E+03  0.00000000000E+00 0.  1.
        -11    1    3    3    0    0  0.84979713326E+02 -0.29235739249E+02 -0.69995459403E+03  0.70570015858E+03  0.00000000000E+00 0. -1.
         22    1    1    2    0    0 -0.15065037383E+03 -0.29460990329E+02  0.90276418879E+03  0.91572193686E+03  0.00000000000E+00 0.  1.
<mgrwt>
<rscale>  0 0.21955320E+04</rscale>
<asrwt>0</asrwt>
<pdfrwt beam="1">  1        1 0.20255277E+00 0.21955320E+04</pdfrwt>
<pdfrwt beam="2">  1       -1 0.14081685E+00 0.21955320E+04</pdfrwt>
<totfact> 0.33143503E+00</totfact>
</mgrwt>
</event>
<event>
 6    1  0.1614874E-005  0.2075912E+04  0.7818608E-02  0.8571929E-01
          2   -1    0    0  501    0  0.00000000000E+00  0.00000000000E+00  0.94030232062E+03  0.94030232062E+03  0.00000000000E+00 0. -1.
         -2   -1    0    0    0  501 -0.00000000000E+00 -0.00000000000E+00 -0.11457509937E+04  0.11457509937E+04  0.00000000000E+00 0.  1.
         23    2    1    2    0    0  0.11750303036E+03  0.82449930985E+03  0.51617861849E+03  0.98407689804E+03  0.91437962477E+02 0.  0.
         11    1    3    3    0    0  0.10672352030E+03  0.69988456673E+03  0.47432120349E+03  0.85217892523E+03  0.00000000000E+00 0. -1.
        -11    1    3    3    0    0  0.10779510058E+02  0.12461474312E+03  0.41857415004E+02  0.13189797281E+03  0.00000000000E+00 0.  1.
         22    1    1    2    0    0 -0.11750303036E+03 -0.82449930985E+03 -0.72162729160E+03  0.11019764163E+04  0.00000000000E+00 0.  1.
<mgrwt>
<rscale>  0 0.20759117E+04</rscale>
<asrwt>0</asrwt>
<pdfrwt beam="1">  1        2 0.14466190E+00 0.20759117E+04</pdfrwt>
<pdfrwt beam="2">  1       -2 0.17626938E+00 0.20759117E+04</pdfrwt>
<totfact> 0.48959984E+00</totfact>
</mgrwt>
</event>
<event>
 6    1  0.1614874E-005  0.4041259E+03  0.7818608E-02  0.1042360E+00
          1   -1    0    0  501    0  0.00000000000E+00  0.00000000000E+00  0.14249012402E+04  0.14249012402E+04  0.00000000000E+00 0. -1.
         -1   -1    0    0    0  501 -0.00000000000E+00 -0.00000000000E+00 -0.28654215211E+02  0.28654215211E+02  0.00000000000E+00 0.  1.
         23    2    1    2    0    0  0.11263202055E+03  0.13638012042E+03  0.56440465655E+03  0.60311601887E+03  0.11794408242E+03 0.  0.
         11    1    3    3    0    0  0.11862818656E+03  0.12620416144E+03  0.56533037417E+03  0.59126860983E+03  0.00000000000E+00 0. -1.
        -11    1    3    3    0    0 -0.59961660113E+01  0.10175958976E+02 -0.92571761217E+00  0.11847409042E+02  0.00000000000E+00 0.  1.
         22    1    1    2    0    0 -0.11263202055E+03 -0.13638012042E+03  0.83184236839E+03  0.85043943649E+03  0.00000000000E+00 0. -1.
<mgrwt>
<rscale>  0 0.40412586E+03</rscale>
<asrwt>0</asrwt>
<pdfrwt beam="1">  1        1 0.21921552E+00 0.40412586E+03</pdfrwt>
<pdfrwt beam="2">  1       -1 0.44083419E-02 0.40412586E+03</pdfrwt>
<totfact> 0.17028273E+03</totfact>
</mgrwt>
</event>
<event>
 6    1  0.1614874E-005  0.1728288E+04  0.7818608E-02  0.8745393E-01
         -1   -1    0    0    0  501 -0.00000000000E+00  0.00000000000E+00  0.86866041015E+03  0.86866041015E+03  0.00000000000E+00 0.  1.
          1   -1    0    0  501    0  0.00000000000E+00 -0.00000000000E+00 -0.85965110265E+03  0.85965110265E+03  0.00000000000E+00 0. -1.
         23    2    1    2    0    0  0.78036729540E+03 -0.19035997089E+03  0.31639839431E+03  0.86825448855E+03  0.92454738719E+02 0.  0.
         11    1    3    3    0    0  0.11645395829E+03 -0.15417786299E+02  0.14953643583E+02  0.11841808980E+03  0.00000000000E+00 0. -1.
        -11    1    3    3    0    0  0.66391333711E+03 -0.17494218460E+03  0.30144475073E+03  0.74983639875E+03  0.00000000000E+00 0.  1.
         22    1    1    2    0    0 -0.78036729540E+03  0.19035997089E+03 -0.30738908681E+03  0.86005702424E+03  0.00000000000E+00 0. -1.
<mgrwt>
<rscale>  0 0.17282880E+04</rscale>
<asrwt>0</asrwt>
<pdfrwt beam="1">  1        1 0.13225402E+00 0.17282880E+04</pdfrwt>
<pdfrwt beam="2">  1       -1 0.13364006E+00 0.17282880E+04</pdfrwt>
<totfact> 0.88233108E+00</totfact>
</mgrwt>
</event>
<event>
 6    1  0.1614874E-005  0.1123738E+04  0.7818608E-02  0.9182360E-01
          1   -1    0    0  501    0  0.00000000000E+00  0.00000000000E+00  0.74287233065E+03  0.74287233065E+03  0.00000000000E+00 0. -1.
         -1   -1    0    0    0  501 -0.00000000000E+00 -0.00000000000E+00 -0.42496736187E+03  0.42496736187E+03  0.00000000000E+00 0.  1.
         23    2    1    2    0    0  0.11211714422E+03  0.22130187878E+03 -0.36303992957E+03  0.44311165376E+03  0.54819445968E+02 0.  0.
         11    1    3    3    0    0  0.52423202287E+02  0.15898137135E+03 -0.22808388304E+03  0.28292318087E+03  0.00000000000E+00 0.  1.
        -11    1    3    3    0    0  0.59693941933E+02  0.62320507428E+02 -0.13495604654E+03  0.16018847289E+03  0.00000000000E+00 0. -1.
         22    1    1    2    0    0 -0.11211714422E+03 -0.22130187878E+03  0.68094489835E+03  0.72472803876E+03  0.00000000000E+00 0. -1.
<mgrwt>
<rscale>  0 0.11237375E+04</rscale>
<asrwt>0</asrwt>
<pdfrwt beam="1">  1        1 0.11428805E+00 0.11237375E+04</pdfrwt>
<pdfrwt beam="2">  1       -1 0.65379594E-01 0.11237375E+04</pdfrwt>
<totfact> 0.58674629E+01</totfact>
</mgrwt>
</event>
<event>
 6    1  0.1614874E-005  0.4288218E+04  0.7818608E-02  0.7948800E-01
         -2   -1    0    0    0  501 -0.00000000000E+00  0.00000000000E+00  0.24505503830E+04  0.24505503830E+04  0.00000000000E+00 0.  1.
          2   -1    0    0  501    0  0.00000000000E+00 -0.00000000000E+00 -0.18759881938E+04  0.18759881938E+04  0.00000000000E+00 0. -1.
         23    2    1    2    0    0 -0.14673500244E+04  0.62569607165E+03 -0.11565434018E+04  0.19725338539E+04  0.93196010546E+02 0.  0.
         13    1    3    3    0    0 -0.72788705835E+03  0.35264082936E+03 -0.55399351112E+03  0.98034888412E+03  0.00000000000E+00 0.  1.
        -13    1    3    3    0    0 -0.73946296602E+03  0.27305524230E+03 -0.60254989071E+03  0.99218496978E+03  0.00000000000E+00 0. -1.
         22    1    1    2    0    0  0.14673500244E+04 -0.62569607165E+03  0.17311055910E+04  0.23540047229E+04  0.00000000000E+00 0.  1.
<mgrwt>
<rscale>  0 0.42882181E+04</rscale>
<asrwt>0</asrwt>
<pdfrwt beam="1">  1        2 0.28861357E+00 0.42882181E+04</pdfrwt>
<pdfrwt beam="2">  1       -2 0.37700775E+00 0.42882181E+04</pdfrwt>
<totfact> 0.63159112E-02</totfact>
</mgrwt>
</event>
<event>
 6    1  0.1614874E-005  0.1604191E+04  0.7818608E-02  0.8817978E-01
          2   -1    0    0  501    0  0.00000000000E+00  0.00000000000E+00  0.58295394079E+03  0.58295394079E+03  0.00000000000E+00 0.  1.
         -2   -1    0    0    0  501 -0.00000000000E+00 -0.00000000000E+00 -0.11036155820E+04  0.11036155820E+04  0.00000000000E+00 0. -1.
         23    2    1    2    0    0 -0.42554214802E+03 -0.20048652535E+03 -0.94076188834E+03  0.10558832425E+04  0.92604128452E+02 0.  0.
         13    1    3    3    0    0 -0.28894720647E+03 -0.14780284953E+03 -0.55032590330E+03  0.63890122108E+03  0.00000000000E+00 0. -1.
        -13    1    3    3    0    0 -0.13659494155E+03 -0.52683675821E+02 -0.39043598504E+03  0.41698202140E+03  0.00000000000E+00 0.  1.
         22    1    1    2    0    0  0.42554214802E+03  0.20048652535E+03  0.42010024710E+03  0.63068628033E+03  0.00000000000E+00 0.  1.
<mgrwt>
<rscale>  0 0.16041908E+04</rscale>
<asrwt>0</asrwt>
<pdfrwt beam="1">  1        2 0.89685223E-01 0.16041908E+04</pdfrwt>
<pdfrwt beam="2">  1       -2 0.16978701E+00 0.16041908E+04</pdfrwt>
<totfact> 0.10519204E+01</totfact>
</mgrwt>
</event>
<event>
 6    1  0.1614874E-005  0.2152106E+04  0.7818608E-02  0.8538631E-01
         -1   -1    0    0    0  501 -0.00000000000E+00  0.00000000000E+00  0.79412879671E+03  0.79412879671E+03  0.00000000000E+00 0.  1.
          1   -1    0    0  501    0  0.00000000000E+00 -0.00000000000E+00 -0.14580632664E+04  0.14580632664E+04  0.00000000000E+00 0. -1.
         23    2    1    2    0    0 -0.90926641734E+03  0.38622797682E+03  0.10854234872E+03  0.99813548436E+03  0.92496139787E+02 0.  0.
         11    1    3    3    0    0 -0.52676872857E+03  0.24825816308E+03  0.24079910121E+02  0.58283552655E+03  0.00000000000E+00 0. -1.
        -11    1    3    3    0    0 -0.38249768877E+03  0.13796981374E+03  0.84462438596E+02  0.41529995780E+03  0.00000000000E+00 0.  1.
         22    1    1    2    0    0  0.90926641734E+03 -0.38622797682E+03 -0.77247681844E+03  0.12540565788E+04  0.00000000000E+00 0. -1.
<mgrwt>
<rscale>  0 0.21521060E+04</rscale>
<asrwt>0</asrwt>
<pdfrwt beam="1">  1        1 0.22431742E+00 0.21521060E+04</pdfrwt>
<pdfrwt beam="2">  1       -1 0.12217366E+00 0.21521060E+04</pdfrwt>
<totfact> 0.37939401E+00</totfact>
</mgrwt>
</event>
<event>
 6    1  0.1614874E-005  0.5222862E+04  0.7818608E-02  0.7795019E-01
         -2   -1    0    0    0  501 -0.00000000000E+00  0.00000000000E+00  0.20249105262E+04  0.20249105262E+04  0.00000000000E+00 0.  1.
          2   -1    0    0  501    0  0.00000000000E+00 -0.00000000000E+00 -0.33678390831E+04  0.33678390831E+04  0.00000000000E+00 0. -1.
         23    2    1    2    0    0 -0.24789181589E+04  0.70198729624E+03 -0.23666838683E+03  0.25888892407E+04  0.92272274411E+02 0.  0.
         13    1    3    3    0    0 -0.16271167344E+04  0.50254288162E+03 -0.17354193750E+03  0.17117753998E+04  0.00000000000E+00 0.  1.
        -13    1    3    3    0    0 -0.85180142451E+03  0.19944441462E+03 -0.63126449324E+02  0.87711384092E+03  0.00000000000E+00 0. -1.
         22    1    1    2    0    0  0.24789181589E+04 -0.70198729624E+03 -0.11062601701E+04  0.28038603686E+04  0.00000000000E+00 0. -1.
<mgrwt>
<rscale>  0 0.52228624E+04</rscale>
<asrwt>0</asrwt>
<pdfrwt beam="1">  1        2 0.51812908E+00 0.52228624E+04</pdfrwt>
<pdfrwt beam="2">  1       -2 0.31152470E+00 0.52228624E+04</pdfrwt>
<totfact> 0.19340226E-02</totfact>
</mgrwt>
</event>
<event>
 6    1  0.1614874E-005  0.1651667E+04  0.7818608E-02  0.8789421E-01
         -2   -1    0    0    0  501 -0.00000000000E+00  0.00000000000E+00  0.89998876214E+03  0.89998876214E+03  0.00000000000E+00 0. -1.
          2   -1    0    0  501    0  0.00000000000E+00 -0.00000000000E+00 -0.75778876660E+03  0.75778876660E+03  0.00000000000E+00 0.  1.
         23    2    1    2    0    0 -0.33143365890E+03  0.10157662117E+03 -0.67825183305E+03  0.76709953797E+03  0.90829906402E+02 0.  0.
         13    1    3    3    0    0 -0.18461998890E+03  0.95431866559E+02 -0.44948665413E+03  0.49520706144E+03  0.00000000000E+00 0.  1.
        -13    1    3    3    0    0 -0.14681367000E+03  0.61447546070E+01 -0.22876517892E+03  0.27189247653E+03  0.00000000000E+00 0. -1.
         22    1    1    2    0    0  0.33143365890E+03 -0.10157662117E+03  0.82045182859E+03  0.89067799077E+03  0.00000000000E+00 0. -1.
<mgrwt>
<rscale>  0 0.16516675E+04</rscale>
<asrwt>0</asrwt>
<pdfrwt beam="1">  1        2 0.11658289E+00 0.16516675E+04</pdfrwt>
<pdfrwt beam="2">  1       -2 0.13845981E+00 0.16516675E+04</pdfrwt>
<totfact> 0.13057716E+01</totfact>
</mgrwt>
</event>
<event>
 6    1  0.1614874E-005  0.4562405E+04  0.7818608E-02  0.7899802E-01
          1   -1    0    0  501    0  0.00000000000E+00  0.00000000000E+00  0.36667045675E+04  0.36667045675E+04  0.00000000000E+00 0. -1.
         -1   -1    0    0    0  501 -0.00000000000E+00 -0.00000000000E+00 -0.14192266791E+04  0.14192266791E+04  0.00000000000E+00 0.  1.
         23    2    1    2    0    0 -0.10342537973E+04  0.76504620832E+02  0.33880294014E+04  0.35443763081E+04  0.91248643079E+02 0.  0.
         13    1    3    3    0    0 -0.91766765463E+03  0.68899568786E+02  0.28975548519E+04  0.30401784807E+04  0.00000000000E+00 0. -1.
        -13    1    3    3    0    0 -0.11658614271E+03  0.76050520459E+01  0.49047454951E+03  0.50419782745E+03  0.00000000000E+00 0.  1.
         22    1    1    2    0    0  0.10342537973E+04 -0.76504620832E+02 -0.11405515130E+04  0.15415549384E+04  0.00000000000E+00 0.  1.
<mgrwt>
<rscale>  0 0.45624050E+04</rscale>
<asrwt>0</asrwt>
<pdfrwt beam="1">  1        1 0.56410839E+00 0.45624050E+04</pdfrwt>
<pdfrwt beam="2">  1       -1 0.21834257E+00 0.45624050E+04</pdfrwt>
<totfact> 0.15476648E-02</totfact>
</mgrwt>
</event>
<event>
 6    1  0.1614874E-005  0.1950044E+04  0.7818608E-02  0.8630340E-01
         -2   -1    0    0    0  501 -0.00000000000E+00  0.00000000000E+00  0.43848428255E+03  0.43848428255E+03  0.00000000000E+00 0.  1.
          2   -1    0    0  501    0  0.00000000000E+00 -0.00000000000E+00 -0.21680766366E+04  0.21680766366E+04  0.00000000000E+00 0. -1.
         23    2    1    2    0    0  0.69011626041E+03 -0.66905494098E+03 -0.66575118736E+03  0.11728060604E+04  0.91402653039E+02 0.  0.
         13    1    3    3    0    0  0.58412970036E+03 -0.55961042226E+03 -0.59851936839E+03  0.10062786721E+04  0.00000000000E+00 0. -1.
        -13    1    3    3    0    0  0.10598656005E+03 -0.10944451872E+03 -0.67231818963E+02  0.16652738835E+03  0.00000000000E+00 0.  1.
         22    1    1    2    0    0 -0.69011626041E+03  0.66905494098E+03 -0.10638411667E+04  0.14337548587E+04  0.00000000000E+00 0. -1.
<mgrwt>
<rscale>  0 0.19500436E+04</rscale>
<asrwt>0</asrwt>
<pdfrwt beam="1">  1        2 0.33355026E+00 0.19500436E+04</pdfrwt>
<pdfrwt beam="2">  1       -2 0.67459119E-01 0.19500436E+04</pdfrwt>
<totfact> 0.10115027E+01</totfact>
</mgrwt>
</event>
<event>
 6    1  0.1614874E-005  0.3706510E+04  0.7818608E-02  0.8066521E-01
          1   -1    0    0  501    0  0.00000000000E+00  0.00000000000E+00  0.29827589351E+04  0.29827589351E+04  0.00000000000E+00 0. -1.
         -1   -1    0    0    0  501 -0.00000000000E+00 -0.00000000000E+00 -0.11514686609E+04  0.11514686609E+04  0.00000000000E+00 0.  1.
         23    2    1    2    0    0 -0.29641591340E+03 -0.12173378671E+04  0.24377229622E+04  0.27422741194E+04  0.88318906929E+02 0.  0.
         11    1    3    3    0    0 -0.15017063074E+03 -0.54624463186E+03  0.11911317885E+04  0.13189880036E+04  0.00000000000E+00 0. -1.
        -11    1    3    3    0    0 -0.14624528266E+03 -0.67109323520E+03  0.12465911737E+04  0.14232861158E+04  0.00000000000E+00 0.  1.
         22    1    1    2    0    0  0.29641591340E+03  0.12173378671E+04 -0.60643268794E+03  0.13919534767E+04  0.00000000000E+00 0.  1.
<mgrwt>
<rscale>  0 0.37065096E+04</rscale>
<asrwt>0</asrwt>
<pdfrwt beam="1">  1        1 0.45888599E+00 0.37065096E+04</pdfrwt>
<pdfrwt beam="2">  1       -1 0.17714903E+00 0.37065096E+04</pdfrwt>
<totfact> 0.10759621E-01</totfact>
</mgrwt>
</event>
<event>
 6    1  0.1614874E-005  0.2460687E+04  0.7818608E-02  0.8417126E-01
         -1   -1    0    0    0  501 -0.00000000000E+00  0.00000000000E+00  0.65750708906E+03  0.65750708906E+03  0.00000000000E+00 0.  1.
          1   -1    0    0  501    0  0.00000000000E+00 -0.00000000000E+00 -0.23022490478E+04  0.23022490478E+04  0.00000000000E+00 0. -1.
         23    2    1    2    0    0  0.63757045478E+03  0.44082639165E+03 -0.19700783143E+04  0.21191208196E+04  0.92954243740E+02 0.  0.
         11    1    3    3    0    0  0.17678225180E+03  0.17027810441E+03 -0.66786393919E+03  0.71153976605E+03  0.00000000000E+00 0. -1.
        -11    1    3    3    0    0  0.46078820298E+03  0.27054828724E+03 -0.13022143751E+04  0.14075810536E+04  0.00000000000E+00 0.  1.
         22    1    1    2    0    0 -0.63757045478E+03 -0.44082639165E+03  0.32533635552E+03  0.84063531725E+03  0.00000000000E+00 0.  1.
<mgrwt>
<rscale>  0 0.24606870E+04</rscale>
<asrwt>0</asrwt>
<pdfrwt beam="1">  1        1 0.35419216E+00 0.24606870E+04</pdfrwt>
<pdfrwt beam="2">  1       -1 0.10115494E+00 0.24606870E+04</pdfrwt>
<totfact> 0.15342205E+00</totfact>
</mgrwt>
</event>
<event>
 6    1  0.1614874E-005  0.2199676E+04  0.7818608E-02  0.8518563E-01
         -2   -1    0    0    0  501 -0.00000000000E+00  0.00000000000E+00  0.48915562385E+03  0.48915562385E+03  0.00000000000E+00 0.  1.
          2   -1    0    0  501    0  0.00000000000E+00 -0.00000000000E+00 -0.24729209462E+04  0.24729209462E+04  0.00000000000E+00 0. -1.
         23    2    1    2    0    0  0.24753639232E+02  0.48645652616E+03  0.33152778164E+03  0.59610217207E+03  0.90412582350E+02 0.  0.
         11    1    3    3    0    0  0.61005289020E+01  0.27260600382E+03  0.13165160826E+03  0.30279266129E+03  0.00000000000E+00 0. -1.
        -11    1    3    3    0    0  0.18653110330E+02  0.21385052234E+03  0.19987617338E+03  0.29330951078E+03  0.00000000000E+00 0.  1.
         22    1    1    2    0    0 -0.24753639232E+02 -0.48645652616E+03 -0.23152931040E+04  0.23659743979E+04  0.00000000000E+00 0. -1.
<mgrwt>
<rscale>  0 0.21996756E+04</rscale>
<asrwt>0</asrwt>
<pdfrwt beam="1">  1        2 0.38044938E+00 0.21996756E+04</pdfrwt>
<pdfrwt beam="2">  1       -2 0.75254710E-01 0.21996756E+04</pdfrwt>
<totfact> 0.52286840E+00</totfact>
</mgrwt>
</event>
<event>
 6    1  0.1614874E-005  0.2048579E+04  0.7818608E-02  0.8584239E-01
         -1   -1    0    0    0  501 -0.00000000000E+00  0.00000000000E+00  0.15374169887E+04  0.15374169887E+04  0.00000000000E+00 0.  1.
          1   -1    0    0  501    0  0.00000000000E+00 -0.00000000000E+00 -0.68242300537E+03  0.68242300537E+03  0.00000000000E+00 0. -1.
         23    2    1    2    0    0 -0.70103336209E+03  0.70325887279E+03  0.16490976803E+03  0.10106100568E+04  0.90092388164E+02 0.  0.
         11    1    3    3    0    0 -0.43640655570E+03  0.49786765682E+03  0.11273821925E+03  0.67158974951E+03  0.00000000000E+00 0.  1.
        -11    1    3    3    0    0 -0.26462680639E+03  0.20539121597E+03  0.52171548782E+02  0.33902030730E+03  0.00000000000E+00 0. -1.
         22    1    1    2    0    0  0.70103336209E+03 -0.70325887279E+03  0.69008421525E+03  0.12092299372E+04  0.00000000000E+00 0.  1.
<mgrwt>
<rscale>  0 0.20485787E+04</rscale>
<asrwt>0</asrwt>
<pdfrwt beam="1">  1        1 0.10498816E+00 0.20485787E+04</pdfrwt>
<pdfrwt beam="2">  1       -1 0.23652569E+00 0.20485787E+04</pdfrwt>
<totfact> 0.22351694E+00</totfact>
</mgrwt>
</event>
<event>
 6    1  0.1614874E-005  0.3539917E+04  0.7818608E-02  0.8104395E-01
         -2   -1    0    0    0  501 -0.00000000000E+00  0.00000000000E+00  0.88000963779E+03  0.88000963779E+03  0.00000000000E+00 0.  1.
          2   -1    0    0  501    0  0.00000000000E+00 -0.00000000000E+00 -0.35599069193E+04  0.35599069193E+04  0.00000000000E+00 0. -1.
         23    2    1    2    0    0 -0.63488049753E+03  0.83632791506E+03  0.44443887824E+03  0.11438592052E+04  0.91489547313E+02 0.  0.
         13    1    3    3    0    0 -0.18502715890E+03  0.30901795185E+03  0.17161385823E+03  0.39897175393E+03  0.00000000000E+00 0.  1.
        -13    1    3    3    0    0 -0.44985333863E+03  0.52730996321E+03  0.27282502001E+03  0.74488745131E+03  0.00000000000E+00 0. -1.
         22    1    1    2    0    0  0.63488049753E+03 -0.83632791506E+03 -0.31243361597E+04  0.32960573519E+04  0.00000000000E+00 0. -1.
<mgrwt>
<rscale>  0 0.35399166E+04</rscale>
<asrwt>0</asrwt>
<pdfrwt beam="1">  1        2 0.54767799E+00 0.35399166E+04</pdfrwt>
<pdfrwt beam="2">  1       -2 0.13538610E+00 0.35399166E+04</pdfrwt>
<totfact> 0.23616172E-01</totfact>
</mgrwt>
</event>
<event>
 6    1  0.1614874E-005  0.5005825E+04  0.7818608E-02  0.7827609E-01
          2   -1    0    0  501    0  0.00000000000E+00  0.00000000000E+00  0.29357308462E+04  0.29357308462E+04  0.00000000000E+00 0. -1.
         -2   -1    0    0    0  501 -0.00000000000E+00 -0.00000000000E+00 -0.21339050644E+04  0.21339050644E+04  0.00000000000E+00 0.  1.
         23    2    1    2    0    0 -0.23968164689E+04 -0.64265998638E+03  0.72899047760E+03  0.25870876181E+04  0.62082071950E+02 0.  0.
         11    1    3    3    0    0 -0.21922768996E+04 -0.57600007606E+03  0.65190796110E+03  0.23585669551E+04  0.00000000000E+00 0. -1.
        -11    1    3    3    0    0 -0.20453956931E+03 -0.66659910322E+02  0.77082516498E+02  0.22852066298E+03  0.00000000000E+00 0.  1.
         22    1    1    2    0    0  0.23968164689E+04  0.64265998638E+03  0.72835304178E+02  0.24825482926E+04  0.00000000000E+00 0.  1.
<mgrwt>
<rscale>  0 0.50058250E+04</rscale>
<asrwt>0</asrwt>
<pdfrwt beam="1">  1        2 0.45165090E+00 0.50058250E+04</pdfrwt>
<pdfrwt beam="2">  1       -2 0.32829309E+00 0.50058250E+04</pdfrwt>
<totfact> 0.29546914E-02</totfact>
</mgrwt>
</event>
<event>
 6    1  0.1614874E-005  0.5077855E+04  0.7818608E-02  0.7816608E-01
          2   -1    0    0  501    0  0.00000000000E+00  0.00000000000E+00  0.14644767053E+04  0.14644767053E+04  0.00000000000E+00 0. -1.
         -2   -1    0    0    0  501 -0.00000000000E+00 -0.00000000000E+00 -0.44016764132E+04  0.44016764132E+04  0.00000000000E+00 0.  1.
         23    2    1    2    0    0  0.93603914699E+03  0.17235589681E+03  0.12489997289E+04  0.15731190441E+04  0.93954053790E+02 0.  0.
         13    1    3    3    0    0  0.31963599883E+03  0.38617530974E+02  0.48903767953E+03  0.58550519848E+03  0.00000000000E+00 0. -1.
        -13    1    3    3    0    0  0.61640314816E+03  0.13373836584E+03  0.75996204937E+03  0.98761384561E+03  0.00000000000E+00 0.  1.
         22    1    1    2    0    0 -0.93603914699E+03 -0.17235589681E+03 -0.41861994368E+04  0.42930340745E+04  0.00000000000E+00 0.  1.
<mgrwt>
<rscale>  0 0.50778549E+04</rscale>
<asrwt>0</asrwt>
<pdfrwt beam="1">  1        2 0.22530411E+00 0.50778549E+04</pdfrwt>
<pdfrwt beam="2">  1       -2 0.67718098E+00 0.50778549E+04</pdfrwt>
<totfact> 0.26509775E-03</totfact>
</mgrwt>
</event>
<event>
 6    1  0.1614874E-005  0.2753562E+04  0.7818608E-02  0.8317832E-01
         -2   -1    0    0    0  501 -0.00000000000E+00  0.00000000000E+00  0.12326348242E+04  0.12326348242E+04  0.00000000000E+00 0.  1.
          2   -1    0    0  501    0  0.00000000000E+00 -0.00000000000E+00 -0.15377842997E+04  0.15377842997E+04  0.00000000000E+00 0. -1.
         23    2    1    2    0    0  0.12813401324E+04 -0.20352388539E+03  0.30587302061E+03  0.13363330046E+04  0.94726383236E+02 0.  0.
         11    1    3    3    0    0  0.46206618676E+03 -0.97149843260E+02  0.71266275184E+02  0.47751663319E+03  0.00000000000E+00 0.  1.
        -11    1    3    3    0    0  0.81927394565E+03 -0.10637404213E+03  0.23460674543E+03  0.85881637145E+03  0.00000000000E+00 0. -1.
         22    1    1    2    0    0 -0.12813401324E+04  0.20352388539E+03 -0.61102249614E+03  0.14340861193E+04  0.00000000000E+00 0. -1.
<mgrwt>
<rscale>  0 0.27535624E+04</rscale>
<asrwt>0</asrwt>
<pdfrwt beam="1">  1        2 0.23658220E+00 0.27535624E+04</pdfrwt>
<pdfrwt beam="2">  1       -2 0.18963613E+00 0.27535624E+04</pdfrwt>
<totfact> 0.16457364E+00</totfact>
</mgrwt>
</event>
<event>
 6    1  0.1614874E-005  0.1845243E+04  0.7818608E-02  0.8682603E-01
         -1   -1    0    0    0  501 -0.00000000000E+00  0.00000000000E+00  0.51713695746E+03  0.51713695746E+03  0.00000000000E+00 0.  1.
          1   -1    0    0  501    0  0.00000000000E+00 -0.00000000000E+00 -0.16460447990E+04  0.16460447990E+04  0.00000000000E+00 0. -1.
         23    2    1    2    0    0  0.76495526157E+03  0.10292579025E+02  0.34063870544E+02  0.77114522946E+03  0.90786167753E+02 0.  0.
         13    1    3    3    0    0  0.64722543082E+03  0.13044807119E+02 -0.40482658547E+01  0.64736953415E+03  0.00000000000E+00 0.  1.
        -13    1    3    3    0    0  0.11772983076E+03 -0.27522280936E+01  0.38112136398E+02  0.12377569531E+03  0.00000000000E+00 0. -1.
         22    1    1    2    0    0 -0.76495526157E+03 -0.10292579025E+02 -0.11629717121E+04  0.13920365270E+04  0.00000000000E+00 0. -1.
<mgrwt>
<rscale>  0 0.18452432E+04</rscale>
<asrwt>0</asrwt>
<pdfrwt beam="1">  1        1 0.25323766E+00 0.18452432E+04</pdfrwt>
<pdfrwt beam="2">  1       -1 0.79559532E-01 0.18452432E+04</pdfrwt>
<totfact> 0.76972730E+00</totfact>
</mgrwt>
</event>
<event>
 6    1  0.1614874E-005  0.4915256E+04  0.7818608E-02  0.7841714E-01
         -1   -1    0    0    0  501 -0.00000000000E+00  0.00000000000E+00  0.34423246371E+04  0.34423246371E+04  0.00000000000E+00 0.  1.
          1   -1    0    0  501    0  0.00000000000E+00 -0.00000000000E+00 -0.17546093144E+04  0.17546093144E+04  0.00000000000E+00 0. -1.
         23    2    1    2    0    0  0.53493602252E+03  0.23450138443E+04  0.31507871852E+03  0.24275698141E+04  0.92596572462E+02 0.  0.
         11    1    3    3    0    0  0.19710486977E+03  0.94348579157E+03  0.84132990524E+02  0.96751957534E+03  0.00000000000E+00 0. -1.
        -11    1    3    3    0    0  0.33783115275E+03  0.14015280528E+04  0.23094572800E+03  0.14600502388E+04  0.00000000000E+00 0.  1.
         22    1    1    2    0    0 -0.53493602252E+03 -0.23450138443E+04  0.13726366042E+04  0.27693641374E+04  0.00000000000E+00 0.  1.
<mgrwt>
<rscale>  0 0.49152558E+04</rscale>
<asrwt>0</asrwt>
<pdfrwt beam="1">  1        1 0.26993990E+00 0.49152558E+04</pdfrwt>
<pdfrwt beam="2">  1       -1 0.52958840E+00 0.49152558E+04</pdfrwt>
<totfact> 0.31316360E-03</totfact>
</mgrwt>
</event>
<event>
 6    1  0.1614874E-005  0.2344290E+04  0.7818608E-02  0.8460660E-01
          1   -1    0    0  501    0  0.00000000000E+00  0.00000000000E+00  0.12193830557E+04  0.12193830557E+04  0.00000000000E+00 0. -1.
         -1   -1    0    0    0  501 -0.00000000000E+00 -0.00000000000E+00 -0.11267366465E+04  0.11267366465E+04  0.00000000000E+00 0.  1.
         23    2    1    2    0    0 -0.83777356452E+03  0.54922732513E+03 -0.56120121034E+03  0.11498622426E+04  0.61001462143E+02 0.  0.
         13    1    3    3    0    0 -0.41407544223E+03  0.24568580957E+03 -0.29418830445E+03  0.56423997320E+03  0.00000000000E+00 0. -1.
        -13    1    3    3    0    0 -0.42369812228E+03  0.30354151556E+03 -0.26701290589E+03  0.58562226939E+03  0.00000000000E+00 0.  1.
         22    1    1    2    0    0  0.83777356452E+03 -0.54922732513E+03  0.65384761949E+03  0.11962574596E+04  0.00000000000E+00 0. -1.
<mgrwt>
<rscale>  0 0.23442897E+04</rscale>
<asrwt>0</asrwt>
<pdfrwt beam="1">  1        1 0.18759739E+00 0.23442897E+04</pdfrwt>
<pdfrwt beam="2">  1       -1 0.17334410E+00 0.23442897E+04</pdfrwt>
<totfact> 0.21660726E+00</totfact>
</mgrwt>
</event>
<event>
 6    1  0.1614874E-005  0.1457313E+04  0.7818608E-02  0.8913346E-01
          1   -1    0    0  501    0  0.00000000000E+00  0.00000000000E+00  0.15365587536E+04  0.15365587536E+04  0.00000000000E+00 0. -1.
         -1   -1    0    0    0  501 -0.00000000000E+00 -0.00000000000E+00 -0.34553866484E+03  0.34553866484E+03  0.00000000000E+00 0.  1.
         23    2    1    2    0    0  0.67652744196E+02  0.43189926908E+03  0.13460313188E+04  0.14182630150E+04  0.92497545956E+02 0.  0.
         13    1    3    3    0    0  0.43607454389E+02  0.36167733567E+03  0.99814896586E+03  0.10625504521E+04  0.00000000000E+00 0.  1.
        -13    1    3    3    0    0  0.24045289807E+02  0.70221933411E+02  0.34788235294E+03  0.35571256287E+03  0.00000000000E+00 0. -1.
         22    1    1    2    0    0 -0.67652744196E+02 -0.43189926908E+03 -0.15501123002E+03  0.46383440349E+03  0.00000000000E+00 0.  1.
<mgrwt>
<rscale>  0 0.14573132E+04</rscale>
<asrwt>0</asrwt>
<pdfrwt beam="1">  1        1 0.23639365E+00 0.14573132E+04</pdfrwt>
<pdfrwt beam="2">  1       -1 0.53159795E-01 0.14573132E+04</pdfrwt>
<totfact> 0.21376122E+01</totfact>
</mgrwt>
</event>
<event>
 6    1  0.1614874E-005  0.3220432E+04  0.7818608E-02  0.8183442E-01
          1   -1    0    0  501    0  0.00000000000E+00  0.00000000000E+00  0.14721774494E+04  0.14721774494E+04  0.00000000000E+00 0. -1.
         -1   -1    0    0    0  501 -0.00000000000E+00 -0.00000000000E+00 -0.17611976344E+04  0.17611976344E+04  0.00000000000E+00 0.  1.
         23    2    1    2    0    0  0.58493756489E+03 -0.10619476759E+04  0.91715548110E+03  0.15231866268E+04  0.95071037760E+02 0.  0.
         11    1    3    3    0    0  0.67213121919E+02 -0.14457864855E+03  0.16037659479E+03  0.22614429361E+03  0.00000000000E+00 0.  1.
        -11    1    3    3    0    0  0.51772444297E+03 -0.91736902738E+03  0.75677888630E+03  0.12970423332E+04  0.00000000000E+00 0. -1.
         22    1    1    2    0    0 -0.58493756489E+03  0.10619476759E+04 -0.12061756661E+04  0.17101884570E+04  0.00000000000E+00 0.  1.
<mgrwt>
<rscale>  0 0.32204319E+04</rscale>
<asrwt>0</asrwt>
<pdfrwt beam="1">  1        1 0.22648884E+00 0.32204319E+04</pdfrwt>
<pdfrwt beam="2">  1       -1 0.27095348E+00 0.32204319E+04</pdfrwt>
<totfact> 0.29096319E-01</totfact>
</mgrwt>
</event>
<event>
 6    1  0.1614874E-005  0.2105534E+04  0.7818608E-02  0.8558810E-01
         -2   -1    0    0    0  501 -0.00000000000E+00  0.00000000000E+00  0.45263986362E+03  0.45263986362E+03  0.00000000000E+00 0.  1.
          2   -1    0    0  501    0  0.00000000000E+00 -0.00000000000E+00 -0.24485652846E+04  0.24485652846E+04  0.00000000000E+00 0. -1.
         23    2    1    2    0    0  0.25900804606E+03  0.79765220599E+03 -0.18722365316E+04  0.20534828170E+04  0.90486681375E+02 0.  0.
         11    1    3    3    0    0  0.14250970165E+03  0.56417058407E+03 -0.13305369141E+04  0.14522141519E+04  0.00000000000E+00 0.  1.
        -11    1    3    3    0    0  0.11649834442E+03  0.23348162191E+03 -0.54169961750E+03  0.60126866509E+03  0.00000000000E+00 0. -1.
         22    1    1    2    0    0 -0.25900804606E+03 -0.79765220599E+03 -0.12368888938E+03  0.84772233131E+03  0.00000000000E+00 0. -1.
<mgrwt>
<rscale>  0 0.21055339E+04</rscale>
<asrwt>0</asrwt>
<pdfrwt beam="1">  1        2 0.37670235E+00 0.21055339E+04</pdfrwt>
<pdfrwt beam="2">  1       -2 0.69636903E-01 0.21055339E+04</pdfrwt>
<totfact> 0.64576343E+00</totfact>
</mgrwt>
</event>
<event>
 6    1  0.1614874E-005  0.2796109E+04  0.7818608E-02  0.8304477E-01
          1   -1    0    0  501    0  0.00000000000E+00  0.00000000000E+00  0.17744632759E+04  0.17744632759E+04  0.00000000000E+00 0. -1.
         -1   -1    0    0    0  501 -0.00000000000E+00 -0.00000000000E+00 -0.11014917170E+04  0.11014917170E+04  0.00000000000E+00 0.  1.
         23    2    1    2    0    0 -0.22262982283E+03 -0.65108298868E+03  0.15867819576E+04  0.17320482918E+04  0.92958097517E+02 0.  0.
         11    1    3    3    0    0 -0.72827505838E+02 -0.33695413161E+03  0.73106696306E+03  0.80827027466E+03  0.00000000000E+00 0. -1.
        -11    1    3    3    0    0 -0.14980231699E+03 -0.31412885708E+03  0.85571499457E+03  0.92377801714E+03  0.00000000000E+00 0.  1.
         22    1    1    2    0    0  0.22262982283E+03  0.65108298868E+03 -0.91381039873E+03  0.11439067012E+04  0.00000000000E+00 0.  1.
<mgrwt>
<rscale>  0 0.27961092E+04</rscale>
<asrwt>0</asrwt>
<pdfrwt beam="1">  1        1 0.27299435E+00 0.27961092E+04</pdfrwt>
<pdfrwt beam="2">  1       -1 0.16946026E+00 0.27961092E+04</pdfrwt>
<totfact> 0.91190659E-01</totfact>
</mgrwt>
</event>
<event>
 6    1  0.1614874E-005  0.4682538E+04  0.7818608E-02  0.7879436E-01
         -1   -1    0    0    0  501 -0.00000000000E+00  0.00000000000E+00  0.17979774344E+04  0.17979774344E+04  0.00000000000E+00 0.  1.
          1   -1    0    0  501    0  0.00000000000E+00 -0.00000000000E+00 -0.30487261553E+04  0.30487261553E+04  0.00000000000E+00 0. -1.
         23    2    1    2    0    0 -0.91462693588E+03 -0.14058192409E+04 -0.23151647039E+04  0.28602868271E+04  0.91558490888E+02 0.  0.
         13    1    3    3    0    0 -0.85685312511E+03 -0.13163840103E+04 -0.21269938662E+04  0.26440815130E+04  0.00000000000E+00 0.  1.
        -13    1    3    3    0    0 -0.57773810770E+02 -0.89435230554E+02 -0.18817083775E+03  0.21620531412E+03  0.00000000000E+00 0. -1.
         22    1    1    2    0    0  0.91462693588E+03  0.14058192409E+04  0.10644159830E+04  0.19864167626E+04  0.00000000000E+00 0.  1.
<mgrwt>
<rscale>  0 0.46825381E+04</rscale>
<asrwt>0</asrwt>
<pdfrwt beam="1">  1        1 0.46903479E+00 0.46825381E+04</pdfrwt>
<pdfrwt beam="2">  1       -1 0.27661192E+00 0.46825381E+04</pdfrwt>
<totfact> 0.19078112E-02</totfact>
</mgrwt>
</event>
<event>
 6    1  0.1614874E-005  0.2119004E+04  0.7818608E-02  0.8552918E-01
         -1   -1    0    0    0  501 -0.00000000000E+00  0.00000000000E+00  0.21167072380E+04  0.21167072380E+04  0.00000000000E+00 0.  1.
          1   -1    0    0  501    0  0.00000000000E+00 -0.00000000000E+00 -0.53032592298E+03  0.53032592298E+03  0.00000000000E+00 0. -1.
         23    2    1    2    0    0  0.86954946067E+03 -0.43937682292E+03  0.13086485345E+04  0.16339666506E+04  0.90098675238E+02 0.  0.
         13    1    3    3    0    0  0.32691201068E+03 -0.17699553773E+03  0.42950876778E+03  0.56804635788E+03  0.00000000000E+00 0.  1.
        -13    1    3    3    0    0  0.54263744998E+03 -0.26238128519E+03  0.87913976673E+03  0.10659202927E+04  0.00000000000E+00 0. -1.
         22    1    1    2    0    0 -0.86954946067E+03  0.43937682292E+03  0.27773278048E+03  0.10130665104E+04  0.00000000000E+00 0. -1.
<mgrwt>
<rscale>  0 0.21190042E+04</rscale>
<asrwt>0</asrwt>
<pdfrwt beam="1">  1        1 0.81588605E-01 0.21190042E+04</pdfrwt>
<pdfrwt beam="2">  1       -1 0.32564726E+00 0.21190042E+04</pdfrwt>
<totfact> 0.84353943E-01</totfact>
</mgrwt>
</event>
<event>
 6    1  0.1614874E-005  0.1550361E+04  0.7818608E-02  0.8851637E-01
         -2   -1    0    0    0  501 -0.00000000000E+00  0.00000000000E+00  0.48046584935E+03  0.48046584935E+03  0.00000000000E+00 0.  1.
          2   -1    0    0  501    0  0.00000000000E+00 -0.00000000000E+00 -0.12506712361E+04  0.12506712361E+04  0.00000000000E+00 0. -1.
         23    2    1    2    0    0 -0.57387210575E+03 -0.38257082441E+03  0.19196258569E+01  0.69582714899E+03  0.92098354301E+02 0.  0.
         11    1    3    3    0    0 -0.14277335686E+03 -0.66997583605E+02  0.31193833018E+02  0.16076679650E+03  0.00000000000E+00 0. -1.
        -11    1    3    3    0    0 -0.43109874888E+03 -0.31557324081E+03 -0.29274207161E+02  0.53506035249E+03  0.00000000000E+00 0.  1.
         22    1    1    2    0    0  0.57387210575E+03  0.38257082441E+03 -0.77212501259E+03  0.10353099365E+04  0.00000000000E+00 0. -1.
<mgrwt>
<rscale>  0 0.15503610E+04</rscale>
<asrwt>0</asrwt>
<pdfrwt beam="1">  1        2 0.19241096E+00 0.15503610E+04</pdfrwt>
<pdfrwt beam="2">  1       -2 0.73917824E-01 0.15503610E+04</pdfrwt>
<totfact> 0.28052434E+01</totfact>
</mgrwt>
</event>
<event>
 6    1  0.1614874E-005  0.3004841E+04  0.7818608E-02  0.8242350E-01
          1   -1    0    0  501    0  0.00000000000E+00  0.00000000000E+00  0.22068859184E+04  0.22068859184E+04  0.00000000000E+00 0. -1.
         -1   -1    0    0    0  501 -0.00000000000E+00 -0.00000000000E+00 -0.10228290998E+04  0.10228290998E+04  0.00000000000E+00 0.  1.
         23    2    1    2    0    0  0.12771847106E+04 -0.78688945009E+03  0.53553642935E+03  0.15954033934E+04  0.90094000460E+02 0.  0.
         13    1    3    3    0    0  0.71865813353E+03 -0.40524601891E+03  0.26084057828E+03  0.86529281518E+03  0.00000000000E+00 0.  1.
        -13    1    3    3    0    0  0.55852657709E+03 -0.38164343118E+03  0.27469585108E+03  0.73011057825E+03  0.00000000000E+00 0. -1.
         22    1    1    2    0    0 -0.12771847106E+04  0.78688945009E+03  0.64852038922E+03  0.16343116248E+04  0.00000000000E+00 0.  1.
<mgrwt>
<rscale>  0 0.30048409E+04</rscale>
<asrwt>0</asrwt>
<pdfrwt beam="1">  1        1 0.33952091E+00 0.30048409E+04</pdfrwt>
<pdfrwt beam="2">  1       -1 0.15735832E+00 0.30048409E+04</pdfrwt>
<totfact> 0.56109843E-01</totfact>
</mgrwt>
</event>
<event>
 6    1  0.1614874E-005  0.1770395E+04  0.7818608E-02  0.8722204E-01
          2   -1    0    0  501    0  0.00000000000E+00  0.00000000000E+00  0.11658625286E+04  0.11658625286E+04  0.00000000000E+00 0. -1.
         -2   -1    0    0    0  501 -0.00000000000E+00 -0.00000000000E+00 -0.67209827170E+03  0.67209827170E+03  0.00000000000E+00 0.  1.
         23    2    1    2    0    0  0.34864262920E+03  0.80251573225E+03  0.36957541609E+03  0.95421533263E+03  0.91420618300E+02 0.  0.
         13    1    3    3    0    0  0.73043529649E+02  0.14710585056E+03  0.10828625223E+03  0.19672671632E+03  0.00000000000E+00 0. -1.
        -13    1    3    3    0    0  0.27559909955E+03  0.65540988169E+03  0.26128916386E+03  0.75748861631E+03  0.00000000000E+00 0.  1.
         22    1    1    2    0    0 -0.34864262920E+03 -0.80251573225E+03  0.12418884080E+03  0.88374546765E+03  0.00000000000E+00 0.  1.
<mgrwt>
<rscale>  0 0.17703945E+04</rscale>
<asrwt>0</asrwt>
<pdfrwt beam="1">  1        2 0.17936347E+00 0.17703945E+04</pdfrwt>
<pdfrwt beam="2">  1       -2 0.10339973E+00 0.17703945E+04</pdfrwt>
<totfact> 0.14334196E+01</totfact>
</mgrwt>
</event>
<event>
 6    1  0.1614874E-005  0.3245840E+04  0.7818608E-02  0.8176815E-01
         -2   -1    0    0    0  501 -0.00000000000E+00  0.00000000000E+00  0.65529900536E+03  0.65529900536E+03  0.00000000000E+00 0.  1.
          2   -1    0    0  501    0  0.00000000000E+00 -0.00000000000E+00 -0.40193394400E+04  0.40193394400E+04  0.00000000000E+00 0. -1.
         23    2    1    2    0    0 -0.56442878917E+03 -0.15182714767E+04 -0.17726582923E+04  0.24039061278E+04  0.11277905388E+03 0.  0.
         13    1    3    3    0    0 -0.13083881737E+03 -0.50056159183E+03 -0.57798092320E+03  0.77572072998E+03  0.00000000000E+00 0. -1.
        -13    1    3    3    0    0 -0.43358997180E+03 -0.10177098849E+04 -0.11946773691E+04  0.16281853978E+04  0.00000000000E+00 0.  1.
         22    1    1    2    0    0  0.56442878917E+03  0.15182714767E+04 -0.15913821423E+04  0.22707323175E+04  0.00000000000E+00 0. -1.
<mgrwt>
<rscale>  0 0.32458399E+04</rscale>
<asrwt>0</asrwt>
<pdfrwt beam="1">  1        2 0.61835992E+00 0.32458399E+04</pdfrwt>
<pdfrwt beam="2">  1       -2 0.10081523E+00 0.32458399E+04</pdfrwt>
<totfact> 0.22383841E-01</totfact>
</mgrwt>
</event>
<event>
 6    1  0.1614874E-005  0.3455372E+04  0.7818608E-02  0.8124448E-01
          1   -1    0    0  501    0  0.00000000000E+00  0.00000000000E+00  0.26703209684E+04  0.26703209684E+04  0.00000000000E+00 0. -1.
         -1   -1    0    0    0  501 -0.00000000000E+00 -0.00000000000E+00 -0.11178051478E+04  0.11178051478E+04  0.00000000000E+00 0.  1.
         23    2    1    2    0    0 -0.81858134796E+03 -0.14276001085E+04  0.20527674826E+03  0.16613514194E+04  0.99158974392E+02 0.  0.
         11    1    3    3    0    0 -0.34926790277E+03 -0.57033533139E+03  0.38394872869E+02  0.66988403803E+03  0.00000000000E+00 0. -1.
        -11    1    3    3    0    0 -0.46931344519E+03 -0.85726477713E+03  0.16688187540E+03  0.99146738135E+03  0.00000000000E+00 0.  1.
         22    1    1    2    0    0  0.81858134796E+03  0.14276001085E+04  0.13472390723E+04  0.21267746968E+04  0.00000000000E+00 0.  1.
<mgrwt>
<rscale>  0 0.34553718E+04</rscale>
<asrwt>0</asrwt>
<pdfrwt beam="1">  1        1 0.41081861E+00 0.34553718E+04</pdfrwt>
<pdfrwt beam="2">  1       -1 0.17197002E+00 0.34553718E+04</pdfrwt>
<totfact> 0.20064628E-01</totfact>
</mgrwt>
</event>
<event>
 6    1  0.1614874E-005  0.9432554E+03  0.7818608E-02  0.9373069E-01
         -2   -1    0    0    0  501 -0.00000000000E+00  0.00000000000E+00  0.20108601197E+03  0.20108601197E+03  0.00000000000E+00 0.  1.
          2   -1    0    0  501    0  0.00000000000E+00 -0.00000000000E+00 -0.11061568994E+04  0.11061568994E+04  0.00000000000E+00 0. -1.
         23    2    1    2    0    0  0.69933464567E+02 -0.86303854532E+02 -0.10855795797E+04  0.10952937835E+04  0.94055321522E+02 0.  0.
         13    1    3    3    0    0 -0.51038518859E+01 -0.66913194632E+01 -0.46953511918E+03  0.46961053140E+03  0.00000000000E+00 0.  1.
        -13    1    3    3    0    0  0.75037316453E+02 -0.79612535069E+02 -0.61604446054E+03  0.62568325211E+03  0.00000000000E+00 0. -1.
         22    1    1    2    0    0 -0.69933464567E+02  0.86303854532E+02  0.18050869234E+03  0.21194912782E+03  0.00000000000E+00 0.  1.
<mgrwt>
<rscale>  0 0.94325538E+03</rscale>
<asrwt>0</asrwt>
<pdfrwt beam="1">  1        2 0.17017798E+00 0.94325538E+03</pdfrwt>
<pdfrwt beam="2">  1       -2 0.30936310E-01 0.94325538E+03</pdfrwt>
<totfact> 0.20895858E+02</totfact>
</mgrwt>
</event>
<event>
 6    1  0.1614874E-005  0.2157006E+04  0.7818608E-02  0.8536539E-01
         -2   -1    0    0    0  501 -0.00000000000E+00  0.00000000000E+00  0.11179692463E+04  0.11179692463E+04  0.00000000000E+00 0.  1.
          2   -1    0    0  501    0  0.00000000000E+00 -0.00000000000E+00 -0.10404297009E+04  0.10404297009E+04  0.00000000000E+00 0. -1.
         23    2    1    2    0    0  0.36707777057E+03 -0.92236127445E+03 -0.37753078916E+03  0.10663433535E+04  0.95195801158E+02 0.  0.
         13    1    3    3    0    0  0.33380713964E+03 -0.78991126258E+03 -0.35411944188E+03  0.92778639155E+03  0.00000000000E+00 0. -1.
        -13    1    3    3    0    0  0.33270630934E+02 -0.13245001187E+03 -0.23411347286E+02  0.13855696196E+03  0.00000000000E+00 0.  1.
         22    1    1    2    0    0 -0.36707777057E+03  0.92236127445E+03  0.45507033461E+03  0.10920555937E+04  0.00000000000E+00 0.  1.
<mgrwt>
<rscale>  0 0.21570057E+04</rscale>
<asrwt>0</asrwt>
<pdfrwt beam="1">  1        2 0.16006611E+00 0.21570057E+04</pdfrwt>
<pdfrwt beam="2">  1       -2 0.17199527E+00 0.21570057E+04</pdfrwt>
<totfact> 0.44909822E+00</totfact>
</mgrwt>
</event>
<event>
 6    1  0.1614874E-005  0.1656357E+04  0.7818608E-02  0.8786655E-01
          1   -1    0    0  501    0  0.00000000000E+00  0.00000000000E+00  0.24340684472E+04  0.24340684472E+04  0.00000000000E+00 0. -1.
         -1   -1    0    0    0  501 -0.00000000000E+00 -0.00000000000E+00 -0.28178318021E+03  0.28178318021E+03  0.00000000000E+00 0.  1.
         23    2    1    2    0    0 -0.11055136143E+03  0.84619261423E+01  0.24209420759E+04  0.24252149321E+04  0.91726354862E+02 0.  0.
         11    1    3    3    0    0 -0.11870090828E+03 -0.10686396695E+02  0.18106417492E+04  0.18145599050E+04  0.00000000000E+00 0.  1.
        -11    1    3    3    0    0  0.81495468545E+01  0.19148322837E+02  0.61030032665E+03  0.61065502708E+03  0.00000000000E+00 0. -1.
         22    1    1    2    0    0  0.11055136143E+03 -0.84619261423E+01 -0.26865680890E+03  0.29063669534E+03  0.00000000000E+00 0.  1.
<mgrwt>
<rscale>  0 0.16563569E+04</rscale>
<asrwt>0</asrwt>
<pdfrwt beam="1">  1        1 0.37447205E+00 0.16563569E+04</pdfrwt>
<pdfrwt beam="2">  1       -1 0.43351260E-01 0.16563569E+04</pdfrwt>
<totfact> 0.75578887E+00</totfact>
</mgrwt>
</event>
<event>
 6    1  0.1614874E-005  0.9436254E+03  0.7818608E-02  0.9372633E-01
         -2   -1    0    0    0  501 -0.00000000000E+00  0.00000000000E+00  0.38523956975E+03  0.38523956975E+03  0.00000000000E+00 0.  1.
          2   -1    0    0  501    0  0.00000000000E+00 -0.00000000000E+00 -0.57784098604E+03  0.57784098604E+03  0.00000000000E+00 0. -1.
         23    2    1    2    0    0  0.28557753825E+03 -0.36685524030E+03 -0.43701301757E+02  0.47491199699E+03  0.86569644951E+02 0.  0.
         13    1    3    3    0    0  0.58593920673E+02 -0.13772370812E+03 -0.25909744407E+02  0.15189595839E+03  0.00000000000E+00 0. -1.
        -13    1    3    3    0    0  0.22698361757E+03 -0.22913153218E+03 -0.17791557350E+02  0.32301603861E+03  0.00000000000E+00 0.  1.
         22    1    1    2    0    0 -0.28557753825E+03  0.36685524030E+03 -0.14890011453E+03  0.48816855879E+03  0.00000000000E+00 0. -1.
<mgrwt>
<rscale>  0 0.94362538E+03</rscale>
<asrwt>0</asrwt>
<pdfrwt beam="1">  1        2 0.88898613E-01 0.94362538E+03</pdfrwt>
<pdfrwt beam="2">  1       -2 0.59267626E-01 0.94362538E+03</pdfrwt>
<totfact> 0.13820565E+02</totfact>
</mgrwt>
</event>
<event>
 6    1  0.1614874E-005  0.5201415E+04  0.7818608E-02  0.7798166E-01
          2   -1    0    0  501    0  0.00000000000E+00  0.00000000000E+00  0.44248765530E+04  0.44248765530E+04  0.00000000000E+00 0. -1.
         -2   -1    0    0    0  501 -0.00000000000E+00 -0.00000000000E+00 -0.15285578429E+04  0.15285578429E+04  0.00000000000E+00 0.  1.
         23    2    1    2    0    0  0.47221423035E+03 -0.14510555166E+04  0.38579274010E+04  0.41497604603E+04  0.91431150217E+02 0.  0.
         13    1    3    3    0    0  0.46099092323E+03 -0.13764873222E+04  0.37056925242E+04  0.39798727446E+04  0.00000000000E+00 0. -1.
        -13    1    3    3    0    0  0.11223307118E+02 -0.74568194377E+02  0.15223487681E+03  0.16988771572E+03  0.00000000000E+00 0.  1.
         22    1    1    2    0    0 -0.47221423035E+03  0.14510555166E+04 -0.96160869087E+03  0.18036739356E+04  0.00000000000E+00 0.  1.
<mgrwt>
<rscale>  0 0.52014151E+04</rscale>
<asrwt>0</asrwt>
<pdfrwt beam="1">  1        2 0.68075024E+00 0.52014151E+04</pdfrwt>
<pdfrwt beam="2">  1       -2 0.23516275E+00 0.52014151E+04</pdfrwt>
<totfact> 0.81944359E-03</totfact>
</mgrwt>
</event>
<event>
 6    1  0.1675069E-005  0.3224451E+04  0.7818608E-02  0.8182389E-01
         -1   -1    0    0    0  501 -0.00000000000E+00  0.00000000000E+00  0.84142955472E+03  0.84142955472E+03  0.00000000000E+00 0.  1.
          1   -1    0    0  501    0  0.00000000000E+00 -0.00000000000E+00 -0.30891130770E+04  0.30891130770E+04  0.00000000000E+00 0. -1.
         23    2    1    2    0    0  0.74197764435E+03 -0.14535701583E+03  0.60947167417E+03  0.97504008506E+03  0.87108892227E+02 0.  0.
         11    1    3    3    0    0  0.50778484520E+03 -0.93707188526E+02  0.36327248662E+03  0.63134252647E+03  0.00000000000E+00 0. -1.
        -11    1    3    3    0    0  0.23419279915E+03 -0.51649827303E+02  0.24619918755E+03  0.34369755859E+03  0.00000000000E+00 0.  1.
         22    1    1    2    0    0 -0.74197764435E+03  0.14535701583E+03 -0.28571551965E+04  0.29555025467E+04  0.00000000000E+00 0. -1.
<mgrwt>
<rscale>  0 0.32244510E+04</rscale>
<asrwt>0</asrwt>
<pdfrwt beam="1">  1        1 0.47524817E+00 0.32244510E+04</pdfrwt>
<pdfrwt beam="2">  1       -1 0.12945070E+00 0.32244510E+04</pdfrwt>
<totfact> 0.21981811E-01</totfact>
</mgrwt>
</event>
<event>
 6    1  0.1614874E-005  0.3239670E+04  0.7818608E-02  0.8178418E-01
         -2   -1    0    0    0  501 -0.00000000000E+00  0.00000000000E+00  0.97625700236E+03  0.97625700236E+03  0.00000000000E+00 0.  1.
          2   -1    0    0  501    0  0.00000000000E+00 -0.00000000000E+00 -0.26876786547E+04  0.26876786547E+04  0.00000000000E+00 0. -1.
         23    2    1    2    0    0 -0.56460390672E+03 -0.33328908782E+03 -0.25299827729E+04  0.26151737700E+04  0.91988196022E+02 0.  0.
         11    1    3    3    0    0 -0.16722061895E+03 -0.12646641844E+03 -0.67198358185E+03  0.70393069593E+03  0.00000000000E+00 0. -1.
        -11    1    3    3    0    0 -0.39738328776E+03 -0.20682266939E+03 -0.18579991911E+04  0.19112430740E+04  0.00000000000E+00 0.  1.
         22    1    1    2    0    0  0.56460390672E+03  0.33328908782E+03  0.81856112063E+03  0.10487618871E+04  0.00000000000E+00 0.  1.
<mgrwt>
<rscale>  0 0.32396698E+04</rscale>
<asrwt>0</asrwt>
<pdfrwt beam="1">  1        2 0.41348903E+00 0.32396698E+04</pdfrwt>
<pdfrwt beam="2">  1       -2 0.15019338E+00 0.32396698E+04</pdfrwt>
<totfact> 0.67660755E-01</totfact>
</mgrwt>
</event>
<event>
 6    1  0.1614874E-005  0.2179734E+04  0.7818608E-02  0.8526911E-01
          2   -1    0    0  501    0  0.00000000000E+00  0.00000000000E+00  0.97068375625E+03  0.97068375625E+03  0.00000000000E+00 0. -1.
         -2   -1    0    0    0  501 -0.00000000000E+00 -0.00000000000E+00 -0.12236844033E+04  0.12236844033E+04  0.00000000000E+00 0.  1.
         23    2    1    2    0    0 -0.76305805824E+02  0.37898285076E+03 -0.11505551087E+04  0.12170992156E+04  0.90015916442E+02 0.  0.
         11    1    3    3    0    0 -0.39496092948E+02  0.81653128296E+02 -0.37173408801E+03  0.38264004875E+03  0.00000000000E+00 0.  1.
        -11    1    3    3    0    0 -0.36809712875E+02  0.29732972246E+03 -0.77882102073E+03  0.83445916685E+03  0.00000000000E+00 0. -1.
         22    1    1    2    0    0  0.76305805824E+02 -0.37898285076E+03  0.89755446167E+03  0.97726894397E+03  0.00000000000E+00 0. -1.
<mgrwt>
<rscale>  0 0.21797345E+04</rscale>
<asrwt>0</asrwt>
<pdfrwt beam="1">  1        2 0.14933596E+00 0.21797345E+04</pdfrwt>
<pdfrwt beam="2">  1       -2 0.18825914E+00 0.21797345E+04</pdfrwt>
<totfact> 0.38355612E+00</totfact>
</mgrwt>
</event>
<event>
 6    1  0.1614874E-005  0.3220769E+04  0.7818608E-02  0.8183354E-01
          1   -1    0    0  501    0  0.00000000000E+00  0.00000000000E+00  0.22259094115E+04  0.22259094115E+04  0.00000000000E+00 0. -1.
         -1   -1    0    0    0  501 -0.00000000000E+00 -0.00000000000E+00 -0.11650690960E+04  0.11650690960E+04  0.00000000000E+00 0.  1.
         23    2    1    2    0    0  0.12006787059E+04 -0.10374260226E+04  0.25009494866E+03  0.16090721809E+04  0.93186334961E+02 0.  0.
         11    1    3    3    0    0  0.22470569732E+03 -0.24249369566E+03  0.42414226920E+02  0.33330888000E+03  0.00000000000E+00 0.  1.
        -11    1    3    3    0    0  0.97597300854E+03 -0.79493232694E+03  0.20768072174E+03  0.12757633009E+04  0.00000000000E+00 0. -1.
         22    1    1    2    0    0 -0.12006787059E+04  0.10374260226E+04  0.81074536683E+03  0.17819063266E+04  0.00000000000E+00 0.  1.
<mgrwt>
<rscale>  0 0.32207690E+04</rscale>
<asrwt>0</asrwt>
<pdfrwt beam="1">  1        1 0.34244760E+00 0.32207690E+04</pdfrwt>
<pdfrwt beam="2">  1       -1 0.17924140E+00 0.32207690E+04</pdfrwt>
<totfact> 0.36810587E-01</totfact>
</mgrwt>
</event>
<event>
 6    1  0.1614874E-005  0.1201345E+04  0.7818608E-02  0.9111680E-01
         -1   -1    0    0    0  501 -0.00000000000E+00  0.00000000000E+00  0.26589060809E+03  0.26589060809E+03  0.00000000000E+00 0.  1.
          1   -1    0    0  501    0  0.00000000000E+00 -0.00000000000E+00 -0.13569781332E+04  0.13569781332E+04  0.00000000000E+00 0. -1.
         23    2    1    2    0    0 -0.55546540259E+03  0.82760928724E+02 -0.82294983218E+03  0.10005432580E+04  0.91919530477E+02 0.  0.
         13    1    3    3    0    0 -0.29989475620E+03  0.24793046187E+02 -0.51208994423E+03  0.59395931756E+03  0.00000000000E+00 0. -1.
        -13    1    3    3    0    0 -0.25557064639E+03  0.57967882537E+02 -0.31085988795E+03  0.40658394046E+03  0.00000000000E+00 0.  1.
         22    1    1    2    0    0  0.55546540259E+03 -0.82760928724E+02 -0.26813769299E+03  0.62232548332E+03  0.00000000000E+00 0.  1.
<mgrwt>
<rscale>  0 0.12013455E+04</rscale>
<asrwt>0</asrwt>
<pdfrwt beam="1">  1        1 0.20876586E+00 0.12013455E+04</pdfrwt>
<pdfrwt beam="2">  1       -1 0.40906248E-01 0.12013455E+04</pdfrwt>
<totfact> 0.47642057E+01</totfact>
</mgrwt>
</event>
<event>
 6    1  0.1614874E-005  0.1311466E+04  0.7818608E-02  0.9020522E-01
         -1   -1    0    0    0  501 -0.00000000000E+00  0.00000000000E+00  0.77548375286E+03  0.77548375286E+03  0.00000000000E+00 0.  1.
          1   -1    0    0  501    0  0.00000000000E+00 -0.00000000000E+00 -0.55447395416E+03  0.55447395416E+03  0.00000000000E+00 0. -1.
         23    2    1    2    0    0 -0.14826292445E+03 -0.57166657673E+03 -0.17050964505E+03  0.62138728387E+03  0.90906808221E+02 0.  0.
         11    1    3    3    0    0 -0.93943578012E+02 -0.49119181624E+03 -0.15056050603E+03  0.52226742400E+03  0.00000000000E+00 0. -1.
        -11    1    3    3    0    0 -0.54319346441E+02 -0.80474760491E+02 -0.19949139024E+02  0.99119859875E+02  0.00000000000E+00 0.  1.
         22    1    1    2    0    0  0.14826292445E+03  0.57166657673E+03  0.39151944376E+03  0.70857042315E+03  0.00000000000E+00 0.  1.
<mgrwt>
<rscale>  0 0.13114657E+04</rscale>
<asrwt>0</asrwt>
<pdfrwt beam="1">  1        1 0.85303685E-01 0.13114657E+04</pdfrwt>
<pdfrwt beam="2">  1       -1 0.11930519E+00 0.13114657E+04</pdfrwt>
<totfact> 0.23649189E+01</totfact>
</mgrwt>
</event>
<event>
 6    1  0.1614874E-005  0.4950739E+04  0.7818608E-02  0.7836151E-01
          2   -1    0    0  501    0  0.00000000000E+00  0.00000000000E+00  0.16706481791E+04  0.16706481791E+04  0.00000000000E+00 0.  1.
         -2   -1    0    0    0  501 -0.00000000000E+00 -0.00000000000E+00 -0.36677107492E+04  0.36677107492E+04  0.00000000000E+00 0. -1.
         23    2    1    2    0    0 -0.12664465441E+04  0.58536303249E+03 -0.32025914324E+04  0.34944943544E+04  0.91444964539E+02 0.  0.
         11    1    3    3    0    0 -0.10074063196E+03  0.37613795529E+02 -0.19419202472E+03  0.22197751014E+03  0.00000000000E+00 0. -1.
        -11    1    3    3    0    0 -0.11657059121E+04  0.54774923696E+03 -0.30083994077E+04  0.32725168443E+04  0.00000000000E+00 0.  1.
         22    1    1    2    0    0  0.12664465441E+04 -0.58536303249E+03  0.12055288623E+04  0.18438645739E+04  0.00000000000E+00 0.  1.
<mgrwt>
<rscale>  0 0.49507390E+04</rscale>
<asrwt>0</asrwt>
<pdfrwt beam="1">  1        2 0.25702280E+00 0.49507390E+04</pdfrwt>
<pdfrwt beam="2">  1       -2 0.56426318E+00 0.49507390E+04</pdfrwt>
<totfact> 0.54523937E-03</totfact>
</mgrwt>
</event>
<event>
 6    1  0.1614874E-005  0.3835113E+04  0.7818608E-02  0.8038661E-01
         -2   -1    0    0    0  501 -0.00000000000E+00  0.00000000000E+00  0.80731570347E+03  0.80731570347E+03  0.00000000000E+00 0.  1.
          2   -1    0    0  501    0  0.00000000000E+00 -0.00000000000E+00 -0.45546291585E+04  0.45546291585E+04  0.00000000000E+00 0. -1.
         23    2    1    2    0    0 -0.87704457118E+03  0.10934572431E+04 -0.47494474455E+02  0.14054923586E+04  0.91088543180E+02 0.  0.
         11    1    3    3    0    0 -0.41570109133E+03  0.44676398735E+03 -0.14593994348E+02  0.61042480486E+03  0.00000000000E+00 0. -1.
        -11    1    3    3    0    0 -0.46134347985E+03  0.64669325574E+03 -0.32900480107E+02  0.79506755374E+03  0.00000000000E+00 0.  1.
         22    1    1    2    0    0  0.87704457118E+03 -0.10934572431E+04 -0.36998189805E+04  0.39564525033E+04  0.00000000000E+00 0. -1.
<mgrwt>
<rscale>  0 0.38351134E+04</rscale>
<asrwt>0</asrwt>
<pdfrwt beam="1">  1        2 0.70071220E+00 0.38351134E+04</pdfrwt>
<pdfrwt beam="2">  1       -2 0.12420241E+00 0.38351134E+04</pdfrwt>
<totfact> 0.42032036E-02</totfact>
</mgrwt>
</event>
<event>
 6    1  0.1614874E-005  0.1674542E+04  0.7818608E-02  0.8776019E-01
          2   -1    0    0  501    0  0.00000000000E+00  0.00000000000E+00  0.28903185089E+04  0.28903185089E+04  0.00000000000E+00 0.  1.
         -2   -1    0    0    0  501 -0.00000000000E+00 -0.00000000000E+00 -0.24254172690E+03  0.24254172690E+03  0.00000000000E+00 0. -1.
         23    2    1    2    0    0  0.58210973249E+03  0.39807547806E+03  0.49134242704E+03  0.86404447552E+03  0.88541787753E+02 0.  0.
         11    1    3    3    0    0  0.16111203915E+03  0.66581657861E+02  0.13573942096E+03  0.22094206644E+03  0.00000000000E+00 0.  1.
        -11    1    3    3    0    0  0.42099769334E+03  0.33149382020E+03  0.35560300609E+03  0.64310240908E+03  0.00000000000E+00 0. -1.
         22    1    1    2    0    0 -0.58210973249E+03 -0.39807547806E+03  0.21564343549E+04  0.22688157603E+04  0.00000000000E+00 0.  1.
<mgrwt>
<rscale>  0 0.16745421E+04</rscale>
<asrwt>0</asrwt>
<pdfrwt beam="1">  1        2 0.44466436E+00 0.16745421E+04</pdfrwt>
<pdfrwt beam="2">  1       -2 0.37314114E-01 0.16745421E+04</pdfrwt>
<totfact> 0.13206875E+01</totfact>
</mgrwt>
</event>
<event>
 6    1  0.1614874E-005  0.4177576E+04  0.7818608E-02  0.7969651E-01
         -2   -1    0    0    0  501 -0.00000000000E+00  0.00000000000E+00  0.21298590125E+04  0.21298590125E+04  0.00000000000E+00 0.  1.
          2   -1    0    0  501    0  0.00000000000E+00 -0.00000000000E+00 -0.20485090199E+04  0.20485090199E+04  0.00000000000E+00 0. -1.
         23    2    1    2    0    0  0.12121923725E+04 -0.10506742226E+04 -0.12957525983E+04  0.20641924919E+04  0.92677816447E+02 0.  0.
         13    1    3    3    0    0  0.30635986985E+03 -0.31884717807E+03 -0.34451402257E+03  0.56054420393E+03  0.00000000000E+00 0.  1.
        -13    1    3    3    0    0  0.90583250270E+03 -0.73182704454E+03 -0.95123857573E+03  0.15036482880E+04  0.00000000000E+00 0. -1.
         22    1    1    2    0    0 -0.12121923725E+04  0.10506742226E+04  0.13771025909E+04  0.21141755405E+04  0.00000000000E+00 0.  1.
<mgrwt>
<rscale>  0 0.41775760E+04</rscale>
<asrwt>0</asrwt>
<pdfrwt beam="1">  1        2 0.31515523E+00 0.41775760E+04</pdfrwt>
<pdfrwt beam="2">  1       -2 0.32767062E+00 0.41775760E+04</pdfrwt>
<totfact> 0.10477882E-01</totfact>
</mgrwt>
</event>
<event>
 6    1  0.1614874E-005  0.3386825E+04  0.7818608E-02  0.8141148E-01
          1   -1    0    0  501    0  0.00000000000E+00  0.00000000000E+00  0.26197211098E+04  0.26197211098E+04  0.00000000000E+00 0. -1.
         -1   -1    0    0    0  501 -0.00000000000E+00 -0.00000000000E+00 -0.10946377297E+04  0.10946377297E+04  0.00000000000E+00 0.  1.
         23    2    1    2    0    0 -0.33040063150E+03 -0.15247989506E+04  0.44459653419E+02  0.15634466988E+04  0.90622856718E+02 0.  0.
         13    1    3    3    0    0 -0.16549942951E+03 -0.55701848343E+03  0.17260822854E+02  0.58134119763E+03  0.00000000000E+00 0.  1.
        -13    1    3    3    0    0 -0.16490120199E+03 -0.96778046715E+03  0.27198830565E+02  0.98210550115E+03  0.00000000000E+00 0. -1.
         22    1    1    2    0    0  0.33040063150E+03  0.15247989506E+04  0.14806237267E+04  0.21509121407E+04  0.00000000000E+00 0. -1.
<mgrwt>
<rscale>  0 0.33868248E+04</rscale>
<asrwt>0</asrwt>
<pdfrwt beam="1">  1        1 0.40303401E+00 0.33868248E+04</pdfrwt>
<pdfrwt beam="2">  1       -1 0.16840581E+00 0.33868248E+04</pdfrwt>
<totfact> 0.23265177E-01</totfact>
</mgrwt>
</event>
<event>
 6    1  0.1614874E-005  0.1696610E+04  0.7818608E-02  0.8763300E-01
         -2   -1    0    0    0  501 -0.00000000000E+00  0.00000000000E+00  0.54250711943E+03  0.54250711943E+03  0.00000000000E+00 0.  1.
          2   -1    0    0  501    0  0.00000000000E+00 -0.00000000000E+00 -0.13264739020E+04  0.13264739020E+04  0.00000000000E+00 0. -1.
         23    2    1    2    0    0  0.36519331160E+03 -0.73684994954E+03 -0.17954595306E+03  0.84837407351E+03  0.10577247455E+03 0.  0.
         11    1    3    3    0    0  0.14391057374E+03 -0.18950057119E+03 -0.34593759857E+02  0.24045258979E+03  0.00000000000E+00 0.  1.
        -11    1    3    3    0    0  0.22128273785E+03 -0.54734937835E+03 -0.14495219320E+03  0.60792148371E+03  0.00000000000E+00 0. -1.
         22    1    1    2    0    0 -0.36519331160E+03  0.73684994954E+03 -0.60442082947E+03  0.10206069479E+04  0.00000000000E+00 0. -1.
<mgrwt>
<rscale>  0 0.16966102E+04</rscale>
<asrwt>0</asrwt>
<pdfrwt beam="1">  1        2 0.20407291E+00 0.16966102E+04</pdfrwt>
<pdfrwt beam="2">  1       -2 0.83462634E-01 0.16966102E+04</pdfrwt>
<totfact> 0.19074938E+01</totfact>
</mgrwt>
</event>
<event>
 6    1  0.1614874E-005  0.5701240E+04  0.7818608E-02  0.7728590E-01
         -2   -1    0    0    0  501 -0.00000000000E+00  0.00000000000E+00  0.26537072049E+04  0.26537072049E+04  0.00000000000E+00 0.  1.
          2   -1    0    0  501    0  0.00000000000E+00 -0.00000000000E+00 -0.30621441149E+04  0.30621441149E+04  0.00000000000E+00 0. -1.
         23    2    1    2    0    0 -0.10598789280E+04  0.27651586311E+03 -0.28419646753E+04  0.30471696699E+04  0.93141917417E+02 0.  0.
         13    1    3    3    0    0 -0.72611582233E+03  0.14768628559E+03 -0.19617527076E+04  0.20970286388E+04  0.00000000000E+00 0.  1.
        -13    1    3    3    0    0 -0.33376310563E+03  0.12882957753E+03 -0.88021196774E+03  0.95014103105E+03  0.00000000000E+00 0. -1.
         22    1    1    2    0    0  0.10598789280E+04 -0.27651586311E+03  0.24335277653E+04  0.26686816500E+04  0.00000000000E+00 0.  1.
<mgrwt>
<rscale>  0 0.57012398E+04</rscale>
<asrwt>0</asrwt>
<pdfrwt beam="1">  1        2 0.47109910E+00 0.57012398E+04</pdfrwt>
<pdfrwt beam="2">  1       -2 0.40826265E+00 0.57012398E+04</pdfrwt>
<totfact> 0.71857123E-03</totfact>
</mgrwt>
</event>
<event>
 6    1  0.1614874E-005  0.2154825E+04  0.7818608E-02  0.8537470E-01
          2   -1    0    0  501    0  0.00000000000E+00  0.00000000000E+00  0.11459984850E+04  0.11459984850E+04  0.00000000000E+00 0. -1.
         -2   -1    0    0    0  501 -0.00000000000E+00 -0.00000000000E+00 -0.10129309186E+04  0.10129309186E+04  0.00000000000E+00 0.  1.
         23    2    1    2    0    0  0.68021449318E+03 -0.56547656373E+03  0.67989658768E+03  0.11189883094E+04  0.86139222930E+02 0.  0.
         11    1    3    3    0    0  0.61967510800E+03 -0.52545604225E+03  0.65007533201E+03  0.10405283413E+04  0.00000000000E+00 0.  1.
        -11    1    3    3    0    0  0.60539385175E+02 -0.40020521474E+02  0.29821255672E+02  0.78459968049E+02  0.00000000000E+00 0. -1.
         22    1    1    2    0    0 -0.68021449318E+03  0.56547656373E+03 -0.54682902130E+03  0.10399410942E+04  0.00000000000E+00 0.  1.
<mgrwt>
<rscale>  0 0.21548246E+04</rscale>
<asrwt>0</asrwt>
<pdfrwt beam="1">  1        2 0.17630746E+00 0.21548246E+04</pdfrwt>
<pdfrwt beam="2">  1       -2 0.15583552E+00 0.21548246E+04</pdfrwt>
<totfact> 0.50681609E+00</totfact>
</mgrwt>
</event>
<event>
 6    1  0.1614874E-005  0.5301263E+04  0.7818608E-02  0.7783643E-01
         -3   -1    0    0    0  501 -0.00000000000E+00  0.00000000000E+00  0.30673781729E+04  0.30673781729E+04  0.00000000000E+00 0.  1.
          3   -1    0    0  501    0  0.00000000000E+00 -0.00000000000E+00 -0.22905061491E+04  0.22905061491E+04  0.00000000000E+00 0. -1.
         23    2    1    2    0    0  0.20182890006E+04  0.15474466863E+04 -0.36367825119E+03  0.25706030900E+04  0.87502223376E+02 0.  0.
         13    1    3    3    0    0  0.12858546323E+04  0.98958214147E+03 -0.27434025773E+03  0.16455872894E+04  0.00000000000E+00 0.  1.
        -13    1    3    3    0    0  0.73243436835E+03  0.55786454481E+03 -0.89337993461E+02  0.92501580061E+03  0.00000000000E+00 0. -1.
         22    1    1    2    0    0 -0.20182890006E+04 -0.15474466863E+04  0.11405502750E+04  0.27872812321E+04  0.00000000000E+00 0.  1.
<mgrwt>
<rscale>  0 0.53012635E+04</rscale>
<asrwt>0</asrwt>
<pdfrwt beam="1">  1        3 0.35238556E+00 0.53012635E+04</pdfrwt>
<pdfrwt beam="2">  1       -3 0.47190434E+00 0.53012635E+04</pdfrwt>
<totfact> 0.15625797E-04</totfact>
</mgrwt>
</event>
<event>
 6    1  0.1614874E-005  0.3689410E+04  0.7818608E-02  0.8070313E-01
          2   -1    0    0  501    0  0.00000000000E+00  0.00000000000E+00  0.28798897241E+04  0.28798897241E+04  0.00000000000E+00 0. -1.
         -2   -1    0    0    0  501 -0.00000000000E+00 -0.00000000000E+00 -0.11816205745E+04  0.11816205745E+04  0.00000000000E+00 0.  1.
         23    2    1    2    0    0 -0.16886422457E+04  0.72407638881E+03  0.10164115770E+04  0.21017325050E+04  0.91584813821E+02 0.  0.
         13    1    3    3    0    0 -0.40704504707E+03  0.21735714758E+03  0.24911740780E+03  0.52439420555E+03  0.00000000000E+00 0.  1.
        -13    1    3    3    0    0 -0.12815971986E+04  0.50671924123E+03  0.76729416917E+03  0.15773382995E+04  0.00000000000E+00 0. -1.
         22    1    1    2    0    0  0.16886422457E+04 -0.72407638881E+03  0.68185757261E+03  0.19597777935E+04  0.00000000000E+00 0. -1.
<mgrwt>
<rscale>  0 0.36894102E+04</rscale>
<asrwt>0</asrwt>
<pdfrwt beam="1">  1        2 0.44305996E+00 0.36894102E+04</pdfrwt>
<pdfrwt beam="2">  1       -2 0.18178778E+00 0.36894102E+04</pdfrwt>
<totfact> 0.29463727E-01</totfact>
</mgrwt>
</event>
<event>
 6    1  0.1614874E-005  0.1357602E+04  0.7818608E-02  0.8985093E-01
          1   -1    0    0  501    0  0.00000000000E+00  0.00000000000E+00  0.51753167915E+03  0.51753167915E+03  0.00000000000E+00 0. -1.
         -1   -1    0    0    0  501 -0.00000000000E+00 -0.00000000000E+00 -0.89032379783E+03  0.89032379783E+03  0.00000000000E+00 0.  1.
         23    2    1    2    0    0  0.22552930628E+02 -0.43231811967E+03 -0.72526659403E+03  0.84960298299E+03  0.91684268017E+02 0.  0.
         13    1    3    3    0    0  0.99930818364E+01 -0.19212250777E+02 -0.10779347316E+02  0.24190216887E+02  0.00000000000E+00 0.  1.
        -13    1    3    3    0    0  0.12559848792E+02 -0.41310586889E+03 -0.71448724672E+03  0.82541276610E+03  0.00000000000E+00 0. -1.
         22    1    1    2    0    0 -0.22552930628E+02  0.43231811967E+03  0.35247447536E+03  0.55825249400E+03  0.00000000000E+00 0. -1.
<mgrwt>
<rscale>  0 0.13576020E+04</rscale>
<asrwt>0</asrwt>
<pdfrwt beam="1">  1        1 0.79620259E-01 0.13576020E+04</pdfrwt>
<pdfrwt beam="2">  1       -1 0.13697289E+00 0.13576020E+04</pdfrwt>
<totfact> 0.18344507E+01</totfact>
</mgrwt>
</event>
<event>
 6    1  0.1614874E-005  0.1900204E+04  0.7818608E-02  0.8654755E-01
         -1   -1    0    0    0  501 -0.00000000000E+00  0.00000000000E+00  0.13477336859E+04  0.13477336859E+04  0.00000000000E+00 0.  1.
          1   -1    0    0  501    0  0.00000000000E+00 -0.00000000000E+00 -0.66978659220E+03  0.66978659220E+03  0.00000000000E+00 0. -1.
         23    2    1    2    0    0 -0.92507214349E+03 -0.75843331964E+02  0.54597222155E+03  0.10800086523E+04  0.82597461599E+02 0.  0.
         13    1    3    3    0    0 -0.44565134836E+03  0.18360293247E+01  0.27921444331E+03  0.52589846991E+03  0.00000000000E+00 0. -1.
        -13    1    3    3    0    0 -0.47942079513E+03 -0.77679361289E+02  0.26675777825E+03  0.55411018239E+03  0.00000000000E+00 0.  1.
         22    1    1    2    0    0  0.92507214349E+03  0.75843331964E+02  0.13197487216E+03  0.93751162582E+03  0.00000000000E+00 0.  1.
<mgrwt>
<rscale>  0 0.19002041E+04</rscale>
<asrwt>0</asrwt>
<pdfrwt beam="1">  1        1 0.10304409E+00 0.19002041E+04</pdfrwt>
<pdfrwt beam="2">  1       -1 0.20734364E+00 0.19002041E+04</pdfrwt>
<totfact> 0.36511788E+00</totfact>
</mgrwt>
</event>
<event>
 6    1  0.1614874E-005  0.1864856E+04  0.7818608E-02  0.8672550E-01
          2   -1    0    0  501    0  0.00000000000E+00  0.00000000000E+00  0.28350390191E+04  0.28350390191E+04  0.00000000000E+00 0.  1.
         -2   -1    0    0    0  501 -0.00000000000E+00 -0.00000000000E+00 -0.30667013221E+03  0.30667013221E+03  0.00000000000E+00 0. -1.
         23    2    1    2    0    0  0.14130093379E+03  0.89543367568E+03  0.90886159403E+03  0.12857535233E+04  0.73248236828E+02 0.  0.
         13    1    3    3    0    0  0.11024472267E+03  0.48062622951E+03  0.51176362565E+03  0.71067396175E+03  0.00000000000E+00 0.  1.
        -13    1    3    3    0    0  0.31056211122E+02  0.41480744616E+03  0.39709796838E+03  0.57507956157E+03  0.00000000000E+00 0. -1.
         22    1    1    2    0    0 -0.14130093379E+03 -0.89543367568E+03  0.16195072928E+04  0.18559556280E+04  0.00000000000E+00 0.  1.
<mgrwt>
<rscale>  0 0.18648558E+04</rscale>
<asrwt>0</asrwt>
<pdfrwt beam="1">  1        2 0.43615983E+00 0.18648558E+04</pdfrwt>
<pdfrwt beam="2">  1       -2 0.47180022E-01 0.18648558E+04</pdfrwt>
<totfact> 0.88262387E+00</totfact>
</mgrwt>
</event>
<event>
 6    1  0.1614874E-005  0.2661620E+04  0.7818608E-02  0.8347566E-01
         -2   -1    0    0    0  501 -0.00000000000E+00  0.00000000000E+00  0.10267067150E+04  0.10267067150E+04  0.00000000000E+00 0.  1.
          2   -1    0    0  501    0  0.00000000000E+00 -0.00000000000E+00 -0.17249868620E+04  0.17249868620E+04  0.00000000000E+00 0. -1.
         23    2    1    2    0    0 -0.21718067936E+03  0.39873037679E+03 -0.16409207178E+04  0.17054026965E+04  0.98102977042E+02 0.  0.
         11    1    3    3    0    0 -0.38183026074E+02  0.16707687032E+03 -0.57287237034E+03  0.59795934375E+03  0.00000000000E+00 0.  1.
        -11    1    3    3    0    0 -0.17899765329E+03  0.23165350647E+03 -0.10680483475E+04  0.11074433527E+04  0.00000000000E+00 0. -1.
         22    1    1    2    0    0  0.21718067936E+03 -0.39873037679E+03  0.94264057078E+03  0.10462908805E+04  0.00000000000E+00 0.  1.
<mgrwt>
<rscale>  0 0.26616203E+04</rscale>
<asrwt>0</asrwt>
<pdfrwt beam="1">  1        2 0.26538259E+00 0.26616203E+04</pdfrwt>
<pdfrwt beam="2">  1       -2 0.15795488E+00 0.26616203E+04</pdfrwt>
<totfact> 0.21808360E+00</totfact>
</mgrwt>
</event>
<event>
 6    1  0.1614874E-005  0.5056336E+04  0.7818608E-02  0.7819875E-01
         -2   -1    0    0    0  501 -0.00000000000E+00  0.00000000000E+00  0.30552634938E+04  0.30552634938E+04  0.00000000000E+00 0.  1.
          2   -1    0    0  501    0  0.00000000000E+00 -0.00000000000E+00 -0.20920074369E+04  0.20920074369E+04  0.00000000000E+00 0. -1.
         23    2    1    2    0    0 -0.20579857428E+04 -0.25621958226E+03 -0.98871356082E+03  0.22992647543E+04  0.90056167415E+02 0.  0.
         13    1    3    3    0    0 -0.87009207761E+03 -0.15292632933E+03 -0.42618126768E+03  0.98085531994E+03  0.00000000000E+00 0.  1.
        -13    1    3    3    0    0 -0.11878936652E+04 -0.10329325293E+03 -0.56253229314E+03  0.13184094344E+04  0.00000000000E+00 0. -1.
         22    1    1    2    0    0  0.20579857428E+04  0.25621958226E+03  0.19519696177E+04  0.28480061763E+04  0.00000000000E+00 0.  1.
<mgrwt>
<rscale>  0 0.50563362E+04</rscale>
<asrwt>0</asrwt>
<pdfrwt beam="1">  1        2 0.32184730E+00 0.50563362E+04</pdfrwt>
<pdfrwt beam="2">  1       -2 0.47004054E+00 0.50563362E+04</pdfrwt>
<totfact> 0.11073990E-02</totfact>
</mgrwt>
</event>
<event>
 6    1  0.1614874E-005  0.5347778E+04  0.7818608E-02  0.7776989E-01
          2   -1    0    0  501    0  0.00000000000E+00  0.00000000000E+00  0.36070586453E+04  0.36070586453E+04  0.00000000000E+00 0. -1.
         -2   -1    0    0    0  501 -0.00000000000E+00 -0.00000000000E+00 -0.19821364172E+04  0.19821364172E+04  0.00000000000E+00 0.  1.
         23    2    1    2    0    0  0.93910305934E+03  0.15467290909E+04 -0.12436483982E+04  0.21975902986E+04  0.91958391801E+02 0.  0.
         13    1    3    3    0    0  0.71219203722E+02  0.86288155859E+02 -0.95933465350E+02  0.14738063168E+03  0.00000000000E+00 0. -1.
        -13    1    3    3    0    0  0.86788385562E+03  0.14604409350E+04 -0.11477149328E+04  0.20502096670E+04  0.00000000000E+00 0.  1.
         22    1    1    2    0    0 -0.93910305934E+03 -0.15467290909E+04  0.28685706263E+04  0.33916047639E+04  0.00000000000E+00 0. -1.
<mgrwt>
<rscale>  0 0.53477780E+04</rscale>
<asrwt>0</asrwt>
<pdfrwt beam="1">  1        2 0.55493210E+00 0.53477780E+04</pdfrwt>
<pdfrwt beam="2">  1       -2 0.30494406E+00 0.53477780E+04</pdfrwt>
<totfact> 0.14289028E-02</totfact>
</mgrwt>
</event>
<event>
 6    1  0.1614874E-005  0.8007037E+03  0.7818608E-02  0.9558999E-01
          1   -1    0    0  501    0  0.00000000000E+00  0.00000000000E+00  0.18969148753E+03  0.18969148753E+03  0.00000000000E+00 0. -1.
         -1   -1    0    0    0  501 -0.00000000000E+00 -0.00000000000E+00 -0.84495930522E+03  0.84495930522E+03  0.00000000000E+00 0.  1.
         23    2    1    2    0    0  0.52889870525E+01 -0.33672646135E+03 -0.59907592181E+03  0.69322699112E+03  0.90879139379E+02 0.  0.
         11    1    3    3    0    0 -0.23096593760E+02 -0.22152802893E+03 -0.31904086191E+03  0.38909535054E+03  0.00000000000E+00 0.  1.
        -11    1    3    3    0    0  0.28385580812E+02 -0.11519843241E+03 -0.28003505990E+03  0.30413164058E+03  0.00000000000E+00 0. -1.
         22    1    1    2    0    0 -0.52889870525E+01  0.33672646135E+03 -0.56191895881E+02  0.34142380163E+03  0.00000000000E+00 0. -1.
<mgrwt>
<rscale>  0 0.80070366E+03</rscale>
<asrwt>0</asrwt>
<pdfrwt beam="1">  1        1 0.29183306E-01 0.80070366E+03</pdfrwt>
<pdfrwt beam="2">  1       -1 0.12999374E+00 0.80070366E+03</pdfrwt>
<totfact> 0.81947219E+01</totfact>
</mgrwt>
</event>
<event>
 6    1  0.1614874E-005  0.2549344E+04  0.7818608E-02  0.8385614E-01
          2   -1    0    0  501    0  0.00000000000E+00  0.00000000000E+00  0.13710940375E+04  0.13710940375E+04  0.00000000000E+00 0. -1.
         -2   -1    0    0    0  501 -0.00000000000E+00 -0.00000000000E+00 -0.11850307157E+04  0.11850307157E+04  0.00000000000E+00 0.  1.
         23    2    1    2    0    0  0.12097276362E+03  0.92946713234E+03 -0.77048079799E+03  0.12169010181E+04  0.93079901835E+02 0.  0.
         11    1    3    3    0    0  0.31935776990E+02  0.58052539937E+03 -0.45865265641E+03  0.74053486913E+03  0.00000000000E+00 0. -1.
        -11    1    3    3    0    0  0.89036986630E+02  0.34894173297E+03 -0.31182814158E+03  0.47636614896E+03  0.00000000000E+00 0.  1.
         22    1    1    2    0    0 -0.12097276362E+03 -0.92946713234E+03  0.95654411973E+03  0.13392237351E+04  0.00000000000E+00 0. -1.
<mgrwt>
<rscale>  0 0.25493439E+04</rscale>
<asrwt>0</asrwt>
<pdfrwt beam="1">  1        2 0.21093754E+00 0.25493439E+04</pdfrwt>
<pdfrwt beam="2">  1       -2 0.18231242E+00 0.25493439E+04</pdfrwt>
<totfact> 0.23345640E+00</totfact>
</mgrwt>
</event>
<event>
 6    1  0.1614874E-005  0.2135354E+04  0.7818608E-02  0.8545828E-01
          2   -1    0    0  501    0  0.00000000000E+00  0.00000000000E+00  0.14269745693E+04  0.14269745693E+04  0.00000000000E+00 0. -1.
         -2   -1    0    0    0  501 -0.00000000000E+00 -0.00000000000E+00 -0.79884652105E+03  0.79884652105E+03  0.00000000000E+00 0.  1.
         23    2    1    2    0    0 -0.40470749277E+03 -0.33101849128E+03 -0.65295513690E+03  0.84215367239E+03  0.97524360227E+02 0.  0.
         11    1    3    3    0    0 -0.67357372655E+02 -0.79562360878E+02 -0.80534306551E+02  0.13173063217E+03  0.00000000000E+00 0. -1.
        -11    1    3    3    0    0 -0.33735012012E+03 -0.25145613040E+03 -0.57242083035E+03  0.71042304022E+03  0.00000000000E+00 0.  1.
         22    1    1    2    0    0  0.40470749277E+03  0.33101849128E+03  0.12810831852E+04  0.13836674180E+04  0.00000000000E+00 0. -1.
<mgrwt>
<rscale>  0 0.21353535E+04</rscale>
<asrwt>0</asrwt>
<pdfrwt beam="1">  1        2 0.21953455E+00 0.21353535E+04</pdfrwt>
<pdfrwt beam="2">  1       -2 0.12289946E+00 0.21353535E+04</pdfrwt>
<totfact> 0.64213941E+00</totfact>
</mgrwt>
</event>
<event>
 6    1  0.1614874E-005  0.3559495E+04  0.7818608E-02  0.8099833E-01
          1   -1    0    0  501    0  0.00000000000E+00  0.00000000000E+00  0.21580462326E+04  0.21580462326E+04  0.00000000000E+00 0. -1.
         -1   -1    0    0    0  501 -0.00000000000E+00 -0.00000000000E+00 -0.14677630094E+04  0.14677630094E+04  0.00000000000E+00 0.  1.
         23    2    1    2    0    0 -0.26713221293E+03  0.16318024991E+04  0.10127989421E+04  0.19411266594E+04  0.89844283997E+02 0.  0.
         11    1    3    3    0    0 -0.20944136374E+03  0.10646616901E+04  0.69297384178E+03  0.12874715316E+04  0.00000000000E+00 0.  1.
        -11    1    3    3    0    0 -0.57690849190E+02  0.56714080899E+03  0.31982510035E+03  0.65365512781E+03  0.00000000000E+00 0. -1.
         22    1    1    2    0    0  0.26713221293E+03 -0.16318024991E+04 -0.32251571898E+03  0.16846825826E+04  0.00000000000E+00 0.  1.
<mgrwt>
<rscale>  0 0.35594946E+04</rscale>
<asrwt>0</asrwt>
<pdfrwt beam="1">  1        1 0.33200711E+00 0.35594946E+04</pdfrwt>
<pdfrwt beam="2">  1       -1 0.22580969E+00 0.35594946E+04</pdfrwt>
<totfact> 0.19011826E-01</totfact>
</mgrwt>
</event>
<event>
 6    1  0.1614874E-005  0.1188213E+04  0.7818608E-02  0.9123237E-01
         -3   -1    0    0    0  501 -0.00000000000E+00  0.00000000000E+00  0.11403746614E+04  0.11403746614E+04  0.00000000000E+00 0.  1.
          3   -1    0    0  501    0  0.00000000000E+00 -0.00000000000E+00 -0.30951436764E+03  0.30951436764E+03  0.00000000000E+00 0. -1.
         23    2    1    2    0    0  0.15968314804E+03  0.19163167353E+03  0.10711031070E+04  0.11035683462E+04  0.91541372817E+02 0.  0.
         13    1    3    3    0    0  0.12341735505E+03  0.16368211406E+03  0.69244684755E+03  0.72215394112E+03  0.00000000000E+00 0. -1.
        -13    1    3    3    0    0  0.36265792984E+02  0.27949559471E+02  0.37865625946E+03  0.38141440513E+03  0.00000000000E+00 0.  1.
         22    1    1    2    0    0 -0.15968314804E+03 -0.19163167353E+03 -0.24024281320E+03  0.34632068284E+03  0.00000000000E+00 0. -1.
<mgrwt>
<rscale>  0 0.11882127E+04</rscale>
<asrwt>0</asrwt>
<pdfrwt beam="1">  1        3 0.47617596E-01 0.11882127E+04</pdfrwt>
<pdfrwt beam="2">  1       -3 0.17544225E+00 0.11882127E+04</pdfrwt>
<totfact> 0.24080538E+00</totfact>
</mgrwt>
</event>
<event>
 6    1  0.1614874E-005  0.1522310E+04  0.7818608E-02  0.8869751E-01
         -2   -1    0    0    0  501 -0.00000000000E+00  0.00000000000E+00  0.37813748598E+03  0.37813748598E+03  0.00000000000E+00 0.  1.
          2   -1    0    0  501    0  0.00000000000E+00 -0.00000000000E+00 -0.15321328056E+04  0.15321328056E+04  0.00000000000E+00 0. -1.
         23    2    1    2    0    0 -0.30564361712E+03  0.33391321652E+03 -0.13427842925E+04  0.14198038472E+04  0.88641138186E+02 0.  0.
         13    1    3    3    0    0 -0.12114740671E+03  0.16114711420E+03 -0.47640475455E+03  0.51730704299E+03  0.00000000000E+00 0. -1.
        -13    1    3    3    0    0 -0.18449621041E+03  0.17276610232E+03 -0.86637953794E+03  0.90249680417E+03  0.00000000000E+00 0.  1.
         22    1    1    2    0    0  0.30564361712E+03 -0.33391321652E+03  0.18878897286E+03  0.49046644445E+03  0.00000000000E+00 0.  1.
<mgrwt>
<rscale>  0 0.15223099E+04</rscale>
<asrwt>0</asrwt>
<pdfrwt beam="1">  1        2 0.23571274E+00 0.15223099E+04</pdfrwt>
<pdfrwt beam="2">  1       -2 0.58174998E-01 0.15223099E+04</pdfrwt>
<totfact> 0.32459077E+01</totfact>
</mgrwt>
</event>
<event>
 6    1  0.1614874E-005  0.3513669E+04  0.7818608E-02  0.8110558E-01
          2   -1    0    0  501    0  0.00000000000E+00  0.00000000000E+00  0.31439502397E+04  0.31439502397E+04  0.00000000000E+00 0. -1.
         -2   -1    0    0    0  501 -0.00000000000E+00 -0.00000000000E+00 -0.98171657360E+03  0.98171657360E+03  0.00000000000E+00 0.  1.
         23    2    1    2    0    0  0.70896973218E+03  0.15306417448E+04  0.16533230954E+04  0.23637098896E+04  0.90249388780E+02 0.  0.
         11    1    3    3    0    0  0.26069049812E+03  0.61405168860E+03  0.60009321048E+03  0.89729085215E+03  0.00000000000E+00 0. -1.
        -11    1    3    3    0    0  0.44827923405E+03  0.91659005621E+03  0.10532298849E+04  0.14664190374E+04  0.00000000000E+00 0.  1.
         22    1    1    2    0    0 -0.70896973218E+03 -0.15306417448E+04  0.50891057068E+03  0.17619569237E+04  0.00000000000E+00 0. -1.
<mgrwt>
<rscale>  0 0.35136693E+04</rscale>
<asrwt>0</asrwt>
<pdfrwt beam="1">  1        2 0.48368465E+00 0.35136693E+04</pdfrwt>
<pdfrwt beam="2">  1       -2 0.15103332E+00 0.35136693E+04</pdfrwt>
<totfact> 0.34019170E-01</totfact>
</mgrwt>
</event>
<event>
 6    1  0.1614874E-005  0.4787944E+04  0.7818608E-02  0.7862078E-01
         -1   -1    0    0    0  501 -0.00000000000E+00  0.00000000000E+00  0.15362375141E+04  0.15362375141E+04  0.00000000000E+00 0.  1.
          1   -1    0    0  501    0  0.00000000000E+00 -0.00000000000E+00 -0.37306099874E+04  0.37306099874E+04  0.00000000000E+00 0. -1.
         23    2    1    2    0    0 -0.17164358957E+04 -0.14645574901E+04 -0.22049573609E+03  0.22689698856E+04  0.92331720435E+02 0.  0.
         11    1    3    3    0    0 -0.33805582692E+03 -0.30150464101E+03 -0.85553923176E+01  0.45305627178E+03  0.00000000000E+00 0. -1.
        -11    1    3    3    0    0 -0.13783800688E+04 -0.11630528491E+04 -0.21194034377E+03  0.18159136139E+04  0.00000000000E+00 0.  1.
         22    1    1    2    0    0  0.17164358957E+04  0.14645574901E+04 -0.19738767372E+04  0.29978776158E+04  0.00000000000E+00 0. -1.
<mgrwt>
<rscale>  0 0.47879444E+04</rscale>
<asrwt>0</asrwt>
<pdfrwt beam="1">  1        1 0.57393999E+00 0.47879444E+04</pdfrwt>
<pdfrwt beam="2">  1       -1 0.23634424E+00 0.47879444E+04</pdfrwt>
<totfact> 0.10221411E-02</totfact>
</mgrwt>
</event>
<event>
 6    1  0.1614874E-005  0.2663237E+04  0.7818608E-02  0.8347033E-01
          1   -1    0    0  501    0  0.00000000000E+00  0.00000000000E+00  0.22276248605E+04  0.22276248605E+04  0.00000000000E+00 0. -1.
         -1   -1    0    0    0  501 -0.00000000000E+00 -0.00000000000E+00 -0.79600841380E+03  0.79600841380E+03  0.00000000000E+00 0.  1.
         23    2    1    2    0    0 -0.63710247594E+03 -0.10646545734E+04  0.12594832522E+04  0.17710284834E+04  0.10418685697E+03 0.  0.
         11    1    3    3    0    0 -0.62555510872E+03 -0.10024757549E+04  0.12023640200E+04  0.16858102117E+04  0.00000000000E+00 0.  1.
        -11    1    3    3    0    0 -0.11547367223E+02 -0.62178818480E+02  0.57119232168E+02  0.85218271754E+02  0.00000000000E+00 0. -1.
         22    1    1    2    0    0  0.63710247594E+03  0.10646545734E+04  0.17213319457E+03  0.12526047909E+04  0.00000000000E+00 0.  1.
<mgrwt>
<rscale>  0 0.26632372E+04</rscale>
<asrwt>0</asrwt>
<pdfrwt beam="1">  1        1 0.34271152E+00 0.26632372E+04</pdfrwt>
<pdfrwt beam="2">  1       -1 0.12246283E+00 0.26632372E+04</pdfrwt>
<totfact> 0.10756208E+00</totfact>
</mgrwt>
</event>
<event>
 6    1  0.1614874E-005  0.1758590E+04  0.7818608E-02  0.8728636E-01
         -2   -1    0    0    0  501 -0.00000000000E+00  0.00000000000E+00  0.64156243240E+03  0.64156243240E+03  0.00000000000E+00 0.  1.
          2   -1    0    0  501    0  0.00000000000E+00 -0.00000000000E+00 -0.12051196137E+04  0.12051196137E+04  0.00000000000E+00 0. -1.
         23    2    1    2    0    0 -0.78101302244E+03  0.39080246686E+03 -0.36646300537E+03  0.95138655100E+03  0.90184953172E+02 0.  0.
         11    1    3    3    0    0 -0.56481373698E+03  0.24819001968E+03 -0.22817725667E+03  0.65778241373E+03  0.00000000000E+00 0. -1.
        -11    1    3    3    0    0 -0.21619928546E+03  0.14261244718E+03 -0.13828574870E+03  0.29360413726E+03  0.00000000000E+00 0.  1.
         22    1    1    2    0    0  0.78101302244E+03 -0.39080246686E+03 -0.19709417591E+03  0.89529549508E+03  0.00000000000E+00 0.  1.
<mgrwt>
<rscale>  0 0.17585897E+04</rscale>
<asrwt>0</asrwt>
<pdfrwt beam="1">  1        2 0.18540302E+00 0.17585897E+04</pdfrwt>
<pdfrwt beam="2">  1       -2 0.98701914E-01 0.17585897E+04</pdfrwt>
<totfact> 0.15179214E+01</totfact>
</mgrwt>
</event>
<event>
 6    1  0.1614874E-005  0.2159911E+04  0.7818608E-02  0.8535302E-01
          2   -1    0    0  501    0  0.00000000000E+00  0.00000000000E+00  0.10282694343E+04  0.10282694343E+04  0.00000000000E+00 0. -1.
         -2   -1    0    0    0  501 -0.00000000000E+00 -0.00000000000E+00 -0.11342398394E+04  0.11342398394E+04  0.00000000000E+00 0.  1.
         23    2    1    2    0    0  0.10057969217E+04  0.28043560554E+03 -0.31982177740E+03  0.10966743962E+04  0.10068359115E+03 0.  0.
         13    1    3    3    0    0  0.88950565319E+03  0.21525653818E+03 -0.26762726970E+03  0.95350932863E+03  0.00000000000E+00 0.  1.
        -13    1    3    3    0    0  0.11629126851E+03  0.65179067353E+02 -0.52194507694E+02  0.14316506762E+03  0.00000000000E+00 0. -1.
         22    1    1    2    0    0 -0.10057969217E+04 -0.28043560554E+03  0.21385137231E+03  0.10658348775E+04  0.00000000000E+00 0. -1.
<mgrwt>
<rscale>  0 0.21599113E+04</rscale>
<asrwt>0</asrwt>
<pdfrwt beam="1">  1        2 0.15819530E+00 0.21599113E+04</pdfrwt>
<pdfrwt beam="2">  1       -2 0.17449844E+00 0.21599113E+04</pdfrwt>
<totfact> 0.43882064E+00</totfact>
</mgrwt>
</event>
<event>
 6    1  0.1614874E-005  0.2212342E+04  0.7818608E-02  0.8513309E-01
         -1   -1    0    0    0  501 -0.00000000000E+00  0.00000000000E+00  0.50273015749E+03  0.50273015749E+03  0.00000000000E+00 0.  1.
          1   -1    0    0  501    0  0.00000000000E+00 -0.00000000000E+00 -0.24339377298E+04  0.24339377298E+04  0.00000000000E+00 0. -1.
         23    2    1    2    0    0  0.25830779075E+03  0.81425339815E+03 -0.18967904053E+04  0.20817316017E+04  0.77853121810E+02 0.  0.
         13    1    3    3    0    0  0.14820984566E+03  0.55477722633E+03 -0.13322684973E+04  0.14507526591E+04  0.00000000000E+00 0.  1.
        -13    1    3    3    0    0  0.11009794510E+03  0.25947617182E+03 -0.56452190802E+03  0.63097894251E+03  0.00000000000E+00 0. -1.
         22    1    1    2    0    0 -0.25830779075E+03 -0.81425339815E+03 -0.34417167050E+02  0.85493628566E+03  0.00000000000E+00 0.  1.
<mgrwt>
<rscale>  0 0.22123417E+04</rscale>
<asrwt>0</asrwt>
<pdfrwt beam="1">  1        1 0.37445195E+00 0.22123417E+04</pdfrwt>
<pdfrwt beam="2">  1       -1 0.77343102E-01 0.22123417E+04</pdfrwt>
<totfact> 0.22973350E+00</totfact>
</mgrwt>
</event>
<event>
 6    1  0.1614874E-005  0.3641984E+04  0.7818608E-02  0.8080942E-01
          2   -1    0    0  501    0  0.00000000000E+00  0.00000000000E+00  0.18795001745E+04  0.18795001745E+04  0.00000000000E+00 0. -1.
         -2   -1    0    0    0  501 -0.00000000000E+00 -0.00000000000E+00 -0.17643054349E+04  0.17643054349E+04  0.00000000000E+00 0.  1.
         23    2    1    2    0    0  0.48883271252E+02 -0.11727159534E+04 -0.13332236030E+04  0.17795180842E+04  0.10745768844E+03 0.  0.
         11    1    3    3    0    0  0.18986485263E+02 -0.75673150463E+02 -0.58845891154E+02  0.97722828599E+02  0.00000000000E+00 0.  1.
        -11    1    3    3    0    0  0.29896785989E+02 -0.10970428029E+04 -0.12743777118E+04  0.16817952556E+04  0.00000000000E+00 0. -1.
         22    1    1    2    0    0 -0.48883271252E+02  0.11727159534E+04  0.14484183425E+04  0.18642875252E+04  0.00000000000E+00 0. -1.
<mgrwt>
<rscale>  0 0.36419843E+04</rscale>
<asrwt>0</asrwt>
<pdfrwt beam="1">  1        2 0.28915387E+00 0.36419843E+04</pdfrwt>
<pdfrwt beam="2">  1       -2 0.27143161E+00 0.36419843E+04</pdfrwt>
<totfact> 0.30076292E-01</totfact>
</mgrwt>
</event>
<event>
 6    1  0.1614874E-005  0.2270924E+04  0.7818608E-02  0.8489474E-01
          1   -1    0    0  501    0  0.00000000000E+00  0.00000000000E+00  0.18409161832E+04  0.18409161832E+04  0.00000000000E+00 0. -1.
         -1   -1    0    0    0  501 -0.00000000000E+00 -0.00000000000E+00 -0.70034346979E+03  0.70034346979E+03  0.00000000000E+00 0.  1.
         23    2    1    2    0    0 -0.45623157908E+03  0.99544192810E+03  0.24145558068E+03  0.11244098006E+04  0.83334963839E+02 0.  0.
         13    1    3    3    0    0 -0.14461912564E+03  0.22945103934E+03  0.58043200013E+02  0.27736525381E+03  0.00000000000E+00 0. -1.
        -13    1    3    3    0    0 -0.31161245345E+03  0.76599088877E+03  0.18341238067E+03  0.84704454676E+03  0.00000000000E+00 0.  1.
         22    1    1    2    0    0  0.45623157908E+03 -0.99544192810E+03  0.89911713274E+03  0.14168498524E+04  0.00000000000E+00 0.  1.
<mgrwt>
<rscale>  0 0.22709237E+04</rscale>
<asrwt>0</asrwt>
<pdfrwt beam="1">  1        1 0.28321787E+00 0.22709237E+04</pdfrwt>
<pdfrwt beam="2">  1       -1 0.10774515E+00 0.22709237E+04</pdfrwt>
<totfact> 0.27746509E+00</totfact>
</mgrwt>
</event>
<event>
 6    1  0.1614874E-005  0.5268235E+04  0.7818608E-02  0.7788411E-01
         -2   -1    0    0    0  501 -0.00000000000E+00  0.00000000000E+00  0.14374712672E+04  0.14374712672E+04  0.00000000000E+00 0. -1.
          2   -1    0    0  501    0  0.00000000000E+00 -0.00000000000E+00 -0.48269315884E+04  0.48269315884E+04  0.00000000000E+00 0.  1.
         23    2    1    2    0    0  0.14143965427E+04  0.20130362304E+01 -0.43363075870E+04  0.45623331222E+04  0.10391533613E+03 0.  0.
         11    1    3    3    0    0  0.63873003711E+03 -0.11622862426E+02 -0.21207200699E+04  0.22148509580E+04  0.00000000000E+00 0.  1.
        -11    1    3    3    0    0  0.77566650563E+03  0.13635898656E+02 -0.22155875170E+04  0.23474821642E+04  0.00000000000E+00 0. -1.
         22    1    1    2    0    0 -0.14143965427E+04 -0.20130362304E+01  0.94684726574E+03  0.17020697333E+04  0.00000000000E+00 0. -1.
<mgrwt>
<rscale>  0 0.52682352E+04</rscale>
<asrwt>0</asrwt>
<pdfrwt beam="1">  1        2 0.74260485E+00 0.52682352E+04</pdfrwt>
<pdfrwt beam="2">  1       -2 0.22114943E+00 0.52682352E+04</pdfrwt>
<totfact> 0.37837681E-03</totfact>
</mgrwt>
</event>
<event>
 6    1  0.1614874E-005  0.5560780E+04  0.7818608E-02  0.7747381E-01
         -2   -1    0    0    0  501 -0.00000000000E+00  0.00000000000E+00  0.22019788994E+04  0.22019788994E+04  0.00000000000E+00 0.  1.
          2   -1    0    0  501    0  0.00000000000E+00 -0.00000000000E+00 -0.35107371855E+04  0.35107371855E+04  0.00000000000E+00 0. -1.
         23    2    1    2    0    0  0.19115609733E+04 -0.58975267201E+03  0.13281697623E+04  0.24028425070E+04  0.87997879488E+02 0.  0.
         13    1    3    3    0    0  0.98375591505E+03 -0.30094684940E+03  0.63029005669E+03  0.12064867435E+04  0.00000000000E+00 0. -1.
        -13    1    3    3    0    0  0.92780505828E+03 -0.28880582261E+03  0.69787970563E+03  0.11963557635E+04  0.00000000000E+00 0.  1.
         22    1    1    2    0    0 -0.19115609733E+04  0.58975267201E+03 -0.26369280485E+04  0.33098735779E+04  0.00000000000E+00 0. -1.
<mgrwt>
<rscale>  0 0.55607802E+04</rscale>
<asrwt>0</asrwt>
<pdfrwt beam="1">  1        2 0.54011341E+00 0.55607802E+04</pdfrwt>
<pdfrwt beam="2">  1       -2 0.33876599E+00 0.55607802E+04</pdfrwt>
<totfact> 0.10164358E-02</totfact>
</mgrwt>
</event>
<event>
 6    1  0.1614874E-005  0.1116644E+04  0.7818608E-02  0.9189119E-01
         -1   -1    0    0    0  501 -0.00000000000E+00  0.00000000000E+00  0.12142449099E+04  0.12142449099E+04  0.00000000000E+00 0.  1.
          1   -1    0    0  501    0  0.00000000000E+00 -0.00000000000E+00 -0.25672213696E+03  0.25672213696E+03  0.00000000000E+00 0. -1.
         23    2    1    2    0    0  0.16788450379E+02 -0.50826809073E+03  0.77294465558E+03  0.92996114531E+03  0.93626850154E+02 0.  0.
         11    1    3    3    0    0 -0.37818914172E+02 -0.27036290123E+03  0.41013501132E+03  0.49268356593E+03  0.00000000000E+00 0. -1.
        -11    1    3    3    0    0  0.54607364551E+02 -0.23790518950E+03  0.36280964427E+03  0.43727757938E+03  0.00000000000E+00 0.  1.
         22    1    1    2    0    0 -0.16788450379E+02  0.50826809073E+03  0.18457811737E+03  0.54100590157E+03  0.00000000000E+00 0.  1.
<mgrwt>
<rscale>  0 0.11166442E+04</rscale>
<asrwt>0</asrwt>
<pdfrwt beam="1">  1        1 0.39495714E-01 0.11166442E+04</pdfrwt>
<pdfrwt beam="2">  1       -1 0.18680691E+00 0.11166442E+04</pdfrwt>
<totfact> 0.19908041E+01</totfact>
</mgrwt>
</event>
<event>
 6    1  0.1614874E-005  0.1049210E+04  0.7818608E-02  0.9256160E-01
         -1   -1    0    0    0  501 -0.00000000000E+00  0.00000000000E+00  0.79059194504E+03  0.79059194504E+03  0.00000000000E+00 0.  1.
          1   -1    0    0  501    0  0.00000000000E+00 -0.00000000000E+00 -0.34810692742E+03  0.34810692742E+03  0.00000000000E+00 0. -1.
         23    2    1    2    0    0  0.10721922623E+03 -0.12250348088E+03  0.75946347899E+03  0.78235857125E+03  0.93792818384E+02 0.  0.
         13    1    3    3    0    0  0.41785162480E+02 -0.11459200785E+03  0.49343001764E+03  0.50828192017E+03  0.00000000000E+00 0.  1.
        -13    1    3    3    0    0  0.65434063755E+02 -0.79114730235E+01  0.26603346135E+03  0.27407665108E+03  0.00000000000E+00 0. -1.
         22    1    1    2    0    0 -0.10721922623E+03  0.12250348088E+03 -0.31697846136E+03  0.35634030121E+03  0.00000000000E+00 0. -1.
<mgrwt>
<rscale>  0 0.10492102E+04</rscale>
<asrwt>0</asrwt>
<pdfrwt beam="1">  1        1 0.53554912E-01 0.10492102E+04</pdfrwt>
<pdfrwt beam="2">  1       -1 0.12162953E+00 0.10492102E+04</pdfrwt>
<totfact> 0.43200499E+01</totfact>
</mgrwt>
</event>
<event>
 6    1  0.1614874E-005  0.3085126E+04  0.7818608E-02  0.8219832E-01
         -1   -1    0    0    0  501 -0.00000000000E+00  0.00000000000E+00  0.12140930301E+04  0.12140930301E+04  0.00000000000E+00 0.  1.
          1   -1    0    0  501    0  0.00000000000E+00 -0.00000000000E+00 -0.19599001476E+04  0.19599001476E+04  0.00000000000E+00 0. -1.
         23    2    1    2    0    0 -0.44038329722E+03  0.11621426256E+04  0.56206846658E+03  0.13698170571E+04  0.12635219789E+03 0.  0.
         13    1    3    3    0    0 -0.29207372279E+03  0.88532811637E+03  0.46023620202E+03  0.10396779765E+04  0.00000000000E+00 0.  1.
        -13    1    3    3    0    0 -0.14830957443E+03  0.27681450927E+03  0.10183226456E+03  0.33013908057E+03  0.00000000000E+00 0. -1.
         22    1    1    2    0    0  0.44038329722E+03 -0.11621426256E+04 -0.13078755841E+04  0.18041761206E+04  0.00000000000E+00 0. -1.
<mgrwt>
<rscale>  0 0.30851263E+04</rscale>
<asrwt>0</asrwt>
<pdfrwt beam="1">  1        1 0.30152310E+00 0.30851263E+04</pdfrwt>
<pdfrwt beam="2">  1       -1 0.18678355E+00 0.30851263E+04</pdfrwt>
<totfact> 0.49906802E-01</totfact>
</mgrwt>
</event>
<event>
 6    1  0.1614874E-005  0.8955677E+03  0.7818608E-02  0.9431139E-01
          1   -1    0    0  501    0  0.00000000000E+00  0.00000000000E+00  0.22187271975E+04  0.22187271975E+04  0.00000000000E+00 0. -1.
         -1   -1    0    0    0  501 -0.00000000000E+00 -0.00000000000E+00 -0.90371793849E+02  0.90371793849E+02  0.00000000000E+00 0.  1.
         23    2    1    2    0    0 -0.36544141028E+03 -0.24439931898E+03  0.12213753368E+04  0.13011846631E+04  0.89695945461E+02 0.  0.
         13    1    3    3    0    0 -0.12633929004E+03 -0.13701506846E+03  0.48806219926E+03  0.52243607795E+03  0.00000000000E+00 0.  1.
        -13    1    3    3    0    0 -0.23910212024E+03 -0.10738425052E+03  0.73331313752E+03  0.77874858512E+03  0.00000000000E+00 0. -1.
         22    1    1    2    0    0  0.36544141028E+03  0.24439931898E+03  0.90698006687E+03  0.10079143283E+04  0.00000000000E+00 0. -1.
<mgrwt>
<rscale>  0 0.89556766E+03</rscale>
<asrwt>0</asrwt>
<pdfrwt beam="1">  1        1 0.34134260E+00 0.89556766E+03</pdfrwt>
<pdfrwt beam="2">  1       -1 0.13903355E-01 0.89556766E+03</pdfrwt>
<totfact> 0.80360672E+01</totfact>
</mgrwt>
</event>
<event>
 6    1  0.1614874E-005  0.2231222E+04  0.7818608E-02  0.8505544E-01
         -2   -1    0    0    0  501 -0.00000000000E+00  0.00000000000E+00  0.58024142274E+03  0.58024142274E+03  0.00000000000E+00 0. -1.
          2   -1    0    0  501    0  0.00000000000E+00 -0.00000000000E+00 -0.21449489205E+04  0.21449489205E+04  0.00000000000E+00 0.  1.
         23    2    1    2    0    0  0.96269574136E+03 -0.53616804633E+03 -0.58805588384E+03  0.12527408061E+04  0.96387449884E+02 0.  0.
         11    1    3    3    0    0  0.26670617036E+03 -0.19607866766E+03 -0.19302386950E+03  0.38319347518E+03  0.00000000000E+00 0.  1.
        -11    1    3    3    0    0  0.69598957099E+03 -0.34008937867E+03 -0.39503201433E+03  0.86954733095E+03  0.00000000000E+00 0. -1.
         22    1    1    2    0    0 -0.96269574136E+03  0.53616804633E+03 -0.97665161388E+03  0.14724495371E+04  0.00000000000E+00 0.  1.
<mgrwt>
<rscale>  0 0.22312223E+04</rscale>
<asrwt>0</asrwt>
<pdfrwt beam="1">  1        2 0.32999214E+00 0.22312223E+04</pdfrwt>
<pdfrwt beam="2">  1       -2 0.89267912E-01 0.22312223E+04</pdfrwt>
<totfact> 0.54435672E+00</totfact>
</mgrwt>
</event>
<event>
 6    1  0.1614874E-005  0.5395109E+04  0.7818608E-02  0.7770289E-01
         -2   -1    0    0    0  501 -0.00000000000E+00  0.00000000000E+00  0.16956824373E+04  0.16956824373E+04  0.00000000000E+00 0.  1.
          2   -1    0    0  501    0  0.00000000000E+00 -0.00000000000E+00 -0.42913701436E+04  0.42913701436E+04  0.00000000000E+00 0. -1.
         23    2    1    2    0    0  0.26475710082E+04  0.33527584959E+02 -0.18660959375E+04  0.32405893112E+04  0.91371186446E+02 0.  0.
         13    1    3    3    0    0  0.15955272679E+04 -0.15615459850E+02 -0.10912874801E+04  0.19330958252E+04  0.00000000000E+00 0.  1.
        -13    1    3    3    0    0  0.10520437404E+04  0.49143044809E+02 -0.77480845734E+03  0.13074934861E+04  0.00000000000E+00 0. -1.
         22    1    1    2    0    0 -0.26475710082E+04 -0.33527584959E+02 -0.72959176886E+03  0.27464632697E+04  0.00000000000E+00 0.  1.
<mgrwt>
<rscale>  0 0.53951093E+04</rscale>
<asrwt>0</asrwt>
<pdfrwt beam="1">  1        2 0.66021078E+00 0.53951093E+04</pdfrwt>
<pdfrwt beam="2">  1       -2 0.26087423E+00 0.53951093E+04</pdfrwt>
<totfact> 0.74501519E-03</totfact>
</mgrwt>
</event>
<event>
 6    1  0.1614874E-005  0.1610573E+04  0.7818608E-02  0.8814079E-01
         -2   -1    0    0    0  501 -0.00000000000E+00  0.00000000000E+00  0.81240044019E+03  0.81240044019E+03  0.00000000000E+00 0.  1.
          2   -1    0    0  501    0  0.00000000000E+00 -0.00000000000E+00 -0.79823470697E+03  0.79823470697E+03  0.00000000000E+00 0. -1.
         23    2    1    2    0    0 -0.27881300479E+03  0.73214739210E+03  0.18207393607E+03  0.80940505538E+03  0.90604249767E+02 0.  0.
         11    1    3    3    0    0 -0.90380513493E+02  0.14626401369E+03  0.20827027628E+02  0.17319227465E+03  0.00000000000E+00 0.  1.
        -11    1    3    3    0    0 -0.18843249129E+03  0.58588337841E+03  0.16124690844E+03  0.63621278072E+03  0.00000000000E+00 0. -1.
         22    1    1    2    0    0  0.27881300479E+03 -0.73214739210E+03 -0.16790820285E+03  0.80123009178E+03  0.00000000000E+00 0. -1.
<mgrwt>
<rscale>  0 0.16105729E+04</rscale>
<asrwt>0</asrwt>
<pdfrwt beam="1">  1        2 0.12280534E+00 0.16105729E+04</pdfrwt>
<pdfrwt beam="2">  1       -2 0.12498468E+00 0.16105729E+04</pdfrwt>
<totfact> 0.15874752E+01</totfact>
</mgrwt>
</event>
<event>
 6    1  0.1614874E-005  0.1956676E+04  0.7818608E-02  0.8627148E-01
         -2   -1    0    0    0  501 -0.00000000000E+00  0.00000000000E+00  0.33214306504E+03  0.33214306504E+03  0.00000000000E+00 0.  1.
          2   -1    0    0  501    0  0.00000000000E+00 -0.00000000000E+00 -0.28817268931E+04  0.28817268931E+04  0.00000000000E+00 0. -1.
         23    2    1    2    0    0  0.46402193475E+03  0.79193815605E+03 -0.73101929600E+03  0.11767986888E+04  0.89350679912E+02 0.  0.
         13    1    3    3    0    0  0.50730338710E+02  0.70855191990E+02 -0.39802757993E+02  0.95803366546E+02  0.00000000000E+00 0.  1.
        -13    1    3    3    0    0  0.41329159604E+03  0.72108296406E+03 -0.69121653800E+03  0.10809953223E+04  0.00000000000E+00 0. -1.
         22    1    1    2    0    0 -0.46402193475E+03 -0.79193815605E+03 -0.18185645321E+04  0.20370712693E+04  0.00000000000E+00 0. -1.
<mgrwt>
<rscale>  0 0.19566764E+04</rscale>
<asrwt>0</asrwt>
<pdfrwt beam="1">  1        2 0.44334260E+00 0.19566764E+04</pdfrwt>
<pdfrwt beam="2">  1       -2 0.51098933E-01 0.19566764E+04</pdfrwt>
<totfact> 0.69718120E+00</totfact>
</mgrwt>
</event>
<event>
 6    1  0.1614874E-005  0.3813838E+04  0.7818608E-02  0.8043192E-01
          2   -1    0    0  501    0  0.00000000000E+00  0.00000000000E+00  0.25844202692E+04  0.25844202692E+04  0.00000000000E+00 0. -1.
         -2   -1    0    0    0  501 -0.00000000000E+00 -0.00000000000E+00 -0.14070235361E+04  0.14070235361E+04  0.00000000000E+00 0.  1.
         23    2    1    2    0    0  0.13022885514E+04  0.58382642039E+03  0.19109561869E+04  0.23867886297E+04  0.90540899210E+02 0.  0.
         13    1    3    3    0    0  0.93746384132E+03  0.39096161712E+03  0.13059891992E+04  0.16544779322E+04  0.00000000000E+00 0.  1.
        -13    1    3    3    0    0  0.36482471005E+03  0.19286480328E+03  0.60496698771E+03  0.73231069746E+03  0.00000000000E+00 0. -1.
         22    1    1    2    0    0 -0.13022885514E+04 -0.58382642039E+03 -0.73355945377E+03  0.16046551755E+04  0.00000000000E+00 0.  1.
<mgrwt>
<rscale>  0 0.38138380E+04</rscale>
<asrwt>0</asrwt>
<pdfrwt beam="1">  1        2 0.39760312E+00 0.38138380E+04</pdfrwt>
<pdfrwt beam="2">  1       -2 0.21646516E+00 0.38138380E+04</pdfrwt>
<totfact> 0.25906459E-01</totfact>
</mgrwt>
</event>
<event>
 6    1  0.1614874E-005  0.2836636E+04  0.7818608E-02  0.8291984E-01
         -2   -1    0    0    0  501 -0.00000000000E+00  0.00000000000E+00  0.76067388457E+03  0.76067388457E+03  0.00000000000E+00 0.  1.
          2   -1    0    0  501    0  0.00000000000E+00 -0.00000000000E+00 -0.26445322413E+04  0.26445322413E+04  0.00000000000E+00 0. -1.
         23    2    1    2    0    0  0.54015571749E+03  0.55307343323E+03 -0.23682689202E+04  0.24928947670E+04  0.90378201026E+02 0.  0.
         11    1    3    3    0    0  0.41726591404E+03  0.42056236354E+03 -0.19282275102E+04  0.20171873675E+04  0.00000000000E+00 0. -1.
        -11    1    3    3    0    0  0.12288980346E+03  0.13251106969E+03 -0.44004140998E+03  0.47570739944E+03  0.00000000000E+00 0.  1.
         22    1    1    2    0    0 -0.54015571749E+03 -0.55307343323E+03  0.48441056342E+03  0.91231135893E+03  0.00000000000E+00 0.  1.
<mgrwt>
<rscale>  0 0.28366365E+04</rscale>
<asrwt>0</asrwt>
<pdfrwt beam="1">  1        2 0.40685111E+00 0.28366365E+04</pdfrwt>
<pdfrwt beam="2">  1       -2 0.11702675E+00 0.28366365E+04</pdfrwt>
<totfact> 0.14036618E+00</totfact>
</mgrwt>
</event>
<event>
 6    1  0.1614874E-005  0.2510623E+04  0.7818608E-02  0.8399211E-01
         -2   -1    0    0    0  501 -0.00000000000E+00  0.00000000000E+00  0.11994624055E+04  0.11994624055E+04  0.00000000000E+00 0.  1.
          2   -1    0    0  501    0  0.00000000000E+00 -0.00000000000E+00 -0.13137613274E+04  0.13137613274E+04  0.00000000000E+00 0. -1.
         23    2    1    2    0    0  0.52119506726E+03 -0.41301897030E+03 -0.11210723667E+04  0.13066493519E+04  0.91106034137E+02 0.  0.
         11    1    3    3    0    0  0.48870825532E+03 -0.35639281759E+03 -0.98843428810E+03  0.11588157494E+04  0.00000000000E+00 0. -1.
        -11    1    3    3    0    0  0.32486811940E+02 -0.56626152707E+02 -0.13263807858E+03  0.14783360244E+03  0.00000000000E+00 0.  1.
         22    1    1    2    0    0 -0.52119506726E+03  0.41301897030E+03  0.10067734448E+04  0.12065743811E+04  0.00000000000E+00 0.  1.
<mgrwt>
<rscale>  0 0.25106233E+04</rscale>
<asrwt>0</asrwt>
<pdfrwt beam="1">  1        2 0.20211713E+00 0.25106233E+04</pdfrwt>
<pdfrwt beam="2">  1       -2 0.18453268E+00 0.25106233E+04</pdfrwt>
<totfact> 0.24410483E+00</totfact>
</mgrwt>
</event>
<event>
 6    1  0.1614874E-005  0.3527121E+04  0.7818608E-02  0.8107392E-01
          1   -1    0    0  501    0  0.00000000000E+00  0.00000000000E+00  0.11804675380E+04  0.11804675380E+04  0.00000000000E+00 0. -1.
         -1   -1    0    0    0  501 -0.00000000000E+00 -0.00000000000E+00 -0.26346732495E+04  0.26346732495E+04  0.00000000000E+00 0.  1.
         23    2    1    2    0    0  0.97626405090E+03  0.12038279727E+04  0.17979143772E+03  0.15629773901E+04  0.90994923560E+02 0.  0.
         13    1    3    3    0    0  0.45277760320E+03  0.53879079556E+03  0.37758871284E+02  0.70478990607E+03  0.00000000000E+00 0. -1.
        -13    1    3    3    0    0  0.52348644770E+03  0.66503717711E+03  0.14203256644E+03  0.85818748406E+03  0.00000000000E+00 0.  1.
         22    1    1    2    0    0 -0.97626405090E+03 -0.12038279727E+04 -0.16339971493E+04  0.22521633974E+04  0.00000000000E+00 0.  1.
<mgrwt>
<rscale>  0 0.35271213E+04</rscale>
<asrwt>0</asrwt>
<pdfrwt beam="1">  1        1 0.18161039E+00 0.35271213E+04</pdfrwt>
<pdfrwt beam="2">  1       -1 0.40533435E+00 0.35271213E+04</pdfrwt>
<totfact> 0.59072289E-02</totfact>
</mgrwt>
</event>
<event>
 6    1  0.1614874E-005  0.3021813E+04  0.7818608E-02  0.8237529E-01
         -1   -1    0    0    0  501 -0.00000000000E+00  0.00000000000E+00  0.16146900999E+04  0.16146900999E+04  0.00000000000E+00 0. -1.
          1   -1    0    0  501    0  0.00000000000E+00 -0.00000000000E+00 -0.14137933875E+04  0.14137933875E+04  0.00000000000E+00 0.  1.
         23    2    1    2    0    0  0.14520853594E+03  0.13185527459E+04 -0.62140150367E+03  0.14677653134E+04  0.92348923541E+02 0.  0.
         13    1    3    3    0    0  0.14447544594E+02  0.53376600261E+03 -0.26099948435E+03  0.59433627511E+03  0.00000000000E+00 0.  1.
        -13    1    3    3    0    0  0.13076099134E+03  0.78478674331E+03 -0.36040201932E+03  0.87342903825E+03  0.00000000000E+00 0. -1.
         22    1    1    2    0    0 -0.14520853594E+03 -0.13185527459E+04  0.82229821609E+03  0.15607181741E+04  0.00000000000E+00 0. -1.
<mgrwt>
<rscale>  0 0.30218128E+04</rscale>
<asrwt>0</asrwt>
<pdfrwt beam="1">  1        1 0.21750667E+00 0.30218128E+04</pdfrwt>
<pdfrwt beam="2">  1       -1 0.24841386E+00 0.30218128E+04</pdfrwt>
<totfact> 0.45572718E-01</totfact>
</mgrwt>
</event>
<event>
 6    1  0.1614874E-005  0.4132050E+04  0.7818608E-02  0.7978425E-01
          2   -1    0    0  501    0  0.00000000000E+00  0.00000000000E+00  0.30583445848E+04  0.30583445848E+04  0.00000000000E+00 0. -1.
         -2   -1    0    0    0  501 -0.00000000000E+00 -0.00000000000E+00 -0.13956763663E+04  0.13956763663E+04  0.00000000000E+00 0.  1.
         23    2    1    2    0    0  0.63338985458E+03  0.11117764208E+04  0.25788964312E+04  0.28802663147E+04  0.89429988357E+02 0.  0.
         13    1    3    3    0    0  0.17180536300E+03  0.36755686309E+03  0.75956583426E+03  0.86113610244E+03  0.00000000000E+00 0. -1.
        -13    1    3    3    0    0  0.46158449158E+03  0.74421955774E+03  0.18193305969E+04  0.20191302122E+04  0.00000000000E+00 0.  1.
         22    1    1    2    0    0 -0.63338985458E+03 -0.11117764208E+04 -0.91622821270E+03  0.15737546364E+04  0.00000000000E+00 0.  1.
<mgrwt>
<rscale>  0 0.41320500E+04</rscale>
<asrwt>0</asrwt>
<pdfrwt beam="1">  1        2 0.47051455E+00 0.41320500E+04</pdfrwt>
<pdfrwt beam="2">  1       -2 0.21471944E+00 0.41320500E+04</pdfrwt>
<totfact> 0.13324626E-01</totfact>
</mgrwt>
</event>
<event>
 6    1  0.1614874E-005  0.2557294E+04  0.7818608E-02  0.8382854E-01
          1   -1    0    0  501    0  0.00000000000E+00  0.00000000000E+00  0.21173036374E+04  0.21173036374E+04  0.00000000000E+00 0. -1.
         -1   -1    0    0    0  501 -0.00000000000E+00 -0.00000000000E+00 -0.77217947378E+03  0.77217947378E+03  0.00000000000E+00 0.  1.
         23    2    1    2    0    0  0.68835230201E+03  0.19232871245E+03  0.18691753484E+04  0.20032275783E+04  0.91022096990E+02 0.  0.
         13    1    3    3    0    0  0.34346932071E+03  0.69626558904E+02  0.10194771382E+04  0.10780318489E+04  0.00000000000E+00 0.  1.
        -13    1    3    3    0    0  0.34488298130E+03  0.12270215355E+03  0.84969821025E+03  0.92519572944E+03  0.00000000000E+00 0. -1.
         22    1    1    2    0    0 -0.68835230201E+03 -0.19232871245E+03 -0.52405118477E+03  0.88625553288E+03  0.00000000000E+00 0.  1.
<mgrwt>
<rscale>  0 0.25572942E+04</rscale>
<asrwt>0</asrwt>
<pdfrwt beam="1">  1        1 0.32573902E+00 0.25572942E+04</pdfrwt>
<pdfrwt beam="2">  1       -1 0.11879684E+00 0.25572942E+04</pdfrwt>
<totfact> 0.13910174E+00</totfact>
</mgrwt>
</event>
<event>
 6    1  0.1614874E-005  0.6280641E+04  0.7818608E-02  0.7656547E-01
         -2   -1    0    0    0  501 -0.00000000000E+00  0.00000000000E+00  0.31469711848E+04  0.31469711848E+04  0.00000000000E+00 0.  1.
          2   -1    0    0  501    0  0.00000000000E+00 -0.00000000000E+00 -0.31336840523E+04  0.31336840523E+04  0.00000000000E+00 0. -1.
         23    2    1    2    0    0 -0.22125200364E+04 -0.94712863532E+01 -0.22209633591E+04  0.31362618335E+04  0.90141161560E+02 0.  0.
         11    1    3    3    0    0 -0.11924742560E+04 -0.45444369543E+01 -0.11332435652E+04  0.16450703575E+04  0.00000000000E+00 0. -1.
        -11    1    3    3    0    0 -0.10200457804E+04 -0.49268493989E+01 -0.10877197940E+04  0.14911914760E+04  0.00000000000E+00 0.  1.
         22    1    1    2    0    0  0.22125200364E+04  0.94712863532E+01  0.22342504917E+04  0.31443934036E+04  0.00000000000E+00 0.  1.
<mgrwt>
<rscale>  0 0.62806412E+04</rscale>
<asrwt>0</asrwt>
<pdfrwt beam="1">  1        2 0.48210524E+00 0.62806412E+04</pdfrwt>
<pdfrwt beam="2">  1       -2 0.48414941E+00 0.62806412E+04</pdfrwt>
<totfact> 0.19767542E-03</totfact>
</mgrwt>
</event>
<event>
 6    1  0.1614874E-005  0.4407779E+04  0.7818608E-02  0.7926984E-01
          1   -1    0    0  501    0  0.00000000000E+00  0.00000000000E+00  0.19965472056E+04  0.19965472056E+04  0.00000000000E+00 0. -1.
         -1   -1    0    0    0  501 -0.00000000000E+00 -0.00000000000E+00 -0.24327642589E+04  0.24327642589E+04  0.00000000000E+00 0.  1.
         23    2    1    2    0    0  0.19756362692E+04 -0.96258243643E+03 -0.63275251783E+02  0.22002333584E+04  0.85553835752E+02 0.  0.
         11    1    3    3    0    0  0.12426657447E+04 -0.59649551619E+03 -0.80270442300E+02  0.13807492161E+04  0.00000000000E+00 0. -1.
        -11    1    3    3    0    0  0.73297052454E+03 -0.36608692023E+03  0.16995190518E+02  0.81948414232E+03  0.00000000000E+00 0.  1.
         22    1    1    2    0    0 -0.19756362692E+04  0.96258243643E+03 -0.37294180153E+03  0.22290781060E+04  0.00000000000E+00 0.  1.
<mgrwt>
<rscale>  0 0.44077789E+04</rscale>
<asrwt>0</asrwt>
<pdfrwt beam="1">  1        1 0.30716111E+00 0.44077789E+04</pdfrwt>
<pdfrwt beam="2">  1       -1 0.37427142E+00 0.44077789E+04</pdfrwt>
<totfact> 0.24253344E-02</totfact>
</mgrwt>
</event>
<event>
 6    1  0.1614874E-005  0.1742688E+04  0.7818608E-02  0.8737385E-01
         -2   -1    0    0    0  501 -0.00000000000E+00  0.00000000000E+00  0.13696670654E+04  0.13696670654E+04  0.00000000000E+00 0. -1.
          2   -1    0    0  501    0  0.00000000000E+00 -0.00000000000E+00 -0.55432475119E+03  0.55432475119E+03  0.00000000000E+00 0.  1.
         23    2    1    2    0    0 -0.37991458410E+03 -0.41255373631E+03  0.11415513103E+04  0.12751867721E+04  0.91794516444E+02 0.  0.
         13    1    3    3    0    0 -0.10235926162E+03 -0.56879004104E+02  0.24146060053E+03  0.26835771119E+03  0.00000000000E+00 0. -1.
        -13    1    3    3    0    0 -0.27755532248E+03 -0.35567473221E+03  0.90009070972E+03  0.10068290609E+04  0.00000000000E+00 0.  1.
         22    1    1    2    0    0  0.37991458410E+03  0.41255373631E+03 -0.32620899610E+03  0.64880504444E+03  0.00000000000E+00 0.  1.
<mgrwt>
<rscale>  0 0.17426880E+04</rscale>
<asrwt>0</asrwt>
<pdfrwt beam="1">  1        2 0.85280731E-01 0.17426880E+04</pdfrwt>
<pdfrwt beam="2">  1       -2 0.21071801E+00 0.17426880E+04</pdfrwt>
<totfact> 0.58555754E+00</totfact>
</mgrwt>
</event>
<event>
 6    1  0.1614874E-005  0.1253076E+04  0.7818608E-02  0.9067627E-01
          2   -1    0    0  501    0  0.00000000000E+00  0.00000000000E+00  0.29564958148E+04  0.29564958148E+04  0.00000000000E+00 0. -1.
         -2   -1    0    0    0  501 -0.00000000000E+00 -0.00000000000E+00 -0.13277546000E+03  0.13277546000E+03  0.00000000000E+00 0.  1.
         23    2    1    2    0    0 -0.57069543592E+03 -0.21793944659E+03  0.11143677539E+04  0.12740365250E+04  0.90347622793E+02 0.  0.
         11    1    3    3    0    0 -0.23869809674E+03 -0.13923231500E+03  0.49731817424E+03  0.56893566012E+03  0.00000000000E+00 0. -1.
        -11    1    3    3    0    0 -0.33199733918E+03 -0.78707131594E+02  0.61704957970E+03  0.70510086484E+03  0.00000000000E+00 0.  1.
         22    1    1    2    0    0  0.57069543592E+03  0.21793944659E+03  0.17093526008E+04  0.18152347498E+04  0.00000000000E+00 0. -1.
<mgrwt>
<rscale>  0 0.12530764E+04</rscale>
<asrwt>0</asrwt>
<pdfrwt beam="1">  1        2 0.45484546E+00 0.12530764E+04</pdfrwt>
<pdfrwt beam="2">  1       -2 0.20426996E-01 0.12530764E+04</pdfrwt>
<totfact> 0.37988494E+01</totfact>
</mgrwt>
</event>
<event>
 6    1  0.2312515E-005  0.4380709E+04  0.7818608E-02  0.7931861E-01
          2   -1    0    0  501    0  0.00000000000E+00  0.00000000000E+00  0.29781290127E+04  0.29781290127E+04  0.00000000000E+00 0.  1.
         -2   -1    0    0    0  501 -0.00000000000E+00 -0.00000000000E+00 -0.16109618461E+04  0.16109618461E+04  0.00000000000E+00 0. -1.
         23    2    1    2    0    0  0.16661268323E+04  0.13929289875E+04  0.39281278137E+03  0.22088395582E+04  0.91872341154E+02 0.  0.
         13    1    3    3    0    0  0.79517790172E+03  0.61091991534E+03  0.16119965212E+03  0.10156359418E+04  0.00000000000E+00 0. -1.
        -13    1    3    3    0    0  0.87094893060E+03  0.78200907217E+03  0.23161312926E+03  0.11932036165E+04  0.00000000000E+00 0.  1.
         22    1    1    2    0    0 -0.16661268323E+04 -0.13929289875E+04  0.97435438528E+03  0.23802513005E+04  0.00000000000E+00 0.  1.
<mgrwt>
<rscale>  0 0.43807087E+04</rscale>
<asrwt>0</asrwt>
<pdfrwt beam="1">  1        2 0.45817369E+00 0.43807087E+04</pdfrwt>
<pdfrwt beam="2">  1       -2 0.24784028E+00 0.43807087E+04</pdfrwt>
<totfact> 0.91043204E-02</totfact>
</mgrwt>
</event>
<event>
 6    1  0.1614874E-005  0.2468218E+04  0.7818608E-02  0.8414396E-01
          2   -1    0    0  501    0  0.00000000000E+00  0.00000000000E+00  0.76244975630E+03  0.76244975630E+03  0.00000000000E+00 0. -1.
         -2   -1    0    0    0  501 -0.00000000000E+00 -0.00000000000E+00 -0.19975412818E+04  0.19975412818E+04  0.00000000000E+00 0.  1.
         23    2    1    2    0    0  0.11771155908E+04 -0.15718196222E+03 -0.24978667368E+03  0.12168990336E+04  0.90236313879E+02 0.  0.
         11    1    3    3    0    0  0.10602961728E+04 -0.13591445989E+03 -0.19708000218E+03  0.10869872317E+04  0.00000000000E+00 0. -1.
        -11    1    3    3    0    0  0.11681941795E+03 -0.21267502326E+02 -0.52706671500E+02  0.12991180195E+03  0.00000000000E+00 0.  1.
         22    1    1    2    0    0 -0.11771155908E+04  0.15718196222E+03 -0.98530485184E+03  0.15430920045E+04  0.00000000000E+00 0. -1.
<mgrwt>
<rscale>  0 0.24682179E+04</rscale>
<asrwt>0</asrwt>
<pdfrwt beam="1">  1        2 0.11729996E+00 0.24682179E+04</pdfrwt>
<pdfrwt beam="2">  1       -2 0.30731405E+00 0.24682179E+04</pdfrwt>
<totfact> 0.94104623E-01</totfact>
</mgrwt>
</event>
<event>
 6    1  0.1614874E-005  0.4155954E+04  0.7818608E-02  0.7973804E-01
         -2   -1    0    0    0  501 -0.00000000000E+00  0.00000000000E+00  0.22596379840E+04  0.22596379840E+04  0.00000000000E+00 0.  1.
          2   -1    0    0  501    0  0.00000000000E+00 -0.00000000000E+00 -0.19109206482E+04  0.19109206482E+04  0.00000000000E+00 0. -1.
         23    2    1    2    0    0  0.91283357189E+03 -0.32576697805E+03  0.20179120935E+04  0.22403771917E+04  0.89058911910E+02 0.  0.
         11    1    3    3    0    0  0.40199899165E+03 -0.16688102357E+03  0.99433790814E+03  0.10854309471E+04  0.00000000000E+00 0.  1.
        -11    1    3    3    0    0  0.51083458024E+03 -0.15888595448E+03  0.10235741854E+04  0.11549462446E+04  0.00000000000E+00 0. -1.
         22    1    1    2    0    0 -0.91283357189E+03  0.32576697805E+03 -0.16691947578E+04  0.19301814405E+04  0.00000000000E+00 0. -1.
<mgrwt>
<rscale>  0 0.41559542E+04</rscale>
<asrwt>0</asrwt>
<pdfrwt beam="1">  1        2 0.29398779E+00 0.41559542E+04</pdfrwt>
<pdfrwt beam="2">  1       -2 0.34763661E+00 0.41559542E+04</pdfrwt>
<totfact> 0.93909609E-02</totfact>
</mgrwt>
</event>
<event>
 6    1  0.1614874E-005  0.2951213E+04  0.7818608E-02  0.8257801E-01
          1   -1    0    0  501    0  0.00000000000E+00  0.00000000000E+00  0.16332516143E+04  0.16332516143E+04  0.00000000000E+00 0.  1.
         -1   -1    0    0    0  501 -0.00000000000E+00 -0.00000000000E+00 -0.13331778227E+04  0.13331778227E+04  0.00000000000E+00 0. -1.
         23    2    1    2    0    0 -0.87620149979E+03 -0.31038787848E+03  0.13003241673E+04  0.16009366623E+04  0.89919704987E+02 0.  0.
         13    1    3    3    0    0 -0.68229727578E+03 -0.25925420373E+03  0.10741003207E+04  0.12986276655E+04  0.00000000000E+00 0. -1.
        -13    1    3    3    0    0 -0.19390422401E+03 -0.51133674747E+02  0.22622384660E+03  0.30230899681E+03  0.00000000000E+00 0.  1.
         22    1    1    2    0    0  0.87620149979E+03  0.31038787848E+03 -0.10002503757E+04  0.13654927746E+04  0.00000000000E+00 0. -1.
<mgrwt>
<rscale>  0 0.29512132E+04</rscale>
<asrwt>0</asrwt>
<pdfrwt beam="1">  1        1 0.25126948E+00 0.29512132E+04</pdfrwt>
<pdfrwt beam="2">  1       -1 0.20510428E+00 0.29512132E+04</pdfrwt>
<totfact> 0.62817167E-01</totfact>
</mgrwt>
</event>
<event>
 6    1  0.1614874E-005  0.3414589E+04  0.7818608E-02  0.8134335E-01
         -2   -1    0    0    0  501 -0.00000000000E+00  0.00000000000E+00  0.13919953113E+04  0.13919953113E+04  0.00000000000E+00 0.  1.
          2   -1    0    0  501    0  0.00000000000E+00 -0.00000000000E+00 -0.20940111635E+04  0.20940111635E+04  0.00000000000E+00 0. -1.
         23    2    1    2    0    0  0.13552344058E+04 -0.58041741618E+03 -0.12277562866E+04  0.19207756049E+04  0.91917099880E+02 0.  0.
         11    1    3    3    0    0  0.12422433939E+04 -0.52849387759E+03 -0.10891736263E+04  0.17345816834E+04  0.00000000000E+00 0. -1.
        -11    1    3    3    0    0  0.11299101192E+03 -0.51923538589E+02 -0.13858266037E+03  0.18619392146E+03  0.00000000000E+00 0.  1.
         22    1    1    2    0    0 -0.13552344058E+04  0.58041741618E+03  0.52574043445E+03  0.15652308699E+04  0.00000000000E+00 0.  1.
<mgrwt>
<rscale>  0 0.34145885E+04</rscale>
<asrwt>0</asrwt>
<pdfrwt beam="1">  1        2 0.32215556E+00 0.34145885E+04</pdfrwt>
<pdfrwt beam="2">  1       -2 0.21415313E+00 0.34145885E+04</pdfrwt>
<totfact> 0.52764978E-01</totfact>
</mgrwt>
</event>
<event>
 6    1  0.1614874E-005  0.2574003E+04  0.7818608E-02  0.8377086E-01
          2   -1    0    0  501    0  0.00000000000E+00  0.00000000000E+00  0.14196694570E+04  0.14196694570E+04  0.00000000000E+00 0.  1.
         -2   -1    0    0    0  501 -0.00000000000E+00 -0.00000000000E+00 -0.11667309155E+04  0.11667309155E+04  0.00000000000E+00 0. -1.
         23    2    1    2    0    0  0.71629960834E+03  0.67369032941E+03  0.95837795726E+03  0.13761985058E+04  0.92142441606E+02 0.  0.
         13    1    3    3    0    0  0.38620429699E+02  0.61685895298E+02  0.93610735400E+02  0.11857342472E+03  0.00000000000E+00 0. -1.
        -13    1    3    3    0    0  0.67767917864E+03  0.61200443411E+03  0.86476722186E+03  0.12576250811E+04  0.00000000000E+00 0.  1.
         22    1    1    2    0    0 -0.71629960834E+03 -0.67369032941E+03 -0.70543941581E+03  0.12102018667E+04  0.00000000000E+00 0. -1.
<mgrwt>
<rscale>  0 0.25740025E+04</rscale>
<asrwt>0</asrwt>
<pdfrwt beam="1">  1        2 0.21841068E+00 0.25740025E+04</pdfrwt>
<pdfrwt beam="2">  1       -2 0.17949706E+00 0.25740025E+04</pdfrwt>
<totfact> 0.22850148E+00</totfact>
</mgrwt>
</event>
<event>
 6    1  0.1614874E-005  0.2246418E+04  0.7818608E-02  0.8499352E-01
          1   -1    0    0  501    0  0.00000000000E+00  0.00000000000E+00  0.17899405418E+04  0.17899405418E+04  0.00000000000E+00 0. -1.
         -1   -1    0    0    0  501 -0.00000000000E+00 -0.00000000000E+00 -0.70482716523E+03  0.70482716523E+03  0.00000000000E+00 0.  1.
         23    2    1    2    0    0 -0.52384431604E+02 -0.92427293805E+03  0.12461836535E+04  0.15551038167E+04  0.91376090104E+02 0.  0.
         13    1    3    3    0    0 -0.35248766567E+02 -0.65351241036E+03  0.94802926213E+03  0.11519897690E+04  0.00000000000E+00 0. -1.
        -13    1    3    3    0    0 -0.17135665037E+02 -0.27076052769E+03  0.29815439135E+03  0.40311404770E+03  0.00000000000E+00 0.  1.
         22    1    1    2    0    0  0.52384431604E+02  0.92427293805E+03 -0.16107027690E+03  0.93966389033E+03  0.00000000000E+00 0.  1.
<mgrwt>
<rscale>  0 0.22464182E+04</rscale>
<asrwt>0</asrwt>
<pdfrwt beam="1">  1        1 0.27537547E+00 0.22464182E+04</pdfrwt>
<pdfrwt beam="2">  1       -1 0.10843495E+00 0.22464182E+04</pdfrwt>
<totfact> 0.29665953E+00</totfact>
</mgrwt>
</event>
<event>
 6    1  0.1614874E-005  0.2414231E+04  0.7818608E-02  0.8434195E-01
         -2   -1    0    0    0  501 -0.00000000000E+00  0.00000000000E+00  0.18159523925E+04  0.18159523925E+04  0.00000000000E+00 0.  1.
          2   -1    0    0  501    0  0.00000000000E+00 -0.00000000000E+00 -0.80240404568E+03  0.80240404568E+03  0.00000000000E+00 0. -1.
         23    2    1    2    0    0  0.74541694193E+03 -0.82887766443E+03  0.10048543888E+04  0.15035648950E+04  0.91051912064E+02 0.  0.
         11    1    3    3    0    0  0.23275357149E+03 -0.27108652359E+03  0.26711257388E+03  0.44610677582E+03  0.00000000000E+00 0.  1.
        -11    1    3    3    0    0  0.51266337044E+03 -0.55779114085E+03  0.73774181496E+03  0.10574581191E+04  0.00000000000E+00 0. -1.
         22    1    1    2    0    0 -0.74541694193E+03  0.82887766443E+03  0.86939579767E+01  0.11147915432E+04  0.00000000000E+00 0. -1.
<mgrwt>
<rscale>  0 0.24142308E+04</rscale>
<asrwt>0</asrwt>
<pdfrwt beam="1">  1        2 0.12344678E+00 0.24142308E+04</pdfrwt>
<pdfrwt beam="2">  1       -2 0.27937729E+00 0.24142308E+04</pdfrwt>
<totfact> 0.13091849E+00</totfact>
</mgrwt>
</event>
<event>
 6    1  0.1614874E-005  0.1155449E+04  0.7818608E-02  0.9152771E-01
         -2   -1    0    0    0  501 -0.00000000000E+00  0.00000000000E+00  0.81721545702E+03  0.81721545702E+03  0.00000000000E+00 0.  1.
          2   -1    0    0  501    0  0.00000000000E+00 -0.00000000000E+00 -0.40841833994E+03  0.40841833994E+03  0.00000000000E+00 0. -1.
         23    2    1    2    0    0  0.50659686467E+03 -0.14455642601E+03 -0.36624691506E+02  0.53575153805E+03  0.90285097892E+02 0.  0.
         13    1    3    3    0    0  0.27316646902E+03 -0.12173279903E+03 -0.51671431653E+01  0.29910782926E+03  0.00000000000E+00 0.  1.
        -13    1    3    3    0    0  0.23343039566E+03 -0.22823626976E+02 -0.31457548341E+02  0.23664370879E+03  0.00000000000E+00 0. -1.
         22    1    1    2    0    0 -0.50659686467E+03  0.14455642601E+03  0.44542180858E+03  0.68988225891E+03  0.00000000000E+00 0.  1.
<mgrwt>
<rscale>  0 0.11554493E+04</rscale>
<asrwt>0</asrwt>
<pdfrwt beam="1">  1        2 0.62833591E-01 0.11554493E+04</pdfrwt>
<pdfrwt beam="2">  1       -2 0.12572546E+00 0.11554493E+04</pdfrwt>
<totfact> 0.36298637E+01</totfact>
</mgrwt>
</event>
<event>
 6    1  0.1614874E-005  0.2013192E+04  0.7818608E-02  0.8600478E-01
          2   -1    0    0  501    0  0.00000000000E+00  0.00000000000E+00  0.29290844122E+04  0.29290844122E+04  0.00000000000E+00 0. -1.
         -2   -1    0    0    0  501 -0.00000000000E+00 -0.00000000000E+00 -0.34592239090E+03  0.34592239090E+03  0.00000000000E+00 0.  1.
         23    2    1    2    0    0 -0.93516571969E+03  0.10820360387E+03  0.72407445383E+03  0.11911523152E+04  0.91198027356E+02 0.  0.
         13    1    3    3    0    0 -0.51970537767E+03  0.90547058193E+02  0.36221051530E+03  0.63991320249E+03  0.00000000000E+00 0.  1.
        -13    1    3    3    0    0 -0.41546034202E+03  0.17656545674E+02  0.36186393853E+03  0.55123911273E+03  0.00000000000E+00 0. -1.
         22    1    1    2    0    0  0.93516571969E+03 -0.10820360387E+03  0.18590875674E+04  0.20838544878E+04  0.00000000000E+00 0.  1.
<mgrwt>
<rscale>  0 0.20131924E+04</rscale>
<asrwt>0</asrwt>
<pdfrwt beam="1">  1        2 0.45062836E+00 0.20131924E+04</pdfrwt>
<pdfrwt beam="2">  1       -2 0.53218831E-01 0.20131924E+04</pdfrwt>
<totfact> 0.59669936E+00</totfact>
</mgrwt>
</event>
<event>
 6    1  0.1614874E-005  0.4750138E+04  0.7818608E-02  0.7868251E-01
          2   -1    0    0  501    0  0.00000000000E+00  0.00000000000E+00  0.25633093150E+04  0.25633093150E+04  0.00000000000E+00 0. -1.
         -2   -1    0    0    0  501 -0.00000000000E+00 -0.00000000000E+00 -0.22006521882E+04  0.22006521882E+04  0.00000000000E+00 0.  1.
         23    2    1    2    0    0 -0.22567509746E+04 -0.68881564552E+03  0.44729168434E+03  0.24029119563E+04  0.80771676654E+02 0.  0.
         13    1    3    3    0    0 -0.81836173308E+03 -0.20946184304E+03  0.15657232093E+03  0.85913042172E+03  0.00000000000E+00 0. -1.
        -13    1    3    3    0    0 -0.14383892415E+04 -0.47935380248E+03  0.29071936341E+03  0.15437815345E+04  0.00000000000E+00 0.  1.
         22    1    1    2    0    0  0.22567509746E+04  0.68881564552E+03 -0.84634557510E+02  0.23610495470E+04  0.00000000000E+00 0.  1.
<mgrwt>
<rscale>  0 0.47501378E+04</rscale>
<asrwt>0</asrwt>
<pdfrwt beam="1">  1        2 0.39435528E+00 0.47501378E+04</pdfrwt>
<pdfrwt beam="2">  1       -2 0.33856187E+00 0.47501378E+04</pdfrwt>
<totfact> 0.43592671E-02</totfact>
</mgrwt>
</event>
<event>
 6    1  0.1614874E-005  0.1171010E+04  0.7818608E-02  0.9138617E-01
         -1   -1    0    0    0  501 -0.00000000000E+00  0.00000000000E+00  0.56672964929E+03  0.56672964929E+03  0.00000000000E+00 0.  1.
          1   -1    0    0  501    0  0.00000000000E+00 -0.00000000000E+00 -0.60490265461E+03  0.60490265461E+03  0.00000000000E+00 0. -1.
         23    2    1    2    0    0 -0.29357808903E+03 -0.33039176551E+03  0.35902854297E+03  0.57739675881E+03  0.95596596975E+02 0.  0.
         13    1    3    3    0    0 -0.56873476579E+02 -0.13060918161E+03  0.11358111525E+03  0.18219226218E+03  0.00000000000E+00 0. -1.
        -13    1    3    3    0    0 -0.23670461245E+03 -0.19978258390E+03  0.24544742772E+03  0.39520449663E+03  0.00000000000E+00 0.  1.
         22    1    1    2    0    0  0.29357808903E+03  0.33039176551E+03 -0.39720154829E+03  0.59423554508E+03  0.00000000000E+00 0. -1.
<mgrwt>
<rscale>  0 0.11710103E+04</rscale>
<asrwt>0</asrwt>
<pdfrwt beam="1">  1        1 0.93061946E-01 0.11710103E+04</pdfrwt>
<pdfrwt beam="2">  1       -1 0.87189177E-01 0.11710103E+04</pdfrwt>
<totfact> 0.43502333E+01</totfact>
</mgrwt>
</event>
<event>
 6    1  0.1614874E-005  0.3866551E+04  0.7818608E-02  0.8032022E-01
         -2   -1    0    0    0  501 -0.00000000000E+00  0.00000000000E+00  0.11235898601E+04  0.11235898601E+04  0.00000000000E+00 0.  1.
          2   -1    0    0  501    0  0.00000000000E+00 -0.00000000000E+00 -0.33264404031E+04  0.33264404031E+04  0.00000000000E+00 0. -1.
         23    2    1    2    0    0  0.15880374026E+04 -0.99458099359E+03 -0.55914107932E+03  0.19574743570E+04  0.89515177498E+02 0.  0.
         11    1    3    3    0    0  0.11472328823E+04 -0.76395734607E+03 -0.41998414099E+03  0.14408888894E+04  0.00000000000E+00 0. -1.
        -11    1    3    3    0    0  0.44080452029E+03 -0.23062364752E+03 -0.13915693834E+03  0.51658546765E+03  0.00000000000E+00 0.  1.
         22    1    1    2    0    0 -0.15880374026E+04  0.99458099359E+03 -0.16437094636E+04  0.24925559062E+04  0.00000000000E+00 0. -1.
<mgrwt>
<rscale>  0 0.38665513E+04</rscale>
<asrwt>0</asrwt>
<pdfrwt beam="1">  1        2 0.51176006E+00 0.38665513E+04</pdfrwt>
<pdfrwt beam="2">  1       -2 0.17285998E+00 0.38665513E+04</pdfrwt>
<totfact> 0.17323549E-01</totfact>
</mgrwt>
</event>
<event>
 6    1  0.1614874E-005  0.4377567E+04  0.7818608E-02  0.7932429E-01
         -1   -1    0    0    0  501 -0.00000000000E+00  0.00000000000E+00  0.24444558846E+04  0.24444558846E+04  0.00000000000E+00 0.  1.
          1   -1    0    0  501    0  0.00000000000E+00 -0.00000000000E+00 -0.19598526605E+04  0.19598526605E+04  0.00000000000E+00 0. -1.
         23    2    1    2    0    0 -0.94835142412E+03 -0.19093196358E+04  0.73712894017E+03  0.22575339569E+04  0.90711612665E+02 0.  0.
         11    1    3    3    0    0 -0.74163527100E+03 -0.15139367996E+04  0.62031665475E+03  0.17963352306E+04  0.00000000000E+00 0.  1.
        -11    1    3    3    0    0 -0.20671615312E+03 -0.39538283622E+03  0.11681228542E+03  0.46119872632E+03  0.00000000000E+00 0. -1.
         22    1    1    2    0    0  0.94835142412E+03  0.19093196358E+04 -0.25252571609E+03  0.21467745882E+04  0.00000000000E+00 0. -1.
<mgrwt>
<rscale>  0 0.43775671E+04</rscale>
<asrwt>0</asrwt>
<pdfrwt beam="1">  1        1 0.30151579E+00 0.43775671E+04</pdfrwt>
<pdfrwt beam="2">  1       -1 0.37607014E+00 0.43775671E+04</pdfrwt>
<totfact> 0.25038680E-02</totfact>
</mgrwt>
</event>
<event>
 6    1  0.1614874E-005  0.2000273E+04  0.7818608E-02  0.8606493E-01
         -2   -1    0    0    0  501 -0.00000000000E+00  0.00000000000E+00  0.31312185152E+03  0.31312185152E+03  0.00000000000E+00 0.  1.
          2   -1    0    0  501    0  0.00000000000E+00 -0.00000000000E+00 -0.31945158704E+04  0.31945158704E+04  0.00000000000E+00 0. -1.
         23    2    1    2    0    0 -0.62586905945E+03 -0.25771982536E+03 -0.15736252101E+03  0.70077484865E+03  0.90503245955E+02 0.  0.
         13    1    3    3    0    0 -0.56696703618E+03 -0.24222011112E+03 -0.16782921023E+03  0.63897484000E+03  0.00000000000E+00 0. -1.
        -13    1    3    3    0    0 -0.58902023263E+02 -0.15499714241E+02  0.10466689217E+02  0.61800008650E+02  0.00000000000E+00 0.  1.
         22    1    1    2    0    0  0.62586905945E+03  0.25771982536E+03 -0.27240314978E+04  0.28068628732E+04  0.00000000000E+00 0. -1.
<mgrwt>
<rscale>  0 0.20002727E+04</rscale>
<asrwt>0</asrwt>
<pdfrwt beam="1">  1        2 0.49146401E+00 0.20002727E+04</pdfrwt>
<pdfrwt beam="2">  1       -2 0.48172590E-01 0.20002727E+04</pdfrwt>
<totfact> 0.49760728E+00</totfact>
</mgrwt>
</event>
<event>
 6    1  0.1614874E-005  0.2475352E+04  0.7818608E-02  0.8411819E-01
          1   -1    0    0  501    0  0.00000000000E+00  0.00000000000E+00  0.19321834240E+04  0.19321834240E+04  0.00000000000E+00 0.  1.
         -1   -1    0    0    0  501 -0.00000000000E+00 -0.00000000000E+00 -0.79280358332E+03  0.79280358332E+03  0.00000000000E+00 0. -1.
         23    2    1    2    0    0  0.69775579051E+03  0.88386223685E+03  0.93422252242E+01  0.11296623979E+04  0.89298707773E+02 0.  0.
         13    1    3    3    0    0  0.20602379797E+03  0.23533445397E+03 -0.34118348175E+02  0.31463021508E+03  0.00000000000E+00 0.  1.
        -13    1    3    3    0    0  0.49173199254E+03  0.64852778288E+03  0.43460573399E+02  0.81503218286E+03  0.00000000000E+00 0. -1.
         22    1    1    2    0    0 -0.69775579051E+03 -0.88386223685E+03  0.11300376154E+04  0.15953246094E+04  0.00000000000E+00 0.  1.
<mgrwt>
<rscale>  0 0.24753520E+04</rscale>
<asrwt>0</asrwt>
<pdfrwt beam="1">  1        1 0.29725899E+00 0.24753520E+04</pdfrwt>
<pdfrwt beam="2">  1       -1 0.12196978E+00 0.24753520E+04</pdfrwt>
<totfact> 0.17541284E+00</totfact>
</mgrwt>
</event>
<event>
 6    1  0.1614874E-005  0.1219472E+04  0.7818608E-02  0.9095981E-01
          1   -1    0    0  501    0  0.00000000000E+00  0.00000000000E+00  0.35666832440E+04  0.35666832440E+04  0.00000000000E+00 0. -1.
         -1   -1    0    0    0  501 -0.00000000000E+00 -0.00000000000E+00 -0.10423639667E+03  0.10423639667E+03  0.00000000000E+00 0.  1.
         23    2    1    2    0    0  0.48287069872E+03 -0.31444866022E+03  0.11710298663E+04  0.13081598449E+04  0.89045833198E+02 0.  0.
         11    1    3    3    0    0  0.59991627227E+02 -0.33671895310E+02  0.84942252614E+02  0.10930680743E+03  0.00000000000E+00 0. -1.
        -11    1    3    3    0    0  0.42287907149E+03 -0.28077676491E+03  0.10860876137E+04  0.11988530374E+04  0.00000000000E+00 0.  1.
         22    1    1    2    0    0 -0.48287069872E+03  0.31444866022E+03  0.22914169811E+04  0.23627597959E+04  0.00000000000E+00 0. -1.
<mgrwt>
<rscale>  0 0.12194724E+04</rscale>
<asrwt>0</asrwt>
<pdfrwt beam="1">  1        1 0.54872041E+00 0.12194724E+04</pdfrwt>
<pdfrwt beam="2">  1       -1 0.16036371E-01 0.12194724E+04</pdfrwt>
<totfact> 0.65986902E+00</totfact>
</mgrwt>
</event>
<event>
 6    1  0.1614874E-005  0.1356846E+04  0.7818608E-02  0.8985662E-01
         -2   -1    0    0    0  501 -0.00000000000E+00  0.00000000000E+00  0.15644048309E+03  0.15644048309E+03  0.00000000000E+00 0.  1.
          2   -1    0    0  501    0  0.00000000000E+00 -0.00000000000E+00 -0.29420650103E+04  0.29420650103E+04  0.00000000000E+00 0. -1.
         23    2    1    2    0    0 -0.30796390866E+02 -0.50384866253E+03 -0.24237222090E+04  0.24773894170E+04  0.90648136301E+02 0.  0.
         11    1    3    3    0    0 -0.14783470791E+01 -0.33748060030E+03 -0.17900597294E+04  0.18215952283E+04  0.00000000000E+00 0. -1.
        -11    1    3    3    0    0 -0.29318043787E+02 -0.16636806223E+03 -0.63366247962E+03  0.65579418867E+03  0.00000000000E+00 0.  1.
         22    1    1    2    0    0  0.30796390866E+02  0.50384866253E+03 -0.36190231820E+03  0.62111607638E+03  0.00000000000E+00 0.  1.
<mgrwt>
<rscale>  0 0.13568464E+04</rscale>
<asrwt>0</asrwt>
<pdfrwt beam="1">  1        2 0.45262535E+00 0.13568464E+04</pdfrwt>
<pdfrwt beam="2">  1       -2 0.24067769E-01 0.13568464E+04</pdfrwt>
<totfact> 0.28655239E+01</totfact>
</mgrwt>
</event>
<event>
 6    1  0.1614874E-005  0.1454562E+04  0.7818608E-02  0.8915244E-01
         -2   -1    0    0    0  501 -0.00000000000E+00  0.00000000000E+00  0.73341805255E+03  0.73341805255E+03  0.00000000000E+00 0.  1.
          2   -1    0    0  501    0  0.00000000000E+00 -0.00000000000E+00 -0.72119481599E+03  0.72119481599E+03  0.00000000000E+00 0. -1.
         23    2    1    2    0    0  0.32930806316E+03  0.39664077623E+03 -0.50306108296E+03  0.72571943615E+03  0.88490344037E+02 0.  0.
         11    1    3    3    0    0  0.18592080582E+03  0.23892230103E+03 -0.23501593399E+03  0.38325305113E+03  0.00000000000E+00 0. -1.
        -11    1    3    3    0    0  0.14338725734E+03  0.15771847520E+03 -0.26804514897E+03  0.34246638503E+03  0.00000000000E+00 0.  1.
         22    1    1    2    0    0 -0.32930806316E+03 -0.39664077623E+03  0.51528431953E+03  0.72889343239E+03  0.00000000000E+00 0.  1.
<mgrwt>
<rscale>  0 0.14545615E+04</rscale>
<asrwt>0</asrwt>
<pdfrwt beam="1">  1        2 0.11095305E+00 0.14545615E+04</pdfrwt>
<pdfrwt beam="2">  1       -2 0.11283355E+00 0.14545615E+04</pdfrwt>
<totfact> 0.23618760E+01</totfact>
</mgrwt>
</event>
<event>
 6    1  0.1614874E-005  0.3384432E+03  0.7818608E-02  0.1067461E+00
          2   -1    0    0  501    0  0.00000000000E+00  0.00000000000E+00  0.13045529454E+03  0.13045529454E+03  0.00000000000E+00 0. -1.
         -2   -1    0    0    0  501 -0.00000000000E+00 -0.00000000000E+00 -0.21950775751E+03  0.21950775751E+03  0.00000000000E+00 0.  1.
         23    2    1    2    0    0 -0.80051386705E+02  0.34821102424E+02  0.97379399902E+02  0.14410491357E+03  0.60520615514E+02 0.  0.
         11    1    3    3    0    0 -0.28786108720E+01  0.25693070198E+02  0.39497298762E+02  0.47206534148E+02  0.00000000000E+00 0. -1.
        -11    1    3    3    0    0 -0.77172775833E+02  0.91280322251E+01  0.57882101140E+02  0.96898379421E+02  0.00000000000E+00 0.  1.
         22    1    1    2    0    0  0.80051386705E+02 -0.34821102424E+02 -0.18643186286E+03  0.20585813848E+03  0.00000000000E+00 0.  1.
<mgrwt>
<rscale>  0 0.33844320E+03</rscale>
<asrwt>0</asrwt>
<pdfrwt beam="1">  1        2 0.20070045E-01 0.33844320E+03</pdfrwt>
<pdfrwt beam="2">  1       -2 0.33770424E-01 0.33844320E+03</pdfrwt>
<totfact> 0.22802424E+03</totfact>
</mgrwt>
</event>
<event>
 6    1  0.1614874E-005  0.2840124E+04  0.7818608E-02  0.8290919E-01
         -1   -1    0    0    0  501 -0.00000000000E+00  0.00000000000E+00  0.20653317657E+04  0.20653317657E+04  0.00000000000E+00 0.  1.
          1   -1    0    0  501    0  0.00000000000E+00 -0.00000000000E+00 -0.97639333379E+03  0.97639333379E+03  0.00000000000E+00 0. -1.
         23    2    1    2    0    0 -0.71170533452E+03 -0.11588562628E+04  0.11256843760E+03  0.13675773501E+04  0.90132316323E+02 0.  0.
         11    1    3    3    0    0 -0.52944463996E+03 -0.92659786250E+03  0.10360493927E+03  0.10722076334E+04  0.00000000000E+00 0. -1.
        -11    1    3    3    0    0 -0.18226069456E+03 -0.23225840027E+03  0.89634983331E+01  0.29536971676E+03  0.00000000000E+00 0.  1.
         22    1    1    2    0    0  0.71170533452E+03  0.11588562628E+04  0.97636999430E+03  0.16741477494E+04  0.00000000000E+00 0.  1.
<mgrwt>
<rscale>  0 0.28401241E+04</rscale>
<asrwt>0</asrwt>
<pdfrwt beam="1">  1        1 0.15021436E+00 0.28401241E+04</pdfrwt>
<pdfrwt beam="2">  1       -1 0.31774335E+00 0.28401241E+04</pdfrwt>
<totfact> 0.34493988E-01</totfact>
</mgrwt>
</event>
<event>
 6    1  0.1614874E-005  0.1926764E+04  0.7818608E-02  0.8641648E-01
          1   -1    0    0  501    0  0.00000000000E+00  0.00000000000E+00  0.27183865610E+04  0.27183865610E+04  0.00000000000E+00 0. -1.
         -1   -1    0    0    0  501 -0.00000000000E+00 -0.00000000000E+00 -0.34141758129E+03  0.34141758129E+03  0.00000000000E+00 0.  1.
         23    2    1    2    0    0 -0.21735616301E+03 -0.92719703773E+03  0.13975820811E+04  0.16937379852E+04  0.92599356237E+02 0.  0.
         13    1    3    3    0    0 -0.18082423276E+03 -0.63226503247E+03  0.91046295000E+03  0.11231203220E+04  0.00000000000E+00 0.  1.
        -13    1    3    3    0    0 -0.36531930247E+02 -0.29493200526E+03  0.48711913106E+03  0.57061766315E+03  0.00000000000E+00 0. -1.
         22    1    1    2    0    0  0.21735616301E+03  0.92719703773E+03  0.97938689867E+03  0.13660661571E+04  0.00000000000E+00 0.  1.
<mgrwt>
<rscale>  0 0.19267641E+04</rscale>
<asrwt>0</asrwt>
<pdfrwt beam="1">  1        1 0.41821330E+00 0.19267641E+04</pdfrwt>
<pdfrwt beam="2">  1       -1 0.52525783E-01 0.19267641E+04</pdfrwt>
<totfact> 0.32512556E+00</totfact>
</mgrwt>
</event>
<event>
 6    1  0.1614874E-005  0.2051415E+04  0.7818608E-02  0.8582953E-01
          2   -1    0    0  501    0  0.00000000000E+00  0.00000000000E+00  0.53562791525E+03  0.53562791525E+03  0.00000000000E+00 0. -1.
         -2   -1    0    0    0  501 -0.00000000000E+00 -0.00000000000E+00 -0.19641916097E+04  0.19641916097E+04  0.00000000000E+00 0.  1.
         23    2    1    2    0    0 -0.73954732548E+03 -0.33538567638E+03  0.43817155923E+02  0.81835612448E+03  0.91504124406E+02 0.  0.
         11    1    3    3    0    0 -0.43442508878E+03 -0.22641272228E+03  0.62301541729E+02  0.49383130791E+03  0.00000000000E+00 0. -1.
        -11    1    3    3    0    0 -0.30512223669E+03 -0.10897295411E+03 -0.18484385806E+02  0.32452481657E+03  0.00000000000E+00 0.  1.
         22    1    1    2    0    0  0.73954732548E+03  0.33538567638E+03 -0.14723808504E+04  0.16814634005E+04  0.00000000000E+00 0. -1.
<mgrwt>
<rscale>  0 0.20514150E+04</rscale>
<asrwt>0</asrwt>
<pdfrwt beam="1">  1        2 0.82404296E-01 0.20514150E+04</pdfrwt>
<pdfrwt beam="2">  1       -2 0.30218332E+00 0.20514150E+04</pdfrwt>
<totfact> 0.16213101E+00</totfact>
</mgrwt>
</event>
<event>
 6    1  0.1614874E-005  0.3852025E+04  0.7818608E-02  0.8035082E-01
          2   -1    0    0  501    0  0.00000000000E+00  0.00000000000E+00  0.22887243468E+04  0.22887243468E+04  0.00000000000E+00 0. -1.
         -2   -1    0    0    0  501 -0.00000000000E+00 -0.00000000000E+00 -0.16207821548E+04  0.16207821548E+04  0.00000000000E+00 0.  1.
         23    2    1    2    0    0  0.13865373556E+04  0.16084325999E+03 -0.10111481911E+04  0.17259999393E+04  0.91097383446E+02 0.  0.
         11    1    3    3    0    0  0.22232316869E+03  0.23732395941E+02 -0.12219251669E+03  0.25479762379E+03  0.00000000000E+00 0.  1.
        -11    1    3    3    0    0  0.11642141869E+04  0.13711086405E+03 -0.88895567438E+03  0.14712023155E+04  0.00000000000E+00 0. -1.
         22    1    1    2    0    0 -0.13865373556E+04 -0.16084325999E+03  0.16790903831E+04  0.21835065622E+04  0.00000000000E+00 0. -1.
<mgrwt>
<rscale>  0 0.38520247E+04</rscale>
<asrwt>0</asrwt>
<pdfrwt beam="1">  1        2 0.35211144E+00 0.38520247E+04</pdfrwt>
<pdfrwt beam="2">  1       -2 0.24935110E+00 0.38520247E+04</pdfrwt>
<totfact> 0.23825407E-01</totfact>
</mgrwt>
</event>
<event>
 6    1  0.1614874E-005  0.3508451E+04  0.7818608E-02  0.8111790E-01
          2   -1    0    0  501    0  0.00000000000E+00  0.00000000000E+00  0.17741862602E+04  0.17741862602E+04  0.00000000000E+00 0. -1.
         -2   -1    0    0    0  501 -0.00000000000E+00 -0.00000000000E+00 -0.17344892326E+04  0.17344892326E+04  0.00000000000E+00 0.  1.
         23    2    1    2    0    0 -0.25309198713E+03  0.79593635048E+03 -0.15215360154E+04  0.17380770509E+04  0.90938224888E+02 0.  0.
         13    1    3    3    0    0 -0.12090782956E+03  0.51701397039E+03 -0.99143993044E+03  0.11246667438E+04  0.00000000000E+00 0.  1.
        -13    1    3    3    0    0 -0.13218415758E+03  0.27892238008E+03 -0.53009608491E+03  0.61341030710E+03  0.00000000000E+00 0. -1.
         22    1    1    2    0    0  0.25309198713E+03 -0.79593635048E+03  0.15612330429E+04  0.17705984419E+04  0.00000000000E+00 0. -1.
<mgrwt>
<rscale>  0 0.35084509E+04</rscale>
<asrwt>0</asrwt>
<pdfrwt beam="1">  1        2 0.27295173E+00 0.35084509E+04</pdfrwt>
<pdfrwt beam="2">  1       -2 0.26684450E+00 0.35084509E+04</pdfrwt>
<totfact> 0.37106111E-01</totfact>
</mgrwt>
</event>
<event>
 6    1  0.1614874E-005  0.1577855E+04  0.7818608E-02  0.8834269E-01
          2   -1    0    0  501    0  0.00000000000E+00  0.00000000000E+00  0.20986393919E+04  0.20986393919E+04  0.00000000000E+00 0. -1.
         -2   -1    0    0    0  501 -0.00000000000E+00 -0.00000000000E+00 -0.29657621577E+03  0.29657621577E+03  0.00000000000E+00 0.  1.
         23    2    1    2    0    0  0.12105296234E+03 -0.72678092320E+03  0.13208690326E+04  0.15152087135E+04  0.91093984932E+02 0.  0.
         13    1    3    3    0    0  0.32238238984E+02 -0.23954490432E+03  0.52251562977E+03  0.57571142822E+03  0.00000000000E+00 0.  1.
        -13    1    3    3    0    0  0.88814723360E+02 -0.48723601888E+03  0.79835340288E+03  0.93949728529E+03  0.00000000000E+00 0. -1.
         22    1    1    2    0    0 -0.12105296234E+03  0.72678092320E+03  0.48119414346E+03  0.88000689413E+03  0.00000000000E+00 0.  1.
<mgrwt>
<rscale>  0 0.15778549E+04</rscale>
<asrwt>0</asrwt>
<pdfrwt beam="1">  1        2 0.32286759E+00 0.15778549E+04</pdfrwt>
<pdfrwt beam="2">  1       -2 0.45627111E-01 0.15778549E+04</pdfrwt>
<totfact> 0.25766647E+01</totfact>
</mgrwt>
</event>
<event>
 6    1  0.1614874E-005  0.2120761E+04  0.7818608E-02  0.8552153E-01
          1   -1    0    0  501    0  0.00000000000E+00  0.00000000000E+00  0.60393436389E+03  0.60393436389E+03  0.00000000000E+00 0. -1.
         -1   -1    0    0    0  501 -0.00000000000E+00 -0.00000000000E+00 -0.18618028804E+04  0.18618028804E+04  0.00000000000E+00 0.  1.
         23    2    1    2    0    0  0.23901140228E+03  0.57257473597E+03 -0.16270594152E+04  0.17437468022E+04  0.91445563020E+02 0.  0.
         13    1    3    3    0    0  0.59550023610E+02  0.22962316454E+03 -0.70098100894E+03  0.74003201141E+03  0.00000000000E+00 0. -1.
        -13    1    3    3    0    0  0.17946137867E+03  0.34295157143E+03 -0.92607840625E+03  0.10037147908E+04  0.00000000000E+00 0.  1.
         22    1    1    2    0    0 -0.23901140228E+03 -0.57257473597E+03  0.36919089873E+03  0.72199044204E+03  0.00000000000E+00 0. -1.
<mgrwt>
<rscale>  0 0.21207609E+04</rscale>
<asrwt>0</asrwt>
<pdfrwt beam="1">  1        1 0.92912982E-01 0.21207609E+04</pdfrwt>
<pdfrwt beam="2">  1       -1 0.28643120E+00 0.21207609E+04</pdfrwt>
<totfact> 0.12597726E+00</totfact>
</mgrwt>
</event>
<event>
 6    1  0.1614874E-005  0.7139335E+03  0.7818608E-02  0.9693696E-01
         -2   -1    0    0    0  501 -0.00000000000E+00  0.00000000000E+00  0.58294754007E+03  0.58294754007E+03  0.00000000000E+00 0. -1.
          2   -1    0    0  501    0  0.00000000000E+00 -0.00000000000E+00 -0.21858785884E+03  0.21858785884E+03  0.00000000000E+00 0.  1.
         23    2    1    2    0    0  0.12005264476E+03 -0.26236693911E+02  0.55455317414E+03  0.57509651893E+03  0.90032113798E+02 0.  0.
         13    1    3    3    0    0  0.55055044048E+02 -0.26311018676E+02  0.43279846779E+03  0.43707875869E+03  0.00000000000E+00 0. -1.
        -13    1    3    3    0    0  0.64997600711E+02  0.74324765275E-01  0.12175470635E+03  0.13801776023E+03  0.00000000000E+00 0.  1.
         22    1    1    2    0    0 -0.12005264476E+03  0.26236693911E+02 -0.19019349291E+03  0.22643887998E+03  0.00000000000E+00 0.  1.
<mgrwt>
<rscale>  0 0.71393348E+03</rscale>
<asrwt>0</asrwt>
<pdfrwt beam="1">  1        2 0.33628902E-01 0.71393348E+03</pdfrwt>
<pdfrwt beam="2">  1       -2 0.89684236E-01 0.71393348E+03</pdfrwt>
<totfact> 0.16831794E+02</totfact>
</mgrwt>
</event>
<event>
 6    1  0.1614874E-005  0.1549148E+04  0.7818608E-02  0.8852412E-01
          2   -1    0    0  501    0  0.00000000000E+00  0.00000000000E+00  0.22993865131E+04  0.22993865131E+04  0.00000000000E+00 0. -1.
         -2   -1    0    0    0  501 -0.00000000000E+00 -0.00000000000E+00 -0.26092398648E+03  0.26092398648E+03  0.00000000000E+00 0.  1.
         23    2    1    2    0    0  0.47308009997E+03  0.39920861474E+03  0.17849765839E+04  0.18914103410E+04  0.90107567751E+02 0.  0.
         11    1    3    3    0    0  0.17284853734E+03  0.10469920752E+03  0.49722929164E+03  0.53672666170E+03  0.00000000000E+00 0. -1.
        -11    1    3    3    0    0  0.30023156263E+03  0.29450940722E+03  0.12877472923E+04  0.13546836793E+04  0.00000000000E+00 0.  1.
         22    1    1    2    0    0 -0.47308009997E+03 -0.39920861474E+03  0.25348594275E+03  0.66890015865E+03  0.00000000000E+00 0.  1.
<mgrwt>
<rscale>  0 0.15491483E+04</rscale>
<asrwt>0</asrwt>
<pdfrwt beam="1">  1        2 0.35375176E+00 0.15491483E+04</pdfrwt>
<pdfrwt beam="2">  1       -2 0.40142153E-01 0.15491483E+04</pdfrwt>
<totfact> 0.25687141E+01</totfact>
</mgrwt>
</event>
<event>
 6    1  0.1614874E-005  0.3745163E+04  0.7818608E-02  0.8058026E-01
         -1   -1    0    0    0  501 -0.00000000000E+00  0.00000000000E+00  0.88257236609E+03  0.88257236609E+03  0.00000000000E+00 0.  1.
          1   -1    0    0  501    0  0.00000000000E+00 -0.00000000000E+00 -0.39731140922E+04  0.39731140922E+04  0.00000000000E+00 0. -1.
         23    2    1    2    0    0  0.12232663470E+04 -0.10513395748E+03  0.28503354123E+03  0.12637591079E+04  0.91702009235E+02 0.  0.
         13    1    3    3    0    0  0.95256449854E+03 -0.43450308594E+02  0.22056576540E+03  0.97873199092E+03  0.00000000000E+00 0. -1.
        -13    1    3    3    0    0  0.27070184848E+03 -0.61683648887E+02  0.64467775826E+02  0.28502711701E+03  0.00000000000E+00 0.  1.
         22    1    1    2    0    0 -0.12232663470E+04  0.10513395748E+03 -0.33755752673E+04  0.35919273503E+04  0.00000000000E+00 0. -1.
<mgrwt>
<rscale>  0 0.37451626E+04</rscale>
<asrwt>0</asrwt>
<pdfrwt beam="1">  1        1 0.61124832E+00 0.37451626E+04</pdfrwt>
<pdfrwt beam="2">  1       -1 0.13578036E+00 0.37451626E+04</pdfrwt>
<totfact> 0.36647238E-02</totfact>
</mgrwt>
</event>
<event>
 6    1  0.1614874E-005  0.6261567E+04  0.7818608E-02  0.7658790E-01
         -1   -1    0    0    0  501 -0.00000000000E+00  0.00000000000E+00  0.28168544881E+04  0.28168544881E+04  0.00000000000E+00 0.  1.
          1   -1    0    0  501    0  0.00000000000E+00 -0.00000000000E+00 -0.34796984372E+04  0.34796984372E+04  0.00000000000E+00 0. -1.
         23    2    1    2    0    0  0.27299012567E+04 -0.15190866558E+04 -0.52671529970E+03  0.31694910218E+04  0.90880092165E+02 0.  0.
         13    1    3    3    0    0  0.14604093040E+04 -0.82354127017E+03 -0.32758566202E+03  0.17083114250E+04  0.00000000000E+00 0.  1.
        -13    1    3    3    0    0  0.12694919527E+04 -0.69554538559E+03 -0.19912963768E+03  0.14611795968E+04  0.00000000000E+00 0. -1.
         22    1    1    2    0    0 -0.27299012567E+04  0.15190866558E+04 -0.13612864937E+03  0.31270619035E+04  0.00000000000E+00 0.  1.
<mgrwt>
<rscale>  0 0.62615666E+04</rscale>
<asrwt>0</asrwt>
<pdfrwt beam="1">  1        1 0.53533822E+00 0.62615666E+04</pdfrwt>
<pdfrwt beam="2">  1       -1 0.43336223E+00 0.62615666E+04</pdfrwt>
<totfact> 0.71721759E-04</totfact>
</mgrwt>
</event>
<event>
 6    1  0.1614874E-005  0.2884815E+04  0.7818608E-02  0.8277410E-01
          2   -1    0    0  501    0  0.00000000000E+00  0.00000000000E+00  0.14561085903E+04  0.14561085903E+04  0.00000000000E+00 0.  1.
         -2   -1    0    0    0  501 -0.00000000000E+00 -0.00000000000E+00 -0.14288357925E+04  0.14288357925E+04  0.00000000000E+00 0. -1.
         23    2    1    2    0    0  0.12381515947E+04 -0.73685487666E+03 -0.27131212845E+01  0.14438081518E+04  0.92736926095E+02 0.  0.
         11    1    3    3    0    0  0.51857737380E+03 -0.25605993115E+03 -0.60654052827E+01  0.57838220071E+03  0.00000000000E+00 0. -1.
        -11    1    3    3    0    0  0.71957422091E+03 -0.48079494551E+03  0.33522839982E+01  0.86542595110E+03  0.00000000000E+00 0.  1.
         22    1    1    2    0    0 -0.12381515947E+04  0.73685487666E+03  0.29985919109E+02  0.14411362309E+04  0.00000000000E+00 0.  1.
<mgrwt>
<rscale>  0 0.28848155E+04</rscale>
<asrwt>0</asrwt>
<pdfrwt beam="1">  1        2 0.22401670E+00 0.28848155E+04</pdfrwt>
<pdfrwt beam="2">  1       -2 0.21982089E+00 0.28848155E+04</pdfrwt>
<totfact> 0.11511385E+00</totfact>
</mgrwt>
</event>
<event>
 6    1  0.1614874E-005  0.3106178E+04  0.7818608E-02  0.8214044E-01
         -2   -1    0    0    0  501 -0.00000000000E+00  0.00000000000E+00  0.21485600234E+04  0.21485600234E+04  0.00000000000E+00 0. -1.
          2   -1    0    0  501    0  0.00000000000E+00 -0.00000000000E+00 -0.11226522046E+04  0.11226522046E+04  0.00000000000E+00 0.  1.
         23    2    1    2    0    0 -0.12589786898E+04  0.80929869133E+03  0.94337074131E+03  0.17722779126E+04  0.10501871646E+03 0.  0.
         13    1    3    3    0    0 -0.56710533498E+03  0.39989945307E+03  0.38624132117E+03  0.79417277195E+03  0.00000000000E+00 0. -1.
        -13    1    3    3    0    0 -0.69187335477E+03  0.40939923825E+03  0.55712942014E+03  0.97810514062E+03  0.00000000000E+00 0.  1.
         22    1    1    2    0    0  0.12589786898E+04 -0.80929869133E+03  0.82537077478E+02  0.14989343155E+04  0.00000000000E+00 0. -1.
<mgrwt>
<rscale>  0 0.31061781E+04</rscale>
<asrwt>0</asrwt>
<pdfrwt beam="1">  1        2 0.17271572E+00 0.31061781E+04</pdfrwt>
<pdfrwt beam="2">  1       -2 0.33054770E+00 0.31061781E+04</pdfrwt>
<totfact> 0.36866248E-01</totfact>
</mgrwt>
</event>
<event>
 6    1  0.1614874E-005  0.3318838E+04  0.7818608E-02  0.8158119E-01
          2   -1    0    0  501    0  0.00000000000E+00  0.00000000000E+00  0.19267826433E+04  0.19267826433E+04  0.00000000000E+00 0. -1.
         -2   -1    0    0    0  501 -0.00000000000E+00 -0.00000000000E+00 -0.14291548668E+04  0.14291548668E+04  0.00000000000E+00 0.  1.
         23    2    1    2    0    0 -0.12390566417E+04  0.97177249481E+03 -0.27644929855E+03  0.16012869861E+04  0.89959181265E+02 0.  0.
         13    1    3    3    0    0 -0.50127420943E+03  0.39690032601E+03 -0.67578747803E+02  0.64294057966E+03  0.00000000000E+00 0. -1.
        -13    1    3    3    0    0 -0.73778243228E+03  0.57487216880E+03 -0.20887055075E+03  0.95834640648E+03  0.00000000000E+00 0.  1.
         22    1    1    2    0    0  0.12390566417E+04 -0.97177249481E+03  0.77407707512E+03  0.17546505240E+04  0.00000000000E+00 0. -1.
<mgrwt>
<rscale>  0 0.33188376E+04</rscale>
<asrwt>0</asrwt>
<pdfrwt beam="1">  1        2 0.29642810E+00 0.33188376E+04</pdfrwt>
<pdfrwt beam="2">  1       -2 0.21986998E+00 0.33188376E+04</pdfrwt>
<totfact> 0.60598749E-01</totfact>
</mgrwt>
</event>
<event>
 6    1  0.1614874E-005  0.2216203E+04  0.7818608E-02  0.8511714E-01
          1   -1    0    0  501    0  0.00000000000E+00  0.00000000000E+00  0.73196406190E+03  0.73196406190E+03  0.00000000000E+00 0. -1.
         -1   -1    0    0    0  501 -0.00000000000E+00 -0.00000000000E+00 -0.16775264633E+04  0.16775264633E+04  0.00000000000E+00 0.  1.
         23    2    1    2    0    0 -0.71995137772E+03  0.23421106477E+03 -0.13503519845E+04  0.15509805277E+04  0.94367929472E+02 0.  0.
         13    1    3    3    0    0 -0.63954454121E+03  0.17503266045E+03 -0.11794371097E+04  0.13530430696E+04  0.00000000000E+00 0. -1.
        -13    1    3    3    0    0 -0.80406836510E+02  0.59178404328E+02 -0.17091487477E+03  0.19793745808E+03  0.00000000000E+00 0.  1.
         22    1    1    2    0    0  0.71995137772E+03 -0.23421106477E+03  0.40478958313E+03  0.85850999747E+03  0.00000000000E+00 0. -1.
<mgrwt>
<rscale>  0 0.22162031E+04</rscale>
<asrwt>0</asrwt>
<pdfrwt beam="1">  1        1 0.11260986E+00 0.22162031E+04</pdfrwt>
<pdfrwt beam="2">  1       -1 0.25808100E+00 0.22162031E+04</pdfrwt>
<totfact> 0.14301331E+00</totfact>
</mgrwt>
</event>
<event>
 6    1  0.1614874E-005  0.1440158E+04  0.7818608E-02  0.8925253E-01
          1   -1    0    0  501    0  0.00000000000E+00  0.00000000000E+00  0.86194461577E+03  0.86194461577E+03  0.00000000000E+00 0. -1.
         -1   -1    0    0    0  501 -0.00000000000E+00 -0.00000000000E+00 -0.60156243256E+03  0.60156243256E+03  0.00000000000E+00 0.  1.
         23    2    1    2    0    0  0.33771243179E+03 -0.53300897528E+03 -0.21569568230E+03  0.67306515398E+03  0.91344511739E+02 0.  0.
         13    1    3    3    0    0  0.17131626354E+03 -0.29900896110E+03 -0.16269517063E+03  0.38108442571E+03  0.00000000000E+00 0.  1.
        -13    1    3    3    0    0  0.16639616824E+03 -0.23400001418E+03 -0.53000511666E+02  0.29198072827E+03  0.00000000000E+00 0. -1.
         22    1    1    2    0    0 -0.33771243179E+03  0.53300897528E+03  0.47607786552E+03  0.79044189435E+03  0.00000000000E+00 0. -1.
<mgrwt>
<rscale>  0 0.14401576E+04</rscale>
<asrwt>0</asrwt>
<pdfrwt beam="1">  1        1 0.13260686E+00 0.14401576E+04</pdfrwt>
<pdfrwt beam="2">  1       -1 0.92548066E-01 0.14401576E+04</pdfrwt>
<totfact> 0.21603318E+01</totfact>
</mgrwt>
</event>
<event>
 6    1  0.1614874E-005  0.2637646E+04  0.7818608E-02  0.8355525E-01
         -1   -1    0    0    0  501 -0.00000000000E+00  0.00000000000E+00  0.23595244203E+04  0.23595244203E+04  0.00000000000E+00 0.  1.
          1   -1    0    0  501    0  0.00000000000E+00 -0.00000000000E+00 -0.73713760883E+03  0.73713760883E+03  0.00000000000E+00 0. -1.
         23    2    1    2    0    0  0.73865279929E+03  0.12470690919E+03 -0.45999752421E+03  0.88363598034E+03  0.89749943601E+02 0.  0.
         11    1    3    3    0    0  0.22404787773E+03  0.78305297560E+02 -0.15878727836E+03  0.28555659843E+03  0.00000000000E+00 0. -1.
        -11    1    3    3    0    0  0.51460492157E+03  0.46401611631E+02 -0.30121024585E+03  0.59807938191E+03  0.00000000000E+00 0.  1.
         22    1    1    2    0    0 -0.73865279929E+03 -0.12470690919E+03  0.20823843357E+04  0.22130260488E+04  0.00000000000E+00 0.  1.
<mgrwt>
<rscale>  0 0.26376461E+04</rscale>
<asrwt>0</asrwt>
<pdfrwt beam="1">  1        1 0.11340579E+00 0.26376461E+04</pdfrwt>
<pdfrwt beam="2">  1       -1 0.36300375E+00 0.26376461E+04</pdfrwt>
<totfact> 0.28117126E-01</totfact>
</mgrwt>
</event>
<event>
 6    1  0.1614874E-005  0.1718102E+04  0.7818608E-02  0.8751107E-01
         -1   -1    0    0    0  501 -0.00000000000E+00  0.00000000000E+00  0.29589873723E+03  0.29589873723E+03  0.00000000000E+00 0.  1.
          1   -1    0    0  501    0  0.00000000000E+00 -0.00000000000E+00 -0.24939907104E+04  0.24939907104E+04  0.00000000000E+00 0. -1.
         23    2    1    2    0    0 -0.20988559341E+03 -0.82861306435E+03 -0.10109828445E+04  0.13270566970E+04  0.91332319744E+02 0.  0.
         13    1    3    3    0    0 -0.82552489641E+02 -0.39096028334E+03 -0.53847925955E+03  0.67054065475E+03  0.00000000000E+00 0. -1.
        -13    1    3    3    0    0 -0.12733310377E+03 -0.43765278100E+03 -0.47250358491E+03  0.65651604229E+03  0.00000000000E+00 0.  1.
         22    1    1    2    0    0  0.20988559341E+03  0.82861306435E+03 -0.11871091287E+04  0.14628327506E+04  0.00000000000E+00 0.  1.
<mgrwt>
<rscale>  0 0.17181021E+04</rscale>
<asrwt>0</asrwt>
<pdfrwt beam="1">  1        1 0.38369087E+00 0.17181021E+04</pdfrwt>
<pdfrwt beam="2">  1       -1 0.45522884E-01 0.17181021E+04</pdfrwt>
<totfact> 0.62376897E+00</totfact>
</mgrwt>
</event>
<event>
 6    1  0.1614874E-005  0.2283853E+04  0.7818608E-02  0.8484315E-01
          2   -1    0    0  501    0  0.00000000000E+00  0.00000000000E+00  0.20805518912E+04  0.20805518912E+04  0.00000000000E+00 0. -1.
         -2   -1    0    0    0  501 -0.00000000000E+00 -0.00000000000E+00 -0.62675516927E+03  0.62675516927E+03  0.00000000000E+00 0.  1.
         23    2    1    2    0    0  0.43016878333E+03  0.96270825258E+03  0.12420159018E+04  0.16318055600E+04  0.91288134411E+02 0.  0.
         13    1    3    3    0    0  0.93960604361E+02  0.24952854412E+03  0.25976909832E+03  0.37225404490E+03  0.00000000000E+00 0. -1.
        -13    1    3    3    0    0  0.33620817897E+03  0.71317970846E+03  0.98224680351E+03  0.12595515151E+04  0.00000000000E+00 0.  1.
         22    1    1    2    0    0 -0.43016878333E+03 -0.96270825258E+03  0.21178082009E+03  0.10755015005E+04  0.00000000000E+00 0. -1.
<mgrwt>
<rscale>  0 0.22838535E+04</rscale>
<asrwt>0</asrwt>
<pdfrwt beam="1">  1        2 0.32008490E+00 0.22838535E+04</pdfrwt>
<pdfrwt beam="2">  1       -2 0.96423873E-01 0.22838535E+04</pdfrwt>
<totfact> 0.49223393E+00</totfact>
</mgrwt>
</event>
<event>
 6    1  0.1614874E-005  0.1874932E+04  0.7818608E-02  0.8667436E-01
         -2   -1    0    0    0  501 -0.00000000000E+00  0.00000000000E+00  0.20539468268E+04  0.20539468268E+04  0.00000000000E+00 0.  1.
          2   -1    0    0  501    0  0.00000000000E+00 -0.00000000000E+00 -0.42787979301E+03  0.42787979301E+03  0.00000000000E+00 0. -1.
         23    2    1    2    0    0 -0.91531511962E+03  0.18799487047E+03  0.80519369874E+03  0.12380513701E+04  0.10625659080E+03 0.  0.
         13    1    3    3    0    0 -0.76132829944E+02 -0.26885062343E+01  0.37900987562E+02  0.85087723669E+02  0.00000000000E+00 0.  1.
        -13    1    3    3    0    0 -0.83918228967E+03  0.19068337671E+03  0.76729271117E+03  0.11529636465E+04  0.00000000000E+00 0. -1.
         22    1    1    2    0    0  0.91531511962E+03 -0.18799487047E+03  0.82087333508E+03  0.12437752497E+04  0.00000000000E+00 0. -1.
<mgrwt>
<rscale>  0 0.18749318E+04</rscale>
<asrwt>0</asrwt>
<pdfrwt beam="1">  1        2 0.65827662E-01 0.18749318E+04</pdfrwt>
<pdfrwt beam="2">  1       -2 0.31599181E+00 0.18749318E+04</pdfrwt>
<totfact> 0.17558844E+00</totfact>
</mgrwt>
</event>
<event>
 6    1  0.1614874E-005  0.1187118E+04  0.7818608E-02  0.9124207E-01
         -2   -1    0    0    0  501 -0.00000000000E+00  0.00000000000E+00  0.58668077961E+03  0.58668077961E+03  0.00000000000E+00 0.  1.
          2   -1    0    0  501    0  0.00000000000E+00 -0.00000000000E+00 -0.60051790016E+03  0.60051790016E+03  0.00000000000E+00 0. -1.
         23    2    1    2    0    0 -0.37074535236E+03 -0.29410121961E+03 -0.35935190329E+03  0.60125661032E+03  0.91804560751E+02 0.  0.
         13    1    3    3    0    0 -0.34210709007E+02 -0.32380617887E+02 -0.59091639243E+01  0.47474153429E+02  0.00000000000E+00 0. -1.
        -13    1    3    3    0    0 -0.33653464336E+03 -0.26172060173E+03 -0.35344273936E+03  0.55378245689E+03  0.00000000000E+00 0.  1.
         22    1    1    2    0    0  0.37074535236E+03  0.29410121961E+03  0.34551478274E+03  0.58594206946E+03  0.00000000000E+00 0.  1.
<mgrwt>
<rscale>  0 0.11871180E+04</rscale>
<asrwt>0</asrwt>
<pdfrwt beam="1">  1        2 0.92387369E-01 0.11871180E+04</pdfrwt>
<pdfrwt beam="2">  1       -2 0.90258582E-01 0.11871180E+04</pdfrwt>
<totfact> 0.51388489E+01</totfact>
</mgrwt>
</event>
<event>
 6    1  0.1614874E-005  0.2409489E+04  0.7818608E-02  0.8435960E-01
         -2   -1    0    0    0  501 -0.00000000000E+00  0.00000000000E+00  0.16885096271E+04  0.16885096271E+04  0.00000000000E+00 0.  1.
          2   -1    0    0  501    0  0.00000000000E+00 -0.00000000000E+00 -0.85958004554E+03  0.85958004554E+03  0.00000000000E+00 0. -1.
         23    2    1    2    0    0  0.89023658701E+03  0.63968691844E+03  0.93892445650E+03  0.14463549464E+04  0.92967529569E+02 0.  0.
         13    1    3    3    0    0  0.16759957932E+03  0.16584784025E+03  0.18886769079E+03  0.30210284628E+03  0.00000000000E+00 0.  1.
        -13    1    3    3    0    0  0.72263700769E+03  0.47383907819E+03  0.75005676570E+03  0.11442521001E+04  0.00000000000E+00 0. -1.
         22    1    1    2    0    0 -0.89023658701E+03 -0.63968691844E+03 -0.10999487492E+03  0.11017347262E+04  0.00000000000E+00 0. -1.
<mgrwt>
<rscale>  0 0.24094889E+04</rscale>
<asrwt>0</asrwt>
<pdfrwt beam="1">  1        2 0.13224308E+00 0.24094889E+04</pdfrwt>
<pdfrwt beam="2">  1       -2 0.25977071E+00 0.24094889E+04</pdfrwt>
<totfact> 0.15717664E+00</totfact>
</mgrwt>
</event>
<event>
 6    1  0.1614874E-005  0.1816009E+04  0.7818608E-02  0.8697832E-01
         -1   -1    0    0    0  501 -0.00000000000E+00  0.00000000000E+00  0.52888901414E+03  0.52888901414E+03  0.00000000000E+00 0.  1.
          1   -1    0    0  501    0  0.00000000000E+00 -0.00000000000E+00 -0.15588750528E+04  0.15588750528E+04  0.00000000000E+00 0. -1.
         23    2    1    2    0    0  0.50879100177E+03  0.40462270944E+03 -0.12412967924E+04  0.14042144674E+04  0.91720897506E+02 0.  0.
         11    1    3    3    0    0  0.45814054285E+03  0.34830627371E+03 -0.11468246544E+04  0.12831277431E+04  0.00000000000E+00 0. -1.
        -11    1    3    3    0    0  0.50650458918E+02  0.56316435732E+02 -0.94472138062E+02  0.12108672426E+03  0.00000000000E+00 0.  1.
         22    1    1    2    0    0 -0.50879100177E+03 -0.40462270944E+03  0.21131075372E+03  0.68354959960E+03  0.00000000000E+00 0.  1.
<mgrwt>
<rscale>  0 0.18160087E+04</rscale>
<asrwt>0</asrwt>
<pdfrwt beam="1">  1        1 0.23982693E+00 0.18160087E+04</pdfrwt>
<pdfrwt beam="2">  1       -1 0.81367542E-01 0.18160087E+04</pdfrwt>
<totfact> 0.84428096E+00</totfact>
</mgrwt>
</event>
<event>
 6    1  0.1614874E-005  0.3236021E+04  0.7818608E-02  0.8179368E-01
         -1   -1    0    0    0  501 -0.00000000000E+00  0.00000000000E+00  0.14242308014E+04  0.14242308014E+04  0.00000000000E+00 0.  1.
          1   -1    0    0  501    0  0.00000000000E+00 -0.00000000000E+00 -0.18381552763E+04  0.18381552763E+04  0.00000000000E+00 0. -1.
         23    2    1    2    0    0 -0.37342693282E+03  0.71708380970E+03 -0.16185477551E+04  0.18116021133E+04  0.92458192098E+02 0.  0.
         13    1    3    3    0    0  0.42067573537E+01  0.24976966903E+02 -0.49524519159E+02  0.55625746566E+02  0.00000000000E+00 0. -1.
        -13    1    3    3    0    0 -0.37763369017E+03  0.69210684279E+03 -0.15690232359E+04  0.17559763668E+04  0.00000000000E+00 0.  1.
         22    1    1    2    0    0  0.37342693282E+03 -0.71708380970E+03  0.12046232801E+04  0.14507839644E+04  0.00000000000E+00 0.  1.
<mgrwt>
<rscale>  0 0.32360206E+04</rscale>
<asrwt>0</asrwt>
<pdfrwt beam="1">  1        1 0.28279312E+00 0.32360206E+04</pdfrwt>
<pdfrwt beam="2">  1       -1 0.21911243E+00 0.32360206E+04</pdfrwt>
<totfact> 0.35717016E-01</totfact>
</mgrwt>
</event>
<event>
 6    1  0.1614874E-005  0.1831214E+04  0.7818608E-02  0.8689874E-01
         -1   -1    0    0    0  501 -0.00000000000E+00  0.00000000000E+00  0.12429245432E+04  0.12429245432E+04  0.00000000000E+00 0.  1.
          1   -1    0    0  501    0  0.00000000000E+00 -0.00000000000E+00 -0.67448661494E+03  0.67448661494E+03  0.00000000000E+00 0. -1.
         23    2    1    2    0    0 -0.28262364214E+03 -0.64170991781E+03  0.89773069415E+03  0.11427489947E+04  0.91033642416E+02 0.  0.
         13    1    3    3    0    0 -0.15567766939E+03 -0.39770396289E+03  0.61051257991E+03  0.74507019071E+03  0.00000000000E+00 0.  1.
        -13    1    3    3    0    0 -0.12694597275E+03 -0.24400595492E+03  0.28721811424E+03  0.39767880404E+03  0.00000000000E+00 0. -1.
         22    1    1    2    0    0  0.28262364214E+03  0.64170991781E+03 -0.32929276590E+03  0.77466216339E+03  0.00000000000E+00 0. -1.
<mgrwt>
<rscale>  0 0.18312138E+04</rscale>
<asrwt>0</asrwt>
<pdfrwt beam="1">  1        1 0.10376717E+00 0.18312138E+04</pdfrwt>
<pdfrwt beam="2">  1       -1 0.19121916E+00 0.18312138E+04</pdfrwt>
<totfact> 0.46981811E+00</totfact>
</mgrwt>
</event>
<event>
 6    1  0.1614874E-005  0.1489623E+04  0.7818608E-02  0.8891383E-01
          2   -1    0    0  501    0  0.00000000000E+00  0.00000000000E+00  0.35132373569E+04  0.35132373569E+04  0.00000000000E+00 0. -1.
         -2   -1    0    0    0  501 -0.00000000000E+00 -0.00000000000E+00 -0.15790111819E+03  0.15790111819E+03  0.00000000000E+00 0.  1.
         23    2    1    2    0    0  0.10711593045E+03  0.39083202000E+03  0.32158406496E+04  0.32425564995E+04  0.91203498032E+02 0.  0.
         11    1    3    3    0    0  0.96392665235E+02  0.19198067433E+03  0.15345732365E+04  0.15495364286E+04  0.00000000000E+00 0.  1.
        -11    1    3    3    0    0  0.10723265215E+02  0.19885134567E+03  0.16812674131E+04  0.16930200709E+04  0.00000000000E+00 0. -1.
         22    1    1    2    0    0 -0.10711593045E+03 -0.39083202000E+03  0.13949558903E+03  0.42858197556E+03  0.00000000000E+00 0.  1.
<mgrwt>
<rscale>  0 0.14896229E+04</rscale>
<asrwt>0</asrwt>
<pdfrwt beam="1">  1        2 0.54049800E+00 0.14896229E+04</pdfrwt>
<pdfrwt beam="2">  1       -2 0.24292482E-01 0.14896229E+04</pdfrwt>
<totfact> 0.11800704E+01</totfact>
</mgrwt>
</event>
<event>
 6    1  0.1614874E-005  0.7638073E+03  0.7818608E-02  0.9613934E-01
          1   -1    0    0  501    0  0.00000000000E+00  0.00000000000E+00  0.27196271013E+03  0.27196271013E+03  0.00000000000E+00 0. -1.
         -1   -1    0    0    0  501 -0.00000000000E+00 -0.00000000000E+00 -0.53628826300E+03  0.53628826300E+03  0.00000000000E+00 0.  1.
         23    2    1    2    0    0  0.37260569251E+03 -0.54916820814E+02 -0.13045675108E+03  0.40853643074E+03  0.89622497403E+02 0.  0.
         11    1    3    3    0    0  0.85955523327E+02 -0.50022121746E+02 -0.46631105586E+02  0.10984090614E+03  0.00000000000E+00 0.  1.
        -11    1    3    3    0    0  0.28665016919E+03 -0.48946990685E+01 -0.83825645497E+02  0.29869552460E+03  0.00000000000E+00 0. -1.
         22    1    1    2    0    0 -0.37260569251E+03  0.54916820814E+02 -0.13386880179E+03  0.39971454238E+03  0.00000000000E+00 0.  1.
<mgrwt>
<rscale>  0 0.76380733E+03</rscale>
<asrwt>0</asrwt>
<pdfrwt beam="1">  1        1 0.41840417E-01 0.76380733E+03</pdfrwt>
<pdfrwt beam="2">  1       -1 0.82505886E-01 0.76380733E+03</pdfrwt>
<totfact> 0.14749229E+02</totfact>
</mgrwt>
</event>
<event>
 6    1  0.1614874E-005  0.2146804E+04  0.7818608E-02  0.8540902E-01
         -2   -1    0    0    0  501 -0.00000000000E+00  0.00000000000E+00  0.13241484733E+04  0.13241484733E+04  0.00000000000E+00 0.  1.
          2   -1    0    0  501    0  0.00000000000E+00 -0.00000000000E+00 -0.87013778145E+03  0.87013778145E+03  0.00000000000E+00 0. -1.
         23    2    1    2    0    0 -0.50249845455E+03 -0.30447949042E+03  0.11430851918E+04  0.12887277954E+04  0.94673745705E+02 0.  0.
         13    1    3    3    0    0 -0.22094753035E+03 -0.10572366589E+03  0.39013415035E+03  0.46065166879E+03  0.00000000000E+00 0. -1.
        -13    1    3    3    0    0 -0.28155092421E+03 -0.19875582453E+03  0.75295104142E+03  0.82807612662E+03  0.00000000000E+00 0.  1.
         22    1    1    2    0    0  0.50249845455E+03  0.30447949042E+03 -0.68907449989E+03  0.90555845936E+03  0.00000000000E+00 0. -1.
<mgrwt>
<rscale>  0 0.21468038E+04</rscale>
<asrwt>0</asrwt>
<pdfrwt beam="1">  1        2 0.13386735E+00 0.21468038E+04</pdfrwt>
<pdfrwt beam="2">  1       -2 0.20371515E+00 0.21468038E+04</pdfrwt>
<totfact> 0.35467580E+00</totfact>
</mgrwt>
</event>
<event>
 6    1  0.1872389E-005  0.3440558E+04  0.7818608E-02  0.8128023E-01
          2   -1    0    0  501    0  0.00000000000E+00  0.00000000000E+00  0.25774996035E+04  0.25774996035E+04  0.00000000000E+00 0. -1.
         -2   -1    0    0    0  501 -0.00000000000E+00 -0.00000000000E+00 -0.11481515949E+04  0.11481515949E+04  0.00000000000E+00 0.  1.
         23    2    1    2    0    0  0.66335195151E+03 -0.28074106413E+03  0.24054660843E+04  0.25125321381E+04  0.87745689055E+02 0.  0.
         11    1    3    3    0    0  0.48168354395E+03 -0.18435876200E+03  0.15913258658E+04  0.16728195362E+04  0.00000000000E+00 0. -1.
        -11    1    3    3    0    0  0.18166840756E+03 -0.96382302132E+02  0.81414021847E+03  0.83971260191E+03  0.00000000000E+00 0.  1.
         22    1    1    2    0    0 -0.66335195151E+03  0.28074106413E+03 -0.97611807564E+03  0.12131190602E+04  0.00000000000E+00 0.  1.
<mgrwt>
<rscale>  0 0.34405583E+04</rscale>
<asrwt>0</asrwt>
<pdfrwt beam="1">  1        2 0.39653840E+00 0.34405583E+04</pdfrwt>
<pdfrwt beam="2">  1       -2 0.17663871E+00 0.34405583E+04</pdfrwt>
<totfact> 0.49557478E-01</totfact>
</mgrwt>
</event>
<event>
 6    1  0.1614874E-005  0.3507316E+04  0.7818608E-02  0.8112058E-01
          1   -1    0    0  501    0  0.00000000000E+00  0.00000000000E+00  0.13269249126E+04  0.13269249126E+04  0.00000000000E+00 0. -1.
         -1   -1    0    0    0  501 -0.00000000000E+00 -0.00000000000E+00 -0.23176261122E+04  0.23176261122E+04  0.00000000000E+00 0.  1.
         23    2    1    2    0    0  0.92848662159E+03 -0.10578332253E+04 -0.15805791010E+04  0.21184270201E+04  0.91674455737E+02 0.  0.
         11    1    3    3    0    0  0.25744290349E+03 -0.31727714403E+03 -0.51770378287E+03  0.65951409498E+03  0.00000000000E+00 0. -1.
        -11    1    3    3    0    0  0.67104371811E+03 -0.74055608126E+03 -0.10628753181E+04  0.14589129251E+04  0.00000000000E+00 0.  1.
         22    1    1    2    0    0 -0.92848662159E+03  0.10578332253E+04  0.58987790145E+03  0.15261240047E+04  0.00000000000E+00 0. -1.
<mgrwt>
<rscale>  0 0.35073157E+04</rscale>
<asrwt>0</asrwt>
<pdfrwt beam="1">  1        1 0.20414230E+00 0.35073157E+04</pdfrwt>
<pdfrwt beam="2">  1       -1 0.35655786E+00 0.35073157E+04</pdfrwt>
<totfact> 0.99117814E-02</totfact>
</mgrwt>
</event>
<event>
 6    1  0.1614874E-005  0.2851736E+04  0.7818608E-02  0.8287384E-01
         -2   -1    0    0    0  501 -0.00000000000E+00  0.00000000000E+00  0.48982919616E+03  0.48982919616E+03  0.00000000000E+00 0. -1.
          2   -1    0    0  501    0  0.00000000000E+00 -0.00000000000E+00 -0.41506292290E+04  0.41506292290E+04  0.00000000000E+00 0.  1.
         23    2    1    2    0    0  0.10567298493E+04 -0.90593838399E+03 -0.23246666213E+04  0.27110401648E+04  0.90893042167E+02 0.  0.
         13    1    3    3    0    0  0.62058332301E+03 -0.58452284260E+03 -0.14587590723E+04  0.16896060622E+04  0.00000000000E+00 0.  1.
        -13    1    3    3    0    0  0.43614652626E+03 -0.32141554139E+03 -0.86590754900E+03  0.10214341026E+04  0.00000000000E+00 0. -1.
         22    1    1    2    0    0 -0.10567298493E+04  0.90593838399E+03 -0.13361334116E+04  0.19294182604E+04  0.00000000000E+00 0. -1.
<mgrwt>
<rscale>  0 0.28517359E+04</rscale>
<asrwt>0</asrwt>
<pdfrwt beam="1">  1        2 0.63855833E+00 0.28517359E+04</pdfrwt>
<pdfrwt beam="2">  1       -2 0.75358339E-01 0.28517359E+04</pdfrwt>
<totfact> 0.35125999E-01</totfact>
</mgrwt>
</event>
<event>
 6    1  0.1614874E-005  0.2421189E+04  0.7818608E-02  0.8431613E-01
         -1   -1    0    0    0  501 -0.00000000000E+00  0.00000000000E+00  0.15662909841E+04  0.15662909841E+04  0.00000000000E+00 0.  1.
          1   -1    0    0  501    0  0.00000000000E+00 -0.00000000000E+00 -0.93567484682E+03  0.93567484682E+03  0.00000000000E+00 0. -1.
         23    2    1    2    0    0 -0.73186160150E+03  0.65703899046E+03 -0.41062069669E+03  0.10696614697E+04  0.90800134684E+02 0.  0.
         13    1    3    3    0    0 -0.35402341398E+03  0.35903214008E+03 -0.17383704669E+03  0.53334414224E+03  0.00000000000E+00 0. -1.
        -13    1    3    3    0    0 -0.37783818752E+03  0.29800685038E+03 -0.23678365000E+03  0.53631732746E+03  0.00000000000E+00 0.  1.
         22    1    1    2    0    0  0.73186160150E+03 -0.65703899046E+03  0.10412368339E+04  0.14323043612E+04  0.00000000000E+00 0.  1.
<mgrwt>
<rscale>  0 0.24211890E+04</rscale>
<asrwt>0</asrwt>
<pdfrwt beam="1">  1        1 0.14394998E+00 0.24211890E+04</pdfrwt>
<pdfrwt beam="2">  1       -1 0.24096784E+00 0.24211890E+04</pdfrwt>
<totfact> 0.12162566E+00</totfact>
</mgrwt>
</event>
<event>
 6    1  0.1614874E-005  0.1854720E+04  0.7818608E-02  0.8677729E-01
         -2   -1    0    0    0  501 -0.00000000000E+00  0.00000000000E+00  0.50566402237E+03  0.50566402237E+03  0.00000000000E+00 0.  1.
          2   -1    0    0  501    0  0.00000000000E+00 -0.00000000000E+00 -0.17007276094E+04  0.17007276094E+04  0.00000000000E+00 0. -1.
         23    2    1    2    0    0 -0.84874221545E+02  0.90970835040E+03 -0.42665082145E+03  0.10125612022E+04  0.92067086924E+02 0.  0.
         11    1    3    3    0    0 -0.18178212575E+02  0.28785410759E+03 -0.89172260778E+02  0.30189754348E+03  0.00000000000E+00 0.  1.
        -11    1    3    3    0    0 -0.66696008970E+02  0.62185424281E+03 -0.33747856068E+03  0.71066365872E+03  0.00000000000E+00 0. -1.
         22    1    1    2    0    0  0.84874221545E+02 -0.90970835040E+03 -0.76841276557E+03  0.11938304296E+04  0.00000000000E+00 0. -1.
<mgrwt>
<rscale>  0 0.18547202E+04</rscale>
<asrwt>0</asrwt>
<pdfrwt beam="1">  1        2 0.26165040E+00 0.18547202E+04</pdfrwt>
<pdfrwt beam="2">  1       -2 0.77794466E-01 0.18547202E+04</pdfrwt>
<totfact> 0.13553390E+01</totfact>
</mgrwt>
</event>
<event>
 6    1  0.1614874E-005  0.1124828E+04  0.7818608E-02  0.9181325E-01
         -2   -1    0    0    0  501 -0.00000000000E+00  0.00000000000E+00  0.20489655926E+03  0.20489655926E+03  0.00000000000E+00 0.  1.
          2   -1    0    0  501    0  0.00000000000E+00 -0.00000000000E+00 -0.15437518911E+04  0.15437518911E+04  0.00000000000E+00 0. -1.
         23    2    1    2    0    0  0.41604888113E+03  0.27705271461E+03 -0.10620620641E+04  0.11772734498E+04  0.90233417002E+02 0.  0.
         11    1    3    3    0    0  0.11272079756E+03  0.11436070584E+03 -0.27917201672E+03  0.32205801366E+03  0.00000000000E+00 0.  1.
        -11    1    3    3    0    0  0.30332808357E+03  0.16269200877E+03 -0.78289004736E+03  0.85521543617E+03  0.00000000000E+00 0. -1.
         22    1    1    2    0    0 -0.41604888113E+03 -0.27705271461E+03 -0.27679326778E+03  0.57137500054E+03  0.00000000000E+00 0.  1.
<mgrwt>
<rscale>  0 0.11248279E+04</rscale>
<asrwt>0</asrwt>
<pdfrwt beam="1">  1        2 0.23750028E+00 0.11248279E+04</pdfrwt>
<pdfrwt beam="2">  1       -2 0.31522549E-01 0.11248279E+04</pdfrwt>
<totfact> 0.11104088E+02</totfact>
</mgrwt>
</event>
<event>
 6    1  0.1614874E-005  0.1205623E+04  0.7818608E-02  0.9107949E-01
         -2   -1    0    0    0  501 -0.00000000000E+00  0.00000000000E+00  0.74109873591E+03  0.74109873591E+03  0.00000000000E+00 0.  1.
          2   -1    0    0  501    0  0.00000000000E+00 -0.00000000000E+00 -0.49032805562E+03  0.49032805562E+03  0.00000000000E+00 0. -1.
         23    2    1    2    0    0 -0.38568441626E+03  0.25770919566E+03  0.51373766092E+03  0.69821188984E+03  0.91689478123E+02 0.  0.
         13    1    3    3    0    0 -0.26495922354E+03  0.22479761843E+03  0.38724402816E+03  0.52028386170E+03  0.00000000000E+00 0. -1.
        -13    1    3    3    0    0 -0.12072519272E+03  0.32911577224E+02  0.12649363275E+03  0.17792802815E+03  0.00000000000E+00 0.  1.
         22    1    1    2    0    0  0.38568441626E+03 -0.25770919566E+03 -0.26296698062E+03  0.53321490168E+03  0.00000000000E+00 0. -1.
<mgrwt>
<rscale>  0 0.12056227E+04</rscale>
<asrwt>0</asrwt>
<pdfrwt beam="1">  1        2 0.75435085E-01 0.12056227E+04</pdfrwt>
<pdfrwt beam="2">  1       -2 0.11401519E+00 0.12056227E+04</pdfrwt>
<totfact> 0.37411333E+01</totfact>
</mgrwt>
</event>
<event>
 6    1  0.1614874E-005  0.2038545E+04  0.7818608E-02  0.8588809E-01
          2   -1    0    0  501    0  0.00000000000E+00  0.00000000000E+00  0.23642735860E+04  0.23642735860E+04  0.00000000000E+00 0. -1.
         -2   -1    0    0    0  501 -0.00000000000E+00 -0.00000000000E+00 -0.43942326796E+03  0.43942326796E+03  0.00000000000E+00 0.  1.
         23    2    1    2    0    0 -0.21541333891E+03 -0.73075872575E+03  0.37314880528E+02  0.76821134685E+03  0.91351252189E+02 0.  0.
         13    1    3    3    0    0 -0.13646984316E+03 -0.31728149899E+03 -0.24159593797E+01  0.34539456358E+03  0.00000000000E+00 0.  1.
        -13    1    3    3    0    0 -0.78943495754E+02 -0.41347722676E+03  0.39730839908E+02  0.42281678326E+03  0.00000000000E+00 0. -1.
         22    1    1    2    0    0  0.21541333891E+03  0.73075872575E+03  0.18875354375E+04  0.20354855071E+04  0.00000000000E+00 0. -1.
<mgrwt>
<rscale>  0 0.20385454E+04</rscale>
<asrwt>0</asrwt>
<pdfrwt beam="1">  1        2 0.36373439E+00 0.20385454E+04</pdfrwt>
<pdfrwt beam="2">  1       -2 0.67603581E-01 0.20385454E+04</pdfrwt>
<totfact> 0.77415879E+00</totfact>
</mgrwt>
</event>
<event>
 6    1  0.1614874E-005  0.2101430E+04  0.7818608E-02  0.8560614E-01
         -2   -1    0    0    0  501 -0.00000000000E+00  0.00000000000E+00  0.21387118959E+04  0.21387118959E+04  0.00000000000E+00 0.  1.
          2   -1    0    0  501    0  0.00000000000E+00 -0.00000000000E+00 -0.51619946362E+03  0.51619946362E+03  0.00000000000E+00 0. -1.
         23    2    1    2    0    0 -0.66169158397E+03  0.10811929901E+03 -0.20605413316E+03  0.70730225619E+03  0.91063937408E+02 0.  0.
         11    1    3    3    0    0 -0.34857258726E+03  0.10150236192E+03 -0.98744613289E+02  0.37623938752E+03  0.00000000000E+00 0.  1.
        -11    1    3    3    0    0 -0.31311899671E+03  0.66169370943E+01 -0.10730951987E+03  0.33106286867E+03  0.00000000000E+00 0. -1.
         22    1    1    2    0    0  0.66169158397E+03 -0.10811929901E+03  0.18285665654E+04  0.19476091033E+04  0.00000000000E+00 0.  1.
<mgrwt>
<rscale>  0 0.21014299E+04</rscale>
<asrwt>0</asrwt>
<pdfrwt beam="1">  1        2 0.79415303E-01 0.21014299E+04</pdfrwt>
<pdfrwt beam="2">  1       -2 0.32903260E+00 0.21014299E+04</pdfrwt>
<totfact> 0.11523023E+00</totfact>
</mgrwt>
</event>
<event>
 6    1  0.1614874E-005  0.3525126E+04  0.7818608E-02  0.8107861E-01
         -1   -1    0    0    0  501 -0.00000000000E+00  0.00000000000E+00  0.21196946920E+04  0.21196946920E+04  0.00000000000E+00 0.  1.
          1   -1    0    0  501    0  0.00000000000E+00 -0.00000000000E+00 -0.14656019088E+04  0.14656019088E+04  0.00000000000E+00 0. -1.
         23    2    1    2    0    0 -0.93188375002E+03 -0.77398566063E+03 -0.97318157439E+03  0.15566312856E+04  0.92506519294E+02 0.  0.
         13    1    3    3    0    0 -0.41478092191E+03 -0.28633822094E+03 -0.41489968884E+03  0.65282045139E+03  0.00000000000E+00 0.  1.
        -13    1    3    3    0    0 -0.51710282811E+03 -0.48764743968E+03 -0.55828188556E+03  0.90381083420E+03  0.00000000000E+00 0. -1.
         22    1    1    2    0    0  0.93188375002E+03  0.77398566063E+03  0.16272743576E+04  0.20286653153E+04  0.00000000000E+00 0.  1.
<mgrwt>
<rscale>  0 0.35251261E+04</rscale>
<asrwt>0</asrwt>
<pdfrwt beam="1">  1        1 0.22547722E+00 0.35251261E+04</pdfrwt>
<pdfrwt beam="2">  1       -1 0.32610688E+00 0.35251261E+04</pdfrwt>
<totfact> 0.12559519E-01</totfact>
</mgrwt>
</event>
<event>
 6    1  0.1614874E-005  0.4046765E+04  0.7818608E-02  0.7995178E-01
          2   -1    0    0  501    0  0.00000000000E+00  0.00000000000E+00  0.26300592960E+04  0.26300592960E+04  0.00000000000E+00 0. -1.
         -2   -1    0    0    0  501 -0.00000000000E+00 -0.00000000000E+00 -0.15566483934E+04  0.15566483934E+04  0.00000000000E+00 0.  1.
         23    2    1    2    0    0  0.13249500986E+04  0.10061520453E+04 -0.65294709756E+03  0.17891784098E+04  0.83574923845E+02 0.  0.
         13    1    3    3    0    0  0.23881585347E+03  0.14228956940E+03 -0.11018485074E+03  0.29903182901E+03  0.00000000000E+00 0. -1.
        -13    1    3    3    0    0  0.10861342452E+04  0.86386247589E+03 -0.54276224682E+03  0.14901465808E+04  0.00000000000E+00 0.  1.
         22    1    1    2    0    0 -0.13249500986E+04 -0.10061520453E+04  0.17263580001E+04  0.23975292796E+04  0.00000000000E+00 0. -1.
<mgrwt>
<rscale>  0 0.40467654E+04</rscale>
<asrwt>0</asrwt>
<pdfrwt beam="1">  1        2 0.40462451E+00 0.40467654E+04</pdfrwt>
<pdfrwt beam="2">  1       -2 0.23948437E+00 0.40467654E+04</pdfrwt>
<totfact> 0.17133254E-01</totfact>
</mgrwt>
</event>
<event>
 6    1  0.1614874E-005  0.1209366E+04  0.7818608E-02  0.9104698E-01
         -1   -1    0    0    0  501 -0.00000000000E+00  0.00000000000E+00  0.17187971115E+03  0.17187971115E+03  0.00000000000E+00 0.  1.
          1   -1    0    0  501    0  0.00000000000E+00 -0.00000000000E+00 -0.21273115123E+04  0.21273115123E+04  0.00000000000E+00 0. -1.
         23    2    1    2    0    0 -0.47660173066E+03  0.36280663764E+03 -0.88912302669E+03  0.10761653576E+04  0.93884260636E+02 0.  0.
         13    1    3    3    0    0 -0.34702836628E+03  0.26449167012E+03 -0.56846731611E+03  0.71661678745E+03  0.00000000000E+00 0. -1.
        -13    1    3    3    0    0 -0.12957336438E+03  0.98314967518E+02 -0.32065571058E+03  0.35954857018E+03  0.00000000000E+00 0.  1.
         22    1    1    2    0    0  0.47660173066E+03 -0.36280663764E+03 -0.10663087745E+04  0.12230258659E+04  0.00000000000E+00 0. -1.
<mgrwt>
<rscale>  0 0.12093663E+04</rscale>
<asrwt>0</asrwt>
<pdfrwt beam="1">  1        1 0.32727869E+00 0.12093663E+04</pdfrwt>
<pdfrwt beam="2">  1       -1 0.26443033E-01 0.12093663E+04</pdfrwt>
<totfact> 0.30792123E+01</totfact>
</mgrwt>
</event>
<event>
 6    1  0.1614874E-005  0.9364081E+03  0.7818608E-02  0.9381180E-01
         -1   -1    0    0    0  501 -0.00000000000E+00  0.00000000000E+00  0.18192892799E+03  0.18192892799E+03  0.00000000000E+00 0.  1.
          1   -1    0    0  501    0  0.00000000000E+00 -0.00000000000E+00 -0.12049488437E+04  0.12049488437E+04  0.00000000000E+00 0. -1.
         23    2    1    2    0    0  0.46250657896E+03 -0.23120326857E+02 -0.47518151373E+03  0.66953977620E+03  0.89661339661E+02 0.  0.
         13    1    3    3    0    0  0.21961366460E+03  0.31575991742E+02 -0.20406130182E+03  0.30144355995E+03  0.00000000000E+00 0.  1.
        -13    1    3    3    0    0  0.24289291437E+03 -0.54696318599E+02 -0.27112021190E+03  0.36809621625E+03  0.00000000000E+00 0. -1.
         22    1    1    2    0    0 -0.46250657896E+03  0.23120326857E+02 -0.54783840200E+03  0.71733799551E+03  0.00000000000E+00 0. -1.
<mgrwt>
<rscale>  0 0.93640814E+03</rscale>
<asrwt>0</asrwt>
<pdfrwt beam="1">  1        1 0.18537674E+00 0.93640814E+03</pdfrwt>
<pdfrwt beam="2">  1       -1 0.27989067E-01 0.93640814E+03</pdfrwt>
<totfact> 0.12268395E+02</totfact>
</mgrwt>
</event>
<event>
 6    1  0.1614874E-005  0.3433883E+04  0.7818608E-02  0.8129640E-01
         -1   -1    0    0    0  501 -0.00000000000E+00  0.00000000000E+00  0.22045999266E+04  0.22045999266E+04  0.00000000000E+00 0.  1.
          1   -1    0    0  501    0  0.00000000000E+00 -0.00000000000E+00 -0.13371533935E+04  0.13371533935E+04  0.00000000000E+00 0. -1.
         23    2    1    2    0    0  0.89012133186E+03  0.52874864801E+03  0.18451972153E+04  0.21177141651E+04  0.89829859927E+02 0.  0.
         13    1    3    3    0    0  0.31834128441E+03  0.14021319670E+03  0.60678124590E+03  0.69941718184E+03  0.00000000000E+00 0. -1.
        -13    1    3    3    0    0  0.57178004745E+03  0.38853545131E+03  0.12384159694E+04  0.14182969833E+04  0.00000000000E+00 0.  1.
         22    1    1    2    0    0 -0.89012133186E+03 -0.52874864801E+03 -0.97775068225E+03  0.14240391550E+04  0.00000000000E+00 0. -1.
<mgrwt>
<rscale>  0 0.34338831E+04</rscale>
<asrwt>0</asrwt>
<pdfrwt beam="1">  1        1 0.20571591E+00 0.34338831E+04</pdfrwt>
<pdfrwt beam="2">  1       -1 0.33916922E+00 0.34338831E+04</pdfrwt>
<totfact> 0.12787947E-01</totfact>
</mgrwt>
</event>
<event>
 6    1  0.1614874E-005  0.1677546E+04  0.7818608E-02  0.8774275E-01
         -2   -1    0    0    0  501 -0.00000000000E+00  0.00000000000E+00  0.55782384812E+03  0.55782384812E+03  0.00000000000E+00 0.  1.
          2   -1    0    0  501    0  0.00000000000E+00 -0.00000000000E+00 -0.12612230094E+04  0.12612230094E+04  0.00000000000E+00 0. -1.
         23    2    1    2    0    0 -0.33034989715E+02  0.83122315782E+03 -0.44792255425E+03  0.94882186052E+03  0.87206993696E+02 0.  0.
         13    1    3    3    0    0  0.13387217980E+01  0.71305414262E+03 -0.39111091885E+03  0.81327470963E+03  0.00000000000E+00 0.  1.
        -13    1    3    3    0    0 -0.34373711513E+02  0.11816901520E+03 -0.56811635403E+02  0.13554715089E+03  0.00000000000E+00 0. -1.
         22    1    1    2    0    0  0.33034989715E+02 -0.83122315782E+03 -0.25547660701E+03  0.87022499698E+03  0.00000000000E+00 0. -1.
<mgrwt>
<rscale>  0 0.16775462E+04</rscale>
<asrwt>0</asrwt>
<pdfrwt beam="1">  1        2 0.19403431E+00 0.16775462E+04</pdfrwt>
<pdfrwt beam="2">  1       -2 0.85819054E-01 0.16775462E+04</pdfrwt>
<totfact> 0.19576996E+01</totfact>
</mgrwt>
</event>
<event>
 6    1  0.1614874E-005  0.2886954E+04  0.7818608E-02  0.8276770E-01
          2   -1    0    0  501    0  0.00000000000E+00  0.00000000000E+00  0.10277623462E+04  0.10277623462E+04  0.00000000000E+00 0. -1.
         -2   -1    0    0    0  501 -0.00000000000E+00 -0.00000000000E+00 -0.20273424052E+04  0.20273424052E+04  0.00000000000E+00 0.  1.
         23    2    1    2    0    0 -0.54593762607E+03 -0.88417178120E+03 -0.15583525346E+04  0.18752597151E+04  0.91261967382E+02 0.  0.
         11    1    3    3    0    0 -0.30857988864E+03 -0.49735096670E+03 -0.95834367217E+03  0.11229435096E+04  0.00000000000E+00 0.  1.
        -11    1    3    3    0    0 -0.23735773743E+03 -0.38682081450E+03 -0.60000886245E+03  0.75231620551E+03  0.00000000000E+00 0. -1.
         22    1    1    2    0    0  0.54593762607E+03  0.88417178120E+03  0.55877247556E+03  0.11798450363E+04  0.00000000000E+00 0. -1.
<mgrwt>
<rscale>  0 0.28869542E+04</rscale>
<asrwt>0</asrwt>
<pdfrwt beam="1">  1        2 0.15811729E+00 0.28869542E+04</pdfrwt>
<pdfrwt beam="2">  1       -2 0.31189883E+00 0.28869542E+04</pdfrwt>
<totfact> 0.56115007E-01</totfact>
</mgrwt>
</event>
<event>
 6    1  0.1614874E-005  0.3793453E+04  0.7818608E-02  0.8047561E-01
          2   -1    0    0  501    0  0.00000000000E+00  0.00000000000E+00  0.14837889596E+04  0.14837889596E+04  0.00000000000E+00 0.  1.
         -2   -1    0    0    0  501 -0.00000000000E+00 -0.00000000000E+00 -0.24245846267E+04  0.24245846267E+04  0.00000000000E+00 0. -1.
         23    2    1    2    0    0 -0.80960000423E+03  0.71330238180E+03  0.11351897128E+04  0.15687223832E+04  0.89340790952E+02 0.  0.
         11    1    3    3    0    0 -0.37961286028E+03  0.32592443837E+03  0.46274032481E+03  0.68151395541E+03  0.00000000000E+00 0. -1.
        -11    1    3    3    0    0 -0.42998714395E+03  0.38737794343E+03  0.67244938795E+03  0.88720842781E+03  0.00000000000E+00 0.  1.
         22    1    1    2    0    0  0.80960000423E+03 -0.71330238180E+03 -0.20759853799E+04  0.23396512031E+04  0.00000000000E+00 0. -1.
<mgrwt>
<rscale>  0 0.37934533E+04</rscale>
<asrwt>0</asrwt>
<pdfrwt beam="1">  1        2 0.22827523E+00 0.37934533E+04</pdfrwt>
<pdfrwt beam="2">  1       -2 0.37301302E+00 0.37934533E+04</pdfrwt>
<totfact> 0.11543887E-01</totfact>
</mgrwt>
</event>
<event>
 6    1  0.1614874E-005  0.2423029E+04  0.7818608E-02  0.8430932E-01
         -2   -1    0    0    0  501 -0.00000000000E+00  0.00000000000E+00  0.43113502546E+03  0.43113502546E+03  0.00000000000E+00 0. -1.
          2   -1    0    0  501    0  0.00000000000E+00 -0.00000000000E+00 -0.34044251596E+04  0.34044251596E+04  0.00000000000E+00 0.  1.
         23    2    1    2    0    0  0.84517543405E+03 -0.73576509578E+03 -0.22107775755E+04  0.24801645998E+04  0.89482754371E+02 0.  0.
         11    1    3    3    0    0  0.68296352813E+03 -0.63685693471E+03 -0.18143138898E+04  0.20405295457E+04  0.00000000000E+00 0.  1.
        -11    1    3    3    0    0  0.16221190592E+03 -0.98908161073E+02 -0.39646368562E+03  0.43963505407E+03  0.00000000000E+00 0. -1.
         22    1    1    2    0    0 -0.84517543405E+03  0.73576509578E+03 -0.76251255872E+03  0.13553955853E+04  0.00000000000E+00 0. -1.
<mgrwt>
<rscale>  0 0.24230286E+04</rscale>
<asrwt>0</asrwt>
<pdfrwt beam="1">  1        2 0.52375772E+00 0.24230286E+04</pdfrwt>
<pdfrwt beam="2">  1       -2 0.66328465E-01 0.24230286E+04</pdfrwt>
<totfact> 0.17785379E+00</totfact>
</mgrwt>
</event>
<event>
 6    1  0.1614874E-005  0.6627281E+03  0.7818608E-02  0.9783185E-01
          2   -1    0    0  501    0  0.00000000000E+00  0.00000000000E+00  0.20364555464E+03  0.20364555464E+03  0.00000000000E+00 0. -1.
         -2   -1    0    0    0  501 -0.00000000000E+00 -0.00000000000E+00 -0.53918262887E+03  0.53918262887E+03  0.00000000000E+00 0.  1.
         23    2    1    2    0    0 -0.12840304828E+03 -0.24792793691E+03  0.14795067163E+02  0.29484580216E+03  0.93592458743E+02 0.  0.
         13    1    3    3    0    0 -0.40841599293E+02 -0.13371497143E+02  0.11377118614E+02  0.44455280863E+02  0.00000000000E+00 0. -1.
        -13    1    3    3    0    0 -0.87561448982E+02 -0.23455643977E+03  0.34179485492E+01  0.25039052130E+03  0.00000000000E+00 0.  1.
         22    1    1    2    0    0  0.12840304828E+03  0.24792793691E+03 -0.35033214139E+03  0.44798238135E+03  0.00000000000E+00 0.  1.
<mgrwt>
<rscale>  0 0.66272814E+03</rscale>
<asrwt>0</asrwt>
<pdfrwt beam="1">  1        2 0.31330085E-01 0.66272814E+03</pdfrwt>
<pdfrwt beam="2">  1       -2 0.82951174E-01 0.66272814E+03</pdfrwt>
<totfact> 0.21810392E+02</totfact>
</mgrwt>
</event>
<event>
 6    1  0.1614874E-005  0.1435045E+04  0.7818608E-02  0.8928834E-01
          1   -1    0    0  501    0  0.00000000000E+00  0.00000000000E+00  0.55222183310E+03  0.55222183310E+03  0.00000000000E+00 0. -1.
         -1   -1    0    0    0  501 -0.00000000000E+00 -0.00000000000E+00 -0.93230437835E+03  0.93230437835E+03  0.00000000000E+00 0.  1.
         23    2    1    2    0    0  0.27273052611E+03 -0.63338820621E+03 -0.38438823328E+03  0.79490232947E+03  0.92481565001E+02 0.  0.
         11    1    3    3    0    0  0.98665175950E+02 -0.33001662009E+03 -0.16402403666E+03  0.38150972607E+03  0.00000000000E+00 0.  1.
        -11    1    3    3    0    0  0.17406535017E+03 -0.30337158612E+03 -0.22036419662E+03  0.41339260340E+03  0.00000000000E+00 0. -1.
         22    1    1    2    0    0 -0.27273052611E+03  0.63338820621E+03  0.43056880255E+01  0.68962388198E+03  0.00000000000E+00 0. -1.
<mgrwt>
<rscale>  0 0.14350454E+04</rscale>
<asrwt>0</asrwt>
<pdfrwt beam="1">  1        1 0.84957206E-01 0.14350454E+04</pdfrwt>
<pdfrwt beam="2">  1       -1 0.14343144E+00 0.14350454E+04</pdfrwt>
<totfact> 0.14751481E+01</totfact>
</mgrwt>
</event>
<event>
 6    1  0.1614874E-005  0.3741435E+04  0.7818608E-02  0.8058841E-01
          1   -1    0    0  501    0  0.00000000000E+00  0.00000000000E+00  0.16000631635E+04  0.16000631635E+04  0.00000000000E+00 0. -1.
         -1   -1    0    0    0  501 -0.00000000000E+00 -0.00000000000E+00 -0.21871539156E+04  0.21871539156E+04  0.00000000000E+00 0.  1.
         23    2    1    2    0    0 -0.93341997712E+03 -0.42612918283E+03 -0.18757247048E+04  0.21399659148E+04  0.90840597349E+02 0.  0.
         13    1    3    3    0    0 -0.62985989623E+03 -0.28682927634E+03 -0.11741631197E+04  0.13629576495E+04  0.00000000000E+00 0.  1.
        -13    1    3    3    0    0 -0.30356008089E+03 -0.13929990650E+03 -0.70156158506E+03  0.77700826527E+03  0.00000000000E+00 0. -1.
         22    1    1    2    0    0  0.93341997712E+03  0.42612918283E+03  0.12886339527E+04  0.16472511643E+04  0.00000000000E+00 0. -1.
<mgrwt>
<rscale>  0 0.37414352E+04</rscale>
<asrwt>0</asrwt>
<pdfrwt beam="1">  1        1 0.24616356E+00 0.37414352E+04</pdfrwt>
<pdfrwt beam="2">  1       -1 0.33648522E+00 0.37414352E+04</pdfrwt>
<totfact> 0.85112151E-02</totfact>
</mgrwt>
</event>
<event>
 6    1  0.1614874E-005  0.1106503E+04  0.7818608E-02  0.9198877E-01
          2   -1    0    0  501    0  0.00000000000E+00  0.00000000000E+00  0.11853611195E+04  0.11853611195E+04  0.00000000000E+00 0.  1.
         -2   -1    0    0    0  501 -0.00000000000E+00 -0.00000000000E+00 -0.25822266179E+03  0.25822266179E+03  0.00000000000E+00 0. -1.
         23    2    1    2    0    0  0.42834631500E+03 -0.23499996162E+03  0.13837014709E+03  0.51575783027E+03  0.90301131451E+02 0.  0.
         13    1    3    3    0    0  0.36382876382E+03 -0.19842604087E+03  0.81640629562E+02  0.42238543473E+03  0.00000000000E+00 0.  1.
        -13    1    3    3    0    0  0.64517551182E+02 -0.36573920750E+02  0.56729517528E+02  0.93372395538E+02  0.00000000000E+00 0. -1.
         22    1    1    2    0    0 -0.42834631500E+03  0.23499996162E+03  0.78876831063E+03  0.92782595102E+03  0.00000000000E+00 0.  1.
<mgrwt>
<rscale>  0 0.11065028E+04</rscale>
<asrwt>0</asrwt>
<pdfrwt beam="1">  1        2 0.18236325E+00 0.11065028E+04</pdfrwt>
<pdfrwt beam="2">  1       -2 0.39726564E-01 0.11065028E+04</pdfrwt>
<totfact> 0.11489329E+02</totfact>
</mgrwt>
</event>
<event>
 6    1  0.1614874E-005  0.3118616E+04  0.7818608E-02  0.8210648E-01
          2   -1    0    0  501    0  0.00000000000E+00  0.00000000000E+00  0.23287589361E+04  0.23287589361E+04  0.00000000000E+00 0. -1.
         -2   -1    0    0    0  501 -0.00000000000E+00 -0.00000000000E+00 -0.10440929121E+04  0.10440929121E+04  0.00000000000E+00 0.  1.
         23    2    1    2    0    0  0.76739832501E+03 -0.11370690464E+04  0.14415797435E+04  0.19921099748E+04  0.92324370399E+02 0.  0.
         13    1    3    3    0    0  0.20462281848E+03 -0.23805442202E+03  0.34842607890E+03  0.46897882483E+03  0.00000000000E+00 0.  1.
        -13    1    3    3    0    0  0.56277550653E+03 -0.89901462443E+03  0.10931536646E+04  0.15231311500E+04  0.00000000000E+00 0. -1.
         22    1    1    2    0    0 -0.76739832501E+03  0.11370690464E+04 -0.15691371944E+03  0.13807418734E+04  0.00000000000E+00 0.  1.
<mgrwt>
<rscale>  0 0.31186155E+04</rscale>
<asrwt>0</asrwt>
<pdfrwt beam="1">  1        2 0.35827060E+00 0.31186155E+04</pdfrwt>
<pdfrwt beam="2">  1       -2 0.16062968E+00 0.31186155E+04</pdfrwt>
<totfact> 0.92229874E-01</totfact>
</mgrwt>
</event>
<event>
 6    1  0.1614874E-005  0.1454723E+04  0.7818608E-02  0.8915133E-01
          1   -1    0    0  501    0  0.00000000000E+00  0.00000000000E+00  0.51527899492E+03  0.51527899492E+03  0.00000000000E+00 0. -1.
         -1   -1    0    0    0  501 -0.00000000000E+00 -0.00000000000E+00 -0.10267344822E+04  0.10267344822E+04  0.00000000000E+00 0.  1.
         23    2    1    2    0    0 -0.74963556134E+02  0.52979086393E+03  0.26103546912E+03  0.60231130517E+03  0.91331801390E+02 0.  0.
         11    1    3    3    0    0 -0.66721071972E+02  0.31401444151E+03  0.19876990735E+03  0.37757945785E+03  0.00000000000E+00 0.  1.
        -11    1    3    3    0    0 -0.82424841622E+01  0.21577642242E+03  0.62265561767E+02  0.22473184732E+03  0.00000000000E+00 0. -1.
         22    1    1    2    0    0  0.74963556134E+02 -0.52979086393E+03 -0.77249095642E+03  0.93970217197E+03  0.00000000000E+00 0.  1.
<mgrwt>
<rscale>  0 0.14547229E+04</rscale>
<asrwt>0</asrwt>
<pdfrwt beam="1">  1        1 0.79273693E-01 0.14547229E+04</pdfrwt>
<pdfrwt beam="2">  1       -1 0.15795915E+00 0.14547229E+04</pdfrwt>
<totfact> 0.12499838E+01</totfact>
</mgrwt>
</event>
<event>
 6    1  0.1614874E-005  0.3789584E+04  0.7818608E-02  0.8048394E-01
         -2   -1    0    0    0  501 -0.00000000000E+00  0.00000000000E+00  0.10070394951E+04  0.10070394951E+04  0.00000000000E+00 0. -1.
          2   -1    0    0  501    0  0.00000000000E+00 -0.00000000000E+00 -0.35651391670E+04  0.35651391670E+04  0.00000000000E+00 0.  1.
         23    2    1    2    0    0 -0.11065720127E+04 -0.58501339102E+03 -0.29937571977E+04  0.32468335121E+04  0.11226490762E+03 0.  0.
         11    1    3    3    0    0 -0.77979491334E+03 -0.45745393444E+03 -0.20756872758E+04  0.22640277993E+04  0.00000000000E+00 0. -1.
        -11    1    3    3    0    0 -0.32677709938E+03 -0.12755945658E+03 -0.91806992189E+03  0.98280571281E+03  0.00000000000E+00 0.  1.
         22    1    1    2    0    0  0.11065720127E+04  0.58501339102E+03  0.43565752577E+03  0.13253451501E+04  0.00000000000E+00 0. -1.
<mgrwt>
<rscale>  0 0.37895836E+04</rscale>
<asrwt>0</asrwt>
<pdfrwt beam="1">  1        2 0.54848296E+00 0.37895836E+04</pdfrwt>
<pdfrwt beam="2">  1       -2 0.15492915E+00 0.37895836E+04</pdfrwt>
<totfact> 0.16097753E-01</totfact>
</mgrwt>
</event>
<event>
 6    1  0.1614874E-005  0.1716909E+04  0.7818608E-02  0.8751779E-01
          2   -1    0    0  501    0  0.00000000000E+00  0.00000000000E+00  0.20944617441E+04  0.20944617441E+04  0.00000000000E+00 0. -1.
         -2   -1    0    0    0  501 -0.00000000000E+00 -0.00000000000E+00 -0.35185375583E+03  0.35185375583E+03  0.00000000000E+00 0.  1.
         23    2    1    2    0    0 -0.34129073789E+02 -0.50550706948E+03 -0.10875008843E+03  0.52688096884E+03  0.95261653467E+02 0.  0.
         11    1    3    3    0    0 -0.10749797377E+02 -0.12331898483E+03  0.14495695500E+02  0.12463248112E+03  0.00000000000E+00 0.  1.
        -11    1    3    3    0    0 -0.23379276412E+02 -0.38218808466E+03 -0.12324578393E+03  0.40224848772E+03  0.00000000000E+00 0. -1.
         22    1    1    2    0    0  0.34129073789E+02  0.50550706948E+03  0.18513580766E+04  0.19194345310E+04  0.00000000000E+00 0. -1.
<mgrwt>
<rscale>  0 0.17169091E+04</rscale>
<asrwt>0</asrwt>
<pdfrwt beam="1">  1        2 0.32222488E+00 0.17169091E+04</pdfrwt>
<pdfrwt beam="2">  1       -2 0.54131348E-01 0.17169091E+04</pdfrwt>
<totfact> 0.18076584E+01</totfact>
</mgrwt>
</event>
<event>
 6    1  0.1614874E-005  0.1184811E+04  0.7818608E-02  0.9126257E-01
          2   -1    0    0  501    0  0.00000000000E+00  0.00000000000E+00  0.64500843416E+03  0.64500843416E+03  0.00000000000E+00 0.  1.
         -2   -1    0    0    0  501 -0.00000000000E+00 -0.00000000000E+00 -0.54409210935E+03  0.54409210935E+03  0.00000000000E+00 0. -1.
         23    2    1    2    0    0 -0.35441842008E+03  0.47022883117E+03  0.53495439336E+02  0.59835837425E+03  0.91888039804E+02 0.  0.
         11    1    3    3    0    0 -0.17872399804E+03  0.29332246044E+03  0.61293260499E+02  0.34890857980E+03  0.00000000000E+00 0.  1.
        -11    1    3    3    0    0 -0.17569442204E+03  0.17690637073E+03 -0.77978211634E+01  0.24944979446E+03  0.00000000000E+00 0. -1.
         22    1    1    2    0    0  0.35441842008E+03 -0.47022883117E+03  0.47420885475E+02  0.59074216925E+03  0.00000000000E+00 0. -1.
<mgrwt>
<rscale>  0 0.11848105E+04</rscale>
<asrwt>0</asrwt>
<pdfrwt beam="1">  1        2 0.99232067E-01 0.11848105E+04</pdfrwt>
<pdfrwt beam="2">  1       -2 0.83706478E-01 0.11848105E+04</pdfrwt>
<totfact> 0.55969850E+01</totfact>
</mgrwt>
</event>
<event>
 6    1  0.1614874E-005  0.5893891E+04  0.7818608E-02  0.7703699E-01
         -2   -1    0    0    0  501 -0.00000000000E+00  0.00000000000E+00  0.31285279492E+04  0.31285279492E+04  0.00000000000E+00 0. -1.
          2   -1    0    0  501    0  0.00000000000E+00 -0.00000000000E+00 -0.27759024920E+04  0.27759024920E+04  0.00000000000E+00 0.  1.
         23    2    1    2    0    0 -0.23923974880E+03  0.27978757184E+04 -0.71686649877E+03  0.28995748312E+04  0.91062789475E+02 0.  0.
         11    1    3    3    0    0 -0.17377021622E+03  0.22998256970E+04 -0.61578677217E+03  0.23871714797E+04  0.00000000000E+00 0.  1.
        -11    1    3    3    0    0 -0.65469532585E+02  0.49805002142E+03 -0.10107972660E+03  0.51240335153E+03  0.00000000000E+00 0. -1.
         22    1    1    2    0    0  0.23923974880E+03 -0.27978757184E+04  0.10694919561E+04  0.30048556100E+04  0.00000000000E+00 0. -1.
<mgrwt>
<rscale>  0 0.58938913E+04</rscale>
<asrwt>0</asrwt>
<pdfrwt beam="1">  1        2 0.42706192E+00 0.58938913E+04</pdfrwt>
<pdfrwt beam="2">  1       -2 0.48131199E+00 0.58938913E+04</pdfrwt>
<totfact> 0.35435852E-03</totfact>
</mgrwt>
</event>
<event>
 6    1  0.1614874E-005  0.3279382E+04  0.7818608E-02  0.8168162E-01
         -2   -1    0    0    0  501 -0.00000000000E+00  0.00000000000E+00  0.10509844831E+04  0.10509844831E+04  0.00000000000E+00 0.  1.
          2   -1    0    0  501    0  0.00000000000E+00 -0.00000000000E+00 -0.25581597393E+04  0.25581597393E+04  0.00000000000E+00 0. -1.
         23    2    1    2    0    0 -0.99749832272E+03  0.93005602447E+03 -0.17534397381E+04  0.22232678543E+04  0.91443557857E+02 0.  0.
         13    1    3    3    0    0 -0.74912116431E+03  0.66108371229E+03 -0.12336112625E+04  0.15874542325E+04  0.00000000000E+00 0.  1.
        -13    1    3    3    0    0 -0.24837715841E+03  0.26897231218E+03 -0.51982847566E+03  0.63581362178E+03  0.00000000000E+00 0. -1.
         22    1    1    2    0    0  0.99749832272E+03 -0.93005602447E+03  0.24626448192E+03  0.13858763681E+04  0.00000000000E+00 0.  1.
<mgrwt>
<rscale>  0 0.32793818E+04</rscale>
<asrwt>0</asrwt>
<pdfrwt beam="1">  1        2 0.39356303E+00 0.32793818E+04</pdfrwt>
<pdfrwt beam="2">  1       -2 0.16168992E+00 0.32793818E+04</pdfrwt>
<totfact> 0.65922398E-01</totfact>
</mgrwt>
</event>
<event>
 6    1  0.1614874E-005  0.1281680E+04  0.7818608E-02  0.9044221E-01
         -1   -1    0    0    0  501 -0.00000000000E+00  0.00000000000E+00  0.18098643732E+03  0.18098643732E+03  0.00000000000E+00 0.  1.
          1   -1    0    0  501    0  0.00000000000E+00 -0.00000000000E+00 -0.22690975990E+04  0.22690975990E+04  0.00000000000E+00 0. -1.
         23    2    1    2    0    0  0.26155096869E+03  0.21272954417E+03 -0.20838582858E+04  0.21129181200E+04  0.91076112939E+02 0.  0.
         13    1    3    3    0    0  0.10776757128E+03  0.41223128425E+02 -0.56173230193E+03  0.57346000276E+03  0.00000000000E+00 0. -1.
        -13    1    3    3    0    0  0.15378339741E+03  0.17150641575E+03 -0.15221259838E+04  0.15394581172E+04  0.00000000000E+00 0.  1.
         22    1    1    2    0    0 -0.26155096869E+03 -0.21272954417E+03 -0.42528758974E+01  0.33716591634E+03  0.00000000000E+00 0.  1.
<mgrwt>
<rscale>  0 0.12816800E+04</rscale>
<asrwt>0</asrwt>
<pdfrwt beam="1">  1        1 0.34909193E+00 0.12816800E+04</pdfrwt>
<pdfrwt beam="2">  1       -1 0.27844068E-01 0.12816800E+04</pdfrwt>
<totfact> 0.22419516E+01</totfact>
</mgrwt>
</event>
<event>
 6    1  0.1614874E-005  0.3160842E+04  0.7818608E-02  0.8199236E-01
          2   -1    0    0  501    0  0.00000000000E+00  0.00000000000E+00  0.32304458103E+04  0.32304458103E+04  0.00000000000E+00 0. -1.
         -2   -1    0    0    0  501 -0.00000000000E+00 -0.00000000000E+00 -0.77318427520E+03  0.77318427520E+03  0.00000000000E+00 0.  1.
         23    2    1    2    0    0 -0.12891933393E+04  0.56561379009E+03  0.32208139082E+03  0.14461053692E+04  0.74470738620E+02 0.  0.
         13    1    3    3    0    0 -0.21852421808E+03  0.67744790055E+02  0.42627143088E+02  0.23272142960E+03  0.00000000000E+00 0.  1.
        -13    1    3    3    0    0 -0.10706691213E+04  0.49786900003E+03  0.27945424773E+03  0.12133839396E+04  0.00000000000E+00 0. -1.
         22    1    1    2    0    0  0.12891933393E+04 -0.56561379009E+03  0.21351801442E+04  0.25575247162E+04  0.00000000000E+00 0. -1.
<mgrwt>
<rscale>  0 0.31608416E+04</rscale>
<asrwt>0</asrwt>
<pdfrwt beam="1">  1        2 0.49699165E+00 0.31608416E+04</pdfrwt>
<pdfrwt beam="2">  1       -2 0.11895143E+00 0.31608416E+04</pdfrwt>
<totfact> 0.56730727E-01</totfact>
</mgrwt>
</event>
<event>
 6    1  0.1614874E-005  0.2470314E+04  0.7818608E-02  0.8413638E-01
         -2   -1    0    0    0  501 -0.00000000000E+00  0.00000000000E+00  0.13078791173E+04  0.13078791173E+04  0.00000000000E+00 0.  1.
          2   -1    0    0  501    0  0.00000000000E+00 -0.00000000000E+00 -0.11664782833E+04  0.11664782833E+04  0.00000000000E+00 0. -1.
         23    2    1    2    0    0  0.11289943805E+02 -0.12163388976E+04  0.27539052025E+03  0.12506086468E+04  0.92597365457E+02 0.  0.
         11    1    3    3    0    0  0.30718786171E+01 -0.40419763167E+03  0.47053389096E+02  0.40693879553E+03  0.00000000000E+00 0. -1.
        -11    1    3    3    0    0  0.82180651882E+01 -0.81214126593E+03  0.22833713115E+03  0.84366985123E+03  0.00000000000E+00 0.  1.
         22    1    1    2    0    0 -0.11289943805E+02  0.12163388976E+04 -0.13398968626E+03  0.12237487539E+04  0.00000000000E+00 0. -1.
<mgrwt>
<rscale>  0 0.24703138E+04</rscale>
<asrwt>0</asrwt>
<pdfrwt beam="1">  1        2 0.17945820E+00 0.24703138E+04</pdfrwt>
<pdfrwt beam="2">  1       -2 0.20121217E+00 0.24703138E+04</pdfrwt>
<totfact> 0.23163162E+00</totfact>
</mgrwt>
</event>
<event>
 6    1  0.1614874E-005  0.2317480E+04  0.7818608E-02  0.8471061E-01
         -3   -1    0    0    0  501 -0.00000000000E+00  0.00000000000E+00  0.17086727959E+04  0.17086727959E+04  0.00000000000E+00 0.  1.
          3   -1    0    0  501    0  0.00000000000E+00 -0.00000000000E+00 -0.78580219446E+03  0.78580219446E+03  0.00000000000E+00 0. -1.
         23    2    1    2    0    0  0.41720947924E+03  0.52515015150E+03 -0.55177148474E+03  0.87447014051E+03  0.10197952779E+03 0.  0.
         11    1    3    3    0    0  0.75865236243E+02  0.45559041042E+02 -0.54880730560E+02  0.10412999029E+03  0.00000000000E+00 0. -1.
        -11    1    3    3    0    0  0.34134424300E+03  0.47959111045E+03 -0.49689075418E+03  0.77034015022E+03  0.00000000000E+00 0.  1.
         22    1    1    2    0    0 -0.41720947924E+03 -0.52515015150E+03  0.14746420862E+04  0.16200048498E+04  0.00000000000E+00 0.  1.
<mgrwt>
<rscale>  0 0.23174804E+04</rscale>
<asrwt>0</asrwt>
<pdfrwt beam="1">  1        3 0.12089265E+00 0.23174804E+04</pdfrwt>
<pdfrwt beam="2">  1       -3 0.26287274E+00 0.23174804E+04</pdfrwt>
<totfact> 0.80956579E-02</totfact>
</mgrwt>
</event>
<event>
 6    1  0.1614874E-005  0.2007947E+04  0.7818608E-02  0.8602914E-01
          2   -1    0    0  501    0  0.00000000000E+00  0.00000000000E+00  0.21772697773E+04  0.21772697773E+04  0.00000000000E+00 0. -1.
         -2   -1    0    0    0  501 -0.00000000000E+00 -0.00000000000E+00 -0.46294808370E+03  0.46294808370E+03  0.00000000000E+00 0.  1.
         23    2    1    2    0    0  0.37206154496E+03 -0.92491288237E+03  0.72856497905E+03  0.12382157449E+04  0.92074258337E+02 0.  0.
         13    1    3    3    0    0  0.23967548639E+03 -0.51277198735E+03  0.45402949804E+03  0.72561851883E+03  0.00000000000E+00 0.  1.
        -13    1    3    3    0    0  0.13238605857E+03 -0.41214089502E+03  0.27453548101E+03  0.51259722608E+03  0.00000000000E+00 0. -1.
         22    1    1    2    0    0 -0.37206154496E+03  0.92491288237E+03  0.98575671452E+03  0.14020021161E+04  0.00000000000E+00 0. -1.
<mgrwt>
<rscale>  0 0.20079471E+04</rscale>
<asrwt>0</asrwt>
<pdfrwt beam="1">  1        2 0.33496458E+00 0.20079471E+04</pdfrwt>
<pdfrwt beam="2">  1       -2 0.71222783E-01 0.20079471E+04</pdfrwt>
<totfact> 0.88370250E+00</totfact>
</mgrwt>
</event>
<event>
 6    1  0.1614874E-005  0.3956504E+04  0.7818608E-02  0.8013379E-01
         -2   -1    0    0    0  501 -0.00000000000E+00  0.00000000000E+00  0.13612283001E+04  0.13612283001E+04  0.00000000000E+00 0. -1.
          2   -1    0    0  501    0  0.00000000000E+00 -0.00000000000E+00 -0.28749632343E+04  0.28749632343E+04  0.00000000000E+00 0.  1.
         23    2    1    2    0    0 -0.18935620633E+04  0.23373687479E+03 -0.20221280974E+03  0.19209592574E+04  0.94785198863E+02 0.  0.
         13    1    3    3    0    0 -0.11648376057E+04  0.11221555251E+03 -0.89829758484E+02  0.11736730223E+04  0.00000000000E+00 0.  1.
        -13    1    3    3    0    0 -0.72872445761E+03  0.12152132229E+03 -0.11238305126E+03  0.74728623505E+03  0.00000000000E+00 0. -1.
         22    1    1    2    0    0  0.18935620633E+04 -0.23373687479E+03 -0.13115221244E+04  0.23152322771E+04  0.00000000000E+00 0.  1.
<mgrwt>
<rscale>  0 0.39565042E+04</rscale>
<asrwt>0</asrwt>
<pdfrwt beam="1">  1        2 0.44230203E+00 0.39565042E+04</pdfrwt>
<pdfrwt beam="2">  1       -2 0.20941974E+00 0.39565042E+04</pdfrwt>
<totfact> 0.19024892E-01</totfact>
</mgrwt>
</event>
<event>
 6    1  0.1614874E-005  0.4451110E+04  0.7818608E-02  0.7919252E-01
          2   -1    0    0  501    0  0.00000000000E+00  0.00000000000E+00  0.34040651014E+04  0.34040651014E+04  0.00000000000E+00 0. -1.
         -2   -1    0    0    0  501 -0.00000000000E+00 -0.00000000000E+00 -0.14550527803E+04  0.14550527803E+04  0.00000000000E+00 0.  1.
         23    2    1    2    0    0  0.57925565772E+03  0.21368653066E+04  0.12119168849E+04  0.25256569034E+04  0.92031528481E+02 0.  0.
         13    1    3    3    0    0  0.21130311621E+03  0.92119787950E+03  0.54720495868E+03  0.10921024709E+04  0.00000000000E+00 0. -1.
        -13    1    3    3    0    0  0.36795254150E+03  0.12156674271E+04  0.66471192618E+03  0.14335544325E+04  0.00000000000E+00 0.  1.
         22    1    1    2    0    0 -0.57925565772E+03 -0.21368653066E+04  0.73709543626E+03  0.23334609784E+04  0.00000000000E+00 0.  1.
<mgrwt>
<rscale>  0 0.44511097E+04</rscale>
<asrwt>0</asrwt>
<pdfrwt beam="1">  1        2 0.52370232E+00 0.44511097E+04</pdfrwt>
<pdfrwt beam="2">  1       -2 0.22385428E+00 0.44511097E+04</pdfrwt>
<totfact> 0.67232246E-02</totfact>
</mgrwt>
</event>
<event>
 6    1  0.1614874E-005  0.1535198E+03  0.7818608E-02  0.1196213E+00
          1   -1    0    0  501    0  0.00000000000E+00  0.00000000000E+00  0.28013951777E+02  0.28013951777E+02  0.00000000000E+00 0. -1.
         -1   -1    0    0    0  501 -0.00000000000E+00 -0.00000000000E+00 -0.21032669543E+03  0.21032669543E+03  0.00000000000E+00 0.  1.
         23    2    1    2    0    0  0.20690533805E+02  0.15868406598E+02 -0.18889279333E+03  0.21144823990E+03  0.91378149839E+02 0.  0.
         11    1    3    3    0    0  0.30446424986E+02  0.50206752401E+02 -0.12879360647E+03  0.14154679738E+03  0.00000000000E+00 0. -1.
        -11    1    3    3    0    0 -0.97558911809E+01 -0.34338345803E+02 -0.60099186863E+02  0.69901442523E+02  0.00000000000E+00 0.  1.
         22    1    1    2    0    0 -0.20690533805E+02 -0.15868406598E+02  0.65800496754E+01  0.26892407308E+02  0.00000000000E+00 0. -1.
<mgrwt>
<rscale>  0 0.15351980E+03</rscale>
<asrwt>0</asrwt>
<pdfrwt beam="1">  1        1 0.43098388E-02 0.15351980E+03</pdfrwt>
<pdfrwt beam="2">  1       -1 0.32357953E-01 0.15351980E+03</pdfrwt>
<totfact> 0.17296926E+04</totfact>
</mgrwt>
</event>
<event>
 6    1  0.1614874E-005  0.1469466E+04  0.7818608E-02  0.8905016E-01
         -1   -1    0    0    0  501 -0.00000000000E+00  0.00000000000E+00  0.60719519411E+03  0.60719519411E+03  0.00000000000E+00 0.  1.
          1   -1    0    0  501    0  0.00000000000E+00 -0.00000000000E+00 -0.88905914180E+03  0.88905914180E+03  0.00000000000E+00 0. -1.
         23    2    1    2    0    0  0.66296534527E+03  0.51719239100E+02  0.17146814484E+03  0.69145130732E+03  0.80657652993E+02 0.  0.
         11    1    3    3    0    0  0.51163240524E+03  0.17388172890E+02  0.15768197321E+03  0.53566190020E+03  0.00000000000E+00 0. -1.
        -11    1    3    3    0    0  0.15133294002E+03  0.34331066209E+02  0.13786171629E+02  0.15578940712E+03  0.00000000000E+00 0.  1.
         22    1    1    2    0    0 -0.66296534527E+03 -0.51719239100E+02 -0.45333209253E+03  0.80480302859E+03  0.00000000000E+00 0. -1.
<mgrwt>
<rscale>  0 0.14694658E+04</rscale>
<asrwt>0</asrwt>
<pdfrwt beam="1">  1        1 0.13677833E+00 0.14694658E+04</pdfrwt>
<pdfrwt beam="2">  1       -1 0.93414647E-01 0.14694658E+04</pdfrwt>
<totfact> 0.20039468E+01</totfact>
</mgrwt>
</event>
<event>
 6    1  0.1614874E-005  0.3366114E+04  0.7818608E-02  0.8146273E-01
         -2   -1    0    0    0  501 -0.00000000000E+00  0.00000000000E+00  0.78188246489E+03  0.78188246489E+03  0.00000000000E+00 0.  1.
          2   -1    0    0  501    0  0.00000000000E+00 -0.00000000000E+00 -0.36228986555E+04  0.36228986555E+04  0.00000000000E+00 0. -1.
         23    2    1    2    0    0  0.33048108600E+03 -0.28354552558E+03 -0.35472557070E+04  0.35750883654E+04  0.92832951016E+02 0.  0.
         13    1    3    3    0    0  0.25043091039E+03 -0.15726434820E+03 -0.23496832194E+04  0.23682185177E+04  0.00000000000E+00 0. -1.
        -13    1    3    3    0    0  0.80050175608E+02 -0.12628117739E+03 -0.11975724875E+04  0.12068698477E+04  0.00000000000E+00 0.  1.
         22    1    1    2    0    0 -0.33048108600E+03  0.28354552558E+03  0.70623951632E+03  0.82969275499E+03  0.00000000000E+00 0.  1.
<mgrwt>
<rscale>  0 0.33661140E+04</rscale>
<asrwt>0</asrwt>
<pdfrwt beam="1">  1        2 0.55736903E+00 0.33661140E+04</pdfrwt>
<pdfrwt beam="2">  1       -2 0.12028961E+00 0.33661140E+04</pdfrwt>
<totfact> 0.29093613E-01</totfact>
</mgrwt>
</event>
<event>
 6    1  0.1614874E-005  0.9935259E+03  0.7818608E-02  0.9315674E-01
          2   -1    0    0  501    0  0.00000000000E+00  0.00000000000E+00  0.70639756552E+03  0.70639756552E+03  0.00000000000E+00 0. -1.
         -2   -1    0    0    0  501 -0.00000000000E+00 -0.00000000000E+00 -0.34934068558E+03  0.34934068558E+03  0.00000000000E+00 0.  1.
         23    2    1    2    0    0  0.12854269540E+02 -0.20957735631E+03  0.65325551439E+03  0.69266590077E+03  0.94632882726E+02 0.  0.
         13    1    3    3    0    0  0.34939035422E+02 -0.56864363764E+02  0.11748469577E+03  0.13511826598E+03  0.00000000000E+00 0. -1.
        -13    1    3    3    0    0 -0.22084765882E+02 -0.15271299254E+03  0.53577081862E+03  0.55754763479E+03  0.00000000000E+00 0.  1.
         22    1    1    2    0    0 -0.12854269540E+02  0.20957735631E+03 -0.29619863445E+03  0.36307235033E+03  0.00000000000E+00 0.  1.
<mgrwt>
<rscale>  0 0.99352586E+03</rscale>
<asrwt>0</asrwt>
<pdfrwt beam="1">  1        2 0.10867655E+00 0.99352586E+03</pdfrwt>
<pdfrwt beam="2">  1       -2 0.53744721E-01 0.99352586E+03</pdfrwt>
<totfact> 0.13197455E+02</totfact>
</mgrwt>
</event>
<event>
 6    1  0.1614874E-005  0.1837798E+04  0.7818608E-02  0.8686453E-01
          2   -1    0    0  501    0  0.00000000000E+00  0.00000000000E+00  0.16912081472E+04  0.16912081472E+04  0.00000000000E+00 0. -1.
         -2   -1    0    0    0  501 -0.00000000000E+00 -0.00000000000E+00 -0.49927348132E+03  0.49927348132E+03  0.00000000000E+00 0.  1.
         23    2    1    2    0    0 -0.75699468901E+03  0.43979996729E+03  0.27397165846E+03  0.92197027522E+03  0.92215770519E+02 0.  0.
         11    1    3    3    0    0 -0.13080596238E+03  0.37878146249E+02  0.46427568667E+02  0.14387658909E+03  0.00000000000E+00 0.  1.
        -11    1    3    3    0    0 -0.62618872663E+03  0.40192182104E+03  0.22754408980E+03  0.77809368613E+03  0.00000000000E+00 0. -1.
         22    1    1    2    0    0  0.75699468901E+03 -0.43979996729E+03  0.91796300740E+03  0.12685113533E+04  0.00000000000E+00 0. -1.
<mgrwt>
<rscale>  0 0.18377980E+04</rscale>
<asrwt>0</asrwt>
<pdfrwt beam="1">  1        2 0.26018587E+00 0.18377980E+04</pdfrwt>
<pdfrwt beam="2">  1       -2 0.76811306E-01 0.18377980E+04</pdfrwt>
<totfact> 0.14134261E+01</totfact>
</mgrwt>
</event>
<event>
 6    1  0.1614874E-005  0.3213752E+04  0.7818608E-02  0.8185195E-01
         -3   -1    0    0    0  501 -0.00000000000E+00  0.00000000000E+00  0.10080834270E+04  0.10080834270E+04  0.00000000000E+00 0.  1.
          3   -1    0    0  501    0  0.00000000000E+00 -0.00000000000E+00 -0.25613465979E+04  0.25613465979E+04  0.00000000000E+00 0. -1.
         23    2    1    2    0    0  0.38133455221E+03 -0.12081595376E+04  0.31916989217E+03  0.13086622163E+04  0.75245381388E+02 0.  0.
         11    1    3    3    0    0  0.37218470261E+03 -0.11138908837E+04  0.29416180427E+03  0.12107045555E+04  0.00000000000E+00 0. -1.
        -11    1    3    3    0    0  0.91498496006E+01 -0.94268653867E+02  0.25008087900E+02  0.97957660803E+02  0.00000000000E+00 0.  1.
         22    1    1    2    0    0 -0.38133455221E+03  0.12081595376E+04 -0.18724330630E+04  0.22607678086E+04  0.00000000000E+00 0. -1.
<mgrwt>
<rscale>  0 0.32137524E+04</rscale>
<asrwt>0</asrwt>
<pdfrwt beam="1">  1        3 0.39405333E+00 0.32137524E+04</pdfrwt>
<pdfrwt beam="2">  1       -3 0.15508976E+00 0.32137524E+04</pdfrwt>
<totfact> 0.77105235E-03</totfact>
</mgrwt>
</event>
<event>
 6    1  0.1614874E-005  0.3830742E+04  0.7818608E-02  0.8039590E-01
          2   -1    0    0  501    0  0.00000000000E+00  0.00000000000E+00  0.35812687456E+04  0.35812687456E+04  0.00000000000E+00 0. -1.
         -2   -1    0    0    0  501 -0.00000000000E+00 -0.00000000000E+00 -0.10243985325E+04  0.10243985325E+04  0.00000000000E+00 0.  1.
         23    2    1    2    0    0  0.67587786573E+03 -0.14560034923E+04  0.25330279122E+04  0.30002621846E+04  0.92659123290E+02 0.  0.
         13    1    3    3    0    0  0.20890458431E+03 -0.35419756329E+03  0.65171700432E+03  0.77060501744E+03  0.00000000000E+00 0.  1.
        -13    1    3    3    0    0  0.46697328142E+03 -0.11018059291E+04  0.18813109079E+04  0.22296571671E+04  0.00000000000E+00 0. -1.
         22    1    1    2    0    0 -0.67587786573E+03  0.14560034923E+04  0.23842300886E+02  0.16054050936E+04  0.00000000000E+00 0. -1.
<mgrwt>
<rscale>  0 0.38307422E+04</rscale>
<asrwt>0</asrwt>
<pdfrwt beam="1">  1        2 0.55096442E+00 0.38307422E+04</pdfrwt>
<pdfrwt beam="2">  1       -2 0.15759978E+00 0.38307422E+04</pdfrwt>
<totfact> 0.14917611E-01</totfact>
</mgrwt>
</event>
<event>
 6    1  0.1614874E-005  0.1142002E+04  0.7818608E-02  0.9165193E-01
         -1   -1    0    0    0  501 -0.00000000000E+00  0.00000000000E+00  0.77993497115E+03  0.77993497115E+03  0.00000000000E+00 0.  1.
          1   -1    0    0  501    0  0.00000000000E+00 -0.00000000000E+00 -0.41803795266E+03  0.41803795266E+03  0.00000000000E+00 0. -1.
         23    2    1    2    0    0 -0.43938473915E+03 -0.35597375742E+03  0.23064209410E+03  0.61745236418E+03  0.90969123853E+02 0.  0.
         11    1    3    3    0    0 -0.21216535025E+03 -0.21694351524E+03  0.15388783660E+03  0.34023534635E+03  0.00000000000E+00 0.  1.
        -11    1    3    3    0    0 -0.22721938890E+03 -0.13903024218E+03  0.76754257502E+02  0.27721701783E+03  0.00000000000E+00 0. -1.
         22    1    1    2    0    0  0.43938473915E+03  0.35597375742E+03  0.13125492439E+03  0.58052055962E+03  0.00000000000E+00 0. -1.
<mgrwt>
<rscale>  0 0.11420025E+04</rscale>
<asrwt>0</asrwt>
<pdfrwt beam="1">  1        1 0.64313531E-01 0.11420025E+04</pdfrwt>
<pdfrwt beam="2">  1       -1 0.11999000E+00 0.11420025E+04</pdfrwt>
<totfact> 0.34813378E+01</totfact>
</mgrwt>
</event>
<event>
 6    1  0.1614874E-005  0.4115624E+04  0.7818608E-02  0.7981619E-01
          1   -1    0    0  501    0  0.00000000000E+00  0.00000000000E+00  0.19076108769E+04  0.19076108769E+04  0.00000000000E+00 0. -1.
         -1   -1    0    0    0  501 -0.00000000000E+00 -0.00000000000E+00 -0.22198393925E+04  0.22198393925E+04  0.00000000000E+00 0.  1.
         23    2    1    2    0    0 -0.26507316282E+03  0.17008458103E+04  0.97280033679E+03  0.19793256446E+04  0.90825435793E+02 0.  0.
         11    1    3    3    0    0 -0.79735073797E+02  0.51090055184E+03  0.24493681797E+03  0.57216352615E+03  0.00000000000E+00 0. -1.
        -11    1    3    3    0    0 -0.18533808902E+03  0.11899452585E+04  0.72786351882E+03  0.14071621184E+04  0.00000000000E+00 0.  1.
         22    1    1    2    0    0  0.26507316282E+03 -0.17008458103E+04 -0.12850288524E+04  0.21481246248E+04  0.00000000000E+00 0.  1.
<mgrwt>
<rscale>  0 0.41156238E+04</rscale>
<asrwt>0</asrwt>
<pdfrwt beam="1">  1        1 0.29347860E+00 0.41156238E+04</pdfrwt>
<pdfrwt beam="2">  1       -1 0.34151375E+00 0.41156238E+04</pdfrwt>
<totfact> 0.47188084E-02</totfact>
</mgrwt>
</event>
<event>
 6    1  0.1614874E-005  0.1375725E+04  0.7818608E-02  0.8971580E-01
         -1   -1    0    0    0  501 -0.00000000000E+00  0.00000000000E+00  0.64532101974E+03  0.64532101974E+03  0.00000000000E+00 0.  1.
          1   -1    0    0  501    0  0.00000000000E+00 -0.00000000000E+00 -0.73320804569E+03  0.73320804569E+03  0.00000000000E+00 0. -1.
         23    2    1    2    0    0  0.12542228096E+03 -0.42285147828E+03  0.48123215701E+03  0.65850770071E+03  0.86682649354E+02 0.  0.
         11    1    3    3    0    0  0.66968701045E+02 -0.34745127168E+03  0.36995921301E+03  0.51193457825E+03  0.00000000000E+00 0. -1.
        -11    1    3    3    0    0  0.58453579919E+02 -0.75400206599E+02  0.11127294401E+03  0.14657312246E+03  0.00000000000E+00 0.  1.
         22    1    1    2    0    0 -0.12542228096E+03  0.42285147828E+03 -0.56911918296E+03  0.72002136473E+03  0.00000000000E+00 0. -1.
<mgrwt>
<rscale>  0 0.13757246E+04</rscale>
<asrwt>0</asrwt>
<pdfrwt beam="1">  1        1 0.11280124E+00 0.13757246E+04</pdfrwt>
<pdfrwt beam="2">  1       -1 0.99280157E-01 0.13757246E+04</pdfrwt>
<totfact> 0.24027685E+01</totfact>
</mgrwt>
</event>
<event>
 6    1  0.1614874E-005  0.1416993E+04  0.7818608E-02  0.8941609E-01
          1   -1    0    0  501    0  0.00000000000E+00  0.00000000000E+00  0.17457177220E+04  0.17457177220E+04  0.00000000000E+00 0. -1.
         -1   -1    0    0    0  501 -0.00000000000E+00 -0.00000000000E+00 -0.28754219151E+03  0.28754219151E+03  0.00000000000E+00 0.  1.
         23    2    1    2    0    0 -0.39479235138E+03  0.58229858365E+03  0.65771123530E+03  0.96757903769E+03  0.93233491336E+02 0.  0.
         11    1    3    3    0    0 -0.23579147164E+03  0.42397968078E+03  0.44039445865E+03  0.65521268838E+03  0.00000000000E+00 0.  1.
        -11    1    3    3    0    0 -0.15900087974E+03  0.15831890287E+03  0.21731677665E+03  0.31236634930E+03  0.00000000000E+00 0. -1.
         22    1    1    2    0    0  0.39479235138E+03 -0.58229858365E+03  0.80046429519E+03  0.10656808758E+04  0.00000000000E+00 0. -1.
<mgrwt>
<rscale>  0 0.14169933E+04</rscale>
<asrwt>0</asrwt>
<pdfrwt beam="1">  1        1 0.26857195E+00 0.14169933E+04</pdfrwt>
<pdfrwt beam="2">  1       -1 0.44237261E-01 0.14169933E+04</pdfrwt>
<totfact> 0.21844770E+01</totfact>
</mgrwt>
</event>
<event>
 6    1  0.1614874E-005  0.1936547E+04  0.7818608E-02  0.8636875E-01
          2   -1    0    0  501    0  0.00000000000E+00  0.00000000000E+00  0.75070971689E+03  0.75070971689E+03  0.00000000000E+00 0. -1.
         -2   -1    0    0    0  501 -0.00000000000E+00 -0.00000000000E+00 -0.12488902245E+04  0.12488902245E+04  0.00000000000E+00 0.  1.
         23    2    1    2    0    0 -0.27357367446E+03 -0.59983770769E+03  0.47923554490E+03  0.82062158256E+03  0.95421398769E+02 0.  0.
         11    1    3    3    0    0 -0.83192289289E+02 -0.22239665391E+03  0.22618149988E+03  0.32793185200E+03  0.00000000000E+00 0. -1.
        -11    1    3    3    0    0 -0.19038138517E+03 -0.37744105378E+03  0.25305404501E+03  0.49268973055E+03  0.00000000000E+00 0.  1.
         22    1    1    2    0    0  0.27357367446E+03  0.59983770769E+03 -0.97741605253E+03  0.11789783589E+04  0.00000000000E+00 0.  1.
<mgrwt>
<rscale>  0 0.19365475E+04</rscale>
<asrwt>0</asrwt>
<pdfrwt beam="1">  1        2 0.11549380E+00 0.19365475E+04</pdfrwt>
<pdfrwt beam="2">  1       -2 0.19213696E+00 0.19365475E+04</pdfrwt>
<totfact> 0.52421746E+00</totfact>
</mgrwt>
</event>
<event>
 6    1  0.1614874E-005  0.1255983E+04  0.7818608E-02  0.9065218E-01
          2   -1    0    0  501    0  0.00000000000E+00  0.00000000000E+00  0.13570117242E+04  0.13570117242E+04  0.00000000000E+00 0. -1.
         -2   -1    0    0    0  501 -0.00000000000E+00 -0.00000000000E+00 -0.29061908545E+03  0.29061908545E+03  0.00000000000E+00 0.  1.
         23    2    1    2    0    0 -0.20608107505E+03  0.46577172844E+03  0.61566023504E+02  0.52109219991E+03  0.91290706272E+02 0.  0.
         13    1    3    3    0    0 -0.97977475259E+02  0.19832248194E+03  0.71433781390E+02  0.23245252768E+03  0.00000000000E+00 0. -1.
        -13    1    3    3    0    0 -0.10810359979E+03  0.26744924649E+03 -0.98677578851E+01  0.28863967223E+03  0.00000000000E+00 0.  1.
         22    1    1    2    0    0  0.20608107505E+03 -0.46577172844E+03  0.10048266152E+04  0.11265386097E+04  0.00000000000E+00 0. -1.
<mgrwt>
<rscale>  0 0.12559833E+04</rscale>
<asrwt>0</asrwt>
<pdfrwt beam="1">  1        2 0.20877103E+00 0.12559833E+04</pdfrwt>
<pdfrwt beam="2">  1       -2 0.44710629E-01 0.12559833E+04</pdfrwt>
<totfact> 0.71412054E+01</totfact>
</mgrwt>
</event>
<event>
 6    1  0.1614874E-005  0.3307661E+04  0.7818608E-02  0.8160949E-01
          2   -1    0    0  501    0  0.00000000000E+00  0.00000000000E+00  0.51689364682E+04  0.51689364682E+04  0.00000000000E+00 0. -1.
         -2   -1    0    0    0  501 -0.00000000000E+00 -0.00000000000E+00 -0.52915248053E+03  0.52915248053E+03  0.00000000000E+00 0.  1.
         23    2    1    2    0    0  0.13698939724E+04  0.92388612945E+03  0.23710393457E+04  0.28914223625E+04  0.91217452512E+02 0.  0.
         11    1    3    3    0    0  0.10208738021E+04  0.67352612687E+03  0.16867255464E+04  0.20834739817E+04  0.00000000000E+00 0. -1.
        -11    1    3    3    0    0  0.34902017030E+03  0.25036000258E+03  0.68431379929E+03  0.80794838082E+03  0.00000000000E+00 0.  1.
         22    1    1    2    0    0 -0.13698939724E+04 -0.92388612945E+03  0.22687446420E+04  0.28066665862E+04  0.00000000000E+00 0. -1.
<mgrwt>
<rscale>  0 0.33076611E+04</rscale>
<asrwt>0</asrwt>
<pdfrwt beam="1">  1        2 0.79522096E+00 0.33076611E+04</pdfrwt>
<pdfrwt beam="2">  1       -2 0.81408077E-01 0.33076611E+04</pdfrwt>
<totfact> 0.22521281E-02</totfact>
</mgrwt>
</event>
<event>
 6    1  0.1614874E-005  0.7919841E+03  0.7818608E-02  0.9571693E-01
          2   -1    0    0  501    0  0.00000000000E+00  0.00000000000E+00  0.77062428380E+03  0.77062428380E+03  0.00000000000E+00 0. -1.
         -2   -1    0    0    0  501 -0.00000000000E+00 -0.00000000000E+00 -0.20348397551E+03  0.20348397551E+03  0.00000000000E+00 0.  1.
         23    2    1    2    0    0 -0.17770346484E+03  0.34450273160E+03  0.34854021508E+03  0.52908392935E+03  0.90492371365E+02 0.  0.
         11    1    3    3    0    0 -0.29324594694E+02  0.15033903662E+03  0.14751170086E+03  0.21265337918E+03  0.00000000000E+00 0.  1.
        -11    1    3    3    0    0 -0.14837887014E+03  0.19416369499E+03  0.20102851422E+03  0.31643055018E+03  0.00000000000E+00 0. -1.
         22    1    1    2    0    0  0.17770346484E+03 -0.34450273160E+03  0.21860009321E+03  0.44502432995E+03  0.00000000000E+00 0.  1.
<mgrwt>
<rscale>  0 0.79198407E+03</rscale>
<asrwt>0</asrwt>
<pdfrwt beam="1">  1        2 0.11855758E+00 0.79198407E+03</pdfrwt>
<pdfrwt beam="2">  1       -2 0.31305228E-01 0.79198407E+03</pdfrwt>
<totfact> 0.34428800E+02</totfact>
</mgrwt>
</event>
<event>
 6    1  0.1614874E-005  0.5742617E+04  0.7818608E-02  0.7723160E-01
         -2   -1    0    0    0  501 -0.00000000000E+00  0.00000000000E+00  0.25582313468E+04  0.25582313468E+04  0.00000000000E+00 0. -1.
          2   -1    0    0  501    0  0.00000000000E+00 -0.00000000000E+00 -0.32226998197E+04  0.32226998197E+04  0.00000000000E+00 0.  1.
         23    2    1    2    0    0 -0.30608279117E+03 -0.52225971859E+03 -0.31570737784E+04  0.32158730586E+04  0.91009878456E+02 0.  0.
         13    1    3    3    0    0 -0.25592879461E+03 -0.45277362257E+03 -0.25243172628E+04  0.25773399358E+04  0.00000000000E+00 0.  1.
        -13    1    3    3    0    0 -0.50153996563E+02 -0.69486096017E+02 -0.63275651556E+03  0.63853312278E+03  0.00000000000E+00 0. -1.
         22    1    1    2    0    0  0.30608279117E+03  0.52225971859E+03  0.24926053054E+04  0.25650581079E+04  0.00000000000E+00 0. -1.
<mgrwt>
<rscale>  0 0.57426167E+04</rscale>
<asrwt>0</asrwt>
<pdfrwt beam="1">  1        2 0.49579997E+00 0.57426167E+04</pdfrwt>
<pdfrwt beam="2">  1       -2 0.39357405E+00 0.57426167E+04</pdfrwt>
<totfact> 0.70336505E-03</totfact>
</mgrwt>
</event>
<event>
 6    1  0.1614874E-005  0.8348893E+03  0.7818608E-02  0.9510845E-01
         -1   -1    0    0    0  501 -0.00000000000E+00  0.00000000000E+00  0.21705606492E+03  0.21705606492E+03  0.00000000000E+00 0.  1.
          1   -1    0    0  501    0  0.00000000000E+00 -0.00000000000E+00 -0.80283418145E+03  0.80283418145E+03  0.00000000000E+00 0. -1.
         23    2    1    2    0    0 -0.26953339051E+03  0.20982705595E+02  0.84336294766E+02  0.29729641387E+03  0.90465598690E+02 0.  0.
         11    1    3    3    0    0  0.20040240949E+01 -0.10990660881E+02  0.68915856318E+01  0.13126488171E+02  0.00000000000E+00 0.  1.
        -11    1    3    3    0    0 -0.27153741461E+03  0.31973366476E+02  0.77444709134E+02  0.28416992570E+03  0.00000000000E+00 0. -1.
         22    1    1    2    0    0  0.26953339051E+03 -0.20982705595E+02 -0.67011441130E+03  0.72259383250E+03  0.00000000000E+00 0. -1.
<mgrwt>
<rscale>  0 0.83488928E+03</rscale>
<asrwt>0</asrwt>
<pdfrwt beam="1">  1        1 0.12351295E+00 0.83488928E+03</pdfrwt>
<pdfrwt beam="2">  1       -1 0.33393241E-01 0.83488928E+03</pdfrwt>
<totfact> 0.18719396E+02</totfact>
</mgrwt>
</event>
<event>
 6    1  0.1614874E-005  0.1745263E+04  0.7818608E-02  0.8735962E-01
          1   -1    0    0  501    0  0.00000000000E+00  0.00000000000E+00  0.15655499231E+04  0.15655499231E+04  0.00000000000E+00 0. -1.
         -1   -1    0    0    0  501 -0.00000000000E+00 -0.00000000000E+00 -0.48640139653E+03  0.48640139653E+03  0.00000000000E+00 0.  1.
         23    2    1    2    0    0 -0.56881466176E+03 -0.31148027851E+03 -0.14124128865E+03  0.66995226592E+03  0.91196785328E+02 0.  0.
         11    1    3    3    0    0 -0.37495467759E+03 -0.23976215115E+03 -0.65706220619E+02  0.44988243664E+03  0.00000000000E+00 0. -1.
        -11    1    3    3    0    0 -0.19385998418E+03 -0.71718127359E+02 -0.75535068033E+02  0.22006982928E+03  0.00000000000E+00 0.  1.
         22    1    1    2    0    0  0.56881466176E+03  0.31148027851E+03  0.12203898152E+04  0.13819990537E+04  0.00000000000E+00 0. -1.
<mgrwt>
<rscale>  0 0.17452629E+04</rscale>
<asrwt>0</asrwt>
<pdfrwt beam="1">  1        1 0.24085383E+00 0.17452629E+04</pdfrwt>
<pdfrwt beam="2">  1       -1 0.74830985E-01 0.17452629E+04</pdfrwt>
<totfact> 0.10035435E+01</totfact>
</mgrwt>
</event>
<event>
 6    1  0.1614874E-005  0.1676784E+04  0.7818608E-02  0.8774717E-01
         -1   -1    0    0    0  501 -0.00000000000E+00  0.00000000000E+00  0.38280358539E+03  0.38280358539E+03  0.00000000000E+00 0.  1.
          1   -1    0    0  501    0  0.00000000000E+00 -0.00000000000E+00 -0.18361917246E+04  0.18361917246E+04  0.00000000000E+00 0. -1.
         23    2    1    2    0    0 -0.34060655181E+03 -0.65563718953E+03 -0.21160748918E+03  0.77404128644E+03  0.92137051267E+02 0.  0.
         13    1    3    3    0    0 -0.13064875324E+03 -0.34990075179E+03 -0.97863658457E+02  0.38610481540E+03  0.00000000000E+00 0.  1.
        -13    1    3    3    0    0 -0.20995779857E+03 -0.30573643774E+03 -0.11374383073E+03  0.38793647105E+03  0.00000000000E+00 0. -1.
         22    1    1    2    0    0  0.34060655181E+03  0.65563718953E+03 -0.12417806501E+04  0.14449540236E+04  0.00000000000E+00 0. -1.
<mgrwt>
<rscale>  0 0.16767836E+04</rscale>
<asrwt>0</asrwt>
<pdfrwt beam="1">  1        1 0.28249104E+00 0.16767836E+04</pdfrwt>
<pdfrwt beam="2">  1       -1 0.58892859E-01 0.16767836E+04</pdfrwt>
<totfact> 0.10727035E+01</totfact>
</mgrwt>
</event>
<event>
 6    1  0.1614874E-005  0.2711443E+04  0.7818608E-02  0.8331302E-01
         -1   -1    0    0    0  501 -0.00000000000E+00  0.00000000000E+00  0.15981836846E+04  0.15981836846E+04  0.00000000000E+00 0.  1.
          1   -1    0    0  501    0  0.00000000000E+00 -0.00000000000E+00 -0.11500434638E+04  0.11500434638E+04  0.00000000000E+00 0. -1.
         23    2    1    2    0    0  0.24990212941E+03  0.12293164223E+04  0.74124771913E+03  0.14599795224E+04  0.91771913639E+02 0.  0.
         11    1    3    3    0    0  0.44252839066E+02  0.26870071711E+03  0.11956960095E+03  0.29741432147E+03  0.00000000000E+00 0.  1.
        -11    1    3    3    0    0  0.20564929034E+03  0.96061570522E+03  0.62167811818E+03  0.11625652009E+04  0.00000000000E+00 0. -1.
         22    1    1    2    0    0 -0.24990212941E+03 -0.12293164223E+04 -0.29310749828E+03  0.12882476261E+04  0.00000000000E+00 0. -1.
<mgrwt>
<rscale>  0 0.27114429E+04</rscale>
<asrwt>0</asrwt>
<pdfrwt beam="1">  1        1 0.17692976E+00 0.27114429E+04</pdfrwt>
<pdfrwt beam="2">  1       -1 0.24587441E+00 0.27114429E+04</pdfrwt>
<totfact> 0.75271590E-01</totfact>
</mgrwt>
</event>
<event>
 6    1  0.1614874E-005  0.1406430E+04  0.7818608E-02  0.8949177E-01
         -1   -1    0    0    0  501 -0.00000000000E+00  0.00000000000E+00  0.73596443579E+03  0.73596443579E+03  0.00000000000E+00 0.  1.
          1   -1    0    0  501    0  0.00000000000E+00 -0.00000000000E+00 -0.67192295532E+03  0.67192295532E+03  0.00000000000E+00 0. -1.
         23    2    1    2    0    0 -0.72471356463E+02  0.29488946079E+03 -0.59952239829E+03  0.67814160471E+03  0.90758131305E+02 0.  0.
         13    1    3    3    0    0 -0.53471702448E+02  0.11628404232E+03 -0.17177823685E+03  0.21421709576E+03  0.00000000000E+00 0. -1.
        -13    1    3    3    0    0 -0.18999654016E+02  0.17860541847E+03 -0.42774416144E+03  0.46392450895E+03  0.00000000000E+00 0.  1.
         22    1    1    2    0    0  0.72471356463E+02 -0.29488946079E+03  0.66356387876E+03  0.72974578641E+03  0.00000000000E+00 0.  1.
<mgrwt>
<rscale>  0 0.14064301E+04</rscale>
<asrwt>0</asrwt>
<pdfrwt beam="1">  1        1 0.10337276E+00 0.14064301E+04</pdfrwt>
<pdfrwt beam="2">  1       -1 0.11322530E+00 0.14064301E+04</pdfrwt>
<totfact> 0.20133484E+01</totfact>
</mgrwt>
</event>
<event>
 6    1  0.1614874E-005  0.8302531E+03  0.7818608E-02  0.9517231E-01
         -1   -1    0    0    0  501 -0.00000000000E+00  0.00000000000E+00  0.47963597041E+03  0.47963597041E+03  0.00000000000E+00 0.  1.
          1   -1    0    0  501    0  0.00000000000E+00 -0.00000000000E+00 -0.35929345527E+03  0.35929345527E+03  0.00000000000E+00 0. -1.
         23    2    1    2    0    0 -0.16787672054E+03  0.20952473738E+03 -0.25388045786E+03  0.37835799539E+03  0.81340499850E+02 0.  0.
         13    1    3    3    0    0 -0.44228904379E+01  0.56342076985E+02 -0.50216772257E+02  0.75602353235E+02  0.00000000000E+00 0. -1.
        -13    1    3    3    0    0 -0.16345383010E+03  0.15318266040E+03 -0.20366368560E+03  0.30275564215E+03  0.00000000000E+00 0.  1.
         22    1    1    2    0    0  0.16787672054E+03 -0.20952473738E+03  0.37422297300E+03  0.46057143029E+03  0.00000000000E+00 0.  1.
<mgrwt>
<rscale>  0 0.83025313E+03</rscale>
<asrwt>0</asrwt>
<pdfrwt beam="1">  1        1 0.55275916E-01 0.83025313E+03</pdfrwt>
<pdfrwt beam="2">  1       -1 0.73790150E-01 0.83025313E+03</pdfrwt>
<totfact> 0.12943298E+02</totfact>
</mgrwt>
</event>
<event>
 6    1  0.1614874E-005  0.2796663E+04  0.7818608E-02  0.8304305E-01
          2   -1    0    0  501    0  0.00000000000E+00  0.00000000000E+00  0.11577093629E+04  0.11577093629E+04  0.00000000000E+00 0. -1.
         -2   -1    0    0    0  501 -0.00000000000E+00 -0.00000000000E+00 -0.16889652750E+04  0.16889652750E+04  0.00000000000E+00 0.  1.
         23    2    1    2    0    0  0.11880036653E+04 -0.71520598447E+03 -0.95136236653E+02  0.13930334579E+04  0.92838582560E+02 0.  0.
         11    1    3    3    0    0  0.21719354306E+03 -0.17406906839E+03 -0.18980072706E+02  0.27898623421E+03  0.00000000000E+00 0. -1.
        -11    1    3    3    0    0  0.97081012221E+03 -0.54113691608E+03 -0.76156163947E+02  0.11140472237E+04  0.00000000000E+00 0.  1.
         22    1    1    2    0    0 -0.11880036653E+04  0.71520598447E+03 -0.43611967537E+03  0.14536411800E+04  0.00000000000E+00 0.  1.
<mgrwt>
<rscale>  0 0.27966629E+04</rscale>
<asrwt>0</asrwt>
<pdfrwt beam="1">  1        2 0.17810913E+00 0.27966629E+04</pdfrwt>
<pdfrwt beam="2">  1       -2 0.25984081E+00 0.27966629E+04</pdfrwt>
<totfact> 0.97752039E-01</totfact>
</mgrwt>
</event>
<event>
 6    1  0.1758341E-005  0.2359034E+04  0.7818608E-02  0.8455002E-01
          1   -1    0    0  501    0  0.00000000000E+00  0.00000000000E+00  0.91277037224E+03  0.91277037224E+03  0.00000000000E+00 0. -1.
         -1   -1    0    0    0  501 -0.00000000000E+00 -0.00000000000E+00 -0.15242170980E+04  0.15242170980E+04  0.00000000000E+00 0.  1.
         23    2    1    2    0    0  0.35133763713E+03 -0.61571184099E+03 -0.12777441560E+04  0.14641095374E+04  0.91909754028E+02 0.  0.
         11    1    3    3    0    0  0.18340257241E+03 -0.29155938333E+03 -0.70964807456E+03  0.78882429432E+03  0.00000000000E+00 0.  1.
        -11    1    3    3    0    0  0.16793506472E+03 -0.32415245766E+03 -0.56809608148E+03  0.67528524311E+03  0.00000000000E+00 0. -1.
         22    1    1    2    0    0 -0.35133763713E+03  0.61571184099E+03  0.66629743033E+03  0.97287793276E+03  0.00000000000E+00 0. -1.
<mgrwt>
<rscale>  0 0.23590339E+04</rscale>
<asrwt>0</asrwt>
<pdfrwt beam="1">  1        1 0.14042621E+00 0.23590339E+04</pdfrwt>
<pdfrwt beam="2">  1       -1 0.23449494E+00 0.23590339E+04</pdfrwt>
<totfact> 0.14079234E+00</totfact>
</mgrwt>
</event>
<event>
 6    1  0.1614874E-005  0.4504247E+03  0.7818608E-02  0.1027595E+00
         -3   -1    0    0    0  501 -0.00000000000E+00  0.00000000000E+00  0.93520967594E+02  0.93520967594E+02  0.00000000000E+00 0.  1.
          3   -1    0    0  501    0  0.00000000000E+00 -0.00000000000E+00 -0.54234477518E+03  0.54234477518E+03  0.00000000000E+00 0. -1.
         23    2    1    2    0    0  0.13517837400E+03 -0.91051911927E+02 -0.43366816373E+03  0.47217903896E+03  0.91221297636E+02 0.  0.
         13    1    3    3    0    0  0.49161613123E+02  0.90354578251E+01 -0.17198516335E+03  0.17910164744E+03  0.00000000000E+00 0. -1.
        -13    1    3    3    0    0  0.86016760880E+02 -0.10008736975E+03 -0.26168300038E+03  0.29307739152E+03  0.00000000000E+00 0.  1.
         22    1    1    2    0    0 -0.13517837400E+03  0.91051911927E+02 -0.15155643859E+02  0.16368670381E+03  0.00000000000E+00 0.  1.
<mgrwt>
<rscale>  0 0.45042472E+03</rscale>
<asrwt>0</asrwt>
<pdfrwt beam="1">  1        3 0.83437657E-01 0.45042472E+03</pdfrwt>
<pdfrwt beam="2">  1       -3 0.14387841E-01 0.45042472E+03</pdfrwt>
<totfact> 0.14142059E+02</totfact>
</mgrwt>
</event>
<event>
 6    1  0.1614874E-005  0.2485034E+04  0.7818608E-02  0.8408337E-01
          2   -1    0    0  501    0  0.00000000000E+00  0.00000000000E+00  0.40430360346E+03  0.40430360346E+03  0.00000000000E+00 0. -1.
         -2   -1    0    0    0  501 -0.00000000000E+00 -0.00000000000E+00 -0.38185390814E+04  0.38185390814E+04  0.00000000000E+00 0.  1.
         23    2    1    2    0    0  0.94817015720E+03 -0.18120353062E+02 -0.34982377768E+03  0.10150437412E+04  0.92639769711E+02 0.  0.
         13    1    3    3    0    0  0.76794371026E+02  0.15635909785E+02 -0.94391050054E+01  0.78936390844E+02  0.00000000000E+00 0.  1.
        -13    1    3    3    0    0  0.87137578618E+03 -0.33756262847E+02 -0.34038467268E+03  0.93610735037E+03  0.00000000000E+00 0. -1.
         22    1    1    2    0    0 -0.94817015720E+03  0.18120353062E+02 -0.30644117003E+04  0.32077989436E+04  0.00000000000E+00 0.  1.
<mgrwt>
<rscale>  0 0.24850345E+04</rscale>
<asrwt>0</asrwt>
<pdfrwt beam="1">  1        2 0.62200554E-01 0.24850345E+04</pdfrwt>
<pdfrwt beam="2">  1       -2 0.58746755E+00 0.24850345E+04</pdfrwt>
<totfact> 0.39388508E-02</totfact>
</mgrwt>
</event>
<event>
 6    1  0.1614874E-005  0.6685746E+03  0.7818608E-02  0.9772536E-01
         -3   -1    0    0    0  501 -0.00000000000E+00  0.00000000000E+00  0.38108187855E+03  0.38108187855E+03  0.00000000000E+00 0.  1.
          3   -1    0    0  501    0  0.00000000000E+00 -0.00000000000E+00 -0.29323877529E+03  0.29323877529E+03  0.00000000000E+00 0. -1.
         23    2    1    2    0    0  0.30480230739E+03  0.92241086254E+02  0.12506122048E+03  0.35369929953E+03  0.89721909435E+02 0.  0.
         11    1    3    3    0    0  0.63063938204E+02 -0.16881416664E+02  0.31174578429E+02  0.72345676240E+02  0.00000000000E+00 0.  1.
        -11    1    3    3    0    0  0.24173836919E+03  0.10912250292E+03  0.93886642051E+02  0.28135362329E+03  0.00000000000E+00 0. -1.
         22    1    1    2    0    0 -0.30480230739E+03 -0.92241086254E+02 -0.37218117219E+02  0.32062135430E+03  0.00000000000E+00 0. -1.
<mgrwt>
<rscale>  0 0.66857455E+03</rscale>
<asrwt>0</asrwt>
<pdfrwt beam="1">  1        3 0.45113658E-01 0.66857455E+03</pdfrwt>
<pdfrwt beam="2">  1       -3 0.58627981E-01 0.66857455E+03</pdfrwt>
<totfact> 0.36703940E+01</totfact>
</mgrwt>
</event>
<event>
 6    1  0.1614874E-005  0.3263082E+04  0.7818608E-02  0.8172353E-01
          1   -1    0    0  501    0  0.00000000000E+00  0.00000000000E+00  0.11537626981E+04  0.11537626981E+04  0.00000000000E+00 0. -1.
         -1   -1    0    0    0  501 -0.00000000000E+00 -0.00000000000E+00 -0.23071700762E+04  0.23071700762E+04  0.00000000000E+00 0.  1.
         23    2    1    2    0    0 -0.11590341123E+04 -0.19303325135E+03  0.62130618795E+03  0.13324990424E+04  0.94394964789E+02 0.  0.
         11    1    3    3    0    0 -0.22820411477E+03 -0.52291307315E+02  0.85184715251E+02  0.24913437043E+03  0.00000000000E+00 0. -1.
        -11    1    3    3    0    0 -0.93082999748E+03 -0.14074194404E+03  0.53612147270E+03  0.10833646720E+04  0.00000000000E+00 0.  1.
         22    1    1    2    0    0  0.11590341123E+04  0.19303325135E+03 -0.17747135660E+04  0.21284337319E+04  0.00000000000E+00 0.  1.
<mgrwt>
<rscale>  0 0.32630825E+04</rscale>
<asrwt>0</asrwt>
<pdfrwt beam="1">  1        1 0.17750196E+00 0.32630825E+04</pdfrwt>
<pdfrwt beam="2">  1       -1 0.35494924E+00 0.32630825E+04</pdfrwt>
<totfact> 0.13848829E-01</totfact>
</mgrwt>
</event>
<event>
 6    1  0.1614874E-005  0.2889050E+04  0.7818608E-02  0.8276143E-01
         -2   -1    0    0    0  501 -0.00000000000E+00  0.00000000000E+00  0.91579715464E+03  0.91579715464E+03  0.00000000000E+00 0.  1.
          2   -1    0    0  501    0  0.00000000000E+00 -0.00000000000E+00 -0.22785092253E+04  0.22785092253E+04  0.00000000000E+00 0. -1.
         23    2    1    2    0    0  0.28103744111E+03 -0.12222752902E+04  0.10687888252E+03  0.12623031455E+04  0.95116808392E+02 0.  0.
         11    1    3    3    0    0  0.53114009186E+02 -0.43235249750E+03  0.33658111632E+02  0.43690118854E+03  0.00000000000E+00 0.  1.
        -11    1    3    3    0    0  0.22792343193E+03 -0.78992279269E+03  0.73220770890E+02  0.82540195694E+03  0.00000000000E+00 0. -1.
         22    1    1    2    0    0 -0.28103744111E+03  0.12222752902E+04 -0.14695909532E+04  0.19320032345E+04  0.00000000000E+00 0. -1.
<mgrwt>
<rscale>  0 0.28890499E+04</rscale>
<asrwt>0</asrwt>
<pdfrwt beam="1">  1        2 0.35053987E+00 0.28890499E+04</pdfrwt>
<pdfrwt beam="2">  1       -2 0.14089187E+00 0.28890499E+04</pdfrwt>
<totfact> 0.14227832E+00</totfact>
</mgrwt>
</event>
<event>
 6    1  0.1614874E-005  0.2551999E+04  0.7818608E-02  0.8384691E-01
          1   -1    0    0  501    0  0.00000000000E+00  0.00000000000E+00  0.15536429147E+04  0.15536429147E+04  0.00000000000E+00 0. -1.
         -1   -1    0    0    0  501 -0.00000000000E+00 -0.00000000000E+00 -0.10479719710E+04  0.10479719710E+04  0.00000000000E+00 0.  1.
         23    2    1    2    0    0  0.46708550712E+03  0.60385479583E+03 -0.78692087793E+03  0.11004143318E+04  0.94115610529E+02 0.  0.
         11    1    3    3    0    0  0.44257022634E+03  0.56972747182E+03 -0.76988094980E+03  0.10550708385E+04  0.00000000000E+00 0. -1.
        -11    1    3    3    0    0  0.24515280781E+02  0.34127324009E+02 -0.17039928130E+02  0.45343493321E+02  0.00000000000E+00 0.  1.
         22    1    1    2    0    0 -0.46708550712E+03 -0.60385479583E+03  0.12925918217E+04  0.15012005539E+04  0.00000000000E+00 0. -1.
<mgrwt>
<rscale>  0 0.25519986E+04</rscale>
<asrwt>0</asrwt>
<pdfrwt beam="1">  1        1 0.23902199E+00 0.25519986E+04</pdfrwt>
<pdfrwt beam="2">  1       -1 0.16122646E+00 0.25519986E+04</pdfrwt>
<totfact> 0.15194882E+00</totfact>
</mgrwt>
</event>
<event>
 6    1  0.1614874E-005  0.4226653E+04  0.7818608E-02  0.7960322E-01
         -2   -1    0    0    0  501 -0.00000000000E+00  0.00000000000E+00  0.15748028290E+04  0.15748028290E+04  0.00000000000E+00 0.  1.
          2   -1    0    0  501    0  0.00000000000E+00 -0.00000000000E+00 -0.28360049150E+04  0.28360049150E+04  0.00000000000E+00 0. -1.
         23    2    1    2    0    0  0.27542661470E+03 -0.98510451749E+03  0.12977586794E+04  0.16549828349E+04  0.92194703070E+02 0.  0.
         13    1    3    3    0    0  0.73306658575E+02 -0.13943717510E+03  0.20186358497E+03  0.25605760861E+03  0.00000000000E+00 0. -1.
        -13    1    3    3    0    0  0.20211995612E+03 -0.84566734239E+03  0.10958950945E+04  0.13989252263E+04  0.00000000000E+00 0.  1.
         22    1    1    2    0    0 -0.27542661470E+03  0.98510451749E+03 -0.25589607654E+04  0.27558249091E+04  0.00000000000E+00 0. -1.
<mgrwt>
<rscale>  0 0.42266528E+04</rscale>
<asrwt>0</asrwt>
<pdfrwt beam="1">  1        2 0.43630844E+00 0.42266528E+04</pdfrwt>
<pdfrwt beam="2">  1       -2 0.24227736E+00 0.42266528E+04</pdfrwt>
<totfact> 0.12210217E-01</totfact>
</mgrwt>
</event>
<event>
 6    1  0.1614874E-005  0.2569686E+04  0.7818608E-02  0.8378572E-01
          2   -1    0    0  501    0  0.00000000000E+00  0.00000000000E+00  0.16681062627E+04  0.16681062627E+04  0.00000000000E+00 0. -1.
         -2   -1    0    0    0  501 -0.00000000000E+00 -0.00000000000E+00 -0.98963803821E+03  0.98963803821E+03  0.00000000000E+00 0.  1.
         23    2    1    2    0    0 -0.43852426454E+03 -0.55572558659E+03 -0.76724647590E+03  0.10480159222E+04  0.92389178607E+02 0.  0.
         11    1    3    3    0    0 -0.14960456055E+03 -0.18131054234E+03 -0.32035860308E+03  0.39734704210E+03  0.00000000000E+00 0.  1.
        -11    1    3    3    0    0 -0.28891970399E+03 -0.37441504425E+03 -0.44688787281E+03  0.65066888014E+03  0.00000000000E+00 0. -1.
         22    1    1    2    0    0  0.43852426454E+03  0.55572558659E+03  0.14457147004E+04  0.16097283787E+04  0.00000000000E+00 0. -1.
<mgrwt>
<rscale>  0 0.25696859E+04</rscale>
<asrwt>0</asrwt>
<pdfrwt beam="1">  1        2 0.25663173E+00 0.25696859E+04</pdfrwt>
<pdfrwt beam="2">  1       -2 0.15225201E+00 0.25696859E+04</pdfrwt>
<totfact> 0.26093905E+00</totfact>
</mgrwt>
</event>
<event>
 6    1  0.1614874E-005  0.5962870E+04  0.7818608E-02  0.7695023E-01
          2   -1    0    0  501    0  0.00000000000E+00  0.00000000000E+00  0.33372375229E+04  0.33372375229E+04  0.00000000000E+00 0. -1.
         -2   -1    0    0    0  501 -0.00000000000E+00 -0.00000000000E+00 -0.26635666681E+04  0.26635666681E+04  0.00000000000E+00 0.  1.
         23    2    1    2    0    0 -0.20703608620E+04  0.21401202860E+04  0.20091432933E+03  0.29858402328E+04  0.91467976071E+02 0.  0.
         13    1    3    3    0    0 -0.97149190088E+03  0.97804205833E+03  0.13492596192E+03  0.13851237477E+04  0.00000000000E+00 0. -1.
        -13    1    3    3    0    0 -0.10988689611E+04  0.11620782276E+04  0.65988367406E+02  0.16007164850E+04  0.00000000000E+00 0.  1.
         22    1    1    2    0    0  0.20703608620E+04 -0.21401202860E+04  0.47275652543E+03  0.30149639583E+04  0.00000000000E+00 0.  1.
<mgrwt>
<rscale>  0 0.59628700E+04</rscale>
<asrwt>0</asrwt>
<pdfrwt beam="1">  1        2 0.51342116E+00 0.59628700E+04</pdfrwt>
<pdfrwt beam="2">  1       -2 0.40977949E+00 0.59628700E+04</pdfrwt>
<totfact> 0.45468213E-03</totfact>
</mgrwt>
</event>
<event>
 6    1  0.1614874E-005  0.4505747E+04  0.7818608E-02  0.7909631E-01
          2   -1    0    0  501    0  0.00000000000E+00  0.00000000000E+00  0.20958588354E+04  0.20958588354E+04  0.00000000000E+00 0. -1.
         -2   -1    0    0    0  501 -0.00000000000E+00 -0.00000000000E+00 -0.24216509204E+04  0.24216509204E+04  0.00000000000E+00 0.  1.
         23    2    1    2    0    0 -0.14934152264E+04 -0.14148548071E+04  0.75546727504E+03  0.21934561920E+04  0.91739299672E+02 0.  0.
         11    1    3    3    0    0 -0.24289218168E+03 -0.20147289440E+03  0.14353672774E+03  0.34668534914E+03  0.00000000000E+00 0. -1.
        -11    1    3    3    0    0 -0.12505230448E+04 -0.12133819127E+04  0.61193054730E+03  0.18467708429E+04  0.00000000000E+00 0.  1.
         22    1    1    2    0    0  0.14934152264E+04  0.14148548071E+04 -0.10812593600E+04  0.23240535638E+04  0.00000000000E+00 0. -1.
<mgrwt>
<rscale>  0 0.45057468E+04</rscale>
<asrwt>0</asrwt>
<pdfrwt beam="1">  1        2 0.32243982E+00 0.45057468E+04</pdfrwt>
<pdfrwt beam="2">  1       -2 0.37256168E+00 0.45057468E+04</pdfrwt>
<totfact> 0.50013649E-02</totfact>
</mgrwt>
</event>
<event>
 6    1  0.1614874E-005  0.1978502E+04  0.7818608E-02  0.8616738E-01
         -1   -1    0    0    0  501 -0.00000000000E+00  0.00000000000E+00  0.52068154988E+03  0.52068154988E+03  0.00000000000E+00 0.  1.
          1   -1    0    0  501    0  0.00000000000E+00 -0.00000000000E+00 -0.18794941668E+04  0.18794941668E+04  0.00000000000E+00 0. -1.
         23    2    1    2    0    0 -0.51349037147E+03 -0.80820450580E+03 -0.38979128912E+03  0.10378728067E+04  0.91519555412E+02 0.  0.
         11    1    3    3    0    0 -0.19077547605E+03 -0.22664776811E+03 -0.13638418498E+03  0.32613668755E+03  0.00000000000E+00 0. -1.
        -11    1    3    3    0    0 -0.32271489543E+03 -0.58155673769E+03 -0.25340710414E+03  0.71173611916E+03  0.00000000000E+00 0.  1.
         22    1    1    2    0    0  0.51349037147E+03  0.80820450580E+03 -0.96902132778E+03  0.13623029100E+04  0.00000000000E+00 0.  1.
<mgrwt>
<rscale>  0 0.19785024E+04</rscale>
<asrwt>0</asrwt>
<pdfrwt beam="1">  1        1 0.28915295E+00 0.19785024E+04</pdfrwt>
<pdfrwt beam="2">  1       -1 0.80104853E-01 0.19785024E+04</pdfrwt>
<totfact> 0.52004165E+00</totfact>
</mgrwt>
</event>
<event>
 6    1  0.1614874E-005  0.1445438E+04  0.7818608E-02  0.8921569E-01
         -2   -1    0    0    0  501 -0.00000000000E+00  0.00000000000E+00  0.44700493029E+03  0.44700493029E+03  0.00000000000E+00 0. -1.
          2   -1    0    0  501    0  0.00000000000E+00 -0.00000000000E+00 -0.11684947421E+04  0.11684947421E+04  0.00000000000E+00 0.  1.
         23    2    1    2    0    0  0.55402886950E+03 -0.14435146735E+03 -0.84967566287E+03  0.10287996240E+04  0.93244838062E+02 0.  0.
         11    1    3    3    0    0  0.37806909418E+03 -0.66498419926E+02 -0.50878346216E+03  0.63735303497E+03  0.00000000000E+00 0.  1.
        -11    1    3    3    0    0  0.17595977533E+03 -0.77853047424E+02 -0.34089220071E+03  0.39144658899E+03  0.00000000000E+00 0. -1.
         22    1    1    2    0    0 -0.55402886950E+03  0.14435146735E+03  0.12818585108E+03  0.58670004840E+03  0.00000000000E+00 0. -1.
<mgrwt>
<rscale>  0 0.14454382E+04</rscale>
<asrwt>0</asrwt>
<pdfrwt beam="1">  1        2 0.17976842E+00 0.14454382E+04</pdfrwt>
<pdfrwt beam="2">  1       -2 0.68769991E-01 0.14454382E+04</pdfrwt>
<totfact> 0.37090910E+01</totfact>
</mgrwt>
</event>
<event>
 6    1  0.1614874E-005  0.1195450E+04  0.7818608E-02  0.9116848E-01
         -2   -1    0    0    0  501 -0.00000000000E+00  0.00000000000E+00  0.11082850358E+04  0.11082850358E+04  0.00000000000E+00 0.  1.
          2   -1    0    0  501    0  0.00000000000E+00 -0.00000000000E+00 -0.32236763968E+03  0.32236763968E+03  0.00000000000E+00 0. -1.
         23    2    1    2    0    0 -0.34428850474E+03  0.43516257949E+03  0.64889752683E+03  0.85909735036E+03  0.95284899031E+02 0.  0.
         13    1    3    3    0    0 -0.77148817284E+02  0.44819768894E+02  0.12018234969E+03  0.14968149140E+03  0.00000000000E+00 0. -1.
        -13    1    3    3    0    0 -0.26713968746E+03  0.39034281060E+03  0.52871517714E+03  0.70941585895E+03  0.00000000000E+00 0.  1.
         22    1    1    2    0    0  0.34428850474E+03 -0.43516257949E+03  0.13701986927E+03  0.57155532511E+03  0.00000000000E+00 0.  1.
<mgrwt>
<rscale>  0 0.11954501E+04</rscale>
<asrwt>0</asrwt>
<pdfrwt beam="1">  1        2 0.49595022E-01 0.11954501E+04</pdfrwt>
<pdfrwt beam="2">  1       -2 0.17050539E+00 0.11954501E+04</pdfrwt>
<totfact> 0.21113577E+01</totfact>
</mgrwt>
</event>
<event>
 6    1  0.1614874E-005  0.2776859E+04  0.7818608E-02  0.8310489E-01
         -1   -1    0    0    0  501 -0.00000000000E+00  0.00000000000E+00  0.53532829233E+03  0.53532829233E+03  0.00000000000E+00 0. -1.
          1   -1    0    0  501    0  0.00000000000E+00 -0.00000000000E+00 -0.36010358306E+04  0.36010358306E+04  0.00000000000E+00 0.  1.
         23    2    1    2    0    0  0.11812497754E+04 -0.66302945052E+03 -0.19777087667E+04  0.23989233581E+04  0.92424175589E+02 0.  0.
         11    1    3    3    0    0  0.73133722966E+03 -0.36390615722E+03 -0.12253715684E+04  0.14726905023E+04  0.00000000000E+00 0.  1.
        -11    1    3    3    0    0  0.44991254578E+03 -0.29912329330E+03 -0.75233719826E+03  0.92623285589E+03  0.00000000000E+00 0. -1.
         22    1    1    2    0    0 -0.11812497754E+04  0.66302945052E+03 -0.10879987716E+04  0.17374407648E+04  0.00000000000E+00 0. -1.
<mgrwt>
<rscale>  0 0.27768589E+04</rscale>
<asrwt>0</asrwt>
<pdfrwt beam="1">  1        1 0.55400548E+00 0.27768589E+04</pdfrwt>
<pdfrwt beam="2">  1       -1 0.82358203E-01 0.27768589E+04</pdfrwt>
<totfact> 0.26394957E-01</totfact>
</mgrwt>
</event>
<event>
 6    1  0.1614874E-005  0.3916012E+03  0.7818608E-02  0.1046727E+00
          1   -1    0    0  501    0  0.00000000000E+00  0.00000000000E+00  0.60361967852E+03  0.60361967852E+03  0.00000000000E+00 0. -1.
         -1   -1    0    0    0  501 -0.00000000000E+00 -0.00000000000E+00 -0.63513291502E+02  0.63513291502E+02  0.00000000000E+00 0.  1.
         23    2    1    2    0    0 -0.11997079751E+03  0.46597624824E+02  0.59452568758E+02  0.16954637062E+03  0.92989423947E+02 0.  0.
         13    1    3    3    0    0 -0.24998276941E+02 -0.27987254415E+02  0.84902015918E+01  0.38474456237E+02  0.00000000000E+00 0. -1.
        -13    1    3    3    0    0 -0.94972520565E+02  0.74584879239E+02  0.50962367166E+02  0.13107191439E+03  0.00000000000E+00 0.  1.
         22    1    1    2    0    0  0.11997079751E+03 -0.46597624824E+02  0.48065381826E+03  0.49758659940E+03  0.00000000000E+00 0. -1.
<mgrwt>
<rscale>  0 0.39160119E+03</rscale>
<asrwt>0</asrwt>
<pdfrwt beam="1">  1        1 0.92864562E-01 0.39160119E+03</pdfrwt>
<pdfrwt beam="2">  1       -1 0.97712760E-02 0.39160119E+03</pdfrwt>
<totfact> 0.22118932E+03</totfact>
</mgrwt>
</event>
<event>
 6    1  0.1614874E-005  0.2350277E+04  0.7818608E-02  0.8458357E-01
         -1   -1    0    0    0  501 -0.00000000000E+00  0.00000000000E+00  0.36082786577E+03  0.36082786577E+03  0.00000000000E+00 0.  1.
          1   -1    0    0  501    0  0.00000000000E+00 -0.00000000000E+00 -0.38271737333E+04  0.38271737333E+04  0.00000000000E+00 0. -1.
         23    2    1    2    0    0 -0.60776379239E+03 -0.95404472845E+03 -0.22911997525E+04  0.25568834050E+04  0.92077521409E+02 0.  0.
         13    1    3    3    0    0 -0.22669073292E+03 -0.40284938158E+03 -0.85165586299E+03  0.96901703886E+03  0.00000000000E+00 0. -1.
        -13    1    3    3    0    0 -0.38107305947E+03 -0.55119534687E+03 -0.14395438895E+04  0.15878663662E+04  0.00000000000E+00 0.  1.
         22    1    1    2    0    0  0.60776379239E+03  0.95404472845E+03 -0.11751461151E+04  0.16311181941E+04  0.00000000000E+00 0.  1.
<mgrwt>
<rscale>  0 0.23502774E+04</rscale>
<asrwt>0</asrwt>
<pdfrwt beam="1">  1        1 0.58879595E+00 0.23502774E+04</pdfrwt>
<pdfrwt beam="2">  1       -1 0.55511980E-01 0.23502774E+04</pdfrwt>
<totfact> 0.40055371E-01</totfact>
</mgrwt>
</event>
<event>
 6    1  0.1614874E-005  0.4317328E+04  0.7818608E-02  0.7943422E-01
          1   -1    0    0  501    0  0.00000000000E+00  0.00000000000E+00  0.29394974410E+04  0.29394974410E+04  0.00000000000E+00 0. -1.
         -1   -1    0    0    0  501 -0.00000000000E+00 -0.00000000000E+00 -0.15852473627E+04  0.15852473627E+04  0.00000000000E+00 0.  1.
         23    2    1    2    0    0  0.25357630039E+03 -0.19514574512E+04 -0.24994323018E+03  0.19858625112E+04  0.93226451605E+02 0.  0.
         13    1    3    3    0    0  0.72488156383E+01 -0.28186676304E+03 -0.21010160612E+02  0.28274165643E+03  0.00000000000E+00 0. -1.
        -13    1    3    3    0    0  0.24632748475E+03 -0.16695906881E+04 -0.22893306957E+03  0.17031208548E+04  0.00000000000E+00 0.  1.
         22    1    1    2    0    0 -0.25357630039E+03  0.19514574512E+04  0.16041933085E+04  0.25388822924E+04  0.00000000000E+00 0. -1.
<mgrwt>
<rscale>  0 0.43173281E+04</rscale>
<asrwt>0</asrwt>
<pdfrwt beam="1">  1        1 0.45223037E+00 0.43173281E+04</pdfrwt>
<pdfrwt beam="2">  1       -1 0.24388421E+00 0.43173281E+04</pdfrwt>
<totfact> 0.38560354E-02</totfact>
</mgrwt>
</event>
<event>
 6    1  0.1614874E-005  0.2203286E+04  0.7818608E-02  0.8517062E-01
         -2   -1    0    0    0  501 -0.00000000000E+00  0.00000000000E+00  0.79279547092E+03  0.79279547092E+03  0.00000000000E+00 0.  1.
          2   -1    0    0  501    0  0.00000000000E+00 -0.00000000000E+00 -0.15308074928E+04  0.15308074928E+04  0.00000000000E+00 0. -1.
         23    2    1    2    0    0 -0.39142141803E+03  0.20789405892E+03  0.69194203485E+03  0.82653941443E+03  0.89179357376E+02 0.  0.
         11    1    3    3    0    0 -0.24167163494E+03  0.17409261601E+03  0.47838565349E+03  0.56353016916E+03  0.00000000000E+00 0.  1.
        -11    1    3    3    0    0 -0.14974978309E+03  0.33801442907E+02  0.21355638136E+03  0.26300924527E+03  0.00000000000E+00 0. -1.
         22    1    1    2    0    0  0.39142141803E+03 -0.20789405892E+03 -0.14299540567E+04  0.14970635492E+04  0.00000000000E+00 0. -1.
<mgrwt>
<rscale>  0 0.22032860E+04</rscale>
<asrwt>0</asrwt>
<pdfrwt beam="1">  1        2 0.23550884E+00 0.22032860E+04</pdfrwt>
<pdfrwt beam="2">  1       -2 0.12196854E+00 0.22032860E+04</pdfrwt>
<totfact> 0.56833868E+00</totfact>
</mgrwt>
</event>
<event>
 6    1  0.1614874E-005  0.2037112E+04  0.7818608E-02  0.8589464E-01
          4   -1    0    0  501    0  0.00000000000E+00  0.00000000000E+00  0.83810747573E+03  0.83810747573E+03  0.00000000000E+00 0. -1.
         -4   -1    0    0    0  501 -0.00000000000E+00 -0.00000000000E+00 -0.12378557671E+04  0.12378557671E+04  0.00000000000E+00 0.  1.
         23    2    1    2    0    0  0.53829866060E+03 -0.26866563347E+03  0.63437852475E+03  0.87956659355E+03  0.96200879522E+02 0.  0.
         11    1    3    3    0    0  0.45896037814E+02 -0.53425433410E+02  0.94069358504E+02  0.11751496684E+03  0.00000000000E+00 0.  1.
        -11    1    3    3    0    0  0.49240262278E+03 -0.21524020006E+03  0.54030916624E+03  0.76205162671E+03  0.00000000000E+00 0. -1.
         22    1    1    2    0    0 -0.53829866060E+03  0.26866563347E+03 -0.10341268161E+04  0.11963966493E+04  0.00000000000E+00 0.  1.
<mgrwt>
<rscale>  0 0.20371118E+04</rscale>
<asrwt>0</asrwt>
<pdfrwt beam="1">  1        4 0.12893961E+00 0.20371118E+04</pdfrwt>
<pdfrwt beam="2">  1       -4 0.19043935E+00 0.20371118E+04</pdfrwt>
<totfact> 0.12474185E-01</totfact>
</mgrwt>
</event>
<event>
 6    1  0.1614874E-005  0.2383275E+04  0.7818608E-02  0.8445792E-01
          2   -1    0    0  501    0  0.00000000000E+00  0.00000000000E+00  0.27463247800E+04  0.27463247800E+04  0.00000000000E+00 0. -1.
         -2   -1    0    0    0  501 -0.00000000000E+00 -0.00000000000E+00 -0.51705481911E+03  0.51705481911E+03  0.00000000000E+00 0.  1.
         23    2    1    2    0    0 -0.74157274502E+03 -0.82577037922E+03  0.52884581750E+03  0.12327961552E+04  0.91003330566E+02 0.  0.
         11    1    3    3    0    0 -0.18860857244E+03 -0.27083170932E+03  0.16632503376E+03  0.36957681911E+03  0.00000000000E+00 0. -1.
        -11    1    3    3    0    0 -0.55296417258E+03 -0.55493866990E+03  0.36252078374E+03  0.86321933606E+03  0.00000000000E+00 0.  1.
         22    1    1    2    0    0  0.74157274502E+03  0.82577037922E+03  0.17004241434E+04  0.20305834440E+04  0.00000000000E+00 0. -1.
<mgrwt>
<rscale>  0 0.23832754E+04</rscale>
<asrwt>0</asrwt>
<pdfrwt beam="1">  1        2 0.42251150E+00 0.23832754E+04</pdfrwt>
<pdfrwt beam="2">  1       -2 0.79546897E-01 0.23832754E+04</pdfrwt>
<totfact> 0.31411953E+00</totfact>
</mgrwt>
</event>
<event>
 6    1  0.1614874E-005  0.1574681E+04  0.7818608E-02  0.8836255E-01
         -2   -1    0    0    0  501 -0.00000000000E+00  0.00000000000E+00  0.30558371472E+03  0.30558371472E+03  0.00000000000E+00 0.  1.
          2   -1    0    0  501    0  0.00000000000E+00 -0.00000000000E+00 -0.20285920819E+04  0.20285920819E+04  0.00000000000E+00 0. -1.
         23    2    1    2    0    0 -0.73669824965E+03  0.26357971012E+03 -0.77345438573E+03  0.11037891345E+04  0.88995460813E+02 0.  0.
         13    1    3    3    0    0 -0.50580853832E+03  0.16275613933E+03 -0.47009548213E+03  0.70945161966E+03  0.00000000000E+00 0.  1.
        -13    1    3    3    0    0 -0.23088971133E+03  0.10082357079E+03 -0.30335890360E+03  0.39433751485E+03  0.00000000000E+00 0. -1.
         22    1    1    2    0    0  0.73669824965E+03 -0.26357971012E+03 -0.94955398147E+03  0.12303866621E+04  0.00000000000E+00 0. -1.
<mgrwt>
<rscale>  0 0.15746805E+04</rscale>
<asrwt>0</asrwt>
<pdfrwt beam="1">  1        2 0.31209109E+00 0.15746805E+04</pdfrwt>
<pdfrwt beam="2">  1       -2 0.47012879E-01 0.15746805E+04</pdfrwt>
<totfact> 0.26547180E+01</totfact>
</mgrwt>
</event>
<event>
 6    1  0.1614874E-005  0.3548930E+04  0.7818608E-02  0.8102291E-01
          1   -1    0    0  501    0  0.00000000000E+00  0.00000000000E+00  0.22903803889E+04  0.22903803889E+04  0.00000000000E+00 0. -1.
         -1   -1    0    0    0  501 -0.00000000000E+00 -0.00000000000E+00 -0.13747614865E+04  0.13747614865E+04  0.00000000000E+00 0.  1.
         23    2    1    2    0    0 -0.12710594122E+04 -0.31718373368E+03 -0.77612012302E+03  0.15254740319E+04  0.92255225400E+02 0.  0.
         11    1    3    3    0    0 -0.82375061919E+03 -0.24640551628E+03 -0.48645428751E+03  0.98788589165E+03  0.00000000000E+00 0. -1.
        -11    1    3    3    0    0 -0.44730879297E+03 -0.70778217400E+02 -0.28966583550E+03  0.53758814030E+03  0.00000000000E+00 0.  1.
         22    1    1    2    0    0  0.12710594122E+04  0.31718373368E+03  0.16917390254E+04  0.21396678434E+04  0.00000000000E+00 0. -1.
<mgrwt>
<rscale>  0 0.35489304E+04</rscale>
<asrwt>0</asrwt>
<pdfrwt beam="1">  1        1 0.35236621E+00 0.35489304E+04</pdfrwt>
<pdfrwt beam="2">  1       -1 0.21150177E+00 0.35489304E+04</pdfrwt>
<totfact> 0.19280443E-01</totfact>
</mgrwt>
</event>
<event>
 6    1  0.1614874E-005  0.2659276E+04  0.7818608E-02  0.8348341E-01
          2   -1    0    0  501    0  0.00000000000E+00  0.00000000000E+00  0.12168851608E+04  0.12168851608E+04  0.00000000000E+00 0. -1.
         -2   -1    0    0    0  501 -0.00000000000E+00 -0.00000000000E+00 -0.14528379865E+04  0.14528379865E+04  0.00000000000E+00 0.  1.
         23    2    1    2    0    0  0.65594050992E+03 -0.11347831581E+04  0.96779011456E+02  0.13174283407E+04  0.90887223931E+02 0.  0.
         11    1    3    3    0    0  0.56658674276E+03 -0.92167970944E+03  0.98150730028E+02  0.10863459806E+04  0.00000000000E+00 0.  1.
        -11    1    3    3    0    0  0.89353767162E+02 -0.21310344863E+03 -0.13717185721E+01  0.23108236007E+03  0.00000000000E+00 0. -1.
         22    1    1    2    0    0 -0.65594050992E+03  0.11347831581E+04 -0.33273183712E+03  0.13522948066E+04  0.00000000000E+00 0.  1.
<mgrwt>
<rscale>  0 0.26592758E+04</rscale>
<asrwt>0</asrwt>
<pdfrwt beam="1">  1        2 0.18721310E+00 0.26592758E+04</pdfrwt>
<pdfrwt beam="2">  1       -2 0.22351354E+00 0.26592758E+04</pdfrwt>
<totfact> 0.15297004E+00</totfact>
</mgrwt>
</event>
<event>
 6    1  0.1614874E-005  0.3584707E+04  0.7818608E-02  0.8094004E-01
          2   -1    0    0  501    0  0.00000000000E+00  0.00000000000E+00  0.39889482592E+04  0.39889482592E+04  0.00000000000E+00 0.  1.
         -2   -1    0    0    0  501 -0.00000000000E+00 -0.00000000000E+00 -0.80535808040E+03  0.80535808040E+03  0.00000000000E+00 0. -1.
         23    2    1    2    0    0 -0.75372065405E+03  0.14268472407E+04  0.26328617669E+04  0.30892287295E+04  0.85937110614E+02 0.  0.
         11    1    3    3    0    0 -0.17633039121E+03  0.36310666068E+03  0.72626930629E+03  0.83090670906E+03  0.00000000000E+00 0. -1.
        -11    1    3    3    0    0 -0.57739026284E+03  0.10637405800E+04  0.19065924606E+04  0.22583220204E+04  0.00000000000E+00 0.  1.
         22    1    1    2    0    0  0.75372065405E+03 -0.14268472407E+04  0.55072841190E+03  0.17050776101E+04  0.00000000000E+00 0. -1.
<mgrwt>
<rscale>  0 0.35847074E+04</rscale>
<asrwt>0</asrwt>
<pdfrwt beam="1">  1        2 0.61368434E+00 0.35847074E+04</pdfrwt>
<pdfrwt beam="2">  1       -2 0.12390125E+00 0.35847074E+04</pdfrwt>
<totfact> 0.13931179E-01</totfact>
</mgrwt>
</event>
<event>
 6    1  0.1614874E-005  0.3782446E+04  0.7818608E-02  0.8049932E-01
          2   -1    0    0  501    0  0.00000000000E+00  0.00000000000E+00  0.23401296926E+04  0.23401296926E+04  0.00000000000E+00 0. -1.
         -2   -1    0    0    0  501 -0.00000000000E+00 -0.00000000000E+00 -0.15284301633E+04  0.15284301633E+04  0.00000000000E+00 0.  1.
         23    2    1    2    0    0 -0.18393817842E+04 -0.40257429197E+02 -0.36495626437E+02  0.18426326531E+04  0.94958699654E+02 0.  0.
         13    1    3    3    0    0 -0.15359572476E+04 -0.56376584171E+02 -0.57390908401E+02  0.15380626457E+04  0.00000000000E+00 0. -1.
        -13    1    3    3    0    0 -0.30342453666E+03  0.16119154974E+02  0.20895281964E+02  0.30457000741E+03  0.00000000000E+00 0.  1.
         22    1    1    2    0    0  0.18393817842E+04  0.40257429197E+02  0.84819515570E+03  0.20259272028E+04  0.00000000000E+00 0. -1.
<mgrwt>
<rscale>  0 0.37824462E+04</rscale>
<asrwt>0</asrwt>
<pdfrwt beam="1">  1        2 0.36001995E+00 0.37824462E+04</pdfrwt>
<pdfrwt beam="2">  1       -2 0.23514310E+00 0.37824462E+04</pdfrwt>
<totfact> 0.27426549E-01</totfact>
</mgrwt>
</event>
<event>
 6    1  0.1614874E-005  0.7788908E+04  0.7818608E-02  0.7501130E-01
          2   -1    0    0  501    0  0.00000000000E+00  0.00000000000E+00  0.46290884782E+04  0.46290884782E+04  0.00000000000E+00 0. -1.
         -2   -1    0    0    0  501 -0.00000000000E+00 -0.00000000000E+00 -0.32764059558E+04  0.32764059558E+04  0.00000000000E+00 0.  1.
         23    2    1    2    0    0 -0.32659684910E+04 -0.15485674182E+04  0.21465593575E+04  0.42048388621E+04  0.91332073179E+02 0.  0.
         13    1    3    3    0    0 -0.21754342734E+04 -0.99577935463E+03  0.14539205335E+04  0.27996384979E+04  0.00000000000E+00 0. -1.
        -13    1    3    3    0    0 -0.10905342176E+04 -0.55278806362E+03  0.69263882400E+03  0.14052003642E+04  0.00000000000E+00 0.  1.
         22    1    1    2    0    0  0.32659684910E+04  0.15485674182E+04 -0.79387683511E+03  0.37006555720E+04  0.00000000000E+00 0.  1.
<mgrwt>
<rscale>  0 0.77889083E+04</rscale>
<asrwt>0</asrwt>
<pdfrwt beam="1">  1        2 0.71216746E+00 0.77889083E+04</pdfrwt>
<pdfrwt beam="2">  1       -2 0.50406245E+00 0.77889083E+04</pdfrwt>
<totfact> 0.83630561E-05</totfact>
</mgrwt>
</event>
<event>
 6    1  0.1614874E-005  0.2444963E+04  0.7818608E-02  0.8422859E-01
          1   -1    0    0  501    0  0.00000000000E+00  0.00000000000E+00  0.10586022203E+04  0.10586022203E+04  0.00000000000E+00 0. -1.
         -1   -1    0    0    0  501 -0.00000000000E+00 -0.00000000000E+00 -0.14117308993E+04  0.14117308993E+04  0.00000000000E+00 0.  1.
         23    2    1    2    0    0  0.11446337582E+04 -0.29909046492E+03 -0.48095114582E+03  0.12803834865E+04  0.91794995811E+02 0.  0.
         11    1    3    3    0    0  0.65681925387E+03 -0.21320418382E+03 -0.25761620672E+03  0.73704386994E+03  0.00000000000E+00 0.  1.
        -11    1    3    3    0    0  0.48781450429E+03 -0.85886281099E+02 -0.22333493910E+03  0.54333961653E+03  0.00000000000E+00 0. -1.
         22    1    1    2    0    0 -0.11446337582E+04  0.29909046492E+03  0.12782246684E+03  0.11899496332E+04  0.00000000000E+00 0. -1.
<mgrwt>
<rscale>  0 0.24449634E+04</rscale>
<asrwt>0</asrwt>
<pdfrwt beam="1">  1        1 0.16286188E+00 0.24449634E+04</pdfrwt>
<pdfrwt beam="2">  1       -1 0.21718937E+00 0.24449634E+04</pdfrwt>
<totfact> 0.13984879E+00</totfact>
</mgrwt>
</event>
<event>
 6    1  0.1614874E-005  0.6383320E+03  0.7818608E-02  0.9828923E-01
          1   -1    0    0  501    0  0.00000000000E+00  0.00000000000E+00  0.22274223282E+03  0.22274223282E+03  0.00000000000E+00 0. -1.
         -1   -1    0    0    0  501 -0.00000000000E+00 -0.00000000000E+00 -0.45733101155E+03  0.45733101155E+03  0.00000000000E+00 0.  1.
         23    2    1    2    0    0  0.30303144392E+03  0.68130467738E+02 -0.82996169189E+02  0.33445765458E+03  0.92215736020E+02 0.  0.
         11    1    3    3    0    0  0.19670512048E+03 -0.15802995372E+01 -0.45542780889E+02  0.20191470144E+03  0.00000000000E+00 0. -1.
        -11    1    3    3    0    0  0.10632632344E+03  0.69710767275E+02 -0.37453388300E+02  0.13254295314E+03  0.00000000000E+00 0.  1.
         22    1    1    2    0    0 -0.30303144392E+03 -0.68130467738E+02 -0.15159260953E+03  0.34561558979E+03  0.00000000000E+00 0.  1.
<mgrwt>
<rscale>  0 0.63833198E+03</rscale>
<asrwt>0</asrwt>
<pdfrwt beam="1">  1        1 0.34268036E-01 0.63833198E+03</pdfrwt>
<pdfrwt beam="2">  1       -1 0.70358617E-01 0.63833198E+03</pdfrwt>
<totfact> 0.26786091E+02</totfact>
</mgrwt>
</event>
<event>
 6    1  0.1614874E-005  0.2167163E+04  0.7818608E-02  0.8532221E-01
          1   -1    0    0  501    0  0.00000000000E+00  0.00000000000E+00  0.11218960287E+04  0.11218960287E+04  0.00000000000E+00 0. -1.
         -1   -1    0    0    0  501 -0.00000000000E+00 -0.00000000000E+00 -0.10465751522E+04  0.10465751522E+04  0.00000000000E+00 0.  1.
         23    2    1    2    0    0  0.48667049993E+03 -0.86460663091E+03 -0.39344530016E+03  0.10711405425E+04  0.90277659874E+02 0.  0.
         13    1    3    3    0    0  0.26896047647E+03 -0.49446275637E+03 -0.17568322300E+03  0.58965901179E+03  0.00000000000E+00 0. -1.
        -13    1    3    3    0    0  0.21771002345E+03 -0.37014387454E+03 -0.21776207717E+03  0.48148153072E+03  0.00000000000E+00 0.  1.
         22    1    1    2    0    0 -0.48667049993E+03  0.86460663091E+03  0.46876617667E+03  0.10973306385E+04  0.00000000000E+00 0. -1.
<mgrwt>
<rscale>  0 0.21671627E+04</rscale>
<asrwt>0</asrwt>
<pdfrwt beam="1">  1        1 0.17259939E+00 0.21671627E+04</pdfrwt>
<pdfrwt beam="2">  1       -1 0.16101156E+00 0.21671627E+04</pdfrwt>
<totfact> 0.32050626E+00</totfact>
</mgrwt>
</event>
<event>
 6    1  0.1614874E-005  0.3843271E+04  0.7818608E-02  0.8036932E-01
          1   -1    0    0  501    0  0.00000000000E+00  0.00000000000E+00  0.15277578848E+04  0.15277578848E+04  0.00000000000E+00 0. -1.
         -1   -1    0    0    0  501 -0.00000000000E+00 -0.00000000000E+00 -0.24170607160E+04  0.24170607160E+04  0.00000000000E+00 0.  1.
         23    2    1    2    0    0 -0.58472859539E+03 -0.82119113067E+03  0.12329623182E+04  0.15952927406E+04  0.92197868620E+02 0.  0.
         13    1    3    3    0    0 -0.24575179462E+03 -0.27226135761E+03  0.46795160842E+03  0.59455773414E+03  0.00000000000E+00 0. -1.
        -13    1    3    3    0    0 -0.33897680078E+03 -0.54892977306E+03  0.76501070974E+03  0.10007350065E+04  0.00000000000E+00 0.  1.
         22    1    1    2    0    0  0.58472859539E+03  0.82119113067E+03 -0.21222651494E+04  0.23495258602E+04  0.00000000000E+00 0. -1.
<mgrwt>
<rscale>  0 0.38432713E+04</rscale>
<asrwt>0</asrwt>
<pdfrwt beam="1">  1        1 0.23503968E+00 0.38432713E+04</pdfrwt>
<pdfrwt beam="2">  1       -1 0.37185549E+00 0.38432713E+04</pdfrwt>
<totfact> 0.55054545E-02</totfact>
</mgrwt>
</event>
<event>
 6    1  0.1614874E-005  0.2577759E+04  0.7818608E-02  0.8375795E-01
          2   -1    0    0  501    0  0.00000000000E+00  0.00000000000E+00  0.37573288771E+04  0.37573288771E+04  0.00000000000E+00 0. -1.
         -2   -1    0    0    0  501 -0.00000000000E+00 -0.00000000000E+00 -0.44212540395E+03  0.44212540395E+03  0.00000000000E+00 0.  1.
         23    2    1    2    0    0  0.68024226612E+03 -0.82979120031E+03  0.28185588903E+04  0.30171096534E+04  0.85985267657E+02 0.  0.
         13    1    3    3    0    0  0.68125246855E+01 -0.29981100681E+02  0.73621255849E+02  0.79783245130E+02  0.00000000000E+00 0. -1.
        -13    1    3    3    0    0  0.67342974143E+03 -0.79981009963E+03  0.27449376344E+04  0.29373264083E+04  0.00000000000E+00 0.  1.
         22    1    1    2    0    0 -0.68024226612E+03  0.82979120031E+03  0.49664458289E+03  0.11823446276E+04  0.00000000000E+00 0.  1.
<mgrwt>
<rscale>  0 0.25777591E+04</rscale>
<asrwt>0</asrwt>
<pdfrwt beam="1">  1        2 0.57805057E+00 0.25777591E+04</pdfrwt>
<pdfrwt beam="2">  1       -2 0.68019295E-01 0.25777591E+04</pdfrwt>
<totfact> 0.92925502E-01</totfact>
</mgrwt>
</event>
<event>
 6    1  0.1614874E-005  0.5348430E+04  0.7818608E-02  0.7776897E-01
          1   -1    0    0  501    0  0.00000000000E+00  0.00000000000E+00  0.36654729810E+04  0.36654729810E+04  0.00000000000E+00 0. -1.
         -1   -1    0    0    0  501 -0.00000000000E+00 -0.00000000000E+00 -0.19510237772E+04  0.19510237772E+04  0.00000000000E+00 0.  1.
         23    2    1    2    0    0 -0.74894757606E+03  0.24297676964E+04  0.17243200635E+04  0.30739014376E+04  0.10438791057E+03 0.  0.
         11    1    3    3    0    0 -0.24149141353E+03  0.83064962952E+03  0.64437810689E+03  0.10786658679E+04  0.00000000000E+00 0. -1.
        -11    1    3    3    0    0 -0.50745616253E+03  0.15991180669E+04  0.10799419567E+04  0.19952355697E+04  0.00000000000E+00 0.  1.
         22    1    1    2    0    0  0.74894757606E+03 -0.24297676964E+04 -0.98708597777E+01  0.25425953206E+04  0.00000000000E+00 0.  1.
<mgrwt>
<rscale>  0 0.53484297E+04</rscale>
<asrwt>0</asrwt>
<pdfrwt beam="1">  1        1 0.56391892E+00 0.53484297E+04</pdfrwt>
<pdfrwt beam="2">  1       -1 0.30015751E+00 0.53484297E+04</pdfrwt>
<totfact> 0.42539253E-03</totfact>
</mgrwt>
</event>
<event>
 6    1  0.1614874E-005  0.5650502E+04  0.7818608E-02  0.7735313E-01
         -1   -1    0    0    0  501 -0.00000000000E+00  0.00000000000E+00  0.28162443382E+04  0.28162443382E+04  0.00000000000E+00 0.  1.
          1   -1    0    0  501    0  0.00000000000E+00 -0.00000000000E+00 -0.28342862234E+04  0.28342862234E+04  0.00000000000E+00 0. -1.
         23    2    1    2    0    0  0.73680494389E+03  0.16632749903E+04  0.21516932558E+04  0.28190793788E+04  0.89774486944E+02 0.  0.
         13    1    3    3    0    0  0.38777158900E+03  0.80448063381E+03  0.10024138160E+04  0.13425309508E+04  0.00000000000E+00 0. -1.
        -13    1    3    3    0    0  0.34903335489E+03  0.85879435645E+03  0.11492794397E+04  0.14765484280E+04  0.00000000000E+00 0.  1.
         22    1    1    2    0    0 -0.73680494389E+03 -0.16632749903E+04 -0.21697351410E+04  0.28314511828E+04  0.00000000000E+00 0. -1.
<mgrwt>
<rscale>  0 0.56505018E+04</rscale>
<asrwt>0</asrwt>
<pdfrwt beam="1">  1        1 0.43604403E+00 0.56505018E+04</pdfrwt>
<pdfrwt beam="2">  1       -1 0.43326836E+00 0.56505018E+04</pdfrwt>
<totfact> 0.22870002E-03</totfact>
</mgrwt>
</event>
<event>
 6    1  0.1614874E-005  0.2575376E+04  0.7818608E-02  0.8376614E-01
          1   -1    0    0  501    0  0.00000000000E+00  0.00000000000E+00  0.22869140523E+04  0.22869140523E+04  0.00000000000E+00 0. -1.
         -1   -1    0    0    0  501 -0.00000000000E+00 -0.00000000000E+00 -0.72505560426E+03  0.72505560426E+03  0.00000000000E+00 0.  1.
         23    2    1    2    0    0 -0.45602497735E+03 -0.11902316182E+04  0.58242641769E+03  0.14045191326E+04  0.94039231268E+02 0.  0.
         11    1    3    3    0    0 -0.37841426669E+03 -0.87668887818E+03  0.44565804705E+03  0.10537513185E+04  0.00000000000E+00 0. -1.
        -11    1    3    3    0    0 -0.77610710661E+02 -0.31354273999E+03  0.13676837064E+03  0.35076781412E+03  0.00000000000E+00 0.  1.
         22    1    1    2    0    0  0.45602497735E+03  0.11902316182E+04  0.97943203035E+03  0.16074505239E+04  0.00000000000E+00 0. -1.
<mgrwt>
<rscale>  0 0.25753756E+04</rscale>
<asrwt>0</asrwt>
<pdfrwt beam="1">  1        1 0.35183293E+00 0.25753756E+04</pdfrwt>
<pdfrwt beam="2">  1       -1 0.11154702E+00 0.25753756E+04</pdfrwt>
<totfact> 0.12377112E+00</totfact>
</mgrwt>
</event>
<event>
 6    1  0.1614874E-005  0.2177478E+04  0.7818608E-02  0.8527861E-01
         -1   -1    0    0    0  501 -0.00000000000E+00  0.00000000000E+00  0.51661002558E+03  0.51661002558E+03  0.00000000000E+00 0.  1.
          1   -1    0    0  501    0  0.00000000000E+00 -0.00000000000E+00 -0.22944833226E+04  0.22944833226E+04  0.00000000000E+00 0. -1.
         23    2    1    2    0    0  0.70504252689E+03 -0.69679296062E+03 -0.31601802289E+03  0.10448469788E+04  0.96085502160E+02 0.  0.
         11    1    3    3    0    0  0.36810785720E+03 -0.41740044051E+03 -0.20690348611E+03  0.59374706301E+03  0.00000000000E+00 0.  1.
        -11    1    3    3    0    0  0.33693466969E+03 -0.27939252012E+03 -0.10911453678E+03  0.45109991584E+03  0.00000000000E+00 0. -1.
         22    1    1    2    0    0 -0.70504252689E+03  0.69679296062E+03 -0.14618552741E+04  0.17662463693E+04  0.00000000000E+00 0. -1.
<mgrwt>
<rscale>  0 0.21774784E+04</rscale>
<asrwt>0</asrwt>
<pdfrwt beam="1">  1        1 0.35299743E+00 0.21774784E+04</pdfrwt>
<pdfrwt beam="2">  1       -1 0.79478466E-01 0.21774784E+04</pdfrwt>
<totfact> 0.27126159E+00</totfact>
</mgrwt>
</event>
<event>
 6    1  0.1614874E-005  0.1145619E+04  0.7818608E-02  0.9161835E-01
          2   -1    0    0  501    0  0.00000000000E+00  0.00000000000E+00  0.13924550007E+04  0.13924550007E+04  0.00000000000E+00 0.  1.
         -2   -1    0    0    0  501 -0.00000000000E+00 -0.00000000000E+00 -0.23563458052E+03  0.23563458052E+03  0.00000000000E+00 0. -1.
         23    2    1    2    0    0  0.47335496936E+03  0.31198434563E+03  0.51643135303E+03  0.77281341747E+03  0.95603749351E+02 0.  0.
         11    1    3    3    0    0  0.29972390937E+03  0.23353971128E+03  0.38783982264E+03  0.54295022481E+03  0.00000000000E+00 0.  1.
        -11    1    3    3    0    0  0.17363105999E+03  0.78444634348E+02  0.12859153039E+03  0.22986319266E+03  0.00000000000E+00 0. -1.
         22    1    1    2    0    0 -0.47335496936E+03 -0.31198434563E+03  0.64038906714E+03  0.85527616373E+03  0.00000000000E+00 0.  1.
<mgrwt>
<rscale>  0 0.11456187E+04</rscale>
<asrwt>0</asrwt>
<pdfrwt beam="1">  1        2 0.21422384E+00 0.11456187E+04</pdfrwt>
<pdfrwt beam="2">  1       -2 0.36251475E-01 0.11456187E+04</pdfrwt>
<totfact> 0.10354541E+02</totfact>
</mgrwt>
</event>
<event>
 6    1  0.1614874E-005  0.2499032E+04  0.7818608E-02  0.8403330E-01
         -2   -1    0    0    0  501 -0.00000000000E+00  0.00000000000E+00  0.41116565701E+03  0.41116565701E+03  0.00000000000E+00 0.  1.
          2   -1    0    0  501    0  0.00000000000E+00 -0.00000000000E+00 -0.37972293453E+04  0.37972293453E+04  0.00000000000E+00 0. -1.
         23    2    1    2    0    0  0.40847289603E+03  0.14505635986E+03 -0.36657866202E+04  0.36925109330E+04  0.93562764338E+02 0.  0.
         13    1    3    3    0    0  0.15390711530E+03  0.92274846501E+02 -0.17468994300E+04  0.17560921576E+04  0.00000000000E+00 0.  1.
        -13    1    3    3    0    0  0.25456578073E+03  0.52781513358E+02 -0.19188871903E+04  0.19364187754E+04  0.00000000000E+00 0. -1.
         22    1    1    2    0    0 -0.40847289603E+03 -0.14505635986E+03  0.27972293194E+03  0.51588406932E+03  0.00000000000E+00 0.  1.
<mgrwt>
<rscale>  0 0.24990321E+04</rscale>
<asrwt>0</asrwt>
<pdfrwt beam="1">  1        2 0.58418911E+00 0.24990321E+04</pdfrwt>
<pdfrwt beam="2">  1       -2 0.63256257E-01 0.24990321E+04</pdfrwt>
<totfact> 0.10212735E+00</totfact>
</mgrwt>
</event>
<event>
 6    1  0.1614874E-005  0.1986188E+04  0.7818608E-02  0.8613106E-01
         -2   -1    0    0    0  501 -0.00000000000E+00  0.00000000000E+00  0.94992490037E+03  0.94992490037E+03  0.00000000000E+00 0.  1.
          2   -1    0    0  501    0  0.00000000000E+00 -0.00000000000E+00 -0.10382245483E+04  0.10382245483E+04  0.00000000000E+00 0. -1.
         23    2    1    2    0    0  0.17038286802E+03 -0.74132956799E+03 -0.68013155109E+03  0.10243730993E+04  0.90340852627E+02 0.  0.
         13    1    3    3    0    0  0.80275470915E+01 -0.21325640601E+03 -0.18115789043E+03  0.27993020109E+03  0.00000000000E+00 0. -1.
        -13    1    3    3    0    0  0.16235532093E+03 -0.52807316198E+03 -0.49897366067E+03  0.74444289820E+03  0.00000000000E+00 0.  1.
         22    1    1    2    0    0 -0.17038286802E+03  0.74132956799E+03  0.59183190314E+03  0.96377634941E+03  0.00000000000E+00 0.  1.
<mgrwt>
<rscale>  0 0.19861877E+04</rscale>
<asrwt>0</asrwt>
<pdfrwt beam="1">  1        2 0.15972685E+00 0.19861877E+04</pdfrwt>
<pdfrwt beam="2">  1       -2 0.14614229E+00 0.19861877E+04</pdfrwt>
<totfact> 0.71088135E+00</totfact>
</mgrwt>
</event>
<event>
 6    1  0.1614874E-005  0.1249530E+04  0.7818608E-02  0.9070575E-01
         -2   -1    0    0    0  501 -0.00000000000E+00  0.00000000000E+00  0.37207154566E+03  0.37207154566E+03  0.00000000000E+00 0. -1.
          2   -1    0    0  501    0  0.00000000000E+00 -0.00000000000E+00 -0.10490755745E+04  0.10490755745E+04  0.00000000000E+00 0.  1.
         23    2    1    2    0    0  0.42460044469E+03 -0.43859349615E+03 -0.20734675167E+03  0.65093432455E+03  0.89850024816E+02 0.  0.
         13    1    3    3    0    0  0.97617325722E+02 -0.93182863035E+02 -0.86139790519E+02  0.16010075501E+03  0.00000000000E+00 0.  1.
        -13    1    3    3    0    0  0.32698311897E+03 -0.34541063312E+03 -0.12120696115E+03  0.49083356954E+03  0.00000000000E+00 0. -1.
         22    1    1    2    0    0 -0.42460044469E+03  0.43859349615E+03 -0.46965727714E+03  0.77021279557E+03  0.00000000000E+00 0.  1.
<mgrwt>
<rscale>  0 0.12495298E+04</rscale>
<asrwt>0</asrwt>
<pdfrwt beam="1">  1        2 0.16139624E+00 0.12495298E+04</pdfrwt>
<pdfrwt beam="2">  1       -2 0.57241776E-01 0.12495298E+04</pdfrwt>
<totfact> 0.65933668E+01</totfact>
</mgrwt>
</event>
<event>
 6    1  0.1614874E-005  0.1964433E+04  0.7818608E-02  0.8623432E-01
          2   -1    0    0  501    0  0.00000000000E+00  0.00000000000E+00  0.30621471001E+04  0.30621471001E+04  0.00000000000E+00 0. -1.
         -2   -1    0    0    0  501 -0.00000000000E+00 -0.00000000000E+00 -0.31505643026E+03  0.31505643026E+03  0.00000000000E+00 0.  1.
         23    2    1    2    0    0 -0.42363439844E+02 -0.51995132965E+03 -0.50265409829E+02  0.53162009586E+03  0.89158671226E+02 0.  0.
         13    1    3    3    0    0  0.24366559089E+02 -0.23628588325E+03 -0.13810039360E+02  0.23794004500E+03  0.00000000000E+00 0. -1.
        -13    1    3    3    0    0 -0.66729998934E+02 -0.28366544640E+03 -0.36455370469E+02  0.29368005087E+03  0.00000000000E+00 0.  1.
         22    1    1    2    0    0  0.42363439844E+02  0.51995132965E+03  0.27973560796E+04  0.28455834345E+04  0.00000000000E+00 0. -1.
<mgrwt>
<rscale>  0 0.19644329E+04</rscale>
<asrwt>0</asrwt>
<pdfrwt beam="1">  1        2 0.47109954E+00 0.19644329E+04</pdfrwt>
<pdfrwt beam="2">  1       -2 0.48470222E-01 0.19644329E+04</pdfrwt>
<totfact> 0.59933291E+00</totfact>
</mgrwt>
</event>
<event>
 6    1  0.1614874E-005  0.1890671E+04  0.7818608E-02  0.8659514E-01
         -1   -1    0    0    0  501 -0.00000000000E+00  0.00000000000E+00  0.13125124966E+04  0.13125124966E+04  0.00000000000E+00 0.  1.
          1   -1    0    0  501    0  0.00000000000E+00 -0.00000000000E+00 -0.68087637985E+03  0.68087637985E+03  0.00000000000E+00 0. -1.
         23    2    1    2    0    0 -0.59353292379E+03 -0.65540494036E+03  0.66132220139E+03  0.11086752329E+04  0.99883684412E+02 0.  0.
         11    1    3    3    0    0 -0.20717713504E+03 -0.22847614499E+03  0.29128221947E+03  0.42422758690E+03  0.00000000000E+00 0.  1.
        -11    1    3    3    0    0 -0.38635578876E+03 -0.42692879538E+03  0.37003998192E+03  0.68444764595E+03  0.00000000000E+00 0. -1.
         22    1    1    2    0    0  0.59353292379E+03  0.65540494036E+03 -0.29686084682E+02  0.88471364356E+03  0.00000000000E+00 0. -1.
<mgrwt>
<rscale>  0 0.18906705E+04</rscale>
<asrwt>0</asrwt>
<pdfrwt beam="1">  1        1 0.10475021E+00 0.18906705E+04</pdfrwt>
<pdfrwt beam="2">  1       -1 0.20192500E+00 0.18906705E+04</pdfrwt>
<totfact> 0.38829714E+00</totfact>
</mgrwt>
</event>
<event>
 6    1  0.1614874E-005  0.3842495E+04  0.7818608E-02  0.8037097E-01
          2   -1    0    0  501    0  0.00000000000E+00  0.00000000000E+00  0.22903990247E+04  0.22903990247E+04  0.00000000000E+00 0. -1.
         -2   -1    0    0    0  501 -0.00000000000E+00 -0.00000000000E+00 -0.16115935138E+04  0.16115935138E+04  0.00000000000E+00 0.  1.
         23    2    1    2    0    0  0.12318418201E+04 -0.94281863351E+03  0.14887571579E+04  0.21520317059E+04  0.92202724216E+02 0.  0.
         13    1    3    3    0    0  0.58368608455E+03 -0.39295991072E+03  0.69758469866E+03  0.99082357084E+03  0.00000000000E+00 0. -1.
        -13    1    3    3    0    0  0.64815573558E+03 -0.54985872280E+03  0.79117245922E+03  0.11612081350E+04  0.00000000000E+00 0.  1.
         22    1    1    2    0    0 -0.12318418201E+04  0.94281863351E+03 -0.80995164698E+03  0.17499608327E+04  0.00000000000E+00 0.  1.
<mgrwt>
<rscale>  0 0.38424951E+04</rscale>
<asrwt>0</asrwt>
<pdfrwt beam="1">  1        2 0.35236908E+00 0.38424951E+04</pdfrwt>
<pdfrwt beam="2">  1       -2 0.24793746E+00 0.38424951E+04</pdfrwt>
<totfact> 0.24273845E-01</totfact>
</mgrwt>
</event>
<event>
 6    1  0.1614874E-005  0.1186484E+04  0.7818608E-02  0.9124770E-01
         -1   -1    0    0    0  501 -0.00000000000E+00  0.00000000000E+00  0.61966819023E+03  0.61966819023E+03  0.00000000000E+00 0.  1.
          1   -1    0    0  501    0  0.00000000000E+00 -0.00000000000E+00 -0.56794288709E+03  0.56794288709E+03  0.00000000000E+00 0. -1.
         23    2    1    2    0    0  0.19607054626E+02  0.49975593189E+03 -0.28656691498E+03  0.58380477320E+03  0.92558027199E+02 0.  0.
         11    1    3    3    0    0 -0.12962810550E+02  0.23174066618E+02  0.37439720646E+00  0.26555827877E+02  0.00000000000E+00 0. -1.
        -11    1    3    3    0    0  0.32569865176E+02  0.47658186527E+03 -0.28694131219E+03  0.55724894532E+03  0.00000000000E+00 0.  1.
         22    1    1    2    0    0 -0.19607054626E+02 -0.49975593189E+03  0.33829221813E+03  0.60380630412E+03  0.00000000000E+00 0.  1.
<mgrwt>
<rscale>  0 0.11864841E+04</rscale>
<asrwt>0</asrwt>
<pdfrwt beam="1">  1        1 0.87375829E-01 0.11864841E+04</pdfrwt>
<pdfrwt beam="2">  1       -1 0.95333567E-01 0.11864841E+04</pdfrwt>
<totfact> 0.39026447E+01</totfact>
</mgrwt>
</event>
<event>
 6    1  0.1614874E-005  0.1639031E+04  0.7818608E-02  0.8796922E-01
          2   -1    0    0  501    0  0.00000000000E+00  0.00000000000E+00  0.18860668075E+04  0.18860668075E+04  0.00000000000E+00 0. -1.
         -2   -1    0    0    0  501 -0.00000000000E+00 -0.00000000000E+00 -0.35608808455E+03  0.35608808455E+03  0.00000000000E+00 0.  1.
         23    2    1    2    0    0 -0.20900365354E+03 -0.55555342235E+02  0.18453266130E+04  0.18597765257E+04  0.82276930920E+02 0.  0.
         13    1    3    3    0    0 -0.35908471697E+02 -0.43822886408E+02  0.54209489941E+03  0.54504746920E+03  0.00000000000E+00 0. -1.
        -13    1    3    3    0    0 -0.17309518184E+03 -0.11732455827E+02  0.13032317136E+04  0.13147290565E+04  0.00000000000E+00 0.  1.
         22    1    1    2    0    0  0.20900365354E+03  0.55555342235E+02 -0.31534789013E+03  0.38237836635E+03  0.00000000000E+00 0.  1.
<mgrwt>
<rscale>  0 0.16390313E+04</rscale>
<asrwt>0</asrwt>
<pdfrwt beam="1">  1        2 0.29016412E+00 0.16390313E+04</pdfrwt>
<pdfrwt beam="2">  1       -2 0.54782784E-01 0.16390313E+04</pdfrwt>
<totfact> 0.23166450E+01</totfact>
</mgrwt>
</event>
<event>
 6    1  0.1614874E-005  0.6243765E+03  0.7818608E-02  0.9856085E-01
          2   -1    0    0  501    0  0.00000000000E+00  0.00000000000E+00  0.14234043767E+04  0.14234043767E+04  0.00000000000E+00 0. -1.
         -2   -1    0    0    0  501 -0.00000000000E+00 -0.00000000000E+00 -0.68470698140E+02  0.68470698140E+02  0.00000000000E+00 0.  1.
         23    2    1    2    0    0 -0.20012668070E+03 -0.20221546765E+03  0.42415238034E+03  0.51858395252E+03  0.89901559336E+02 0.  0.
         13    1    3    3    0    0 -0.12853127112E+03 -0.16945435859E+03  0.25535696451E+03  0.33232852213E+03  0.00000000000E+00 0.  1.
        -13    1    3    3    0    0 -0.71595409582E+02 -0.32761109062E+02  0.16879541584E+03  0.18625543039E+03  0.00000000000E+00 0. -1.
         22    1    1    2    0    0  0.20012668070E+03  0.20221546765E+03  0.93078129825E+03  0.97329112236E+03  0.00000000000E+00 0.  1.
<mgrwt>
<rscale>  0 0.62437646E+03</rscale>
<asrwt>0</asrwt>
<pdfrwt beam="1">  1        2 0.21898527E+00 0.62437646E+03</pdfrwt>
<pdfrwt beam="2">  1       -2 0.10533955E-01 0.62437646E+03</pdfrwt>
<totfact> 0.89904647E+02</totfact>
</mgrwt>
</event>
<event>
 6    1  0.1614874E-005  0.4365048E+04  0.7818608E-02  0.7934698E-01
          2   -1    0    0  501    0  0.00000000000E+00  0.00000000000E+00  0.20915272651E+04  0.20915272651E+04  0.00000000000E+00 0. -1.
         -2   -1    0    0    0  501 -0.00000000000E+00 -0.00000000000E+00 -0.22774795876E+04  0.22774795876E+04  0.00000000000E+00 0.  1.
         23    2    1    2    0    0 -0.71527635825E+03  0.73182500707E+03 -0.20214017536E+04  0.22675638428E+04  0.92696397587E+02 0.  0.
         13    1    3    3    0    0 -0.26907617294E+03  0.27792385355E+03 -0.86526801086E+03  0.94780398070E+03  0.00000000000E+00 0. -1.
        -13    1    3    3    0    0 -0.44620018531E+03  0.45390115351E+03 -0.11561337428E+04  0.13197598621E+04  0.00000000000E+00 0.  1.
         22    1    1    2    0    0  0.71527635825E+03 -0.73182500707E+03  0.18354494311E+04  0.21014430099E+04  0.00000000000E+00 0. -1.
<mgrwt>
<rscale>  0 0.43650478E+04</rscale>
<asrwt>0</asrwt>
<pdfrwt beam="1">  1        2 0.32177343E+00 0.43650478E+04</pdfrwt>
<pdfrwt beam="2">  1       -2 0.35038147E+00 0.43650478E+04</pdfrwt>
<totfact> 0.70397622E-02</totfact>
</mgrwt>
</event>
<event>
 6    1  0.1614874E-005  0.9864904E+03  0.7818608E-02  0.9323487E-01
          1   -1    0    0  501    0  0.00000000000E+00  0.00000000000E+00  0.22114030627E+04  0.22114030627E+04  0.00000000000E+00 0. -1.
         -1   -1    0    0    0  501 -0.00000000000E+00 -0.00000000000E+00 -0.11001650922E+03  0.11001650922E+03  0.00000000000E+00 0.  1.
         23    2    1    2    0    0  0.25139691950E+03 -0.65770053354E+02  0.20352753317E+04  0.20532837767E+04  0.78118375197E+02 0.  0.
         13    1    3    3    0    0  0.14105450522E+03 -0.16353046339E+02  0.13476436824E+04  0.13551041622E+04  0.00000000000E+00 0. -1.
        -13    1    3    3    0    0  0.11034241428E+03 -0.49417007015E+02  0.68763164932E+03  0.69817961451E+03  0.00000000000E+00 0.  1.
         22    1    1    2    0    0 -0.25139691950E+03  0.65770053354E+02  0.66111221757E+02  0.26813579525E+03  0.00000000000E+00 0.  1.
<mgrwt>
<rscale>  0 0.98649044E+03</rscale>
<asrwt>0</asrwt>
<pdfrwt beam="1">  1        1 0.34021582E+00 0.98649044E+03</pdfrwt>
<pdfrwt beam="2">  1       -1 0.16925618E-01 0.98649044E+03</pdfrwt>
<totfact> 0.58439480E+01</totfact>
</mgrwt>
</event>
<event>
 6    1  0.1614874E-005  0.3853833E+04  0.7818608E-02  0.8034700E-01
         -1   -1    0    0    0  501 -0.00000000000E+00  0.00000000000E+00  0.14635599967E+04  0.14635599967E+04  0.00000000000E+00 0.  1.
          1   -1    0    0  501    0  0.00000000000E+00 -0.00000000000E+00 -0.25369693648E+04  0.25369693648E+04  0.00000000000E+00 0. -1.
         23    2    1    2    0    0 -0.52456778348E+03  0.14096805900E+04  0.71161517700E+03  0.16662878677E+04  0.88024839645E+02 0.  0.
         13    1    3    3    0    0 -0.45088647271E+03  0.11716958075E+04  0.62589101706E+03  0.14028218853E+04  0.00000000000E+00 0. -1.
        -13    1    3    3    0    0 -0.73681310770E+02  0.23798478253E+03  0.85724159943E+02  0.26346598238E+03  0.00000000000E+00 0.  1.
         22    1    1    2    0    0  0.52456778348E+03 -0.14096805900E+04 -0.17850245451E+04  0.23342414939E+04  0.00000000000E+00 0. -1.
<mgrwt>
<rscale>  0 0.38538328E+04</rscale>
<asrwt>0</asrwt>
<pdfrwt beam="1">  1        1 0.39030297E+00 0.38538328E+04</pdfrwt>
<pdfrwt beam="2">  1       -1 0.22516308E+00 0.38538328E+04</pdfrwt>
<totfact> 0.10280249E-01</totfact>
</mgrwt>
</event>
<event>
 6    1  0.1614874E-005  0.2677829E+04  0.7818608E-02  0.8342235E-01
          1   -1    0    0  501    0  0.00000000000E+00  0.00000000000E+00  0.14797921205E+04  0.14797921205E+04  0.00000000000E+00 0. -1.
         -1   -1    0    0    0  501 -0.00000000000E+00 -0.00000000000E+00 -0.12114483596E+04  0.12114483596E+04  0.00000000000E+00 0.  1.
         23    2    1    2    0    0 -0.74579399784E+03 -0.63036114232E+03  0.10526753871E+04  0.14387469845E+04  0.91123859005E+02 0.  0.
         11    1    3    3    0    0 -0.41014111837E+03 -0.28813934261E+03  0.55097510177E+03  0.74485809421E+03  0.00000000000E+00 0.  1.
        -11    1    3    3    0    0 -0.33565287948E+03 -0.34222179971E+03  0.50170028535E+03  0.69388889025E+03  0.00000000000E+00 0. -1.
         22    1    1    2    0    0  0.74579399784E+03  0.63036114232E+03 -0.78433162621E+03  0.12524934957E+04  0.00000000000E+00 0.  1.
<mgrwt>
<rscale>  0 0.26778288E+04</rscale>
<asrwt>0</asrwt>
<pdfrwt beam="1">  1        1 0.22766033E+00 0.26778288E+04</pdfrwt>
<pdfrwt beam="2">  1       -1 0.18637667E+00 0.26778288E+04</pdfrwt>
<totfact> 0.11078023E+00</totfact>
</mgrwt>
</event>
<event>
 6    1  0.1614874E-005  0.8663635E+03  0.7818608E-02  0.9468634E-01
         -2   -1    0    0    0  501 -0.00000000000E+00  0.00000000000E+00  0.73804052614E+02  0.73804052614E+02  0.00000000000E+00 0.  1.
          2   -1    0    0  501    0  0.00000000000E+00 -0.00000000000E+00 -0.25424946862E+04  0.25424946862E+04  0.00000000000E+00 0. -1.
         23    2    1    2    0    0 -0.11862607634E+03  0.13205923055E+03 -0.24253200524E+04  0.24335617867E+04  0.92378713049E+02 0.  0.
         11    1    3    3    0    0 -0.13095058744E+03  0.98905956765E+02 -0.19158917865E+04  0.19229071174E+04  0.00000000000E+00 0. -1.
        -11    1    3    3    0    0  0.12324511095E+02  0.33153273787E+02 -0.50942826587E+03  0.51065466923E+03  0.00000000000E+00 0.  1.
         22    1    1    2    0    0  0.11862607634E+03 -0.13205923055E+03 -0.43370581177E+02  0.18273695213E+03  0.00000000000E+00 0.  1.
<mgrwt>
<rscale>  0 0.86636346E+03</rscale>
<asrwt>0</asrwt>
<pdfrwt beam="1">  1        2 0.39115295E+00 0.86636346E+03</pdfrwt>
<pdfrwt beam="2">  1       -2 0.11354472E-01 0.86636346E+03</pdfrwt>
<totfact> 0.18840174E+02</totfact>
</mgrwt>
</event>
<event>
 6    1  0.1614874E-005  0.1016090E+04  0.7818608E-02  0.9291072E-01
         -2   -1    0    0    0  501 -0.00000000000E+00  0.00000000000E+00  0.11809190139E+03  0.11809190139E+03  0.00000000000E+00 0.  1.
          2   -1    0    0  501    0  0.00000000000E+00 -0.00000000000E+00 -0.21856666040E+04  0.21856666040E+04  0.00000000000E+00 0. -1.
         23    2    1    2    0    0  0.41827982392E+03 -0.73758721890E+02 -0.42923491046E+03  0.61125868715E+03  0.94848374318E+02 0.  0.
         11    1    3    3    0    0  0.32143473872E+03 -0.48258868777E+02 -0.37877368124E+03  0.49911793323E+03  0.00000000000E+00 0.  1.
        -11    1    3    3    0    0  0.96845085200E+02 -0.25499853113E+02 -0.50461229218E+02  0.11214075392E+03  0.00000000000E+00 0. -1.
         22    1    1    2    0    0 -0.41827982392E+03  0.73758721890E+02 -0.16383397921E+04  0.16924998182E+04  0.00000000000E+00 0. -1.
<mgrwt>
<rscale>  0 0.10160896E+04</rscale>
<asrwt>0</asrwt>
<pdfrwt beam="1">  1        2 0.33625641E+00 0.10160896E+04</pdfrwt>
<pdfrwt beam="2">  1       -2 0.18167984E-01 0.10160896E+04</pdfrwt>
<totfact> 0.13347304E+02</totfact>
</mgrwt>
</event>
<event>
 6    1  0.1614874E-005  0.2220008E+04  0.7818608E-02  0.8510146E-01
         -2   -1    0    0    0  501 -0.00000000000E+00  0.00000000000E+00  0.60732021819E+03  0.60732021819E+03  0.00000000000E+00 0.  1.
          2   -1    0    0  501    0  0.00000000000E+00 -0.00000000000E+00 -0.20287633725E+04  0.20287633725E+04  0.00000000000E+00 0. -1.
         23    2    1    2    0    0  0.42180169333E+03  0.90771926207E+03 -0.14729708575E+03  0.10157999330E+04  0.91006292455E+02 0.  0.
         13    1    3    3    0    0  0.23923655213E+03  0.51227069801E+03 -0.12871349581E+03  0.57984701423E+03  0.00000000000E+00 0. -1.
        -13    1    3    3    0    0  0.18256514120E+03  0.39544856406E+03 -0.18583589933E+02  0.43595291881E+03  0.00000000000E+00 0.  1.
         22    1    1    2    0    0 -0.42180169333E+03 -0.90771926207E+03 -0.12741460686E+04  0.16202836576E+04  0.00000000000E+00 0. -1.
<mgrwt>
<rscale>  0 0.22200081E+04</rscale>
<asrwt>0</asrwt>
<pdfrwt beam="1">  1        2 0.31211744E+00 0.22200081E+04</pdfrwt>
<pdfrwt beam="2">  1       -2 0.93433879E-01 0.22200081E+04</pdfrwt>
<totfact> 0.56927227E+00</totfact>
</mgrwt>
</event>
<event>
 6    1  0.1614874E-005  0.2043689E+04  0.7818608E-02  0.8586463E-01
         -1   -1    0    0    0  501 -0.00000000000E+00  0.00000000000E+00  0.69209281484E+03  0.69209281484E+03  0.00000000000E+00 0.  1.
          1   -1    0    0  501    0  0.00000000000E+00 -0.00000000000E+00 -0.15087086168E+04  0.15087086168E+04  0.00000000000E+00 0. -1.
         23    2    1    2    0    0 -0.80639330762E+03  0.21621215127E+02  0.26299286980E+03  0.85310245647E+03  0.88774479232E+02 0.  0.
         11    1    3    3    0    0 -0.98882067210E+02 -0.26149869564E+02  0.27749125775E+02  0.10597873784E+03  0.00000000000E+00 0. -1.
        -11    1    3    3    0    0 -0.70751124041E+03  0.47771084691E+02  0.23524374403E+03  0.74712371863E+03  0.00000000000E+00 0.  1.
         22    1    1    2    0    0  0.80639330762E+03 -0.21621215127E+02 -0.10796086718E+04  0.13476989752E+04  0.00000000000E+00 0. -1.
<mgrwt>
<rscale>  0 0.20436892E+04</rscale>
<asrwt>0</asrwt>
<pdfrwt beam="1">  1        1 0.23210901E+00 0.20436892E+04</pdfrwt>
<pdfrwt beam="2">  1       -1 0.10647582E+00 0.20436892E+04</pdfrwt>
<totfact> 0.49127463E+00</totfact>
</mgrwt>
</event>
<event>
 6    1  0.1614874E-005  0.2434173E+04  0.7818608E-02  0.8426819E-01
         -1   -1    0    0    0  501 -0.00000000000E+00  0.00000000000E+00  0.93582160555E+03  0.93582160555E+03  0.00000000000E+00 0.  1.
          1   -1    0    0  501    0  0.00000000000E+00 -0.00000000000E+00 -0.15828869274E+04  0.15828869274E+04  0.00000000000E+00 0. -1.
         23    2    1    2    0    0  0.94130987403E+03 -0.72504471211E+03 -0.59066676155E+02  0.11930024868E+04  0.89509483930E+02 0.  0.
         11    1    3    3    0    0  0.86531628798E+03 -0.64316431684E+03 -0.35008439813E+02  0.10787299048E+04  0.00000000000E+00 0. -1.
        -11    1    3    3    0    0  0.75993586054E+02 -0.81880395269E+02 -0.24058236342E+02  0.11427258195E+03  0.00000000000E+00 0.  1.
         22    1    1    2    0    0 -0.94130987403E+03  0.72504471211E+03 -0.58799864568E+03  0.13257060462E+04  0.00000000000E+00 0.  1.
<mgrwt>
<rscale>  0 0.24341732E+04</rscale>
<asrwt>0</asrwt>
<pdfrwt beam="1">  1        1 0.24352106E+00 0.24341732E+04</pdfrwt>
<pdfrwt beam="2">  1       -1 0.14397256E+00 0.24341732E+04</pdfrwt>
<totfact> 0.19946150E+00</totfact>
</mgrwt>
</event>
<event>
 6    1  0.1614874E-005  0.2494205E+04  0.7818608E-02  0.8405053E-01
         -1   -1    0    0    0  501 -0.00000000000E+00  0.00000000000E+00  0.17247097769E+04  0.17247097769E+04  0.00000000000E+00 0.  1.
          1   -1    0    0  501    0  0.00000000000E+00 -0.00000000000E+00 -0.90175470927E+03  0.90175470927E+03  0.00000000000E+00 0. -1.
         23    2    1    2    0    0 -0.26051636838E+03  0.11568811584E+04  0.11508762537E+02  0.11895622978E+04  0.93183774891E+02 0.  0.
         11    1    3    3    0    0 -0.35369096112E+02  0.75303105574E+02  0.16355530900E+02  0.84788171698E+02  0.00000000000E+00 0. -1.
        -11    1    3    3    0    0 -0.22514727227E+03  0.10815780528E+04 -0.48467683638E+01  0.11047741261E+04  0.00000000000E+00 0.  1.
         22    1    1    2    0    0  0.26051636838E+03 -0.11568811584E+04  0.81144630512E+03  0.14369021884E+04  0.00000000000E+00 0.  1.
<mgrwt>
<rscale>  0 0.24942054E+04</rscale>
<asrwt>0</asrwt>
<pdfrwt beam="1">  1        1 0.13873149E+00 0.24942054E+04</pdfrwt>
<pdfrwt beam="2">  1       -1 0.26533996E+00 0.24942054E+04</pdfrwt>
<totfact> 0.89299013E-01</totfact>
</mgrwt>
</event>
<event>
 6    1  0.1614874E-005  0.2418080E+04  0.7818608E-02  0.8432766E-01
          2   -1    0    0  501    0  0.00000000000E+00  0.00000000000E+00  0.23415880299E+04  0.23415880299E+04  0.00000000000E+00 0. -1.
         -2   -1    0    0    0  501 -0.00000000000E+00 -0.00000000000E+00 -0.62426744498E+03  0.62426744498E+03  0.00000000000E+00 0.  1.
         23    2    1    2    0    0  0.35315990412E+03  0.10704825086E+04  0.32953733619E+03  0.11779524952E+04  0.91227769327E+02 0.  0.
         13    1    3    3    0    0  0.29203491553E+03  0.97268668893E+03  0.29433109161E+03  0.10573715422E+04  0.00000000000E+00 0. -1.
        -13    1    3    3    0    0  0.61124988590E+02  0.97795819711E+02  0.35206244577E+02  0.12058095306E+03  0.00000000000E+00 0.  1.
         22    1    1    2    0    0 -0.35315990412E+03 -0.10704825086E+04  0.13877832487E+04  0.17879029796E+04  0.00000000000E+00 0. -1.
<mgrwt>
<rscale>  0 0.24180795E+04</rscale>
<asrwt>0</asrwt>
<pdfrwt beam="1">  1        2 0.36024431E+00 0.24180795E+04</pdfrwt>
<pdfrwt beam="2">  1       -2 0.96041147E-01 0.24180795E+04</pdfrwt>
<totfact> 0.35017126E+00</totfact>
</mgrwt>
</event>
<event>
 6    1  0.1614874E-005  0.1311229E+04  0.7818608E-02  0.9020708E-01
         -1   -1    0    0    0  501 -0.00000000000E+00  0.00000000000E+00  0.16676661083E+03  0.16676661083E+03  0.00000000000E+00 0.  1.
          1   -1    0    0  501    0  0.00000000000E+00 -0.00000000000E+00 -0.25774363632E+04  0.25774363632E+04  0.00000000000E+00 0. -1.
         23    2    1    2    0    0 -0.21713799116E+03 -0.44766271448E+03 -0.32846702007E+03  0.60338092828E+03  0.92882442862E+02 0.  0.
         13    1    3    3    0    0 -0.14392453730E+03 -0.37783741363E+03 -0.27468880494E+03  0.48880397209E+03  0.00000000000E+00 0. -1.
        -13    1    3    3    0    0 -0.73213453865E+02 -0.69825300856E+02 -0.53778215127E+02  0.11457695619E+03  0.00000000000E+00 0.  1.
         22    1    1    2    0    0  0.21713799116E+03  0.44766271448E+03 -0.20822027323E+04  0.21408220457E+04  0.00000000000E+00 0. -1.
<mgrwt>
<rscale>  0 0.13112289E+04</rscale>
<asrwt>0</asrwt>
<pdfrwt beam="1">  1        1 0.39652864E+00 0.13112289E+04</pdfrwt>
<pdfrwt beam="2">  1       -1 0.25656404E-01 0.13112289E+04</pdfrwt>
<totfact> 0.15817770E+01</totfact>
</mgrwt>
</event>
<event>
 6    1  0.1614874E-005  0.2285044E+04  0.7818608E-02  0.8483841E-01
          1   -1    0    0  501    0  0.00000000000E+00  0.00000000000E+00  0.11423441345E+04  0.11423441345E+04  0.00000000000E+00 0. -1.
         -1   -1    0    0    0  501 -0.00000000000E+00 -0.00000000000E+00 -0.11426999020E+04  0.11426999020E+04  0.00000000000E+00 0.  1.
         23    2    1    2    0    0  0.79689638839E+03 -0.67097056389E+03 -0.46522095094E+03  0.11442789467E+04  0.87740658357E+02 0.  0.
         13    1    3    3    0    0  0.26892318401E+03 -0.19873715864E+03 -0.11124449639E+03  0.35240810873E+03  0.00000000000E+00 0. -1.
        -13    1    3    3    0    0  0.52797320437E+03 -0.47223340525E+03 -0.35397645456E+03  0.79187083792E+03  0.00000000000E+00 0.  1.
         22    1    1    2    0    0 -0.79689638839E+03  0.67097056389E+03  0.46486518345E+03  0.11407650898E+04  0.00000000000E+00 0. -1.
<mgrwt>
<rscale>  0 0.22850440E+04</rscale>
<asrwt>0</asrwt>
<pdfrwt beam="1">  1        1 0.17574525E+00 0.22850440E+04</pdfrwt>
<pdfrwt beam="2">  1       -1 0.17579998E+00 0.22850440E+04</pdfrwt>
<totfact> 0.23806938E+00</totfact>
</mgrwt>
</event>
<event>
 6    1  0.1614874E-005  0.3741996E+04  0.7818608E-02  0.8058718E-01
         -2   -1    0    0    0  501 -0.00000000000E+00  0.00000000000E+00  0.20299482435E+04  0.20299482435E+04  0.00000000000E+00 0. -1.
          2   -1    0    0  501    0  0.00000000000E+00 -0.00000000000E+00 -0.17244943908E+04  0.17244943908E+04  0.00000000000E+00 0.  1.
         23    2    1    2    0    0 -0.11926715220E+04  0.50533229014E+03 -0.12001542467E+04  0.17683203239E+04  0.93597378328E+02 0.  0.
         11    1    3    3    0    0 -0.10491519861E+04  0.41512724737E+03 -0.10647179765E+04  0.15513461545E+04  0.00000000000E+00 0.  1.
        -11    1    3    3    0    0 -0.14351953589E+03  0.90205042770E+02 -0.13543627019E+03  0.21697416945E+03  0.00000000000E+00 0. -1.
         22    1    1    2    0    0  0.11926715220E+04 -0.50533229014E+03  0.15056080995E+04  0.19861223104E+04  0.00000000000E+00 0. -1.
<mgrwt>
<rscale>  0 0.37419965E+04</rscale>
<asrwt>0</asrwt>
<pdfrwt beam="1">  1        2 0.26530683E+00 0.37419965E+04</pdfrwt>
<pdfrwt beam="2">  1       -2 0.31229973E+00 0.37419965E+04</pdfrwt>
<totfact> 0.20449183E-01</totfact>
</mgrwt>
</event>
<event>
 6    1  0.1614874E-005  0.9204207E+03  0.7818608E-02  0.9400409E-01
          1   -1    0    0  501    0  0.00000000000E+00  0.00000000000E+00  0.74601921786E+03  0.74601921786E+03  0.00000000000E+00 0. -1.
         -1   -1    0    0    0  501 -0.00000000000E+00 -0.00000000000E+00 -0.28389827039E+03  0.28389827039E+03  0.00000000000E+00 0.  1.
         23    2    1    2    0    0 -0.29482213695E+03 -0.28094628166E+03  0.46204158438E+03  0.62266951475E+03  0.91564148519E+02 0.  0.
         13    1    3    3    0    0 -0.82604829180E+02 -0.13777772614E+03  0.15986869805E+03  0.22663684661E+03  0.00000000000E+00 0.  1.
        -13    1    3    3    0    0 -0.21221730777E+03 -0.14316855552E+03  0.30217288632E+03  0.39603266815E+03  0.00000000000E+00 0. -1.
         22    1    1    2    0    0  0.29482213695E+03  0.28094628166E+03  0.79363095108E-01  0.40724797349E+03  0.00000000000E+00 0. -1.
<mgrwt>
<rscale>  0 0.92042070E+03</rscale>
<asrwt>0</asrwt>
<pdfrwt beam="1">  1        1 0.11477219E+00 0.92042070E+03</pdfrwt>
<pdfrwt beam="2">  1       -1 0.43676657E-01 0.92042070E+03</pdfrwt>
<totfact> 0.12865560E+02</totfact>
</mgrwt>
</event>
<event>
 6    1  0.1614874E-005  0.5791600E+03  0.7818608E-02  0.9949611E-01
         -2   -1    0    0    0  501 -0.00000000000E+00  0.00000000000E+00  0.14600172635E+03  0.14600172635E+03  0.00000000000E+00 0.  1.
          2   -1    0    0  501    0  0.00000000000E+00 -0.00000000000E+00 -0.57435333474E+03  0.57435333474E+03  0.00000000000E+00 0. -1.
         23    2    1    2    0    0  0.68452777736E+02  0.27266086324E+03 -0.19624086396E+03  0.35579350689E+03  0.95125252887E+02 0.  0.
         13    1    3    3    0    0 -0.84216118119E+01  0.14332198480E+03 -0.12002299808E+03  0.18712999476E+03  0.00000000000E+00 0. -1.
        -13    1    3    3    0    0  0.76874389548E+02  0.12933887844E+03 -0.76217865886E+02  0.16866351213E+03  0.00000000000E+00 0.  1.
         22    1    1    2    0    0 -0.68452777736E+02 -0.27266086324E+03 -0.23211074443E+03  0.36456155420E+03  0.00000000000E+00 0. -1.
<mgrwt>
<rscale>  0 0.57916001E+03</rscale>
<asrwt>0</asrwt>
<pdfrwt beam="1">  1        2 0.88362051E-01 0.57916001E+03</pdfrwt>
<pdfrwt beam="2">  1       -2 0.22461804E-01 0.57916001E+03</pdfrwt>
<totfact> 0.91201323E+02</totfact>
</mgrwt>
</event>
<event>
 6    1  0.1614874E-005  0.3217534E+04  0.7818608E-02  0.8184202E-01
          1   -1    0    0  501    0  0.00000000000E+00  0.00000000000E+00  0.12160790141E+04  0.12160790141E+04  0.00000000000E+00 0. -1.
         -1   -1    0    0    0  501 -0.00000000000E+00 -0.00000000000E+00 -0.21282594935E+04  0.21282594935E+04  0.00000000000E+00 0.  1.
         23    2    1    2    0    0 -0.69115616242E+03  0.13055584730E+03 -0.19589133088E+04  0.20832313408E+04  0.88146455849E+02 0.  0.
         11    1    3    3    0    0 -0.38202452965E+03  0.33848652732E+02 -0.11281018227E+04  0.11915125660E+04  0.00000000000E+00 0. -1.
        -11    1    3    3    0    0 -0.30913163277E+03  0.96707194564E+02 -0.83081148613E+03  0.89171877480E+03  0.00000000000E+00 0.  1.
         22    1    1    2    0    0  0.69115616242E+03 -0.13055584730E+03  0.10467328294E+04  0.12611071668E+04  0.00000000000E+00 0. -1.
<mgrwt>
<rscale>  0 0.32175343E+04</rscale>
<asrwt>0</asrwt>
<pdfrwt beam="1">  1        1 0.18708908E+00 0.32175343E+04</pdfrwt>
<pdfrwt beam="2">  1       -1 0.32742454E+00 0.32175343E+04</pdfrwt>
<totfact> 0.19010381E-01</totfact>
</mgrwt>
</event>
<event>
 6    1  0.1614874E-005  0.7758458E+03  0.7818608E-02  0.9595653E-01
         -1   -1    0    0    0  501 -0.00000000000E+00  0.00000000000E+00  0.10341143641E+03  0.10341143641E+03  0.00000000000E+00 0.  1.
          1   -1    0    0  501    0  0.00000000000E+00 -0.00000000000E+00 -0.14551985170E+04  0.14551985170E+04  0.00000000000E+00 0. -1.
         23    2    1    2    0    0  0.31340626932E+03 -0.21769522967E+03 -0.62353313651E+03  0.73643691216E+03  0.89056446175E+02 0.  0.
         11    1    3    3    0    0  0.21472381632E+03 -0.11606837676E+03 -0.45449910369E+03  0.51589497054E+03  0.00000000000E+00 0. -1.
        -11    1    3    3    0    0  0.98682452994E+02 -0.10162685292E+03 -0.16903403282E+03  0.22054194162E+03  0.00000000000E+00 0.  1.
         22    1    1    2    0    0 -0.31340626932E+03  0.21769522967E+03 -0.72825394405E+03  0.82217304121E+03  0.00000000000E+00 0.  1.
<mgrwt>
<rscale>  0 0.77584578E+03</rscale>
<asrwt>0</asrwt>
<pdfrwt beam="1">  1        1 0.22387668E+00 0.77584578E+03</pdfrwt>
<pdfrwt beam="2">  1       -1 0.15909453E-01 0.77584578E+03</pdfrwt>
<totfact> 0.21335135E+02</totfact>
</mgrwt>
</event>
<event>
 6    1  0.1614874E-005  0.1231691E+04  0.7818608E-02  0.9085561E-01
          2   -1    0    0  501    0  0.00000000000E+00  0.00000000000E+00  0.69898862900E+03  0.69898862900E+03  0.00000000000E+00 0.  1.
         -2   -1    0    0    0  501 -0.00000000000E+00 -0.00000000000E+00 -0.54259201101E+03  0.54259201101E+03  0.00000000000E+00 0. -1.
         23    2    1    2    0    0 -0.12165127787E+03  0.25863800357E+03  0.62471577616E+03  0.69293185963E+03  0.90510280149E+02 0.  0.
         13    1    3    3    0    0 -0.10803894474E+03  0.13410464015E+03  0.31837081002E+03  0.36196193275E+03  0.00000000000E+00 0. -1.
        -13    1    3    3    0    0 -0.13612333124E+02  0.12453336342E+03  0.30634496614E+03  0.33096992688E+03  0.00000000000E+00 0.  1.
         22    1    1    2    0    0  0.12165127787E+03 -0.25863800357E+03 -0.46831915817E+03  0.54864878037E+03  0.00000000000E+00 0. -1.
<mgrwt>
<rscale>  0 0.12316909E+04</rscale>
<asrwt>0</asrwt>
<pdfrwt beam="1">  1        2 0.10753671E+00 0.12316909E+04</pdfrwt>
<pdfrwt beam="2">  1       -2 0.83475694E-01 0.12316909E+04</pdfrwt>
<totfact> 0.50773467E+01</totfact>
</mgrwt>
</event>
<event>
 6    1  0.1614874E-005  0.3001772E+04  0.7818608E-02  0.8243225E-01
          2   -1    0    0  501    0  0.00000000000E+00  0.00000000000E+00  0.24658122619E+04  0.24658122619E+04  0.00000000000E+00 0.  1.
         -2   -1    0    0    0  501 -0.00000000000E+00 -0.00000000000E+00 -0.91355642951E+03  0.91355642951E+03  0.00000000000E+00 0. -1.
         23    2    1    2    0    0  0.93646417702E+03 -0.44274921495E+03 -0.44391765600E+03  0.11304354736E+04  0.88484193942E+02 0.  0.
         13    1    3    3    0    0  0.79690940173E+03 -0.34963263390E+03 -0.39497394152E+03  0.95567357803E+03  0.00000000000E+00 0. -1.
        -13    1    3    3    0    0  0.13955477529E+03 -0.93116581054E+02 -0.48943714485E+02  0.17476189562E+03  0.00000000000E+00 0.  1.
         22    1    1    2    0    0 -0.93646417702E+03  0.44274921495E+03  0.19961734884E+04  0.22489332177E+04  0.00000000000E+00 0.  1.
<mgrwt>
<rscale>  0 0.30017719E+04</rscale>
<asrwt>0</asrwt>
<pdfrwt beam="1">  1        2 0.37935573E+00 0.30017719E+04</pdfrwt>
<pdfrwt beam="2">  1       -2 0.14054714E+00 0.30017719E+04</pdfrwt>
<totfact> 0.11084824E+00</totfact>
</mgrwt>
</event>
<event>
 6    1  0.1614874E-005  0.2759617E+04  0.7818608E-02  0.8315917E-01
          2   -1    0    0  501    0  0.00000000000E+00  0.00000000000E+00  0.20306056747E+04  0.20306056747E+04  0.00000000000E+00 0. -1.
         -2   -1    0    0    0  501 -0.00000000000E+00 -0.00000000000E+00 -0.93758766213E+03  0.93758766213E+03  0.00000000000E+00 0.  1.
         23    2    1    2    0    0  0.33527022390E+03  0.81015966435E+02  0.19824370242E+04  0.20142353250E+04  0.90098167403E+02 0.  0.
         11    1    3    3    0    0  0.73116155843E+02  0.37882595284E+02  0.68070812675E+03  0.68567092479E+03  0.00000000000E+00 0.  1.
        -11    1    3    3    0    0  0.26215406806E+03  0.43133371151E+02  0.13017288975E+04  0.13285644003E+04  0.00000000000E+00 0. -1.
         22    1    1    2    0    0 -0.33527022390E+03 -0.81015966435E+02 -0.88941901169E+03  0.95395801176E+03  0.00000000000E+00 0.  1.
<mgrwt>
<rscale>  0 0.27596165E+04</rscale>
<asrwt>0</asrwt>
<pdfrwt beam="1">  1        2 0.31240087E+00 0.27596165E+04</pdfrwt>
<pdfrwt beam="2">  1       -2 0.14424426E+00 0.27596165E+04</pdfrwt>
<totfact> 0.18632326E+00</totfact>
</mgrwt>
</event>
<event>
 6    1  0.1614874E-005  0.2076844E+04  0.7818608E-02  0.8571513E-01
         -2   -1    0    0    0  501 -0.00000000000E+00  0.00000000000E+00  0.40589905231E+03  0.40589905231E+03  0.00000000000E+00 0. -1.
          2   -1    0    0  501    0  0.00000000000E+00 -0.00000000000E+00 -0.26566211228E+04  0.26566211228E+04  0.00000000000E+00 0.  1.
         23    2    1    2    0    0 -0.72801113555E+03  0.72436970170E+03 -0.13335146322E+04  0.16855738570E+04  0.90478034396E+02 0.  0.
         11    1    3    3    0    0 -0.22695329081E+03  0.28501286044E+03 -0.48849859746E+03  0.60940217143E+03  0.00000000000E+00 0. -1.
        -11    1    3    3    0    0 -0.50105784474E+03  0.43935684126E+03 -0.84501603477E+03  0.10761716855E+04  0.00000000000E+00 0.  1.
         22    1    1    2    0    0  0.72801113555E+03 -0.72436970170E+03 -0.91720743824E+03  0.13769463181E+04  0.00000000000E+00 0. -1.
<mgrwt>
<rscale>  0 0.20768438E+04</rscale>
<asrwt>0</asrwt>
<pdfrwt beam="1">  1        2 0.40871095E+00 0.20768438E+04</pdfrwt>
<pdfrwt beam="2">  1       -2 0.62446007E-01 0.20768438E+04</pdfrwt>
<totfact> 0.61941017E+00</totfact>
</mgrwt>
</event>
<event>
 6    1  0.1614874E-005  0.2025232E+04  0.7818608E-02  0.8594914E-01
          1   -1    0    0  501    0  0.00000000000E+00  0.00000000000E+00  0.52104033738E+03  0.52104033738E+03  0.00000000000E+00 0. -1.
         -1   -1    0    0    0  501 -0.00000000000E+00 -0.00000000000E+00 -0.19679687577E+04  0.19679687577E+04  0.00000000000E+00 0.  1.
         23    2    1    2    0    0  0.60195423438E+02 -0.71088961208E+03  0.15436220302E+03  0.73597766640E+03  0.94063309306E+02 0.  0.
         13    1    3    3    0    0  0.42625406424E+02 -0.26715748631E+03  0.10068705477E+03  0.28866577692E+03  0.00000000000E+00 0. -1.
        -13    1    3    3    0    0  0.17570017014E+02 -0.44373212576E+03  0.53675148253E+02  0.44731188948E+03  0.00000000000E+00 0.  1.
         22    1    1    2    0    0 -0.60195423438E+02  0.71088961208E+03 -0.16012906234E+04  0.17530314287E+04  0.00000000000E+00 0.  1.
<mgrwt>
<rscale>  0 0.20252319E+04</rscale>
<asrwt>0</asrwt>
<pdfrwt beam="1">  1        1 0.80160051E-01 0.20252319E+04</pdfrwt>
<pdfrwt beam="2">  1       -1 0.30276443E+00 0.20252319E+04</pdfrwt>
<totfact> 0.12285465E+00</totfact>
</mgrwt>
</event>
<event>
 6    1  0.1614874E-005  0.3610885E+04  0.7818608E-02  0.8088003E-01
         -2   -1    0    0    0  501 -0.00000000000E+00  0.00000000000E+00  0.13942910803E+04  0.13942910803E+04  0.00000000000E+00 0. -1.
          2   -1    0    0  501    0  0.00000000000E+00 -0.00000000000E+00 -0.23378353745E+04  0.23378353745E+04  0.00000000000E+00 0.  1.
         23    2    1    2    0    0  0.97983108873E+03 -0.77664960191E+01 -0.20380033673E+04  0.22631234107E+04  0.90225085883E+02 0.  0.
         11    1    3    3    0    0  0.76845773212E+03 -0.39136408375E+02 -0.16331688328E+04  0.18053529796E+04  0.00000000000E+00 0.  1.
        -11    1    3    3    0    0  0.21137335661E+03  0.31369912356E+02 -0.40483453451E+03  0.45777043113E+03  0.00000000000E+00 0. -1.
         22    1    1    2    0    0 -0.97983108873E+03  0.77664960191E+01  0.10944590731E+04  0.14690030441E+04  0.00000000000E+00 0. -1.
<mgrwt>
<rscale>  0 0.36108852E+04</rscale>
<asrwt>0</asrwt>
<pdfrwt beam="1">  1        2 0.35966698E+00 0.36108852E+04</pdfrwt>
<pdfrwt beam="2">  1       -2 0.21450632E+00 0.36108852E+04</pdfrwt>
<totfact> 0.37636799E-01</totfact>
</mgrwt>
</event>
<event>
 6    1  0.1614874E-005  0.1088647E+04  0.7818608E-02  0.9216329E-01
         -2   -1    0    0    0  501 -0.00000000000E+00  0.00000000000E+00  0.37265816731E+03  0.37265816731E+03  0.00000000000E+00 0.  1.
          2   -1    0    0  501    0  0.00000000000E+00 -0.00000000000E+00 -0.79506647684E+03  0.79506647684E+03  0.00000000000E+00 0. -1.
         23    2    1    2    0    0  0.22896502078E+03 -0.46996901184E+03 -0.35936443480E+03  0.64115994444E+03  0.92991529285E+02 0.  0.
         13    1    3    3    0    0  0.39009128683E+02 -0.11643522987E+03 -0.13034991683E+03  0.17908091940E+03  0.00000000000E+00 0. -1.
        -13    1    3    3    0    0  0.18995589210E+03 -0.35353378198E+03 -0.22901451797E+03  0.46207902504E+03  0.00000000000E+00 0.  1.
         22    1    1    2    0    0 -0.22896502078E+03  0.46996901184E+03 -0.63043874729E+02  0.52656469971E+03  0.00000000000E+00 0.  1.
<mgrwt>
<rscale>  0 0.10886469E+04</rscale>
<asrwt>0</asrwt>
<pdfrwt beam="1">  1        2 0.12231792E+00 0.10886469E+04</pdfrwt>
<pdfrwt beam="2">  1       -2 0.57332027E-01 0.10886469E+04</pdfrwt>
<totfact> 0.98387689E+01</totfact>
</mgrwt>
</event>
<event>
 6    1  0.1614874E-005  0.3510961E+04  0.7818608E-02  0.8111197E-01
         -2   -1    0    0    0  501 -0.00000000000E+00  0.00000000000E+00  0.16986230016E+04  0.16986230016E+04  0.00000000000E+00 0.  1.
          2   -1    0    0  501    0  0.00000000000E+00 -0.00000000000E+00 -0.18142414376E+04  0.18142414376E+04  0.00000000000E+00 0. -1.
         23    2    1    2    0    0 -0.48581900023E+03 -0.13154885420E+04  0.99679110982E+03  0.17228965058E+04  0.90827573639E+02 0.  0.
         11    1    3    3    0    0 -0.23993546450E+03 -0.55544441697E+03  0.46766706999E+03  0.76472218212E+03  0.00000000000E+00 0.  1.
        -11    1    3    3    0    0 -0.24588353573E+03 -0.76004412500E+03  0.52912403983E+03  0.95817432371E+03  0.00000000000E+00 0. -1.
         22    1    1    2    0    0  0.48581900023E+03  0.13154885420E+04 -0.11124095458E+04  0.17899679334E+04  0.00000000000E+00 0. -1.
<mgrwt>
<rscale>  0 0.35109613E+04</rscale>
<asrwt>0</asrwt>
<pdfrwt beam="1">  1        2 0.27911407E+00 0.35109613E+04</pdfrwt>
<pdfrwt beam="2">  1       -2 0.26132662E+00 0.35109613E+04</pdfrwt>
<totfact> 0.38093683E-01</totfact>
</mgrwt>
</event>
<event>
 6    1  0.1614874E-005  0.2497353E+04  0.7818608E-02  0.8403929E-01
         -1   -1    0    0    0  501 -0.00000000000E+00  0.00000000000E+00  0.12530576146E+04  0.12530576146E+04  0.00000000000E+00 0.  1.
          1   -1    0    0  501    0  0.00000000000E+00 -0.00000000000E+00 -0.12443105420E+04  0.12443105420E+04  0.00000000000E+00 0. -1.
         23    2    1    2    0    0 -0.46470816455E+03 -0.47920046745E+02  0.11606190812E+04  0.12543640804E+04  0.90236275932E+02 0.  0.
         11    1    3    3    0    0 -0.10978810112E+03 -0.28465044835E+01  0.18410564847E+03  0.21437448433E+03  0.00000000000E+00 0.  1.
        -11    1    3    3    0    0 -0.35492006343E+03 -0.45073542262E+02  0.97651343272E+03  0.10399895961E+04  0.00000000000E+00 0. -1.
         22    1    1    2    0    0  0.46470816455E+03  0.47920046745E+02 -0.11518720087E+04  0.12430040762E+04  0.00000000000E+00 0. -1.
<mgrwt>
<rscale>  0 0.24973528E+04</rscale>
<asrwt>0</asrwt>
<pdfrwt beam="1">  1        1 0.19143239E+00 0.24973528E+04</pdfrwt>
<pdfrwt beam="2">  1       -1 0.19277810E+00 0.24973528E+04</pdfrwt>
<totfact> 0.14894171E+00</totfact>
</mgrwt>
</event>
<event>
 6    1  0.1614874E-005  0.2004810E+04  0.7818608E-02  0.8604375E-01
         -2   -1    0    0    0  501 -0.00000000000E+00  0.00000000000E+00  0.57091889209E+03  0.57091889209E+03  0.00000000000E+00 0.  1.
          2   -1    0    0  501    0  0.00000000000E+00 -0.00000000000E+00 -0.17599966785E+04  0.17599966785E+04  0.00000000000E+00 0. -1.
         23    2    1    2    0    0 -0.27963965856E+03  0.18882257962E+03  0.49887622581E+03  0.60956695610E+03  0.94032335301E+02 0.  0.
         11    1    3    3    0    0 -0.37018051798E+01 -0.29914090347E+01  0.42734472437E+02  0.42998686306E+02  0.00000000000E+00 0.  1.
        -11    1    3    3    0    0 -0.27593785338E+03  0.19181398866E+03  0.45614175337E+03  0.56656826980E+03  0.00000000000E+00 0. -1.
         22    1    1    2    0    0  0.27963965856E+03 -0.18882257962E+03 -0.16879540123E+04  0.17213486145E+04  0.00000000000E+00 0. -1.
<mgrwt>
<rscale>  0 0.20048096E+04</rscale>
<asrwt>0</asrwt>
<pdfrwt beam="1">  1        2 0.27076872E+00 0.20048096E+04</pdfrwt>
<pdfrwt beam="2">  1       -2 0.87833677E-01 0.20048096E+04</pdfrwt>
<totfact> 0.94274670E+00</totfact>
</mgrwt>
</event>
<event>
 6    1  0.1614874E-005  0.2307300E+04  0.7818608E-02  0.8475048E-01
          2   -1    0    0  501    0  0.00000000000E+00  0.00000000000E+00  0.25723333192E+04  0.25723333192E+04  0.00000000000E+00 0. -1.
         -2   -1    0    0    0  501 -0.00000000000E+00 -0.00000000000E+00 -0.51739330348E+03  0.51739330348E+03  0.00000000000E+00 0.  1.
         23    2    1    2    0    0 -0.86942332663E+03 -0.56941914359E+03  0.16939612889E+04  0.19895263122E+04  0.92601385029E+02 0.  0.
         11    1    3    3    0    0 -0.70226984190E+03 -0.42847512720E+03  0.13877994207E+04  0.16133075025E+04  0.00000000000E+00 0.  1.
        -11    1    3    3    0    0 -0.16715348473E+03 -0.14094401640E+03  0.30616186817E+03  0.37621880965E+03  0.00000000000E+00 0. -1.
         22    1    1    2    0    0  0.86942332663E+03  0.56941914359E+03  0.36097872679E+03  0.11002003105E+04  0.00000000000E+00 0.  1.
<mgrwt>
<rscale>  0 0.23072997E+04</rscale>
<asrwt>0</asrwt>
<pdfrwt beam="1">  1        2 0.39574358E+00 0.23072997E+04</pdfrwt>
<pdfrwt beam="2">  1       -2 0.79598972E-01 0.23072997E+04</pdfrwt>
<totfact> 0.40017807E+00</totfact>
</mgrwt>
</event>
<event>
 6    1  0.1614874E-005  0.1867363E+04  0.7818608E-02  0.8671275E-01
          2   -1    0    0  501    0  0.00000000000E+00  0.00000000000E+00  0.52314267862E+03  0.52314267862E+03  0.00000000000E+00 0. -1.
         -2   -1    0    0    0  501 -0.00000000000E+00 -0.00000000000E+00 -0.16663926654E+04  0.16663926654E+04  0.00000000000E+00 0.  1.
         23    2    1    2    0    0 -0.15970377784E+03 -0.80414787453E+03 -0.54551985531E+02  0.82666248176E+03  0.90751522580E+02 0.  0.
         13    1    3    3    0    0 -0.65881689322E+02 -0.16029764770E+03 -0.27270012808E+02  0.17544054960E+03  0.00000000000E+00 0. -1.
        -13    1    3    3    0    0 -0.93822088514E+02 -0.64385022683E+03 -0.27281972723E+02  0.65122193215E+03  0.00000000000E+00 0.  1.
         22    1    1    2    0    0  0.15970377784E+03  0.80414787453E+03 -0.10886980013E+04  0.13628728623E+04  0.00000000000E+00 0.  1.
<mgrwt>
<rscale>  0 0.18673630E+04</rscale>
<asrwt>0</asrwt>
<pdfrwt beam="1">  1        2 0.80483489E-01 0.18673630E+04</pdfrwt>
<pdfrwt beam="2">  1       -2 0.25636810E+00 0.18673630E+04</pdfrwt>
<totfact> 0.32207706E+00</totfact>
</mgrwt>
</event>
<event>
 6    1  0.1614874E-005  0.1198681E+04  0.7818608E-02  0.9114012E-01
         -1   -1    0    0    0  501 -0.00000000000E+00  0.00000000000E+00  0.14697529792E+04  0.14697529792E+04  0.00000000000E+00 0.  1.
          1   -1    0    0  501    0  0.00000000000E+00 -0.00000000000E+00 -0.24440096646E+03  0.24440096646E+03  0.00000000000E+00 0. -1.
         23    2    1    2    0    0  0.20401376096E+03  0.50962945177E+03  0.28406038990E+03  0.62448715623E+03  0.89163391667E+02 0.  0.
         11    1    3    3    0    0  0.71899375016E+02  0.25197976961E+03  0.95216900219E+02  0.27880025557E+03  0.00000000000E+00 0. -1.
        -11    1    3    3    0    0  0.13211438594E+03  0.25764968216E+03  0.18884348968E+03  0.34568690066E+03  0.00000000000E+00 0.  1.
         22    1    1    2    0    0 -0.20401376096E+03 -0.50962945177E+03  0.94129162287E+03  0.10896667895E+04  0.00000000000E+00 0. -1.
<mgrwt>
<rscale>  0 0.11986810E+04</rscale>
<asrwt>0</asrwt>
<pdfrwt beam="1">  1        1 0.37600149E-01 0.11986810E+04</pdfrwt>
<pdfrwt beam="2">  1       -1 0.22611584E+00 0.11986810E+04</pdfrwt>
<totfact> 0.11370535E+01</totfact>
</mgrwt>
</event>
<event>
 6    1  0.1614874E-005  0.4995178E+04  0.7818608E-02  0.7829251E-01
         -2   -1    0    0    0  501 -0.00000000000E+00  0.00000000000E+00  0.29163298843E+04  0.29163298843E+04  0.00000000000E+00 0. -1.
          2   -1    0    0  501    0  0.00000000000E+00 -0.00000000000E+00 -0.21389732191E+04  0.21389732191E+04  0.00000000000E+00 0.  1.
         23    2    1    2    0    0 -0.14810743340E+04 -0.45513071839E+03  0.23700959042E+04  0.28332447251E+04  0.95895379130E+02 0.  0.
         11    1    3    3    0    0 -0.39516683543E+03 -0.11045556833E+03  0.55471658432E+03  0.68997662954E+03  0.00000000000E+00 0. -1.
        -11    1    3    3    0    0 -0.10859074985E+04 -0.34467515006E+03  0.18153793199E+04  0.21432680956E+04  0.00000000000E+00 0.  1.
         22    1    1    2    0    0  0.14810743340E+04  0.45513071839E+03 -0.15927392390E+04  0.22220583784E+04  0.00000000000E+00 0.  1.
<mgrwt>
<rscale>  0 0.49951783E+04</rscale>
<asrwt>0</asrwt>
<pdfrwt beam="1">  1        2 0.32907280E+00 0.49951783E+04</pdfrwt>
<pdfrwt beam="2">  1       -2 0.44866614E+00 0.49951783E+04</pdfrwt>
<totfact> 0.14453744E-02</totfact>
</mgrwt>
</event>
<event>
 6    1  0.1614874E-005  0.1598229E+04  0.7818608E-02  0.8821637E-01
         -1   -1    0    0    0  501 -0.00000000000E+00  0.00000000000E+00  0.53370969692E+03  0.53370969692E+03  0.00000000000E+00 0.  1.
          1   -1    0    0  501    0  0.00000000000E+00 -0.00000000000E+00 -0.11965002092E+04  0.11965002092E+04  0.00000000000E+00 0. -1.
         23    2    1    2    0    0  0.42403837956E+03  0.32994344392E+03  0.30419872541E+03  0.62398234845E+03  0.90254546166E+02 0.  0.
         11    1    3    3    0    0  0.29067428785E+03  0.24651286798E+03  0.17048953848E+03  0.41752463212E+03  0.00000000000E+00 0. -1.
        -11    1    3    3    0    0  0.13336409172E+03  0.83430575938E+02  0.13370918694E+03  0.20645771633E+03  0.00000000000E+00 0.  1.
         22    1    1    2    0    0 -0.42403837956E+03 -0.32994344392E+03 -0.96698923765E+03  0.11062275576E+04  0.00000000000E+00 0. -1.
<mgrwt>
<rscale>  0 0.15982287E+04</rscale>
<asrwt>0</asrwt>
<pdfrwt beam="1">  1        1 0.18407696E+00 0.15982287E+04</pdfrwt>
<pdfrwt beam="2">  1       -1 0.82109184E-01 0.15982287E+04</pdfrwt>
<totfact> 0.15220504E+01</totfact>
</mgrwt>
</event>
<event>
 6    1  0.1614874E-005  0.3181365E+04  0.7818608E-02  0.8193756E-01
         -1   -1    0    0    0  501 -0.00000000000E+00  0.00000000000E+00  0.20381588755E+04  0.20381588755E+04  0.00000000000E+00 0.  1.
          1   -1    0    0  501    0  0.00000000000E+00 -0.00000000000E+00 -0.12414491518E+04  0.12414491518E+04  0.00000000000E+00 0. -1.
         23    2    1    2    0    0  0.41351602535E+02 -0.99948276240E+03  0.16719008621E+04  0.19504597000E+04  0.91459288529E+02 0.  0.
         13    1    3    3    0    0  0.10844279171E+02 -0.46055732114E+03  0.85745809818E+03  0.97337815600E+03  0.00000000000E+00 0.  1.
        -13    1    3    3    0    0  0.30507323364E+02 -0.53892544126E+03  0.81444276390E+03  0.97708154403E+03  0.00000000000E+00 0. -1.
         22    1    1    2    0    0 -0.41351602535E+02  0.99948276240E+03 -0.87519113829E+03  0.13291483273E+04  0.00000000000E+00 0. -1.
<mgrwt>
<rscale>  0 0.31813649E+04</rscale>
<asrwt>0</asrwt>
<pdfrwt beam="1">  1        1 0.19099218E+00 0.31813649E+04</pdfrwt>
<pdfrwt beam="2">  1       -1 0.31356290E+00 0.31813649E+04</pdfrwt>
<totfact> 0.22513517E-01</totfact>
</mgrwt>
</event>
<event>
 6    1  0.1614874E-005  0.2111066E+04  0.7818608E-02  0.8556384E-01
          2   -1    0    0  501    0  0.00000000000E+00  0.00000000000E+00  0.15792095109E+04  0.15792095109E+04  0.00000000000E+00 0. -1.
         -2   -1    0    0    0  501 -0.00000000000E+00 -0.00000000000E+00 -0.70551097545E+03  0.70551097545E+03  0.00000000000E+00 0.  1.
         23    2    1    2    0    0  0.90047423927E+03 -0.54643954985E+03  0.41125154428E+03  0.11343695586E+04  0.90644501341E+02 0.  0.
         11    1    3    3    0    0  0.54765155880E+02 -0.36469265533E+02  0.33666680020E+01  0.65882957436E+02  0.00000000000E+00 0. -1.
        -11    1    3    3    0    0  0.84570908339E+03 -0.50997028432E+03  0.40788487628E+03  0.10684866012E+04  0.00000000000E+00 0.  1.
         22    1    1    2    0    0 -0.90047423927E+03  0.54643954985E+03  0.46244699115E+03  0.11503509277E+04  0.00000000000E+00 0.  1.
<mgrwt>
<rscale>  0 0.21110657E+04</rscale>
<asrwt>0</asrwt>
<pdfrwt beam="1">  1        2 0.24295531E+00 0.21110657E+04</pdfrwt>
<pdfrwt beam="2">  1       -2 0.10854015E+00 0.21110657E+04</pdfrwt>
<totfact> 0.71581721E+00</totfact>
</mgrwt>
</event>
<event>
 6    1  0.1614874E-005  0.3869706E+04  0.7818608E-02  0.8031359E-01
         -2   -1    0    0    0  501 -0.00000000000E+00  0.00000000000E+00  0.17513377894E+04  0.17513377894E+04  0.00000000000E+00 0.  1.
          2   -1    0    0  501    0  0.00000000000E+00 -0.00000000000E+00 -0.21375980915E+04  0.21375980915E+04  0.00000000000E+00 0. -1.
         23    2    1    2    0    0 -0.19947682308E+03  0.13703313445E+04  0.11632197483E+04  0.18108388131E+04  0.91967535115E+02 0.  0.
         11    1    3    3    0    0 -0.78426223981E+02  0.28264040652E+03  0.25474566945E+03  0.38849919963E+03  0.00000000000E+00 0.  1.
        -11    1    3    3    0    0 -0.12105059909E+03  0.10876909380E+04  0.90847407880E+03  0.14223396134E+04  0.00000000000E+00 0. -1.
         22    1    1    2    0    0  0.19947682308E+03 -0.13703313445E+04 -0.15494800504E+04  0.20780970678E+04  0.00000000000E+00 0. -1.
<mgrwt>
<rscale>  0 0.38697061E+04</rscale>
<asrwt>0</asrwt>
<pdfrwt beam="1">  1        2 0.32886124E+00 0.38697061E+04</pdfrwt>
<pdfrwt beam="2">  1       -2 0.26943658E+00 0.38697061E+04</pdfrwt>
<totfact> 0.21804035E-01</totfact>
</mgrwt>
</event>
<event>
 6    1  0.1614874E-005  0.2111947E+04  0.7818608E-02  0.8555999E-01
         -1   -1    0    0    0  501 -0.00000000000E+00  0.00000000000E+00  0.10080307101E+04  0.10080307101E+04  0.00000000000E+00 0.  1.
          1   -1    0    0  501    0  0.00000000000E+00 -0.00000000000E+00 -0.11061966055E+04  0.11061966055E+04  0.00000000000E+00 0. -1.
         23    2    1    2    0    0  0.38600319610E+03  0.80578342041E+03 -0.60879682204E+03  0.10851358079E+04  0.92740298941E+02 0.  0.
         11    1    3    3    0    0  0.13784059036E+03  0.27684421567E+03 -0.15867850448E+03  0.34759403891E+03  0.00000000000E+00 0.  1.
        -11    1    3    3    0    0  0.24816260574E+03  0.52893920473E+03 -0.45011831757E+03  0.73754176899E+03  0.00000000000E+00 0. -1.
         22    1    1    2    0    0 -0.38600319610E+03 -0.80578342041E+03  0.51063092669E+03  0.10290915077E+04  0.00000000000E+00 0.  1.
<mgrwt>
<rscale>  0 0.21119471E+04</rscale>
<asrwt>0</asrwt>
<pdfrwt beam="1">  1        1 0.17018409E+00 0.21119471E+04</pdfrwt>
<pdfrwt beam="2">  1       -1 0.15508165E+00 0.21119471E+04</pdfrwt>
<totfact> 0.36725044E+00</totfact>
</mgrwt>
</event>
<event>
 6    1  0.1614874E-005  0.5650668E+04  0.7818608E-02  0.7735291E-01
         -2   -1    0    0    0  501 -0.00000000000E+00  0.00000000000E+00  0.30696859342E+04  0.30696859342E+04  0.00000000000E+00 0.  1.
          2   -1    0    0  501    0  0.00000000000E+00 -0.00000000000E+00 -0.26004328254E+04  0.26004328254E+04  0.00000000000E+00 0. -1.
         23    2    1    2    0    0  0.55354903671E+03 -0.20804906655E+04  0.20694069765E+04  0.29877037386E+04  0.95238908640E+02 0.  0.
         11    1    3    3    0    0  0.32643902690E+03 -0.10448560495E+04  0.10391479815E+04  0.15093426152E+04  0.00000000000E+00 0. -1.
        -11    1    3    3    0    0  0.22711000981E+03 -0.10356346160E+04  0.10302589950E+04  0.14783611234E+04  0.00000000000E+00 0.  1.
         22    1    1    2    0    0 -0.55354903671E+03  0.20804906655E+04 -0.16001538677E+04  0.26824150211E+04  0.00000000000E+00 0. -1.
<mgrwt>
<rscale>  0 0.56506679E+04</rscale>
<asrwt>0</asrwt>
<pdfrwt beam="1">  1        2 0.40006659E+00 0.56506679E+04</pdfrwt>
<pdfrwt beam="2">  1       -2 0.47225937E+00 0.56506679E+04</pdfrwt>
<totfact> 0.52470619E-03</totfact>
</mgrwt>
</event>
<event>
 6    1  0.1614874E-005  0.1623614E+04  0.7818608E-02  0.8806171E-01
          2   -1    0    0  501    0  0.00000000000E+00  0.00000000000E+00  0.23058286737E+04  0.23058286737E+04  0.00000000000E+00 0. -1.
         -2   -1    0    0    0  501 -0.00000000000E+00 -0.00000000000E+00 -0.28581082387E+03  0.28581082387E+03  0.00000000000E+00 0.  1.
         23    2    1    2    0    0 -0.26380267012E+03 -0.75673432369E+03  0.11935192400E+04  0.14404059689E+04  0.89679951400E+02 0.  0.
         13    1    3    3    0    0 -0.64500181700E+02 -0.25385290008E+03  0.32789141214E+03  0.41965979849E+03  0.00000000000E+00 0.  1.
        -13    1    3    3    0    0 -0.19930248842E+03 -0.50288142361E+03  0.86562782788E+03  0.10207461705E+04  0.00000000000E+00 0. -1.
         22    1    1    2    0    0  0.26380267012E+03  0.75673432369E+03  0.82649860980E+03  0.11512335286E+04  0.00000000000E+00 0. -1.
<mgrwt>
<rscale>  0 0.16236142E+04</rscale>
<asrwt>0</asrwt>
<pdfrwt beam="1">  1        2 0.35474286E+00 0.16236142E+04</pdfrwt>
<pdfrwt beam="2">  1       -2 0.43970897E-01 0.16236142E+04</pdfrwt>
<totfact> 0.21146256E+01</totfact>
</mgrwt>
</event>
<event>
 6    1  0.1614874E-005  0.5029894E+04  0.7818608E-02  0.7823912E-01
          1   -1    0    0  501    0  0.00000000000E+00  0.00000000000E+00  0.30940740414E+04  0.30940740414E+04  0.00000000000E+00 0. -1.
         -1   -1    0    0    0  501 -0.00000000000E+00 -0.00000000000E+00 -0.20442166870E+04  0.20442166870E+04  0.00000000000E+00 0.  1.
         23    2    1    2    0    0  0.92080827307E+03  0.97530624074E+03  0.26973861255E+04  0.30137999211E+04  0.89375136982E+02 0.  0.
         13    1    3    3    0    0  0.75718042936E+03  0.79645979957E+03  0.21294166133E+04  0.23962649119E+04  0.00000000000E+00 0. -1.
        -13    1    3    3    0    0  0.16362784370E+03  0.17884644117E+03  0.56796951221E+03  0.61753500918E+03  0.00000000000E+00 0.  1.
         22    1    1    2    0    0 -0.92080827307E+03 -0.97530624074E+03 -0.16475287711E+04  0.21244908074E+04  0.00000000000E+00 0.  1.
<mgrwt>
<rscale>  0 0.50298938E+04</rscale>
<asrwt>0</asrwt>
<pdfrwt beam="1">  1        1 0.47601139E+00 0.50298938E+04</pdfrwt>
<pdfrwt beam="2">  1       -1 0.31449487E+00 0.50298938E+04</pdfrwt>
<totfact> 0.97588588E-03</totfact>
</mgrwt>
</event>
<event>
 6    1  0.1614874E-005  0.2513730E+04  0.7818608E-02  0.8398110E-01
         -2   -1    0    0    0  501 -0.00000000000E+00  0.00000000000E+00  0.12145834201E+04  0.12145834201E+04  0.00000000000E+00 0.  1.
          2   -1    0    0  501    0  0.00000000000E+00 -0.00000000000E+00 -0.13006185362E+04  0.13006185362E+04  0.00000000000E+00 0. -1.
         23    2    1    2    0    0 -0.36800474182E+03  0.24214767076E+03  0.11327144602E+04  0.12192800783E+04  0.97667172573E+02 0.  0.
         13    1    3    3    0    0 -0.26957723781E+03  0.13004483043E+03  0.69042551678E+03  0.75250976026E+03  0.00000000000E+00 0.  1.
        -13    1    3    3    0    0 -0.98427504017E+02  0.11210284034E+03  0.44228894337E+03  0.46677031803E+03  0.00000000000E+00 0. -1.
         22    1    1    2    0    0  0.36800474182E+03 -0.24214767076E+03 -0.12187495762E+04  0.12959218780E+04  0.00000000000E+00 0. -1.
<mgrwt>
<rscale>  0 0.25137301E+04</rscale>
<asrwt>0</asrwt>
<pdfrwt beam="1">  1        2 0.20009516E+00 0.25137301E+04</pdfrwt>
<pdfrwt beam="2">  1       -2 0.18685899E+00 0.25137301E+04</pdfrwt>
<totfact> 0.23950215E+00</totfact>
</mgrwt>
</event>
<event>
 6    1  0.1614874E-005  0.3113999E+04  0.7818608E-02  0.8211907E-01
          1   -1    0    0  501    0  0.00000000000E+00  0.00000000000E+00  0.17597569677E+04  0.17597569677E+04  0.00000000000E+00 0. -1.
         -1   -1    0    0    0  501 -0.00000000000E+00 -0.00000000000E+00 -0.13776033963E+04  0.13776033963E+04  0.00000000000E+00 0.  1.
         23    2    1    2    0    0  0.19948658994E+03  0.87647873460E+03  0.14704695008E+04  0.17258216880E+04  0.90388462012E+02 0.  0.
         13    1    3    3    0    0  0.27196357279E+02  0.27916692616E+03  0.50040200544E+03  0.57365144605E+03  0.00000000000E+00 0. -1.
        -13    1    3    3    0    0  0.17229023267E+03  0.59731180844E+03  0.97006749537E+03  0.11521702419E+04  0.00000000000E+00 0.  1.
         22    1    1    2    0    0 -0.19948658994E+03 -0.87647873460E+03 -0.10883159294E+04  0.14115386760E+04  0.00000000000E+00 0.  1.
<mgrwt>
<rscale>  0 0.31139988E+04</rscale>
<asrwt>0</asrwt>
<pdfrwt beam="1">  1        1 0.27073184E+00 0.31139988E+04</pdfrwt>
<pdfrwt beam="2">  1       -1 0.21193898E+00 0.31139988E+04</pdfrwt>
<totfact> 0.45615277E-01</totfact>
</mgrwt>
</event>
<event>
 6    1  0.1614874E-005  0.2313011E+04  0.7818608E-02  0.8472809E-01
         -2   -1    0    0    0  501 -0.00000000000E+00  0.00000000000E+00  0.53801274572E+03  0.53801274572E+03  0.00000000000E+00 0.  1.
          2   -1    0    0  501    0  0.00000000000E+00 -0.00000000000E+00 -0.24860088101E+04  0.24860088101E+04  0.00000000000E+00 0. -1.
         23    2    1    2    0    0 -0.77035200471E+03 -0.77856136064E+03 -0.14537761860E+04  0.18224170903E+04  0.90215566498E+02 0.  0.
         11    1    3    3    0    0 -0.34620644078E+03 -0.35445826491E+03 -0.58384398864E+03  0.76575019704E+03  0.00000000000E+00 0.  1.
        -11    1    3    3    0    0 -0.42414556393E+03 -0.42410309574E+03 -0.86993219740E+03  0.10566668932E+04  0.00000000000E+00 0. -1.
         22    1    1    2    0    0  0.77035200471E+03  0.77856136064E+03 -0.49421987835E+03  0.12016044655E+04  0.00000000000E+00 0.  1.
<mgrwt>
<rscale>  0 0.23130105E+04</rscale>
<asrwt>0</asrwt>
<pdfrwt beam="1">  1        2 0.38246289E+00 0.23130105E+04</pdfrwt>
<pdfrwt beam="2">  1       -2 0.82771192E-01 0.23130105E+04</pdfrwt>
<totfact> 0.41110498E+00</totfact>
</mgrwt>
</event>
<event>
 6    1  0.1614874E-005  0.9429239E+03  0.7818608E-02  0.9373460E-01
         -2   -1    0    0    0  501 -0.00000000000E+00  0.00000000000E+00  0.89183437603E+02  0.89183437603E+02  0.00000000000E+00 0. -1.
          2   -1    0    0  501    0  0.00000000000E+00 -0.00000000000E+00 -0.24923504842E+04  0.24923504842E+04  0.00000000000E+00 0.  1.
         23    2    1    2    0    0 -0.81454959881E+02  0.38756891125E+03 -0.53706170134E+03  0.67386683055E+03  0.93897086282E+02 0.  0.
         13    1    3    3    0    0  0.52982681137E+01  0.32505306142E+02 -0.14079170172E+02  0.35817448333E+02  0.00000000000E+00 0. -1.
        -13    1    3    3    0    0 -0.86753227995E+02  0.35506360511E+03 -0.52298253117E+03  0.63804938222E+03  0.00000000000E+00 0.  1.
         22    1    1    2    0    0  0.81454959881E+02 -0.38756891125E+03 -0.18661053452E+04  0.19076670912E+04  0.00000000000E+00 0.  1.
<mgrwt>
<rscale>  0 0.94292393E+03</rscale>
<asrwt>0</asrwt>
<pdfrwt beam="1">  1        2 0.38343857E+00 0.94292393E+03</pdfrwt>
<pdfrwt beam="2">  1       -2 0.13720528E-01 0.94292393E+03</pdfrwt>
<totfact> 0.14584724E+02</totfact>
</mgrwt>
</event>
<event>
 6    1  0.1614874E-005  0.9760502E+03  0.7818608E-02  0.9335210E-01
          1   -1    0    0  501    0  0.00000000000E+00  0.00000000000E+00  0.21946936869E+03  0.21946936869E+03  0.00000000000E+00 0. -1.
         -1   -1    0    0    0  501 -0.00000000000E+00 -0.00000000000E+00 -0.10852015874E+04  0.10852015874E+04  0.00000000000E+00 0.  1.
         23    2    1    2    0    0 -0.33701574887E+03 -0.18485919711E+02  0.26483484954E+02  0.35074737107E+03  0.91656964401E+02 0.  0.
         13    1    3    3    0    0 -0.11276975439E+03  0.61869111594E+01  0.50805958749E+02  0.12384078819E+03  0.00000000000E+00 0. -1.
        -13    1    3    3    0    0 -0.22424599448E+03 -0.24672830870E+02 -0.24322473794E+02  0.22690658288E+03  0.00000000000E+00 0.  1.
         22    1    1    2    0    0  0.33701574887E+03  0.18485919711E+02 -0.89221570370E+03  0.95392358507E+03  0.00000000000E+00 0.  1.
<mgrwt>
<rscale>  0 0.97605022E+03</rscale>
<asrwt>0</asrwt>
<pdfrwt beam="1">  1        1 0.33764518E-01 0.97605022E+03</pdfrwt>
<pdfrwt beam="2">  1       -1 0.16695409E+00 0.97605022E+03</pdfrwt>
<totfact> 0.34316488E+01</totfact>
</mgrwt>
</event>
<event>
 6    1  0.1614874E-005  0.1536541E+04  0.7818608E-02  0.8860511E-01
         -1   -1    0    0    0  501 -0.00000000000E+00  0.00000000000E+00  0.15251910463E+04  0.15251910463E+04  0.00000000000E+00 0.  1.
          1   -1    0    0  501    0  0.00000000000E+00 -0.00000000000E+00 -0.38699362926E+03  0.38699362926E+03  0.00000000000E+00 0. -1.
         23    2    1    2    0    0 -0.29759432461E+03  0.30051364043E+03 -0.22303092869E+03  0.48676774029E+03  0.91264493154E+02 0.  0.
         11    1    3    3    0    0 -0.11527432195E+03  0.17988962950E+03 -0.99772976651E+02  0.23580308516E+03  0.00000000000E+00 0.  1.
        -11    1    3    3    0    0 -0.18232000266E+03  0.12062401093E+03 -0.12325795204E+03  0.25096465513E+03  0.00000000000E+00 0. -1.
         22    1    1    2    0    0  0.29759432461E+03 -0.30051364043E+03  0.13612283457E+04  0.14254169353E+04  0.00000000000E+00 0.  1.
<mgrwt>
<rscale>  0 0.15365406E+04</rscale>
<asrwt>0</asrwt>
<pdfrwt beam="1">  1        1 0.59537482E-01 0.15365406E+04</pdfrwt>
<pdfrwt beam="2">  1       -1 0.23464477E+00 0.15365406E+04</pdfrwt>
<totfact> 0.53188292E+00</totfact>
</mgrwt>
</event>
<event>
 6    1  0.1614874E-005  0.1190415E+04  0.7818608E-02  0.9121288E-01
         -2   -1    0    0    0  501 -0.00000000000E+00  0.00000000000E+00  0.18938394779E+03  0.18938394779E+03  0.00000000000E+00 0. -1.
          2   -1    0    0  501    0  0.00000000000E+00 -0.00000000000E+00 -0.18706545415E+04  0.18706545415E+04  0.00000000000E+00 0.  1.
         23    2    1    2    0    0  0.54002310312E+03  0.28109023628E+02 -0.12608047064E+04  0.13750518971E+04  0.93403119966E+02 0.  0.
         13    1    3    3    0    0  0.21604780762E+03  0.31673219317E+02 -0.61327984280E+03  0.65099309795E+03  0.00000000000E+00 0.  1.
        -13    1    3    3    0    0  0.32397529550E+03 -0.35641956893E+01 -0.64752486361E+03  0.72405879912E+03  0.00000000000E+00 0. -1.
         22    1    1    2    0    0 -0.54002310312E+03 -0.28109023628E+02 -0.42046588725E+03  0.68498659217E+03  0.00000000000E+00 0. -1.
<mgrwt>
<rscale>  0 0.11904150E+04</rscale>
<asrwt>0</asrwt>
<pdfrwt beam="1">  1        2 0.28779302E+00 0.11904150E+04</pdfrwt>
<pdfrwt beam="2">  1       -2 0.29135991E-01 0.11904150E+04</pdfrwt>
<totfact> 0.84340445E+01</totfact>
</mgrwt>
</event>
<event>
 6    1  0.1614874E-005  0.3572776E+04  0.7818608E-02  0.8096756E-01
          2   -1    0    0  501    0  0.00000000000E+00  0.00000000000E+00  0.21615168162E+04  0.21615168162E+04  0.00000000000E+00 0. -1.
         -2   -1    0    0    0  501 -0.00000000000E+00 -0.00000000000E+00 -0.14763622717E+04  0.14763622717E+04  0.00000000000E+00 0.  1.
         23    2    1    2    0    0  0.35715516677E+03 -0.16898556400E+04 -0.11706381903E+03  0.17334825430E+04  0.89921587020E+02 0.  0.
         13    1    3    3    0    0  0.10612823974E+03 -0.49382168755E+03 -0.75272157524E+02  0.51067500435E+03  0.00000000000E+00 0. -1.
        -13    1    3    3    0    0  0.25102692703E+03 -0.11960339525E+04 -0.41791661504E+02  0.12228075386E+04  0.00000000000E+00 0.  1.
         22    1    1    2    0    0 -0.35715516677E+03  0.16898556400E+04  0.80221836352E+03  0.19043965449E+04  0.00000000000E+00 0. -1.
<mgrwt>
<rscale>  0 0.35727759E+04</rscale>
<asrwt>0</asrwt>
<pdfrwt beam="1">  1        2 0.33254105E+00 0.35727759E+04</pdfrwt>
<pdfrwt beam="2">  1       -2 0.22713266E+00 0.35727759E+04</pdfrwt>
<totfact> 0.39509551E-01</totfact>
</mgrwt>
</event>
<event>
 6    1  0.1614874E-005  0.3715072E+04  0.7818608E-02  0.8064630E-01
          1   -1    0    0  501    0  0.00000000000E+00  0.00000000000E+00  0.16254446413E+04  0.16254446413E+04  0.00000000000E+00 0. -1.
         -1   -1    0    0    0  501 -0.00000000000E+00 -0.00000000000E+00 -0.21227667178E+04  0.21227667178E+04  0.00000000000E+00 0.  1.
         23    2    1    2    0    0 -0.74565794169E+03  0.91027314308E+03  0.11997271479E+04  0.16831256390E+04  0.94676956946E+02 0.  0.
         13    1    3    3    0    0 -0.54952747642E+03  0.66500737894E+03  0.81823162476E+03  0.11889988449E+04  0.00000000000E+00 0.  1.
        -13    1    3    3    0    0 -0.19613046527E+03  0.24526576415E+03  0.38149552317E+03  0.49412679412E+03  0.00000000000E+00 0. -1.
         22    1    1    2    0    0  0.74565794169E+03 -0.91027314308E+03 -0.16970492245E+04  0.20650857201E+04  0.00000000000E+00 0.  1.
<mgrwt>
<rscale>  0 0.37150719E+04</rscale>
<asrwt>0</asrwt>
<pdfrwt beam="1">  1        1 0.25006841E+00 0.37150719E+04</pdfrwt>
<pdfrwt beam="2">  1       -1 0.32657949E+00 0.37150719E+04</pdfrwt>
<totfact> 0.95184367E-02</totfact>
</mgrwt>
</event>
<event>
 6    1  0.1614874E-005  0.1378941E+04  0.7818608E-02  0.8969205E-01
          2   -1    0    0  501    0  0.00000000000E+00  0.00000000000E+00  0.54064986103E+03  0.54064986103E+03  0.00000000000E+00 0. -1.
         -2   -1    0    0    0  501 -0.00000000000E+00 -0.00000000000E+00 -0.87925609212E+03  0.87925609212E+03  0.00000000000E+00 0.  1.
         23    2    1    2    0    0 -0.19674319868E+03 -0.30285655588E+03  0.43109011024E+03  0.56969278133E+03  0.91001111463E+02 0.  0.
         13    1    3    3    0    0 -0.86581945950E+02 -0.21252658663E+03  0.28008383195E+03  0.36209244166E+03  0.00000000000E+00 0.  1.
        -13    1    3    3    0    0 -0.11016125273E+03 -0.90329969258E+02  0.15100627829E+03  0.20760033967E+03  0.00000000000E+00 0. -1.
         22    1    1    2    0    0  0.19674319868E+03  0.30285655588E+03 -0.76969634133E+03  0.85021317182E+03  0.00000000000E+00 0.  1.
<mgrwt>
<rscale>  0 0.13789412E+04</rscale>
<asrwt>0</asrwt>
<pdfrwt beam="1">  1        2 0.83176903E-01 0.13789412E+04</pdfrwt>
<pdfrwt beam="2">  1       -2 0.13527017E+00 0.13789412E+04</pdfrwt>
<totfact> 0.21482429E+01</totfact>
</mgrwt>
</event>
<event>
 6    1  0.1614874E-005  0.3740954E+04  0.7818608E-02  0.8058946E-01
         -2   -1    0    0    0  501 -0.00000000000E+00  0.00000000000E+00  0.10725550526E+04  0.10725550526E+04  0.00000000000E+00 0. -1.
          2   -1    0    0  501    0  0.00000000000E+00 -0.00000000000E+00 -0.32620082447E+04  0.32620082447E+04  0.00000000000E+00 0.  1.
         23    2    1    2    0    0 -0.11566370466E+04  0.71515802964E+03  0.39064936752E+03  0.14180260555E+04  0.94502385424E+02 0.  0.
         11    1    3    3    0    0 -0.92833122358E+03  0.52829435213E+03  0.30566278758E+03  0.11110011354E+04  0.00000000000E+00 0.  1.
        -11    1    3    3    0    0 -0.22830582302E+03  0.18686367751E+03  0.84986579936E+02  0.30702492011E+03  0.00000000000E+00 0. -1.
         22    1    1    2    0    0  0.11566370466E+04 -0.71515802964E+03 -0.25801025596E+04  0.29165372418E+04  0.00000000000E+00 0.  1.
<mgrwt>
<rscale>  0 0.37409536E+04</rscale>
<asrwt>0</asrwt>
<pdfrwt beam="1">  1        2 0.50184742E+00 0.37409536E+04</pdfrwt>
<pdfrwt beam="2">  1       -2 0.16500847E+00 0.37409536E+04</pdfrwt>
<totfact> 0.21992267E-01</totfact>
</mgrwt>
</event>
<event>
 6    1  0.1614874E-005  0.1838383E+04  0.7818608E-02  0.8686150E-01
          1   -1    0    0  501    0  0.00000000000E+00  0.00000000000E+00  0.86580805865E+03  0.86580805865E+03  0.00000000000E+00 0. -1.
         -1   -1    0    0    0  501 -0.00000000000E+00 -0.00000000000E+00 -0.97586628058E+03  0.97586628058E+03  0.00000000000E+00 0.  1.
         23    2    1    2    0    0 -0.71260753014E+03  0.22221778816E+03  0.47839358138E+03  0.89116617924E+03  0.90147118216E+02 0.  0.
         13    1    3    3    0    0 -0.53790309177E+03  0.18141724137E+03  0.31889255993E+03  0.65111014151E+03  0.00000000000E+00 0.  1.
        -13    1    3    3    0    0 -0.17470443837E+03  0.40800546792E+02  0.15950102145E+03  0.24005603773E+03  0.00000000000E+00 0. -1.
         22    1    1    2    0    0  0.71260753014E+03 -0.22221778816E+03 -0.58845180331E+03  0.95050815999E+03  0.00000000000E+00 0.  1.
<mgrwt>
<rscale>  0 0.18383829E+04</rscale>
<asrwt>0</asrwt>
<pdfrwt beam="1">  1        1 0.13320124E+00 0.18383829E+04</pdfrwt>
<pdfrwt beam="2">  1       -1 0.15013327E+00 0.18383829E+04</pdfrwt>
<totfact> 0.63591993E+00</totfact>
</mgrwt>
</event>
<event>
 6    1  0.1614874E-005  0.2889966E+04  0.7818608E-02  0.8275869E-01
         -1   -1    0    0    0  501 -0.00000000000E+00  0.00000000000E+00  0.18997619148E+04  0.18997619148E+04  0.00000000000E+00 0.  1.
          1   -1    0    0  501    0  0.00000000000E+00 -0.00000000000E+00 -0.10990724698E+04  0.10990724698E+04  0.00000000000E+00 0. -1.
         23    2    1    2    0    0  0.54062232516E+03  0.22313260162E+03  0.17704881988E+04  0.18663281906E+04  0.80571684902E+02 0.  0.
         13    1    3    3    0    0  0.68913301461E+02  0.48385176482E+02  0.32834783387E+03  0.33897266619E+03  0.00000000000E+00 0.  1.
        -13    1    3    3    0    0  0.47170902370E+03  0.17474742514E+03  0.14421403650E+04  0.15273555244E+04  0.00000000000E+00 0. -1.
         22    1    1    2    0    0 -0.54062232516E+03 -0.22313260162E+03 -0.96979875389E+03  0.11325061940E+04  0.00000000000E+00 0. -1.
<mgrwt>
<rscale>  0 0.28899661E+04</rscale>
<asrwt>0</asrwt>
<pdfrwt beam="1">  1        1 0.16908807E+00 0.28899661E+04</pdfrwt>
<pdfrwt beam="2">  1       -1 0.29227106E+00 0.28899661E+04</pdfrwt>
<totfact> 0.40431522E-01</totfact>
</mgrwt>
</event>
<event>
 6    1  0.1614874E-005  0.2115126E+04  0.7818608E-02  0.8554609E-01
          2   -1    0    0  501    0  0.00000000000E+00  0.00000000000E+00  0.13246120251E+04  0.13246120251E+04  0.00000000000E+00 0. -1.
         -2   -1    0    0    0  501 -0.00000000000E+00 -0.00000000000E+00 -0.84435238961E+03  0.84435238961E+03  0.00000000000E+00 0.  1.
         23    2    1    2    0    0 -0.81718826819E+03  0.47091100143E+03 -0.24582501766E+03  0.97869017720E+03  0.88604100919E+02 0.  0.
         11    1    3    3    0    0 -0.64278260463E+03  0.40334022675E+03 -0.17558697740E+03  0.77889896775E+03  0.00000000000E+00 0.  1.
        -11    1    3    3    0    0 -0.17440566356E+03  0.67570774680E+02 -0.70238040263E+02  0.19979120944E+03  0.00000000000E+00 0. -1.
         22    1    1    2    0    0  0.81718826819E+03 -0.47091100143E+03  0.72608465313E+03  0.11902742375E+04  0.00000000000E+00 0. -1.
<mgrwt>
<rscale>  0 0.21151258E+04</rscale>
<asrwt>0</asrwt>
<pdfrwt beam="1">  1        2 0.20378646E+00 0.21151258E+04</pdfrwt>
<pdfrwt beam="2">  1       -2 0.12990037E+00 0.21151258E+04</pdfrwt>
<totfact> 0.64072164E+00</totfact>
</mgrwt>
</event>
<event>
 6    1  0.1614874E-005  0.2372205E+04  0.7818608E-02  0.8449983E-01
         -2   -1    0    0    0  501 -0.00000000000E+00  0.00000000000E+00  0.66878091006E+03  0.66878091006E+03  0.00000000000E+00 0.  1.
          2   -1    0    0  501    0  0.00000000000E+00 -0.00000000000E+00 -0.21035879785E+04  0.21035879785E+04  0.00000000000E+00 0. -1.
         23    2    1    2    0    0 -0.31020377229E+03  0.18745546392E+03 -0.20362359917E+04  0.20701704257E+04  0.89345656341E+02 0.  0.
         13    1    3    3    0    0 -0.23758791327E+03  0.18402129954E+03 -0.16560981696E+04  0.16831437854E+04  0.00000000000E+00 0. -1.
        -13    1    3    3    0    0 -0.72615859020E+02  0.34341643751E+01 -0.38013782216E+03  0.38702664030E+03  0.00000000000E+00 0.  1.
         22    1    1    2    0    0  0.31020377229E+03 -0.18745546392E+03  0.60142892333E+03  0.70219846277E+03  0.00000000000E+00 0.  1.
<mgrwt>
<rscale>  0 0.23722053E+04</rscale>
<asrwt>0</asrwt>
<pdfrwt beam="1">  1        2 0.32362891E+00 0.23722053E+04</pdfrwt>
<pdfrwt beam="2">  1       -2 0.10288937E+00 0.23722053E+04</pdfrwt>
<totfact> 0.40678619E+00</totfact>
</mgrwt>
</event>
<event>
 6    1  0.1614874E-005  0.1940442E+04  0.7818608E-02  0.8634984E-01
          2   -1    0    0  501    0  0.00000000000E+00  0.00000000000E+00  0.84360191614E+03  0.84360191614E+03  0.00000000000E+00 0. -1.
         -2   -1    0    0    0  501 -0.00000000000E+00 -0.00000000000E+00 -0.11158450217E+04  0.11158450217E+04  0.00000000000E+00 0.  1.
         23    2    1    2    0    0 -0.74232558225E+03 -0.59038364913E+03  0.58903739345E+02  0.95482842514E+03  0.92884593635E+02 0.  0.
         11    1    3    3    0    0 -0.49576420232E+03 -0.40531477236E+03 -0.30809172098E+01  0.64036841041E+03  0.00000000000E+00 0. -1.
        -11    1    3    3    0    0 -0.24656137992E+03 -0.18506887677E+03  0.61984656555E+02  0.31446001473E+03  0.00000000000E+00 0.  1.
         22    1    1    2    0    0  0.74232558225E+03  0.59038364913E+03 -0.33114684494E+03  0.10046185127E+04  0.00000000000E+00 0. -1.
<mgrwt>
<rscale>  0 0.19404422E+04</rscale>
<asrwt>0</asrwt>
<pdfrwt beam="1">  1        2 0.12978491E+00 0.19404422E+04</pdfrwt>
<pdfrwt beam="2">  1       -2 0.17166847E+00 0.19404422E+04</pdfrwt>
<totfact> 0.62061165E+00</totfact>
</mgrwt>
</event>
<event>
 6    1  0.1614874E-005  0.1849057E+04  0.7818608E-02  0.8680638E-01
          2   -1    0    0  501    0  0.00000000000E+00  0.00000000000E+00  0.12386250842E+04  0.12386250842E+04  0.00000000000E+00 0. -1.
         -2   -1    0    0    0  501 -0.00000000000E+00 -0.00000000000E+00 -0.69008223087E+03  0.69008223087E+03  0.00000000000E+00 0.  1.
         23    2    1    2    0    0 -0.10291955985E+03  0.89033220258E+03  0.50187104859E+03  0.10312318980E+04  0.90998963681E+02 0.  0.
         13    1    3    3    0    0 -0.61091660365E+02  0.78670398060E+03  0.43619631432E+03  0.90161109614E+03  0.00000000000E+00 0. -1.
        -13    1    3    3    0    0 -0.41827899485E+02  0.10362822198E+03  0.65674734269E+02  0.12962080191E+03  0.00000000000E+00 0.  1.
         22    1    1    2    0    0  0.10291955985E+03 -0.89033220258E+03  0.46671804709E+02  0.89747541699E+03  0.00000000000E+00 0. -1.
<mgrwt>
<rscale>  0 0.18490572E+04</rscale>
<asrwt>0</asrwt>
<pdfrwt beam="1">  1        2 0.19055771E+00 0.18490572E+04</pdfrwt>
<pdfrwt beam="2">  1       -2 0.10616650E+00 0.18490572E+04</pdfrwt>
<totfact> 0.12094138E+01</totfact>
</mgrwt>
</event>
<event>
 6    1  0.1614874E-005  0.3453923E+04  0.7818608E-02  0.8124797E-01
          2   -1    0    0  501    0  0.00000000000E+00  0.00000000000E+00  0.23488310908E+04  0.23488310908E+04  0.00000000000E+00 0. -1.
         -2   -1    0    0    0  501 -0.00000000000E+00 -0.00000000000E+00 -0.12697364100E+04  0.12697364100E+04  0.00000000000E+00 0.  1.
         23    2    1    2    0    0  0.84517162292E+03 -0.28214204838E+03 -0.10084659897E+04  0.13488034689E+04  0.91367049320E+02 0.  0.
         11    1    3    3    0    0  0.42658287305E+03 -0.13466559176E+03 -0.43830867676E+03  0.62627650866E+03  0.00000000000E+00 0. -1.
        -11    1    3    3    0    0  0.41858874986E+03 -0.14747645662E+03 -0.57015731295E+03  0.72252696025E+03  0.00000000000E+00 0.  1.
         22    1    1    2    0    0 -0.84517162292E+03  0.28214204838E+03  0.20875606704E+04  0.22697640319E+04  0.00000000000E+00 0. -1.
<mgrwt>
<rscale>  0 0.34539232E+04</rscale>
<asrwt>0</asrwt>
<pdfrwt beam="1">  1        2 0.36135863E+00 0.34539232E+04</pdfrwt>
<pdfrwt beam="2">  1       -2 0.19534406E+00 0.34539232E+04</pdfrwt>
<totfact> 0.50074004E-01</totfact>
</mgrwt>
</event>
<event>
 6    1  0.1614874E-005  0.1480777E+04  0.7818608E-02  0.8897338E-01
          2   -1    0    0  501    0  0.00000000000E+00  0.00000000000E+00  0.11325225010E+04  0.11325225010E+04  0.00000000000E+00 0. -1.
         -2   -1    0    0    0  501 -0.00000000000E+00 -0.00000000000E+00 -0.48403015707E+03  0.48403015707E+03  0.00000000000E+00 0.  1.
         23    2    1    2    0    0  0.11288755559E+03 -0.46059913665E+03 -0.29136109844E+03  0.56383253476E+03  0.90114775038E+02 0.  0.
         11    1    3    3    0    0  0.59491429809E+02 -0.33264669854E+03 -0.16421305532E+03  0.37571130381E+03  0.00000000000E+00 0.  1.
        -11    1    3    3    0    0  0.53396125776E+02 -0.12795243811E+03 -0.12714804312E+03  0.18812123095E+03  0.00000000000E+00 0. -1.
         22    1    1    2    0    0 -0.11288755559E+03  0.46059913665E+03  0.93985344235E+03  0.10527201233E+04  0.00000000000E+00 0. -1.
<mgrwt>
<rscale>  0 0.14807769E+04</rscale>
<asrwt>0</asrwt>
<pdfrwt beam="1">  1        2 0.17423423E+00 0.14807769E+04</pdfrwt>
<pdfrwt beam="2">  1       -2 0.74466178E-01 0.14807769E+04</pdfrwt>
<totfact> 0.32664967E+01</totfact>
</mgrwt>
</event>
<event>
 6    1  0.1614874E-005  0.1026763E+04  0.7818608E-02  0.9279669E-01
          1   -1    0    0  501    0  0.00000000000E+00  0.00000000000E+00  0.79142857431E+03  0.79142857431E+03  0.00000000000E+00 0. -1.
         -1   -1    0    0    0  501 -0.00000000000E+00 -0.00000000000E+00 -0.33301854007E+03  0.33301854007E+03  0.00000000000E+00 0.  1.
         23    2    1    2    0    0  0.17583560627E+03  0.44267700489E+03  0.33504034615E+02  0.48614765519E+03  0.91301321026E+02 0.  0.
         11    1    3    3    0    0  0.15645547414E+03  0.29272133940E+03  0.42807448734E+02  0.33465889440E+03  0.00000000000E+00 0. -1.
        -11    1    3    3    0    0  0.19380132129E+02  0.14995566549E+03 -0.93034141197E+01  0.15148876080E+03  0.00000000000E+00 0.  1.
         22    1    1    2    0    0 -0.17583560627E+03 -0.44267700489E+03  0.42490599963E+03  0.63829945920E+03  0.00000000000E+00 0. -1.
<mgrwt>
<rscale>  0 0.10267627E+04</rscale>
<asrwt>0</asrwt>
<pdfrwt beam="1">  1        1 0.12175824E+00 0.10267627E+04</pdfrwt>
<pdfrwt beam="2">  1       -1 0.51233622E-01 0.10267627E+04</pdfrwt>
<totfact> 0.86248399E+01</totfact>
</mgrwt>
</event>
<event>
 6    1  0.1614874E-005  0.2652859E+04  0.7818608E-02  0.8350465E-01
         -2   -1    0    0    0  501 -0.00000000000E+00  0.00000000000E+00  0.22507077814E+04  0.22507077814E+04  0.00000000000E+00 0.  1.
          2   -1    0    0  501    0  0.00000000000E+00 -0.00000000000E+00 -0.78171638066E+03  0.78171638066E+03  0.00000000000E+00 0. -1.
         23    2    1    2    0    0 -0.79066441145E+03 -0.10178620386E+04  0.10861893602E+04  0.16879053845E+04  0.89576333867E+02 0.  0.
         11    1    3    3    0    0 -0.50669326076E+03 -0.68136180998E+03  0.66421996934E+03  0.10780445929E+04  0.00000000000E+00 0.  1.
        -11    1    3    3    0    0 -0.28397115069E+03 -0.33650022858E+03  0.42196939090E+03  0.60986079158E+03  0.00000000000E+00 0. -1.
         22    1    1    2    0    0  0.79066441145E+03  0.10178620386E+04  0.38280204051E+03  0.13445187776E+04  0.00000000000E+00 0. -1.
<mgrwt>
<rscale>  0 0.26528589E+04</rscale>
<asrwt>0</asrwt>
<pdfrwt beam="1">  1        2 0.12026406E+00 0.26528589E+04</pdfrwt>
<pdfrwt beam="2">  1       -2 0.34626273E+00 0.26528589E+04</pdfrwt>
<totfact> 0.51389132E-01</totfact>
</mgrwt>
</event>
<event>
 6    1  0.1614874E-005  0.1199249E+04  0.7818608E-02  0.9113514E-01
         -1   -1    0    0    0  501 -0.00000000000E+00  0.00000000000E+00  0.27490272989E+03  0.27490272989E+03  0.00000000000E+00 0.  1.
          1   -1    0    0  501    0  0.00000000000E+00 -0.00000000000E+00 -0.13079151213E+04  0.13079151213E+04  0.00000000000E+00 0. -1.
         23    2    1    2    0    0 -0.41703230171E+03  0.38330353024E+03 -0.76378499865E+03  0.95566481882E+03  0.95342460644E+02 0.  0.
         13    1    3    3    0    0 -0.12160362714E+03  0.67987572380E+02 -0.23010010612E+03  0.26899035479E+03  0.00000000000E+00 0.  1.
        -13    1    3    3    0    0 -0.29542867457E+03  0.31531595786E+03 -0.53368489253E+03  0.68667446403E+03  0.00000000000E+00 0. -1.
         22    1    1    2    0    0  0.41703230171E+03 -0.38330353024E+03 -0.26922739273E+03  0.62715303233E+03  0.00000000000E+00 0.  1.
<mgrwt>
<rscale>  0 0.11992488E+04</rscale>
<asrwt>0</asrwt>
<pdfrwt beam="1">  1        1 0.20121771E+00 0.11992488E+04</pdfrwt>
<pdfrwt beam="2">  1       -1 0.42292728E-01 0.11992488E+04</pdfrwt>
<totfact> 0.48554634E+01</totfact>
</mgrwt>
</event>
<event>
 6    1  0.1614874E-005  0.2311562E+04  0.7818608E-02  0.8473376E-01
         -1   -1    0    0    0  501 -0.00000000000E+00  0.00000000000E+00  0.12071951930E+04  0.12071951930E+04  0.00000000000E+00 0.  1.
          1   -1    0    0  501    0  0.00000000000E+00 -0.00000000000E+00 -0.11065566200E+04  0.11065566200E+04  0.00000000000E+00 0. -1.
         23    2    1    2    0    0  0.10687051176E+04 -0.28837430220E+03  0.37750149151E+03  0.11727244504E+04  0.86515280627E+02 0.  0.
         13    1    3    3    0    0  0.10368129010E+03 -0.54205118542E+01  0.22330005727E+02  0.10619708575E+03  0.00000000000E+00 0. -1.
        -13    1    3    3    0    0  0.96502382753E+03 -0.28295379034E+03  0.35517148578E+03  0.10665273646E+04  0.00000000000E+00 0.  1.
         22    1    1    2    0    0 -0.10687051176E+04  0.28837430220E+03 -0.27686291851E+03  0.11410273626E+04  0.00000000000E+00 0. -1.
<mgrwt>
<rscale>  0 0.23115621E+04</rscale>
<asrwt>0</asrwt>
<pdfrwt beam="1">  1        1 0.17023948E+00 0.23115621E+04</pdfrwt>
<pdfrwt beam="2">  1       -1 0.18572234E+00 0.23115621E+04</pdfrwt>
<totfact> 0.21441735E+00</totfact>
</mgrwt>
</event>
<event>
 6    1  0.1614874E-005  0.1945050E+04  0.7818608E-02  0.8632751E-01
          2   -1    0    0  501    0  0.00000000000E+00  0.00000000000E+00  0.12131614026E+04  0.12131614026E+04  0.00000000000E+00 0.  1.
         -2   -1    0    0    0  501 -0.00000000000E+00 -0.00000000000E+00 -0.77962012460E+03  0.77962012460E+03  0.00000000000E+00 0. -1.
         23    2    1    2    0    0 -0.95218870742E+03 -0.83073973696E+02  0.38911936341E+03  0.10359440665E+04  0.90562742746E+02 0.  0.
         11    1    3    3    0    0 -0.14905726600E+03 -0.38574308564E+02  0.86030159052E+02  0.17637243009E+03  0.00000000000E+00 0.  1.
        -11    1    3    3    0    0 -0.80313144142E+03 -0.44499665133E+02  0.30308920436E+03  0.85957163645E+03  0.00000000000E+00 0. -1.
         22    1    1    2    0    0  0.95218870742E+03  0.83073973696E+02  0.44421914606E+02  0.95683746067E+03  0.00000000000E+00 0. -1.
<mgrwt>
<rscale>  0 0.19450502E+04</rscale>
<asrwt>0</asrwt>
<pdfrwt beam="1">  1        2 0.18664022E+00 0.19450502E+04</pdfrwt>
<pdfrwt beam="2">  1       -2 0.11994156E+00 0.19450502E+04</pdfrwt>
<totfact> 0.92298996E+00</totfact>
</mgrwt>
</event>
<event>
 6    1  0.1614874E-005  0.8102341E+03  0.7818608E-02  0.9545321E-01
         -2   -1    0    0    0  501 -0.00000000000E+00  0.00000000000E+00  0.72133428589E+02  0.72133428589E+02  0.00000000000E+00 0.  1.
          2   -1    0    0  501    0  0.00000000000E+00 -0.00000000000E+00 -0.22752253715E+04  0.22752253715E+04  0.00000000000E+00 0. -1.
         23    2    1    2    0    0  0.64224523301E+02  0.11172946052E+03 -0.22125837214E+04  0.22181366828E+04  0.89416762952E+02 0.  0.
         11    1    3    3    0    0  0.53765694036E+02  0.44058475706E+02 -0.16401033677E+04  0.16415757539E+04  0.00000000000E+00 0.  1.
        -11    1    3    3    0    0  0.10458829265E+02  0.67670984814E+02 -0.57248035374E+03  0.57656092888E+03  0.00000000000E+00 0. -1.
         22    1    1    2    0    0 -0.64224523301E+02 -0.11172946052E+03  0.94917785051E+01  0.12922211730E+03  0.00000000000E+00 0.  1.
<mgrwt>
<rscale>  0 0.81023406E+03</rscale>
<asrwt>0</asrwt>
<pdfrwt beam="1">  1        2 0.35003465E+00 0.81023406E+03</pdfrwt>
<pdfrwt beam="2">  1       -2 0.11097451E-01 0.81023406E+03</pdfrwt>
<totfact> 0.27808561E+02</totfact>
</mgrwt>
</event>
<event>
 6    1  0.1614874E-005  0.2029612E+04  0.7818608E-02  0.8592900E-01
          1   -1    0    0  501    0  0.00000000000E+00  0.00000000000E+00  0.11598202528E+04  0.11598202528E+04  0.00000000000E+00 0. -1.
         -1   -1    0    0    0  501 -0.00000000000E+00 -0.00000000000E+00 -0.88792300082E+03  0.88792300082E+03  0.00000000000E+00 0.  1.
         23    2    1    2    0    0 -0.67596218068E+03  0.75411657822E+03  0.11298933164E+03  0.10226245237E+04  0.85893213801E+02 0.  0.
         13    1    3    3    0    0 -0.15824359475E+03  0.13393807474E+03  0.33131175227E+01  0.20734372403E+03  0.00000000000E+00 0.  1.
        -13    1    3    3    0    0 -0.51771858592E+03  0.62017850348E+03  0.10967621412E+03  0.81528079968E+03  0.00000000000E+00 0. -1.
         22    1    1    2    0    0  0.67596218068E+03 -0.75411657822E+03  0.15890792034E+03  0.10251187299E+04  0.00000000000E+00 0. -1.
<mgrwt>
<rscale>  0 0.20296119E+04</rscale>
<asrwt>0</asrwt>
<pdfrwt beam="1">  1        1 0.17843389E+00 0.20296119E+04</pdfrwt>
<pdfrwt beam="2">  1       -1 0.13660354E+00 0.20296119E+04</pdfrwt>
<totfact> 0.47300765E+00</totfact>
</mgrwt>
</event>
<event>
 6    1  0.1614874E-005  0.2812036E+04  0.7818608E-02  0.8299541E-01
          2   -1    0    0  501    0  0.00000000000E+00  0.00000000000E+00  0.21670097378E+04  0.21670097378E+04  0.00000000000E+00 0. -1.
         -2   -1    0    0    0  501 -0.00000000000E+00 -0.00000000000E+00 -0.91226496341E+03  0.91226496341E+03  0.00000000000E+00 0.  1.
         23    2    1    2    0    0  0.10677202739E+03  0.47275228206E+03  0.20715734623E+04  0.21294830969E+04  0.91578733216E+02 0.  0.
         11    1    3    3    0    0 -0.99568638876E+01  0.33116387478E+02  0.22888352497E+03  0.23148110563E+03  0.00000000000E+00 0.  1.
        -11    1    3    3    0    0  0.11672889128E+03  0.43963589458E+03  0.18426899373E+04  0.18980019913E+04  0.00000000000E+00 0. -1.
         22    1    1    2    0    0 -0.10677202739E+03 -0.47275228206E+03 -0.81682868795E+03  0.94979160424E+03  0.00000000000E+00 0.  1.
<mgrwt>
<rscale>  0 0.28120363E+04</rscale>
<asrwt>0</asrwt>
<pdfrwt beam="1">  1        2 0.33338611E+00 0.28120363E+04</pdfrwt>
<pdfrwt beam="2">  1       -2 0.14034846E+00 0.28120363E+04</pdfrwt>
<totfact> 0.16717051E+00</totfact>
</mgrwt>
</event>
<event>
 6    1  0.1614874E-005  0.2975305E+04  0.7818608E-02  0.8250818E-01
          2   -1    0    0  501    0  0.00000000000E+00  0.00000000000E+00  0.27960782776E+04  0.27960782776E+04  0.00000000000E+00 0. -1.
         -2   -1    0    0    0  501 -0.00000000000E+00 -0.00000000000E+00 -0.79150512024E+03  0.79150512024E+03  0.00000000000E+00 0.  1.
         23    2    1    2    0    0 -0.22164055198E+03  0.12102237523E+04 -0.16718795343E+01  0.12341210096E+04  0.96362888289E+02 0.  0.
         13    1    3    3    0    0 -0.15025153606E+03  0.86444507095E+03 -0.44078520070E+02  0.87851222001E+03  0.00000000000E+00 0.  1.
        -13    1    3    3    0    0 -0.71389015920E+02  0.34577868133E+03  0.42406640536E+02  0.35560878957E+03  0.00000000000E+00 0. -1.
         22    1    1    2    0    0  0.22164055198E+03 -0.12102237523E+04  0.20062450369E+04  0.23534623883E+04  0.00000000000E+00 0. -1.
<mgrwt>
<rscale>  0 0.29753052E+04</rscale>
<asrwt>0</asrwt>
<pdfrwt beam="1">  1        2 0.43016589E+00 0.29753052E+04</pdfrwt>
<pdfrwt beam="2">  1       -2 0.12177002E+00 0.29753052E+04</pdfrwt>
<totfact> 0.10206065E+00</totfact>
</mgrwt>
</event>
<event>
 6    1  0.1614874E-005  0.2048581E+04  0.7818608E-02  0.8584238E-01
         -2   -1    0    0    0  501 -0.00000000000E+00  0.00000000000E+00  0.87966056422E+03  0.87966056422E+03  0.00000000000E+00 0.  1.
          2   -1    0    0  501    0  0.00000000000E+00 -0.00000000000E+00 -0.11927004314E+04  0.11927004314E+04  0.00000000000E+00 0. -1.
         23    2    1    2    0    0 -0.74468483513E+03  0.60800705719E+02  0.54899414313E+03  0.93159157790E+03  0.90642536017E+02 0.  0.
         11    1    3    3    0    0 -0.16220239891E+03  0.50240341196E+02  0.11381157014E+03  0.20441815867E+03  0.00000000000E+00 0. -1.
        -11    1    3    3    0    0 -0.58248243622E+03  0.10560364523E+02  0.43518257299E+03  0.72717341923E+03  0.00000000000E+00 0.  1.
         22    1    1    2    0    0  0.74468483513E+03 -0.60800705719E+02 -0.86203401033E+03  0.11407694177E+04  0.00000000000E+00 0. -1.
<mgrwt>
<rscale>  0 0.20485815E+04</rscale>
<asrwt>0</asrwt>
<pdfrwt beam="1">  1        2 0.18349237E+00 0.20485815E+04</pdfrwt>
<pdfrwt beam="2">  1       -2 0.13533240E+00 0.20485815E+04</pdfrwt>
<totfact> 0.69420802E+00</totfact>
</mgrwt>
</event>
<event>
 6    1  0.1614874E-005  0.2812562E+03  0.7818608E-02  0.1095005E+00
          2   -1    0    0  501    0  0.00000000000E+00  0.00000000000E+00  0.61299804955E+03  0.61299804955E+03  0.00000000000E+00 0. -1.
         -2   -1    0    0    0  501 -0.00000000000E+00 -0.00000000000E+00 -0.32261537566E+02  0.32261537566E+02  0.00000000000E+00 0.  1.
         23    2    1    2    0    0  0.75615755194E+02  0.72061243899E+02  0.13902887619E+03  0.19136951141E+03  0.79891777904E+02 0.  0.
         13    1    3    3    0    0 -0.98863038091E+01  0.33904932867E+02  0.22457818517E+02  0.41852563700E+02  0.00000000000E+00 0.  1.
        -13    1    3    3    0    0  0.85502059004E+02  0.38156311032E+02  0.11657105768E+03  0.14951694771E+03  0.00000000000E+00 0. -1.
         22    1    1    2    0    0 -0.75615755194E+02 -0.72061243899E+02  0.44170763579E+03  0.45389007570E+03  0.00000000000E+00 0. -1.
<mgrwt>
<rscale>  0 0.28125618E+03</rscale>
<asrwt>0</asrwt>
<pdfrwt beam="1">  1        2 0.94307383E-01 0.28125618E+03</pdfrwt>
<pdfrwt beam="2">  1       -2 0.49633140E-02 0.28125618E+03</pdfrwt>
<totfact> 0.97082199E+03</totfact>
</mgrwt>
</event>
<event>
 6    1  0.1614874E-005  0.3053942E+04  0.7818608E-02  0.8228493E-01
          2   -1    0    0  501    0  0.00000000000E+00  0.00000000000E+00  0.19115562979E+04  0.19115562979E+04  0.00000000000E+00 0. -1.
         -2   -1    0    0    0  501 -0.00000000000E+00 -0.00000000000E+00 -0.12197600398E+04  0.12197600398E+04  0.00000000000E+00 0.  1.
         23    2    1    2    0    0 -0.12163965152E+04  0.24812816227E+03  0.12558286491E+04  0.17677472689E+04  0.81466211228E+02 0.  0.
         11    1    3    3    0    0 -0.83780499985E+03  0.18870962629E+03  0.82015055115E+03  0.11875080915E+04  0.00000000000E+00 0.  1.
        -11    1    3    3    0    0 -0.37859151537E+03  0.59418535986E+02  0.43567809798E+03  0.58023917740E+03  0.00000000000E+00 0. -1.
         22    1    1    2    0    0  0.12163965152E+04 -0.24812816227E+03 -0.56403239104E+03  0.13635690688E+04  0.00000000000E+00 0.  1.
<mgrwt>
<rscale>  0 0.30539417E+04</rscale>
<asrwt>0</asrwt>
<pdfrwt beam="1">  1        2 0.29408558E+00 0.30539417E+04</pdfrwt>
<pdfrwt beam="2">  1       -2 0.18765539E+00 0.30539417E+04</pdfrwt>
<totfact> 0.10250808E+00</totfact>
</mgrwt>
</event>
<event>
 6    1  0.1614874E-005  0.2704005E+04  0.7818608E-02  0.8333707E-01
          2   -1    0    0  501    0  0.00000000000E+00  0.00000000000E+00  0.10280634551E+04  0.10280634551E+04  0.00000000000E+00 0.  1.
         -2   -1    0    0    0  501 -0.00000000000E+00 -0.00000000000E+00 -0.17780129797E+04  0.17780129797E+04  0.00000000000E+00 0. -1.
         23    2    1    2    0    0  0.78080695093E+03 -0.47053562485E+03  0.65856942690E+03  0.11282835675E+04  0.90812167180E+02 0.  0.
         11    1    3    3    0    0  0.46708226959E+03 -0.23290911680E+03  0.39638309717E+03  0.65538695668E+03  0.00000000000E+00 0. -1.
        -11    1    3    3    0    0  0.31372468134E+03 -0.23762650804E+03  0.26218632973E+03  0.47289661080E+03  0.00000000000E+00 0.  1.
         22    1    1    2    0    0 -0.78080695093E+03  0.47053562485E+03 -0.14085189515E+04  0.16777928673E+04  0.00000000000E+00 0. -1.
<mgrwt>
<rscale>  0 0.27040046E+04</rscale>
<asrwt>0</asrwt>
<pdfrwt beam="1">  1        2 0.15816361E+00 0.27040046E+04</pdfrwt>
<pdfrwt beam="2">  1       -2 0.27354046E+00 0.27040046E+04</pdfrwt>
<totfact> 0.97738913E-01</totfact>
</mgrwt>
</event>
<event>
 6    1  0.1614874E-005  0.2225701E+04  0.7818608E-02  0.8507806E-01
          1   -1    0    0  501    0  0.00000000000E+00  0.00000000000E+00  0.14126384641E+04  0.14126384641E+04  0.00000000000E+00 0. -1.
         -1   -1    0    0    0  501 -0.00000000000E+00 -0.00000000000E+00 -0.87668323153E+03  0.87668323153E+03  0.00000000000E+00 0.  1.
         23    2    1    2    0    0 -0.97943260823E+03  0.36523833571E+03 -0.11939057203E+03  0.10555610221E+04  0.85250728664E+02 0.  0.
         11    1    3    3    0    0 -0.79285882300E+03  0.33060645202E+03 -0.97361545054E+02  0.86452588728E+03  0.00000000000E+00 0. -1.
        -11    1    3    3    0    0 -0.18657378524E+03  0.34631883693E+02 -0.22029026972E+02  0.19103513482E+03  0.00000000000E+00 0.  1.
         22    1    1    2    0    0  0.97943260823E+03 -0.36523833571E+03  0.65534580457E+03  0.12337606735E+04  0.00000000000E+00 0. -1.
<mgrwt>
<rscale>  0 0.22257012E+04</rscale>
<asrwt>0</asrwt>
<pdfrwt beam="1">  1        1 0.21732899E+00 0.22257012E+04</pdfrwt>
<pdfrwt beam="2">  1       -1 0.13487434E+00 0.22257012E+04</pdfrwt>
<totfact> 0.31619530E+00</totfact>
</mgrwt>
</event>
<event>
 6    1  0.1759553E-005  0.2727259E+04  0.7818608E-02  0.8326214E-01
          1   -1    0    0  501    0  0.00000000000E+00  0.00000000000E+00  0.16146136341E+04  0.16146136341E+04  0.00000000000E+00 0. -1.
         -1   -1    0    0    0  501 -0.00000000000E+00 -0.00000000000E+00 -0.11516595522E+04  0.11516595522E+04  0.00000000000E+00 0.  1.
         23    2    1    2    0    0 -0.65473735383E+03 -0.69065776020E+03 -0.75674083319E+03  0.12192292858E+04  0.90411384379E+02 0.  0.
         11    1    3    3    0    0 -0.14751854251E+03 -0.10985243099E+03 -0.16737941716E+03  0.24868684378E+03  0.00000000000E+00 0. -1.
        -11    1    3    3    0    0 -0.50721881132E+03 -0.58080532921E+03 -0.58936141603E+03  0.97054244199E+03  0.00000000000E+00 0.  1.
         22    1    1    2    0    0  0.65473735383E+03  0.69065776020E+03  0.12196949151E+04  0.15470439005E+04  0.00000000000E+00 0. -1.
<mgrwt>
<rscale>  0 0.27272589E+04</rscale>
<asrwt>0</asrwt>
<pdfrwt beam="1">  1        1 0.24840210E+00 0.27272589E+04</pdfrwt>
<pdfrwt beam="2">  1       -1 0.17717839E+00 0.27272589E+04</pdfrwt>
<totfact> 0.10359954E+00</totfact>
</mgrwt>
</event>
<event>
 6    1  0.1614874E-005  0.5812829E+03  0.7818608E-02  0.9945017E-01
         -2   -1    0    0    0  501 -0.00000000000E+00  0.00000000000E+00  0.60579067212E+02  0.60579067212E+02  0.00000000000E+00 0.  1.
          2   -1    0    0  501    0  0.00000000000E+00 -0.00000000000E+00 -0.13944164451E+04  0.13944164451E+04  0.00000000000E+00 0. -1.
         23    2    1    2    0    0  0.15168690990E+03  0.60569434512E+02 -0.12633342401E+04  0.12770959129E+04  0.91010952815E+02 0.  0.
         11    1    3    3    0    0  0.96964718640E+02  0.82822726434E+02 -0.82447069902E+03  0.83427435188E+03  0.00000000000E+00 0. -1.
        -11    1    3    3    0    0  0.54722191259E+02 -0.22253291923E+02 -0.43886354109E+03  0.44282156103E+03  0.00000000000E+00 0.  1.
         22    1    1    2    0    0 -0.15168690990E+03 -0.60569434512E+02 -0.70503137798E+02  0.17789959941E+03  0.00000000000E+00 0.  1.
<mgrwt>
<rscale>  0 0.58128288E+03</rscale>
<asrwt>0</asrwt>
<pdfrwt beam="1">  1        2 0.21452563E+00 0.58128288E+03</pdfrwt>
<pdfrwt beam="2">  1       -2 0.93198557E-02 0.58128288E+03</pdfrwt>
<totfact> 0.11402599E+03</totfact>
</mgrwt>
</event>
<event>
 6    1  0.1614874E-005  0.1762365E+04  0.7818608E-02  0.8726573E-01
         -2   -1    0    0    0  501 -0.00000000000E+00  0.00000000000E+00  0.13466543579E+04  0.13466543579E+04  0.00000000000E+00 0.  1.
          2   -1    0    0  501    0  0.00000000000E+00 -0.00000000000E+00 -0.57660112045E+03  0.57660112045E+03  0.00000000000E+00 0. -1.
         23    2    1    2    0    0  0.63426280210E+03  0.33152318631E+03  0.94259611509E+03  0.11870707395E+04  0.91937909576E+02 0.  0.
         11    1    3    3    0    0  0.36845154497E+03  0.24096929640E+03  0.59680498521E+03  0.74161912945E+03  0.00000000000E+00 0. -1.
        -11    1    3    3    0    0  0.26581125712E+03  0.90553889906E+02  0.34579112988E+03  0.44545161005E+03  0.00000000000E+00 0.  1.
         22    1    1    2    0    0 -0.63426280210E+03 -0.33152318631E+03 -0.17254287759E+03  0.73618473890E+03  0.00000000000E+00 0.  1.
<mgrwt>
<rscale>  0 0.17623648E+04</rscale>
<asrwt>0</asrwt>
<pdfrwt beam="1">  1        2 0.88707865E-01 0.17623648E+04</pdfrwt>
<pdfrwt beam="2">  1       -2 0.20717759E+00 0.17623648E+04</pdfrwt>
<totfact> 0.58787096E+00</totfact>
</mgrwt>
</event>
<event>
 6    1  0.1614874E-005  0.1769335E+04  0.7818608E-02  0.8722779E-01
         -2   -1    0    0    0  501 -0.00000000000E+00  0.00000000000E+00  0.18932576226E+03  0.18932576226E+03  0.00000000000E+00 0.  1.
          2   -1    0    0  501    0  0.00000000000E+00 -0.00000000000E+00 -0.41338114534E+04  0.41338114534E+04  0.00000000000E+00 0. -1.
         23    2    1    2    0    0  0.99933653495E+02 -0.61590167806E+03 -0.45201850852E+03  0.77537050493E+03  0.86931442755E+02 0.  0.
         13    1    3    3    0    0  0.66504702957E+02 -0.17890371918E+03 -0.11892515183E+03  0.22488354317E+03  0.00000000000E+00 0.  1.
        -13    1    3    3    0    0  0.33428950539E+02 -0.43699795887E+03 -0.33309335669E+03  0.55048696176E+03  0.00000000000E+00 0. -1.
         22    1    1    2    0    0 -0.99933653495E+02  0.61590167806E+03 -0.34924671826E+04  0.35477667108E+04  0.00000000000E+00 0. -1.
<mgrwt>
<rscale>  0 0.17693355E+04</rscale>
<asrwt>0</asrwt>
<pdfrwt beam="1">  1        2 0.63597093E+00 0.17693355E+04</pdfrwt>
<pdfrwt beam="2">  1       -2 0.29127043E-01 0.17693355E+04</pdfrwt>
<totfact> 0.27653829E+00</totfact>
</mgrwt>
</event>
<event>
 6    1  0.1614874E-005  0.1933999E+04  0.7818608E-02  0.8638115E-01
          2   -1    0    0  501    0  0.00000000000E+00  0.00000000000E+00  0.28114733734E+04  0.28114733734E+04  0.00000000000E+00 0. -1.
         -2   -1    0    0    0  501 -0.00000000000E+00 -0.00000000000E+00 -0.33259730534E+03  0.33259730534E+03  0.00000000000E+00 0.  1.
         23    2    1    2    0    0  0.12840260807E+03  0.79375964859E+03  0.21091154942E+04  0.22590483674E+04  0.91595573532E+02 0.  0.
         11    1    3    3    0    0  0.54379079295E+02  0.12420537080E+03  0.36347794464E+03  0.38794364879E+03  0.00000000000E+00 0. -1.
        -11    1    3    3    0    0  0.74023528778E+02  0.66955427779E+03  0.17456375495E+04  0.18711047186E+04  0.00000000000E+00 0.  1.
         22    1    1    2    0    0 -0.12840260807E+03 -0.79375964859E+03  0.36976057386E+03  0.88502231129E+03  0.00000000000E+00 0.  1.
<mgrwt>
<rscale>  0 0.19339994E+04</rscale>
<asrwt>0</asrwt>
<pdfrwt beam="1">  1        2 0.43253435E+00 0.19339994E+04</pdfrwt>
<pdfrwt beam="2">  1       -2 0.51168818E-01 0.19339994E+04</pdfrwt>
<totfact> 0.76861699E+00</totfact>
</mgrwt>
</event>
<event>
 6    1  0.1614874E-005  0.2179492E+04  0.7818608E-02  0.8527013E-01
          2   -1    0    0  501    0  0.00000000000E+00  0.00000000000E+00  0.45667084868E+04  0.45667084868E+04  0.00000000000E+00 0.  1.
         -2   -1    0    0    0  501 -0.00000000000E+00 -0.00000000000E+00 -0.26004417565E+03  0.26004417565E+03  0.00000000000E+00 0. -1.
         23    2    1    2    0    0 -0.62894735191E+03 -0.51781924980E+03  0.37527219926E+04  0.38415807794E+04  0.10539916399E+03 0.  0.
         11    1    3    3    0    0 -0.14104354408E+03 -0.12328310972E+03  0.10856801895E+04  0.11017229598E+04  0.00000000000E+00 0. -1.
        -11    1    3    3    0    0 -0.48790380783E+03 -0.39453614008E+03  0.26670418032E+04  0.27398578196E+04  0.00000000000E+00 0.  1.
         22    1    1    2    0    0  0.62894735191E+03  0.51781924980E+03  0.55394231855E+03  0.98517188309E+03  0.00000000000E+00 0. -1.
<mgrwt>
<rscale>  0 0.21794916E+04</rscale>
<asrwt>0</asrwt>
<pdfrwt beam="1">  1        2 0.70257048E+00 0.21794916E+04</pdfrwt>
<pdfrwt beam="2">  1       -2 0.40006799E-01 0.21794916E+04</pdfrwt>
<totfact> 0.57928348E-01</totfact>
</mgrwt>
</event>
<event>
 6    1  0.1614874E-005  0.5213065E+03  0.7818608E-02  0.1008363E+00
          1   -1    0    0  501    0  0.00000000000E+00  0.00000000000E+00  0.95748915315E+03  0.95748915315E+03  0.00000000000E+00 0. -1.
         -1   -1    0    0    0  501 -0.00000000000E+00 -0.00000000000E+00 -0.70956539860E+02  0.70956539860E+02  0.00000000000E+00 0.  1.
         23    2    1    2    0    0  0.81060056377E+01 -0.15493460736E+03  0.85018874881E+03  0.86909916380E+03  0.91880400678E+02 0.  0.
         13    1    3    3    0    0 -0.15969332013E+02 -0.15507465747E+03  0.75351754518E+03  0.76947505473E+03  0.00000000000E+00 0.  1.
        -13    1    3    3    0    0  0.24075337651E+02  0.14005010987E+00  0.96671203626E+02  0.99624109068E+02  0.00000000000E+00 0. -1.
         22    1    1    2    0    0 -0.81060056377E+01  0.15493460736E+03  0.36343864479E+02  0.15934652921E+03  0.00000000000E+00 0.  1.
<mgrwt>
<rscale>  0 0.52130650E+03</rscale>
<asrwt>0</asrwt>
<pdfrwt beam="1">  1        1 0.14730601E+00 0.52130650E+03</pdfrwt>
<pdfrwt beam="2">  1       -1 0.10916391E-01 0.52130650E+03</pdfrwt>
<totfact> 0.90947228E+02</totfact>
</mgrwt>
</event>
<event>
 6    1  0.1614874E-005  0.1357903E+04  0.7818608E-02  0.8984867E-01
         -2   -1    0    0    0  501 -0.00000000000E+00  0.00000000000E+00  0.15696372496E+03  0.15696372496E+03  0.00000000000E+00 0.  1.
          2   -1    0    0  501    0  0.00000000000E+00 -0.00000000000E+00 -0.29368271910E+04  0.29368271910E+04  0.00000000000E+00 0. -1.
         23    2    1    2    0    0 -0.60472580199E+03  0.27199409043E+03 -0.10953619775E+04  0.12834817308E+04  0.88506558153E+02 0.  0.
         13    1    3    3    0    0 -0.30467448182E+03  0.14022649227E+03 -0.46920227086E+03  0.57675018854E+03  0.00000000000E+00 0.  1.
        -13    1    3    3    0    0 -0.30005132017E+03  0.13176759816E+03 -0.62615970664E+03  0.70673154230E+03  0.00000000000E+00 0. -1.
         22    1    1    2    0    0  0.60472580199E+03 -0.27199409043E+03 -0.16845014885E+04  0.18103091851E+04  0.00000000000E+00 0. -1.
<mgrwt>
<rscale>  0 0.13579033E+04</rscale>
<asrwt>0</asrwt>
<pdfrwt beam="1">  1        2 0.45181956E+00 0.13579033E+04</pdfrwt>
<pdfrwt beam="2">  1       -2 0.24148266E-01 0.13579033E+04</pdfrwt>
<totfact> 0.28691984E+01</totfact>
</mgrwt>
</event>
<event>
 6    1  0.1614874E-005  0.8829078E+03  0.7818608E-02  0.9447203E-01
         -1   -1    0    0    0  501 -0.00000000000E+00  0.00000000000E+00  0.16411977239E+03  0.16411977239E+03  0.00000000000E+00 0.  1.
          1   -1    0    0  501    0  0.00000000000E+00 -0.00000000000E+00 -0.11874348307E+04  0.11874348307E+04  0.00000000000E+00 0. -1.
         23    2    1    2    0    0  0.55549190090E+02  0.23138137456E+03  0.43463560158E+02  0.25855886942E+03  0.91326638387E+02 0.  0.
         11    1    3    3    0    0 -0.22282316760E+02  0.34769731954E+02 -0.50615558020E+01  0.41605952068E+02  0.00000000000E+00 0. -1.
        -11    1    3    3    0    0  0.77831506850E+02  0.19661164261E+03  0.48525115960E+02  0.21695291735E+03  0.00000000000E+00 0.  1.
         22    1    1    2    0    0 -0.55549190090E+02 -0.23138137456E+03 -0.10667786184E+04  0.10929957337E+04  0.00000000000E+00 0. -1.
<mgrwt>
<rscale>  0 0.88290777E+03</rscale>
<asrwt>0</asrwt>
<pdfrwt beam="1">  1        1 0.18268228E+00 0.88290777E+03</pdfrwt>
<pdfrwt beam="2">  1       -1 0.25249196E-01 0.88290777E+03</pdfrwt>
<totfact> 0.15140574E+02</totfact>
</mgrwt>
</event>
<event>
 6    1  0.1614874E-005  0.2309770E+04  0.7818608E-02  0.8474079E-01
         -2   -1    0    0    0  501 -0.00000000000E+00  0.00000000000E+00  0.80633201785E+03  0.80633201785E+03  0.00000000000E+00 0.  1.
          2   -1    0    0  501    0  0.00000000000E+00 -0.00000000000E+00 -0.16541067849E+04  0.16541067849E+04  0.00000000000E+00 0. -1.
         23    2    1    2    0    0  0.65808284726E+02 -0.10901795505E+04 -0.30658579484E+02  0.10964369528E+04  0.91716194730E+02 0.  0.
         13    1    3    3    0    0  0.47078683790E+02 -0.53037878710E+03 -0.58268551150E+02  0.53564287013E+03  0.00000000000E+00 0. -1.
        -13    1    3    3    0    0  0.18729600936E+02 -0.55980076339E+03  0.27609971666E+02  0.56079408269E+03  0.00000000000E+00 0.  1.
         22    1    1    2    0    0 -0.65808284726E+02  0.10901795505E+04 -0.81711618758E+03  0.13640018499E+04  0.00000000000E+00 0.  1.
<mgrwt>
<rscale>  0 0.23097699E+04</rscale>
<asrwt>0</asrwt>
<pdfrwt beam="1">  1        2 0.25447797E+00 0.23097699E+04</pdfrwt>
<pdfrwt beam="2">  1       -2 0.12405108E+00 0.23097699E+04</pdfrwt>
<totfact> 0.46059814E+00</totfact>
</mgrwt>
</event>
<event>
 6    1  0.1614874E-005  0.3120596E+04  0.7818608E-02  0.8210108E-01
          1   -1    0    0  501    0  0.00000000000E+00  0.00000000000E+00  0.15622841611E+04  0.15622841611E+04  0.00000000000E+00 0. -1.
         -1   -1    0    0    0  501 -0.00000000000E+00 -0.00000000000E+00 -0.15583146390E+04  0.15583146390E+04  0.00000000000E+00 0.  1.
         23    2    1    2    0    0  0.67570199196E+03 -0.31760853994E+03  0.13705815124E+04  0.15633330236E+04  0.89822569213E+02 0.  0.
         11    1    3    3    0    0  0.32050460641E+03 -0.10607798427E+03  0.65623529398E+03  0.73798408014E+03  0.00000000000E+00 0. -1.
        -11    1    3    3    0    0  0.35519738556E+03 -0.21153055568E+03  0.71434621838E+03  0.82534894342E+03  0.00000000000E+00 0.  1.
         22    1    1    2    0    0 -0.67570199196E+03  0.31760853994E+03 -0.13666119903E+04  0.15572657765E+04  0.00000000000E+00 0.  1.
<mgrwt>
<rscale>  0 0.31205963E+04</rscale>
<asrwt>0</asrwt>
<pdfrwt beam="1">  1        1 0.24035141E+00 0.31205963E+04</pdfrwt>
<pdfrwt beam="2">  1       -1 0.23974071E+00 0.31205963E+04</pdfrwt>
<totfact> 0.40615536E-01</totfact>
</mgrwt>
</event>
<event>
 6    1  0.1614874E-005  0.2049969E+04  0.7818608E-02  0.8583609E-01
         -1   -1    0    0    0  501 -0.00000000000E+00  0.00000000000E+00  0.25474786575E+03  0.25474786575E+03  0.00000000000E+00 0.  1.
          1   -1    0    0  501    0  0.00000000000E+00 -0.00000000000E+00 -0.41240496999E+04  0.41240496999E+04  0.00000000000E+00 0. -1.
         23    2    1    2    0    0  0.26155240657E+03  0.81495880868E+03 -0.31351734100E+04  0.32511841282E+04  0.91205281025E+02 0.  0.
         11    1    3    3    0    0  0.21640055833E+03  0.59278481964E+03 -0.21820421209E+04  0.22714600726E+04  0.00000000000E+00 0.  1.
        -11    1    3    3    0    0  0.45151848237E+02  0.22217398904E+03 -0.95313128905E+03  0.97972405553E+03  0.00000000000E+00 0. -1.
         22    1    1    2    0    0 -0.26155240657E+03 -0.81495880868E+03 -0.73412842414E+03  0.11276134375E+04  0.00000000000E+00 0.  1.
<mgrwt>
<rscale>  0 0.20499686E+04</rscale>
<asrwt>0</asrwt>
<pdfrwt beam="1">  1        1 0.63446916E+00 0.20499686E+04</pdfrwt>
<pdfrwt beam="2">  1       -1 0.39191981E-01 0.20499686E+04</pdfrwt>
<totfact> 0.43767898E-01</totfact>
</mgrwt>
</event>
<event>
 6    1  0.1614874E-005  0.1004747E+04  0.7818608E-02  0.9303354E-01
          2   -1    0    0  501    0  0.00000000000E+00  0.00000000000E+00  0.74846616985E+03  0.74846616985E+03  0.00000000000E+00 0. -1.
         -2   -1    0    0    0  501 -0.00000000000E+00 -0.00000000000E+00 -0.33719480654E+03  0.33719480654E+03  0.00000000000E+00 0.  1.
         23    2    1    2    0    0  0.44892214245E+03  0.21420034222E+03  0.22733756725E+03  0.55533605908E+03  0.96451503057E+02 0.  0.
         13    1    3    3    0    0  0.86286854637E+02  0.14939288795E+02  0.71982109480E+02  0.11335796275E+03  0.00000000000E+00 0. -1.
        -13    1    3    3    0    0  0.36263528781E+03  0.19926105343E+03  0.15535545777E+03  0.44197809633E+03  0.00000000000E+00 0.  1.
         22    1    1    2    0    0 -0.44892214245E+03 -0.21420034222E+03  0.18393379606E+03  0.53032491731E+03  0.00000000000E+00 0. -1.
<mgrwt>
<rscale>  0 0.10047465E+04</rscale>
<asrwt>0</asrwt>
<pdfrwt beam="1">  1        2 0.11514864E+00 0.10047465E+04</pdfrwt>
<pdfrwt beam="2">  1       -2 0.51876124E-01 0.10047465E+04</pdfrwt>
<totfact> 0.13171040E+02</totfact>
</mgrwt>
</event>
<event>
 6    1  0.1614874E-005  0.3150856E+04  0.7818608E-02  0.8201918E-01
          1   -1    0    0  501    0  0.00000000000E+00  0.00000000000E+00  0.21066248385E+04  0.21066248385E+04  0.00000000000E+00 0. -1.
         -1   -1    0    0    0  501 -0.00000000000E+00 -0.00000000000E+00 -0.11781756198E+04  0.11781756198E+04  0.00000000000E+00 0.  1.
         23    2    1    2    0    0  0.56230576309E+03 -0.50766304550E+03  0.19032570594E+04  0.20502317623E+04  0.84577218475E+02 0.  0.
         11    1    3    3    0    0  0.56080785240E+02 -0.32126481447E+02  0.22039011947E+03  0.22967143933E+03  0.00000000000E+00 0.  1.
        -11    1    3    3    0    0  0.50622497785E+03 -0.47553656405E+03  0.16828669400E+04  0.18205603230E+04  0.00000000000E+00 0. -1.
         22    1    1    2    0    0 -0.56230576309E+03  0.50766304550E+03 -0.97480784064E+03  0.12345686960E+04  0.00000000000E+00 0.  1.
<mgrwt>
<rscale>  0 0.31508564E+04</rscale>
<asrwt>0</asrwt>
<pdfrwt beam="1">  1        1 0.32409613E+00 0.31508564E+04</pdfrwt>
<pdfrwt beam="2">  1       -1 0.18125779E+00 0.31508564E+04</pdfrwt>
<totfact> 0.43190594E-01</totfact>
</mgrwt>
</event>
<event>
 6    1  0.1614874E-005  0.1305997E+04  0.7818608E-02  0.9024823E-01
         -2   -1    0    0    0  501 -0.00000000000E+00  0.00000000000E+00  0.18425838961E+04  0.18425838961E+04  0.00000000000E+00 0. -1.
          2   -1    0    0  501    0  0.00000000000E+00 -0.00000000000E+00 -0.23141788447E+03  0.23141788447E+03  0.00000000000E+00 0.  1.
         23    2    1    2    0    0  0.31741288362E+03 -0.20097678010E+03  0.16512302292E+04  0.16961820532E+04  0.96590284818E+02 0.  0.
         13    1    3    3    0    0  0.20604406983E+03 -0.10747287499E+03  0.81851139344E+03  0.85086160964E+03  0.00000000000E+00 0.  1.
        -13    1    3    3    0    0  0.11136881379E+03 -0.93503905111E+02  0.83271883574E+03  0.84532044359E+03  0.00000000000E+00 0. -1.
         22    1    1    2    0    0 -0.31741288362E+03  0.20097678010E+03 -0.40064217554E+02  0.37781972733E+03  0.00000000000E+00 0.  1.
<mgrwt>
<rscale>  0 0.13059967E+04</rscale>
<asrwt>0</asrwt>
<pdfrwt beam="1">  1        2 0.35602753E-01 0.13059967E+04</pdfrwt>
<pdfrwt beam="2">  1       -2 0.28347444E+00 0.13059967E+04</pdfrwt>
<totfact> 0.57943582E+00</totfact>
</mgrwt>
</event>
<event>
 6    1  0.1614874E-005  0.3559445E+04  0.7818608E-02  0.8099845E-01
          2   -1    0    0  501    0  0.00000000000E+00  0.00000000000E+00  0.11660946544E+04  0.11660946544E+04  0.00000000000E+00 0. -1.
         -2   -1    0    0    0  501 -0.00000000000E+00 -0.00000000000E+00 -0.27162566272E+04  0.27162566272E+04  0.00000000000E+00 0.  1.
         23    2    1    2    0    0 -0.88489595921E+03  0.13978860368E+04 -0.63426965232E+02  0.16580520182E+04  0.89371609741E+02 0.  0.
         13    1    3    3    0    0 -0.16798127213E+03  0.33482924661E+03 -0.18267422030E+02  0.37504937126E+03  0.00000000000E+00 0.  1.
        -13    1    3    3    0    0 -0.71691468708E+03  0.10630567902E+04 -0.45159543202E+02  0.12830026469E+04  0.00000000000E+00 0. -1.
         22    1    1    2    0    0  0.88489595921E+03 -0.13978860368E+04 -0.14867350075E+04  0.22242992634E+04  0.00000000000E+00 0.  1.
<mgrwt>
<rscale>  0 0.35594451E+04</rscale>
<asrwt>0</asrwt>
<pdfrwt beam="1">  1        2 0.17939918E+00 0.35594451E+04</pdfrwt>
<pdfrwt beam="2">  1       -2 0.41788563E+00 0.35594451E+04</pdfrwt>
<totfact> 0.91828977E-02</totfact>
</mgrwt>
</event>
<event>
 6    1  0.1614874E-005  0.2008260E+04  0.7818608E-02  0.8602768E-01
          1   -1    0    0  501    0  0.00000000000E+00  0.00000000000E+00  0.93416079990E+03  0.93416079990E+03  0.00000000000E+00 0. -1.
         -1   -1    0    0    0  501 -0.00000000000E+00 -0.00000000000E+00 -0.10793401577E+04  0.10793401577E+04  0.00000000000E+00 0.  1.
         23    2    1    2    0    0 -0.16720630292E+03 -0.89063229423E+03  0.35591196902E+03  0.97799318405E+03  0.92808981731E+02 0.  0.
         13    1    3    3    0    0 -0.12497276195E+03 -0.57415353783E+03  0.27415913054E+03  0.64840859424E+03  0.00000000000E+00 0.  1.
        -13    1    3    3    0    0 -0.42233540976E+02 -0.31647875640E+03  0.81752838475E+02  0.32958458981E+03  0.00000000000E+00 0. -1.
         22    1    1    2    0    0  0.16720630292E+03  0.89063229423E+03 -0.50109132680E+03  0.10355077735E+04  0.00000000000E+00 0.  1.
<mgrwt>
<rscale>  0 0.20082602E+04</rscale>
<asrwt>0</asrwt>
<pdfrwt beam="1">  1        1 0.14371705E+00 0.20082602E+04</pdfrwt>
<pdfrwt beam="2">  1       -1 0.16605233E+00 0.20082602E+04</pdfrwt>
<totfact> 0.41642061E+00</totfact>
</mgrwt>
</event>
<event>
 6    1  0.1614874E-005  0.1202988E+04  0.7818608E-02  0.9110245E-01
          2   -1    0    0  501    0  0.00000000000E+00  0.00000000000E+00  0.61216951843E+03  0.61216951843E+03  0.00000000000E+00 0. -1.
         -2   -1    0    0    0  501 -0.00000000000E+00 -0.00000000000E+00 -0.59100472809E+03  0.59100472809E+03  0.00000000000E+00 0.  1.
         23    2    1    2    0    0 -0.65639721555E+02 -0.29140378609E+03  0.52943351822E+03  0.61363049128E+03  0.83772250932E+02 0.  0.
         13    1    3    3    0    0 -0.60007632790E+02 -0.20181071460E+03  0.29359429225E+03  0.36128394506E+03  0.00000000000E+00 0.  1.
        -13    1    3    3    0    0 -0.56320887649E+01 -0.89593071495E+02  0.23583922597E+03  0.25234654622E+03  0.00000000000E+00 0. -1.
         22    1    1    2    0    0  0.65639721555E+02  0.29140378609E+03 -0.50826872788E+03  0.58954375523E+03  0.00000000000E+00 0.  1.
<mgrwt>
<rscale>  0 0.12029881E+04</rscale>
<asrwt>0</asrwt>
<pdfrwt beam="1">  1        2 0.94179926E-01 0.12029881E+04</pdfrwt>
<pdfrwt beam="2">  1       -2 0.90923804E-01 0.12029881E+04</pdfrwt>
<totfact> 0.49305303E+01</totfact>
</mgrwt>
</event>
<event>
 6    1  0.1614874E-005  0.2593732E+04  0.7818608E-02  0.8370333E-01
         -1   -1    0    0    0  501 -0.00000000000E+00  0.00000000000E+00  0.74425125855E+03  0.74425125855E+03  0.00000000000E+00 0.  1.
          1   -1    0    0  501    0  0.00000000000E+00 -0.00000000000E+00 -0.22598039536E+04  0.22598039536E+04  0.00000000000E+00 0. -1.
         23    2    1    2    0    0 -0.82005975097E+03  0.75325741742E+03 -0.15250452025E+04  0.18905091467E+04  0.91472576051E+02 0.  0.
         11    1    3    3    0    0 -0.65715017057E+03  0.58983380343E+03 -0.12667491674E+04  0.15441514548E+04  0.00000000000E+00 0. -1.
        -11    1    3    3    0    0 -0.16290958040E+03  0.16342361399E+03 -0.25829603512E+03  0.34635769192E+03  0.00000000000E+00 0.  1.
         22    1    1    2    0    0  0.82005975097E+03 -0.75325741742E+03  0.94925074660E+01  0.11135460654E+04  0.00000000000E+00 0.  1.
<mgrwt>
<rscale>  0 0.25937324E+04</rscale>
<asrwt>0</asrwt>
<pdfrwt beam="1">  1        1 0.34766214E+00 0.25937324E+04</pdfrwt>
<pdfrwt beam="2">  1       -1 0.11450020E+00 0.25937324E+04</pdfrwt>
<totfact> 0.12116626E+00</totfact>
</mgrwt>
</event>
<event>
 6    1  0.1614874E-005  0.2000633E+04  0.7818608E-02  0.8606325E-01
          2   -1    0    0  501    0  0.00000000000E+00  0.00000000000E+00  0.90456923566E+03  0.90456923566E+03  0.00000000000E+00 0. -1.
         -2   -1    0    0    0  501 -0.00000000000E+00 -0.00000000000E+00 -0.11061982631E+04  0.11061982631E+04  0.00000000000E+00 0.  1.
         23    2    1    2    0    0  0.56525604539E+03  0.80278574509E+03  0.79306648921E+02  0.98954068577E+03  0.94455676660E+02 0.  0.
         13    1    3    3    0    0  0.33120721027E+03  0.42992746445E+03  0.84680184459E+02  0.54927823046E+03  0.00000000000E+00 0. -1.
        -13    1    3    3    0    0  0.23404883512E+03  0.37285828065E+03 -0.53735355386E+01  0.44026245531E+03  0.00000000000E+00 0.  1.
         22    1    1    2    0    0 -0.56525604539E+03 -0.80278574509E+03 -0.28093567641E+03  0.10212268130E+04  0.00000000000E+00 0. -1.
<mgrwt>
<rscale>  0 0.20006328E+04</rscale>
<asrwt>0</asrwt>
<pdfrwt beam="1">  1        2 0.13916450E+00 0.20006328E+04</pdfrwt>
<pdfrwt beam="2">  1       -2 0.17018435E+00 0.20006328E+04</pdfrwt>
<totfact> 0.57453310E+00</totfact>
</mgrwt>
</event>
<event>
 6    1  0.1614874E-005  0.1338233E+04  0.7818608E-02  0.8999784E-01
         -2   -1    0    0    0  501 -0.00000000000E+00  0.00000000000E+00  0.29567839962E+03  0.29567839962E+03  0.00000000000E+00 0.  1.
          2   -1    0    0  501    0  0.00000000000E+00 -0.00000000000E+00 -0.15142011727E+04  0.15142011727E+04  0.00000000000E+00 0. -1.
         23    2    1    2    0    0 -0.31574064663E+03 -0.23852041295E+03 -0.13366968002E+04  0.13969034907E+04  0.89425295460E+02 0.  0.
         13    1    3    3    0    0 -0.20063915948E+03 -0.11659324230E+03 -0.65512888272E+03  0.69501360378E+03  0.00000000000E+00 0. -1.
        -13    1    3    3    0    0 -0.11510148715E+03 -0.12192717066E+03 -0.68156791745E+03  0.70188988694E+03  0.00000000000E+00 0.  1.
         22    1    1    2    0    0  0.31574064663E+03  0.23852041295E+03  0.11817402706E+03  0.41297608163E+03  0.00000000000E+00 0.  1.
<mgrwt>
<rscale>  0 0.13382325E+04</rscale>
<asrwt>0</asrwt>
<pdfrwt beam="1">  1        2 0.23295402E+00 0.13382325E+04</pdfrwt>
<pdfrwt beam="2">  1       -2 0.45488985E-01 0.13382325E+04</pdfrwt>
<totfact> 0.55811252E+01</totfact>
</mgrwt>
</event>
<event>
 6    1  0.1614874E-005  0.1613444E+04  0.7818608E-02  0.8812331E-01
          2   -1    0    0  501    0  0.00000000000E+00  0.00000000000E+00  0.41016541539E+03  0.41016541539E+03  0.00000000000E+00 0. -1.
         -2   -1    0    0    0  501 -0.00000000000E+00 -0.00000000000E+00 -0.15866770240E+04  0.15866770240E+04  0.00000000000E+00 0.  1.
         23    2    1    2    0    0 -0.24269585664E+03 -0.57902933090E+03  0.31899790909E+02  0.63506626270E+03  0.90085051445E+02 0.  0.
         13    1    3    3    0    0 -0.38882493687E+02 -0.18931775795E+03 -0.82667782142E+01  0.19344612018E+03  0.00000000000E+00 0.  1.
        -13    1    3    3    0    0 -0.20381336295E+03 -0.38971157295E+03  0.40166569123E+02  0.44162014253E+03  0.00000000000E+00 0. -1.
         22    1    1    2    0    0  0.24269585664E+03  0.57902933090E+03 -0.12084113995E+04  0.13617761766E+04  0.00000000000E+00 0.  1.
<mgrwt>
<rscale>  0 0.16134436E+04</rscale>
<asrwt>0</asrwt>
<pdfrwt beam="1">  1        2 0.63102370E-01 0.16134436E+04</pdfrwt>
<pdfrwt beam="2">  1       -2 0.24410416E+00 0.16134436E+04</pdfrwt>
<totfact> 0.51735119E+00</totfact>
</mgrwt>
</event>
<event>
 6    1  0.1614874E-005  0.1435995E+04  0.7818608E-02  0.8928168E-01
         -1   -1    0    0    0  501 -0.00000000000E+00  0.00000000000E+00  0.49457880323E+03  0.49457880323E+03  0.00000000000E+00 0.  1.
          1   -1    0    0  501    0  0.00000000000E+00 -0.00000000000E+00 -0.10423417375E+04  0.10423417375E+04  0.00000000000E+00 0. -1.
         23    2    1    2    0    0  0.91657450807E+02 -0.46498704362E+03  0.29814277195E+03  0.56729664310E+03  0.91226804098E+02 0.  0.
         11    1    3    3    0    0  0.11017963911E+03 -0.39479272282E+03  0.24800879171E+03  0.47907119266E+03  0.00000000000E+00 0. -1.
        -11    1    3    3    0    0 -0.18522188301E+02 -0.70194320799E+02  0.50133980239E+02  0.88225450447E+02  0.00000000000E+00 0.  1.
         22    1    1    2    0    0 -0.91657450807E+02  0.46498704362E+03 -0.84590570622E+03  0.96962389762E+03  0.00000000000E+00 0. -1.
<mgrwt>
<rscale>  0 0.14359946E+04</rscale>
<asrwt>0</asrwt>
<pdfrwt beam="1">  1        1 0.16036027E+00 0.14359946E+04</pdfrwt>
<pdfrwt beam="2">  1       -1 0.76089047E-01 0.14359946E+04</pdfrwt>
<totfact> 0.23663826E+01</totfact>
</mgrwt>
</event>
<event>
 6    1  0.1614874E-005  0.1992816E+04  0.7818608E-02  0.8609987E-01
         -1   -1    0    0    0  501 -0.00000000000E+00  0.00000000000E+00  0.67085219211E+03  0.67085219211E+03  0.00000000000E+00 0.  1.
          1   -1    0    0  501    0  0.00000000000E+00 -0.00000000000E+00 -0.14799512308E+04  0.14799512308E+04  0.00000000000E+00 0. -1.
         23    2    1    2    0    0  0.90999136283E+03  0.36495259449E+03 -0.22734696105E+03  0.10107551097E+04  0.93083695605E+02 0.  0.
         13    1    3    3    0    0  0.71537737443E+03  0.31335808969E+03 -0.15119996268E+03  0.79549953422E+03  0.00000000000E+00 0. -1.
        -13    1    3    3    0    0  0.19461398839E+03  0.51594504801E+02 -0.76146998372E+02  0.21525557546E+03  0.00000000000E+00 0.  1.
         22    1    1    2    0    0 -0.90999136283E+03 -0.36495259449E+03 -0.58175207762E+03  0.11400483132E+04  0.00000000000E+00 0.  1.
<mgrwt>
<rscale>  0 0.19928156E+04</rscale>
<asrwt>0</asrwt>
<pdfrwt beam="1">  1        1 0.22768480E+00 0.19928156E+04</pdfrwt>
<pdfrwt beam="2">  1       -1 0.10320803E+00 0.19928156E+04</pdfrwt>
<totfact> 0.55560114E+00</totfact>
</mgrwt>
</event>
<event>
 6    1  0.1614874E-005  0.2837883E+04  0.7818608E-02  0.8291603E-01
          1   -1    0    0  501    0  0.00000000000E+00  0.00000000000E+00  0.21544411585E+04  0.21544411585E+04  0.00000000000E+00 0. -1.
         -1   -1    0    0    0  501 -0.00000000000E+00 -0.00000000000E+00 -0.93453220065E+03  0.93453220065E+03  0.00000000000E+00 0.  1.
         23    2    1    2    0    0 -0.13578519440E+04 -0.15978439474E+03  0.10179482436E+04  0.17069165279E+04  0.89735454692E+02 0.  0.
         11    1    3    3    0    0 -0.30053961422E+03 -0.45694727919E+02  0.27214887068E+03  0.40801602381E+03  0.00000000000E+00 0.  1.
        -11    1    3    3    0    0 -0.10573123298E+04 -0.11408966682E+03  0.74579937289E+03  0.12989005041E+04  0.00000000000E+00 0. -1.
         22    1    1    2    0    0  0.13578519440E+04  0.15978439474E+03  0.20196071424E+03  0.13820568312E+04  0.00000000000E+00 0.  1.
<mgrwt>
<rscale>  0 0.28378828E+04</rscale>
<asrwt>0</asrwt>
<pdfrwt beam="1">  1        1 0.33145248E+00 0.28378828E+04</pdfrwt>
<pdfrwt beam="2">  1       -1 0.14377419E+00 0.28378828E+04</pdfrwt>
<totfact> 0.78897226E-01</totfact>
</mgrwt>
</event>
<event>
 6    1  0.1614874E-005  0.6113720E+03  0.7818608E-02  0.9882090E-01
         -1   -1    0    0    0  501 -0.00000000000E+00  0.00000000000E+00  0.65086157369E+02  0.65086157369E+02  0.00000000000E+00 0.  1.
          1   -1    0    0  501    0  0.00000000000E+00 -0.00000000000E+00 -0.14356959398E+04  0.14356959398E+04  0.00000000000E+00 0. -1.
         23    2    1    2    0    0 -0.55366663194E+02  0.15781886069E+03 -0.13084541458E+04  0.13223568093E+04  0.92752462728E+02 0.  0.
         11    1    3    3    0    0 -0.56773082570E+02  0.13745007677E+03 -0.81346788064E+03  0.82694963531E+03  0.00000000000E+00 0. -1.
        -11    1    3    3    0    0  0.14064193755E+01  0.20368783919E+02 -0.49498626514E+03  0.49540717400E+03  0.00000000000E+00 0.  1.
         22    1    1    2    0    0  0.55366663194E+02 -0.15781886069E+03 -0.62155636672E+02  0.17842528788E+03  0.00000000000E+00 0.  1.
<mgrwt>
<rscale>  0 0.61137200E+03</rscale>
<asrwt>0</asrwt>
<pdfrwt beam="1">  1        1 0.22087626E+00 0.61137200E+03</pdfrwt>
<pdfrwt beam="2">  1       -1 0.10013257E-01 0.61137200E+03</pdfrwt>
<totfact> 0.46779346E+02</totfact>
</mgrwt>
</event>
<event>
 6    1  0.1858654E-005  0.3247243E+04  0.7818608E-02  0.8176451E-01
          2   -1    0    0  501    0  0.00000000000E+00  0.00000000000E+00  0.24008750865E+04  0.24008750865E+04  0.00000000000E+00 0. -1.
         -2   -1    0    0    0  501 -0.00000000000E+00 -0.00000000000E+00 -0.10979943854E+04  0.10979943854E+04  0.00000000000E+00 0.  1.
         23    2    1    2    0    0  0.10619977761E+04  0.75164444406E+03  0.16961215170E+04  0.21396612517E+04  0.92268220776E+02 0.  0.
         13    1    3    3    0    0  0.66617249039E+03  0.47964653731E+03  0.99674418014E+03  0.12912573517E+04  0.00000000000E+00 0. -1.
        -13    1    3    3    0    0  0.39582528576E+03  0.27199790675E+03  0.69937733688E+03  0.84840389996E+03  0.00000000000E+00 0.  1.
         22    1    1    2    0    0 -0.10619977761E+04 -0.75164444406E+03 -0.39324081593E+03  0.13592082203E+04  0.00000000000E+00 0.  1.
<mgrwt>
<rscale>  0 0.32472434E+04</rscale>
<asrwt>0</asrwt>
<pdfrwt beam="1">  1        2 0.36936540E+00 0.32472434E+04</pdfrwt>
<pdfrwt beam="2">  1       -2 0.16892221E+00 0.32472434E+04</pdfrwt>
<totfact> 0.72250565E-01</totfact>
</mgrwt>
</event>
<event>
 6    1  0.1614874E-005  0.1675063E+04  0.7818608E-02  0.8775716E-01
          2   -1    0    0  501    0  0.00000000000E+00  0.00000000000E+00  0.27558888021E+04  0.27558888021E+04  0.00000000000E+00 0. -1.
         -2   -1    0    0    0  501 -0.00000000000E+00 -0.00000000000E+00 -0.25453087375E+03  0.25453087375E+03  0.00000000000E+00 0.  1.
         23    2    1    2    0    0  0.84123507605E+01 -0.52612895363E+03  0.24197014987E+04  0.24779253416E+04  0.90973691495E+02 0.  0.
         13    1    3    3    0    0  0.37227056829E+02 -0.38515644593E+03  0.16373705400E+04  0.16824724743E+04  0.00000000000E+00 0. -1.
        -13    1    3    3    0    0 -0.28814706069E+02 -0.14097250770E+03  0.78233095869E+03  0.79545286733E+03  0.00000000000E+00 0.  1.
         22    1    1    2    0    0 -0.84123507605E+01  0.52612895363E+03  0.81656429708E+02  0.53249433424E+03  0.00000000000E+00 0.  1.
<mgrwt>
<rscale>  0 0.16750627E+04</rscale>
<asrwt>0</asrwt>
<pdfrwt beam="1">  1        2 0.42398287E+00 0.16750627E+04</pdfrwt>
<pdfrwt beam="2">  1       -2 0.39158598E-01 0.16750627E+04</pdfrwt>
<totfact> 0.14499074E+01</totfact>
</mgrwt>
</event>
<event>
 6    1  0.1614874E-005  0.2803364E+04  0.7818608E-02  0.8302225E-01
         -2   -1    0    0    0  501 -0.00000000000E+00  0.00000000000E+00  0.17375073810E+04  0.17375073810E+04  0.00000000000E+00 0.  1.
          2   -1    0    0  501    0  0.00000000000E+00 -0.00000000000E+00 -0.11307652973E+04  0.11307652973E+04  0.00000000000E+00 0. -1.
         23    2    1    2    0    0  0.16433458912E+03  0.10845977031E+04 -0.58636979823E+03  0.12475092787E+04  0.95351063804E+02 0.  0.
         13    1    3    3    0    0  0.75368943001E+02  0.40691578471E+03 -0.17156685125E+03  0.44799120289E+03  0.00000000000E+00 0. -1.
        -13    1    3    3    0    0  0.88965646120E+02  0.67768191842E+03 -0.41480294698E+03  0.79951807582E+03  0.00000000000E+00 0.  1.
         22    1    1    2    0    0 -0.16433458912E+03 -0.10845977031E+04  0.11931118818E+04  0.16207633996E+04  0.00000000000E+00 0.  1.
<mgrwt>
<rscale>  0 0.28033644E+04</rscale>
<asrwt>0</asrwt>
<pdfrwt beam="1">  1        2 0.17396389E+00 0.28033644E+04</pdfrwt>
<pdfrwt beam="2">  1       -2 0.26730883E+00 0.28033644E+04</pdfrwt>
<totfact> 0.91332494E-01</totfact>
</mgrwt>
</event>
<event>
 6    1  0.1614874E-005  0.5410321E+04  0.7818608E-02  0.7768151E-01
          2   -1    0    0  501    0  0.00000000000E+00  0.00000000000E+00  0.54175017813E+04  0.54175017813E+04  0.00000000000E+00 0. -1.
         -2   -1    0    0    0  501 -0.00000000000E+00 -0.00000000000E+00 -0.13507875541E+04  0.13507875541E+04  0.00000000000E+00 0.  1.
         23    2    1    2    0    0 -0.50911812476E+03 -0.26528401671E+04  0.18692335346E+04  0.32860941066E+04  0.87282606182E+02 0.  0.
         13    1    3    3    0    0 -0.39026042609E+03 -0.20259052256E+04  0.13821083825E+04  0.24833080285E+04  0.00000000000E+00 0. -1.
        -13    1    3    3    0    0 -0.11885769866E+03 -0.62693494143E+03  0.48712515212E+03  0.80278607807E+03  0.00000000000E+00 0.  1.
         22    1    1    2    0    0  0.50911812476E+03  0.26528401671E+04  0.21974806926E+04  0.34821952288E+04  0.00000000000E+00 0. -1.
<mgrwt>
<rscale>  0 0.54103212E+04</rscale>
<asrwt>0</asrwt>
<pdfrwt beam="1">  1        2 0.83346180E+00 0.54103212E+04</pdfrwt>
<pdfrwt beam="2">  1       -2 0.20781347E+00 0.54103212E+04</pdfrwt>
<totfact> 0.67890768E-04</totfact>
</mgrwt>
</event>
<event>
 6    1  0.1614874E-005  0.7382665E+03  0.7818608E-02  0.9653940E-01
         -1   -1    0    0    0  501 -0.00000000000E+00  0.00000000000E+00  0.42237792164E+03  0.42237792164E+03  0.00000000000E+00 0.  1.
          1   -1    0    0  501    0  0.00000000000E+00 -0.00000000000E+00 -0.32260059913E+03  0.32260059913E+03  0.00000000000E+00 0. -1.
         23    2    1    2    0    0  0.32781406727E+03 -0.10072569551E+03  0.17159477703E+03  0.39459947572E+03  0.93038971930E+02 0.  0.
         11    1    3    3    0    0  0.13464483700E+03 -0.48077096939E+02  0.12293265571E+03  0.18855523652E+03  0.00000000000E+00 0. -1.
        -11    1    3    3    0    0  0.19316923027E+03 -0.52648598568E+02  0.48662121325E+02  0.20604423920E+03  0.00000000000E+00 0.  1.
         22    1    1    2    0    0 -0.32781406727E+03  0.10072569551E+03 -0.71817454519E+02  0.35037904505E+03  0.00000000000E+00 0.  1.
<mgrwt>
<rscale>  0 0.73826654E+03</rscale>
<asrwt>0</asrwt>
<pdfrwt beam="1">  1        1 0.49630861E-01 0.73826654E+03</pdfrwt>
<pdfrwt beam="2">  1       -1 0.64981219E-01 0.73826654E+03</pdfrwt>
<totfact> 0.19407699E+02</totfact>
</mgrwt>
</event>
<event>
 6    1  0.1614874E-005  0.1146624E+04  0.7818608E-02  0.9160904E-01
         -2   -1    0    0    0  501 -0.00000000000E+00  0.00000000000E+00  0.56106193477E+03  0.56106193477E+03  0.00000000000E+00 0.  1.
          2   -1    0    0  501    0  0.00000000000E+00 -0.00000000000E+00 -0.58582943528E+03  0.58582943528E+03  0.00000000000E+00 0. -1.
         23    2    1    2    0    0  0.20778418179E+03  0.36846197993E+03 -0.39407820050E+03  0.58534983998E+03  0.91642294816E+02 0.  0.
         13    1    3    3    0    0  0.18522509914E+03  0.24495658143E+03 -0.27215115302E+03  0.41033926723E+03  0.00000000000E+00 0.  1.
        -13    1    3    3    0    0  0.22559082652E+02  0.12350539850E+03 -0.12192704748E+03  0.17501057275E+03  0.00000000000E+00 0. -1.
         22    1    1    2    0    0 -0.20778418179E+03 -0.36846197993E+03  0.36931070000E+03  0.56154153007E+03  0.00000000000E+00 0.  1.
<mgrwt>
<rscale>  0 0.11466239E+04</rscale>
<asrwt>0</asrwt>
<pdfrwt beam="1">  1        2 0.90127605E-01 0.11466239E+04</pdfrwt>
<pdfrwt beam="2">  1       -2 0.86317221E-01 0.11466239E+04</pdfrwt>
<totfact> 0.58828809E+01</totfact>
</mgrwt>
</event>
<event>
 6    1  0.1614874E-005  0.7864079E+03  0.7818608E-02  0.9579902E-01
          2   -1    0    0  501    0  0.00000000000E+00  0.00000000000E+00  0.86346953463E+03  0.86346953463E+03  0.00000000000E+00 0.  1.
         -2   -1    0    0    0  501 -0.00000000000E+00 -0.00000000000E+00 -0.17905594995E+03  0.17905594995E+03  0.00000000000E+00 0. -1.
         23    2    1    2    0    0  0.22888986855E+03 -0.14151634727E+03 -0.21872359874E+02  0.28670984307E+03  0.96471164173E+02 0.  0.
         11    1    3    3    0    0  0.28123544358E+02 -0.65016251754E+02 -0.93059467721E+00  0.70844285202E+02  0.00000000000E+00 0. -1.
        -11    1    3    3    0    0  0.20076632420E+03 -0.76500095520E+02 -0.20941765197E+02  0.21586555787E+03  0.00000000000E+00 0.  1.
         22    1    1    2    0    0 -0.22888986855E+03  0.14151634727E+03  0.70628594455E+03  0.75581564151E+03  0.00000000000E+00 0.  1.
<mgrwt>
<rscale>  0 0.78640793E+03</rscale>
<asrwt>0</asrwt>
<pdfrwt beam="1">  1        2 0.13284146E+00 0.78640793E+03</pdfrwt>
<pdfrwt beam="2">  1       -2 0.27547070E-01 0.78640793E+03</pdfrwt>
<totfact> 0.37473496E+02</totfact>
</mgrwt>
</event>
<event>
 6    1  0.1614874E-005  0.3620005E+04  0.7818608E-02  0.8085925E-01
          1   -1    0    0  501    0  0.00000000000E+00  0.00000000000E+00  0.84102397517E+03  0.84102397517E+03  0.00000000000E+00 0. -1.
         -1   -1    0    0    0  501 -0.00000000000E+00 -0.00000000000E+00 -0.38953804811E+04  0.38953804811E+04  0.00000000000E+00 0.  1.
         23    2    1    2    0    0  0.64202639257E+03 -0.56532482488E+03  0.55721988873E+03  0.10248988183E+04  0.90186123798E+02 0.  0.
         11    1    3    3    0    0  0.32731251219E+03 -0.22882634568E+03  0.26594805818E+03  0.47981595093E+03  0.00000000000E+00 0. -1.
        -11    1    3    3    0    0  0.31471388039E+03 -0.33649847919E+03  0.29127183054E+03  0.54508286735E+03  0.00000000000E+00 0.  1.
         22    1    1    2    0    0 -0.64202639257E+03  0.56532482488E+03 -0.36115763947E+04  0.37115056380E+04  0.00000000000E+00 0.  1.
<mgrwt>
<rscale>  0 0.36200046E+04</rscale>
<asrwt>0</asrwt>
<pdfrwt beam="1">  1        1 0.12938831E+00 0.36200046E+04</pdfrwt>
<pdfrwt beam="2">  1       -1 0.59928930E+00 0.36200046E+04</pdfrwt>
<totfact> 0.72739946E-03</totfact>
</mgrwt>
</event>
<event>
 6    1  0.1614874E-005  0.1144480E+04  0.7818608E-02  0.9162892E-01
          2   -1    0    0  501    0  0.00000000000E+00  0.00000000000E+00  0.45555755952E+03  0.45555755952E+03  0.00000000000E+00 0. -1.
         -2   -1    0    0    0  501 -0.00000000000E+00 -0.00000000000E+00 -0.71880789803E+03  0.71880789803E+03  0.00000000000E+00 0.  1.
         23    2    1    2    0    0 -0.22064506342E+03  0.44269019270E+03 -0.42013326684E+03  0.65545206986E+03  0.91905403775E+02 0.  0.
         13    1    3    3    0    0 -0.97308083089E+02  0.27293048407E+03 -0.20508805301E+03  0.35499439665E+03  0.00000000000E+00 0.  1.
        -13    1    3    3    0    0 -0.12333698033E+03  0.16975970863E+03 -0.21504521384E+03  0.30045767320E+03  0.00000000000E+00 0. -1.
         22    1    1    2    0    0  0.22064506342E+03 -0.44269019270E+03  0.15688292834E+03  0.51891338769E+03  0.00000000000E+00 0. -1.
<mgrwt>
<rscale>  0 0.11444796E+04</rscale>
<asrwt>0</asrwt>
<pdfrwt beam="1">  1        2 0.70085779E-01 0.11444796E+04</pdfrwt>
<pdfrwt beam="2">  1       -2 0.11058583E+00 0.11444796E+04</pdfrwt>
<totfact> 0.44041024E+01</totfact>
</mgrwt>
</event>
<event>
 6    1  0.1614874E-005  0.6725020E+04  0.7818608E-02  0.7606479E-01
          2   -1    0    0  501    0  0.00000000000E+00  0.00000000000E+00  0.29111348109E+04  0.29111348109E+04  0.00000000000E+00 0. -1.
         -2   -1    0    0    0  501 -0.00000000000E+00 -0.00000000000E+00 -0.38838710675E+04  0.38838710675E+04  0.00000000000E+00 0.  1.
         23    2    1    2    0    0  0.24209285485E+03  0.33442606555E+04 -0.23960297641E+03  0.33627802609E+04  0.90516378959E+02 0.  0.
         13    1    3    3    0    0  0.12152676365E+03  0.18871565370E+04 -0.92720899001E+02  0.18933371899E+04  0.00000000000E+00 0. -1.
        -13    1    3    3    0    0  0.12056609121E+03  0.14571041185E+04 -0.14688207741E+03  0.14694430710E+04  0.00000000000E+00 0.  1.
         22    1    1    2    0    0 -0.24209285485E+03 -0.33442606555E+04 -0.73313328017E+03  0.34322256174E+04  0.00000000000E+00 0.  1.
<mgrwt>
<rscale>  0 0.67250196E+04</rscale>
<asrwt>0</asrwt>
<pdfrwt beam="1">  1        2 0.44786689E+00 0.67250196E+04</pdfrwt>
<pdfrwt beam="2">  1       -2 0.59751863E+00 0.67250196E+04</pdfrwt>
<totfact> 0.67161568E-04</totfact>
</mgrwt>
</event>
<event>
 6    1  0.1614874E-005  0.2104427E+04  0.7818608E-02  0.8559296E-01
         -2   -1    0    0    0  501 -0.00000000000E+00  0.00000000000E+00  0.60311029124E+03  0.60311029124E+03  0.00000000000E+00 0.  1.
          2   -1    0    0  501    0  0.00000000000E+00 -0.00000000000E+00 -0.18357399440E+04  0.18357399440E+04  0.00000000000E+00 0. -1.
         23    2    1    2    0    0 -0.70474862079E+03 -0.75438892879E+02 -0.15156090703E+04  0.16756733253E+04  0.91916234480E+02 0.  0.
         13    1    3    3    0    0 -0.16139825363E+03 -0.60651551152E+01 -0.26459708441E+03  0.30999645072E+03  0.00000000000E+00 0.  1.
        -13    1    3    3    0    0 -0.54335036716E+03 -0.69373737764E+02 -0.12510119859E+04  0.13656768746E+04  0.00000000000E+00 0. -1.
         22    1    1    2    0    0  0.70474862079E+03  0.75438892879E+02  0.28297941755E+03  0.76317690991E+03  0.00000000000E+00 0. -1.
<mgrwt>
<rscale>  0 0.21044274E+04</rscale>
<asrwt>0</asrwt>
<pdfrwt beam="1">  1        2 0.28242153E+00 0.21044274E+04</pdfrwt>
<pdfrwt beam="2">  1       -2 0.92786200E-01 0.21044274E+04</pdfrwt>
<totfact> 0.74776131E+00</totfact>
</mgrwt>
</event>
<event>
 6    1  0.1614874E-005  0.3141944E+04  0.7818608E-02  0.8204320E-01
         -2   -1    0    0    0  501 -0.00000000000E+00  0.00000000000E+00  0.65966571626E+03  0.65966571626E+03  0.00000000000E+00 0.  1.
          2   -1    0    0  501    0  0.00000000000E+00 -0.00000000000E+00 -0.37412183143E+04  0.37412183143E+04  0.00000000000E+00 0. -1.
         23    2    1    2    0    0  0.11348628987E+04  0.10843902649E+04 -0.15534878486E+04  0.22102681527E+04  0.90248356332E+02 0.  0.
         11    1    3    3    0    0  0.39446972950E+03  0.42529188712E+03 -0.53722948067E+03  0.79062954135E+03  0.00000000000E+00 0. -1.
        -11    1    3    3    0    0  0.74039316923E+03  0.65909837779E+03 -0.10162583679E+04  0.14196386114E+04  0.00000000000E+00 0.  1.
         22    1    1    2    0    0 -0.11348628987E+04 -0.10843902649E+04 -0.15280647494E+04  0.21906158778E+04  0.00000000000E+00 0. -1.
<mgrwt>
<rscale>  0 0.31419443E+04</rscale>
<asrwt>0</asrwt>
<pdfrwt beam="1">  1        2 0.57557206E+00 0.31419443E+04</pdfrwt>
<pdfrwt beam="2">  1       -2 0.10148703E+00 0.31419443E+04</pdfrwt>
<totfact> 0.36653842E-01</totfact>
</mgrwt>
</event>
<event>
 6    1  0.1614874E-005  0.2022857E+04  0.7818608E-02  0.8596008E-01
          2   -1    0    0  501    0  0.00000000000E+00  0.00000000000E+00  0.17925916655E+04  0.17925916655E+04  0.00000000000E+00 0.  1.
         -2   -1    0    0    0  501 -0.00000000000E+00 -0.00000000000E+00 -0.57067544495E+03  0.57067544495E+03  0.00000000000E+00 0. -1.
         23    2    1    2    0    0 -0.13590832442E+03  0.97266411236E+03  0.34012657357E+03  0.10433809299E+04  0.91712216523E+02 0.  0.
         13    1    3    3    0    0 -0.90815500127E+02  0.37346960467E+03  0.10826133969E+03  0.39930880074E+03  0.00000000000E+00 0.  1.
        -13    1    3    3    0    0 -0.45092824293E+02  0.59919450769E+03  0.23186523388E+03  0.64407212914E+03  0.00000000000E+00 0. -1.
         22    1    1    2    0    0  0.13590832442E+03 -0.97266411236E+03  0.88178964694E+03  0.13198861805E+04  0.00000000000E+00 0. -1.
<mgrwt>
<rscale>  0 0.20228574E+04</rscale>
<asrwt>0</asrwt>
<pdfrwt beam="1">  1        2 0.27578333E+00 0.20228574E+04</pdfrwt>
<pdfrwt beam="2">  1       -2 0.87796223E-01 0.20228574E+04</pdfrwt>
<totfact> 0.90381297E+00</totfact>
</mgrwt>
</event>
<event>
 6    1  0.1614874E-005  0.1742869E+04  0.7818608E-02  0.8737285E-01
          2   -1    0    0  501    0  0.00000000000E+00  0.00000000000E+00  0.49361296369E+03  0.49361296369E+03  0.00000000000E+00 0. -1.
         -2   -1    0    0    0  501 -0.00000000000E+00 -0.00000000000E+00 -0.15384483493E+04  0.15384483493E+04  0.00000000000E+00 0.  1.
         23    2    1    2    0    0  0.36935078889E+03 -0.30514143474E+03 -0.13692368220E+04  0.14534702723E+04  0.90747217187E+02 0.  0.
         13    1    3    3    0    0  0.27381621856E+03 -0.24935740174E+03 -0.11454606231E+04  0.12038415487E+04  0.00000000000E+00 0.  1.
        -13    1    3    3    0    0  0.95534570328E+02 -0.55784032999E+02 -0.22377619888E+03  0.24962872361E+03  0.00000000000E+00 0. -1.
         22    1    1    2    0    0 -0.36935078889E+03  0.30514143474E+03  0.32440143635E+03  0.57859104068E+03  0.00000000000E+00 0. -1.
<mgrwt>
<rscale>  0 0.17428690E+04</rscale>
<asrwt>0</asrwt>
<pdfrwt beam="1">  1        2 0.75940457E-01 0.17428690E+04</pdfrwt>
<pdfrwt beam="2">  1       -2 0.23668436E+00 0.17428690E+04</pdfrwt>
<totfact> 0.46025491E+00</totfact>
</mgrwt>
</event>
<event>
 6    1  0.1614874E-005  0.9781534E+03  0.7818608E-02  0.9332836E-01
         -2   -1    0    0    0  501 -0.00000000000E+00  0.00000000000E+00  0.99077309294E+03  0.99077309294E+03  0.00000000000E+00 0.  1.
          2   -1    0    0  501    0  0.00000000000E+00 -0.00000000000E+00 -0.24142363036E+03  0.24142363036E+03  0.00000000000E+00 0. -1.
         23    2    1    2    0    0 -0.37337108822E+03 -0.30626506605E+03  0.43387123871E+03  0.65536852536E+03  0.89774116821E+02 0.  0.
         11    1    3    3    0    0 -0.20957693270E+03 -0.11827889948E+03  0.19020023390E+03  0.30673851691E+03  0.00000000000E+00 0. -1.
        -11    1    3    3    0    0 -0.16379415552E+03 -0.18798616657E+03  0.24367100482E+03  0.34863000845E+03  0.00000000000E+00 0.  1.
         22    1    1    2    0    0  0.37337108822E+03  0.30626506605E+03  0.31547822387E+03  0.57682819794E+03  0.00000000000E+00 0. -1.
<mgrwt>
<rscale>  0 0.97815344E+03</rscale>
<asrwt>0</asrwt>
<pdfrwt beam="1">  1        2 0.37142098E-01 0.97815344E+03</pdfrwt>
<pdfrwt beam="2">  1       -2 0.15242663E+00 0.97815344E+03</pdfrwt>
<totfact> 0.40128235E+01</totfact>
</mgrwt>
</event>
<event>
 6    1  0.1614874E-005  0.1184383E+04  0.7818608E-02  0.9126637E-01
         -1   -1    0    0    0  501 -0.00000000000E+00  0.00000000000E+00  0.23048902947E+03  0.23048902947E+03  0.00000000000E+00 0.  1.
          1   -1    0    0  501    0  0.00000000000E+00 -0.00000000000E+00 -0.15215086275E+04  0.15215086275E+04  0.00000000000E+00 0. -1.
         23    2    1    2    0    0 -0.42555703154E+03  0.74698735379E+02 -0.57449970330E+02  0.44495033016E+03  0.89451713547E+02 0.  0.
         11    1    3    3    0    0 -0.24961058197E+03 -0.29676035357E+00 -0.23710034567E+02  0.25073431444E+03  0.00000000000E+00 0.  1.
        -11    1    3    3    0    0 -0.17594644957E+03  0.74995495732E+02 -0.33739935763E+02  0.19421601572E+03  0.00000000000E+00 0. -1.
         22    1    1    2    0    0  0.42555703154E+03 -0.74698735379E+02 -0.12335696277E+04  0.13070473268E+04  0.00000000000E+00 0. -1.
<mgrwt>
<rscale>  0 0.11843835E+04</rscale>
<asrwt>0</asrwt>
<pdfrwt beam="1">  1        1 0.23407825E+00 0.11843835E+04</pdfrwt>
<pdfrwt beam="2">  1       -1 0.35459850E-01 0.11843835E+04</pdfrwt>
<totfact> 0.47462813E+01</totfact>
</mgrwt>
</event>
<event>
 6    1  0.1614874E-005  0.3685391E+04  0.7818608E-02  0.8071207E-01
         -1   -1    0    0    0  501 -0.00000000000E+00  0.00000000000E+00  0.13648368601E+04  0.13648368601E+04  0.00000000000E+00 0. -1.
          1   -1    0    0  501    0  0.00000000000E+00 -0.00000000000E+00 -0.24878621511E+04  0.24878621511E+04  0.00000000000E+00 0.  1.
         23    2    1    2    0    0  0.47763457227E+03  0.75144747633E+03 -0.22468896258E+04  0.24188652910E+04  0.97919409511E+02 0.  0.
         13    1    3    3    0    0  0.33729818171E+03  0.55080532928E+03 -0.15090227404E+04  0.16414341916E+04  0.00000000000E+00 0.  1.
        -13    1    3    3    0    0  0.14033639056E+03  0.20064214704E+03 -0.73786688543E+03  0.77743109939E+03  0.00000000000E+00 0. -1.
         22    1    1    2    0    0 -0.47763457227E+03 -0.75144747633E+03  0.11238643349E+04  0.14338337203E+04  0.00000000000E+00 0. -1.
<mgrwt>
<rscale>  0 0.36853906E+04</rscale>
<asrwt>0</asrwt>
<pdfrwt beam="1">  1        1 0.38274803E+00 0.36853906E+04</pdfrwt>
<pdfrwt beam="2">  1       -1 0.20997490E+00 0.36853906E+04</pdfrwt>
<totfact> 0.14269473E-01</totfact>
</mgrwt>
</event>
<event>
 6    1  0.1614874E-005  0.2298069E+04  0.7818608E-02  0.8478683E-01
         -1   -1    0    0    0  501 -0.00000000000E+00  0.00000000000E+00  0.25986776212E+04  0.25986776212E+04  0.00000000000E+00 0.  1.
          1   -1    0    0  501    0  0.00000000000E+00 -0.00000000000E+00 -0.50805846133E+03  0.50805846133E+03  0.00000000000E+00 0. -1.
         23    2    1    2    0    0  0.24314453579E+03  0.10569547706E+04  0.54141600300E+03  0.12156244852E+04  0.91317841196E+02 0.  0.
         11    1    3    3    0    0  0.10415750214E+03  0.29192406074E+03  0.17676780358E+03  0.35681269438E+03  0.00000000000E+00 0. -1.
        -11    1    3    3    0    0  0.13898703365E+03  0.76503070991E+03  0.36464819942E+03  0.85881179078E+03  0.00000000000E+00 0.  1.
         22    1    1    2    0    0 -0.24314453579E+03 -0.10569547706E+04  0.15492031569E+04  0.18911115974E+04  0.00000000000E+00 0. -1.
<mgrwt>
<rscale>  0 0.22980689E+04</rscale>
<asrwt>0</asrwt>
<pdfrwt beam="1">  1        1 0.78162842E-01 0.22980689E+04</pdfrwt>
<pdfrwt beam="2">  1       -1 0.39979655E+00 0.22980689E+04</pdfrwt>
<totfact> 0.28142519E-01</totfact>
</mgrwt>
</event>
<event>
 6    1  0.1614874E-005  0.3369357E+04  0.7818608E-02  0.8145468E-01
          2   -1    0    0  501    0  0.00000000000E+00  0.00000000000E+00  0.20192494286E+04  0.20192494286E+04  0.00000000000E+00 0. -1.
         -2   -1    0    0    0  501 -0.00000000000E+00 -0.00000000000E+00 -0.14055431208E+04  0.14055431208E+04  0.00000000000E+00 0.  1.
         23    2    1    2    0    0  0.15405752481E+04  0.59251998136E+03 -0.29499824126E+02  0.16533055605E+04  0.89983407218E+02 0.  0.
         13    1    3    3    0    0  0.60188870451E+03  0.18526079138E+03 -0.43594054804E+01  0.62977025799E+03  0.00000000000E+00 0.  1.
        -13    1    3    3    0    0  0.93868654358E+03  0.40725918997E+03 -0.25140418646E+02  0.10235353026E+04  0.00000000000E+00 0. -1.
         22    1    1    2    0    0 -0.15405752481E+04 -0.59251998136E+03  0.64320613198E+03  0.17714869888E+04  0.00000000000E+00 0. -1.
<mgrwt>
<rscale>  0 0.33693573E+04</rscale>
<asrwt>0</asrwt>
<pdfrwt beam="1">  1        2 0.31065376E+00 0.33693573E+04</pdfrwt>
<pdfrwt beam="2">  1       -2 0.21623740E+00 0.33693573E+04</pdfrwt>
<totfact> 0.56539057E-01</totfact>
</mgrwt>
</event>
<event>
 6    1  0.1614874E-005  0.1111285E+04  0.7818608E-02  0.9194262E-01
         -2   -1    0    0    0  501 -0.00000000000E+00  0.00000000000E+00  0.60760150820E+03  0.60760150820E+03  0.00000000000E+00 0.  1.
          2   -1    0    0  501    0  0.00000000000E+00 -0.00000000000E+00 -0.50812650122E+03  0.50812650122E+03  0.00000000000E+00 0. -1.
         23    2    1    2    0    0 -0.22034859739E+03  0.30630623905E+02 -0.45700229577E+03  0.51642947948E+03  0.91414273745E+02 0.  0.
         11    1    3    3    0    0 -0.60864662304E+02  0.42485056800E+02 -0.94093739770E+02  0.11984623078E+03  0.00000000000E+00 0.  1.
        -11    1    3    3    0    0 -0.15948393509E+03 -0.11854432896E+02 -0.36290855600E+03  0.39658324870E+03  0.00000000000E+00 0. -1.
         22    1    1    2    0    0  0.22034859739E+03 -0.30630623905E+02  0.55647730276E+03  0.59929852993E+03  0.00000000000E+00 0.  1.
<mgrwt>
<rscale>  0 0.11112847E+04</rscale>
<asrwt>0</asrwt>
<pdfrwt beam="1">  1        2 0.78173308E-01 0.11112847E+04</pdfrwt>
<pdfrwt beam="2">  1       -2 0.93477155E-01 0.11112847E+04</pdfrwt>
<totfact> 0.58056489E+01</totfact>
</mgrwt>
</event>
<event>
 6    1  0.1614874E-005  0.3924467E+04  0.7818608E-02  0.8019960E-01
         -2   -1    0    0    0  501 -0.00000000000E+00  0.00000000000E+00  0.13313074194E+04  0.13313074194E+04  0.00000000000E+00 0.  1.
          2   -1    0    0  501    0  0.00000000000E+00 -0.00000000000E+00 -0.28921647464E+04  0.28921647464E+04  0.00000000000E+00 0. -1.
         23    2    1    2    0    0 -0.18484308745E+04  0.60024144284E+03 -0.49835308026E+03  0.20085451327E+04  0.94399521624E+02 0.  0.
         11    1    3    3    0    0 -0.12076956888E+04  0.43916974236E+03 -0.32890857846E+03  0.13264915349E+04  0.00000000000E+00 0.  1.
        -11    1    3    3    0    0 -0.64073518577E+03  0.16107170048E+03 -0.16944450180E+03  0.68205359772E+03  0.00000000000E+00 0. -1.
         22    1    1    2    0    0  0.18484308745E+04 -0.60024144284E+03 -0.10625042467E+04  0.22149270331E+04  0.00000000000E+00 0. -1.
<mgrwt>
<rscale>  0 0.39244670E+04</rscale>
<asrwt>0</asrwt>
<pdfrwt beam="1">  1        2 0.44494842E+00 0.39244670E+04</pdfrwt>
<pdfrwt beam="2">  1       -2 0.20481653E+00 0.39244670E+04</pdfrwt>
<totfact> 0.19936647E-01</totfact>
</mgrwt>
</event>
<event>
 6    1  0.1614874E-005  0.4300897E+03  0.7818608E-02  0.1033832E+00
          2   -1    0    0  501    0  0.00000000000E+00  0.00000000000E+00  0.58324589742E+03  0.58324589742E+03  0.00000000000E+00 0. -1.
         -2   -1    0    0    0  501 -0.00000000000E+00 -0.00000000000E+00 -0.79287795277E+02  0.79287795277E+02  0.00000000000E+00 0.  1.
         23    2    1    2    0    0  0.45729339451E+02  0.76817342298E+02  0.54832852439E+03  0.56272983038E+03  0.89490864149E+02 0.  0.
         11    1    3    3    0    0  0.65061216378E+02  0.23338096759E+02  0.32567477039E+03  0.33292894844E+03  0.00000000000E+00 0.  1.
        -11    1    3    3    0    0 -0.19331876927E+02  0.53479245539E+02  0.22265375400E+03  0.22980088194E+03  0.00000000000E+00 0. -1.
         22    1    1    2    0    0 -0.45729339451E+02 -0.76817342298E+02 -0.44370422249E+02  0.99803862324E+02  0.00000000000E+00 0.  1.
<mgrwt>
<rscale>  0 0.43008967E+03</rscale>
<asrwt>0</asrwt>
<pdfrwt beam="1">  1        2 0.89730135E-01 0.43008967E+03</pdfrwt>
<pdfrwt beam="2">  1       -2 0.12198123E-01 0.43008967E+03</pdfrwt>
<totfact> 0.25254234E+03</totfact>
</mgrwt>
</event>
<event>
 6    1  0.1614874E-005  0.3289621E+04  0.7818608E-02  0.8165541E-01
         -2   -1    0    0    0  501 -0.00000000000E+00  0.00000000000E+00  0.75876278128E+03  0.75876278128E+03  0.00000000000E+00 0.  1.
          2   -1    0    0  501    0  0.00000000000E+00 -0.00000000000E+00 -0.35655426455E+04  0.35655426455E+04  0.00000000000E+00 0. -1.
         23    2    1    2    0    0  0.15760961560E+04  0.15685533074E+03 -0.82736933562E+03  0.17892021294E+04  0.89563131262E+02 0.  0.
         11    1    3    3    0    0  0.86514341446E+03  0.66309302707E+02 -0.49811048856E+03  0.10004919340E+04  0.00000000000E+00 0. -1.
        -11    1    3    3    0    0  0.71095274155E+03  0.90546028035E+02 -0.32925884706E+03  0.78871019537E+03  0.00000000000E+00 0.  1.
         22    1    1    2    0    0 -0.15760961560E+04 -0.15685533074E+03 -0.19794105286E+04  0.25351032974E+04  0.00000000000E+00 0. -1.
<mgrwt>
<rscale>  0 0.32896207E+04</rscale>
<asrwt>0</asrwt>
<pdfrwt beam="1">  1        2 0.54854502E+00 0.32896207E+04</pdfrwt>
<pdfrwt beam="2">  1       -2 0.11673274E+00 0.32896207E+04</pdfrwt>
<totfact> 0.34671821E-01</totfact>
</mgrwt>
</event>
<event>
 6    1  0.1614874E-005  0.2448196E+04  0.7818608E-02  0.8421677E-01
          1   -1    0    0  501    0  0.00000000000E+00  0.00000000000E+00  0.13811060067E+04  0.13811060067E+04  0.00000000000E+00 0. -1.
         -1   -1    0    0    0  501 -0.00000000000E+00 -0.00000000000E+00 -0.10849390653E+04  0.10849390653E+04  0.00000000000E+00 0.  1.
         23    2    1    2    0    0  0.20299275895E+03 -0.10011582976E+04  0.82442022611E+03  0.13160122333E+04  0.93249621905E+02 0.  0.
         13    1    3    3    0    0  0.16339681004E+03 -0.69778137675E+03  0.62411305626E+03  0.95032335248E+03  0.00000000000E+00 0. -1.
        -13    1    3    3    0    0  0.39595948909E+02 -0.30337692090E+03  0.20030716985E+03  0.36568888087E+03  0.00000000000E+00 0.  1.
         22    1    1    2    0    0 -0.20299275895E+03  0.10011582976E+04 -0.52825328477E+03  0.11500328387E+04  0.00000000000E+00 0. -1.
<mgrwt>
<rscale>  0 0.24481960E+04</rscale>
<asrwt>0</asrwt>
<pdfrwt beam="1">  1        1 0.21247785E+00 0.24481960E+04</pdfrwt>
<pdfrwt beam="2">  1       -1 0.16691370E+00 0.24481960E+04</pdfrwt>
<totfact> 0.18334755E+00</totfact>
</mgrwt>
</event>
<event>
 6    1  0.3432009E-005  0.4030524E+04  0.7818608E-02  0.7998417E-01
         -2   -1    0    0    0  501 -0.00000000000E+00  0.00000000000E+00  0.14805380752E+04  0.14805380752E+04  0.00000000000E+00 0.  1.
          2   -1    0    0  501    0  0.00000000000E+00 -0.00000000000E+00 -0.27431116157E+04  0.27431116157E+04  0.00000000000E+00 0. -1.
         23    2    1    2    0    0  0.19834593563E+04 -0.34995850696E+03 -0.60798971995E+03  0.21058532057E+04  0.91565548242E+02 0.  0.
         11    1    3    3    0    0  0.84841141565E+03 -0.10389693758E+03 -0.26160365789E+03  0.89388644562E+03  0.00000000000E+00 0.  1.
        -11    1    3    3    0    0  0.11350479406E+04 -0.24606156939E+03 -0.34638606206E+03  0.12119667600E+04  0.00000000000E+00 0. -1.
         22    1    1    2    0    0 -0.19834593563E+04  0.34995850696E+03 -0.65458382055E+03  0.21177964852E+04  0.00000000000E+00 0.  1.
<mgrwt>
<rscale>  0 0.40305241E+04</rscale>
<asrwt>0</asrwt>
<pdfrwt beam="1">  1        2 0.42201716E+00 0.40305241E+04</pdfrwt>
<pdfrwt beam="2">  1       -2 0.22777509E+00 0.40305241E+04</pdfrwt>
<totfact> 0.17382855E-01</totfact>
</mgrwt>
</event>
<event>
 6    1  0.1614874E-005  0.2754190E+04  0.7818608E-02  0.8317633E-01
         -2   -1    0    0    0  501 -0.00000000000E+00  0.00000000000E+00  0.13680730015E+04  0.13680730015E+04  0.00000000000E+00 0.  1.
          2   -1    0    0  501    0  0.00000000000E+00 -0.00000000000E+00 -0.13861766449E+04  0.13861766449E+04  0.00000000000E+00 0. -1.
         23    2    1    2    0    0  0.42147032713E+03 -0.48423763190E+03 -0.12246481281E+04  0.13875481741E+04  0.11577381860E+03 0.  0.
         13    1    3    3    0    0  0.27420344068E+03 -0.33160798839E+03 -0.70032521053E+03  0.82195303111E+03  0.00000000000E+00 0.  1.
        -13    1    3    3    0    0  0.14726688645E+03 -0.15262964351E+03 -0.52432291753E+03  0.56559514298E+03  0.00000000000E+00 0. -1.
         22    1    1    2    0    0 -0.42147032713E+03  0.48423763190E+03  0.12065444847E+04  0.13667014723E+04  0.00000000000E+00 0.  1.
<mgrwt>
<rscale>  0 0.27541901E+04</rscale>
<asrwt>0</asrwt>
<pdfrwt beam="1">  1        2 0.21325795E+00 0.27541901E+04</pdfrwt>
<pdfrwt beam="2">  1       -2 0.21047277E+00 0.27541901E+04</pdfrwt>
<totfact> 0.14637489E+00</totfact>
</mgrwt>
</event>
<event>
 6    1  0.1614874E-005  0.2711996E+04  0.7818608E-02  0.8331123E-01
         -1   -1    0    0    0  501 -0.00000000000E+00  0.00000000000E+00  0.10982207867E+04  0.10982207867E+04  0.00000000000E+00 0.  1.
          1   -1    0    0  501    0  0.00000000000E+00 -0.00000000000E+00 -0.16742811573E+04  0.16742811573E+04  0.00000000000E+00 0. -1.
         23    2    1    2    0    0 -0.33031346048E+01  0.60903788917E+03  0.94834150983E+03  0.11309358764E+04  0.93414539174E+02 0.  0.
         13    1    3    3    0    0 -0.42535666544E+02  0.17284430671E+03  0.26069963903E+03  0.31567188516E+03  0.00000000000E+00 0. -1.
        -13    1    3    3    0    0  0.39232531939E+02  0.43619358246E+03  0.68764187080E+03  0.81526399125E+03  0.00000000000E+00 0.  1.
         22    1    1    2    0    0  0.33031346048E+01 -0.60903788917E+03 -0.15244018804E+04  0.16415660675E+04  0.00000000000E+00 0. -1.
<mgrwt>
<rscale>  0 0.27119958E+04</rscale>
<asrwt>0</asrwt>
<pdfrwt beam="1">  1        1 0.25758172E+00 0.27119958E+04</pdfrwt>
<pdfrwt beam="2">  1       -1 0.16895704E+00 0.27119958E+04</pdfrwt>
<totfact> 0.10842269E+00</totfact>
</mgrwt>
</event>
<event>
 6    1  0.2955718E-005  0.3247232E+04  0.7818608E-02  0.8176454E-01
          2   -1    0    0  501    0  0.00000000000E+00  0.00000000000E+00  0.23654997176E+04  0.23654997176E+04  0.00000000000E+00 0. -1.
         -2   -1    0    0    0  501 -0.00000000000E+00 -0.00000000000E+00 -0.11144066707E+04  0.11144066707E+04  0.00000000000E+00 0.  1.
         23    2    1    2    0    0  0.70058273546E+03 -0.12399021223E+04  0.14583351292E+04  0.20407668110E+04  0.99067582113E+02 0.  0.
         11    1    3    3    0    0  0.39832197835E+03 -0.80136769168E+03  0.90457415298E+03  0.12724405581E+04  0.00000000000E+00 0.  1.
        -11    1    3    3    0    0  0.30226075711E+03 -0.43853443065E+03  0.55376097622E+03  0.76832625293E+03  0.00000000000E+00 0. -1.
         22    1    1    2    0    0 -0.70058273546E+03  0.12399021223E+04 -0.20724208236E+03  0.14391395773E+04  0.00000000000E+00 0.  1.
<mgrwt>
<rscale>  0 0.32472318E+04</rscale>
<asrwt>0</asrwt>
<pdfrwt beam="1">  1        2 0.36392303E+00 0.32472318E+04</pdfrwt>
<pdfrwt beam="2">  1       -2 0.17144718E+00 0.32472318E+04</pdfrwt>
<totfact> 0.72633137E-01</totfact>
</mgrwt>
</event>
<event>
 6    1  0.1614874E-005  0.1364838E+04  0.7818608E-02  0.8979671E-01
         -2   -1    0    0    0  501 -0.00000000000E+00  0.00000000000E+00  0.16921783665E+03  0.16921783665E+03  0.00000000000E+00 0.  1.
          2   -1    0    0  501    0  0.00000000000E+00 -0.00000000000E+00 -0.27520490857E+04  0.27520490857E+04  0.00000000000E+00 0. -1.
         23    2    1    2    0    0 -0.66445262996E+03 -0.18220121190E+02 -0.99644309406E+03  0.12012504548E+04  0.90964527447E+02 0.  0.
         13    1    3    3    0    0 -0.62124333034E+03 -0.14167862190E+02 -0.88255466548E+03  0.10793733096E+04  0.00000000000E+00 0. -1.
        -13    1    3    3    0    0 -0.43209299612E+02 -0.40522590004E+01 -0.11388842858E+03  0.12187714527E+03  0.00000000000E+00 0.  1.
         22    1    1    2    0    0  0.66445262996E+03  0.18220121190E+02 -0.15863881550E+04  0.17200164675E+04  0.00000000000E+00 0. -1.
<mgrwt>
<rscale>  0 0.13648381E+04</rscale>
<asrwt>0</asrwt>
<pdfrwt beam="1">  1        2 0.42339215E+00 0.13648381E+04</pdfrwt>
<pdfrwt beam="2">  1       -2 0.26033515E-01 0.13648381E+04</pdfrwt>
<totfact> 0.32353528E+01</totfact>
</mgrwt>
</event>
<event>
 6    1  0.1614874E-005  0.1607618E+04  0.7818608E-02  0.8815882E-01
         -2   -1    0    0    0  501 -0.00000000000E+00  0.00000000000E+00  0.35348156027E+03  0.35348156027E+03  0.00000000000E+00 0.  1.
          2   -1    0    0  501    0  0.00000000000E+00 -0.00000000000E+00 -0.18278425037E+04  0.18278425037E+04  0.00000000000E+00 0. -1.
         23    2    1    2    0    0 -0.40123938921E+03 -0.21627541305E+03 -0.16336994121E+04  0.16984608852E+04  0.89596359544E+02 0.  0.
         11    1    3    3    0    0 -0.27023207222E+02 -0.46081387305E+02 -0.19254693521E+03  0.19982009470E+03  0.00000000000E+00 0.  1.
        -11    1    3    3    0    0 -0.37421618199E+03 -0.17019402574E+03 -0.14411524769E+04  0.14986407905E+04  0.00000000000E+00 0. -1.
         22    1    1    2    0    0  0.40123938921E+03  0.21627541305E+03  0.15933846874E+03  0.48286317872E+03  0.00000000000E+00 0.  1.
<mgrwt>
<rscale>  0 0.16076176E+04</rscale>
<asrwt>0</asrwt>
<pdfrwt beam="1">  1        2 0.28120654E+00 0.16076176E+04</pdfrwt>
<pdfrwt beam="2">  1       -2 0.54381778E-01 0.16076176E+04</pdfrwt>
<totfact> 0.25400240E+01</totfact>
</mgrwt>
</event>
<event>
 6    1  0.1614874E-005  0.2907694E+04  0.7818608E-02  0.8270592E-01
         -2   -1    0    0    0  501 -0.00000000000E+00  0.00000000000E+00  0.17617500468E+04  0.17617500468E+04  0.00000000000E+00 0. -1.
          2   -1    0    0  501    0  0.00000000000E+00 -0.00000000000E+00 -0.11997563416E+04  0.11997563416E+04  0.00000000000E+00 0.  1.
         23    2    1    2    0    0 -0.59840555942E+03  0.84237846425E+03 -0.75837308142E+03  0.12848850412E+04  0.90050807364E+02 0.  0.
         11    1    3    3    0    0 -0.44170595294E+03  0.64150837451E+03 -0.61613230364E+03  0.99310430420E+03  0.00000000000E+00 0. -1.
        -11    1    3    3    0    0 -0.15669960649E+03  0.20087008973E+03 -0.14224077778E+03  0.29178073700E+03  0.00000000000E+00 0.  1.
         22    1    1    2    0    0  0.59840555942E+03 -0.84237846425E+03  0.13203667866E+04  0.16766213471E+04  0.00000000000E+00 0. -1.
<mgrwt>
<rscale>  0 0.29076938E+04</rscale>
<asrwt>0</asrwt>
<pdfrwt beam="1">  1        2 0.18457790E+00 0.29076938E+04</pdfrwt>
<pdfrwt beam="2">  1       -2 0.27103847E+00 0.29076938E+04</pdfrwt>
<totfact> 0.78055944E-01</totfact>
</mgrwt>
</event>
<event>
 6    1  0.1614874E-005  0.4880279E+04  0.7818608E-02  0.7847245E-01
          1   -1    0    0  501    0  0.00000000000E+00  0.00000000000E+00  0.28315487458E+04  0.28315487458E+04  0.00000000000E+00 0. -1.
         -1   -1    0    0    0  501 -0.00000000000E+00 -0.00000000000E+00 -0.21028356709E+04  0.21028356709E+04  0.00000000000E+00 0.  1.
         23    2    1    2    0    0  0.39095100388E+03 -0.37568797638E+03  0.27691571359E+04  0.28231297874E+04  0.88579964842E+02 0.  0.
         13    1    3    3    0    0  0.18548441196E+03 -0.22576314862E+03  0.16227831074E+04  0.16488779458E+04  0.00000000000E+00 0. -1.
        -13    1    3    3    0    0  0.20546659192E+03 -0.14992482776E+03  0.11463740285E+04  0.11742518417E+04  0.00000000000E+00 0.  1.
         22    1    1    2    0    0 -0.39095100388E+03  0.37568797638E+03 -0.20404440611E+04  0.21112546292E+04  0.00000000000E+00 0.  1.
<mgrwt>
<rscale>  0 0.48802794E+04</rscale>
<asrwt>0</asrwt>
<pdfrwt beam="1">  1        1 0.43562289E+00 0.48802794E+04</pdfrwt>
<pdfrwt beam="2">  1       -1 0.32351318E+00 0.48802794E+04</pdfrwt>
<totfact> 0.13387695E-02</totfact>
</mgrwt>
</event>
<event>
 6    1  0.1614874E-005  0.5347928E+04  0.7818608E-02  0.7776968E-01
          2   -1    0    0  501    0  0.00000000000E+00  0.00000000000E+00  0.35598589058E+04  0.35598589058E+04  0.00000000000E+00 0. -1.
         -2   -1    0    0    0  501 -0.00000000000E+00 -0.00000000000E+00 -0.20085297621E+04  0.20085297621E+04  0.00000000000E+00 0.  1.
         23    2    1    2    0    0  0.21095582182E+03 -0.26639634923E+04  0.84706246492E+03  0.28048410562E+04  0.91731586580E+02 0.  0.
         11    1    3    3    0    0  0.57594860086E+02 -0.43788368873E+03  0.16665198178E+03  0.47205103093E+03  0.00000000000E+00 0. -1.
        -11    1    3    3    0    0  0.15336096173E+03 -0.22260798036E+04  0.68041048315E+03  0.23327900253E+04  0.00000000000E+00 0.  1.
         22    1    1    2    0    0 -0.21095582182E+03  0.26639634923E+04  0.70426667874E+03  0.27635476117E+04  0.00000000000E+00 0.  1.
<mgrwt>
<rscale>  0 0.53479277E+04</rscale>
<asrwt>0</asrwt>
<pdfrwt beam="1">  1        2 0.54767060E+00 0.53479277E+04</pdfrwt>
<pdfrwt beam="2">  1       -2 0.30900458E+00 0.53479277E+04</pdfrwt>
<totfact> 0.14586523E-02</totfact>
</mgrwt>
</event>
<event>
 6    1  0.1798983E-005  0.3705152E+04  0.7818608E-02  0.8066821E-01
          2   -1    0    0  501    0  0.00000000000E+00  0.00000000000E+00  0.23742880035E+04  0.23742880035E+04  0.00000000000E+00 0. -1.
         -2   -1    0    0    0  501 -0.00000000000E+00 -0.00000000000E+00 -0.14455020505E+04  0.14455020505E+04  0.00000000000E+00 0.  1.
         23    2    1    2    0    0  0.23951397761E+03 -0.74876599678E+03 -0.12633937212E+04  0.14909128165E+04  0.92950892167E+02 0.  0.
         13    1    3    3    0    0  0.84998535497E+02 -0.25824459731E+03 -0.35637789013E+03  0.44824125607E+03  0.00000000000E+00 0. -1.
        -13    1    3    3    0    0  0.15451544212E+03 -0.49052139947E+03 -0.90701583104E+03  0.10426715604E+04  0.00000000000E+00 0.  1.
         22    1    1    2    0    0 -0.23951397761E+03  0.74876599678E+03  0.21921796742E+04  0.23288772375E+04  0.00000000000E+00 0. -1.
<mgrwt>
<rscale>  0 0.37051522E+04</rscale>
<asrwt>0</asrwt>
<pdfrwt beam="1">  1        2 0.36527508E+00 0.37051522E+04</pdfrwt>
<pdfrwt beam="2">  1       -2 0.22238493E+00 0.37051522E+04</pdfrwt>
<totfact> 0.31723594E-01</totfact>
</mgrwt>
</event>
<event>
 6    1  0.1614874E-005  0.3070898E+04  0.7818608E-02  0.8223770E-01
         -1   -1    0    0    0  501 -0.00000000000E+00  0.00000000000E+00  0.53261855679E+03  0.53261855679E+03  0.00000000000E+00 0.  1.
          1   -1    0    0  501    0  0.00000000000E+00 -0.00000000000E+00 -0.44264379559E+04  0.44264379559E+04  0.00000000000E+00 0. -1.
         23    2    1    2    0    0  0.12728069735E+04 -0.59799149298E+03 -0.95759176989E+03  0.17034361251E+04  0.84149966918E+02 0.  0.
         13    1    3    3    0    0  0.93942899619E+03 -0.44350563564E+03 -0.75124420266E+03  0.12820264973E+04  0.00000000000E+00 0. -1.
        -13    1    3    3    0    0  0.33337797734E+03 -0.15448585734E+03 -0.20634756723E+03  0.42140962779E+03  0.00000000000E+00 0.  1.
         22    1    1    2    0    0 -0.12728069735E+04  0.59799149298E+03 -0.29362276292E+04  0.32556203876E+04  0.00000000000E+00 0. -1.
<mgrwt>
<rscale>  0 0.30708976E+04</rscale>
<asrwt>0</asrwt>
<pdfrwt beam="1">  1        1 0.68099046E+00 0.30708976E+04</pdfrwt>
<pdfrwt beam="2">  1       -1 0.81941315E-01 0.30708976E+04</pdfrwt>
<totfact> 0.47898997E-02</totfact>
</mgrwt>
</event>
<event>
 6    1  0.1614874E-005  0.3654160E+04  0.7818608E-02  0.8078197E-01
         -2   -1    0    0    0  501 -0.00000000000E+00  0.00000000000E+00  0.75320316521E+03  0.75320316521E+03  0.00000000000E+00 0.  1.
          2   -1    0    0  501    0  0.00000000000E+00 -0.00000000000E+00 -0.44320334308E+04  0.44320334308E+04  0.00000000000E+00 0. -1.
         23    2    1    2    0    0  0.38558031861E+03 -0.16701391013E+04 -0.27335151442E+04  0.32277745967E+04  0.91580585605E+02 0.  0.
         13    1    3    3    0    0  0.34361808383E+03 -0.13818110975E+04 -0.22214941320E+04  0.26386571348E+04  0.00000000000E+00 0. -1.
        -13    1    3    3    0    0  0.41962234780E+02 -0.28832800381E+03 -0.51202101224E+03  0.58911746189E+03  0.00000000000E+00 0.  1.
         22    1    1    2    0    0 -0.38558031861E+03  0.16701391013E+04 -0.94531512136E+03  0.19574619993E+04  0.00000000000E+00 0.  1.
<mgrwt>
<rscale>  0 0.36541602E+04</rscale>
<asrwt>0</asrwt>
<pdfrwt beam="1">  1        2 0.68185131E+00 0.36541602E+04</pdfrwt>
<pdfrwt beam="2">  1       -2 0.11587741E+00 0.36541602E+04</pdfrwt>
<totfact> 0.66877798E-02</totfact>
</mgrwt>
</event>
<event>
 6    1  0.1614874E-005  0.1548274E+04  0.7818608E-02  0.8852971E-01
         -2   -1    0    0    0  501 -0.00000000000E+00  0.00000000000E+00  0.26034920167E+04  0.26034920167E+04  0.00000000000E+00 0.  1.
          2   -1    0    0  501    0  0.00000000000E+00 -0.00000000000E+00 -0.23018631483E+03  0.23018631483E+03  0.00000000000E+00 0. -1.
         23    2    1    2    0    0 -0.31187546641E+03 -0.89053891479E+02  0.24717176834E+04  0.24947361238E+04  0.95515018290E+02 0.  0.
         11    1    3    3    0    0 -0.20089955602E+03 -0.10340142164E+03  0.16059217172E+04  0.16217388962E+04  0.00000000000E+00 0.  1.
        -11    1    3    3    0    0 -0.11097591039E+03  0.14347530160E+02  0.86579596616E+03  0.87299722756E+03  0.00000000000E+00 0. -1.
         22    1    1    2    0    0  0.31187546641E+03  0.89053891479E+02 -0.98411981476E+02  0.33894220781E+03  0.00000000000E+00 0. -1.
<mgrwt>
<rscale>  0 0.15482742E+04</rscale>
<asrwt>0</asrwt>
<pdfrwt beam="1">  1        2 0.35413281E-01 0.15482742E+04</pdfrwt>
<pdfrwt beam="2">  1       -2 0.40053721E+00 0.15482742E+04</pdfrwt>
<totfact> 0.10555115E+00</totfact>
</mgrwt>
</event>
<event>
 6    1  0.1614874E-005  0.1464751E+04  0.7818608E-02  0.8908238E-01
         -1   -1    0    0    0  501 -0.00000000000E+00  0.00000000000E+00  0.14632100155E+04  0.14632100155E+04  0.00000000000E+00 0.  1.
          1   -1    0    0  501    0  0.00000000000E+00 -0.00000000000E+00 -0.36657326973E+03  0.36657326973E+03  0.00000000000E+00 0. -1.
         23    2    1    2    0    0  0.52055437460E+02  0.31095086108E+03  0.13724922541E+04  0.14108602994E+04  0.85974358663E+02 0.  0.
         13    1    3    3    0    0  0.40457237516E+02  0.11161486607E+03  0.67454384385E+03  0.68491171962E+03  0.00000000000E+00 0. -1.
        -13    1    3    3    0    0  0.11598199944E+02  0.19933599501E+03  0.69794841021E+03  0.72594857976E+03  0.00000000000E+00 0.  1.
         22    1    1    2    0    0 -0.52055437460E+02 -0.31095086108E+03 -0.27585550832E+03  0.41892298582E+03  0.00000000000E+00 0. -1.
<mgrwt>
<rscale>  0 0.14647507E+04</rscale>
<asrwt>0</asrwt>
<pdfrwt beam="1">  1        1 0.56395888E-01 0.14647507E+04</pdfrwt>
<pdfrwt beam="2">  1       -1 0.22510923E+00 0.14647507E+04</pdfrwt>
<totfact> 0.66498447E+00</totfact>
</mgrwt>
</event>
<event>
 6    1  0.1614874E-005  0.2348768E+04  0.7818608E-02  0.8458937E-01
          1   -1    0    0  501    0  0.00000000000E+00  0.00000000000E+00  0.11075108661E+04  0.11075108661E+04  0.00000000000E+00 0. -1.
         -1   -1    0    0    0  501 -0.00000000000E+00 -0.00000000000E+00 -0.12452949150E+04  0.12452949150E+04  0.00000000000E+00 0.  1.
         23    2    1    2    0    0 -0.40754585027E+03 -0.53231160650E+03  0.89455861838E+03  0.11218790371E+04  0.94489077140E+02 0.  0.
         13    1    3    3    0    0 -0.20949551525E+03 -0.23578045349E+03  0.48848315317E+03  0.58146073305E+03  0.00000000000E+00 0. -1.
        -13    1    3    3    0    0 -0.19805033503E+03 -0.29653115302E+03  0.40607546522E+03  0.54041830406E+03  0.00000000000E+00 0.  1.
         22    1    1    2    0    0  0.40754585027E+03  0.53231160650E+03 -0.10323426673E+04  0.12309267440E+04  0.00000000000E+00 0.  1.
<mgrwt>
<rscale>  0 0.23487679E+04</rscale>
<asrwt>0</asrwt>
<pdfrwt beam="1">  1        1 0.17038629E+00 0.23487679E+04</pdfrwt>
<pdfrwt beam="2">  1       -1 0.19158383E+00 0.23487679E+04</pdfrwt>
<totfact> 0.19401619E+00</totfact>
</mgrwt>
</event>
<event>
 6    1  0.1614874E-005  0.2220616E+04  0.7818608E-02  0.8509896E-01
         -2   -1    0    0    0  501 -0.00000000000E+00  0.00000000000E+00  0.45482949913E+03  0.45482949913E+03  0.00000000000E+00 0. -1.
          2   -1    0    0  501    0  0.00000000000E+00 -0.00000000000E+00 -0.27104311463E+04  0.27104311463E+04  0.00000000000E+00 0.  1.
         23    2    1    2    0    0 -0.10237339262E+04  0.15879668151E+03 -0.56793492377E+03  0.11849913438E+04  0.91688982797E+02 0.  0.
         11    1    3    3    0    0 -0.48593047715E+03  0.98161182955E+02 -0.31703307935E+03  0.58845052456E+03  0.00000000000E+00 0.  1.
        -11    1    3    3    0    0 -0.53780344904E+03  0.60635498557E+02 -0.25090184443E+03  0.59654081924E+03  0.00000000000E+00 0. -1.
         22    1    1    2    0    0  0.10237339262E+04 -0.15879668151E+03 -0.16876667234E+04  0.19802693016E+04  0.00000000000E+00 0.  1.
<mgrwt>
<rscale>  0 0.22206162E+04</rscale>
<asrwt>0</asrwt>
<pdfrwt beam="1">  1        2 0.41698941E+00 0.22206162E+04</pdfrwt>
<pdfrwt beam="2">  1       -2 0.69973769E-01 0.22206162E+04</pdfrwt>
<totfact> 0.44456915E+00</totfact>
</mgrwt>
</event>
<event>
 6    1  0.1614874E-005  0.3900047E+04  0.7818608E-02  0.8025020E-01
          2   -1    0    0  501    0  0.00000000000E+00  0.00000000000E+00  0.24162081422E+04  0.24162081422E+04  0.00000000000E+00 0.  1.
         -2   -1    0    0    0  501 -0.00000000000E+00 -0.00000000000E+00 -0.15737844276E+04  0.15737844276E+04  0.00000000000E+00 0. -1.
         23    2    1    2    0    0  0.96673882784E+03  0.48605483427E+03 -0.12372733590E+04  0.16456433677E+04  0.80395680158E+02 0.  0.
         11    1    3    3    0    0  0.77995416545E+03  0.41695023437E+03 -0.10419783940E+04  0.13667095418E+04  0.00000000000E+00 0.  1.
        -11    1    3    3    0    0  0.18678466239E+03  0.69104599904E+02 -0.19529496505E+03  0.27893382586E+03  0.00000000000E+00 0. -1.
         22    1    1    2    0    0 -0.96673882784E+03 -0.48605483427E+03  0.20796970736E+04  0.23443492021E+04  0.00000000000E+00 0.  1.
<mgrwt>
<rscale>  0 0.39000465E+04</rscale>
<asrwt>0</asrwt>
<pdfrwt beam="1">  1        2 0.37172433E+00 0.39000465E+04</pdfrwt>
<pdfrwt beam="2">  1       -2 0.24212068E+00 0.39000465E+04</pdfrwt>
<totfact> 0.22241555E-01</totfact>
</mgrwt>
</event>
<event>
 6    1  0.1614874E-005  0.2458944E+04  0.7818608E-02  0.8417760E-01
         -1   -1    0    0    0  501 -0.00000000000E+00  0.00000000000E+00  0.83754136921E+03  0.83754136921E+03  0.00000000000E+00 0.  1.
          1   -1    0    0  501    0  0.00000000000E+00 -0.00000000000E+00 -0.18048081997E+04  0.18048081997E+04  0.00000000000E+00 0. -1.
         23    2    1    2    0    0 -0.31834187436E+03 -0.58875339844E+03  0.62178591832E+03  0.91809298949E+03  0.91131202078E+02 0.  0.
         13    1    3    3    0    0 -0.21946986534E+03 -0.34618595049E+03  0.33214187107E+03  0.52756985947E+03  0.00000000000E+00 0. -1.
        -13    1    3    3    0    0 -0.98872009020E+02 -0.24256744795E+03  0.28964404725E+03  0.39052313002E+03  0.00000000000E+00 0.  1.
         22    1    1    2    0    0  0.31834187436E+03  0.58875339844E+03 -0.15890527488E+04  0.17242565794E+04  0.00000000000E+00 0. -1.
<mgrwt>
<rscale>  0 0.24589441E+04</rscale>
<asrwt>0</asrwt>
<pdfrwt beam="1">  1        1 0.27766280E+00 0.24589441E+04</pdfrwt>
<pdfrwt beam="2">  1       -1 0.12885252E+00 0.24589441E+04</pdfrwt>
<totfact> 0.18694976E+00</totfact>
</mgrwt>
</event>
<event>
 6    1  0.1614874E-005  0.2004220E+04  0.7818608E-02  0.8604650E-01
         -1   -1    0    0    0  501 -0.00000000000E+00  0.00000000000E+00  0.60371107255E+03  0.60371107255E+03  0.00000000000E+00 0.  1.
          1   -1    0    0  501    0  0.00000000000E+00 -0.00000000000E+00 -0.16634181951E+04  0.16634181951E+04  0.00000000000E+00 0. -1.
         23    2    1    2    0    0 -0.75887195543E+03 -0.57127803602E+03 -0.88497993770E+03  0.13013265816E+04  0.89532914433E+02 0.  0.
         11    1    3    3    0    0 -0.33688712204E+03 -0.21053253254E+03 -0.40709572449E+03  0.56880911487E+03  0.00000000000E+00 0. -1.
        -11    1    3    3    0    0 -0.42198483338E+03 -0.36074550348E+03 -0.47788421321E+03  0.73251746677E+03  0.00000000000E+00 0.  1.
         22    1    1    2    0    0  0.75887195543E+03  0.57127803602E+03 -0.17472718483E+03  0.96580268600E+03  0.00000000000E+00 0.  1.
<mgrwt>
<rscale>  0 0.20042195E+04</rscale>
<asrwt>0</asrwt>
<pdfrwt beam="1">  1        1 0.25591049E+00 0.20042195E+04</pdfrwt>
<pdfrwt beam="2">  1       -1 0.92878628E-01 0.20042195E+04</pdfrwt>
<totfact> 0.52724775E+00</totfact>
</mgrwt>
</event>
<event>
 6    1  0.1614874E-005  0.1721965E+04  0.7818608E-02  0.8748935E-01
         -2   -1    0    0    0  501 -0.00000000000E+00  0.00000000000E+00  0.61493700433E+03  0.61493700433E+03  0.00000000000E+00 0.  1.
          2   -1    0    0  501    0  0.00000000000E+00 -0.00000000000E+00 -0.12054746480E+04  0.12054746480E+04  0.00000000000E+00 0. -1.
         23    2    1    2    0    0  0.23087461405E+03  0.82610279230E+03 -0.33584442221E+03  0.92563930815E+03  0.90927124686E+02 0.  0.
         11    1    3    3    0    0  0.80428113845E+02  0.26282153597E+03 -0.15324640050E+03  0.31468762373E+03  0.00000000000E+00 0.  1.
        -11    1    3    3    0    0  0.15044650021E+03  0.56328125633E+03 -0.18259802171E+03  0.61095168441E+03  0.00000000000E+00 0. -1.
         22    1    1    2    0    0 -0.23087461405E+03 -0.82610279230E+03 -0.25469322146E+03  0.89477234418E+03  0.00000000000E+00 0.  1.
<mgrwt>
<rscale>  0 0.17219651E+04</rscale>
<asrwt>0</asrwt>
<pdfrwt beam="1">  1        2 0.18545764E+00 0.17219651E+04</pdfrwt>
<pdfrwt beam="2">  1       -2 0.94605693E-01 0.17219651E+04</pdfrwt>
<totfact> 0.16808312E+01</totfact>
</mgrwt>
</event>
<event>
 6    1  0.1614874E-005  0.2121958E+04  0.7818608E-02  0.8551632E-01
          2   -1    0    0  501    0  0.00000000000E+00  0.00000000000E+00  0.95073645099E+03  0.95073645099E+03  0.00000000000E+00 0. -1.
         -2   -1    0    0    0  501 -0.00000000000E+00 -0.00000000000E+00 -0.11840042632E+04  0.11840042632E+04  0.00000000000E+00 0.  1.
         23    2    1    2    0    0 -0.67646813362E+03  0.38341143128E+03 -0.83871898652E+03  0.11492537351E+04  0.11278806559E+03 0.  0.
         11    1    3    3    0    0 -0.14121461507E+03  0.11102072976E+03 -0.13895585891E+03  0.22710328195E+03  0.00000000000E+00 0. -1.
        -11    1    3    3    0    0 -0.53525351855E+03  0.27239070152E+03 -0.69976312762E+03  0.92215045311E+03  0.00000000000E+00 0.  1.
         22    1    1    2    0    0  0.67646813362E+03 -0.38341143128E+03  0.60545117435E+03  0.98548697909E+03  0.00000000000E+00 0. -1.
<mgrwt>
<rscale>  0 0.21219576E+04</rscale>
<asrwt>0</asrwt>
<pdfrwt beam="1">  1        2 0.14626715E+00 0.21219576E+04</pdfrwt>
<pdfrwt beam="2">  1       -2 0.18215450E+00 0.21219576E+04</pdfrwt>
<totfact> 0.43703480E+00</totfact>
</mgrwt>
</event>
<event>
 6    1  0.1614874E-005  0.8200385E+03  0.7818608E-02  0.9531457E-01
          2   -1    0    0  501    0  0.00000000000E+00  0.00000000000E+00  0.16784295151E+04  0.16784295151E+04  0.00000000000E+00 0. -1.
         -2   -1    0    0    0  501 -0.00000000000E+00 -0.00000000000E+00 -0.10016255157E+03  0.10016255157E+03  0.00000000000E+00 0.  1.
         23    2    1    2    0    0  0.28910830862E+03  0.16133268588E+03  0.29269039846E+03  0.45106844944E+03  0.90461191073E+02 0.  0.
         13    1    3    3    0    0  0.19226658313E+03  0.15224173111E+03  0.22232728857E+03  0.33101874104E+03  0.00000000000E+00 0. -1.
        -13    1    3    3    0    0  0.96841725487E+02  0.90909547704E+01  0.70363109886E+02  0.12004970840E+03  0.00000000000E+00 0.  1.
         22    1    1    2    0    0 -0.28910830862E+03 -0.16133268588E+03  0.12855765650E+04  0.13275236172E+04  0.00000000000E+00 0. -1.
<mgrwt>
<rscale>  0 0.82003849E+03</rscale>
<asrwt>0</asrwt>
<pdfrwt beam="1">  1        2 0.25821990E+00 0.82003849E+03</pdfrwt>
<pdfrwt beam="2">  1       -2 0.15409625E-01 0.82003849E+03</pdfrwt>
<totfact> 0.34135163E+02</totfact>
</mgrwt>
</event>
<event>
 6    1  0.1614874E-005  0.2256423E+04  0.7818608E-02  0.8495304E-01
          2   -1    0    0  501    0  0.00000000000E+00  0.00000000000E+00  0.30479517199E+04  0.30479517199E+04  0.00000000000E+00 0. -1.
         -2   -1    0    0    0  501 -0.00000000000E+00 -0.00000000000E+00 -0.41761195208E+03  0.41761195208E+03  0.00000000000E+00 0.  1.
         23    2    1    2    0    0 -0.56199700825E+03 -0.89145342589E+03  0.19281486383E+04  0.21992295020E+04  0.91232576409E+02 0.  0.
         11    1    3    3    0    0 -0.43617205419E+03 -0.64833281694E+03  0.13578821857E+04  0.15666606310E+04  0.00000000000E+00 0.  1.
        -11    1    3    3    0    0 -0.12582495407E+03 -0.24312060895E+03  0.57026645262E+03  0.63256887099E+03  0.00000000000E+00 0. -1.
         22    1    1    2    0    0  0.56199700825E+03  0.89145342589E+03  0.70219112948E+03  0.12663341700E+04  0.00000000000E+00 0.  1.
<mgrwt>
<rscale>  0 0.22564229E+04</rscale>
<asrwt>0</asrwt>
<pdfrwt beam="1">  1        2 0.46891563E+00 0.22564229E+04</pdfrwt>
<pdfrwt beam="2">  1       -2 0.64247995E-01 0.22564229E+04</pdfrwt>
<totfact> 0.33114496E+00</totfact>
</mgrwt>
</event>
<event>
 6    1  0.1614874E-005  0.3779890E+04  0.7818608E-02  0.8050484E-01
          2   -1    0    0  501    0  0.00000000000E+00  0.00000000000E+00  0.16930928758E+04  0.16930928758E+04  0.00000000000E+00 0. -1.
         -2   -1    0    0    0  501 -0.00000000000E+00 -0.00000000000E+00 -0.21096845272E+04  0.21096845272E+04  0.00000000000E+00 0.  1.
         23    2    1    2    0    0  0.40991486016E+03  0.14826746830E+04  0.89432043412E+03  0.17816774787E+04  0.90615622067E+02 0.  0.
         11    1    3    3    0    0  0.27136607390E+03  0.11162051503E+04  0.68568356988E+03  0.13378024674E+04  0.00000000000E+00 0. -1.
        -11    1    3    3    0    0  0.13854878626E+03  0.36646953270E+03  0.20863686423E+03  0.44387501134E+03  0.00000000000E+00 0.  1.
         22    1    1    2    0    0 -0.40991486016E+03 -0.14826746830E+04 -0.13109120855E+04  0.20210999243E+04  0.00000000000E+00 0.  1.
<mgrwt>
<rscale>  0 0.37798899E+04</rscale>
<asrwt>0</asrwt>
<pdfrwt beam="1">  1        2 0.26047583E+00 0.37798899E+04</pdfrwt>
<pdfrwt beam="2">  1       -2 0.32456685E+00 0.37798899E+04</pdfrwt>
<totfact> 0.17824749E-01</totfact>
</mgrwt>
</event>
<event>
 6    1  0.1614874E-005  0.1869222E+04  0.7818608E-02  0.8670330E-01
          1   -1    0    0  501    0  0.00000000000E+00  0.00000000000E+00  0.20533738367E+04  0.20533738367E+04  0.00000000000E+00 0. -1.
         -1   -1    0    0    0  501 -0.00000000000E+00 -0.00000000000E+00 -0.42539618634E+03  0.42539618634E+03  0.00000000000E+00 0.  1.
         23    2    1    2    0    0 -0.55557909732E+03 -0.13183540411E+02 -0.17656277583E+03  0.59059416025E+03  0.93728913336E+02 0.  0.
         13    1    3    3    0    0 -0.35720874907E+03 -0.81266791373E+01 -0.65702622825E+02  0.36329184958E+03  0.00000000000E+00 0. -1.
        -13    1    3    3    0    0 -0.19837034824E+03 -0.50568612737E+01 -0.11086015300E+03  0.22730231066E+03  0.00000000000E+00 0.  1.
         22    1    1    2    0    0  0.55557909732E+03  0.13183540411E+02  0.18045404262E+04  0.18881758628E+04  0.00000000000E+00 0. -1.
<mgrwt>
<rscale>  0 0.18692217E+04</rscale>
<asrwt>0</asrwt>
<pdfrwt beam="1">  1        1 0.31590366E+00 0.18692217E+04</pdfrwt>
<pdfrwt beam="2">  1       -1 0.65445569E-01 0.18692217E+04</pdfrwt>
<totfact> 0.60868595E+00</totfact>
</mgrwt>
</event>
<event>
 6    1  0.1614874E-005  0.2553416E+04  0.7818608E-02  0.8384199E-01
          2   -1    0    0  501    0  0.00000000000E+00  0.00000000000E+00  0.36069253058E+04  0.36069253058E+04  0.00000000000E+00 0. -1.
         -2   -1    0    0    0  501 -0.00000000000E+00 -0.00000000000E+00 -0.45190389663E+03  0.45190389663E+03  0.00000000000E+00 0.  1.
         23    2    1    2    0    0 -0.30796901247E+03 -0.12006575329E+04  0.11043256855E+04  0.16626287987E+04  0.91519826235E+02 0.  0.
         11    1    3    3    0    0 -0.28102225371E+03 -0.11617105911E+04  0.10547165667E+04  0.15940426722E+04  0.00000000000E+00 0.  1.
        -11    1    3    3    0    0 -0.26946758761E+02 -0.38946941733E+02  0.49609118797E+02  0.68586126482E+02  0.00000000000E+00 0. -1.
         22    1    1    2    0    0  0.30796901247E+03  0.12006575329E+04  0.20506957236E+04  0.23962004037E+04  0.00000000000E+00 0.  1.
<mgrwt>
<rscale>  0 0.25534162E+04</rscale>
<asrwt>0</asrwt>
<pdfrwt beam="1">  1        2 0.55491157E+00 0.25534162E+04</pdfrwt>
<pdfrwt beam="2">  1       -2 0.69523679E-01 0.25534162E+04</pdfrwt>
<totfact> 0.11450277E+00</totfact>
</mgrwt>
</event>
<event>
 6    1  0.1614874E-005  0.2099737E+04  0.7818608E-02  0.8561359E-01
          1   -1    0    0  501    0  0.00000000000E+00  0.00000000000E+00  0.72540231034E+03  0.72540231034E+03  0.00000000000E+00 0. -1.
         -1   -1    0    0    0  501 -0.00000000000E+00 -0.00000000000E+00 -0.15194660271E+04  0.15194660271E+04  0.00000000000E+00 0.  1.
         23    2    1    2    0    0 -0.75954820270E+03 -0.31050037377E+03  0.29899736934E+03  0.87808141467E+03  0.91124034078E+02 0.  0.
         13    1    3    3    0    0 -0.36727970864E+03 -0.19330937424E+03  0.12723681811E+03  0.43411070757E+03  0.00000000000E+00 0.  1.
        -13    1    3    3    0    0 -0.39226849406E+03 -0.11719099953E+03  0.17176055123E+03  0.44397070710E+03  0.00000000000E+00 0. -1.
         22    1    1    2    0    0  0.75954820270E+03  0.31050037377E+03 -0.10930610861E+04  0.13667869228E+04  0.00000000000E+00 0.  1.
<mgrwt>
<rscale>  0 0.20997373E+04</rscale>
<asrwt>0</asrwt>
<pdfrwt beam="1">  1        1 0.11160036E+00 0.20997373E+04</pdfrwt>
<pdfrwt beam="2">  1       -1 0.23376400E+00 0.20997373E+04</pdfrwt>
<totfact> 0.21141514E+00</totfact>
</mgrwt>
</event>
<event>
 6    1  0.1614874E-005  0.3151492E+04  0.7818608E-02  0.8201747E-01
         -2   -1    0    0    0  501 -0.00000000000E+00  0.00000000000E+00  0.12357673032E+04  0.12357673032E+04  0.00000000000E+00 0.  1.
          2   -1    0    0  501    0  0.00000000000E+00 -0.00000000000E+00 -0.20092575051E+04  0.20092575051E+04  0.00000000000E+00 0. -1.
         23    2    1    2    0    0  0.89431739775E+03  0.27594468314E+03 -0.16906865048E+04  0.19346057402E+04  0.91265747561E+02 0.  0.
         13    1    3    3    0    0  0.40981892528E+03  0.14862070657E+03 -0.87001181526E+03  0.97311881322E+03  0.00000000000E+00 0.  1.
        -13    1    3    3    0    0  0.48449847246E+03  0.12732397657E+03 -0.82067468949E+03  0.96148692701E+03  0.00000000000E+00 0. -1.
         22    1    1    2    0    0 -0.89431739775E+03 -0.27594468314E+03  0.91719630283E+03  0.13104190681E+04  0.00000000000E+00 0.  1.
<mgrwt>
<rscale>  0 0.31514915E+04</rscale>
<asrwt>0</asrwt>
<pdfrwt beam="1">  1        2 0.30911654E+00 0.31514915E+04</pdfrwt>
<pdfrwt beam="2">  1       -2 0.19011805E+00 0.31514915E+04</pdfrwt>
<totfact> 0.86368247E-01</totfact>
</mgrwt>
</event>
<event>
 6    1  0.1614874E-005  0.2017871E+04  0.7818608E-02  0.8598311E-01
         -1   -1    0    0    0  501 -0.00000000000E+00  0.00000000000E+00  0.42644793062E+03  0.42644793062E+03  0.00000000000E+00 0.  1.
          1   -1    0    0  501    0  0.00000000000E+00 -0.00000000000E+00 -0.23870452769E+04  0.23870452769E+04  0.00000000000E+00 0. -1.
         23    2    1    2    0    0 -0.40534024568E+03 -0.19514751334E+03  0.27294520471E+03  0.53509561408E+03  0.97185208238E+02 0.  0.
         11    1    3    3    0    0 -0.49140353585E+02 -0.53105122039E+02  0.72357599891E+02  0.10232570840E+03  0.00000000000E+00 0. -1.
        -11    1    3    3    0    0 -0.35619989209E+03 -0.14204239131E+03  0.20058760482E+03  0.43276990568E+03  0.00000000000E+00 0.  1.
         22    1    1    2    0    0  0.40534024568E+03  0.19514751334E+03 -0.22335425510E+04  0.22783975935E+04  0.00000000000E+00 0. -1.
<mgrwt>
<rscale>  0 0.20178707E+04</rscale>
<asrwt>0</asrwt>
<pdfrwt beam="1">  1        1 0.36723773E+00 0.20178707E+04</pdfrwt>
<pdfrwt beam="2">  1       -1 0.65607375E-01 0.20178707E+04</pdfrwt>
<totfact> 0.35382045E+00</totfact>
</mgrwt>
</event>
<event>
 6    1  0.1614874E-005  0.2450483E+04  0.7818608E-02  0.8420842E-01
          3   -1    0    0  501    0  0.00000000000E+00  0.00000000000E+00  0.38169026620E+04  0.38169026620E+04  0.00000000000E+00 0. -1.
         -3   -1    0    0    0  501 -0.00000000000E+00 -0.00000000000E+00 -0.39330763066E+03  0.39330763066E+03  0.00000000000E+00 0.  1.
         23    2    1    2    0    0 -0.66807725341E+03  0.23541447703E+03  0.34281375840E+04  0.35018545717E+04  0.95451317591E+02 0.  0.
         11    1    3    3    0    0 -0.37282628276E+03  0.96803138351E+02  0.20245791596E+04  0.20608956932E+04  0.00000000000E+00 0.  1.
        -11    1    3    3    0    0 -0.29525097065E+03  0.13861133868E+03  0.14035584244E+04  0.14409588786E+04  0.00000000000E+00 0. -1.
         22    1    1    2    0    0  0.66807725341E+03 -0.23541447703E+03 -0.45425527423E+01  0.70835572088E+03  0.00000000000E+00 0.  1.
<mgrwt>
<rscale>  0 0.24504832E+04</rscale>
<asrwt>0</asrwt>
<pdfrwt beam="1">  1        3 0.58721577E+00 0.24504832E+04</pdfrwt>
<pdfrwt beam="2">  1       -3 0.60508869E-01 0.24504832E+04</pdfrwt>
<totfact> 0.81229767E-03</totfact>
</mgrwt>
</event>
<event>
 6    1  0.1614874E-005  0.1590948E+04  0.7818608E-02  0.8826128E-01
         -1   -1    0    0    0  501 -0.00000000000E+00  0.00000000000E+00  0.83243968775E+03  0.83243968775E+03  0.00000000000E+00 0.  1.
          1   -1    0    0  501    0  0.00000000000E+00 -0.00000000000E+00 -0.76014999034E+03  0.76014999034E+03  0.00000000000E+00 0. -1.
         23    2    1    2    0    0  0.28854671932E+03 -0.33720447509E+03  0.69398555483E+03  0.82873641575E+03  0.90675405872E+02 0.  0.
         11    1    3    3    0    0  0.13017624274E+03 -0.87480448064E+02  0.25788057571E+03  0.30182954510E+03  0.00000000000E+00 0. -1.
        -11    1    3    3    0    0  0.15837047658E+03 -0.24972402702E+03  0.43610497912E+03  0.52690687065E+03  0.00000000000E+00 0.  1.
         22    1    1    2    0    0 -0.28854671932E+03  0.33720447509E+03 -0.62169585742E+03  0.76385326233E+03  0.00000000000E+00 0. -1.
<mgrwt>
<rscale>  0 0.15909482E+04</rscale>
<asrwt>0</asrwt>
<pdfrwt beam="1">  1        1 0.11694615E+00 0.15909482E+04</pdfrwt>
<pdfrwt beam="2">  1       -1 0.12806764E+00 0.15909482E+04</pdfrwt>
<totfact> 0.12131075E+01</totfact>
</mgrwt>
</event>
<event>
 6    1  0.1716963E-005  0.4095933E+04  0.7818608E-02  0.7985469E-01
          2   -1    0    0  501    0  0.00000000000E+00  0.00000000000E+00  0.28689275607E+04  0.28689275607E+04  0.00000000000E+00 0. -1.
         -2   -1    0    0    0  501 -0.00000000000E+00 -0.00000000000E+00 -0.14619280866E+04  0.14619280866E+04  0.00000000000E+00 0.  1.
         23    2    1    2    0    0  0.14117384953E+04  0.14112484331E+04  0.22567321842E+03  0.20113385766E+04  0.99633072004E+02 0.  0.
         13    1    3    3    0    0  0.42107601776E+03  0.42456425159E+03  0.21847651816E+02  0.59836204454E+03  0.00000000000E+00 0. -1.
        -13    1    3    3    0    0  0.99066247758E+03  0.98668418152E+03  0.20382556661E+03  0.14129765321E+04  0.00000000000E+00 0.  1.
         22    1    1    2    0    0 -0.14117384953E+04 -0.14112484331E+04  0.11813262557E+04  0.23195170707E+04  0.00000000000E+00 0. -1.
<mgrwt>
<rscale>  0 0.40959325E+04</rscale>
<asrwt>0</asrwt>
<pdfrwt beam="1">  1        2 0.44137347E+00 0.40959325E+04</pdfrwt>
<pdfrwt beam="2">  1       -2 0.22491201E+00 0.40959325E+04</pdfrwt>
<totfact> 0.15117017E-01</totfact>
</mgrwt>
</event>
<event>
 6    1  0.1614874E-005  0.4722623E+04  0.7818608E-02  0.7872781E-01
          1   -1    0    0  501    0  0.00000000000E+00  0.00000000000E+00  0.16905049974E+04  0.16905049974E+04  0.00000000000E+00 0. -1.
         -1   -1    0    0    0  501 -0.00000000000E+00 -0.00000000000E+00 -0.32982990573E+04  0.32982990573E+04  0.00000000000E+00 0.  1.
         23    2    1    2    0    0  0.10740236733E+04 -0.50010323775E+03 -0.29608409580E+04  0.31903697335E+04  0.90828182618E+02 0.  0.
         11    1    3    3    0    0  0.55730782300E+03 -0.21595920631E+03 -0.15506680647E+04  0.16618669728E+04  0.00000000000E+00 0. -1.
        -11    1    3    3    0    0  0.51671585035E+03 -0.28414403145E+03 -0.14101728933E+04  0.15285027607E+04  0.00000000000E+00 0.  1.
         22    1    1    2    0    0 -0.10740236733E+04  0.50010323775E+03  0.13530468981E+04  0.17984343212E+04  0.00000000000E+00 0. -1.
<mgrwt>
<rscale>  0 0.47226226E+04</rscale>
<asrwt>0</asrwt>
<pdfrwt beam="1">  1        1 0.26007769E+00 0.47226226E+04</pdfrwt>
<pdfrwt beam="2">  1       -1 0.50743062E+00 0.47226226E+04</pdfrwt>
<totfact> 0.47919603E-03</totfact>
</mgrwt>
</event>
<event>
 6    1  0.1614874E-005  0.1842013E+04  0.7818608E-02  0.8684271E-01
         -2   -1    0    0    0  501 -0.00000000000E+00  0.00000000000E+00  0.45339634255E+03  0.45339634255E+03  0.00000000000E+00 0.  1.
          2   -1    0    0  501    0  0.00000000000E+00 -0.00000000000E+00 -0.18708870445E+04  0.18708870445E+04  0.00000000000E+00 0. -1.
         23    2    1    2    0    0 -0.62865422430E+03 -0.18903692275E+03  0.10057036034E+03  0.67036365479E+03  0.91279463192E+02 0.  0.
         13    1    3    3    0    0 -0.35110597296E+03 -0.14433818648E+03  0.31777833291E+02  0.38094454585E+03  0.00000000000E+00 0. -1.
        -13    1    3    3    0    0 -0.27754825134E+03 -0.44698736273E+02  0.68792527048E+02  0.28941910894E+03  0.00000000000E+00 0.  1.
         22    1    1    2    0    0  0.62865422430E+03  0.18903692275E+03 -0.15180610623E+04  0.16539197323E+04  0.00000000000E+00 0. -1.
<mgrwt>
<rscale>  0 0.18420134E+04</rscale>
<asrwt>0</asrwt>
<pdfrwt beam="1">  1        2 0.28782878E+00 0.18420134E+04</pdfrwt>
<pdfrwt beam="2">  1       -2 0.69753283E-01 0.18420134E+04</pdfrwt>
<totfact> 0.13890372E+01</totfact>
</mgrwt>
</event>
<event>
 6    1  0.1614874E-005  0.1303041E+04  0.7818608E-02  0.9027157E-01
         -1   -1    0    0    0  501 -0.00000000000E+00  0.00000000000E+00  0.40869318479E+03  0.40869318479E+03  0.00000000000E+00 0.  1.
          1   -1    0    0  501    0  0.00000000000E+00 -0.00000000000E+00 -0.10386246684E+04  0.10386246684E+04  0.00000000000E+00 0. -1.
         23    2    1    2    0    0 -0.60745627850E+03 -0.86456839640E+02 -0.83805227943E+02  0.62589725292E+03  0.90808257156E+02 0.  0.
         11    1    3    3    0    0 -0.23648968682E+03 -0.62099799876E+02 -0.68040985531E+02  0.25379781880E+03  0.00000000000E+00 0.  1.
        -11    1    3    3    0    0 -0.37096659169E+03 -0.24357039764E+02 -0.15764242412E+02  0.37209943412E+03  0.00000000000E+00 0. -1.
         22    1    1    2    0    0  0.60745627850E+03  0.86456839640E+02 -0.54612625564E+03  0.82142060025E+03  0.00000000000E+00 0.  1.
<mgrwt>
<rscale>  0 0.13030408E+04</rscale>
<asrwt>0</asrwt>
<pdfrwt beam="1">  1        1 0.15978841E+00 0.13030408E+04</pdfrwt>
<pdfrwt beam="2">  1       -1 0.62875874E-01 0.13030408E+04</pdfrwt>
<totfact> 0.35588958E+01</totfact>
</mgrwt>
</event>
<event>
 6    1  0.1614874E-005  0.1579624E+04  0.7818608E-02  0.8833164E-01
         -2   -1    0    0    0  501 -0.00000000000E+00  0.00000000000E+00  0.51670575162E+03  0.51670575162E+03  0.00000000000E+00 0.  1.
          2   -1    0    0  501    0  0.00000000000E+00 -0.00000000000E+00 -0.12072693695E+04  0.12072693695E+04  0.00000000000E+00 0. -1.
         23    2    1    2    0    0 -0.89870902089E+02 -0.32610600572E+03  0.42932527705E+03  0.55411485468E+03  0.91110771392E+02 0.  0.
         11    1    3    3    0    0 -0.80010082423E+02 -0.13090316949E+03  0.16402789827E+03  0.22459386564E+03  0.00000000000E+00 0. -1.
        -11    1    3    3    0    0 -0.98608196660E+01 -0.19520283623E+03  0.26529737878E+03  0.32952098904E+03  0.00000000000E+00 0.  1.
         22    1    1    2    0    0  0.89870902089E+02  0.32610600572E+03 -0.11198888950E+04  0.11698602665E+04  0.00000000000E+00 0. -1.
<mgrwt>
<rscale>  0 0.15796240E+04</rscale>
<asrwt>0</asrwt>
<pdfrwt beam="1">  1        2 0.18573375E+00 0.15796240E+04</pdfrwt>
<pdfrwt beam="2">  1       -2 0.79493193E-01 0.15796240E+04</pdfrwt>
<totfact> 0.25256848E+01</totfact>
</mgrwt>
</event>
<event>
 6    1  0.1614874E-005  0.1599508E+04  0.7818608E-02  0.8820850E-01
         -2   -1    0    0    0  501 -0.00000000000E+00  0.00000000000E+00  0.92026646096E+03  0.92026646096E+03  0.00000000000E+00 0.  1.
          2   -1    0    0  501    0  0.00000000000E+00 -0.00000000000E+00 -0.69502319257E+03  0.69502319257E+03  0.00000000000E+00 0. -1.
         23    2    1    2    0    0  0.24179113590E+03  0.34781232734E+02  0.87952954046E+03  0.91688918577E+03  0.86260529122E+02 0.  0.
         13    1    3    3    0    0  0.24202547226E+02 -0.39610644064E+01  0.21892848333E+03  0.22029783053E+03  0.00000000000E+00 0.  1.
        -13    1    3    3    0    0  0.21758858867E+03  0.38742297140E+02  0.66060105713E+03  0.69659135524E+03  0.00000000000E+00 0. -1.
         22    1    1    2    0    0 -0.24179113590E+03 -0.34781232734E+02 -0.65428627207E+03  0.69840046776E+03  0.00000000000E+00 0. -1.
<mgrwt>
<rscale>  0 0.15995081E+04</rscale>
<asrwt>0</asrwt>
<pdfrwt beam="1">  1        2 0.10692664E+00 0.15995081E+04</pdfrwt>
<pdfrwt beam="2">  1       -2 0.14157946E+00 0.15995081E+04</pdfrwt>
<totfact> 0.13823546E+01</totfact>
</mgrwt>
</event>
<event>
 6    1  0.1614874E-005  0.1475315E+04  0.7818608E-02  0.8901036E-01
         -2   -1    0    0    0  501 -0.00000000000E+00  0.00000000000E+00  0.72711643878E+03  0.72711643878E+03  0.00000000000E+00 0.  1.
          2   -1    0    0  501    0  0.00000000000E+00 -0.00000000000E+00 -0.74835109417E+03  0.74835109417E+03  0.00000000000E+00 0. -1.
         23    2    1    2    0    0  0.22713186698E+03 -0.75781824534E+01 -0.70947067615E+03  0.75068126506E+03  0.92343963226E+02 0.  0.
         11    1    3    3    0    0  0.13341044898E+03 -0.11000511001E+02 -0.27057850108E+03  0.30188091093E+03  0.00000000000E+00 0. -1.
        -11    1    3    3    0    0  0.93721418006E+02  0.34223285479E+01 -0.43889217508E+03  0.44880035413E+03  0.00000000000E+00 0.  1.
         22    1    1    2    0    0 -0.22713186698E+03  0.75781824534E+01  0.68823602076E+03  0.72478626789E+03  0.00000000000E+00 0.  1.
<mgrwt>
<rscale>  0 0.14753147E+04</rscale>
<asrwt>0</asrwt>
<pdfrwt beam="1">  1        2 0.11513094E+00 0.14753147E+04</pdfrwt>
<pdfrwt beam="2">  1       -2 0.11186407E+00 0.14753147E+04</pdfrwt>
<totfact> 0.22962306E+01</totfact>
</mgrwt>
</event>
<event>
 6    1  0.1614874E-005  0.3396509E+04  0.7818608E-02  0.8138764E-01
         -2   -1    0    0    0  501 -0.00000000000E+00  0.00000000000E+00  0.11635340350E+04  0.11635340350E+04  0.00000000000E+00 0.  1.
          2   -1    0    0  501    0  0.00000000000E+00 -0.00000000000E+00 -0.24787144047E+04  0.24787144047E+04  0.00000000000E+00 0. -1.
         23    2    1    2    0    0  0.54932033870E+03  0.11036110400E+04  0.59270653533E+03  0.13707417580E+04  0.89004315393E+02 0.  0.
         11    1    3    3    0    0  0.47092937245E+03  0.86612527883E+03  0.47508296510E+03  0.10943725582E+04  0.00000000000E+00 0.  1.
        -11    1    3    3    0    0  0.78390966251E+02  0.23748576113E+03  0.11762357024E+03  0.27636919982E+03  0.00000000000E+00 0. -1.
         22    1    1    2    0    0 -0.54932033870E+03 -0.11036110400E+04 -0.19078869051E+04  0.22715066816E+04  0.00000000000E+00 0. -1.
<mgrwt>
<rscale>  0 0.33965091E+04</rscale>
<asrwt>0</asrwt>
<pdfrwt beam="1">  1        2 0.38134068E+00 0.33965091E+04</pdfrwt>
<pdfrwt beam="2">  1       -2 0.17900524E+00 0.33965091E+04</pdfrwt>
<totfact> 0.54667969E-01</totfact>
</mgrwt>
</event>
<event>
 6    1  0.1614874E-005  0.2369754E+04  0.7818608E-02  0.8450915E-01
         -3   -1    0    0    0  501 -0.00000000000E+00  0.00000000000E+00  0.47682355258E+03  0.47682355258E+03  0.00000000000E+00 0.  1.
          3   -1    0    0  501    0  0.00000000000E+00 -0.00000000000E+00 -0.29443454447E+04  0.29443454447E+04  0.00000000000E+00 0. -1.
         23    2    1    2    0    0  0.88625658961E+03 -0.19613195238E+03 -0.23311326650E+04  0.25032798391E+04  0.91169983678E+02 0.  0.
         13    1    3    3    0    0  0.49545710183E+03 -0.11685679999E+03 -0.11831373927E+04  0.12880012971E+04  0.00000000000E+00 0. -1.
        -13    1    3    3    0    0  0.39079948778E+03 -0.79275152385E+02 -0.11479952723E+04  0.12152785420E+04  0.00000000000E+00 0.  1.
         22    1    1    2    0    0 -0.88625658961E+03  0.19613195238E+03 -0.13638922715E+03  0.91788915815E+03  0.00000000000E+00 0.  1.
<mgrwt>
<rscale>  0 0.23697538E+04</rscale>
<asrwt>0</asrwt>
<pdfrwt beam="1">  1        3 0.45297622E+00 0.23697538E+04</pdfrwt>
<pdfrwt beam="2">  1       -3 0.73357470E-01 0.23697538E+04</pdfrwt>
<totfact> 0.24427588E-02</totfact>
</mgrwt>
</event>
<event>
 6    1  0.1614874E-005  0.4636318E+04  0.7818608E-02  0.7887197E-01
         -1   -1    0    0    0  501 -0.00000000000E+00  0.00000000000E+00  0.30666611184E+04  0.30666611184E+04  0.00000000000E+00 0.  1.
          1   -1    0    0  501    0  0.00000000000E+00 -0.00000000000E+00 -0.17523493404E+04  0.17523493404E+04  0.00000000000E+00 0. -1.
         23    2    1    2    0    0  0.67312107803E+03  0.40920644118E+03  0.29225133464E+04  0.30282412995E+04  0.92839706102E+02 0.  0.
         11    1    3    3    0    0  0.62055398950E+03  0.35558709020E+03  0.25598895054E+04  0.26579247003E+04  0.00000000000E+00 0.  1.
        -11    1    3    3    0    0  0.52567088537E+02  0.53619350979E+02  0.36262384101E+03  0.37031659923E+03  0.00000000000E+00 0. -1.
         22    1    1    2    0    0 -0.67312107803E+03 -0.40920644118E+03 -0.16082015684E+04  0.17907691593E+04  0.00000000000E+00 0. -1.
<mgrwt>
<rscale>  0 0.46363182E+04</rscale>
<asrwt>0</asrwt>
<pdfrwt beam="1">  1        1 0.26959221E+00 0.46363182E+04</pdfrwt>
<pdfrwt beam="2">  1       -1 0.47179402E+00 0.46363182E+04</pdfrwt>
<totfact> 0.75034369E-03</totfact>
</mgrwt>
</event>
<event>
 6    1  0.1614874E-005  0.2012886E+04  0.7818608E-02  0.8600620E-01
          1   -1    0    0  501    0  0.00000000000E+00  0.00000000000E+00  0.75799627410E+03  0.75799627410E+03  0.00000000000E+00 0. -1.
         -1   -1    0    0    0  501 -0.00000000000E+00 -0.00000000000E+00 -0.13363224215E+04  0.13363224215E+04  0.00000000000E+00 0.  1.
         23    2    1    2    0    0  0.88088879858E+02 -0.99498968003E+03 -0.39676466951E+03  0.10790706055E+04  0.95953398093E+02 0.  0.
         11    1    3    3    0    0 -0.16981868672E+02 -0.17645243352E+03 -0.52400111444E+02  0.18485025518E+03  0.00000000000E+00 0. -1.
        -11    1    3    3    0    0  0.10507074853E+03 -0.81853724651E+03 -0.34436455806E+03  0.89422035035E+03  0.00000000000E+00 0.  1.
         22    1    1    2    0    0 -0.88088879858E+02  0.99498968003E+03 -0.18156147787E+03  0.10152480901E+04  0.00000000000E+00 0. -1.
<mgrwt>
<rscale>  0 0.20128859E+04</rscale>
<asrwt>0</asrwt>
<pdfrwt beam="1">  1        1 0.11661481E+00 0.20128859E+04</pdfrwt>
<pdfrwt beam="2">  1       -1 0.20558806E+00 0.20128859E+04</pdfrwt>
<totfact> 0.30748322E+00</totfact>
</mgrwt>
</event>
<event>
 6    1  0.1614874E-005  0.4294117E+03  0.7818608E-02  0.1034046E+00
          2   -1    0    0  501    0  0.00000000000E+00  0.00000000000E+00  0.15623859207E+03  0.15623859207E+03  0.00000000000E+00 0. -1.
         -2   -1    0    0    0  501 -0.00000000000E+00 -0.00000000000E+00 -0.29505264534E+03  0.29505264534E+03  0.00000000000E+00 0.  1.
         23    2    1    2    0    0  0.42948381603E+02 -0.10429003467E+03 -0.25210356254E+03  0.29143039878E+03  0.93029545177E+02 0.  0.
         13    1    3    3    0    0  0.15178883666E+02 -0.45207666306E+01 -0.13155902772E+03  0.13250891900E+03  0.00000000000E+00 0. -1.
        -13    1    3    3    0    0  0.27769497936E+02 -0.99769268042E+02 -0.12054453482E+03  0.15892147978E+03  0.00000000000E+00 0.  1.
         22    1    1    2    0    0 -0.42948381603E+02  0.10429003467E+03  0.11328950927E+03  0.15986083862E+03  0.00000000000E+00 0. -1.
<mgrwt>
<rscale>  0 0.42941174E+03</rscale>
<asrwt>0</asrwt>
<pdfrwt beam="1">  1        2 0.24036707E-01 0.42941174E+03</pdfrwt>
<pdfrwt beam="2">  1       -2 0.45392714E-01 0.42941174E+03</pdfrwt>
<totfact> 0.10549958E+03</totfact>
</mgrwt>
</event>
<event>
 6    1  0.1614874E-005  0.5092120E+04  0.7818608E-02  0.7814452E-01
         -2   -1    0    0    0  501 -0.00000000000E+00  0.00000000000E+00  0.24095828819E+04  0.24095828819E+04  0.00000000000E+00 0.  1.
          2   -1    0    0  501    0  0.00000000000E+00 -0.00000000000E+00 -0.26902669399E+04  0.26902669399E+04  0.00000000000E+00 0. -1.
         23    2    1    2    0    0  0.17838129310E+04 -0.73607552716E+03 -0.18026181732E+04  0.26421925623E+04  0.89182417008E+02 0.  0.
         13    1    3    3    0    0  0.67152849671E+03 -0.23932900030E+03 -0.63123920962E+03  0.95220367151E+03  0.00000000000E+00 0. -1.
        -13    1    3    3    0    0  0.11122844342E+04 -0.49674652686E+03 -0.11713789636E+04  0.16899888908E+04  0.00000000000E+00 0.  1.
         22    1    1    2    0    0 -0.17838129310E+04  0.73607552716E+03  0.15219341152E+04  0.24576572595E+04  0.00000000000E+00 0.  1.
<mgrwt>
<rscale>  0 0.50921199E+04</rscale>
<asrwt>0</asrwt>
<pdfrwt beam="1">  1        2 0.41388722E+00 0.50921199E+04</pdfrwt>
<pdfrwt beam="2">  1       -2 0.37070506E+00 0.50921199E+04</pdfrwt>
<totfact> 0.22352057E-02</totfact>
</mgrwt>
</event>
<event>
 6    1  0.1614874E-005  0.2669828E+04  0.7818608E-02  0.8344862E-01
         -2   -1    0    0    0  501 -0.00000000000E+00  0.00000000000E+00  0.67554029563E+03  0.67554029563E+03  0.00000000000E+00 0. -1.
          2   -1    0    0  501    0  0.00000000000E+00 -0.00000000000E+00 -0.26378816314E+04  0.26378816314E+04  0.00000000000E+00 0.  1.
         23    2    1    2    0    0  0.99603040070E+03 -0.62065509439E+03 -0.17677467137E+04  0.21238184753E+04  0.91581479041E+02 0.  0.
         13    1    3    3    0    0  0.19278638715E+03 -0.10254043410E+03 -0.38997066598E+03  0.44694323132E+03  0.00000000000E+00 0. -1.
        -13    1    3    3    0    0  0.80324401355E+03 -0.51811466029E+03 -0.13777760477E+04  0.16768752440E+04  0.00000000000E+00 0.  1.
         22    1    1    2    0    0 -0.99603040070E+03  0.62065509439E+03 -0.19459462213E+03  0.11896034517E+04  0.00000000000E+00 0. -1.
<mgrwt>
<rscale>  0 0.26698280E+04</rscale>
<asrwt>0</asrwt>
<pdfrwt beam="1">  1        2 0.40582794E+00 0.26698280E+04</pdfrwt>
<pdfrwt beam="2">  1       -2 0.10392928E+00 0.26698280E+04</pdfrwt>
<totfact> 0.19148565E+00</totfact>
</mgrwt>
</event>
<event>
 6    1  0.1614874E-005  0.2386095E+04  0.7818608E-02  0.8444728E-01
          2   -1    0    0  501    0  0.00000000000E+00  0.00000000000E+00  0.22554682555E+04  0.22554682555E+04  0.00000000000E+00 0. -1.
         -2   -1    0    0    0  501 -0.00000000000E+00 -0.00000000000E+00 -0.63107168103E+03  0.63107168103E+03  0.00000000000E+00 0.  1.
         23    2    1    2    0    0 -0.79811273705E+03 -0.78972796547E+03  0.12953190221E+04  0.17165201777E+04  0.89083955259E+02 0.  0.
         13    1    3    3    0    0 -0.29329164867E+03 -0.30820452280E+03  0.42867064853E+03  0.60396071392E+03  0.00000000000E+00 0. -1.
        -13    1    3    3    0    0 -0.50482108838E+03 -0.48152344268E+03  0.86664837353E+03  0.11125594638E+04  0.00000000000E+00 0.  1.
         22    1    1    2    0    0  0.79811273705E+03  0.78972796547E+03  0.32907755237E+03  0.11700197588E+04  0.00000000000E+00 0.  1.
<mgrwt>
<rscale>  0 0.23860948E+04</rscale>
<asrwt>0</asrwt>
<pdfrwt beam="1">  1        2 0.34699511E+00 0.23860948E+04</pdfrwt>
<pdfrwt beam="2">  1       -2 0.97087952E-01 0.23860948E+04</pdfrwt>
<totfact> 0.38305201E+00</totfact>
</mgrwt>
</event>
<event>
 6    1  0.1614874E-005  0.5902193E+03  0.7818608E-02  0.9925908E-01
          2   -1    0    0  501    0  0.00000000000E+00  0.00000000000E+00  0.43050130483E+03  0.43050130483E+03  0.00000000000E+00 0.  1.
         -2   -1    0    0    0  501 -0.00000000000E+00 -0.00000000000E+00 -0.20229838315E+03  0.20229838315E+03  0.00000000000E+00 0. -1.
         23    2    1    2    0    0  0.92198560821E+02  0.13331495036E+03 -0.13958744743E+03  0.23087530926E+03  0.86863699770E+02 0.  0.
         11    1    3    3    0    0  0.63276727748E+02  0.37476083559E+02 -0.97874427623E+02  0.12242468990E+03  0.00000000000E+00 0. -1.
        -11    1    3    3    0    0  0.28921833074E+02  0.95838866806E+02 -0.41713019802E+02  0.10845061936E+03  0.00000000000E+00 0.  1.
         22    1    1    2    0    0 -0.92198560821E+02 -0.13331495036E+03  0.36779036910E+03  0.40192437872E+03  0.00000000000E+00 0.  1.
<mgrwt>
<rscale>  0 0.59021934E+03</rscale>
<asrwt>0</asrwt>
<pdfrwt beam="1">  1        2 0.66230970E-01 0.59021934E+03</pdfrwt>
<pdfrwt beam="2">  1       -2 0.31122828E-01 0.59021934E+03</pdfrwt>
<totfact> 0.70405123E+02</totfact>
</mgrwt>
</event>
<event>
 6    1  0.1614874E-005  0.3480178E+04  0.7818608E-02  0.8118504E-01
          2   -1    0    0  501    0  0.00000000000E+00  0.00000000000E+00  0.30480016894E+04  0.30480016894E+04  0.00000000000E+00 0.  1.
         -2   -1    0    0    0  501 -0.00000000000E+00 -0.00000000000E+00 -0.99340831405E+03  0.99340831405E+03  0.00000000000E+00 0. -1.
         23    2    1    2    0    0 -0.13481152301E+03  0.10853981937E+04  0.25977817875E+04  0.28202150818E+04  0.94231133788E+02 0.  0.
         13    1    3    3    0    0 -0.56254855345E+01  0.30415872637E+02  0.12337527981E+03  0.12719367541E+03  0.00000000000E+00 0.  1.
        -13    1    3    3    0    0 -0.12918603748E+03  0.10549823210E+04  0.24744065077E+04  0.26930214064E+04  0.00000000000E+00 0. -1.
         22    1    1    2    0    0  0.13481152301E+03 -0.10853981937E+04 -0.54318841215E+03  0.12211949216E+04  0.00000000000E+00 0. -1.
<mgrwt>
<rscale>  0 0.34801783E+04</rscale>
<asrwt>0</asrwt>
<pdfrwt beam="1">  1        2 0.46892333E+00 0.34801783E+04</pdfrwt>
<pdfrwt beam="2">  1       -2 0.15283205E+00 0.34801783E+04</pdfrwt>
<totfact> 0.38072532E-01</totfact>
</mgrwt>
</event>
<event>
 6    1  0.1614874E-005  0.4012733E+03  0.7818608E-02  0.1043340E+00
         -2   -1    0    0    0  501 -0.00000000000E+00  0.00000000000E+00  0.43166323859E+02  0.43166323859E+02  0.00000000000E+00 0.  1.
          2   -1    0    0  501    0  0.00000000000E+00 -0.00000000000E+00 -0.93255696662E+03  0.93255696662E+03  0.00000000000E+00 0. -1.
         23    2    1    2    0    0 -0.71962803328E+02 -0.65142385721E+02 -0.86449247219E+03  0.87551303961E+03  0.98760683400E+02 0.  0.
         11    1    3    3    0    0 -0.15612818698E+02 -0.22897143988E+02 -0.63153095859E+03  0.63213874344E+03  0.00000000000E+00 0. -1.
        -11    1    3    3    0    0 -0.56349984630E+02 -0.42245241734E+02 -0.23296151360E+03  0.24337429617E+03  0.00000000000E+00 0.  1.
         22    1    1    2    0    0  0.71962803328E+02  0.65142385721E+02 -0.24898170573E+02  0.10021025086E+03  0.00000000000E+00 0.  1.
<mgrwt>
<rscale>  0 0.40127325E+03</rscale>
<asrwt>0</asrwt>
<pdfrwt beam="1">  1        2 0.14347029E+00 0.40127325E+03</pdfrwt>
<pdfrwt beam="2">  1       -2 0.66409734E-02 0.40127325E+03</pdfrwt>
<totfact> 0.36776349E+03</totfact>
</mgrwt>
</event>
<event>
 6    1  0.1614874E-005  0.2489025E+04  0.7818608E-02  0.8406906E-01
          2   -1    0    0  501    0  0.00000000000E+00  0.00000000000E+00  0.16650099562E+04  0.16650099562E+04  0.00000000000E+00 0. -1.
         -2   -1    0    0    0  501 -0.00000000000E+00 -0.00000000000E+00 -0.93021174324E+03  0.93021174324E+03  0.00000000000E+00 0.  1.
         23    2    1    2    0    0 -0.67359695539E+03  0.69591216246E+03 -0.44403377891E+03  0.10695508761E+04  0.93522636535E+02 0.  0.
         13    1    3    3    0    0 -0.28325933802E+03  0.22952199757E+03 -0.15435123219E+03  0.39590466380E+03  0.00000000000E+00 0.  1.
        -13    1    3    3    0    0 -0.39033761737E+03  0.46639016489E+03 -0.28968254672E+03  0.67364621228E+03  0.00000000000E+00 0. -1.
         22    1    1    2    0    0  0.67359695539E+03 -0.69591216246E+03  0.11788319918E+04  0.15256708233E+04  0.00000000000E+00 0. -1.
<mgrwt>
<rscale>  0 0.24890254E+04</rscale>
<asrwt>0</asrwt>
<pdfrwt beam="1">  1        2 0.25615538E+00 0.24890254E+04</pdfrwt>
<pdfrwt beam="2">  1       -2 0.14310950E+00 0.24890254E+04</pdfrwt>
<totfact> 0.31059055E+00</totfact>
</mgrwt>
</event>
<event>
 6    1  0.1614874E-005  0.4140862E+03  0.7818608E-02  0.1039008E+00
          1   -1    0    0  501    0  0.00000000000E+00  0.00000000000E+00  0.26853432777E+04  0.26853432777E+04  0.00000000000E+00 0. -1.
         -1   -1    0    0    0  501 -0.00000000000E+00 -0.00000000000E+00 -0.15963262541E+02  0.15963262541E+02  0.00000000000E+00 0.  1.
         23    2    1    2    0    0  0.44146571083E+02  0.32513213895E+02  0.26338595170E+04  0.26359786396E+04  0.90340490946E+02 0.  0.
         11    1    3    3    0    0 -0.92920429493E+01 -0.25146902471E+02  0.75213876250E+03  0.75261638756E+03  0.00000000000E+00 0. -1.
        -11    1    3    3    0    0  0.53438614032E+02  0.57660116366E+02  0.18817207545E+04  0.18833622520E+04  0.00000000000E+00 0.  1.
         22    1    1    2    0    0 -0.44146571083E+02 -0.32513213895E+02  0.35520498210E+02  0.65327900695E+02  0.00000000000E+00 0.  1.
<mgrwt>
<rscale>  0 0.41408617E+03</rscale>
<asrwt>0</asrwt>
<pdfrwt beam="1">  1        1 0.41312938E+00 0.41408617E+03</pdfrwt>
<pdfrwt beam="2">  1       -1 0.24558887E-02 0.41408617E+03</pdfrwt>
<totfact> 0.59236212E+02</totfact>
</mgrwt>
</event>
<event>
 6    1  0.1614874E-005  0.1888891E+04  0.7818608E-02  0.8660406E-01
          1   -1    0    0  501    0  0.00000000000E+00  0.00000000000E+00  0.75821417696E+03  0.75821417696E+03  0.00000000000E+00 0. -1.
         -1   -1    0    0    0  501 -0.00000000000E+00 -0.00000000000E+00 -0.11764181990E+04  0.11764181990E+04  0.00000000000E+00 0.  1.
         23    2    1    2    0    0  0.73031524794E+03  0.26435218340E+01 -0.81948780315E+03  0.11013280963E+04  0.89420168997E+02 0.  0.
         11    1    3    3    0    0  0.14758447876E+03 -0.12943415017E+02 -0.21920191513E+03  0.26457171043E+03  0.00000000000E+00 0. -1.
        -11    1    3    3    0    0  0.58273076918E+03  0.15586936851E+02 -0.60028588801E+03  0.83675638587E+03  0.00000000000E+00 0.  1.
         22    1    1    2    0    0 -0.73031524794E+03 -0.26435218340E+01  0.40128378108E+03  0.83330427968E+03  0.00000000000E+00 0. -1.
<mgrwt>
<rscale>  0 0.18888906E+04</rscale>
<asrwt>0</asrwt>
<pdfrwt beam="1">  1        1 0.11664834E+00 0.18888906E+04</pdfrwt>
<pdfrwt beam="2">  1       -1 0.18098741E+00 0.18888906E+04</pdfrwt>
<totfact> 0.46163357E+00</totfact>
</mgrwt>
</event>
<event>
 6    1  0.1614874E-005  0.3574303E+04  0.7818608E-02  0.8096403E-01
          2   -1    0    0  501    0  0.00000000000E+00  0.00000000000E+00  0.45952094135E+04  0.45952094135E+04  0.00000000000E+00 0. -1.
         -2   -1    0    0    0  501 -0.00000000000E+00 -0.00000000000E+00 -0.69505208203E+03  0.69505208203E+03  0.00000000000E+00 0.  1.
         23    2    1    2    0    0 -0.15199536231E+03 -0.16193066990E+04  0.85918988476E+03  0.18416763092E+04  0.91146004749E+02 0.  0.
         13    1    3    3    0    0 -0.10816873541E+03 -0.83684099380E+03  0.48466951657E+03  0.97309190960E+03  0.00000000000E+00 0. -1.
        -13    1    3    3    0    0 -0.43826626896E+02 -0.78246570519E+03  0.37452036819E+03  0.86858439959E+03  0.00000000000E+00 0.  1.
         22    1    1    2    0    0  0.15199536231E+03  0.16193066990E+04  0.30409674467E+04  0.34485851864E+04  0.00000000000E+00 0. -1.
<mgrwt>
<rscale>  0 0.35743027E+04</rscale>
<asrwt>0</asrwt>
<pdfrwt beam="1">  1        2 0.70695528E+00 0.35743027E+04</pdfrwt>
<pdfrwt beam="2">  1       -2 0.10693109E+00 0.35743027E+04</pdfrwt>
<totfact> 0.56465068E-02</totfact>
</mgrwt>
</event>
<event>
 6    1  0.1614874E-005  0.1000837E+04  0.7818608E-02  0.9307628E-01
         -1   -1    0    0    0  501 -0.00000000000E+00  0.00000000000E+00  0.88941040332E+02  0.88941040332E+02  0.00000000000E+00 0.  1.
          1   -1    0    0  501    0  0.00000000000E+00 -0.00000000000E+00 -0.28155564410E+04  0.28155564410E+04  0.00000000000E+00 0. -1.
         23    2    1    2    0    0 -0.81617832587E+02  0.17631765631E+03 -0.26998382749E+04  0.27083689496E+04  0.91576579680E+02 0.  0.
         13    1    3    3    0    0 -0.45196635192E+02  0.28589520130E+02 -0.11037710344E+04  0.11050658772E+04  0.00000000000E+00 0. -1.
        -13    1    3    3    0    0 -0.36421197395E+02  0.14772813618E+03 -0.15960672405E+04  0.16033030724E+04  0.00000000000E+00 0.  1.
         22    1    1    2    0    0  0.81617832587E+02 -0.17631765631E+03 -0.26777125832E+02  0.19612853181E+03  0.00000000000E+00 0.  1.
<mgrwt>
<rscale>  0 0.10008367E+04</rscale>
<asrwt>0</asrwt>
<pdfrwt beam="1">  1        1 0.43316253E+00 0.10008367E+04</pdfrwt>
<pdfrwt beam="2">  1       -1 0.13683237E-01 0.10008367E+04</pdfrwt>
<totfact> 0.31702163E+01</totfact>
</mgrwt>
</event>
