<event>
 6    1  0.9906445E-006  0.4855723E+04  0.7818608E-02  0.7851157E-01
         -2   -1    0    0    0  501 -0.00000000000E+00  0.00000000000E+00  0.19068613472E+04  0.19068613472E+04  0.00000000000E+00 0.  1.
          2   -1    0    0  501    0  0.00000000000E+00 -0.00000000000E+00 -0.30912112391E+04  0.30912112391E+04  0.00000000000E+00 0. -1.
         23    2    1    2    0    0 -0.14636782871E+04 -0.70820060549E+02  0.13989711091E+04  0.20280697238E+04  0.92612265295E+02 0.  0.
         11    1    3    3    0    0 -0.11779423733E+04 -0.30507154488E+02  0.10875965979E+04  0.16035414809E+04  0.00000000000E+00 0. -1.
        -11    1    3    3    0    0 -0.28573591380E+03 -0.40312906061E+02  0.31137451125E+03  0.42452824298E+03  0.00000000000E+00 0.  1.
         22    1    1    2    0    0  0.14636782871E+04  0.70820060549E+02 -0.25833210010E+04  0.29700028625E+04  0.00000000000E+00 0. -1.
<mgrwt>
<rscale>  0 0.48557229E+04</rscale>
<asrwt>0</asrwt>
<pdfrwt beam="1">  1        2 0.47557096E+00 0.48557229E+04</pdfrwt>
<pdfrwt beam="2">  1       -2 0.29336329E+00 0.48557229E+04</pdfrwt>
<totfact> 0.39149631E-02</totfact>
</mgrwt>
</event>
<event>
 6    1  0.9906445E-006  0.2875273E+04  0.7818608E-02  0.8280273E-01
         -2   -1    0    0    0  501 -0.00000000000E+00  0.00000000000E+00  0.97708618223E+03  0.97708618223E+03  0.00000000000E+00 0.  1.
          2   -1    0    0  501    0  0.00000000000E+00 -0.00000000000E+00 -0.21152670048E+04  0.21152670048E+04  0.00000000000E+00 0. -1.
         23    2    1    2    0    0  0.95255619060E+03 -0.85599556006E+03 -0.12687998953E+04  0.18050486243E+04  0.90860699057E+02 0.  0.
         13    1    3    3    0    0  0.41546949883E+03 -0.36230605680E+03 -0.60871920871E+03  0.82123057560E+03  0.00000000000E+00 0. -1.
        -13    1    3    3    0    0  0.53708669177E+03 -0.49368950326E+03 -0.66008068656E+03  0.98381804866E+03  0.00000000000E+00 0.  1.
         22    1    1    2    0    0 -0.95255619060E+03  0.85599556006E+03  0.13061907273E+03  0.12873045627E+04  0.00000000000E+00 0.  1.
<mgrwt>
<rscale>  0 0.28752726E+04</rscale>
<asrwt>0</asrwt>
<pdfrwt beam="1">  1        2 0.32542569E+00 0.28752726E+04</pdfrwt>
<pdfrwt beam="2">  1       -2 0.15032095E+00 0.28752726E+04</pdfrwt>
<totfact> 0.14844428E+00</totfact>
</mgrwt>
</event>
<event>
 6    1  0.9906445E-006  0.1484139E+04  0.7818608E-02  0.8895070E-01
         -2   -1    0    0    0  501 -0.00000000000E+00  0.00000000000E+00  0.23003108722E+03  0.23003108722E+03  0.00000000000E+00 0.  1.
          2   -1    0    0  501    0  0.00000000000E+00 -0.00000000000E+00 -0.23938805368E+04  0.23938805368E+04  0.00000000000E+00 0. -1.
         23    2    1    2    0    0 -0.92214283173E+01 -0.73719273266E+03 -0.98537321746E+03  0.12338237169E+04  0.88444484840E+02 0.  0.
         11    1    3    3    0    0 -0.45705279504E+02 -0.51840595822E+03 -0.67436712724E+03  0.85182435536E+03  0.00000000000E+00 0. -1.
        -11    1    3    3    0    0  0.36483851186E+02 -0.21878677444E+03 -0.31100609022E+03  0.38199936155E+03  0.00000000000E+00 0.  1.
         22    1    1    2    0    0  0.92214283173E+01  0.73719273266E+03 -0.11784762321E+04  0.13900879071E+04  0.00000000000E+00 0. -1.
<mgrwt>
<rscale>  0 0.14841387E+04</rscale>
<asrwt>0</asrwt>
<pdfrwt beam="1">  1        2 0.36828931E+00 0.14841387E+04</pdfrwt>
<pdfrwt beam="2">  1       -2 0.35389398E-01 0.14841387E+04</pdfrwt>
<totfact> 0.29140472E+01</totfact>
</mgrwt>
</event>
<event>
 6    1  0.9906445E-006  0.6609552E+03  0.7818608E-02  0.9786437E-01
          3   -1    0    0  501    0  0.00000000000E+00  0.00000000000E+00  0.82248592060E+02  0.82248592060E+02  0.00000000000E+00 0. -1.
         -3   -1    0    0    0  501 -0.00000000000E+00 -0.00000000000E+00 -0.13278700885E+04  0.13278700885E+04  0.00000000000E+00 0.  1.
         23    2    1    2    0    0  0.20343132601E+03 -0.16874568333E+03 -0.10388709151E+04  0.10745516784E+04  0.74492424255E+02 0.  0.
         13    1    3    3    0    0  0.12909636422E+03 -0.59687556161E+02 -0.50993061114E+03  0.52939371341E+03  0.00000000000E+00 0.  1.
        -13    1    3    3    0    0  0.74334961790E+02 -0.10905812717E+03 -0.52894030393E+03  0.54515796497E+03  0.00000000000E+00 0. -1.
         22    1    1    2    0    0 -0.20343132601E+03  0.16874568333E+03 -0.20675058133E+03  0.33556700214E+03  0.00000000000E+00 0. -1.
<mgrwt>
<rscale>  0 0.66095520E+03</rscale>
<asrwt>0</asrwt>
<pdfrwt beam="1">  1        3 0.12653630E-01 0.66095520E+03</pdfrwt>
<pdfrwt beam="2">  1       -3 0.20428771E+00 0.66095520E+03</pdfrwt>
<totfact> 0.18868158E+01</totfact>
</mgrwt>
</event>
<event>
 6    1  0.9906445E-006  0.5716902E+04  0.7818608E-02  0.7726529E-01
         -1   -1    0    0    0  501 -0.00000000000E+00  0.00000000000E+00  0.37575535537E+04  0.37575535537E+04  0.00000000000E+00 0.  1.
          1   -1    0    0  501    0  0.00000000000E+00 -0.00000000000E+00 -0.21744847567E+04  0.21744847567E+04  0.00000000000E+00 0. -1.
         23    2    1    2    0    0  0.15899486569E+04  0.95315652484E+03 -0.14650612240E+04  0.23644704109E+04  0.88723400280E+02 0.  0.
         13    1    3    3    0    0  0.25805502252E+03  0.19376456955E+03 -0.25796115873E+03  0.41313564658E+03  0.00000000000E+00 0.  1.
        -13    1    3    3    0    0  0.13318936343E+04  0.75939195529E+03 -0.12071000653E+04  0.19513347643E+04  0.00000000000E+00 0. -1.
         22    1    1    2    0    0 -0.15899486569E+04 -0.95315652484E+03  0.30481300211E+04  0.35675678995E+04  0.00000000000E+00 0.  1.
<mgrwt>
<rscale>  0 0.57169023E+04</rscale>
<asrwt>0</asrwt>
<pdfrwt beam="1">  1        1 0.33453612E+00 0.57169023E+04</pdfrwt>
<pdfrwt beam="2">  1       -1 0.57808516E+00 0.57169023E+04</pdfrwt>
<totfact> 0.86011494E-04</totfact>
</mgrwt>
</event>
<event>
 6    1  0.9906445E-006  0.1496538E+04  0.7818608E-02  0.8886758E-01
         -1   -1    0    0    0  501 -0.00000000000E+00  0.00000000000E+00  0.52480230882E+03  0.52480230882E+03  0.00000000000E+00 0.  1.
          1   -1    0    0  501    0  0.00000000000E+00 -0.00000000000E+00 -0.10668909912E+04  0.10668909912E+04  0.00000000000E+00 0. -1.
         23    2    1    2    0    0  0.22625015936E+03  0.29392793070E+03  0.41590957055E+03  0.56439421228E+03  0.89315692468E+02 0.  0.
         11    1    3    3    0    0  0.14968816837E+03  0.12138401240E+03  0.21403152921E+03  0.28801062778E+03  0.00000000000E+00 0. -1.
        -11    1    3    3    0    0  0.76561990991E+02  0.17254391830E+03  0.20187804134E+03  0.27638358450E+03  0.00000000000E+00 0.  1.
         22    1    1    2    0    0 -0.22625015936E+03 -0.29392793070E+03 -0.95799825298E+03  0.10272990878E+04  0.00000000000E+00 0. -1.
<mgrwt>
<rscale>  0 0.14965385E+04</rscale>
<asrwt>0</asrwt>
<pdfrwt beam="1">  1        1 0.16413707E+00 0.14965385E+04</pdfrwt>
<pdfrwt beam="2">  1       -1 0.80738818E-01 0.14965385E+04</pdfrwt>
<totfact> 0.19885689E+01</totfact>
</mgrwt>
</event>
<event>
 6    1  0.9906445E-006  0.1699933E+04  0.7818608E-02  0.8761402E-01
         -1   -1    0    0    0  501 -0.00000000000E+00  0.00000000000E+00  0.39718361458E+03  0.39718361458E+03  0.00000000000E+00 0.  1.
          1   -1    0    0  501    0  0.00000000000E+00 -0.00000000000E+00 -0.18189152228E+04  0.18189152228E+04  0.00000000000E+00 0. -1.
         23    2    1    2    0    0  0.65942178097E+03 -0.65755885905E+02 -0.14021782036E+04  0.15531182514E+04  0.83136432371E+02 0.  0.
         13    1    3    3    0    0  0.31550578601E+03  0.10134583136E+02 -0.66991191150E+03  0.74055963970E+03  0.00000000000E+00 0. -1.
        -13    1    3    3    0    0  0.34391599495E+03 -0.75890469041E+02 -0.73226629208E+03  0.81255861166E+03  0.00000000000E+00 0.  1.
         22    1    1    2    0    0 -0.65942178097E+03  0.65755885905E+02 -0.19553404588E+02  0.66298058597E+03  0.00000000000E+00 0.  1.
<mgrwt>
<rscale>  0 0.16999333E+04</rscale>
<asrwt>0</asrwt>
<pdfrwt beam="1">  1        1 0.27983311E+00 0.16999333E+04</pdfrwt>
<pdfrwt beam="2">  1       -1 0.61105172E-01 0.16999333E+04</pdfrwt>
<totfact> 0.10223844E+01</totfact>
</mgrwt>
</event>
<event>
 6    1  0.9906445E-006  0.5416038E+04  0.7818608E-02  0.7767349E-01
          2   -1    0    0  501    0  0.00000000000E+00  0.00000000000E+00  0.35214002367E+04  0.35214002367E+04  0.00000000000E+00 0. -1.
         -2   -1    0    0    0  501 -0.00000000000E+00 -0.00000000000E+00 -0.20825142753E+04  0.20825142753E+04  0.00000000000E+00 0.  1.
         23    2    1    2    0    0 -0.25472484696E+04  0.44565182017E+03  0.15488773004E+04  0.30156374005E+04  0.89262137440E+02 0.  0.
         11    1    3    3    0    0 -0.15773395375E+04  0.23288231310E+03  0.94380923593E+03  0.18528383799E+04  0.00000000000E+00 0.  1.
        -11    1    3    3    0    0 -0.96990893211E+03  0.21276950707E+03  0.60506806442E+03  0.11627990206E+04  0.00000000000E+00 0. -1.
         22    1    1    2    0    0  0.25472484696E+04 -0.44565182017E+03 -0.10999133894E+03  0.25882771114E+04  0.00000000000E+00 0.  1.
<mgrwt>
<rscale>  0 0.54160378E+04</rscale>
<asrwt>0</asrwt>
<pdfrwt beam="1">  1        2 0.54175388E+00 0.54160378E+04</pdfrwt>
<pdfrwt beam="2">  1       -2 0.32038681E+00 0.54160378E+04</pdfrwt>
<totfact> 0.13145523E-02</totfact>
</mgrwt>
</event>
<event>
 6    1  0.9906445E-006  0.1033188E+04  0.7818608E-02  0.9272876E-01
          1   -1    0    0  501    0  0.00000000000E+00  0.00000000000E+00  0.16914072033E+04  0.16914072033E+04  0.00000000000E+00 0. -1.
         -1   -1    0    0    0  501 -0.00000000000E+00 -0.00000000000E+00 -0.15777948204E+03  0.15777948204E+03  0.00000000000E+00 0.  1.
         23    2    1    2    0    0  0.33728186315E+03 -0.21492858916E+03  0.19874126123E+03  0.45567485731E+03  0.90488303216E+02 0.  0.
         11    1    3    3    0    0  0.19176048627E+03 -0.11217408074E+03  0.60687284800E+02  0.23029992406E+03  0.00000000000E+00 0. -1.
        -11    1    3    3    0    0  0.14552137688E+03 -0.10275450843E+03  0.13805397643E+03  0.22537493325E+03  0.00000000000E+00 0.  1.
         22    1    1    2    0    0 -0.33728186315E+03  0.21492858916E+03  0.13348864600E+04  0.13935118280E+04  0.00000000000E+00 0. -1.
<mgrwt>
<rscale>  0 0.10331880E+04</rscale>
<asrwt>0</asrwt>
<pdfrwt beam="1">  1        1 0.26021648E+00 0.10331880E+04</pdfrwt>
<pdfrwt beam="2">  1       -1 0.24273768E-01 0.10331880E+04</pdfrwt>
<totfact> 0.71297873E+01</totfact>
</mgrwt>
</event>
<event>
 6    1  0.9906445E-006  0.3134963E+04  0.7818608E-02  0.8206208E-01
          2   -1    0    0  501    0  0.00000000000E+00  0.00000000000E+00  0.23548152103E+04  0.23548152103E+04  0.00000000000E+00 0. -1.
         -2   -1    0    0    0  501 -0.00000000000E+00 -0.00000000000E+00 -0.10433931668E+04  0.10433931668E+04  0.00000000000E+00 0.  1.
         23    2    1    2    0    0 -0.66913876748E+02 -0.14179979206E+04 -0.60858725908E+02  0.14237843902E+04  0.90899039120E+02 0.  0.
         13    1    3    3    0    0 -0.27810320369E+02 -0.39551882130E+03  0.22751215499E+02  0.39714754151E+03  0.00000000000E+00 0. -1.
        -13    1    3    3    0    0 -0.39103556380E+02 -0.10224790993E+04 -0.83609941408E+02  0.10266368486E+04  0.00000000000E+00 0.  1.
         22    1    1    2    0    0  0.66913876748E+02  0.14179979206E+04  0.13722807694E+04  0.19744239869E+04  0.00000000000E+00 0. -1.
<mgrwt>
<rscale>  0 0.31349629E+04</rscale>
<asrwt>0</asrwt>
<pdfrwt beam="1">  1        2 0.36227926E+00 0.31349629E+04</pdfrwt>
<pdfrwt beam="2">  1       -2 0.16052203E+00 0.31349629E+04</pdfrwt>
<totfact> 0.89171067E-01</totfact>
</mgrwt>
</event>
<event>
 6    1  0.9906445E-006  0.2390586E+04  0.7818608E-02  0.8443036E-01
         -1   -1    0    0    0  501 -0.00000000000E+00  0.00000000000E+00  0.95889293531E+03  0.95889293531E+03  0.00000000000E+00 0.  1.
          1   -1    0    0  501    0  0.00000000000E+00 -0.00000000000E+00 -0.14899742702E+04  0.14899742702E+04  0.00000000000E+00 0. -1.
         23    2    1    2    0    0  0.78053278413E+03  0.81596541118E+03  0.13003306726E+03  0.11403935787E+04  0.92509115266E+02 0.  0.
         13    1    3    3    0    0  0.19715652449E+03  0.24385881608E+03  0.38009490378E+01  0.31361164605E+03  0.00000000000E+00 0. -1.
        -13    1    3    3    0    0  0.58337625965E+03  0.57210659510E+03  0.12623211822E+03  0.82678193265E+03  0.00000000000E+00 0.  1.
         22    1    1    2    0    0 -0.78053278413E+03 -0.81596541118E+03 -0.66111440217E+03  0.13084736268E+04  0.00000000000E+00 0.  1.
<mgrwt>
<rscale>  0 0.23905864E+04</rscale>
<asrwt>0</asrwt>
<pdfrwt beam="1">  1        1 0.22922681E+00 0.23905864E+04</pdfrwt>
<pdfrwt beam="2">  1       -1 0.14752199E+00 0.23905864E+04</pdfrwt>
<totfact> 0.21754421E+00</totfact>
</mgrwt>
</event>
<event>
 6    1  0.9906445E-006  0.4957997E+04  0.7818608E-02  0.7835019E-01
          1   -1    0    0  501    0  0.00000000000E+00  0.00000000000E+00  0.27108130362E+04  0.27108130362E+04  0.00000000000E+00 0. -1.
         -1   -1    0    0    0  501 -0.00000000000E+00 -0.00000000000E+00 -0.22670074973E+04  0.22670074973E+04  0.00000000000E+00 0.  1.
         23    2    1    2    0    0  0.80047239029E+03  0.21396606408E+04 -0.74224745116E+03  0.24037915126E+04  0.91534976385E+02 0.  0.
         11    1    3    3    0    0  0.45172016123E+03  0.10877226209E+04 -0.40159356116E+03  0.12443749404E+04  0.00000000000E+00 0.  1.
        -11    1    3    3    0    0  0.34875222905E+03  0.10519380199E+04 -0.34065389000E+03  0.11594165721E+04  0.00000000000E+00 0. -1.
         22    1    1    2    0    0 -0.80047239029E+03 -0.21396606408E+04  0.11860529901E+04  0.25740290209E+04  0.00000000000E+00 0. -1.
<mgrwt>
<rscale>  0 0.49579970E+04</rscale>
<asrwt>0</asrwt>
<pdfrwt beam="1">  1        1 0.41704816E+00 0.49579970E+04</pdfrwt>
<pdfrwt beam="2">  1       -1 0.34877038E+00 0.49579970E+04</pdfrwt>
<totfact> 0.11059525E-02</totfact>
</mgrwt>
</event>
<event>
 6    1  0.9906445E-006  0.3311683E+04  0.7818608E-02  0.8159929E-01
         -2   -1    0    0    0  501 -0.00000000000E+00  0.00000000000E+00  0.27417429236E+04  0.27417429236E+04  0.00000000000E+00 0.  1.
          2   -1    0    0  501    0  0.00000000000E+00 -0.00000000000E+00 -0.10000251046E+04  0.10000251046E+04  0.00000000000E+00 0. -1.
         23    2    1    2    0    0  0.21735317555E+03 -0.15129238207E+04  0.15874670257E+04  0.22055472767E+04  0.90588862230E+02 0.  0.
         11    1    3    3    0    0  0.65660597389E+02 -0.77388575239E+03  0.81186237104E+03  0.11235350379E+04  0.00000000000E+00 0. -1.
        -11    1    3    3    0    0  0.15169257816E+03 -0.73903806829E+03  0.77560465470E+03  0.10820122389E+04  0.00000000000E+00 0.  1.
         22    1    1    2    0    0 -0.21735317555E+03  0.15129238207E+04  0.15425079327E+03  0.15362207515E+04  0.00000000000E+00 0. -1.
<mgrwt>
<rscale>  0 0.33116834E+04</rscale>
<asrwt>0</asrwt>
<pdfrwt beam="1">  1        2 0.15385002E+00 0.33116834E+04</pdfrwt>
<pdfrwt beam="2">  1       -2 0.42180660E+00 0.33116834E+04</pdfrwt>
<totfact> 0.11198573E-01</totfact>
</mgrwt>
</event>
<event>
 6    1  0.9906445E-006  0.9718826E+03  0.7818608E-02  0.9339933E-01
          1   -1    0    0  501    0  0.00000000000E+00  0.00000000000E+00  0.32238049457E+03  0.32238049457E+03  0.00000000000E+00 0. -1.
         -1   -1    0    0    0  501 -0.00000000000E+00 -0.00000000000E+00 -0.73248528749E+03  0.73248528749E+03  0.00000000000E+00 0.  1.
         23    2    1    2    0    0 -0.43869325845E+03 -0.19703245879E+03 -0.23117235395E+03  0.54174748913E+03  0.93680947476E+02 0.  0.
         13    1    3    3    0    0 -0.29432719760E+03 -0.99881674073E+02 -0.11000208264E+03  0.32970487750E+03  0.00000000000E+00 0. -1.
        -13    1    3    3    0    0 -0.14436606085E+03 -0.97150784720E+02 -0.12117027131E+03  0.21204261163E+03  0.00000000000E+00 0.  1.
         22    1    1    2    0    0  0.43869325845E+03  0.19703245879E+03 -0.17893243898E+03  0.51311829294E+03  0.00000000000E+00 0. -1.
<mgrwt>
<rscale>  0 0.97188265E+03</rscale>
<asrwt>0</asrwt>
<pdfrwt beam="1">  1        1 0.49597000E-01 0.97188265E+03</pdfrwt>
<pdfrwt beam="2">  1       -1 0.11269004E+00 0.97188265E+03</pdfrwt>
<totfact> 0.57767524E+01</totfact>
</mgrwt>
</event>
<event>
 6    1  0.9906445E-006  0.2330250E+04  0.7818608E-02  0.8466088E-01
          2   -1    0    0  501    0  0.00000000000E+00  0.00000000000E+00  0.11256431819E+04  0.11256431819E+04  0.00000000000E+00 0. -1.
         -2   -1    0    0    0  501 -0.00000000000E+00 -0.00000000000E+00 -0.12059920090E+04  0.12059920090E+04  0.00000000000E+00 0.  1.
         23    2    1    2    0    0  0.11083261284E+04  0.18906358632E+02  0.31382313803E+03  0.11551506838E+04  0.84521493922E+02 0.  0.
         13    1    3    3    0    0  0.55478957599E+03 -0.25184906122E+02  0.18207039846E+03  0.58444450816E+03  0.00000000000E+00 0. -1.
        -13    1    3    3    0    0  0.55353655244E+03  0.44091264754E+02  0.13175273957E+03  0.57070617562E+03  0.00000000000E+00 0.  1.
         22    1    1    2    0    0 -0.11083261284E+04 -0.18906358632E+02 -0.39417196521E+03  0.11764845071E+04  0.00000000000E+00 0.  1.
<mgrwt>
<rscale>  0 0.23302504E+04</rscale>
<asrwt>0</asrwt>
<pdfrwt beam="1">  1        2 0.17317587E+00 0.23302504E+04</pdfrwt>
<pdfrwt beam="2">  1       -2 0.18553723E+00 0.23302504E+04</pdfrwt>
<totfact> 0.31565661E+00</totfact>
</mgrwt>
</event>
<event>
 6    1  0.9906445E-006  0.1951121E+04  0.7818608E-02  0.8629821E-01
          1   -1    0    0  501    0  0.00000000000E+00  0.00000000000E+00  0.22871387924E+04  0.22871387924E+04  0.00000000000E+00 0. -1.
         -1   -1    0    0    0  501 -0.00000000000E+00 -0.00000000000E+00 -0.41611728360E+03  0.41611728360E+03  0.00000000000E+00 0.  1.
         23    2    1    2    0    0 -0.51659521538E+03  0.58160544412E+03  0.17473885418E+04  0.19155882401E+04  0.10476679066E+03 0.  0.
         11    1    3    3    0    0 -0.21709285346E+03  0.19134280071E+03  0.73784791525E+03  0.79256603538E+03  0.00000000000E+00 0.  1.
        -11    1    3    3    0    0 -0.29950236193E+03  0.39026264341E+03  0.10095406266E+04  0.11230222048E+04  0.00000000000E+00 0. -1.
         22    1    1    2    0    0  0.51659521538E+03 -0.58160544412E+03  0.12363296700E+03  0.78766783590E+03  0.00000000000E+00 0.  1.
<mgrwt>
<rscale>  0 0.19511207E+04</rscale>
<asrwt>0</asrwt>
<pdfrwt beam="1">  1        1 0.35186750E+00 0.19511207E+04</pdfrwt>
<pdfrwt beam="2">  1       -1 0.64018045E-01 0.19511207E+04</pdfrwt>
<totfact> 0.43791353E+00</totfact>
</mgrwt>
</event>
<event>
 6    1  0.9906445E-006  0.1951090E+04  0.7818608E-02  0.8629835E-01
          2   -1    0    0  501    0  0.00000000000E+00  0.00000000000E+00  0.27058912972E+04  0.27058912972E+04  0.00000000000E+00 0. -1.
         -2   -1    0    0    0  501 -0.00000000000E+00 -0.00000000000E+00 -0.35170962340E+03  0.35170962340E+03  0.00000000000E+00 0.  1.
         23    2    1    2    0    0  0.31745580685E+03 -0.69227999265E+03  0.22936745635E+03  0.80042010457E+03  0.89627764918E+02 0.  0.
         11    1    3    3    0    0  0.19520430163E+03 -0.39103425612E+03  0.17507155726E+03  0.47081053407E+03  0.00000000000E+00 0.  1.
        -11    1    3    3    0    0  0.12225150522E+03 -0.30124573654E+03  0.54295899097E+02  0.32960957051E+03  0.00000000000E+00 0. -1.
         22    1    1    2    0    0 -0.31745580685E+03  0.69227999265E+03  0.21248142174E+04  0.22571808160E+04  0.00000000000E+00 0. -1.
<mgrwt>
<rscale>  0 0.19510900E+04</rscale>
<asrwt>0</asrwt>
<pdfrwt beam="1">  1        2 0.41629096E+00 0.19510900E+04</pdfrwt>
<pdfrwt beam="2">  1       -2 0.54109174E-01 0.19510900E+04</pdfrwt>
<totfact> 0.79129432E+00</totfact>
</mgrwt>
</event>
<event>
 6    1  0.9906445E-006  0.3238675E+04  0.7818608E-02  0.8178677E-01
          1   -1    0    0  501    0  0.00000000000E+00  0.00000000000E+00  0.24572133540E+04  0.24572133540E+04  0.00000000000E+00 0. -1.
         -1   -1    0    0    0  501 -0.00000000000E+00 -0.00000000000E+00 -0.10671659637E+04  0.10671659637E+04  0.00000000000E+00 0.  1.
         23    2    1    2    0    0  0.15411627605E+04  0.40627626954E+03  0.39144023617E+03  0.16435658474E+04  0.88544761541E+02 0.  0.
         11    1    3    3    0    0  0.12062353313E+04  0.28144889368E+03  0.31469495787E+03  0.12779867256E+04  0.00000000000E+00 0. -1.
        -11    1    3    3    0    0  0.33492742918E+03  0.12482737587E+03  0.76745278303E+02  0.36557912184E+03  0.00000000000E+00 0.  1.
         22    1    1    2    0    0 -0.15411627605E+04 -0.40627626954E+03  0.99860715416E+03  0.18808134703E+04  0.00000000000E+00 0. -1.
<mgrwt>
<rscale>  0 0.32386753E+04</rscale>
<asrwt>0</asrwt>
<pdfrwt beam="1">  1        1 0.37803282E+00 0.32386753E+04</pdfrwt>
<pdfrwt beam="2">  1       -1 0.16417938E+00 0.32386753E+04</pdfrwt>
<totfact> 0.32867191E-01</totfact>
</mgrwt>
</event>
<event>
 6    1  0.9906445E-006  0.1390830E+04  0.7818608E-02  0.8960483E-01
         -2   -1    0    0    0  501 -0.00000000000E+00  0.00000000000E+00  0.34559753018E+03  0.34559753018E+03  0.00000000000E+00 0.  1.
          2   -1    0    0  501    0  0.00000000000E+00 -0.00000000000E+00 -0.13993211681E+04  0.13993211681E+04  0.00000000000E+00 0. -1.
         23    2    1    2    0    0 -0.20665874465E+03 -0.64070497831E+03 -0.73276787756E+03  0.99911489966E+03  0.89839380943E+02 0.  0.
         11    1    3    3    0    0 -0.19480994753E+02 -0.11862246446E+03 -0.90177621392E+02  0.15027575197E+03  0.00000000000E+00 0. -1.
        -11    1    3    3    0    0 -0.18717774990E+03 -0.52208251385E+03 -0.64259025616E+03  0.84883914769E+03  0.00000000000E+00 0.  1.
         22    1    1    2    0    0  0.20665874465E+03  0.64070497831E+03 -0.32095576040E+03  0.74580379867E+03  0.00000000000E+00 0. -1.
<mgrwt>
<rscale>  0 0.13908299E+04</rscale>
<asrwt>0</asrwt>
<pdfrwt beam="1">  1        2 0.21528018E+00 0.13908299E+04</pdfrwt>
<pdfrwt beam="2">  1       -2 0.53168850E-01 0.13908299E+04</pdfrwt>
<totfact> 0.47038654E+01</totfact>
</mgrwt>
</event>
<event>
 6    1  0.9906445E-006  0.3238833E+04  0.7818608E-02  0.8178636E-01
          3   -1    0    0  501    0  0.00000000000E+00  0.00000000000E+00  0.14727754033E+04  0.14727754033E+04  0.00000000000E+00 0. -1.
         -3   -1    0    0    0  501 -0.00000000000E+00 -0.00000000000E+00 -0.17806583344E+04  0.17806583344E+04  0.00000000000E+00 0.  1.
         23    2    1    2    0    0  0.93326759771E+03  0.97167403440E+03  0.74621201347E+03  0.15428037396E+04  0.90951480655E+02 0.  0.
         11    1    3    3    0    0  0.18004909912E+03  0.16201616723E+03  0.16935999741E+03  0.29554986933E+03  0.00000000000E+00 0.  1.
        -11    1    3    3    0    0  0.75321849859E+03  0.80965786717E+03  0.57685201606E+03  0.12472538703E+04  0.00000000000E+00 0. -1.
         22    1    1    2    0    0 -0.93326759771E+03 -0.97167403440E+03 -0.10540949446E+04  0.17106299981E+04  0.00000000000E+00 0. -1.
<mgrwt>
<rscale>  0 0.32388330E+04</rscale>
<asrwt>0</asrwt>
<pdfrwt beam="1">  1        3 0.22658083E+00 0.32388330E+04</pdfrwt>
<pdfrwt beam="2">  1       -3 0.27394743E+00 0.32388330E+04</pdfrwt>
<totfact> 0.11725478E-02</totfact>
</mgrwt>
</event>
<event>
 6    1  0.9906445E-006  0.2611765E+04  0.7818608E-02  0.8364216E-01
         -1   -1    0    0    0  501 -0.00000000000E+00  0.00000000000E+00  0.10037901449E+04  0.10037901449E+04  0.00000000000E+00 0.  1.
          1   -1    0    0  501    0  0.00000000000E+00 -0.00000000000E+00 -0.16988894327E+04  0.16988894327E+04  0.00000000000E+00 0. -1.
         23    2    1    2    0    0  0.88010468253E+03  0.94780733491E+03 -0.52186031864E+03  0.13977141617E+04  0.91343797350E+02 0.  0.
         11    1    3    3    0    0  0.27984643275E+03  0.36104932502E+03 -0.20116552106E+03  0.49913746391E+03  0.00000000000E+00 0.  1.
        -11    1    3    3    0    0  0.60025824978E+03  0.58675800989E+03 -0.32069479758E+03  0.89857669778E+03  0.00000000000E+00 0. -1.
         22    1    1    2    0    0 -0.88010468253E+03 -0.94780733491E+03 -0.17323896913E+03  0.13049654159E+04  0.00000000000E+00 0. -1.
<mgrwt>
<rscale>  0 0.26117645E+04</rscale>
<asrwt>0</asrwt>
<pdfrwt beam="1">  1        1 0.26136760E+00 0.26117645E+04</pdfrwt>
<pdfrwt beam="2">  1       -1 0.15442926E+00 0.26117645E+04</pdfrwt>
<totfact> 0.13541576E+00</totfact>
</mgrwt>
</event>
<event>
 6    1  0.9906445E-006  0.3538466E+04  0.7818608E-02  0.8104734E-01
         -1   -1    0    0    0  501 -0.00000000000E+00  0.00000000000E+00  0.21310307438E+04  0.21310307438E+04  0.00000000000E+00 0.  1.
          1   -1    0    0  501    0  0.00000000000E+00 -0.00000000000E+00 -0.14688596526E+04  0.14688596526E+04  0.00000000000E+00 0. -1.
         23    2    1    2    0    0 -0.16564264292E+04  0.45244524842E+02 -0.29604887621E+03  0.16857375581E+04  0.90942813858E+02 0.  0.
         11    1    3    3    0    0 -0.14128793938E+04  0.54257390351E+02 -0.28089867719E+03  0.14415533680E+04  0.00000000000E+00 0. -1.
        -11    1    3    3    0    0 -0.24354703539E+03 -0.90128655094E+01 -0.15150199026E+02  0.24418419016E+03  0.00000000000E+00 0.  1.
         22    1    1    2    0    0  0.16564264292E+04 -0.45244524842E+02  0.95821996739E+03  0.19141528383E+04  0.00000000000E+00 0.  1.
<mgrwt>
<rscale>  0 0.35384658E+04</rscale>
<asrwt>0</asrwt>
<pdfrwt beam="1">  1        1 0.22597841E+00 0.35384658E+04</pdfrwt>
<pdfrwt beam="2">  1       -1 0.32785088E+00 0.35384658E+04</pdfrwt>
<totfact> 0.12155988E-01</totfact>
</mgrwt>
</event>
<event>
 6    1  0.9906445E-006  0.4642978E+04  0.7818608E-02  0.7886073E-01
          2   -1    0    0  501    0  0.00000000000E+00  0.00000000000E+00  0.19094965341E+04  0.19094965341E+04  0.00000000000E+00 0.  1.
         -2   -1    0    0    0  501 -0.00000000000E+00 -0.00000000000E+00 -0.28223726421E+04  0.28223726421E+04  0.00000000000E+00 0. -1.
         23    2    1    2    0    0 -0.69466213903E+02  0.91770849779E+03 -0.26276882017E+04  0.27856947343E+04  0.91298551416E+02 0.  0.
         13    1    3    3    0    0 -0.12215399057E+02  0.87201878719E+02 -0.34105060598E+03  0.35223415431E+03  0.00000000000E+00 0.  1.
        -13    1    3    3    0    0 -0.57250814846E+02  0.83050661907E+03 -0.22866375957E+04  0.24334605800E+04  0.00000000000E+00 0. -1.
         22    1    1    2    0    0  0.69466213903E+02 -0.91770849779E+03  0.17148120937E+04  0.19461744419E+04  0.00000000000E+00 0.  1.
<mgrwt>
<rscale>  0 0.46429778E+04</rscale>
<asrwt>0</asrwt>
<pdfrwt beam="1">  1        2 0.29376870E+00 0.46429778E+04</pdfrwt>
<pdfrwt beam="2">  1       -2 0.43421117E+00 0.46429778E+04</pdfrwt>
<totfact> 0.24838190E-02</totfact>
</mgrwt>
</event>
<event>
 6    1  0.9906445E-006  0.2777572E+04  0.7818608E-02  0.8310265E-01
          1   -1    0    0  501    0  0.00000000000E+00  0.00000000000E+00  0.22780407995E+04  0.22780407995E+04  0.00000000000E+00 0. -1.
         -1   -1    0    0    0  501 -0.00000000000E+00 -0.00000000000E+00 -0.84666042916E+03  0.84666042916E+03  0.00000000000E+00 0.  1.
         23    2    1    2    0    0  0.68292227856E+03  0.49818485966E+03  0.19539188726E+04  0.21309117744E+04  0.91733510095E+02 0.  0.
         13    1    3    3    0    0  0.55136149939E+03  0.43678437469E+03  0.16678050757E+04  0.18100701266E+04  0.00000000000E+00 0. -1.
        -13    1    3    3    0    0  0.13156077917E+03  0.61400484967E+02  0.28611379690E+03  0.32084164778E+03  0.00000000000E+00 0.  1.
         22    1    1    2    0    0 -0.68292227856E+03 -0.49818485966E+03 -0.52253850226E+03  0.99378945420E+03  0.00000000000E+00 0.  1.
<mgrwt>
<rscale>  0 0.27775723E+04</rscale>
<asrwt>0</asrwt>
<pdfrwt beam="1">  1        1 0.35046781E+00 0.27775723E+04</pdfrwt>
<pdfrwt beam="2">  1       -1 0.13025545E+00 0.27775723E+04</pdfrwt>
<totfact> 0.84311239E-01</totfact>
</mgrwt>
</event>
<event>
 6    1  0.9906445E-006  0.6612342E+04  0.7818608E-02  0.7618792E-01
          1   -1    0    0  501    0  0.00000000000E+00  0.00000000000E+00  0.41640938946E+04  0.41640938946E+04  0.00000000000E+00 0. -1.
         -1   -1    0    0    0  501 -0.00000000000E+00 -0.00000000000E+00 -0.26250044767E+04  0.26250044767E+04  0.00000000000E+00 0.  1.
         23    2    1    2    0    0 -0.15574280352E+04  0.25656241766E+04 -0.65256568179E+03  0.30727343449E+04  0.88571355649E+02 0.  0.
         13    1    3    3    0    0 -0.77653321894E+03  0.11943164451E+04 -0.31357372394E+03  0.14586720301E+04  0.00000000000E+00 0.  1.
        -13    1    3    3    0    0 -0.78089481625E+03  0.13713077315E+04 -0.33899195785E+03  0.16140623148E+04  0.00000000000E+00 0. -1.
         22    1    1    2    0    0  0.15574280352E+04 -0.25656241766E+04  0.21916550997E+04  0.37163640263E+04  0.00000000000E+00 0. -1.
<mgrwt>
<rscale>  0 0.66123415E+04</rscale>
<asrwt>0</asrwt>
<pdfrwt beam="1">  1        1 0.64062983E+00 0.66123415E+04</pdfrwt>
<pdfrwt beam="2">  1       -1 0.40384684E+00 0.66123415E+04</pdfrwt>
<totfact> 0.29205136E-04</totfact>
</mgrwt>
</event>
<event>
 6    1  0.9906445E-006  0.3222368E+04  0.7818608E-02  0.8182935E-01
         -2   -1    0    0    0  501 -0.00000000000E+00  0.00000000000E+00  0.74972590166E+03  0.74972590166E+03  0.00000000000E+00 0.  1.
          2   -1    0    0  501    0  0.00000000000E+00 -0.00000000000E+00 -0.34624842212E+04  0.34624842212E+04  0.00000000000E+00 0. -1.
         23    2    1    2    0    0 -0.13085305611E+04 -0.82858488527E+03 -0.78328443165E+03  0.17380083070E+04  0.91286543505E+02 0.  0.
         11    1    3    3    0    0 -0.25116774621E+03 -0.14225136343E+03 -0.11011588357E+03  0.30894367601E+03  0.00000000000E+00 0.  1.
        -11    1    3    3    0    0 -0.10573628149E+04 -0.68633352184E+03 -0.67316854808E+03  0.14290646310E+04  0.00000000000E+00 0. -1.
         22    1    1    2    0    0  0.13085305611E+04  0.82858488527E+03 -0.19294738879E+04  0.24742018158E+04  0.00000000000E+00 0.  1.
<mgrwt>
<rscale>  0 0.32223681E+04</rscale>
<asrwt>0</asrwt>
<pdfrwt beam="1">  1        2 0.53268987E+00 0.32223681E+04</pdfrwt>
<pdfrwt beam="2">  1       -2 0.11534245E+00 0.32223681E+04</pdfrwt>
<totfact> 0.42429283E-01</totfact>
</mgrwt>
</event>
<event>
 6    1  0.9906445E-006  0.3183199E+04  0.7818608E-02  0.8193268E-01
         -2   -1    0    0    0  501 -0.00000000000E+00  0.00000000000E+00  0.51651854110E+03  0.51651854110E+03  0.00000000000E+00 0.  1.
          2   -1    0    0  501    0  0.00000000000E+00 -0.00000000000E+00 -0.49043529500E+04  0.49043529500E+04  0.00000000000E+00 0. -1.
         23    2    1    2    0    0  0.81950875026E+02  0.18047526539E+03 -0.48828306221E+04  0.48876656036E+04  0.89179042747E+02 0.  0.
         11    1    3    3    0    0 -0.86047837803E+00 -0.73416216695E+01 -0.57781475612E+02  0.58252371245E+02  0.00000000000E+00 0.  1.
        -11    1    3    3    0    0  0.82811353404E+02  0.18781688706E+03 -0.48250491465E+04  0.48294132324E+04  0.00000000000E+00 0. -1.
         22    1    1    2    0    0 -0.81950875026E+02 -0.18047526539E+03  0.49499621320E+03  0.53320588745E+03  0.00000000000E+00 0.  1.
<mgrwt>
<rscale>  0 0.31831992E+04</rscale>
<asrwt>0</asrwt>
<pdfrwt beam="1">  1        2 0.75451587E+00 0.31831992E+04</pdfrwt>
<pdfrwt beam="2">  1       -2 0.79464388E-01 0.31831992E+04</pdfrwt>
<totfact> 0.53085982E-02</totfact>
</mgrwt>
</event>
<event>
 6    1  0.9906445E-006  0.1913064E+04  0.7818608E-02  0.8648381E-01
         -1   -1    0    0    0  501 -0.00000000000E+00  0.00000000000E+00  0.83542765553E+03  0.83542765553E+03  0.00000000000E+00 0.  1.
          1   -1    0    0  501    0  0.00000000000E+00 -0.00000000000E+00 -0.10951916348E+04  0.10951916348E+04  0.00000000000E+00 0. -1.
         23    2    1    2    0    0  0.93595506737E+01  0.65813555099E+03  0.56716275247E+03  0.87371918894E+03  0.92095758074E+02 0.  0.
         11    1    3    3    0    0  0.34032328188E+02  0.51432731530E+03  0.40460987155E+03  0.65528614726E+03  0.00000000000E+00 0.  1.
        -11    1    3    3    0    0 -0.24672777515E+02  0.14380823569E+03  0.16255288092E+03  0.21843304168E+03  0.00000000000E+00 0. -1.
         22    1    1    2    0    0 -0.93595506737E+01 -0.65813555099E+03 -0.82692673177E+03  0.10569001014E+04  0.00000000000E+00 0. -1.
<mgrwt>
<rscale>  0 0.19130639E+04</rscale>
<asrwt>0</asrwt>
<pdfrwt beam="1">  1        1 0.16849102E+00 0.19130639E+04</pdfrwt>
<pdfrwt beam="2">  1       -1 0.12852733E+00 0.19130639E+04</pdfrwt>
<totfact> 0.62372549E+00</totfact>
</mgrwt>
</event>
<event>
 6    1  0.9906445E-006  0.3734229E+04  0.7818608E-02  0.8060418E-01
          2   -1    0    0  501    0  0.00000000000E+00  0.00000000000E+00  0.25743347255E+04  0.25743347255E+04  0.00000000000E+00 0. -1.
         -2   -1    0    0    0  501 -0.00000000000E+00 -0.00000000000E+00 -0.13541813848E+04  0.13541813848E+04  0.00000000000E+00 0.  1.
         23    2    1    2    0    0  0.11244065862E+04  0.95062818118E+03 -0.59549533108E+03  0.15908753746E+04  0.91025591183E+02 0.  0.
         11    1    3    3    0    0  0.29168607954E+03  0.20491750814E+03 -0.11995142796E+03  0.37611208331E+03  0.00000000000E+00 0. -1.
        -11    1    3    3    0    0  0.83272050668E+03  0.74571067303E+03 -0.47554390313E+03  0.12147632913E+04  0.00000000000E+00 0.  1.
         22    1    1    2    0    0 -0.11244065862E+04 -0.95062818118E+03  0.18156486718E+04  0.23376407357E+04  0.00000000000E+00 0. -1.
<mgrwt>
<rscale>  0 0.37342288E+04</rscale>
<asrwt>0</asrwt>
<pdfrwt beam="1">  1        2 0.39605149E+00 0.37342288E+04</pdfrwt>
<pdfrwt beam="2">  1       -2 0.20833560E+00 0.37342288E+04</pdfrwt>
<totfact> 0.29807400E-01</totfact>
</mgrwt>
</event>
<event>
 6    1  0.9906445E-006  0.2340200E+04  0.7818608E-02  0.8462237E-01
          1   -1    0    0  501    0  0.00000000000E+00  0.00000000000E+00  0.13594894477E+04  0.13594894477E+04  0.00000000000E+00 0. -1.
         -1   -1    0    0    0  501 -0.00000000000E+00 -0.00000000000E+00 -0.10070939938E+04  0.10070939938E+04  0.00000000000E+00 0.  1.
         23    2    1    2    0    0 -0.13544375697E+02  0.11505884291E+04 -0.28463038023E+02  0.11545230576E+04  0.89867473350E+02 0.  0.
         13    1    3    3    0    0  0.21389061050E+02  0.84774535124E+03  0.33000607664E+01  0.84802155803E+03  0.00000000000E+00 0. -1.
        -13    1    3    3    0    0 -0.34933436747E+02  0.30284307786E+03 -0.31763098789E+02  0.30650149960E+03  0.00000000000E+00 0.  1.
         22    1    1    2    0    0  0.13544375697E+02 -0.11505884291E+04  0.38085849196E+03  0.12120603839E+04  0.00000000000E+00 0.  1.
<mgrwt>
<rscale>  0 0.23401997E+04</rscale>
<asrwt>0</asrwt>
<pdfrwt beam="1">  1        1 0.20915222E+00 0.23401997E+04</pdfrwt>
<pdfrwt beam="2">  1       -1 0.15493754E+00 0.23401997E+04</pdfrwt>
<totfact> 0.23614675E+00</totfact>
</mgrwt>
</event>
<event>
 6    1  0.9906445E-006  0.5262294E+04  0.7818608E-02  0.7789272E-01
          1   -1    0    0  501    0  0.00000000000E+00  0.00000000000E+00  0.32951683655E+04  0.32951683655E+04  0.00000000000E+00 0. -1.
         -1   -1    0    0    0  501 -0.00000000000E+00 -0.00000000000E+00 -0.21009348108E+04  0.21009348108E+04  0.00000000000E+00 0.  1.
         23    2    1    2    0    0  0.11032196433E+04  0.16855879428E+04 -0.11370896594E+04  0.23149721790E+04  0.88447734472E+02 0.  0.
         11    1    3    3    0    0  0.47255592469E+03  0.78156077661E+03 -0.54925082835E+03  0.10657498871E+04  0.00000000000E+00 0.  1.
        -11    1    3    3    0    0  0.63066371861E+03  0.90402716619E+03 -0.58783883107E+03  0.12492222919E+04  0.00000000000E+00 0. -1.
         22    1    1    2    0    0 -0.11032196433E+04 -0.16855879428E+04  0.23313232141E+04  0.30811309973E+04  0.00000000000E+00 0. -1.
<mgrwt>
<rscale>  0 0.52622938E+04</rscale>
<asrwt>0</asrwt>
<pdfrwt beam="1">  1        1 0.50694898E+00 0.52622938E+04</pdfrwt>
<pdfrwt beam="2">  1       -1 0.32322074E+00 0.52622938E+04</pdfrwt>
<totfact> 0.59360581E-03</totfact>
</mgrwt>
</event>
<event>
 6    1  0.9906445E-006  0.1646973E+04  0.7818608E-02  0.8792199E-01
         -1   -1    0    0    0  501 -0.00000000000E+00  0.00000000000E+00  0.91872391687E+03  0.91872391687E+03  0.00000000000E+00 0.  1.
          1   -1    0    0  501    0  0.00000000000E+00 -0.00000000000E+00 -0.73812169356E+03  0.73812169356E+03  0.00000000000E+00 0. -1.
         23    2    1    2    0    0  0.58427155303E+03 -0.54646115800E+02 -0.48690927953E+03  0.76806495577E+03  0.92106916885E+02 0.  0.
         11    1    3    3    0    0  0.25762350295E+03 -0.58545121255E+02 -0.25721554547E+03  0.36872379544E+03  0.00000000000E+00 0. -1.
        -11    1    3    3    0    0  0.32664805009E+03  0.38990054557E+01 -0.22969373407E+03  0.39934116033E+03  0.00000000000E+00 0.  1.
         22    1    1    2    0    0 -0.58427155303E+03  0.54646115800E+02  0.66751150284E+03  0.88878065465E+03  0.00000000000E+00 0.  1.
<mgrwt>
<rscale>  0 0.16469730E+04</rscale>
<asrwt>0</asrwt>
<pdfrwt beam="1">  1        1 0.11355718E+00 0.16469730E+04</pdfrwt>
<pdfrwt beam="2">  1       -1 0.14134214E+00 0.16469730E+04</pdfrwt>
<totfact> 0.98125887E+00</totfact>
</mgrwt>
</event>
<event>
 6    1  0.9906445E-006  0.1968870E+04  0.7818608E-02  0.8621315E-01
         -2   -1    0    0    0  501 -0.00000000000E+00  0.00000000000E+00  0.32408388155E+03  0.32408388155E+03  0.00000000000E+00 0.  1.
          2   -1    0    0  501    0  0.00000000000E+00 -0.00000000000E+00 -0.29903129304E+04  0.29903129304E+04  0.00000000000E+00 0. -1.
         23    2    1    2    0    0  0.49357792471E+03  0.63518362615E+03 -0.38709216187E+03  0.89746852252E+03  0.92368828264E+02 0.  0.
         11    1    3    3    0    0  0.33570029636E+03  0.38001364947E+03 -0.27747185389E+03  0.57801011449E+03  0.00000000000E+00 0. -1.
        -11    1    3    3    0    0  0.15787762835E+03  0.25516997668E+03 -0.10962030798E+03  0.31945840803E+03  0.00000000000E+00 0.  1.
         22    1    1    2    0    0 -0.49357792471E+03 -0.63518362615E+03 -0.22791368869E+04  0.24169282894E+04  0.00000000000E+00 0. -1.
<mgrwt>
<rscale>  0 0.19688700E+04</rscale>
<asrwt>0</asrwt>
<pdfrwt beam="1">  1        2 0.46004813E+00 0.19688700E+04</pdfrwt>
<pdfrwt beam="2">  1       -2 0.49859060E-01 0.19688700E+04</pdfrwt>
<totfact> 0.62752943E+00</totfact>
</mgrwt>
</event>
<event>
 6    1  0.9906445E-006  0.2231235E+04  0.7818608E-02  0.8505539E-01
          2   -1    0    0  501    0  0.00000000000E+00  0.00000000000E+00  0.23835145536E+04  0.23835145536E+04  0.00000000000E+00 0. -1.
         -2   -1    0    0    0  501 -0.00000000000E+00 -0.00000000000E+00 -0.52217100759E+03  0.52217100759E+03  0.00000000000E+00 0.  1.
         23    2    1    2    0    0 -0.64853624824E+03 -0.18761082468E+03  0.20850724237E+04  0.21944530412E+04  0.11090559638E+03 0.  0.
         11    1    3    3    0    0 -0.39026912826E+03 -0.84921724836E+02  0.10734589530E+04  0.11453540132E+04  0.00000000000E+00 0.  1.
        -11    1    3    3    0    0 -0.25826711998E+03 -0.10268909985E+03  0.10116134707E+04  0.10490990280E+04  0.00000000000E+00 0. -1.
         22    1    1    2    0    0  0.64853624824E+03  0.18761082468E+03 -0.22372887764E+03  0.71123252000E+03  0.00000000000E+00 0.  1.
<mgrwt>
<rscale>  0 0.22312348E+04</rscale>
<asrwt>0</asrwt>
<pdfrwt beam="1">  1        2 0.36669454E+00 0.22312348E+04</pdfrwt>
<pdfrwt beam="2">  1       -2 0.80334003E-01 0.22312348E+04</pdfrwt>
<totfact> 0.50721629E+00</totfact>
</mgrwt>
</event>
<event>
 6    1  0.9906445E-006  0.6149189E+03  0.7818608E-02  0.9874929E-01
          2   -1    0    0  501    0  0.00000000000E+00  0.00000000000E+00  0.29829557334E+03  0.29829557334E+03  0.00000000000E+00 0. -1.
         -2   -1    0    0    0  501 -0.00000000000E+00 -0.00000000000E+00 -0.31690480689E+03  0.31690480689E+03  0.00000000000E+00 0.  1.
         23    2    1    2    0    0 -0.25095483732E+03  0.16427680187E+03  0.83485800447E+01  0.31404938533E+03  0.92693687107E+02 0.  0.
         11    1    3    3    0    0 -0.15465402926E+03  0.99905920619E+02  0.50281226863E+02  0.19085927674E+03  0.00000000000E+00 0. -1.
        -11    1    3    3    0    0 -0.96300808062E+02  0.64370881253E+02 -0.41932646818E+02  0.12319010860E+03  0.00000000000E+00 0.  1.
         22    1    1    2    0    0  0.25095483732E+03 -0.16427680187E+03 -0.26957813593E+02  0.30115099489E+03  0.00000000000E+00 0.  1.
<mgrwt>
<rscale>  0 0.61491886E+03</rscale>
<asrwt>0</asrwt>
<pdfrwt beam="1">  1        2 0.45891627E-01 0.61491886E+03</pdfrwt>
<pdfrwt beam="2">  1       -2 0.48754586E-01 0.61491886E+03</pdfrwt>
<totfact> 0.44412998E+02</totfact>
</mgrwt>
</event>
<event>
 6    1  0.9906445E-006  0.1740099E+04  0.7818608E-02  0.8738819E-01
          2   -1    0    0  501    0  0.00000000000E+00  0.00000000000E+00  0.48481598756E+03  0.48481598756E+03  0.00000000000E+00 0.  1.
         -2   -1    0    0    0  501 -0.00000000000E+00 -0.00000000000E+00 -0.15613893432E+04  0.15613893432E+04  0.00000000000E+00 0. -1.
         23    2    1    2    0    0 -0.31920131584E+03 -0.58822512548E+03  0.10948010643E+03  0.68436059176E+03  0.92006780013E+02 0.  0.
         13    1    3    3    0    0 -0.24771985142E+03 -0.46916988443E+03  0.12365954632E+03  0.54477260269E+03  0.00000000000E+00 0. -1.
        -13    1    3    3    0    0 -0.71481464421E+02 -0.11905524105E+03 -0.14179439890E+02  0.13958798907E+03  0.00000000000E+00 0.  1.
         22    1    1    2    0    0  0.31920131584E+03  0.58822512548E+03 -0.11860534621E+04  0.13618447390E+04  0.00000000000E+00 0. -1.
<mgrwt>
<rscale>  0 0.17400994E+04</rscale>
<asrwt>0</asrwt>
<pdfrwt beam="1">  1        2 0.74587074E-01 0.17400994E+04</pdfrwt>
<pdfrwt beam="2">  1       -2 0.24021375E+00 0.17400994E+04</pdfrwt>
<totfact> 0.44698737E+00</totfact>
</mgrwt>
</event>
<event>
 6    1  0.9906445E-006  0.1612184E+04  0.7818608E-02  0.8813097E-01
          2   -1    0    0  501    0  0.00000000000E+00  0.00000000000E+00  0.46914034070E+03  0.46914034070E+03  0.00000000000E+00 0.  1.
         -2   -1    0    0    0  501 -0.00000000000E+00 -0.00000000000E+00 -0.13850539006E+04  0.13850539006E+04  0.00000000000E+00 0. -1.
         23    2    1    2    0    0  0.53998147461E+03  0.48544303938E+03 -0.63516158085E+02  0.73445486627E+03  0.90303437598E+02 0.  0.
         13    1    3    3    0    0  0.28782871473E+03  0.31225214603E+03 -0.57023188134E+02  0.42848385700E+03  0.00000000000E+00 0. -1.
        -13    1    3    3    0    0  0.25215275988E+03  0.17319089335E+03 -0.64929699503E+01  0.30597100927E+03  0.00000000000E+00 0.  1.
         22    1    1    2    0    0 -0.53998147461E+03 -0.48544303938E+03 -0.85239740184E+03  0.11197393751E+04  0.00000000000E+00 0. -1.
<mgrwt>
<rscale>  0 0.16121844E+04</rscale>
<asrwt>0</asrwt>
<pdfrwt beam="1">  1        2 0.72175439E-01 0.16121844E+04</pdfrwt>
<pdfrwt beam="2">  1       -2 0.21308521E+00 0.16121844E+04</pdfrwt>
<totfact> 0.69426452E+00</totfact>
</mgrwt>
</event>
<event>
 6    1  0.9906445E-006  0.1515258E+04  0.7818608E-02  0.8874369E-01
         -2   -1    0    0    0  501 -0.00000000000E+00  0.00000000000E+00  0.94438805622E+03  0.94438805622E+03  0.00000000000E+00 0.  1.
          2   -1    0    0  501    0  0.00000000000E+00 -0.00000000000E+00 -0.60780315869E+03  0.60780315869E+03  0.00000000000E+00 0. -1.
         23    2    1    2    0    0 -0.55039615179E+03 -0.33409804170E+03  0.57267891503E+03  0.86640858865E+03  0.90251190565E+02 0.  0.
         11    1    3    3    0    0 -0.42052776866E+03 -0.28457544773E+03  0.41147032270E+03  0.65355536577E+03  0.00000000000E+00 0. -1.
        -11    1    3    3    0    0 -0.12986838313E+03 -0.49522593975E+02  0.16120859234E+03  0.21285322289E+03  0.00000000000E+00 0.  1.
         22    1    1    2    0    0  0.55039615179E+03  0.33409804170E+03 -0.23609401750E+03  0.68578262626E+03  0.00000000000E+00 0. -1.
<mgrwt>
<rscale>  0 0.15152585E+04</rscale>
<asrwt>0</asrwt>
<pdfrwt beam="1">  1        2 0.93508178E-01 0.15152585E+04</pdfrwt>
<pdfrwt beam="2">  1       -2 0.14529047E+00 0.15152585E+04</pdfrwt>
<totfact> 0.15349071E+01</totfact>
</mgrwt>
</event>
<event>
 6    1  0.9906445E-006  0.1585050E+04  0.7818608E-02  0.8829785E-01
          2   -1    0    0  501    0  0.00000000000E+00  0.00000000000E+00  0.27720882951E+04  0.27720882951E+04  0.00000000000E+00 0. -1.
         -2   -1    0    0    0  501 -0.00000000000E+00 -0.00000000000E+00 -0.22657857727E+03  0.22657857727E+03  0.00000000000E+00 0.  1.
         23    2    1    2    0    0  0.69663519883E+03 -0.14758224243E+03  0.19240942235E+04  0.20535540034E+04  0.88681144525E+02 0.  0.
         11    1    3    3    0    0  0.39406089171E+02 -0.94788447870E+01  0.62169351103E+02  0.74213991800E+02  0.00000000000E+00 0. -1.
        -11    1    3    3    0    0  0.65722910966E+03 -0.13810339764E+03  0.18619248724E+04  0.19793400116E+04  0.00000000000E+00 0.  1.
         22    1    1    2    0    0 -0.69663519883E+03  0.14758224243E+03  0.62141549434E+03  0.94511286899E+03  0.00000000000E+00 0.  1.
<mgrwt>
<rscale>  0 0.15850499E+04</rscale>
<asrwt>0</asrwt>
<pdfrwt beam="1">  1        2 0.42647510E+00 0.15850499E+04</pdfrwt>
<pdfrwt beam="2">  1       -2 0.34858245E-01 0.15850499E+04</pdfrwt>
<totfact> 0.17891822E+01</totfact>
</mgrwt>
</event>
<event>
 6    1  0.1498405E-005  0.3229012E+04  0.7818608E-02  0.8181197E-01
          1   -1    0    0  501    0  0.00000000000E+00  0.00000000000E+00  0.23444705330E+04  0.23444705330E+04  0.00000000000E+00 0. -1.
         -1   -1    0    0    0  501 -0.00000000000E+00 -0.00000000000E+00 -0.11118201864E+04  0.11118201864E+04  0.00000000000E+00 0.  1.
         23    2    1    2    0    0  0.15692549825E+04  0.27079554052E+03  0.34128105923E+03  0.16313439718E+04  0.94440287455E+02 0.  0.
         11    1    3    3    0    0  0.88245628668E+03  0.19306413987E+03  0.16880297736E+03  0.91896534493E+03  0.00000000000E+00 0.  1.
        -11    1    3    3    0    0  0.68679869586E+03  0.77731400651E+02  0.17247808187E+03  0.71237862686E+03  0.00000000000E+00 0. -1.
         22    1    1    2    0    0 -0.15692549825E+04 -0.27079554052E+03  0.89136928740E+03  0.18249467476E+04  0.00000000000E+00 0. -1.
<mgrwt>
<rscale>  0 0.32290120E+04</rscale>
<asrwt>0</asrwt>
<pdfrwt beam="1">  1        1 0.36068777E+00 0.32290120E+04</pdfrwt>
<pdfrwt beam="2">  1       -1 0.17104926E+00 0.32290120E+04</pdfrwt>
<totfact> 0.34994230E-01</totfact>
</mgrwt>
</event>
<event>
 6    1  0.9906445E-006  0.2586269E+04  0.7818608E-02  0.8372880E-01
         -2   -1    0    0    0  501 -0.00000000000E+00  0.00000000000E+00  0.71674607957E+03  0.71674607957E+03  0.00000000000E+00 0.  1.
          2   -1    0    0  501    0  0.00000000000E+00 -0.00000000000E+00 -0.23330386319E+04  0.23330386319E+04  0.00000000000E+00 0. -1.
         23    2    1    2    0    0 -0.68291391560E+03  0.10834096110E+04 -0.61214688003E+03  0.14223768547E+04  0.91018199764E+02 0.  0.
         13    1    3    3    0    0 -0.13189356892E+03  0.17054121377E+03 -0.73579586254E+02  0.22780292937E+03  0.00000000000E+00 0.  1.
        -13    1    3    3    0    0 -0.55102034667E+03  0.91286839719E+03 -0.53856729378E+03  0.11945739253E+04  0.00000000000E+00 0. -1.
         22    1    1    2    0    0  0.68291391560E+03 -0.10834096110E+04 -0.10041456723E+04  0.16274078568E+04  0.00000000000E+00 0. -1.
<mgrwt>
<rscale>  0 0.25862686E+04</rscale>
<asrwt>0</asrwt>
<pdfrwt beam="1">  1        2 0.35892902E+00 0.25862686E+04</pdfrwt>
<pdfrwt beam="2">  1       -2 0.11026863E+00 0.25862686E+04</pdfrwt>
<totfact> 0.25108031E+00</totfact>
</mgrwt>
</event>
<event>
 6    1  0.9906445E-006  0.4824052E+04  0.7818608E-02  0.7856237E-01
         -2   -1    0    0    0  501 -0.00000000000E+00  0.00000000000E+00  0.19165845503E+04  0.19165845503E+04  0.00000000000E+00 0.  1.
          2   -1    0    0  501    0  0.00000000000E+00 -0.00000000000E+00 -0.30355397928E+04  0.30355397928E+04  0.00000000000E+00 0. -1.
         23    2    1    2    0    0 -0.14329528475E+04 -0.65828708071E+03 -0.24314262724E+04  0.29004723384E+04  0.11920706206E+03 0.  0.
         11    1    3    3    0    0 -0.28286469239E+03 -0.10861595975E+03 -0.39193966455E+03  0.49540545169E+03  0.00000000000E+00 0.  1.
        -11    1    3    3    0    0 -0.11500881552E+04 -0.54967112096E+03 -0.20394866079E+04  0.24050668867E+04  0.00000000000E+00 0. -1.
         22    1    1    2    0    0  0.14329528475E+04  0.65828708071E+03  0.13124710299E+04  0.20516520047E+04  0.00000000000E+00 0.  1.
<mgrwt>
<rscale>  0 0.48240517E+04</rscale>
<asrwt>0</asrwt>
<pdfrwt beam="1">  1        2 0.46700612E+00 0.48240517E+04</pdfrwt>
<pdfrwt beam="2">  1       -2 0.29485916E+00 0.48240517E+04</pdfrwt>
<totfact> 0.41694513E-02</totfact>
</mgrwt>
</event>
<event>
 6    1  0.9906445E-006  0.2036463E+03  0.7818608E-02  0.1146699E+00
         -2   -1    0    0    0  501 -0.00000000000E+00  0.00000000000E+00  0.67022304644E+02  0.67022304644E+02  0.00000000000E+00 0.  1.
          2   -1    0    0  501    0  0.00000000000E+00 -0.00000000000E+00 -0.15469408738E+03  0.15469408738E+03  0.00000000000E+00 0. -1.
         23    2    1    2    0    0  0.25213086809E+02 -0.45786702858E+02 -0.12103990461E+03  0.15970386537E+03  0.90125158534E+02 0.  0.
         13    1    3    3    0    0  0.30481451970E+02  0.97472924199E+00 -0.71597974919E+00  0.30505436209E+02  0.00000000000E+00 0.  1.
        -13    1    3    3    0    0 -0.52683651605E+01 -0.46761432100E+02 -0.12032392486E+03  0.12919842916E+03  0.00000000000E+00 0. -1.
         22    1    1    2    0    0 -0.25213086809E+02  0.45786702858E+02  0.33368121873E+02  0.62012526657E+02  0.00000000000E+00 0.  1.
<mgrwt>
<rscale>  0 0.20364630E+03</rscale>
<asrwt>0</asrwt>
<pdfrwt beam="1">  1        2 0.23799090E-01 0.20364630E+03</pdfrwt>
<pdfrwt beam="2">  1       -2 0.10311124E-01 0.20364630E+03</pdfrwt>
<totfact> 0.13902990E+04</totfact>
</mgrwt>
</event>
<event>
 6    1  0.9906445E-006  0.4108408E+04  0.7818608E-02  0.7983027E-01
         -1   -1    0    0    0  501 -0.00000000000E+00  0.00000000000E+00  0.16109185292E+04  0.16109185292E+04  0.00000000000E+00 0.  1.
          1   -1    0    0  501    0  0.00000000000E+00 -0.00000000000E+00 -0.26194714460E+04  0.26194714460E+04  0.00000000000E+00 0. -1.
         23    2    1    2    0    0 -0.13932924309E+04 -0.55047931393E+03  0.94119326793E+03  0.17715688231E+04  0.91214331233E+02 0.  0.
         11    1    3    3    0    0 -0.32937673920E+03 -0.17189617523E+03  0.24042675050E+03  0.44254079331E+03  0.00000000000E+00 0. -1.
        -11    1    3    3    0    0 -0.10639156917E+04 -0.37858313869E+03  0.70076651743E+03  0.13290280298E+04  0.00000000000E+00 0.  1.
         22    1    1    2    0    0  0.13932924309E+04  0.55047931393E+03 -0.19497461848E+04  0.24588211521E+04  0.00000000000E+00 0. -1.
<mgrwt>
<rscale>  0 0.41084085E+04</rscale>
<asrwt>0</asrwt>
<pdfrwt beam="1">  1        1 0.40299561E+00 0.41084085E+04</pdfrwt>
<pdfrwt beam="2">  1       -1 0.24783362E+00 0.41084085E+04</pdfrwt>
<totfact> 0.62479982E-02</totfact>
</mgrwt>
</event>
<event>
 6    1  0.9906445E-006  0.2929124E+04  0.7818608E-02  0.8264265E-01
          2   -1    0    0  501    0  0.00000000000E+00  0.00000000000E+00  0.22060597453E+04  0.22060597453E+04  0.00000000000E+00 0. -1.
         -2   -1    0    0    0  501 -0.00000000000E+00 -0.00000000000E+00 -0.97229556536E+03  0.97229556536E+03  0.00000000000E+00 0.  1.
         23    2    1    2    0    0  0.21814976066E+03  0.86527614653E+03  0.18756433977E+04  0.20791278283E+04  0.91881681912E+02 0.  0.
         11    1    3    3    0    0  0.88781762739E+02  0.42591882964E+03  0.10118436671E+04  0.11014157514E+04  0.00000000000E+00 0.  1.
        -11    1    3    3    0    0  0.12936799792E+03  0.43935731689E+03  0.86379973063E+03  0.97771207696E+03  0.00000000000E+00 0. -1.
         22    1    1    2    0    0 -0.21814976066E+03 -0.86527614653E+03 -0.64187921771E+03  0.10992274824E+04  0.00000000000E+00 0.  1.
<mgrwt>
<rscale>  0 0.29291242E+04</rscale>
<asrwt>0</asrwt>
<pdfrwt beam="1">  1        2 0.33939381E+00 0.29291242E+04</pdfrwt>
<pdfrwt beam="2">  1       -2 0.14958393E+00 0.29291242E+04</pdfrwt>
<totfact> 0.13314323E+00</totfact>
</mgrwt>
</event>
<event>
 6    1  0.9906445E-006  0.1932114E+04  0.7818608E-02  0.8639034E-01
         -2   -1    0    0    0  501 -0.00000000000E+00  0.00000000000E+00  0.33200433777E+03  0.33200433777E+03  0.00000000000E+00 0.  1.
          2   -1    0    0  501    0  0.00000000000E+00 -0.00000000000E+00 -0.28110052976E+04  0.28110052976E+04  0.00000000000E+00 0. -1.
         23    2    1    2    0    0 -0.43614386289E+03 -0.73241915092E+03 -0.51016036969E+03  0.99755104776E+03  0.90472141137E+02 0.  0.
         13    1    3    3    0    0 -0.59476010621E+02 -0.17166808080E+03 -0.11190585686E+03  0.21337817744E+03  0.00000000000E+00 0. -1.
        -13    1    3    3    0    0 -0.37666785226E+03 -0.56075107011E+03 -0.39825451283E+03  0.78417287032E+03  0.00000000000E+00 0.  1.
         22    1    1    2    0    0  0.43614386289E+03  0.73241915092E+03 -0.19688405901E+04  0.21454585876E+04  0.00000000000E+00 0. -1.
<mgrwt>
<rscale>  0 0.19321138E+04</rscale>
<asrwt>0</asrwt>
<pdfrwt beam="1">  1        2 0.43246235E+00 0.19321138E+04</pdfrwt>
<pdfrwt beam="2">  1       -2 0.51077591E-01 0.19321138E+04</pdfrwt>
<totfact> 0.77206384E+00</totfact>
</mgrwt>
</event>
<event>
 6    1  0.9906445E-006  0.1119119E+04  0.7818608E-02  0.9186755E-01
         -1   -1    0    0    0  501 -0.00000000000E+00  0.00000000000E+00  0.47637832108E+03  0.47637832108E+03  0.00000000000E+00 0.  1.
          1   -1    0    0  501    0  0.00000000000E+00 -0.00000000000E+00 -0.65726473911E+03  0.65726473911E+03  0.00000000000E+00 0. -1.
         23    2    1    2    0    0 -0.40402870166E+03 -0.26707273465E+03  0.18520395079E+03  0.52652758887E+03  0.91453600779E+02 0.  0.
         13    1    3    3    0    0 -0.10977275138E+03 -0.47731091262E+02  0.82632335532E+02  0.14545245579E+03  0.00000000000E+00 0.  1.
        -13    1    3    3    0    0 -0.29425595028E+03 -0.21934164339E+03  0.10257161526E+03  0.38107513309E+03  0.00000000000E+00 0. -1.
         22    1    1    2    0    0  0.40402870166E+03  0.26707273465E+03 -0.36609036883E+03  0.60711547132E+03  0.00000000000E+00 0. -1.
<mgrwt>
<rscale>  0 0.11191187E+04</rscale>
<asrwt>0</asrwt>
<pdfrwt beam="1">  1        1 0.10111765E+00 0.11191187E+04</pdfrwt>
<pdfrwt beam="2">  1       -1 0.73288972E-01 0.11191187E+04</pdfrwt>
<totfact> 0.55962064E+01</totfact>
</mgrwt>
</event>
<event>
 6    1  0.9906445E-006  0.8201956E+03  0.7818608E-02  0.9531236E-01
         -4   -1    0    0    0  501 -0.00000000000E+00  0.00000000000E+00  0.21102823474E+04  0.21102823474E+04  0.00000000000E+00 0.  1.
          4   -1    0    0  501    0  0.00000000000E+00 -0.00000000000E+00 -0.79695597675E+02  0.79695597675E+02  0.00000000000E+00 0. -1.
         23    2    1    2    0    0  0.31821852893E+03  0.17296793350E+03  0.54902974262E+03  0.66479202084E+03  0.96611772135E+02 0.  0.
         13    1    3    3    0    0  0.89647883838E+02  0.21404313607E+02  0.20543638902E+03  0.22516437918E+03  0.00000000000E+00 0. -1.
        -13    1    3    3    0    0  0.22857064510E+03  0.15156361989E+03  0.34359335360E+03  0.43962764166E+03  0.00000000000E+00 0.  1.
         22    1    1    2    0    0 -0.31821852893E+03 -0.17296793350E+03  0.14815570071E+04  0.15251859242E+04  0.00000000000E+00 0.  1.
<mgrwt>
<rscale>  0 0.82019562E+03</rscale>
<asrwt>0</asrwt>
<pdfrwt beam="1">  1        4 0.12260863E-01 0.82019562E+03</pdfrwt>
<pdfrwt beam="2">  1       -4 0.32465878E+00 0.82019562E+03</pdfrwt>
<totfact> 0.24820211E+00</totfact>
</mgrwt>
</event>
<event>
 6    1  0.9906445E-006  0.2549278E+04  0.7818608E-02  0.8385637E-01
          2   -1    0    0  501    0  0.00000000000E+00  0.00000000000E+00  0.21942540884E+04  0.21942540884E+04  0.00000000000E+00 0. -1.
         -2   -1    0    0    0  501 -0.00000000000E+00 -0.00000000000E+00 -0.74043593012E+03  0.74043593012E+03  0.00000000000E+00 0.  1.
         23    2    1    2    0    0  0.68404766917E+03  0.93186792495E+03  0.13411939485E+04  0.17732326341E+04  0.96196277735E+02 0.  0.
         11    1    3    3    0    0  0.34501360864E+03  0.40272762046E+03  0.57314229485E+03  0.78084314467E+03  0.00000000000E+00 0. -1.
        -11    1    3    3    0    0  0.33903406053E+03  0.52914030449E+03  0.76805165365E+03  0.99238948942E+03  0.00000000000E+00 0.  1.
         22    1    1    2    0    0 -0.68404766917E+03 -0.93186792495E+03  0.11262420980E+03  0.11614573844E+04  0.00000000000E+00 0.  1.
<mgrwt>
<rscale>  0 0.25492780E+04</rscale>
<asrwt>0</asrwt>
<pdfrwt beam="1">  1        2 0.33757755E+00 0.25492780E+04</pdfrwt>
<pdfrwt beam="2">  1       -2 0.11391322E+00 0.25492780E+04</pdfrwt>
<totfact> 0.27884651E+00</totfact>
</mgrwt>
</event>
<event>
 6    1  0.9906445E-006  0.1638223E+04  0.7818608E-02  0.8797404E-01
          2   -1    0    0  501    0  0.00000000000E+00  0.00000000000E+00  0.13653474998E+04  0.13653474998E+04  0.00000000000E+00 0. -1.
         -2   -1    0    0    0  501 -0.00000000000E+00 -0.00000000000E+00 -0.49140856909E+03  0.49140856909E+03  0.00000000000E+00 0.  1.
         23    2    1    2    0    0 -0.56881643788E+03 -0.45625291148E+03  0.85475755833E+03  0.11273132786E+04  0.92227356366E+02 0.  0.
         11    1    3    3    0    0 -0.32153208217E+03 -0.30702766368E+03  0.55409136051E+03  0.71039855146E+03  0.00000000000E+00 0.  1.
        -11    1    3    3    0    0 -0.24728435571E+03 -0.14922524781E+03  0.30066619782E+03  0.41691472710E+03  0.00000000000E+00 0. -1.
         22    1    1    2    0    0  0.56881643788E+03  0.45625291148E+03  0.19181372334E+02  0.72944279027E+03  0.00000000000E+00 0.  1.
<mgrwt>
<rscale>  0 0.16382228E+04</rscale>
<asrwt>0</asrwt>
<pdfrwt beam="1">  1        2 0.21005346E+00 0.16382228E+04</pdfrwt>
<pdfrwt beam="2">  1       -2 0.75601319E-01 0.16382228E+04</pdfrwt>
<totfact> 0.22723530E+01</totfact>
</mgrwt>
</event>
<event>
 6    1  0.9906445E-006  0.1688165E+04  0.7818608E-02  0.8768143E-01
          1   -1    0    0  501    0  0.00000000000E+00  0.00000000000E+00  0.10315323211E+04  0.10315323211E+04  0.00000000000E+00 0. -1.
         -1   -1    0    0    0  501 -0.00000000000E+00 -0.00000000000E+00 -0.69069642164E+03  0.69069642164E+03  0.00000000000E+00 0.  1.
         23    2    1    2    0    0  0.48442752313E+03  0.44147793960E+03  0.70963510435E+03  0.97017445618E+03  0.89909386480E+02 0.  0.
         13    1    3    3    0    0  0.42184887842E+02  0.60130595684E+02  0.48236795374E+02  0.87875148521E+02  0.00000000000E+00 0. -1.
        -13    1    3    3    0    0  0.44224263529E+03  0.38134734391E+03  0.66139830898E+03  0.88229930766E+03  0.00000000000E+00 0.  1.
         22    1    1    2    0    0 -0.48442752313E+03 -0.44147793960E+03 -0.36879920493E+03  0.75205428652E+03  0.00000000000E+00 0.  1.
<mgrwt>
<rscale>  0 0.16881655E+04</rscale>
<asrwt>0</asrwt>
<pdfrwt beam="1">  1        1 0.15869728E+00 0.16881655E+04</pdfrwt>
<pdfrwt beam="2">  1       -1 0.10626099E+00 0.16881655E+04</pdfrwt>
<totfact> 0.11280026E+01</totfact>
</mgrwt>
</event>
<event>
 6    1  0.9906445E-006  0.2028196E+04  0.7818608E-02  0.8593551E-01
          1   -1    0    0  501    0  0.00000000000E+00  0.00000000000E+00  0.15600278330E+04  0.15600278330E+04  0.00000000000E+00 0. -1.
         -1   -1    0    0    0  501 -0.00000000000E+00 -0.00000000000E+00 -0.65921551904E+03  0.65921551904E+03  0.00000000000E+00 0.  1.
         23    2    1    2    0    0 -0.22822809228E+03 -0.76290512923E+02  0.15269022346E+04  0.15484998144E+04  0.92265577405E+02 0.  0.
         13    1    3    3    0    0 -0.14910219607E+03 -0.67726855566E+02  0.12398560736E+04  0.12506244341E+04  0.00000000000E+00 0. -1.
        -13    1    3    3    0    0 -0.79125896218E+02 -0.85636573564E+01  0.28704616103E+03  0.29787538039E+03  0.00000000000E+00 0.  1.
         22    1    1    2    0    0  0.22822809228E+03  0.76290512923E+02 -0.62608992066E+03  0.67074353759E+03  0.00000000000E+00 0.  1.
<mgrwt>
<rscale>  0 0.20281958E+04</rscale>
<asrwt>0</asrwt>
<pdfrwt beam="1">  1        1 0.24000428E+00 0.20281958E+04</pdfrwt>
<pdfrwt beam="2">  1       -1 0.10141777E+00 0.20281958E+04</pdfrwt>
<totfact> 0.50763701E+00</totfact>
</mgrwt>
</event>
<event>
 6    1  0.9906445E-006  0.6591799E+03  0.7818608E-02  0.9789705E-01
         -1   -1    0    0    0  501 -0.00000000000E+00  0.00000000000E+00  0.69359163515E+03  0.69359163515E+03  0.00000000000E+00 0. -1.
          1   -1    0    0  501    0  0.00000000000E+00 -0.00000000000E+00 -0.15661885718E+03  0.15661885718E+03  0.00000000000E+00 0.  1.
         23    2    1    2    0    0  0.59778789456E+02  0.20199763829E+03 -0.42753782051E+02  0.23339655446E+03  0.90936880375E+02 0.  0.
         11    1    3    3    0    0 -0.12306500486E+02  0.11696075394E+03 -0.28496550513E+02  0.12100959180E+03  0.00000000000E+00 0. -1.
        -11    1    3    3    0    0  0.72085289941E+02  0.85036884355E+02 -0.14257231537E+02  0.11238696267E+03  0.00000000000E+00 0.  1.
         22    1    1    2    0    0 -0.59778789456E+02 -0.20199763829E+03  0.57972656003E+03  0.61681393787E+03  0.00000000000E+00 0. -1.
<mgrwt>
<rscale>  0 0.65917988E+03</rscale>
<asrwt>0</asrwt>
<pdfrwt beam="1">  1        1 0.24095209E-01 0.65917988E+03</pdfrwt>
<pdfrwt beam="2">  1       -1 0.10670640E+00 0.65917988E+03</pdfrwt>
<totfact> 0.17096938E+02</totfact>
</mgrwt>
</event>
<event>
 6    1  0.9906445E-006  0.2471707E+04  0.7818608E-02  0.8413135E-01
         -1   -1    0    0    0  501 -0.00000000000E+00  0.00000000000E+00  0.89246566329E+03  0.89246566329E+03  0.00000000000E+00 0.  1.
          1   -1    0    0  501    0  0.00000000000E+00 -0.00000000000E+00 -0.17113647384E+04  0.17113647384E+04  0.00000000000E+00 0. -1.
         23    2    1    2    0    0 -0.53278772793E+03  0.11040645642E+04 -0.56053134221E+03  0.13510035141E+04  0.90519525821E+02 0.  0.
         11    1    3    3    0    0 -0.17260983644E+03  0.45906880724E+03 -0.22893389358E+03  0.54124768179E+03  0.00000000000E+00 0.  1.
        -11    1    3    3    0    0 -0.36017789150E+03  0.64499575693E+03 -0.33159744863E+03  0.80975583228E+03  0.00000000000E+00 0. -1.
         22    1    1    2    0    0  0.53278772793E+03 -0.11040645642E+04 -0.25836773287E+03  0.12528268876E+04  0.00000000000E+00 0.  1.
<mgrwt>
<rscale>  0 0.24717073E+04</rscale>
<asrwt>0</asrwt>
<pdfrwt beam="1">  1        1 0.26328688E+00 0.24717073E+04</pdfrwt>
<pdfrwt beam="2">  1       -1 0.13730241E+00 0.24717073E+04</pdfrwt>
<totfact> 0.18385463E+00</totfact>
</mgrwt>
</event>
<event>
 6    1  0.9906445E-006  0.1594265E+04  0.7818608E-02  0.8824079E-01
         -2   -1    0    0    0  501 -0.00000000000E+00  0.00000000000E+00  0.23218478640E+03  0.23218478640E+03  0.00000000000E+00 0.  1.
          2   -1    0    0  501    0  0.00000000000E+00 -0.00000000000E+00 -0.27366990964E+04  0.27366990964E+04  0.00000000000E+00 0. -1.
         23    2    1    2    0    0 -0.69668097771E+03  0.24914445135E+03 -0.71696103430E+03  0.10342562556E+04  0.90639589939E+02 0.  0.
         11    1    3    3    0    0 -0.57819124048E+03  0.24008355386E+03 -0.58794221739E+03  0.85884880765E+03  0.00000000000E+00 0. -1.
        -11    1    3    3    0    0 -0.11848973723E+03  0.90608974882E+01 -0.12901881691E+03  0.17540744798E+03  0.00000000000E+00 0.  1.
         22    1    1    2    0    0  0.69668097771E+03 -0.24914445135E+03 -0.17875532757E+04  0.19346276272E+04  0.00000000000E+00 0. -1.
<mgrwt>
<rscale>  0 0.15942646E+04</rscale>
<asrwt>0</asrwt>
<pdfrwt beam="1">  1        2 0.42103066E+00 0.15942646E+04</pdfrwt>
<pdfrwt beam="2">  1       -2 0.35720734E-01 0.15942646E+04</pdfrwt>
<totfact> 0.17910521E+01</totfact>
</mgrwt>
</event>
<event>
 6    1  0.9906445E-006  0.7166785E+03  0.7818608E-02  0.9689127E-01
         -1   -1    0    0    0  501 -0.00000000000E+00  0.00000000000E+00  0.21696932559E+03  0.21696932559E+03  0.00000000000E+00 0.  1.
          1   -1    0    0  501    0  0.00000000000E+00 -0.00000000000E+00 -0.59182112841E+03  0.59182112841E+03  0.00000000000E+00 0. -1.
         23    2    1    2    0    0 -0.19110828573E+03  0.29580653110E+03 -0.16998328662E+03  0.40136562701E+03  0.90422165945E+02 0.  0.
         11    1    3    3    0    0 -0.10321589022E+03  0.14981744861E+03 -0.13712817891E+03  0.22782213535E+03  0.00000000000E+00 0. -1.
        -11    1    3    3    0    0 -0.87892395507E+02  0.14598908250E+03 -0.32855107713E+02  0.17354349166E+03  0.00000000000E+00 0.  1.
         22    1    1    2    0    0  0.19110828573E+03 -0.29580653110E+03 -0.20486851620E+03  0.40742482699E+03  0.00000000000E+00 0.  1.
<mgrwt>
<rscale>  0 0.71667854E+03</rscale>
<asrwt>0</asrwt>
<pdfrwt beam="1">  1        1 0.91049404E-01 0.71667854E+03</pdfrwt>
<pdfrwt beam="2">  1       -1 0.33379896E-01 0.71667854E+03</pdfrwt>
<totfact> 0.29851735E+02</totfact>
</mgrwt>
</event>
<event>
 6    1  0.9906445E-006  0.2261417E+04  0.7818608E-02  0.8493291E-01
          1   -1    0    0  501    0  0.00000000000E+00  0.00000000000E+00  0.21779944445E+04  0.21779944445E+04  0.00000000000E+00 0. -1.
         -1   -1    0    0    0  501 -0.00000000000E+00 -0.00000000000E+00 -0.58700868555E+03  0.58700868555E+03  0.00000000000E+00 0.  1.
         23    2    1    2    0    0 -0.44829285832E+03  0.86032903650E+03  0.91040572543E+02  0.97867502466E+03  0.91563530885E+02 0.  0.
         13    1    3    3    0    0 -0.30137230801E+03  0.62535168823E+03  0.29576997930E+02  0.69481278113E+03  0.00000000000E+00 0.  1.
        -13    1    3    3    0    0 -0.14692055031E+03  0.23497734827E+03  0.61463574613E+02  0.28386224354E+03  0.00000000000E+00 0. -1.
         22    1    1    2    0    0  0.44829285832E+03 -0.86032903650E+03  0.14999451864E+04  0.17863281054E+04  0.00000000000E+00 0. -1.
<mgrwt>
<rscale>  0 0.22614170E+04</rscale>
<asrwt>0</asrwt>
<pdfrwt beam="1">  1        1 0.33507606E+00 0.22614170E+04</pdfrwt>
<pdfrwt beam="2">  1       -1 0.90309030E-01 0.22614170E+04</pdfrwt>
<totfact> 0.24513175E+00</totfact>
</mgrwt>
</event>
<event>
 6    1  0.9906445E-006  0.3716848E+04  0.7818608E-02  0.8064238E-01
         -1   -1    0    0    0  501 -0.00000000000E+00  0.00000000000E+00  0.24444089211E+04  0.24444089211E+04  0.00000000000E+00 0.  1.
          1   -1    0    0  501    0  0.00000000000E+00 -0.00000000000E+00 -0.14129140392E+04  0.14129140392E+04  0.00000000000E+00 0. -1.
         23    2    1    2    0    0 -0.17046123640E+04 -0.39127985609E+03 -0.13296725029E+03  0.17561862929E+04  0.87788202166E+02 0.  0.
         11    1    3    3    0    0 -0.27752230603E+03 -0.36510960304E+02 -0.39575829341E+02  0.28269758902E+03  0.00000000000E+00 0. -1.
        -11    1    3    3    0    0 -0.14270900580E+04 -0.35476889579E+03 -0.93391420947E+02  0.14734887039E+04  0.00000000000E+00 0.  1.
         22    1    1    2    0    0  0.17046123640E+04  0.39127985609E+03  0.11644621322E+04  0.21011366673E+04  0.00000000000E+00 0.  1.
<mgrwt>
<rscale>  0 0.37168480E+04</rscale>
<asrwt>0</asrwt>
<pdfrwt beam="1">  1        1 0.21737139E+00 0.37168480E+04</pdfrwt>
<pdfrwt beam="2">  1       -1 0.37606291E+00 0.37168480E+04</pdfrwt>
<totfact> 0.62663244E-02</totfact>
</mgrwt>
</event>
<event>
 6    1  0.9906445E-006  0.3883746E+04  0.7818608E-02  0.8028418E-01
          1   -1    0    0  501    0  0.00000000000E+00  0.00000000000E+00  0.30284640200E+04  0.30284640200E+04  0.00000000000E+00 0. -1.
         -1   -1    0    0    0  501 -0.00000000000E+00 -0.00000000000E+00 -0.12451429219E+04  0.12451429219E+04  0.00000000000E+00 0.  1.
         23    2    1    2    0    0  0.42184081218E+03 -0.39786792148E+02  0.29762487084E+04  0.30076650225E+04  0.91977460629E+02 0.  0.
         11    1    3    3    0    0  0.22443837042E+03  0.97528503867E-01  0.12831272313E+04  0.13026081848E+04  0.00000000000E+00 0.  1.
        -11    1    3    3    0    0  0.19740244176E+03 -0.39884320652E+02  0.16931214772E+04  0.17050568376E+04  0.00000000000E+00 0. -1.
         22    1    1    2    0    0 -0.42184081218E+03  0.39786792148E+02 -0.11929276104E+04  0.12659419194E+04  0.00000000000E+00 0.  1.
<mgrwt>
<rscale>  0 0.38837459E+04</rscale>
<asrwt>0</asrwt>
<pdfrwt beam="1">  1        1 0.46591754E+00 0.38837459E+04</pdfrwt>
<pdfrwt beam="2">  1       -1 0.19156045E+00 0.38837459E+04</pdfrwt>
<totfact> 0.77519266E-02</totfact>
</mgrwt>
</event>
<event>
 6    1  0.9906445E-006  0.5482931E+03  0.7818608E-02  0.1001890E+00
         -2   -1    0    0    0  501 -0.00000000000E+00  0.00000000000E+00  0.10899981867E+03  0.10899981867E+03  0.00000000000E+00 0.  1.
          2   -1    0    0  501    0  0.00000000000E+00 -0.00000000000E+00 -0.68950865265E+03  0.68950865265E+03  0.00000000000E+00 0. -1.
         23    2    1    2    0    0 -0.18843653914E+03  0.49919671466E+00 -0.23142385500E+02  0.21014979128E+03  0.90104307815E+02 0.  0.
         11    1    3    3    0    0 -0.17144003543E+03 -0.26238214530E+02 -0.33846658586E+02  0.17670802457E+03  0.00000000000E+00 0.  1.
        -11    1    3    3    0    0 -0.16996503717E+02  0.26737411245E+02  0.10704273085E+02  0.33441766714E+02  0.00000000000E+00 0. -1.
         22    1    1    2    0    0  0.18843653914E+03 -0.49919671466E+00 -0.55736644848E+03  0.58835868003E+03  0.00000000000E+00 0. -1.
<mgrwt>
<rscale>  0 0.54829305E+03</rscale>
<asrwt>0</asrwt>
<pdfrwt beam="1">  1        2 0.10607825E+00 0.54829305E+03</pdfrwt>
<pdfrwt beam="2">  1       -2 0.16769203E-01 0.54829305E+03</pdfrwt>
<totfact> 0.12136930E+03</totfact>
</mgrwt>
</event>
<event>
 6    1  0.9906445E-006  0.2002350E+04  0.7818608E-02  0.8605523E-01
         -1   -1    0    0    0  501 -0.00000000000E+00  0.00000000000E+00  0.51200673531E+03  0.51200673531E+03  0.00000000000E+00 0.  1.
          1   -1    0    0  501    0  0.00000000000E+00 -0.00000000000E+00 -0.19576920077E+04  0.19576920077E+04  0.00000000000E+00 0. -1.
         23    2    1    2    0    0  0.88256779130E+03 -0.45498753966E+03 -0.58670756338E+03  0.11567698523E+04  0.89169270436E+02 0.  0.
         13    1    3    3    0    0  0.35529555466E+03 -0.19049831835E+03 -0.28886858616E+03  0.49595322413E+03  0.00000000000E+00 0. -1.
        -13    1    3    3    0    0  0.52727223664E+03 -0.26448922131E+03 -0.29783897721E+03  0.66081662817E+03  0.00000000000E+00 0.  1.
         22    1    1    2    0    0 -0.88256779130E+03  0.45498753966E+03 -0.85897770902E+03  0.13129288907E+04  0.00000000000E+00 0. -1.
<mgrwt>
<rscale>  0 0.20023501E+04</rscale>
<asrwt>0</asrwt>
<pdfrwt beam="1">  1        1 0.30118339E+00 0.20023501E+04</pdfrwt>
<pdfrwt beam="2">  1       -1 0.78770266E-01 0.20023501E+04</pdfrwt>
<totfact> 0.47599964E+00</totfact>
</mgrwt>
</event>
<event>
 6    1  0.1297232E-005  0.4727557E+04  0.7818608E-02  0.7871966E-01
          1   -1    0    0  501    0  0.00000000000E+00  0.00000000000E+00  0.24920928339E+04  0.24920928339E+04  0.00000000000E+00 0. -1.
         -1   -1    0    0    0  501 -0.00000000000E+00 -0.00000000000E+00 -0.22420705086E+04  0.22420705086E+04  0.00000000000E+00 0.  1.
         23    2    1    2    0    0 -0.11105375361E+04  0.38854786644E+03 -0.19270128062E+04  0.22595431641E+04  0.88847574923E+02 0.  0.
         13    1    3    3    0    0 -0.56562697533E+03  0.24197308068E+03 -0.10346902542E+04  0.12037727232E+04  0.00000000000E+00 0.  1.
        -13    1    3    3    0    0 -0.54491056079E+03  0.14657478576E+03 -0.89232255199E+03  0.10557704409E+04  0.00000000000E+00 0. -1.
         22    1    1    2    0    0  0.11105375361E+04 -0.38854786644E+03  0.21770351315E+04  0.24746201784E+04  0.00000000000E+00 0. -1.
<mgrwt>
<rscale>  0 0.47275566E+04</rscale>
<asrwt>0</asrwt>
<pdfrwt beam="1">  1        1 0.38339889E+00 0.47275566E+04</pdfrwt>
<pdfrwt beam="2">  1       -1 0.34493393E+00 0.47275566E+04</pdfrwt>
<totfact> 0.16990239E-02</totfact>
</mgrwt>
</event>
<event>
 6    1  0.9906445E-006  0.1238785E+04  0.7818608E-02  0.9079569E-01
         -1   -1    0    0    0  501 -0.00000000000E+00  0.00000000000E+00  0.13884582400E+03  0.13884582400E+03  0.00000000000E+00 0.  1.
          1   -1    0    0  501    0  0.00000000000E+00 -0.00000000000E+00 -0.27631178349E+04  0.27631178349E+04  0.00000000000E+00 0. -1.
         23    2    1    2    0    0  0.59574534108E+03 -0.15790890558E+03 -0.13306866033E+04  0.14690606822E+04  0.86975386839E+02 0.  0.
         13    1    3    3    0    0  0.21893213657E+03 -0.20052752988E+02 -0.51789853397E+03  0.56262979375E+03  0.00000000000E+00 0. -1.
        -13    1    3    3    0    0  0.37681320451E+03 -0.13785615259E+03 -0.81278806929E+03  0.90643088841E+03  0.00000000000E+00 0.  1.
         22    1    1    2    0    0 -0.59574534108E+03  0.15790890558E+03 -0.12935854076E+04  0.14329029767E+04  0.00000000000E+00 0.  1.
<mgrwt>
<rscale>  0 0.12387855E+04</rscale>
<asrwt>0</asrwt>
<pdfrwt beam="1">  1        1 0.42509501E+00 0.12387855E+04</pdfrwt>
<pdfrwt beam="2">  1       -1 0.21360898E-01 0.12387855E+04</pdfrwt>
<totfact> 0.16137839E+01</totfact>
</mgrwt>
</event>
<event>
 6    1  0.9906445E-006  0.2847936E+04  0.7818608E-02  0.8288539E-01
          1   -1    0    0  501    0  0.00000000000E+00  0.00000000000E+00  0.29892028668E+04  0.29892028668E+04  0.00000000000E+00 0. -1.
         -1   -1    0    0    0  501 -0.00000000000E+00 -0.00000000000E+00 -0.67833624861E+03  0.67833624861E+03  0.00000000000E+00 0.  1.
         23    2    1    2    0    0  0.72491940992E+03 -0.11796788532E+04  0.73574533697E+03  0.15703606781E+04  0.86954648455E+02 0.  0.
         11    1    3    3    0    0  0.61460813551E+03 -0.98421634069E+03  0.58051639994E+03  0.12974684027E+04  0.00000000000E+00 0.  1.
        -11    1    3    3    0    0  0.11031127442E+03 -0.19546251248E+03  0.15522893703E+03  0.27289227534E+03  0.00000000000E+00 0. -1.
         22    1    1    2    0    0 -0.72491940992E+03  0.11796788532E+04  0.15751212812E+04  0.20971784374E+04  0.00000000000E+00 0.  1.
<mgrwt>
<rscale>  0 0.28479359E+04</rscale>
<asrwt>0</asrwt>
<pdfrwt beam="1">  1        1 0.45987735E+00 0.28479359E+04</pdfrwt>
<pdfrwt beam="2">  1       -1 0.10435943E+00 0.28479359E+04</pdfrwt>
<totfact> 0.45292360E-01</totfact>
</mgrwt>
</event>
<event>
 6    1  0.9906445E-006  0.1172859E+04  0.7818608E-02  0.9136950E-01
          1   -1    0    0  501    0  0.00000000000E+00  0.00000000000E+00  0.16332690935E+04  0.16332690935E+04  0.00000000000E+00 0. -1.
         -1   -1    0    0    0  501 -0.00000000000E+00 -0.00000000000E+00 -0.21055912050E+03  0.21055912050E+03  0.00000000000E+00 0.  1.
         23    2    1    2    0    0 -0.33988790008E+03  0.26628015430E+03  0.13311833890E+04  0.14024598635E+04  0.91736298830E+02 0.  0.
         11    1    3    3    0    0 -0.21964728927E+03  0.12022413446E+03  0.82071241972E+03  0.85806040002E+03  0.00000000000E+00 0.  1.
        -11    1    3    3    0    0 -0.12024061080E+03  0.14605601984E+03  0.51047096926E+03  0.54439946352E+03  0.00000000000E+00 0. -1.
         22    1    1    2    0    0  0.33988790008E+03 -0.26628015430E+03  0.91526583990E+02  0.44136835044E+03  0.00000000000E+00 0.  1.
<mgrwt>
<rscale>  0 0.11728592E+04</rscale>
<asrwt>0</asrwt>
<pdfrwt beam="1">  1        1 0.25127216E+00 0.11728592E+04</pdfrwt>
<pdfrwt beam="2">  1       -1 0.32393712E-01 0.11728592E+04</pdfrwt>
<totfact> 0.46780785E+01</totfact>
</mgrwt>
</event>
<event>
 6    1  0.9906445E-006  0.2999375E+04  0.7818608E-02  0.8243909E-01
         -1   -1    0    0    0  501 -0.00000000000E+00  0.00000000000E+00  0.11936044452E+04  0.11936044452E+04  0.00000000000E+00 0.  1.
          1   -1    0    0  501    0  0.00000000000E+00 -0.00000000000E+00 -0.18842608262E+04  0.18842608262E+04  0.00000000000E+00 0. -1.
         23    2    1    2    0    0  0.65097316606E+03 -0.12200264904E+04  0.24624899106E+03  0.14075292644E+04  0.90936044748E+02 0.  0.
         11    1    3    3    0    0  0.10108269938E+03 -0.23898602654E+03  0.73534073169E+02  0.26970223009E+03  0.00000000000E+00 0.  1.
        -11    1    3    3    0    0  0.54989046668E+03 -0.98104046386E+03  0.17271491789E+03  0.11378270343E+04  0.00000000000E+00 0. -1.
         22    1    1    2    0    0 -0.65097316606E+03  0.12200264904E+04 -0.93690537212E+03  0.16703360071E+04  0.00000000000E+00 0. -1.
<mgrwt>
<rscale>  0 0.29993747E+04</rscale>
<asrwt>0</asrwt>
<pdfrwt beam="1">  1        1 0.28988628E+00 0.29993747E+04</pdfrwt>
<pdfrwt beam="2">  1       -1 0.18363145E+00 0.29993747E+04</pdfrwt>
<totfact> 0.59575458E-01</totfact>
</mgrwt>
</event>
<event>
 6    1  0.9906445E-006  0.1842565E+04  0.7818608E-02  0.8683986E-01
          1   -1    0    0  501    0  0.00000000000E+00  0.00000000000E+00  0.16088316975E+04  0.16088316975E+04  0.00000000000E+00 0. -1.
         -1   -1    0    0    0  501 -0.00000000000E+00 -0.00000000000E+00 -0.52756392527E+03  0.52756392527E+03  0.00000000000E+00 0.  1.
         23    2    1    2    0    0 -0.63833065193E+03  0.15868099759E+03 -0.20241103009E+03  0.69400977019E+03  0.89630663430E+02 0.  0.
         11    1    3    3    0    0 -0.36978021368E+03  0.46889981817E+02 -0.12226389656E+03  0.39228119662E+03  0.00000000000E+00 0. -1.
        -11    1    3    3    0    0 -0.26855043826E+03  0.11179101577E+03 -0.80147133533E+02  0.30172857357E+03  0.00000000000E+00 0.  1.
         22    1    1    2    0    0  0.63833065193E+03 -0.15868099759E+03  0.12836788024E+04  0.14423858526E+04  0.00000000000E+00 0. -1.
<mgrwt>
<rscale>  0 0.18425651E+04</rscale>
<asrwt>0</asrwt>
<pdfrwt beam="1">  1        1 0.24751257E+00 0.18425651E+04</pdfrwt>
<pdfrwt beam="2">  1       -1 0.81163682E-01 0.18425651E+04</pdfrwt>
<totfact> 0.78242958E+00</totfact>
</mgrwt>
</event>
<event>
 6    1  0.9906445E-006  0.1842211E+04  0.7818608E-02  0.8684169E-01
         -1   -1    0    0    0  501 -0.00000000000E+00  0.00000000000E+00  0.19570818676E+04  0.19570818676E+04  0.00000000000E+00 0.  1.
          1   -1    0    0  501    0  0.00000000000E+00 -0.00000000000E+00 -0.43352048967E+03  0.43352048967E+03  0.00000000000E+00 0. -1.
         23    2    1    2    0    0 -0.75430801385E+03  0.51625443104E+03  0.64497487689E+03  0.11227642536E+04  0.95434584897E+02 0.  0.
         13    1    3    3    0    0 -0.61226593888E+03  0.43951140292E+03  0.48995446111E+03  0.89894117002E+03  0.00000000000E+00 0.  1.
        -13    1    3    3    0    0 -0.14204207498E+03  0.76743028122E+02  0.15502041578E+03  0.22382308357E+03  0.00000000000E+00 0. -1.
         22    1    1    2    0    0  0.75430801385E+03 -0.51625443104E+03  0.87858650102E+03  0.12678381037E+04  0.00000000000E+00 0.  1.
<mgrwt>
<rscale>  0 0.18422107E+04</rscale>
<asrwt>0</asrwt>
<pdfrwt beam="1">  1        1 0.66695461E-01 0.18422107E+04</pdfrwt>
<pdfrwt beam="2">  1       -1 0.30108951E+00 0.18422107E+04</pdfrwt>
<totfact> 0.16469760E+00</totfact>
</mgrwt>
</event>
<event>
 6    1  0.9906445E-006  0.1584803E+04  0.7818608E-02  0.8829939E-01
          1   -1    0    0  501    0  0.00000000000E+00  0.00000000000E+00  0.85402670830E+03  0.85402670830E+03  0.00000000000E+00 0. -1.
         -1   -1    0    0    0  501 -0.00000000000E+00 -0.00000000000E+00 -0.73522348170E+03  0.73522348170E+03  0.00000000000E+00 0.  1.
         23    2    1    2    0    0 -0.17785489685E+03 -0.74229101628E+03 -0.14266362485E+03  0.78240867422E+03  0.95823308476E+02 0.  0.
         11    1    3    3    0    0 -0.85526046200E+02 -0.29571736039E+03 -0.10324858883E+03  0.32469021068E+03  0.00000000000E+00 0.  1.
        -11    1    3    3    0    0 -0.92328850652E+02 -0.44657365589E+03 -0.39415036016E+02  0.45771846354E+03  0.00000000000E+00 0. -1.
         22    1    1    2    0    0  0.17785489685E+03  0.74229101628E+03  0.26146685145E+03  0.80684151578E+03  0.00000000000E+00 0.  1.
<mgrwt>
<rscale>  0 0.15848034E+04</rscale>
<asrwt>0</asrwt>
<pdfrwt beam="1">  1        1 0.13138872E+00 0.15848034E+04</pdfrwt>
<pdfrwt beam="2">  1       -1 0.11311131E+00 0.15848034E+04</pdfrwt>
<totfact> 0.13638612E+01</totfact>
</mgrwt>
</event>
<event>
 6    1  0.9906445E-006  0.2536416E+04  0.7818608E-02  0.8390126E-01
          2   -1    0    0  501    0  0.00000000000E+00  0.00000000000E+00  0.17883445079E+04  0.17883445079E+04  0.00000000000E+00 0. -1.
         -2   -1    0    0    0  501 -0.00000000000E+00 -0.00000000000E+00 -0.89935246985E+03  0.89935246985E+03  0.00000000000E+00 0.  1.
         23    2    1    2    0    0  0.11746671359E+03  0.40694821558E+03 -0.81973229023E+03  0.92725836506E+03  0.91879099747E+02 0.  0.
         13    1    3    3    0    0  0.43867089084E+02  0.89448445542E+02 -0.27475706633E+03  0.29226151203E+03  0.00000000000E+00 0.  1.
        -13    1    3    3    0    0  0.73599624507E+02  0.31749977003E+03 -0.54497522390E+03  0.63499685304E+03  0.00000000000E+00 0. -1.
         22    1    1    2    0    0 -0.11746671359E+03 -0.40694821558E+03  0.17087243283E+04  0.17604386127E+04  0.00000000000E+00 0. -1.
<mgrwt>
<rscale>  0 0.25364164E+04</rscale>
<asrwt>0</asrwt>
<pdfrwt beam="1">  1        2 0.27512992E+00 0.25364164E+04</pdfrwt>
<pdfrwt beam="2">  1       -2 0.13836192E+00 0.25364164E+04</pdfrwt>
<totfact> 0.28843191E+00</totfact>
</mgrwt>
</event>
<event>
 6    1  0.9906445E-006  0.4434935E+04  0.7818608E-02  0.7922128E-01
          2   -1    0    0  501    0  0.00000000000E+00  0.00000000000E+00  0.17631794214E+04  0.17631794214E+04  0.00000000000E+00 0. -1.
         -2   -1    0    0    0  501 -0.00000000000E+00 -0.00000000000E+00 -0.27888037365E+04  0.27888037365E+04  0.00000000000E+00 0.  1.
         23    2    1    2    0    0 -0.16525548933E+04  0.12786302293E+04 -0.12723747484E+04  0.24480062770E+04  0.89242889080E+02 0.  0.
         13    1    3    3    0    0 -0.47087955238E+03  0.31621171268E+03 -0.33205753682E+03  0.65725155599E+03  0.00000000000E+00 0. -1.
        -13    1    3    3    0    0 -0.11816753410E+04  0.96241851666E+03 -0.94031721155E+03  0.17907547210E+04  0.00000000000E+00 0.  1.
         22    1    1    2    0    0  0.16525548933E+04 -0.12786302293E+04  0.24675043324E+03  0.21039768809E+04  0.00000000000E+00 0. -1.
<mgrwt>
<rscale>  0 0.44349347E+04</rscale>
<asrwt>0</asrwt>
<pdfrwt beam="1">  1        2 0.27125837E+00 0.44349347E+04</pdfrwt>
<pdfrwt beam="2">  1       -2 0.42904672E+00 0.44349347E+04</pdfrwt>
<totfact> 0.32930074E-02</totfact>
</mgrwt>
</event>
<event>
 6    1  0.9906445E-006  0.2245351E+04  0.7818608E-02  0.8499786E-01
          2   -1    0    0  501    0  0.00000000000E+00  0.00000000000E+00  0.25424059667E+04  0.25424059667E+04  0.00000000000E+00 0. -1.
         -2   -1    0    0    0  501 -0.00000000000E+00 -0.00000000000E+00 -0.49575092593E+03  0.49575092593E+03  0.00000000000E+00 0.  1.
         23    2    1    2    0    0  0.42223540153E+03  0.48350158538E+03  0.22681696263E+04  0.23590948711E+04  0.93159218055E+02 0.  0.
         13    1    3    3    0    0  0.20396888770E+03  0.29273933204E+03  0.13420897223E+04  0.13887060331E+04  0.00000000000E+00 0. -1.
        -13    1    3    3    0    0  0.21826651383E+03  0.19076225335E+03  0.92607990406E+03  0.97038883808E+03  0.00000000000E+00 0.  1.
         22    1    1    2    0    0 -0.42223540153E+03 -0.48350158538E+03 -0.22151458557E+03  0.67906202146E+03  0.00000000000E+00 0.  1.
<mgrwt>
<rscale>  0 0.22453509E+04</rscale>
<asrwt>0</asrwt>
<pdfrwt beam="1">  1        2 0.39113937E+00 0.22453509E+04</pdfrwt>
<pdfrwt beam="2">  1       -2 0.76269375E-01 0.22453509E+04</pdfrwt>
<totfact> 0.46077439E+00</totfact>
</mgrwt>
</event>
<event>
 6    1  0.9906445E-006  0.1822892E+04  0.7818608E-02  0.8694220E-01
          2   -1    0    0  501    0  0.00000000000E+00  0.00000000000E+00  0.64673814521E+03  0.64673814521E+03  0.00000000000E+00 0. -1.
         -2   -1    0    0    0  501 -0.00000000000E+00 -0.00000000000E+00 -0.12844974839E+04  0.12844974839E+04  0.00000000000E+00 0.  1.
         23    2    1    2    0    0  0.60874869059E+02  0.40401734910E+03  0.54075706734E+03  0.68390380183E+03  0.91490088130E+02 0.  0.
         11    1    3    3    0    0 -0.21941196325E+02  0.12406574036E+03  0.18232252097E+03  0.22161955167E+03  0.00000000000E+00 0.  1.
        -11    1    3    3    0    0  0.82816065384E+02  0.27995160873E+03  0.35843454637E+03  0.46228425016E+03  0.00000000000E+00 0. -1.
         22    1    1    2    0    0 -0.60874869059E+02 -0.40401734910E+03 -0.11785164061E+04  0.12473318273E+04  0.00000000000E+00 0.  1.
<mgrwt>
<rscale>  0 0.18228917E+04</rscale>
<asrwt>0</asrwt>
<pdfrwt beam="1">  1        2 0.99498178E-01 0.18228917E+04</pdfrwt>
<pdfrwt beam="2">  1       -2 0.19761499E+00 0.18228917E+04</pdfrwt>
<totfact> 0.58748204E+00</totfact>
</mgrwt>
</event>
<event>
 6    1  0.9906445E-006  0.1778019E+04  0.7818608E-02  0.8718077E-01
         -1   -1    0    0    0  501 -0.00000000000E+00  0.00000000000E+00  0.32114897916E+03  0.32114897916E+03  0.00000000000E+00 0.  1.
          1   -1    0    0  501    0  0.00000000000E+00 -0.00000000000E+00 -0.24609707762E+04  0.24609707762E+04  0.00000000000E+00 0. -1.
         23    2    1    2    0    0 -0.50229526094E+03 -0.37436664102E+03 -0.20547946255E+04  0.21499168362E+04  0.86663364730E+02 0.  0.
         11    1    3    3    0    0 -0.26384469084E+03 -0.14359379674E+03 -0.10034043258E+04  0.10474031890E+04  0.00000000000E+00 0. -1.
        -11    1    3    3    0    0 -0.23845057010E+03 -0.23077284428E+03 -0.10513902997E+04  0.11025136472E+04  0.00000000000E+00 0.  1.
         22    1    1    2    0    0  0.50229526094E+03  0.37436664102E+03 -0.85027171581E+02  0.63220291915E+03  0.00000000000E+00 0.  1.
<mgrwt>
<rscale>  0 0.17780194E+04</rscale>
<asrwt>0</asrwt>
<pdfrwt beam="1">  1        1 0.37861090E+00 0.17780194E+04</pdfrwt>
<pdfrwt beam="2">  1       -1 0.49407534E-01 0.17780194E+04</pdfrwt>
<totfact> 0.56028644E+00</totfact>
</mgrwt>
</event>
<event>
 6    1  0.9906445E-006  0.1358695E+04  0.7818608E-02  0.8984272E-01
         -1   -1    0    0    0  501 -0.00000000000E+00  0.00000000000E+00  0.69659744510E+03  0.69659744510E+03  0.00000000000E+00 0.  1.
          1   -1    0    0  501    0  0.00000000000E+00 -0.00000000000E+00 -0.66252493388E+03  0.66252493388E+03  0.00000000000E+00 0. -1.
         23    2    1    2    0    0  0.29076595888E+03 -0.49225829104E+03  0.37901904629E+03  0.69140149417E+03  0.86703637512E+02 0.  0.
         13    1    3    3    0    0  0.15968829976E+02 -0.49527648502E+02  0.64053380644E+02  0.82527735150E+02  0.00000000000E+00 0.  1.
        -13    1    3    3    0    0  0.27479712890E+03 -0.44273064254E+03  0.31496566564E+03  0.60887375903E+03  0.00000000000E+00 0. -1.
         22    1    1    2    0    0 -0.29076595888E+03  0.49225829104E+03 -0.34494653507E+03  0.66772088480E+03  0.00000000000E+00 0. -1.
<mgrwt>
<rscale>  0 0.13586952E+04</rscale>
<asrwt>0</asrwt>
<pdfrwt beam="1">  1        1 0.10192691E+00 0.13586952E+04</pdfrwt>
<pdfrwt beam="2">  1       -1 0.10716884E+00 0.13586952E+04</pdfrwt>
<totfact> 0.23511360E+01</totfact>
</mgrwt>
</event>
<event>
 6    1  0.9906445E-006  0.1742144E+04  0.7818608E-02  0.8737687E-01
         -1   -1    0    0    0  501 -0.00000000000E+00  0.00000000000E+00  0.60101960660E+03  0.60101960660E+03  0.00000000000E+00 0.  1.
          1   -1    0    0  501    0  0.00000000000E+00 -0.00000000000E+00 -0.12624650855E+04  0.12624650855E+04  0.00000000000E+00 0. -1.
         23    2    1    2    0    0  0.25064079236E+03 -0.55018428917E-01 -0.12212922243E+04  0.12500931466E+04  0.91418642734E+02 0.  0.
         11    1    3    3    0    0  0.82390020857E+02 -0.42070168090E+02 -0.37812561594E+03  0.38927753083E+03  0.00000000000E+00 0. -1.
        -11    1    3    3    0    0  0.16825077151E+03  0.42015149661E+02 -0.84316660837E+03  0.86081561579E+03  0.00000000000E+00 0.  1.
         22    1    1    2    0    0 -0.25064079236E+03  0.55018428917E-01  0.55984674537E+03  0.61339154553E+03  0.00000000000E+00 0.  1.
<mgrwt>
<rscale>  0 0.17421438E+04</rscale>
<asrwt>0</asrwt>
<pdfrwt beam="1">  1        1 0.19422540E+00 0.17421438E+04</pdfrwt>
<pdfrwt beam="2">  1       -1 0.92464555E-01 0.17421438E+04</pdfrwt>
<totfact> 0.10383934E+01</totfact>
</mgrwt>
</event>
<event>
 6    1  0.9906445E-006  0.3010618E+04  0.7818608E-02  0.8240705E-01
          2   -1    0    0  501    0  0.00000000000E+00  0.00000000000E+00  0.13687860576E+04  0.13687860576E+04  0.00000000000E+00 0. -1.
         -2   -1    0    0    0  501 -0.00000000000E+00 -0.00000000000E+00 -0.16554483496E+04  0.16554483496E+04  0.00000000000E+00 0.  1.
         23    2    1    2    0    0 -0.52368259303E+03 -0.46419620449E+02 -0.15591626368E+04  0.16474063981E+04  0.81002919893E+02 0.  0.
         11    1    3    3    0    0 -0.30493234427E+03  0.94013398110E+01 -0.94798821557E+03  0.99586835306E+03  0.00000000000E+00 0.  1.
        -11    1    3    3    0    0 -0.21875024876E+03 -0.55820960260E+02 -0.61117442122E+03  0.65153804500E+03  0.00000000000E+00 0. -1.
         22    1    1    2    0    0  0.52368259303E+03  0.46419620449E+02  0.12725003447E+04  0.13768280091E+04  0.00000000000E+00 0. -1.
<mgrwt>
<rscale>  0 0.30106176E+04</rscale>
<asrwt>0</asrwt>
<pdfrwt beam="1">  1        2 0.21058247E+00 0.30106176E+04</pdfrwt>
<pdfrwt beam="2">  1       -2 0.25468436E+00 0.30106176E+04</pdfrwt>
<totfact> 0.77568895E-01</totfact>
</mgrwt>
</event>
<event>
 6    1  0.9906445E-006  0.4355390E+04  0.7818608E-02  0.7936455E-01
          1   -1    0    0  501    0  0.00000000000E+00  0.00000000000E+00  0.30992707216E+04  0.30992707216E+04  0.00000000000E+00 0. -1.
         -1   -1    0    0    0  501 -0.00000000000E+00 -0.00000000000E+00 -0.15301519561E+04  0.15301519561E+04  0.00000000000E+00 0.  1.
         23    2    1    2    0    0 -0.20152216735E+04  0.55007004044E+03  0.14357191218E+04  0.25362215627E+04  0.86226306276E+02 0.  0.
         11    1    3    3    0    0 -0.35319376595E+03  0.65005590723E+02  0.26105829595E+03  0.44398535675E+03  0.00000000000E+00 0.  1.
        -11    1    3    3    0    0 -0.16620279076E+04  0.48506444972E+03  0.11746608259E+04  0.20922362060E+04  0.00000000000E+00 0. -1.
         22    1    1    2    0    0  0.20152216735E+04 -0.55007004044E+03  0.13339964376E+03  0.20932011150E+04  0.00000000000E+00 0. -1.
<mgrwt>
<rscale>  0 0.43553898E+04</rscale>
<asrwt>0</asrwt>
<pdfrwt beam="1">  1        1 0.47681088E+00 0.43553898E+04</pdfrwt>
<pdfrwt beam="2">  1       -1 0.23540799E+00 0.43553898E+04</pdfrwt>
<totfact> 0.33377616E-02</totfact>
</mgrwt>
</event>
<event>
 6    1  0.9906445E-006  0.2710079E+04  0.7818608E-02  0.8331742E-01
         -1   -1    0    0    0  501 -0.00000000000E+00  0.00000000000E+00  0.12671570931E+04  0.12671570931E+04  0.00000000000E+00 0.  1.
          1   -1    0    0  501    0  0.00000000000E+00 -0.00000000000E+00 -0.14490166539E+04  0.14490166539E+04  0.00000000000E+00 0. -1.
         23    2    1    2    0    0 -0.74057495128E+03 -0.85869344150E+03 -0.83161652220E+03  0.14092729116E+04  0.93050601158E+02 0.  0.
         13    1    3    3    0    0 -0.16576499712E+03 -0.25253100878E+03 -0.20663524379E+03  0.36598916465E+03  0.00000000000E+00 0. -1.
        -13    1    3    3    0    0 -0.57480995416E+03 -0.60616243272E+03 -0.62498127841E+03  0.10432837469E+04  0.00000000000E+00 0.  1.
         22    1    1    2    0    0  0.74057495128E+03  0.85869344150E+03  0.64975696139E+03  0.13069008355E+04  0.00000000000E+00 0.  1.
<mgrwt>
<rscale>  0 0.27100788E+04</rscale>
<asrwt>0</asrwt>
<pdfrwt beam="1">  1        1 0.22292564E+00 0.27100788E+04</pdfrwt>
<pdfrwt beam="2">  1       -1 0.19494725E+00 0.27100788E+04</pdfrwt>
<totfact> 0.10104611E+00</totfact>
</mgrwt>
</event>
<event>
 6    1  0.9906445E-006  0.2333210E+04  0.7818608E-02  0.8464941E-01
          2   -1    0    0  501    0  0.00000000000E+00  0.00000000000E+00  0.65759768638E+03  0.65759768638E+03  0.00000000000E+00 0.  1.
         -2   -1    0    0    0  501 -0.00000000000E+00 -0.00000000000E+00 -0.20696049923E+04  0.20696049923E+04  0.00000000000E+00 0. -1.
         23    2    1    2    0    0  0.28480957205E+03  0.10237837268E+04 -0.14943160340E+03  0.10769460271E+04  0.90737697050E+02 0.  0.
         13    1    3    3    0    0  0.20190674747E+03  0.64970567187E+03 -0.13435717286E+03  0.69349523764E+03  0.00000000000E+00 0.  1.
        -13    1    3    3    0    0  0.82902824586E+02  0.37407805489E+03 -0.15074430536E+02  0.38345078945E+03  0.00000000000E+00 0. -1.
         22    1    1    2    0    0 -0.28480957205E+03 -0.10237837268E+04 -0.12625757025E+04  0.16502566516E+04  0.00000000000E+00 0. -1.
<mgrwt>
<rscale>  0 0.23332102E+04</rscale>
<asrwt>0</asrwt>
<pdfrwt beam="1">  1        2 0.10116888E+00 0.23332102E+04</pdfrwt>
<pdfrwt beam="2">  1       -2 0.31840077E+00 0.23332102E+04</pdfrwt>
<totfact> 0.98212158E-01</totfact>
</mgrwt>
</event>
<event>
 6    1  0.9906445E-006  0.1244796E+04  0.7818608E-02  0.9074526E-01
          1   -1    0    0  501    0  0.00000000000E+00  0.00000000000E+00  0.16927487438E+04  0.16927487438E+04  0.00000000000E+00 0. -1.
         -1   -1    0    0    0  501 -0.00000000000E+00 -0.00000000000E+00 -0.22884628334E+03  0.22884628334E+03  0.00000000000E+00 0.  1.
         23    2    1    2    0    0 -0.38695015222E+03  0.27802223238E+03  0.12542872926E+03  0.50084215943E+03  0.89909513054E+02 0.  0.
         13    1    3    3    0    0 -0.18419013009E+03  0.13011963656E+03  0.10581185548E+03  0.24910494295E+03  0.00000000000E+00 0. -1.
        -13    1    3    3    0    0 -0.20276002213E+03  0.14790259582E+03  0.19616873776E+02  0.25173721648E+03  0.00000000000E+00 0.  1.
         22    1    1    2    0    0  0.38695015222E+03 -0.27802223238E+03  0.13384737312E+04  0.14207528677E+04  0.00000000000E+00 0. -1.
<mgrwt>
<rscale>  0 0.12447960E+04</rscale>
<asrwt>0</asrwt>
<pdfrwt beam="1">  1        1 0.26042288E+00 0.12447960E+04</pdfrwt>
<pdfrwt beam="2">  1       -1 0.35207122E-01 0.12447960E+04</pdfrwt>
<totfact> 0.36522997E+01</totfact>
</mgrwt>
</event>
<event>
 6    1  0.9906445E-006  0.1429648E+04  0.7818608E-02  0.8932633E-01
          2   -1    0    0  501    0  0.00000000000E+00  0.00000000000E+00  0.14825088915E+04  0.14825088915E+04  0.00000000000E+00 0.  1.
         -2   -1    0    0    0  501 -0.00000000000E+00 -0.00000000000E+00 -0.34466792070E+03  0.34466792070E+03  0.00000000000E+00 0. -1.
         23    2    1    2    0    0 -0.52797759705E+03  0.45308084509E+03  0.37808096831E+03  0.79699340301E+03  0.90612751174E+02 0.  0.
         13    1    3    3    0    0 -0.45341157745E+03  0.42400338460E+03  0.32246234097E+03  0.69953047830E+03  0.00000000000E+00 0.  1.
        -13    1    3    3    0    0 -0.74566019600E+02  0.29077460485E+02  0.55618627340E+02  0.97462924717E+02  0.00000000000E+00 0. -1.
         22    1    1    2    0    0  0.52797759705E+03 -0.45308084509E+03  0.75976000251E+03  0.10301834092E+04  0.00000000000E+00 0.  1.
<mgrwt>
<rscale>  0 0.14296479E+04</rscale>
<asrwt>0</asrwt>
<pdfrwt beam="1">  1        2 0.22807829E+00 0.14296479E+04</pdfrwt>
<pdfrwt beam="2">  1       -2 0.53025835E-01 0.14296479E+04</pdfrwt>
<totfact> 0.42293022E+01</totfact>
</mgrwt>
</event>
<event>
 6    1  0.9906445E-006  0.5069961E+04  0.7818608E-02  0.7817805E-01
          2   -1    0    0  501    0  0.00000000000E+00  0.00000000000E+00  0.29281528833E+04  0.29281528833E+04  0.00000000000E+00 0. -1.
         -2   -1    0    0    0  501 -0.00000000000E+00 -0.00000000000E+00 -0.21946006217E+04  0.21946006217E+04  0.00000000000E+00 0.  1.
         23    2    1    2    0    0 -0.94537199277E+03 -0.14726557474E+04  0.22188558799E+04  0.28274169298E+04  0.92314268477E+02 0.  0.
         11    1    3    3    0    0 -0.48990827162E+03 -0.82856425172E+03  0.12666763741E+04  0.15909110190E+04  0.00000000000E+00 0. -1.
        -11    1    3    3    0    0 -0.45546372115E+03 -0.64409149566E+03  0.95217950584E+03  0.12365059108E+04  0.00000000000E+00 0.  1.
         22    1    1    2    0    0  0.94537199277E+03  0.14726557474E+04 -0.14853036183E+04  0.22953365752E+04  0.00000000000E+00 0.  1.
<mgrwt>
<rscale>  0 0.50699610E+04</rscale>
<asrwt>0</asrwt>
<pdfrwt beam="1">  1        2 0.45048506E+00 0.50699610E+04</pdfrwt>
<pdfrwt beam="2">  1       -2 0.33763087E+00 0.50699610E+04</pdfrwt>
<totfact> 0.25992203E-02</totfact>
</mgrwt>
</event>
<event>
 6    1  0.9906445E-006  0.1597522E+04  0.7818608E-02  0.8822072E-01
          1   -1    0    0  501    0  0.00000000000E+00  0.00000000000E+00  0.35673486576E+03  0.35673486576E+03  0.00000000000E+00 0. -1.
         -1   -1    0    0    0  501 -0.00000000000E+00 -0.00000000000E+00 -0.17884969543E+04  0.17884969543E+04  0.00000000000E+00 0.  1.
         23    2    1    2    0    0 -0.68896905984E+03 -0.25075315221E+03 -0.11293724027E+04  0.13521397504E+04  0.12346810118E+03 0.  0.
         13    1    3    3    0    0 -0.57531816472E+03 -0.24826292652E+03 -0.99811516521E+03  0.11784987715E+04  0.00000000000E+00 0. -1.
        -13    1    3    3    0    0 -0.11365089513E+03 -0.24902256821E+01 -0.13125723747E+03  0.17364097896E+03  0.00000000000E+00 0.  1.
         22    1    1    2    0    0  0.68896905984E+03  0.25075315221E+03 -0.30238968583E+03  0.79309206960E+03  0.00000000000E+00 0. -1.
<mgrwt>
<rscale>  0 0.15975221E+04</rscale>
<asrwt>0</asrwt>
<pdfrwt beam="1">  1        1 0.54882287E-01 0.15975221E+04</pdfrwt>
<pdfrwt beam="2">  1       -1 0.27515338E+00 0.15975221E+04</pdfrwt>
<totfact> 0.32103275E+00</totfact>
</mgrwt>
</event>
<event>
 6    1  0.9906445E-006  0.1335294E+04  0.7818608E-02  0.9002035E-01
          2   -1    0    0  501    0  0.00000000000E+00  0.00000000000E+00  0.24240537507E+04  0.24240537507E+04  0.00000000000E+00 0. -1.
         -2   -1    0    0    0  501 -0.00000000000E+00 -0.00000000000E+00 -0.18388735382E+03  0.18388735382E+03  0.00000000000E+00 0.  1.
         23    2    1    2    0    0 -0.13883379609E+03  0.51390534743E+03  0.19022915441E+04  0.19774389672E+04  0.90433517659E+02 0.  0.
         11    1    3    3    0    0  0.25642846983E+00  0.13962059883E+03  0.54841516587E+03  0.56590915484E+03  0.00000000000E+00 0. -1.
        -11    1    3    3    0    0 -0.13909022456E+03  0.37428474861E+03  0.13538763782E+04  0.14115298123E+04  0.00000000000E+00 0.  1.
         22    1    1    2    0    0  0.13883379609E+03 -0.51390534743E+03  0.33787485281E+03  0.63050213736E+03  0.00000000000E+00 0.  1.
<mgrwt>
<rscale>  0 0.13352945E+04</rscale>
<asrwt>0</asrwt>
<pdfrwt beam="1">  1        2 0.37293132E+00 0.13352945E+04</pdfrwt>
<pdfrwt beam="2">  1       -2 0.28290364E-01 0.13352945E+04</pdfrwt>
<totfact> 0.43222064E+01</totfact>
</mgrwt>
</event>
<event>
 6    1  0.9906445E-006  0.2864820E+04  0.7818608E-02  0.8283422E-01
         -1   -1    0    0    0  501 -0.00000000000E+00  0.00000000000E+00  0.14532589857E+04  0.14532589857E+04  0.00000000000E+00 0.  1.
          1   -1    0    0  501    0  0.00000000000E+00 -0.00000000000E+00 -0.14118602985E+04  0.14118602985E+04  0.00000000000E+00 0. -1.
         23    2    1    2    0    0 -0.58386152808E+03  0.10521872376E+04  0.79509140927E+03  0.14452442945E+04  0.92565947807E+02 0.  0.
         11    1    3    3    0    0 -0.32416655982E+03  0.57796688126E+03  0.49263498622E+03  0.82572326114E+03  0.00000000000E+00 0. -1.
        -11    1    3    3    0    0 -0.25969496826E+03  0.47422035635E+03  0.30245642305E+03  0.61952103335E+03  0.00000000000E+00 0.  1.
         22    1    1    2    0    0  0.58386152808E+03 -0.10521872376E+04 -0.75369272205E+03  0.14198749897E+04  0.00000000000E+00 0. -1.
<mgrwt>
<rscale>  0 0.28648202E+04</rscale>
<asrwt>0</asrwt>
<pdfrwt beam="1">  1        1 0.21720928E+00 0.28648202E+04</pdfrwt>
<pdfrwt beam="2">  1       -1 0.22357830E+00 0.28648202E+04</pdfrwt>
<totfact> 0.67581765E-01</totfact>
</mgrwt>
</event>
<event>
 6    1  0.9906445E-006  0.1444357E+04  0.7818608E-02  0.8922322E-01
          1   -1    0    0  501    0  0.00000000000E+00  0.00000000000E+00  0.13178083128E+04  0.13178083128E+04  0.00000000000E+00 0. -1.
         -1   -1    0    0    0  501 -0.00000000000E+00 -0.00000000000E+00 -0.39576452954E+03  0.39576452954E+03  0.00000000000E+00 0.  1.
         23    2    1    2    0    0 -0.18719422252E+02 -0.32639778447E+03  0.12229926346E+04  0.12692124688E+04  0.91122863226E+02 0.  0.
         11    1    3    3    0    0 -0.95660366818E+01 -0.21519795616E+03  0.62985821371E+03  0.66567487468E+03  0.00000000000E+00 0. -1.
        -11    1    3    3    0    0 -0.91533855700E+01 -0.11119982830E+03  0.59313442084E+03  0.60353759408E+03  0.00000000000E+00 0.  1.
         22    1    1    2    0    0  0.18719422252E+02  0.32639778447E+03 -0.30094885133E+03  0.44436037356E+03  0.00000000000E+00 0.  1.
<mgrwt>
<rscale>  0 0.14443570E+04</rscale>
<asrwt>0</asrwt>
<pdfrwt beam="1">  1        1 0.20273974E+00 0.14443570E+04</pdfrwt>
<pdfrwt beam="2">  1       -1 0.60886851E-01 0.14443570E+04</pdfrwt>
<totfact> 0.23349118E+01</totfact>
</mgrwt>
</event>
<event>
 6    1  0.9906445E-006  0.4670406E+04  0.7818608E-02  0.7881464E-01
         -1   -1    0    0    0  501 -0.00000000000E+00  0.00000000000E+00  0.13948577515E+04  0.13948577515E+04  0.00000000000E+00 0.  1.
          1   -1    0    0  501    0  0.00000000000E+00 -0.00000000000E+00 -0.39094840246E+04  0.39094840246E+04  0.00000000000E+00 0. -1.
         23    2    1    2    0    0  0.20046165631E+04 -0.11131017246E+04 -0.17548425507E+04  0.28888181643E+04  0.91186591319E+02 0.  0.
         11    1    3    3    0    0  0.51208005759E+03 -0.29152030134E+03 -0.50116255612E+03  0.77354636521E+03  0.00000000000E+00 0.  1.
        -11    1    3    3    0    0  0.14925365055E+04 -0.82158142326E+03 -0.12536799946E+04  0.21152717991E+04  0.00000000000E+00 0. -1.
         22    1    1    2    0    0 -0.20046165631E+04  0.11131017246E+04 -0.75978372232E+03  0.24155236118E+04  0.00000000000E+00 0.  1.
<mgrwt>
<rscale>  0 0.46704064E+04</rscale>
<asrwt>0</asrwt>
<pdfrwt beam="1">  1        1 0.60145908E+00 0.46704064E+04</pdfrwt>
<pdfrwt beam="2">  1       -1 0.21459350E+00 0.46704064E+04</pdfrwt>
<totfact> 0.10172441E-02</totfact>
</mgrwt>
</event>
<event>
 6    1  0.9906445E-006  0.4420637E+04  0.7818608E-02  0.7924680E-01
         -1   -1    0    0    0  501 -0.00000000000E+00  0.00000000000E+00  0.21600285679E+04  0.21600285679E+04  0.00000000000E+00 0.  1.
          1   -1    0    0  501    0  0.00000000000E+00 -0.00000000000E+00 -0.22617795053E+04  0.22617795053E+04  0.00000000000E+00 0. -1.
         23    2    1    2    0    0 -0.21155322985E+04  0.59487715051E+03  0.17723492088E+03  0.22065905128E+04  0.90960122198E+02 0.  0.
         11    1    3    3    0    0 -0.10446713427E+04  0.33803056682E+03  0.72565510779E+02  0.11003947617E+04  0.00000000000E+00 0.  1.
        -11    1    3    3    0    0 -0.10708609559E+04  0.25684658369E+03  0.10466941010E+03  0.11061957511E+04  0.00000000000E+00 0. -1.
         22    1    1    2    0    0  0.21155322985E+04 -0.59487715051E+03 -0.27898585829E+03  0.22152175603E+04  0.00000000000E+00 0. -1.
<mgrwt>
<rscale>  0 0.44206372E+04</rscale>
<asrwt>0</asrwt>
<pdfrwt beam="1">  1        1 0.34796608E+00 0.44206372E+04</pdfrwt>
<pdfrwt beam="2">  1       -1 0.33231209E+00 0.44206372E+04</pdfrwt>
<totfact> 0.30390762E-02</totfact>
</mgrwt>
</event>
<event>
 6    1  0.9906445E-006  0.4990228E+04  0.7818608E-02  0.7830016E-01
         -2   -1    0    0    0  501 -0.00000000000E+00  0.00000000000E+00  0.14802277459E+04  0.14802277459E+04  0.00000000000E+00 0.  1.
          2   -1    0    0  501    0  0.00000000000E+00 -0.00000000000E+00 -0.42058344469E+04  0.42058344469E+04  0.00000000000E+00 0. -1.
         23    2    1    2    0    0 -0.66195252972E+03 -0.15307267311E+04  0.75023233008E+03  0.18308368496E+04  0.88371622704E+02 0.  0.
         13    1    3    3    0    0 -0.24700039870E+03 -0.63727377653E+03  0.34540402540E+03  0.76578783222E+03  0.00000000000E+00 0.  1.
        -13    1    3    3    0    0 -0.41495213103E+03 -0.89345295456E+03  0.40482830467E+03  0.10650490173E+04  0.00000000000E+00 0. -1.
         22    1    1    2    0    0  0.66195252972E+03  0.15307267311E+04 -0.34758390311E+04  0.38552253432E+04  0.00000000000E+00 0. -1.
<mgrwt>
<rscale>  0 0.49902276E+04</rscale>
<asrwt>0</asrwt>
<pdfrwt beam="1">  1        2 0.64705145E+00 0.49902276E+04</pdfrwt>
<pdfrwt beam="2">  1       -2 0.22772735E+00 0.49902276E+04</pdfrwt>
<totfact> 0.14700272E-02</totfact>
</mgrwt>
</event>
<event>
 6    1  0.9906445E-006  0.2626427E+04  0.7818608E-02  0.8359280E-01
         -1   -1    0    0    0  501 -0.00000000000E+00  0.00000000000E+00  0.10110167556E+04  0.10110167556E+04  0.00000000000E+00 0.  1.
          1   -1    0    0  501    0  0.00000000000E+00 -0.00000000000E+00 -0.17057378384E+04  0.17057378384E+04  0.00000000000E+00 0. -1.
         23    2    1    2    0    0 -0.69213612649E+03  0.72266620129E+03  0.52940438993E+03  0.11356846939E+04  0.90619312215E+02 0.  0.
         11    1    3    3    0    0 -0.33008633617E+03  0.31337046755E+03  0.19596624567E+03  0.49554092536E+03  0.00000000000E+00 0.  1.
        -11    1    3    3    0    0 -0.36204979031E+03  0.40929573374E+03  0.33343814426E+03  0.64014376852E+03  0.00000000000E+00 0. -1.
         22    1    1    2    0    0  0.69213612649E+03 -0.72266620129E+03 -0.12241254728E+04  0.15810699001E+04  0.00000000000E+00 0. -1.
<mgrwt>
<rscale>  0 0.26264269E+04</rscale>
<asrwt>0</asrwt>
<pdfrwt beam="1">  1        1 0.26242121E+00 0.26264269E+04</pdfrwt>
<pdfrwt beam="2">  1       -1 0.15554104E+00 0.26264269E+04</pdfrwt>
<totfact> 0.13118681E+00</totfact>
</mgrwt>
</event>
<event>
 6    1  0.9906445E-006  0.1830224E+04  0.7818608E-02  0.8690390E-01
         -1   -1    0    0    0  501 -0.00000000000E+00  0.00000000000E+00  0.28564677523E+04  0.28564677523E+04  0.00000000000E+00 0.  1.
          1   -1    0    0  501    0  0.00000000000E+00 -0.00000000000E+00 -0.29316978427E+03  0.29316978427E+03  0.00000000000E+00 0. -1.
         23    2    1    2    0    0  0.37383734005E+03  0.65265084689E+02  0.27135117754E+04  0.27414977615E+04  0.93005016195E+02 0.  0.
         13    1    3    3    0    0  0.11808299809E+03 -0.15649945605E+02  0.10090910527E+04  0.10160970760E+04  0.00000000000E+00 0.  1.
        -13    1    3    3    0    0  0.25575434196E+03  0.80915030294E+02  0.17044207227E+04  0.17254006855E+04  0.00000000000E+00 0. -1.
         22    1    1    2    0    0 -0.37383734005E+03 -0.65265084689E+02 -0.15021380734E+03  0.40813977509E+03  0.00000000000E+00 0. -1.
<mgrwt>
<rscale>  0 0.18302241E+04</rscale>
<asrwt>0</asrwt>
<pdfrwt beam="1">  1        1 0.45103046E-01 0.18302241E+04</pdfrwt>
<pdfrwt beam="2">  1       -1 0.43945656E+00 0.18302241E+04</pdfrwt>
<totfact> 0.32610061E-01</totfact>
</mgrwt>
</event>
<event>
 6    1  0.9906445E-006  0.3852287E+04  0.7818608E-02  0.8035026E-01
         -2   -1    0    0    0  501 -0.00000000000E+00  0.00000000000E+00  0.10408774449E+04  0.10408774449E+04  0.00000000000E+00 0.  1.
          2   -1    0    0  501    0  0.00000000000E+00 -0.00000000000E+00 -0.35643288399E+04  0.35643288399E+04  0.00000000000E+00 0. -1.
         23    2    1    2    0    0  0.96942669633E+03  0.16607966493E+04 -0.11559352071E+04  0.22455168658E+04  0.90145223608E+02 0.  0.
         11    1    3    3    0    0  0.33129239778E+03  0.64274260678E+03 -0.45964743471E+03  0.85682464696E+03  0.00000000000E+00 0. -1.
        -11    1    3    3    0    0  0.63813429855E+03  0.10180540426E+04 -0.69628777242E+03  0.13886922188E+04  0.00000000000E+00 0.  1.
         22    1    1    2    0    0 -0.96942669633E+03 -0.16607966493E+04 -0.13675161879E+04  0.23596894190E+04  0.00000000000E+00 0.  1.
<mgrwt>
<rscale>  0 0.38522874E+04</rscale>
<asrwt>0</asrwt>
<pdfrwt beam="1">  1        2 0.54835828E+00 0.38522874E+04</pdfrwt>
<pdfrwt beam="2">  1       -2 0.16013499E+00 0.38522874E+04</pdfrwt>
<totfact> 0.14662263E-01</totfact>
</mgrwt>
</event>
<event>
 6    1  0.9906445E-006  0.3176119E+04  0.7818608E-02  0.8195153E-01
         -1   -1    0    0    0  501 -0.00000000000E+00  0.00000000000E+00  0.96976995509E+03  0.96976995509E+03  0.00000000000E+00 0.  1.
          1   -1    0    0  501    0  0.00000000000E+00 -0.00000000000E+00 -0.26005484551E+04  0.26005484551E+04  0.00000000000E+00 0. -1.
         23    2    1    2    0    0  0.71532416002E+03 -0.12324473063E+04 -0.16006581592E+04  0.21450036199E+04  0.91208388869E+02 0.  0.
         11    1    3    3    0    0  0.63662498382E+03 -0.10322499032E+04 -0.13550930131E+04  0.18185456571E+04  0.00000000000E+00 0. -1.
        -11    1    3    3    0    0  0.78699176202E+02 -0.20019740305E+03 -0.24556514603E+03  0.32645796278E+03  0.00000000000E+00 0.  1.
         22    1    1    2    0    0 -0.71532416002E+03  0.12324473063E+04 -0.30120340893E+02  0.14253147903E+04  0.00000000000E+00 0.  1.
<mgrwt>
<rscale>  0 0.31761195E+04</rscale>
<asrwt>0</asrwt>
<pdfrwt beam="1">  1        1 0.40008437E+00 0.31761195E+04</pdfrwt>
<pdfrwt beam="2">  1       -1 0.14919538E+00 0.31761195E+04</pdfrwt>
<totfact> 0.34198444E-01</totfact>
</mgrwt>
</event>
<event>
 6    1  0.9906445E-006  0.4904080E+04  0.7818608E-02  0.7843476E-01
          2   -1    0    0  501    0  0.00000000000E+00  0.00000000000E+00  0.22666658766E+04  0.22666658766E+04  0.00000000000E+00 0. -1.
         -2   -1    0    0    0  501 -0.00000000000E+00 -0.00000000000E+00 -0.26525748795E+04  0.26525748795E+04  0.00000000000E+00 0.  1.
         23    2    1    2    0    0 -0.20900267541E+04  0.11713372805E+04 -0.71238431550E+03  0.25012190466E+04  0.91446425061E+02 0.  0.
         11    1    3    3    0    0 -0.14467001228E+04  0.85858169588E+03 -0.50345793247E+03  0.17560107243E+04  0.00000000000E+00 0. -1.
        -11    1    3    3    0    0 -0.64332663126E+03  0.31275558465E+03 -0.20892638303E+03  0.74520832238E+03  0.00000000000E+00 0.  1.
         22    1    1    2    0    0  0.20900267541E+04 -0.11713372805E+04  0.32647531262E+03  0.24180217094E+04  0.00000000000E+00 0. -1.
<mgrwt>
<rscale>  0 0.49040803E+04</rscale>
<asrwt>0</asrwt>
<pdfrwt beam="1">  1        2 0.34871783E+00 0.49040803E+04</pdfrwt>
<pdfrwt beam="2">  1       -2 0.40808845E+00 0.49040803E+04</pdfrwt>
<totfact> 0.22837273E-02</totfact>
</mgrwt>
</event>
<event>
 6    1  0.9906445E-006  0.2639249E+04  0.7818608E-02  0.8354990E-01
         -2   -1    0    0    0  501 -0.00000000000E+00  0.00000000000E+00  0.41057689610E+03  0.41057689610E+03  0.00000000000E+00 0.  1.
          2   -1    0    0  501    0  0.00000000000E+00 -0.00000000000E+00 -0.42413707013E+04  0.42413707013E+04  0.00000000000E+00 0. -1.
         23    2    1    2    0    0  0.34665057236E+03 -0.11419445182E+04 -0.29037653950E+04  0.31407938741E+04  0.92351442911E+02 0.  0.
         13    1    3    3    0    0  0.31567305988E+03 -0.10912942920E+04 -0.27911787384E+04  0.30135114837E+04  0.00000000000E+00 0.  1.
        -13    1    3    3    0    0  0.30977512479E+02 -0.50650226206E+02 -0.11258665654E+03  0.12728239047E+03  0.00000000000E+00 0. -1.
         22    1    1    2    0    0 -0.34665057236E+03  0.11419445182E+04 -0.92702841019E+03  0.15111537232E+04  0.00000000000E+00 0.  1.
<mgrwt>
<rscale>  0 0.26392490E+04</rscale>
<asrwt>0</asrwt>
<pdfrwt beam="1">  1        2 0.65251860E+00 0.26392490E+04</pdfrwt>
<pdfrwt beam="2">  1       -2 0.63165673E-01 0.26392490E+04</pdfrwt>
<totfact> 0.43911990E-01</totfact>
</mgrwt>
</event>
<event>
 6    1  0.9906445E-006  0.2684309E+04  0.7818608E-02  0.8340114E-01
          2   -1    0    0  501    0  0.00000000000E+00  0.00000000000E+00  0.19935505681E+04  0.19935505681E+04  0.00000000000E+00 0. -1.
         -2   -1    0    0    0  501 -0.00000000000E+00 -0.00000000000E+00 -0.90360316878E+03  0.90360316878E+03  0.00000000000E+00 0.  1.
         23    2    1    2    0    0  0.54988470799E+03 -0.11752911878E+03 -0.76758907752E+03  0.95637346890E+03  0.96285690725E+02 0.  0.
         13    1    3    3    0    0  0.35054562987E+03 -0.56230221601E+02 -0.40942613377E+03  0.54191681599E+03  0.00000000000E+00 0.  1.
        -13    1    3    3    0    0  0.19933907812E+03 -0.61298897177E+02 -0.35816294374E+03  0.41445665290E+03  0.00000000000E+00 0. -1.
         22    1    1    2    0    0 -0.54988470799E+03  0.11752911878E+03  0.18575364769E+04  0.19407802680E+04  0.00000000000E+00 0. -1.
<mgrwt>
<rscale>  0 0.26843089E+04</rscale>
<asrwt>0</asrwt>
<pdfrwt beam="1">  1        2 0.30670009E+00 0.26843089E+04</pdfrwt>
<pdfrwt beam="2">  1       -2 0.13901587E+00 0.26843089E+04</pdfrwt>
<totfact> 0.21648237E+00</totfact>
</mgrwt>
</event>
<event>
 6    1  0.9906445E-006  0.2721382E+04  0.7818608E-02  0.8328100E-01
         -2   -1    0    0    0  501 -0.00000000000E+00  0.00000000000E+00  0.69946178229E+03  0.69946178229E+03  0.00000000000E+00 0.  1.
          2   -1    0    0  501    0  0.00000000000E+00 -0.00000000000E+00 -0.26470064491E+04  0.26470064491E+04  0.00000000000E+00 0. -1.
         23    2    1    2    0    0 -0.10871288443E+04 -0.23075011267E+03 -0.12666701240E+02  0.11151351141E+04  0.90945802336E+02 0.  0.
         13    1    3    3    0    0 -0.58559897708E+03 -0.13651923422E+03  0.36869999824E+02  0.60243095883E+03  0.00000000000E+00 0.  1.
        -13    1    3    3    0    0 -0.50152986717E+03 -0.94230878452E+02 -0.49536701064E+02  0.51270415531E+03  0.00000000000E+00 0. -1.
         22    1    1    2    0    0  0.10871288443E+04  0.23075011267E+03 -0.19348779656E+04  0.22313331173E+04  0.00000000000E+00 0. -1.
<mgrwt>
<rscale>  0 0.27213819E+04</rscale>
<asrwt>0</asrwt>
<pdfrwt beam="1">  1        2 0.40723176E+00 0.27213819E+04</pdfrwt>
<pdfrwt beam="2">  1       -2 0.10760951E+00 0.27213819E+04</pdfrwt>
<totfact> 0.17319539E+00</totfact>
</mgrwt>
</event>
<event>
 6    1  0.9906445E-006  0.9135576E+03  0.7818608E-02  0.9408791E-01
         -1   -1    0    0    0  501 -0.00000000000E+00  0.00000000000E+00  0.22387666743E+03  0.22387666743E+03  0.00000000000E+00 0.  1.
          1   -1    0    0  501    0  0.00000000000E+00 -0.00000000000E+00 -0.93197235961E+03  0.93197235961E+03  0.00000000000E+00 0. -1.
         23    2    1    2    0    0  0.25495920246E+02 -0.33447835934E+03  0.26231963421E+02  0.34853067559E+03  0.90882897771E+02 0.  0.
         11    1    3    3    0    0  0.26606341103E+02 -0.26967717858E+02 -0.91970118020E+01  0.38983845621E+02  0.00000000000E+00 0. -1.
        -11    1    3    3    0    0 -0.11104208569E+01 -0.30751064148E+03  0.35428975223E+02  0.30954682997E+03  0.00000000000E+00 0.  1.
         22    1    1    2    0    0 -0.25495920246E+02  0.33447835934E+03 -0.73432765560E+03  0.80731835145E+03  0.00000000000E+00 0. -1.
<mgrwt>
<rscale>  0 0.91355759E+03</rscale>
<asrwt>0</asrwt>
<pdfrwt beam="1">  1        1 0.14338036E+00 0.91355759E+03</pdfrwt>
<pdfrwt beam="2">  1       -1 0.34442565E-01 0.91355759E+03</pdfrwt>
<totfact> 0.13765384E+02</totfact>
</mgrwt>
</event>
<event>
 6    1  0.9906445E-006  0.6084514E+03  0.7818608E-02  0.9888026E-01
          1   -1    0    0  501    0  0.00000000000E+00  0.00000000000E+00  0.61420545326E+03  0.61420545326E+03  0.00000000000E+00 0. -1.
         -1   -1    0    0    0  501 -0.00000000000E+00 -0.00000000000E+00 -0.15068781184E+03  0.15068781184E+03  0.00000000000E+00 0.  1.
         23    2    1    2    0    0  0.46572355369E+02 -0.65081286381E+02  0.59708790319E+03  0.60918336512E+03  0.90475687770E+02 0.  0.
         11    1    3    3    0    0 -0.12148331061E+02 -0.39141857022E+02  0.10160634377E+03  0.10956055865E+03  0.00000000000E+00 0.  1.
        -11    1    3    3    0    0  0.58720686429E+02 -0.25939429360E+02  0.49548155942E+03  0.49962280646E+03  0.00000000000E+00 0. -1.
         22    1    1    2    0    0 -0.46572355369E+02  0.65081286381E+02 -0.13357026178E+03  0.15570989998E+03  0.00000000000E+00 0.  1.
<mgrwt>
<rscale>  0 0.60845140E+03</rscale>
<asrwt>0</asrwt>
<pdfrwt beam="1">  1        1 0.94493145E-01 0.60845140E+03</pdfrwt>
<pdfrwt beam="2">  1       -1 0.23182741E-01 0.60845140E+03</pdfrwt>
<totfact> 0.53281695E+02</totfact>
</mgrwt>
</event>
<event>
 6    1  0.9906445E-006  0.2582161E+04  0.7818608E-02  0.8374286E-01
          2   -1    0    0  501    0  0.00000000000E+00  0.00000000000E+00  0.10727641287E+04  0.10727641287E+04  0.00000000000E+00 0. -1.
         -2   -1    0    0    0  501 -0.00000000000E+00 -0.00000000000E+00 -0.15538263824E+04  0.15538263824E+04  0.00000000000E+00 0.  1.
         23    2    1    2    0    0  0.65779578201E+03  0.10483931330E+04  0.12689800731E+03  0.12476637070E+04  0.93478176439E+02 0.  0.
         11    1    3    3    0    0  0.60385070552E+03  0.92252176115E+03  0.13306907330E+03  0.11105806826E+04  0.00000000000E+00 0.  1.
        -11    1    3    3    0    0  0.53945076488E+02  0.12587137184E+03 -0.61710659922E+01  0.13708302441E+03  0.00000000000E+00 0. -1.
         22    1    1    2    0    0 -0.65779578201E+03 -0.10483931330E+04 -0.60796026101E+03  0.13789268041E+04  0.00000000000E+00 0.  1.
<mgrwt>
<rscale>  0 0.25821613E+04</rscale>
<asrwt>0</asrwt>
<pdfrwt beam="1">  1        2 0.16504063E+00 0.25821613E+04</pdfrwt>
<pdfrwt beam="2">  1       -2 0.23905021E+00 0.25821613E+04</pdfrwt>
<totfact> 0.15065534E+00</totfact>
</mgrwt>
</event>
<event>
 6    1  0.9906445E-006  0.1842674E+04  0.7818608E-02  0.8683929E-01
          3   -1    0    0  501    0  0.00000000000E+00  0.00000000000E+00  0.13759685549E+04  0.13759685549E+04  0.00000000000E+00 0. -1.
         -3   -1    0    0    0  501 -0.00000000000E+00 -0.00000000000E+00 -0.61691974944E+03  0.61691974944E+03  0.00000000000E+00 0.  1.
         23    2    1    2    0    0 -0.82442976211E+03  0.28703792130E+03  0.69322798563E+02  0.88032497335E+03  0.89951138930E+02 0.  0.
         11    1    3    3    0    0 -0.42348269617E+03  0.19486054136E+03  0.39903325993E+02  0.46786803691E+03  0.00000000000E+00 0.  1.
        -11    1    3    3    0    0 -0.40094706593E+03  0.92177379948E+02  0.29419472569E+02  0.41245693644E+03  0.00000000000E+00 0. -1.
         22    1    1    2    0    0  0.82442976211E+03 -0.28703792130E+03  0.68972600693E+03  0.11125633310E+04  0.00000000000E+00 0.  1.
<mgrwt>
<rscale>  0 0.18426743E+04</rscale>
<asrwt>0</asrwt>
<pdfrwt beam="1">  1        3 0.21168747E+00 0.18426743E+04</pdfrwt>
<pdfrwt beam="2">  1       -3 0.94910731E-01 0.18426743E+04</pdfrwt>
<totfact> 0.30255609E-01</totfact>
</mgrwt>
</event>
<event>
 6    1  0.9906445E-006  0.2575710E+04  0.7818608E-02  0.8376499E-01
         -2   -1    0    0    0  501 -0.00000000000E+00  0.00000000000E+00  0.10400386512E+04  0.10400386512E+04  0.00000000000E+00 0. -1.
          2   -1    0    0  501    0  0.00000000000E+00 -0.00000000000E+00 -0.15947204819E+04  0.15947204819E+04  0.00000000000E+00 0.  1.
         23    2    1    2    0    0 -0.46079926841E+03 -0.11763045210E+04 -0.30659336730E+02  0.12670501486E+04  0.91911871775E+02 0.  0.
         13    1    3    3    0    0 -0.35705087651E+03 -0.79641829520E+03 -0.28029288760E+02  0.87324284730E+03  0.00000000000E+00 0. -1.
        -13    1    3    3    0    0 -0.10374839190E+03 -0.37988622585E+03 -0.26300479698E+01  0.39380730131E+03  0.00000000000E+00 0.  1.
         22    1    1    2    0    0  0.46079926841E+03  0.11763045210E+04 -0.52402249399E+03  0.13677089845E+04  0.00000000000E+00 0.  1.
<mgrwt>
<rscale>  0 0.25757103E+04</rscale>
<asrwt>0</asrwt>
<pdfrwt beam="1">  1        2 0.24534161E+00 0.25757103E+04</pdfrwt>
<pdfrwt beam="2">  1       -2 0.16000595E+00 0.25757103E+04</pdfrwt>
<totfact> 0.25069578E+00</totfact>
</mgrwt>
</event>
<event>
 6    1  0.1137345E-005  0.4323929E+04  0.7818608E-02  0.7942208E-01
          1   -1    0    0  501    0  0.00000000000E+00  0.00000000000E+00  0.30388832475E+04  0.30388832475E+04  0.00000000000E+00 0. -1.
         -1   -1    0    0    0  501 -0.00000000000E+00 -0.00000000000E+00 -0.15380944796E+04  0.15380944796E+04  0.00000000000E+00 0.  1.
         23    2    1    2    0    0 -0.17241352503E+04  0.83166120957E+03  0.18130791834E+04  0.26374344735E+04  0.67095068599E+02 0.  0.
         13    1    3    3    0    0 -0.46088838556E+03  0.24003796695E+03  0.45775228286E+03  0.69251244176E+03  0.00000000000E+00 0. -1.
        -13    1    3    3    0    0 -0.12632468647E+04  0.59162324261E+03  0.13553269006E+04  0.19449220318E+04  0.00000000000E+00 0.  1.
         22    1    1    2    0    0  0.17241352503E+04 -0.83166120957E+03 -0.31229041556E+03  0.19395432535E+04  0.00000000000E+00 0.  1.
<mgrwt>
<rscale>  0 0.43239286E+04</rscale>
<asrwt>0</asrwt>
<pdfrwt beam="1">  1        1 0.46752050E+00 0.43239286E+04</pdfrwt>
<pdfrwt beam="2">  1       -1 0.23662992E+00 0.43239286E+04</pdfrwt>
<totfact> 0.36395384E-02</totfact>
</mgrwt>
</event>
<event>
 6    1  0.9906445E-006  0.2717760E+04  0.7818608E-02  0.8329265E-01
          2   -1    0    0  501    0  0.00000000000E+00  0.00000000000E+00  0.62802006723E+03  0.62802006723E+03  0.00000000000E+00 0. -1.
         -2   -1    0    0    0  501 -0.00000000000E+00 -0.00000000000E+00 -0.29402800688E+04  0.29402800688E+04  0.00000000000E+00 0.  1.
         23    2    1    2    0    0  0.29266322508E+02  0.84713007823E+03  0.23438822847E+03  0.88429136282E+03  0.92452612921E+02 0.  0.
         13    1    3    3    0    0 -0.48474326293E+01  0.43255704151E+03  0.16278674193E+03  0.46219975672E+03  0.00000000000E+00 0. -1.
        -13    1    3    3    0    0  0.34113755138E+02  0.41457303672E+03  0.71601486536E+02  0.42209160610E+03  0.00000000000E+00 0.  1.
         22    1    1    2    0    0 -0.29266322508E+02 -0.84713007823E+03 -0.25466482300E+04  0.26840087732E+04  0.00000000000E+00 0.  1.
<mgrwt>
<rscale>  0 0.27177600E+04</rscale>
<asrwt>0</asrwt>
<pdfrwt beam="1">  1        2 0.96618473E-01 0.27177600E+04</pdfrwt>
<pdfrwt beam="2">  1       -2 0.45235077E+00 0.27177600E+04</pdfrwt>
<totfact> 0.13742856E-01</totfact>
</mgrwt>
</event>
<event>
 6    1  0.9906445E-006  0.2668104E+04  0.7818608E-02  0.8345429E-01
         -1   -1    0    0    0  501 -0.00000000000E+00  0.00000000000E+00  0.99250543385E+03  0.99250543385E+03  0.00000000000E+00 0.  1.
          1   -1    0    0  501    0  0.00000000000E+00 -0.00000000000E+00 -0.17931339629E+04  0.17931339629E+04  0.00000000000E+00 0. -1.
         23    2    1    2    0    0 -0.20856348338E+03 -0.94166140863E+03 -0.13606962591E+04  0.16703363898E+04  0.91128537734E+02 0.  0.
         13    1    3    3    0    0 -0.18576691156E+03 -0.68406944268E+03 -0.10349048692E+04  0.12543876738E+04  0.00000000000E+00 0. -1.
        -13    1    3    3    0    0 -0.22796571822E+02 -0.25759196595E+03 -0.32579138993E+03  0.41594871602E+03  0.00000000000E+00 0.  1.
         22    1    1    2    0    0  0.20856348338E+03  0.94166140863E+03  0.56006773005E+03  0.11153030070E+04  0.00000000000E+00 0.  1.
<mgrwt>
<rscale>  0 0.26681043E+04</rscale>
<asrwt>0</asrwt>
<pdfrwt beam="1">  1        1 0.27586676E+00 0.26681043E+04</pdfrwt>
<pdfrwt beam="2">  1       -1 0.15269315E+00 0.26681043E+04</pdfrwt>
<totfact> 0.11987172E+00</totfact>
</mgrwt>
</event>
<event>
 6    1  0.9906445E-006  0.1907439E+04  0.7818608E-02  0.8651162E-01
          1   -1    0    0  501    0  0.00000000000E+00  0.00000000000E+00  0.10190885004E+04  0.10190885004E+04  0.00000000000E+00 0. -1.
         -1   -1    0    0    0  501 -0.00000000000E+00 -0.00000000000E+00 -0.89254377533E+03  0.89254377533E+03  0.00000000000E+00 0.  1.
         23    2    1    2    0    0 -0.46537459625E+03  0.67948506927E+03 -0.41376829473E+03  0.92663906076E+03  0.95824177558E+02 0.  0.
         13    1    3    3    0    0 -0.97112231939E+02  0.17445305010E+03 -0.14236016168E+03  0.24521636959E+03  0.00000000000E+00 0.  1.
        -13    1    3    3    0    0 -0.36826236431E+03  0.50503201917E+03 -0.27140813306E+03  0.68142269118E+03  0.00000000000E+00 0. -1.
         22    1    1    2    0    0  0.46537459625E+03 -0.67948506927E+03  0.54031301984E+03  0.98499321500E+03  0.00000000000E+00 0. -1.
<mgrwt>
<rscale>  0 0.19074392E+04</rscale>
<asrwt>0</asrwt>
<pdfrwt beam="1">  1        1 0.15678285E+00 0.19074392E+04</pdfrwt>
<pdfrwt beam="2">  1       -1 0.13731443E+00 0.19074392E+04</pdfrwt>
<totfact> 0.60280414E+00</totfact>
</mgrwt>
</event>
<event>
 6    1  0.9906445E-006  0.2457770E+04  0.7818608E-02  0.8418186E-01
          2   -1    0    0  501    0  0.00000000000E+00  0.00000000000E+00  0.73350109709E+03  0.73350109709E+03  0.00000000000E+00 0. -1.
         -2   -1    0    0    0  501 -0.00000000000E+00 -0.00000000000E+00 -0.20588363257E+04  0.20588363257E+04  0.00000000000E+00 0.  1.
         23    2    1    2    0    0  0.44488272635E+03 -0.26325698668E+02  0.63546353112E+03  0.78153025680E+03  0.91443754789E+02 0.  0.
         13    1    3    3    0    0  0.38551543729E+03 -0.51395540051E+02  0.52078592995E+03  0.64998587582E+03  0.00000000000E+00 0.  1.
        -13    1    3    3    0    0  0.59367289057E+02  0.25069841384E+02  0.11467760117E+03  0.13154438098E+03  0.00000000000E+00 0. -1.
         22    1    1    2    0    0 -0.44488272635E+03  0.26325698668E+02 -0.19607987597E+04  0.20108071660E+04  0.00000000000E+00 0.  1.
<mgrwt>
<rscale>  0 0.24577703E+04</rscale>
<asrwt>0</asrwt>
<pdfrwt beam="1">  1        2 0.11284632E+00 0.24577703E+04</pdfrwt>
<pdfrwt beam="2">  1       -2 0.31674405E+00 0.24577703E+04</pdfrwt>
<totfact> 0.86657945E-01</totfact>
</mgrwt>
</event>
<event>
 6    1  0.9906445E-006  0.1649309E+04  0.7818608E-02  0.8790816E-01
         -2   -1    0    0    0  501 -0.00000000000E+00  0.00000000000E+00  0.19473735781E+03  0.19473735781E+03  0.00000000000E+00 0.  1.
          2   -1    0    0  501    0  0.00000000000E+00 -0.00000000000E+00 -0.34921639950E+04  0.34921639950E+04  0.00000000000E+00 0. -1.
         23    2    1    2    0    0 -0.43409444237E+03 -0.69454569116E+03 -0.18118212701E+04  0.19904771698E+04  0.92039918960E+02 0.  0.
         13    1    3    3    0    0 -0.21756925158E+03 -0.29248966298E+03 -0.72059717593E+03  0.80755611083E+03  0.00000000000E+00 0.  1.
        -13    1    3    3    0    0 -0.21652519079E+03 -0.40205602818E+03 -0.10912240941E+04  0.11829210589E+04  0.00000000000E+00 0. -1.
         22    1    1    2    0    0  0.43409444237E+03  0.69454569116E+03 -0.14856053671E+04  0.16964241830E+04  0.00000000000E+00 0.  1.
<mgrwt>
<rscale>  0 0.16493087E+04</rscale>
<asrwt>0</asrwt>
<pdfrwt beam="1">  1        2 0.53725600E+00 0.16493087E+04</pdfrwt>
<pdfrwt beam="2">  1       -2 0.29959593E-01 0.16493087E+04</pdfrwt>
<totfact> 0.81733854E+00</totfact>
</mgrwt>
</event>
<event>
 6    1  0.9906445E-006  0.4509053E+04  0.7818608E-02  0.7909054E-01
          2   -1    0    0  501    0  0.00000000000E+00  0.00000000000E+00  0.44865721918E+04  0.44865721918E+04  0.00000000000E+00 0. -1.
         -2   -1    0    0    0  501 -0.00000000000E+00 -0.00000000000E+00 -0.11329115696E+04  0.11329115696E+04  0.00000000000E+00 0.  1.
         23    2    1    2    0    0  0.33554860011E+03 -0.22284320681E+04  0.16740592361E+04  0.28088676081E+04  0.93597909993E+02 0.  0.
         13    1    3    3    0    0  0.21105000325E+03 -0.11800226033E+04  0.84889889546E+03  0.14688855582E+04  0.00000000000E+00 0. -1.
        -13    1    3    3    0    0  0.12449859686E+03 -0.10484094647E+04  0.82516034067E+03  0.13399820499E+04  0.00000000000E+00 0.  1.
         22    1    1    2    0    0 -0.33554860011E+03  0.22284320681E+04  0.16796013862E+04  0.28106161533E+04  0.00000000000E+00 0.  1.
<mgrwt>
<rscale>  0 0.45090529E+04</rscale>
<asrwt>0</asrwt>
<pdfrwt beam="1">  1        2 0.69024186E+00 0.45090529E+04</pdfrwt>
<pdfrwt beam="2">  1       -2 0.17429409E+00 0.45090529E+04</pdfrwt>
<totfact> 0.18926113E-02</totfact>
</mgrwt>
</event>
<event>
 6    1  0.9906445E-006  0.2906055E+04  0.7818608E-02  0.8271078E-01
         -1   -1    0    0    0  501 -0.00000000000E+00  0.00000000000E+00  0.20640845165E+04  0.20640845165E+04  0.00000000000E+00 0.  1.
          1   -1    0    0  501    0  0.00000000000E+00 -0.00000000000E+00 -0.10228694843E+04  0.10228694843E+04  0.00000000000E+00 0. -1.
         23    2    1    2    0    0  0.13036695181E+04  0.36715315911E+03 -0.33659932126E+02  0.13578756787E+04  0.91311078652E+02 0.  0.
         11    1    3    3    0    0  0.22704902550E+03  0.73601743463E+02 -0.39561055470E+02  0.24193708631E+03  0.00000000000E+00 0.  1.
        -11    1    3    3    0    0  0.10766204926E+04  0.29355141565E+03  0.59011233438E+01  0.11159385924E+04  0.00000000000E+00 0. -1.
         22    1    1    2    0    0 -0.13036695181E+04 -0.36715315911E+03  0.10748749644E+04  0.17290783221E+04  0.00000000000E+00 0.  1.
<mgrwt>
<rscale>  0 0.29060551E+04</rscale>
<asrwt>0</asrwt>
<pdfrwt beam="1">  1        1 0.15736454E+00 0.29060551E+04</pdfrwt>
<pdfrwt beam="2">  1       -1 0.31755146E+00 0.29060551E+04</pdfrwt>
<totfact> 0.31632775E-01</totfact>
</mgrwt>
</event>
<event>
 6    1  0.9906445E-006  0.2871575E+04  0.7818608E-02  0.8281385E-01
         -2   -1    0    0    0  501 -0.00000000000E+00  0.00000000000E+00  0.82341222314E+03  0.82341222314E+03  0.00000000000E+00 0.  1.
          2   -1    0    0  501    0  0.00000000000E+00 -0.00000000000E+00 -0.25035885751E+04  0.25035885751E+04  0.00000000000E+00 0. -1.
         23    2    1    2    0    0 -0.13232347611E+04  0.49306523801E+03 -0.11321740862E+04  0.18122829878E+04  0.92129823672E+02 0.  0.
         11    1    3    3    0    0 -0.95360674834E+03  0.39228832223E+03 -0.79720296943E+03  0.13033758217E+04  0.00000000000E+00 0.  1.
        -11    1    3    3    0    0 -0.36962801277E+03  0.10077691577E+03 -0.33497111676E+03  0.50890716604E+03  0.00000000000E+00 0. -1.
         22    1    1    2    0    0  0.13232347611E+04 -0.49306523801E+03 -0.54800226573E+03  0.15147178104E+04  0.00000000000E+00 0.  1.
<mgrwt>
<rscale>  0 0.28715748E+04</rscale>
<asrwt>0</asrwt>
<pdfrwt beam="1">  1        2 0.38516747E+00 0.28715748E+04</pdfrwt>
<pdfrwt beam="2">  1       -2 0.12667881E+00 0.28715748E+04</pdfrwt>
<totfact> 0.13892672E+00</totfact>
</mgrwt>
</event>
<event>
 6    1  0.9906445E-006  0.1367345E+04  0.7818608E-02  0.8977801E-01
          1   -1    0    0  501    0  0.00000000000E+00  0.00000000000E+00  0.12271551976E+04  0.12271551976E+04  0.00000000000E+00 0. -1.
         -1   -1    0    0    0  501 -0.00000000000E+00 -0.00000000000E+00 -0.38088758751E+03  0.38088758751E+03  0.00000000000E+00 0.  1.
         23    2    1    2    0    0  0.42158266549E+03  0.47850894784E+03  0.70434801594E+03  0.95470984684E+03  0.93069904351E+02 0.  0.
         11    1    3    3    0    0  0.27020773381E+03  0.23677840826E+03  0.39318626694E+03  0.53260836882E+03  0.00000000000E+00 0. -1.
        -11    1    3    3    0    0  0.15137493168E+03  0.24173053958E+03  0.31116174900E+03  0.42210147802E+03  0.00000000000E+00 0.  1.
         22    1    1    2    0    0 -0.42158266549E+03 -0.47850894784E+03  0.14191959414E+03  0.65333293825E+03  0.00000000000E+00 0.  1.
<mgrwt>
<rscale>  0 0.13673451E+04</rscale>
<asrwt>0</asrwt>
<pdfrwt beam="1">  1        1 0.18879311E+00 0.13673451E+04</pdfrwt>
<pdfrwt beam="2">  1       -1 0.58598091E-01 0.13673451E+04</pdfrwt>
<totfact> 0.29451100E+01</totfact>
</mgrwt>
</event>
<event>
 6    1  0.9906445E-006  0.3207805E+04  0.7818608E-02  0.8186759E-01
         -1   -1    0    0    0  501 -0.00000000000E+00  0.00000000000E+00  0.56529530123E+03  0.56529530123E+03  0.00000000000E+00 0.  1.
          1   -1    0    0  501    0  0.00000000000E+00 -0.00000000000E+00 -0.45507249908E+04  0.45507249908E+04  0.00000000000E+00 0. -1.
         23    2    1    2    0    0 -0.15094395519E+04 -0.35130801400E+03 -0.13430865372E+04  0.20527210222E+04  0.89202395355E+02 0.  0.
         13    1    3    3    0    0 -0.60157925144E+03 -0.14691764541E+03 -0.59417292506E+03  0.85820968019E+03  0.00000000000E+00 0.  1.
        -13    1    3    3    0    0 -0.90786030041E+03 -0.20439036859E+03 -0.74891361214E+03  0.11945113420E+04  0.00000000000E+00 0. -1.
         22    1    1    2    0    0  0.15094395519E+04  0.35130801400E+03 -0.26423431524E+04  0.30632992698E+04  0.00000000000E+00 0. -1.
<mgrwt>
<rscale>  0 0.32078051E+04</rscale>
<asrwt>0</asrwt>
<pdfrwt beam="1">  1        1 0.70011153E+00 0.32078051E+04</pdfrwt>
<pdfrwt beam="2">  1       -1 0.86968509E-01 0.32078051E+04</pdfrwt>
<totfact> 0.31008989E-02</totfact>
</mgrwt>
</event>
<event>
 6    1  0.9906445E-006  0.2348918E+04  0.7818608E-02  0.8458879E-01
          1   -1    0    0  501    0  0.00000000000E+00  0.00000000000E+00  0.72028376622E+03  0.72028376622E+03  0.00000000000E+00 0. -1.
         -1   -1    0    0    0  501 -0.00000000000E+00 -0.00000000000E+00 -0.19150154144E+04  0.19150154144E+04  0.00000000000E+00 0.  1.
         23    2    1    2    0    0 -0.79978946066E+03  0.85468067443E+03 -0.51738234561E+03  0.12829145037E+04  0.89682192294E+02 0.  0.
         11    1    3    3    0    0 -0.25917076289E+03  0.26448814612E+03 -0.20882163682E+03  0.42512344064E+03  0.00000000000E+00 0.  1.
        -11    1    3    3    0    0 -0.54061869776E+03  0.59019252831E+03 -0.30856070878E+03  0.85779106305E+03  0.00000000000E+00 0. -1.
         22    1    1    2    0    0  0.79978946066E+03 -0.85468067443E+03 -0.67734930252E+03  0.13523846769E+04  0.00000000000E+00 0.  1.
<mgrwt>
<rscale>  0 0.23489185E+04</rscale>
<asrwt>0</asrwt>
<pdfrwt beam="1">  1        1 0.11081289E+00 0.23489185E+04</pdfrwt>
<pdfrwt beam="2">  1       -1 0.29461776E+00 0.23489185E+04</pdfrwt>
<totfact> 0.84016824E-01</totfact>
</mgrwt>
</event>
<event>
 6    1  0.9906445E-006  0.2768389E+04  0.7818608E-02  0.8313150E-01
         -2   -1    0    0    0  501 -0.00000000000E+00  0.00000000000E+00  0.10649092338E+04  0.10649092338E+04  0.00000000000E+00 0.  1.
          2   -1    0    0  501    0  0.00000000000E+00 -0.00000000000E+00 -0.17992089939E+04  0.17992089939E+04  0.00000000000E+00 0. -1.
         23    2    1    2    0    0 -0.44944034992E+03 -0.71722361235E+03  0.76342417847E+03  0.11437742696E+04  0.94851279154E+02 0.  0.
         11    1    3    3    0    0 -0.20566786912E+03 -0.24447392754E+03  0.27119315774E+03  0.41906145425E+03  0.00000000000E+00 0. -1.
        -11    1    3    3    0    0 -0.24377248080E+03 -0.47274968481E+03  0.49223102074E+03  0.72471281530E+03  0.00000000000E+00 0.  1.
         22    1    1    2    0    0  0.44944034992E+03  0.71722361235E+03 -0.14977239386E+04  0.17203439582E+04  0.00000000000E+00 0. -1.
<mgrwt>
<rscale>  0 0.27683889E+04</rscale>
<asrwt>0</asrwt>
<pdfrwt beam="1">  1        2 0.27680139E+00 0.27683889E+04</pdfrwt>
<pdfrwt beam="2">  1       -2 0.16383219E+00 0.27683889E+04</pdfrwt>
<totfact> 0.17792942E+00</totfact>
</mgrwt>
</event>
<event>
 6    1  0.9906445E-006  0.6041489E+03  0.7818608E-02  0.9896836E-01
         -1   -1    0    0    0  501 -0.00000000000E+00  0.00000000000E+00  0.11153654079E+03  0.11153654079E+03  0.00000000000E+00 0.  1.
          1   -1    0    0  501    0  0.00000000000E+00 -0.00000000000E+00 -0.81810828572E+03  0.81810828572E+03  0.00000000000E+00 0. -1.
         23    2    1    2    0    0  0.22201187007E+03 -0.12836570362E+03 -0.13587750125E+03  0.30397802694E+03  0.90404210079E+02 0.  0.
         11    1    3    3    0    0  0.12366606349E+03 -0.79627225640E+02 -0.27316926084E+02  0.14959948119E+03  0.00000000000E+00 0.  1.
        -11    1    3    3    0    0  0.98345806587E+02 -0.48738477977E+02 -0.10856057517E+03  0.15437854576E+03  0.00000000000E+00 0. -1.
         22    1    1    2    0    0 -0.22201187007E+03  0.12836570362E+03 -0.57069424368E+03  0.62566679957E+03  0.00000000000E+00 0. -1.
<mgrwt>
<rscale>  0 0.60414888E+03</rscale>
<asrwt>0</asrwt>
<pdfrwt beam="1">  1        1 0.12586282E+00 0.60414888E+03</pdfrwt>
<pdfrwt beam="2">  1       -1 0.17159468E-01 0.60414888E+03</pdfrwt>
<totfact> 0.56903449E+02</totfact>
</mgrwt>
</event>
<event>
 6    1  0.9906445E-006  0.2278695E+04  0.7818608E-02  0.8486369E-01
         -1   -1    0    0    0  501 -0.00000000000E+00  0.00000000000E+00  0.89793746448E+03  0.89793746448E+03  0.00000000000E+00 0.  1.
          1   -1    0    0  501    0  0.00000000000E+00 -0.00000000000E+00 -0.14456602596E+04  0.14456602596E+04  0.00000000000E+00 0. -1.
         23    2    1    2    0    0 -0.14129653820E+03  0.19964361589E+03  0.86841901656E+03  0.90648954588E+03  0.88030809371E+02 0.  0.
         13    1    3    3    0    0 -0.50828155581E+02  0.64139776825E+02  0.16166760148E+03  0.18120106440E+03  0.00000000000E+00 0.  1.
        -13    1    3    3    0    0 -0.90468382614E+02  0.13550383907E+03  0.70675141508E+03  0.72528848149E+03  0.00000000000E+00 0. -1.
         22    1    1    2    0    0  0.14129653820E+03 -0.19964361589E+03 -0.14161418117E+04  0.14371081782E+04  0.00000000000E+00 0. -1.
<mgrwt>
<rscale>  0 0.22786948E+04</rscale>
<asrwt>0</asrwt>
<pdfrwt beam="1">  1        1 0.22240927E+00 0.22786948E+04</pdfrwt>
<pdfrwt beam="2">  1       -1 0.13814423E+00 0.22786948E+04</pdfrwt>
<totfact> 0.28052086E+00</totfact>
</mgrwt>
</event>
<event>
 6    1  0.9906445E-006  0.1399399E+04  0.7818608E-02  0.8954254E-01
          2   -1    0    0  501    0  0.00000000000E+00  0.00000000000E+00  0.91116032467E+03  0.91116032467E+03  0.00000000000E+00 0. -1.
         -2   -1    0    0    0  501 -0.00000000000E+00 -0.00000000000E+00 -0.53731404001E+03  0.53731404001E+03  0.00000000000E+00 0.  1.
         23    2    1    2    0    0  0.34126344221E+03 -0.36088274657E+03  0.69362804428E+03  0.85774814421E+03  0.88965843650E+02 0.  0.
         11    1    3    3    0    0  0.10384324946E+03 -0.55575912935E+02  0.15662765902E+03  0.19597021745E+03  0.00000000000E+00 0.  1.
        -11    1    3    3    0    0  0.23742019275E+03 -0.30530683363E+03  0.53700038525E+03  0.66177792676E+03  0.00000000000E+00 0. -1.
         22    1    1    2    0    0 -0.34126344221E+03  0.36088274657E+03 -0.31978175962E+03  0.59072622047E+03  0.00000000000E+00 0.  1.
<mgrwt>
<rscale>  0 0.13993988E+04</rscale>
<asrwt>0</asrwt>
<pdfrwt beam="1">  1        2 0.14017851E+00 0.13993988E+04</pdfrwt>
<pdfrwt beam="2">  1       -2 0.82663698E-01 0.13993988E+04</pdfrwt>
<totfact> 0.36017723E+01</totfact>
</mgrwt>
</event>
<event>
 6    1  0.9906445E-006  0.1133943E+04  0.7818608E-02  0.9172726E-01
          1   -1    0    0  501    0  0.00000000000E+00  0.00000000000E+00  0.89199792015E+03  0.89199792015E+03  0.00000000000E+00 0. -1.
         -1   -1    0    0    0  501 -0.00000000000E+00 -0.00000000000E+00 -0.36037798303E+03  0.36037798303E+03  0.00000000000E+00 0.  1.
         23    2    1    2    0    0 -0.82165391167E+02 -0.33628507656E+03  0.75823189393E+03  0.83862261534E+03  0.92376846472E+02 0.  0.
         11    1    3    3    0    0 -0.63914584290E+02 -0.97967419225E+02  0.20618927614E+03  0.23705844619E+03  0.00000000000E+00 0. -1.
        -11    1    3    3    0    0 -0.18250806877E+02 -0.23831765734E+03  0.55204261779E+03  0.60156416915E+03  0.00000000000E+00 0.  1.
         22    1    1    2    0    0  0.82165391167E+02  0.33628507656E+03 -0.22661195681E+03  0.41375328783E+03  0.00000000000E+00 0.  1.
<mgrwt>
<rscale>  0 0.11339425E+04</rscale>
<asrwt>0</asrwt>
<pdfrwt beam="1">  1        1 0.13723045E+00 0.11339425E+04</pdfrwt>
<pdfrwt beam="2">  1       -1 0.55442767E-01 0.11339425E+04</pdfrwt>
<totfact> 0.60414278E+01</totfact>
</mgrwt>
</event>
<event>
 6    1  0.9906445E-006  0.2707947E+04  0.7818608E-02  0.8332431E-01
         -2   -1    0    0    0  501 -0.00000000000E+00  0.00000000000E+00  0.73577670026E+03  0.73577670026E+03  0.00000000000E+00 0.  1.
          2   -1    0    0  501    0  0.00000000000E+00 -0.00000000000E+00 -0.24915761186E+04  0.24915761186E+04  0.00000000000E+00 0. -1.
         23    2    1    2    0    0  0.90892178972E+03 -0.38319615609E+03 -0.19816230640E+04  0.22154366006E+04  0.91385170344E+02 0.  0.
         13    1    3    3    0    0  0.52448062142E+03 -0.23397955960E+03 -0.12493868141E+04  0.13750613688E+04  0.00000000000E+00 0.  1.
        -13    1    3    3    0    0  0.38444116830E+03 -0.14921659648E+03 -0.73223624992E+03  0.84037523181E+03  0.00000000000E+00 0. -1.
         22    1    1    2    0    0 -0.90892178972E+03  0.38319615609E+03  0.22582364571E+03  0.10119162183E+04  0.00000000000E+00 0.  1.
<mgrwt>
<rscale>  0 0.27079466E+04</rscale>
<asrwt>0</asrwt>
<pdfrwt beam="1">  1        2 0.38331941E+00 0.27079466E+04</pdfrwt>
<pdfrwt beam="2">  1       -2 0.11319641E+00 0.27079466E+04</pdfrwt>
<totfact> 0.18910872E+00</totfact>
</mgrwt>
</event>
<event>
 6    1  0.9906445E-006  0.2024461E+04  0.7818608E-02  0.8595269E-01
         -2   -1    0    0    0  501 -0.00000000000E+00  0.00000000000E+00  0.10043244261E+04  0.10043244261E+04  0.00000000000E+00 0.  1.
          2   -1    0    0  501    0  0.00000000000E+00 -0.00000000000E+00 -0.10201991204E+04  0.10201991204E+04  0.00000000000E+00 0. -1.
         23    2    1    2    0    0 -0.51083866681E+03 -0.80908456511E+03  0.31581207881E+03  0.10118093260E+04  0.91906833771E+02 0.  0.
         13    1    3    3    0    0 -0.11543838360E+03 -0.21862412240E+03  0.11934162872E+03  0.27452677766E+03  0.00000000000E+00 0. -1.
        -13    1    3    3    0    0 -0.39540028321E+03 -0.59046044271E+03  0.19647045008E+03  0.73728254836E+03  0.00000000000E+00 0.  1.
         22    1    1    2    0    0  0.51083866681E+03  0.80908456511E+03 -0.33168677308E+03  0.10127142205E+04  0.00000000000E+00 0. -1.
<mgrwt>
<rscale>  0 0.20244613E+04</rscale>
<asrwt>0</asrwt>
<pdfrwt beam="1">  1        2 0.15695371E+00 0.20244613E+04</pdfrwt>
<pdfrwt beam="2">  1       -2 0.15451145E+00 0.20244613E+04</pdfrwt>
<totfact> 0.62755865E+00</totfact>
</mgrwt>
</event>
<event>
 6    1  0.9906445E-006  0.1790977E+04  0.7818608E-02  0.8711113E-01
          2   -1    0    0  501    0  0.00000000000E+00  0.00000000000E+00  0.56673665636E+03  0.56673665636E+03  0.00000000000E+00 0. -1.
         -2   -1    0    0    0  501 -0.00000000000E+00 -0.00000000000E+00 -0.14149416186E+04  0.14149416186E+04  0.00000000000E+00 0.  1.
         23    2    1    2    0    0  0.86621651804E+03  0.20551515362E+03 -0.34388848640E+03  0.95849567039E+03  0.88809484803E+02 0.  0.
         13    1    3    3    0    0  0.23927180761E+03  0.36783156594E+02 -0.57116942286E+02  0.24872945869E+03  0.00000000000E+00 0. -1.
        -13    1    3    3    0    0  0.62694471043E+03  0.16873199703E+03 -0.28677154412E+03  0.70976621170E+03  0.00000000000E+00 0.  1.
         22    1    1    2    0    0 -0.86621651804E+03 -0.20551515362E+03 -0.50431647583E+03  0.10231826046E+04  0.00000000000E+00 0.  1.
<mgrwt>
<rscale>  0 0.17909766E+04</rscale>
<asrwt>0</asrwt>
<pdfrwt beam="1">  1        2 0.87190257E-01 0.17909766E+04</pdfrwt>
<pdfrwt beam="2">  1       -2 0.21768332E+00 0.17909766E+04</pdfrwt>
<totfact> 0.51273849E+00</totfact>
</mgrwt>
</event>
<event>
 6    1  0.9906445E-006  0.2927653E+04  0.7818608E-02  0.8264697E-01
         -2   -1    0    0    0  501 -0.00000000000E+00  0.00000000000E+00  0.16098122150E+04  0.16098122150E+04  0.00000000000E+00 0.  1.
          2   -1    0    0  501    0  0.00000000000E+00 -0.00000000000E+00 -0.13310793846E+04  0.13310793846E+04  0.00000000000E+00 0. -1.
         23    2    1    2    0    0  0.22507809757E+02 -0.53586530702E+03 -0.12270739771E+04  0.13424197136E+04  0.93391184419E+02 0.  0.
         11    1    3    3    0    0  0.42859647407E+02 -0.11091626488E+03 -0.25969630046E+03  0.28562481626E+03  0.00000000000E+00 0. -1.
        -11    1    3    3    0    0 -0.20351837650E+02 -0.42494904214E+03 -0.96737767664E+03  0.10567948973E+04  0.00000000000E+00 0.  1.
         22    1    1    2    0    0 -0.22507809757E+02  0.53586530702E+03  0.15058068075E+04  0.15984718860E+04  0.00000000000E+00 0.  1.
<mgrwt>
<rscale>  0 0.29276529E+04</rscale>
<asrwt>0</asrwt>
<pdfrwt beam="1">  1        2 0.20478144E+00 0.29276529E+04</pdfrwt>
<pdfrwt beam="2">  1       -2 0.24766342E+00 0.29276529E+04</pdfrwt>
<totfact> 0.90704935E-01</totfact>
</mgrwt>
</event>
<event>
 6    1  0.9906445E-006  0.1550849E+04  0.7818608E-02  0.8851325E-01
          1   -1    0    0  501    0  0.00000000000E+00  0.00000000000E+00  0.89852478495E+03  0.89852478495E+03  0.00000000000E+00 0. -1.
         -1   -1    0    0    0  501 -0.00000000000E+00 -0.00000000000E+00 -0.66918967491E+03  0.66918967491E+03  0.00000000000E+00 0.  1.
         23    2    1    2    0    0  0.46549445388E+03  0.61512165141E+03  0.67951598948E+02  0.77961270864E+03  0.90104511759E+02 0.  0.
         13    1    3    3    0    0  0.25613818806E+02  0.50987038836E+02  0.26877294203E+02  0.63072456641E+02  0.00000000000E+00 0. -1.
        -13    1    3    3    0    0  0.43988063507E+03  0.56413461258E+03  0.41074304745E+02  0.71654025200E+03  0.00000000000E+00 0.  1.
         22    1    1    2    0    0 -0.46549445388E+03 -0.61512165141E+03  0.16138351108E+03  0.78810175122E+03  0.00000000000E+00 0.  1.
<mgrwt>
<rscale>  0 0.15508495E+04</rscale>
<asrwt>0</asrwt>
<pdfrwt beam="1">  1        1 0.13823458E+00 0.15508495E+04</pdfrwt>
<pdfrwt beam="2">  1       -1 0.10295226E+00 0.15508495E+04</pdfrwt>
<totfact> 0.15672397E+01</totfact>
</mgrwt>
</event>
<event>
 6    1  0.9906445E-006  0.2109994E+04  0.7818608E-02  0.8556854E-01
         -2   -1    0    0    0  501 -0.00000000000E+00  0.00000000000E+00  0.36013305221E+03  0.36013305221E+03  0.00000000000E+00 0.  1.
          2   -1    0    0  501    0  0.00000000000E+00 -0.00000000000E+00 -0.30905768918E+04  0.30905768918E+04  0.00000000000E+00 0. -1.
         23    2    1    2    0    0  0.52498927200E+03  0.67066218510E+03 -0.23803967456E+04  0.25298763705E+04  0.92651394672E+02 0.  0.
         11    1    3    3    0    0  0.86822949703E+02  0.13468037303E+03 -0.55271382635E+03  0.57547337151E+03  0.00000000000E+00 0.  1.
        -11    1    3    3    0    0  0.43816632230E+03  0.53598181207E+03 -0.18276829193E+04  0.19544029989E+04  0.00000000000E+00 0. -1.
         22    1    1    2    0    0 -0.52498927200E+03 -0.67066218510E+03 -0.35004709401E+03  0.92083357360E+03  0.00000000000E+00 0.  1.
<mgrwt>
<rscale>  0 0.21099942E+04</rscale>
<asrwt>0</asrwt>
<pdfrwt beam="1">  1        2 0.47547337E+00 0.21099942E+04</pdfrwt>
<pdfrwt beam="2">  1       -2 0.55405085E-01 0.21099942E+04</pdfrwt>
<totfact> 0.43110170E+00</totfact>
</mgrwt>
</event>
<event>
 6    1  0.9906445E-006  0.2910167E+04  0.7818608E-02  0.8269859E-01
         -1   -1    0    0    0  501 -0.00000000000E+00  0.00000000000E+00  0.67914211218E+03  0.67914211218E+03  0.00000000000E+00 0.  1.
          1   -1    0    0  501    0  0.00000000000E+00 -0.00000000000E+00 -0.31175633572E+04  0.31175633572E+04  0.00000000000E+00 0. -1.
         23    2    1    2    0    0 -0.14000663380E+04  0.35342253116E+03 -0.10020752247E+04  0.17599965735E+04  0.91323308351E+02 0.  0.
         13    1    3    3    0    0 -0.26837320363E+03  0.57051954475E+02 -0.23326496879E+03  0.36012726583E+03  0.00000000000E+00 0. -1.
        -13    1    3    3    0    0 -0.11316931344E+04  0.29637057668E+03 -0.76881025592E+03  0.13998693077E+04  0.00000000000E+00 0.  1.
         22    1    1    2    0    0  0.14000663380E+04 -0.35342253116E+03 -0.14363460203E+04  0.20367088958E+04  0.00000000000E+00 0. -1.
<mgrwt>
<rscale>  0 0.29101674E+04</rscale>
<asrwt>0</asrwt>
<pdfrwt beam="1">  1        1 0.47962513E+00 0.29101674E+04</pdfrwt>
<pdfrwt beam="2">  1       -1 0.10448340E+00 0.29101674E+04</pdfrwt>
<totfact> 0.36146931E-01</totfact>
</mgrwt>
</event>
<event>
 6    1  0.9906445E-006  0.3957802E+04  0.7818608E-02  0.8013114E-01
          2   -1    0    0  501    0  0.00000000000E+00  0.00000000000E+00  0.17699983171E+04  0.17699983171E+04  0.00000000000E+00 0. -1.
         -2   -1    0    0    0  501 -0.00000000000E+00 -0.00000000000E+00 -0.22124587425E+04  0.22124587425E+04  0.00000000000E+00 0.  1.
         23    2    1    2    0    0  0.17433148857E+04  0.64185454304E+02  0.71635074645E+03  0.18881529042E+04  0.93254675638E+02 0.  0.
         13    1    3    3    0    0  0.16725758289E+04  0.73871615023E+02  0.70146241208E+03  0.18152180129E+04  0.00000000000E+00 0. -1.
        -13    1    3    3    0    0  0.70739056786E+02 -0.96861607189E+01  0.14888334371E+02  0.72934891271E+02  0.00000000000E+00 0.  1.
         22    1    1    2    0    0 -0.17433148857E+04 -0.64185454304E+02 -0.11588111719E+04  0.20943041554E+04  0.00000000000E+00 0.  1.
<mgrwt>
<rscale>  0 0.39578015E+04</rscale>
<asrwt>0</asrwt>
<pdfrwt beam="1">  1        2 0.27230743E+00 0.39578015E+04</pdfrwt>
<pdfrwt beam="2">  1       -2 0.34037827E+00 0.39578015E+04</pdfrwt>
<totfact> 0.12689729E-01</totfact>
</mgrwt>
</event>
<event>
 6    1  0.9906445E-006  0.3474556E+04  0.7818608E-02  0.8119846E-01
          2   -1    0    0  501    0  0.00000000000E+00  0.00000000000E+00  0.99832130596E+03  0.99832130596E+03  0.00000000000E+00 0. -1.
         -2   -1    0    0    0  501 -0.00000000000E+00 -0.00000000000E+00 -0.30232107356E+04  0.30232107356E+04  0.00000000000E+00 0.  1.
         23    2    1    2    0    0  0.80751169792E+03 -0.15042531329E+04 -0.13778721615E+04  0.21957489287E+04  0.89045124689E+02 0.  0.
         13    1    3    3    0    0  0.43236277956E+03 -0.77908241232E+03 -0.77378456573E+03  0.11801057294E+04  0.00000000000E+00 0. -1.
        -13    1    3    3    0    0  0.37514891836E+03 -0.72517072055E+03 -0.60408759580E+03  0.10156431993E+04  0.00000000000E+00 0.  1.
         22    1    1    2    0    0 -0.80751169792E+03  0.15042531329E+04 -0.64701726810E+03  0.18257831129E+04  0.00000000000E+00 0. -1.
<mgrwt>
<rscale>  0 0.34745565E+04</rscale>
<asrwt>0</asrwt>
<pdfrwt beam="1">  1        2 0.15358790E+00 0.34745565E+04</pdfrwt>
<pdfrwt beam="2">  1       -2 0.46510934E+00 0.34745565E+04</pdfrwt>
<totfact> 0.57319594E-02</totfact>
</mgrwt>
</event>
<event>
 6    1  0.9906445E-006  0.2446486E+04  0.7818608E-02  0.8422302E-01
          1   -1    0    0  501    0  0.00000000000E+00  0.00000000000E+00  0.16817142995E+04  0.16817142995E+04  0.00000000000E+00 0. -1.
         -1   -1    0    0    0  501 -0.00000000000E+00 -0.00000000000E+00 -0.88976049915E+03  0.88976049915E+03  0.00000000000E+00 0.  1.
         23    2    1    2    0    0  0.91892330831E+03  0.70795871170E+03 -0.58332655385E+01  0.11636076932E+04  0.91231862732E+02 0.  0.
         13    1    3    3    0    0  0.73552596022E+03  0.52172158065E+03  0.88788408070E+01  0.90181521371E+03  0.00000000000E+00 0. -1.
        -13    1    3    3    0    0  0.18339734809E+03  0.18623713105E+03 -0.14712106346E+02  0.26179247953E+03  0.00000000000E+00 0.  1.
         22    1    1    2    0    0 -0.91892330831E+03 -0.70795871170E+03  0.79778706592E+03  0.14078671054E+04  0.00000000000E+00 0. -1.
<mgrwt>
<rscale>  0 0.24464856E+04</rscale>
<asrwt>0</asrwt>
<pdfrwt beam="1">  1        1 0.25872528E+00 0.24464856E+04</pdfrwt>
<pdfrwt beam="2">  1       -1 0.13688623E+00 0.24464856E+04</pdfrwt>
<totfact> 0.19457949E+00</totfact>
</mgrwt>
</event>
<event>
 6    1  0.9906445E-006  0.2190025E+04  0.7818608E-02  0.8522591E-01
         -2   -1    0    0    0  501 -0.00000000000E+00  0.00000000000E+00  0.54016171867E+03  0.54016171867E+03  0.00000000000E+00 0.  1.
          2   -1    0    0  501    0  0.00000000000E+00 -0.00000000000E+00 -0.22198022116E+04  0.22198022116E+04  0.00000000000E+00 0. -1.
         23    2    1    2    0    0 -0.62742038368E+03  0.74586350826E+03 -0.14649018697E+04  0.17619251600E+04  0.92054715021E+02 0.  0.
         13    1    3    3    0    0 -0.38030347278E+03  0.39057148428E+03 -0.77530820983E+03  0.94777615288E+03  0.00000000000E+00 0.  1.
        -13    1    3    3    0    0 -0.24711691091E+03  0.35529202398E+03 -0.68959365990E+03  0.81414900709E+03  0.00000000000E+00 0. -1.
         22    1    1    2    0    0  0.62742038368E+03 -0.74586350826E+03 -0.21473862324E+03  0.99803877035E+03  0.00000000000E+00 0. -1.
<mgrwt>
<rscale>  0 0.21900248E+04</rscale>
<asrwt>0</asrwt>
<pdfrwt beam="1">  1        2 0.34150803E+00 0.21900248E+04</pdfrwt>
<pdfrwt beam="2">  1       -2 0.83101802E-01 0.21900248E+04</pdfrwt>
<totfact> 0.58391003E+00</totfact>
</mgrwt>
</event>
<event>
 6    1  0.9906445E-006  0.7029531E+03  0.7818608E-02  0.9712195E-01
         -2   -1    0    0    0  501 -0.00000000000E+00  0.00000000000E+00  0.33911088146E+03  0.33911088146E+03  0.00000000000E+00 0.  1.
          2   -1    0    0  501    0  0.00000000000E+00 -0.00000000000E+00 -0.36429311611E+03  0.36429311611E+03  0.00000000000E+00 0. -1.
         23    2    1    2    0    0 -0.18886283137E+03 -0.10584475985E+03 -0.28234412458E+03  0.36724254842E+03  0.90975834295E+02 0.  0.
         11    1    3    3    0    0 -0.76445986356E+02 -0.39043737014E+01 -0.13797924415E+03  0.15778943178E+03  0.00000000000E+00 0. -1.
        -11    1    3    3    0    0 -0.11241684502E+03 -0.10194038615E+03 -0.14436488043E+03  0.20945311665E+03  0.00000000000E+00 0.  1.
         22    1    1    2    0    0  0.18886283137E+03  0.10584475985E+03  0.25716188993E+03  0.33616144915E+03  0.00000000000E+00 0.  1.
<mgrwt>
<rscale>  0 0.70295308E+03</rscale>
<asrwt>0</asrwt>
<pdfrwt beam="1">  1        2 0.56045095E-01 0.70295308E+03</pdfrwt>
<pdfrwt beam="2">  1       -2 0.52170905E-01 0.70295308E+03</pdfrwt>
<totfact> 0.30927726E+02</totfact>
</mgrwt>
</event>
<event>
 6    1  0.9906445E-006  0.3570294E+04  0.7818608E-02  0.8097330E-01
          1   -1    0    0  501    0  0.00000000000E+00  0.00000000000E+00  0.23088828288E+04  0.23088828288E+04  0.00000000000E+00 0. -1.
         -1   -1    0    0    0  501 -0.00000000000E+00 -0.00000000000E+00 -0.13802128770E+04  0.13802128770E+04  0.00000000000E+00 0.  1.
         23    2    1    2    0    0 -0.12476268497E+04  0.11869871083E+04 -0.16127542793E+02  0.17248774243E+04  0.97112717546E+02 0.  0.
         13    1    3    3    0    0 -0.70841653335E+03  0.73705146328E+03 -0.23293363275E+02  0.10225660981E+04  0.00000000000E+00 0.  1.
        -13    1    3    3    0    0 -0.53921031639E+03  0.44993564502E+03  0.71658204816E+01  0.70231132622E+03  0.00000000000E+00 0. -1.
         22    1    1    2    0    0  0.12476268497E+04 -0.11869871083E+04  0.94479749458E+03  0.19642182815E+04  0.00000000000E+00 0. -1.
<mgrwt>
<rscale>  0 0.35702940E+04</rscale>
<asrwt>0</asrwt>
<pdfrwt beam="1">  1        1 0.35521274E+00 0.35702940E+04</pdfrwt>
<pdfrwt beam="2">  1       -1 0.21234044E+00 0.35702940E+04</pdfrwt>
<totfact> 0.18448897E-01</totfact>
</mgrwt>
</event>
<event>
 6    1  0.9906445E-006  0.7357800E+03  0.7818608E-02  0.9657927E-01
         -2   -1    0    0    0  501 -0.00000000000E+00  0.00000000000E+00  0.25834824372E+03  0.25834824372E+03  0.00000000000E+00 0.  1.
          2   -1    0    0  501    0  0.00000000000E+00 -0.00000000000E+00 -0.52387833023E+03  0.52387833023E+03  0.00000000000E+00 0. -1.
         23    2    1    2    0    0  0.24320357304E+03  0.78043292943E+02 -0.40780742782E+03  0.48985425076E+03  0.91714531537E+02 0.  0.
         13    1    3    3    0    0  0.13746732919E+03  0.24558136488E+02 -0.14365748878E+03  0.20034431048E+03  0.00000000000E+00 0.  1.
        -13    1    3    3    0    0  0.10573624385E+03  0.53485156456E+02 -0.26414993904E+03  0.28950994028E+03  0.00000000000E+00 0. -1.
         22    1    1    2    0    0 -0.24320357304E+03 -0.78043292943E+02  0.14227734131E+03  0.29237232318E+03  0.00000000000E+00 0.  1.
<mgrwt>
<rscale>  0 0.73577998E+03</rscale>
<asrwt>0</asrwt>
<pdfrwt beam="1">  1        2 0.80596665E-01 0.73577998E+03</pdfrwt>
<pdfrwt beam="2">  1       -2 0.39745884E-01 0.73577998E+03</pdfrwt>
<totfact> 0.35177790E+02</totfact>
</mgrwt>
</event>
<event>
 6    1  0.9906445E-006  0.3021670E+04  0.7818608E-02  0.8237570E-01
         -1   -1    0    0    0  501 -0.00000000000E+00  0.00000000000E+00  0.20035235495E+04  0.20035235495E+04  0.00000000000E+00 0.  1.
          1   -1    0    0  501    0  0.00000000000E+00 -0.00000000000E+00 -0.11393041231E+04  0.11393041231E+04  0.00000000000E+00 0. -1.
         23    2    1    2    0    0  0.70839928698E+03  0.11164795481E+04 -0.32628257414E+03  0.13635999906E+04  0.67738356780E+02 0.  0.
         11    1    3    3    0    0  0.34404405885E+03  0.48420356897E+03 -0.15978368913E+03  0.61510181104E+03  0.00000000000E+00 0. -1.
        -11    1    3    3    0    0  0.36435522813E+03  0.63227597915E+03 -0.16649888501E+03  0.74849817954E+03  0.00000000000E+00 0.  1.
         22    1    1    2    0    0 -0.70839928698E+03 -0.11164795481E+04  0.11905020005E+04  0.17792276820E+04  0.00000000000E+00 0.  1.
<mgrwt>
<rscale>  0 0.30216702E+04</rscale>
<asrwt>0</asrwt>
<pdfrwt beam="1">  1        1 0.17527756E+00 0.30216702E+04</pdfrwt>
<pdfrwt beam="2">  1       -1 0.30823439E+00 0.30216702E+04</pdfrwt>
<totfact> 0.29381620E-01</totfact>
</mgrwt>
</event>
<event>
 6    1  0.9906445E-006  0.1673601E+04  0.7818608E-02  0.8776565E-01
          2   -1    0    0  501    0  0.00000000000E+00  0.00000000000E+00  0.10159342734E+04  0.10159342734E+04  0.00000000000E+00 0. -1.
         -2   -1    0    0    0  501 -0.00000000000E+00 -0.00000000000E+00 -0.68925260352E+03  0.68925260352E+03  0.00000000000E+00 0.  1.
         23    2    1    2    0    0  0.60832515651E+03 -0.49538225599E+03  0.45125822701E+03  0.91084287446E+03  0.10265319730E+03 0.  0.
         11    1    3    3    0    0  0.17138424195E+03 -0.16921062066E+03  0.91711543956E+02  0.25771263032E+03  0.00000000000E+00 0.  1.
        -11    1    3    3    0    0  0.43694091456E+03 -0.32617163533E+03  0.35954668305E+03  0.65313024414E+03  0.00000000000E+00 0. -1.
         22    1    1    2    0    0 -0.60832515651E+03  0.49538225599E+03 -0.12457655717E+03  0.79434400242E+03  0.00000000000E+00 0. -1.
<mgrwt>
<rscale>  0 0.16736013E+04</rscale>
<asrwt>0</asrwt>
<pdfrwt beam="1">  1        2 0.15629758E+00 0.16736013E+04</pdfrwt>
<pdfrwt beam="2">  1       -2 0.10603886E+00 0.16736013E+04</pdfrwt>
<totfact> 0.16843439E+01</totfact>
</mgrwt>
</event>
<event>
 6    1  0.9906445E-006  0.1959550E+04  0.7818608E-02  0.8625769E-01
          1   -1    0    0  501    0  0.00000000000E+00  0.00000000000E+00  0.43386790604E+03  0.43386790604E+03  0.00000000000E+00 0. -1.
         -1   -1    0    0    0  501 -0.00000000000E+00 -0.00000000000E+00 -0.22125601956E+04  0.22125601956E+04  0.00000000000E+00 0.  1.
         23    2    1    2    0    0  0.24982060139E+03  0.81239178958E+03 -0.23802915216E+03  0.88687314211E+03  0.86575633164E+02 0.  0.
         13    1    3    3    0    0  0.12219962086E+03  0.26702686692E+03 -0.97387033612E+02  0.30938702188E+03  0.00000000000E+00 0. -1.
        -13    1    3    3    0    0  0.12762098053E+03  0.54536492267E+03 -0.14064211855E+03  0.57748612023E+03  0.00000000000E+00 0.  1.
         22    1    1    2    0    0 -0.24982060139E+03 -0.81239178958E+03 -0.15406631374E+04  0.17595549595E+04  0.00000000000E+00 0.  1.
<mgrwt>
<rscale>  0 0.19595498E+04</rscale>
<asrwt>0</asrwt>
<pdfrwt beam="1">  1        1 0.66748909E-01 0.19595498E+04</pdfrwt>
<pdfrwt beam="2">  1       -1 0.34039387E+00 0.19595498E+04</pdfrwt>
<totfact> 0.90210707E-01</totfact>
</mgrwt>
</event>
<event>
 6    1  0.9906445E-006  0.2429848E+04  0.7818608E-02  0.8428413E-01
          1   -1    0    0  501    0  0.00000000000E+00  0.00000000000E+00  0.10945638612E+04  0.10945638612E+04  0.00000000000E+00 0. -1.
         -1   -1    0    0    0  501 -0.00000000000E+00 -0.00000000000E+00 -0.13485194597E+04  0.13485194597E+04  0.00000000000E+00 0.  1.
         23    2    1    2    0    0 -0.16479394226E+03 -0.39729031354E+03 -0.12676994793E+04  0.13418688585E+04  0.92484738574E+02 0.  0.
         11    1    3    3    0    0 -0.13298551825E+03 -0.27799528900E+03 -0.77710880072E+03  0.83598123001E+03  0.00000000000E+00 0. -1.
        -11    1    3    3    0    0 -0.31808424003E+02 -0.11929502455E+03 -0.49059067857E+03  0.50588762845E+03  0.00000000000E+00 0.  1.
         22    1    1    2    0    0  0.16479394226E+03  0.39729031354E+03  0.10137438807E+04  0.11012144624E+04  0.00000000000E+00 0. -1.
<mgrwt>
<rscale>  0 0.24298483E+04</rscale>
<asrwt>0</asrwt>
<pdfrwt beam="1">  1        1 0.16839444E+00 0.24298483E+04</pdfrwt>
<pdfrwt beam="2">  1       -1 0.20746453E+00 0.24298483E+04</pdfrwt>
<totfact> 0.15302827E+00</totfact>
</mgrwt>
</event>
<event>
 6    1  0.9906445E-006  0.1623378E+04  0.7818608E-02  0.8806313E-01
         -1   -1    0    0    0  501 -0.00000000000E+00  0.00000000000E+00  0.30621326529E+03  0.30621326529E+03  0.00000000000E+00 0.  1.
          1   -1    0    0  501    0  0.00000000000E+00 -0.00000000000E+00 -0.21515703874E+04  0.21515703874E+04  0.00000000000E+00 0. -1.
         23    2    1    2    0    0 -0.14153396071E+02 -0.77318148078E+03 -0.12853356499E+04  0.15029884023E+04  0.94215092599E+02 0.  0.
         13    1    3    3    0    0  0.25695901777E+02 -0.61881434357E+03 -0.10374432553E+04  0.12082549314E+04  0.00000000000E+00 0.  1.
        -13    1    3    3    0    0 -0.39849297848E+02 -0.15436713721E+03 -0.24789239465E+03  0.29473347097E+03  0.00000000000E+00 0. -1.
         22    1    1    2    0    0  0.14153396071E+02  0.77318148078E+03 -0.56002147216E+03  0.95479525036E+03  0.00000000000E+00 0.  1.
<mgrwt>
<rscale>  0 0.16233784E+04</rscale>
<asrwt>0</asrwt>
<pdfrwt beam="1">  1        1 0.33101084E+00 0.16233784E+04</pdfrwt>
<pdfrwt beam="2">  1       -1 0.47109732E-01 0.16233784E+04</pdfrwt>
<totfact> 0.10123232E+01</totfact>
</mgrwt>
</event>
<event>
 6    1  0.9906445E-006  0.2774782E+04  0.7818608E-02  0.8311141E-01
         -2   -1    0    0    0  501 -0.00000000000E+00  0.00000000000E+00  0.79587625446E+03  0.79587625446E+03  0.00000000000E+00 0.  1.
          2   -1    0    0  501    0  0.00000000000E+00 -0.00000000000E+00 -0.24185339132E+04  0.24185339132E+04  0.00000000000E+00 0. -1.
         23    2    1    2    0    0  0.97168755716E+03 -0.46828081811E+03  0.19581755292E+03  0.11000980505E+04  0.91692820540E+02 0.  0.
         13    1    3    3    0    0  0.55577410659E+03 -0.21878194153E+03  0.11946474193E+03  0.60911593318E+03  0.00000000000E+00 0. -1.
        -13    1    3    3    0    0  0.41591345057E+03 -0.24949887658E+03  0.76352810993E+02  0.49098211732E+03  0.00000000000E+00 0.  1.
         22    1    1    2    0    0 -0.97168755716E+03  0.46828081811E+03 -0.18184752117E+04  0.21143121172E+04  0.00000000000E+00 0. -1.
<mgrwt>
<rscale>  0 0.27747819E+04</rscale>
<asrwt>0</asrwt>
<pdfrwt beam="1">  1        2 0.37208214E+00 0.27747819E+04</pdfrwt>
<pdfrwt beam="2">  1       -2 0.12244250E+00 0.27747819E+04</pdfrwt>
<totfact> 0.17077902E+00</totfact>
</mgrwt>
</event>
<event>
 6    1  0.9906445E-006  0.4373904E+04  0.7818608E-02  0.7933092E-01
          1   -1    0    0  501    0  0.00000000000E+00  0.00000000000E+00  0.30714747906E+04  0.30714747906E+04  0.00000000000E+00 0. -1.
         -1   -1    0    0    0  501 -0.00000000000E+00 -0.00000000000E+00 -0.15571539783E+04  0.15571539783E+04  0.00000000000E+00 0.  1.
         23    2    1    2    0    0 -0.15043378521E+01  0.57347093452E+03  0.29898908428E+04  0.30455374604E+04  0.83546363186E+02 0.  0.
         11    1    3    3    0    0 -0.70051435056E+01  0.98684175139E+02  0.37175195550E+03  0.38469098622E+03  0.00000000000E+00 0.  1.
        -11    1    3    3    0    0  0.55008056535E+01  0.47478675938E+03  0.26181388873E+04  0.26608464742E+04  0.00000000000E+00 0. -1.
         22    1    1    2    0    0  0.15043378521E+01 -0.57347093452E+03 -0.14755700306E+04  0.15830913085E+04  0.00000000000E+00 0.  1.
<mgrwt>
<rscale>  0 0.43739041E+04</rscale>
<asrwt>0</asrwt>
<pdfrwt beam="1">  1        1 0.47253458E+00 0.43739041E+04</pdfrwt>
<pdfrwt beam="2">  1       -1 0.23956215E+00 0.43739041E+04</pdfrwt>
<totfact> 0.32808071E-02</totfact>
</mgrwt>
</event>
<event>
 6    1  0.9906445E-006  0.1322823E+04  0.7818608E-02  0.9011660E-01
          1   -1    0    0  501    0  0.00000000000E+00  0.00000000000E+00  0.67258537626E+03  0.67258537626E+03  0.00000000000E+00 0.  1.
         -1   -1    0    0    0  501 -0.00000000000E+00 -0.00000000000E+00 -0.65042300525E+03  0.65042300525E+03  0.00000000000E+00 0. -1.
         23    2    1    2    0    0  0.10194695003E+03  0.62112714858E+03 -0.18144389930E+03  0.66145896640E+03  0.91727641980E+02 0.  0.
         11    1    3    3    0    0  0.35384191759E+02  0.20690084348E+03 -0.10613969090E+03  0.23521401753E+03  0.00000000000E+00 0. -1.
        -11    1    3    3    0    0  0.66562758276E+02  0.41422630511E+03 -0.75304208399E+02  0.42624494887E+03  0.00000000000E+00 0.  1.
         22    1    1    2    0    0 -0.10194695003E+03 -0.62112714858E+03  0.20360627031E+03  0.66154941512E+03  0.00000000000E+00 0.  1.
<mgrwt>
<rscale>  0 0.13228227E+04</rscale>
<asrwt>0</asrwt>
<pdfrwt beam="1">  1        1 0.10347467E+00 0.13228227E+04</pdfrwt>
<pdfrwt beam="2">  1       -1 0.10006508E+00 0.13228227E+04</pdfrwt>
<totfact> 0.27029617E+01</totfact>
</mgrwt>
</event>
<event>
 6    1  0.9906445E-006  0.2035822E+04  0.7818608E-02  0.8590053E-01
         -1   -1    0    0    0  501 -0.00000000000E+00  0.00000000000E+00  0.32811900613E+03  0.32811900613E+03  0.00000000000E+00 0.  1.
          1   -1    0    0  501    0  0.00000000000E+00 -0.00000000000E+00 -0.31578267923E+04  0.31578267923E+04  0.00000000000E+00 0. -1.
         23    2    1    2    0    0  0.98156065672E+03 -0.17357946211E+03 -0.17523831481E+04  0.20182198267E+04  0.93666527547E+02 0.  0.
         13    1    3    3    0    0  0.75940387977E+02 -0.36983101092E+02 -0.12603606900E+03  0.15172271742E+03  0.00000000000E+00 0. -1.
        -13    1    3    3    0    0  0.90562026874E+03 -0.13659636102E+03 -0.16263470791E+04  0.18664971092E+04  0.00000000000E+00 0.  1.
         22    1    1    2    0    0 -0.98156065672E+03  0.17357946211E+03 -0.10773246380E+04  0.14677259718E+04  0.00000000000E+00 0.  1.
<mgrwt>
<rscale>  0 0.20358222E+04</rscale>
<asrwt>0</asrwt>
<pdfrwt beam="1">  1        1 0.48581951E+00 0.20358222E+04</pdfrwt>
<pdfrwt beam="2">  1       -1 0.50479847E-01 0.20358222E+04</pdfrwt>
<totfact> 0.16700836E+00</totfact>
</mgrwt>
</event>
<event>
 6    1  0.9906445E-006  0.3184161E+04  0.7818608E-02  0.8193013E-01
          2   -1    0    0  501    0  0.00000000000E+00  0.00000000000E+00  0.13988516989E+04  0.13988516989E+04  0.00000000000E+00 0.  1.
         -2   -1    0    0    0  501 -0.00000000000E+00 -0.00000000000E+00 -0.18120003876E+04  0.18120003876E+04  0.00000000000E+00 0. -1.
         23    2    1    2    0    0 -0.14603009376E+04  0.61266786133E+03 -0.56045522940E+02  0.15874718452E+04  0.95315381776E+02 0.  0.
         11    1    3    3    0    0 -0.61051974999E+03  0.30591988394E+03 -0.35102839539E+02  0.68377887497E+03  0.00000000000E+00 0.  1.
        -11    1    3    3    0    0 -0.84978118763E+03  0.30674797739E+03 -0.20942683401E+02  0.90369297025E+03  0.00000000000E+00 0. -1.
         22    1    1    2    0    0  0.14603009376E+04 -0.61266786133E+03 -0.35710316572E+03  0.16233802413E+04  0.00000000000E+00 0. -1.
<mgrwt>
<rscale>  0 0.31841607E+04</rscale>
<asrwt>0</asrwt>
<pdfrwt beam="1">  1        2 0.21520796E+00 0.31841607E+04</pdfrwt>
<pdfrwt beam="2">  1       -2 0.27876929E+00 0.31841607E+04</pdfrwt>
<totfact> 0.52354801E-01</totfact>
</mgrwt>
</event>
<event>
 6    1  0.9906445E-006  0.1347995E+04  0.7818608E-02  0.8992347E-01
          2   -1    0    0  501    0  0.00000000000E+00  0.00000000000E+00  0.88318103148E+03  0.88318103148E+03  0.00000000000E+00 0. -1.
         -2   -1    0    0    0  501 -0.00000000000E+00 -0.00000000000E+00 -0.51435978011E+03  0.51435978011E+03  0.00000000000E+00 0.  1.
         23    2    1    2    0    0  0.41430463143E+03 -0.46862143756E+03 -0.66874422992E+02  0.63525143082E+03  0.88418394756E+02 0.  0.
         11    1    3    3    0    0  0.22447615593E+03 -0.22707892064E+03 -0.74770422941E+02  0.32794053870E+03  0.00000000000E+00 0. -1.
        -11    1    3    3    0    0  0.18982847551E+03 -0.24154251693E+03  0.78959999496E+01  0.30731089211E+03  0.00000000000E+00 0.  1.
         22    1    1    2    0    0 -0.41430463143E+03  0.46862143756E+03  0.43569567437E+03  0.76228938077E+03  0.00000000000E+00 0. -1.
<mgrwt>
<rscale>  0 0.13479953E+04</rscale>
<asrwt>0</asrwt>
<pdfrwt beam="1">  1        2 0.13587400E+00 0.13479953E+04</pdfrwt>
<pdfrwt beam="2">  1       -2 0.79132274E-01 0.13479953E+04</pdfrwt>
<totfact> 0.41677501E+01</totfact>
</mgrwt>
</event>
<event>
 6    1  0.1118574E-005  0.3853693E+04  0.7818608E-02  0.8034730E-01
         -1   -1    0    0    0  501 -0.00000000000E+00  0.00000000000E+00  0.19238852699E+04  0.19238852699E+04  0.00000000000E+00 0. -1.
          1   -1    0    0  501    0  0.00000000000E+00 -0.00000000000E+00 -0.19298118431E+04  0.19298118431E+04  0.00000000000E+00 0.  1.
         23    2    1    2    0    0  0.13592191627E+04 -0.12316965414E+04 -0.59066034331E+03  0.19284785061E+04  0.74810460704E+02 0.  0.
         13    1    3    3    0    0  0.50224439568E+03 -0.48061314063E+03 -0.19133062296E+03  0.72100335035E+03  0.00000000000E+00 0.  1.
        -13    1    3    3    0    0  0.85697476702E+03 -0.75108340076E+03 -0.39932972035E+03  0.12074751558E+04  0.00000000000E+00 0. -1.
         22    1    1    2    0    0 -0.13592191627E+04  0.12316965414E+04  0.58473377008E+03  0.19252186069E+04  0.00000000000E+00 0. -1.
<mgrwt>
<rscale>  0 0.38536926E+04</rscale>
<asrwt>0</asrwt>
<pdfrwt beam="1">  1        1 0.29689413E+00 0.38536926E+04</pdfrwt>
<pdfrwt beam="2">  1       -1 0.29598235E+00 0.38536926E+04</pdfrwt>
<totfact> 0.92368632E-02</totfact>
</mgrwt>
</event>
<event>
 6    1  0.9906445E-006  0.2268006E+04  0.7818608E-02  0.8490644E-01
          2   -1    0    0  501    0  0.00000000000E+00  0.00000000000E+00  0.36947549177E+04  0.36947549177E+04  0.00000000000E+00 0. -1.
         -2   -1    0    0    0  501 -0.00000000000E+00 -0.00000000000E+00 -0.34805099223E+03  0.34805099223E+03  0.00000000000E+00 0.  1.
         23    2    1    2    0    0 -0.57063909809E+03 -0.15445659340E+03 -0.44925144631E+02  0.60004051440E+03  0.92436631200E+02 0.  0.
         13    1    3    3    0    0 -0.29970096645E+03 -0.34266691539E+02 -0.32199636218E+02  0.30336725600E+03  0.00000000000E+00 0. -1.
        -13    1    3    3    0    0 -0.27093813164E+03 -0.12018990186E+03 -0.12725508413E+02  0.29667325840E+03  0.00000000000E+00 0.  1.
         22    1    1    2    0    0  0.57063909809E+03  0.15445659340E+03  0.33916290701E+04  0.34427653956E+04  0.00000000000E+00 0. -1.
<mgrwt>
<rscale>  0 0.22680063E+04</rscale>
<asrwt>0</asrwt>
<pdfrwt beam="1">  1        2 0.56842380E+00 0.22680063E+04</pdfrwt>
<pdfrwt beam="2">  1       -2 0.53546309E-01 0.22680063E+04</pdfrwt>
<totfact> 0.17666528E+00</totfact>
</mgrwt>
</event>
<event>
 6    1  0.9906445E-006  0.3800987E+03  0.7818608E-02  0.1050897E+00
         -2   -1    0    0    0  501 -0.00000000000E+00  0.00000000000E+00  0.35054531719E+02  0.35054531719E+02  0.00000000000E+00 0.  1.
          2   -1    0    0  501    0  0.00000000000E+00 -0.00000000000E+00 -0.10303589434E+04  0.10303589434E+04  0.00000000000E+00 0. -1.
         23    2    1    2    0    0 -0.91201554838E+02  0.28365339399E+02 -0.95013677386E+03  0.95976106581E+03  0.96224208549E+02 0.  0.
         13    1    3    3    0    0 -0.51952145406E+02 -0.94319138076E+01 -0.76373768084E+03  0.76556073015E+03  0.00000000000E+00 0. -1.
        -13    1    3    3    0    0 -0.39249409432E+02  0.37797253206E+02 -0.18639909302E+03  0.19420033566E+03  0.00000000000E+00 0.  1.
         22    1    1    2    0    0  0.91201554838E+02 -0.28365339399E+02 -0.45167637794E+02  0.10565240929E+03  0.00000000000E+00 0. -1.
<mgrwt>
<rscale>  0 0.38009867E+03</rscale>
<asrwt>0</asrwt>
<pdfrwt beam="1">  1        2 0.15851679E+00 0.38009867E+03</pdfrwt>
<pdfrwt beam="2">  1       -2 0.53930040E-02 0.38009867E+03</pdfrwt>
<totfact> 0.44056007E+03</totfact>
</mgrwt>
</event>
<event>
 6    1  0.9906445E-006  0.1304099E+04  0.7818608E-02  0.9026321E-01
          2   -1    0    0  501    0  0.00000000000E+00  0.00000000000E+00  0.22072315931E+04  0.22072315931E+04  0.00000000000E+00 0. -1.
         -2   -1    0    0    0  501 -0.00000000000E+00 -0.00000000000E+00 -0.19262534628E+03  0.19262534628E+03  0.00000000000E+00 0.  1.
         23    2    1    2    0    0  0.50421761308E+03 -0.40749229591E+03  0.10608779551E+04  0.12466513952E+04  0.91609459721E+02 0.  0.
         13    1    3    3    0    0  0.46004660500E+03 -0.39465395034E+03  0.10111912627E+04  0.11789412153E+04  0.00000000000E+00 0. -1.
        -13    1    3    3    0    0  0.44171008079E+02 -0.12838345563E+02  0.49686692352E+02  0.67710179947E+02  0.00000000000E+00 0.  1.
         22    1    1    2    0    0 -0.50421761308E+03  0.40749229591E+03  0.95372829170E+03  0.11532055441E+04  0.00000000000E+00 0. -1.
<mgrwt>
<rscale>  0 0.13040993E+04</rscale>
<asrwt>0</asrwt>
<pdfrwt beam="1">  1        2 0.33957407E+00 0.13040993E+04</pdfrwt>
<pdfrwt beam="2">  1       -2 0.29634670E-01 0.13040993E+04</pdfrwt>
<totfact> 0.52705155E+01</totfact>
</mgrwt>
</event>
<event>
 6    1  0.9906445E-006  0.1214302E+04  0.7818608E-02  0.9100429E-01
          1   -1    0    0  501    0  0.00000000000E+00  0.00000000000E+00  0.78009097408E+03  0.78009097408E+03  0.00000000000E+00 0. -1.
         -1   -1    0    0    0  501 -0.00000000000E+00 -0.00000000000E+00 -0.47255034092E+03  0.47255034092E+03  0.00000000000E+00 0.  1.
         23    2    1    2    0    0  0.21821377340E+03 -0.65728226740E+02  0.73132995225E+03  0.77146064450E+03  0.91490853432E+02 0.  0.
         13    1    3    3    0    0  0.11225915579E+03 -0.59569611542E+02  0.27490983688E+03  0.30286312930E+03  0.00000000000E+00 0.  1.
        -13    1    3    3    0    0  0.10595461761E+03 -0.61586151984E+01  0.45642011537E+03  0.46859751519E+03  0.00000000000E+00 0. -1.
         22    1    1    2    0    0 -0.21821377340E+03  0.65728226740E+02 -0.42378931909E+03  0.48118067051E+03  0.00000000000E+00 0.  1.
<mgrwt>
<rscale>  0 0.12143019E+04</rscale>
<asrwt>0</asrwt>
<pdfrwt beam="1">  1        1 0.12001400E+00 0.12143019E+04</pdfrwt>
<pdfrwt beam="2">  1       -1 0.72700052E-01 0.12143019E+04</pdfrwt>
<totfact> 0.43439156E+01</totfact>
</mgrwt>
</event>
<event>
 6    1  0.1655880E-005  0.2561934E+04  0.7818608E-02  0.8381248E-01
         -1   -1    0    0    0  501 -0.00000000000E+00  0.00000000000E+00  0.10140198001E+04  0.10140198001E+04  0.00000000000E+00 0.  1.
          1   -1    0    0  501    0  0.00000000000E+00 -0.00000000000E+00 -0.16181892621E+04  0.16181892621E+04  0.00000000000E+00 0. -1.
         23    2    1    2    0    0 -0.22125720431E+03  0.21024390447E+03  0.97407560716E+03  0.10247219711E+04  0.89858665612E+02 0.  0.
         11    1    3    3    0    0 -0.13886813198E+03  0.17383241632E+03  0.59911890927E+03  0.63909743739E+03  0.00000000000E+00 0. -1.
        -11    1    3    3    0    0 -0.82389072329E+02  0.36411488152E+02  0.37495669789E+03  0.38562453372E+03  0.00000000000E+00 0.  1.
         22    1    1    2    0    0  0.22125720431E+03 -0.21024390447E+03 -0.15782450691E+04  0.16074870911E+04  0.00000000000E+00 0. -1.
<mgrwt>
<rscale>  0 0.25619336E+04</rscale>
<asrwt>0</asrwt>
<pdfrwt beam="1">  1        1 0.24895219E+00 0.25619336E+04</pdfrwt>
<pdfrwt beam="2">  1       -1 0.15600305E+00 0.25619336E+04</pdfrwt>
<totfact> 0.15020676E+00</totfact>
</mgrwt>
</event>
<event>
 6    1  0.9906445E-006  0.4330908E+04  0.7818608E-02  0.7940928E-01
         -1   -1    0    0    0  501 -0.00000000000E+00  0.00000000000E+00  0.25521125474E+04  0.25521125474E+04  0.00000000000E+00 0.  1.
          1   -1    0    0  501    0  0.00000000000E+00 -0.00000000000E+00 -0.18373758738E+04  0.18373758738E+04  0.00000000000E+00 0. -1.
         23    2    1    2    0    0 -0.66330420880E+03  0.11247706187E+04  0.21071138604E+04  0.24806155474E+04  0.91887188847E+02 0.  0.
         11    1    3    3    0    0 -0.16898821286E+03  0.22102922612E+03  0.48177144619E+03  0.55634041849E+03  0.00000000000E+00 0. -1.
        -11    1    3    3    0    0 -0.49431599595E+03  0.90374139259E+03  0.16253424142E+04  0.19242751289E+04  0.00000000000E+00 0.  1.
         22    1    1    2    0    0  0.66330420880E+03 -0.11247706187E+04 -0.13923771868E+04  0.19088728738E+04  0.00000000000E+00 0. -1.
<mgrwt>
<rscale>  0 0.43309075E+04</rscale>
<asrwt>0</asrwt>
<pdfrwt beam="1">  1        1 0.28267321E+00 0.43309075E+04</pdfrwt>
<pdfrwt beam="2">  1       -1 0.39263270E+00 0.43309075E+04</pdfrwt>
<totfact> 0.23503271E-02</totfact>
</mgrwt>
</event>
<event>
 6    1  0.9906445E-006  0.1241264E+04  0.7818608E-02  0.9077485E-01
          2   -1    0    0  501    0  0.00000000000E+00  0.00000000000E+00  0.15121548046E+04  0.15121548046E+04  0.00000000000E+00 0. -1.
         -2   -1    0    0    0  501 -0.00000000000E+00 -0.00000000000E+00 -0.25472541413E+03  0.25472541413E+03  0.00000000000E+00 0.  1.
         23    2    1    2    0    0  0.18382572007E+03  0.58818360892E+03  0.68830135294E+03  0.92803662409E+03  0.87985055705E+02 0.  0.
         11    1    3    3    0    0  0.81815382294E+02  0.33551890783E+03  0.32786015299E+03  0.47619216101E+03  0.00000000000E+00 0. -1.
        -11    1    3    3    0    0  0.10201033778E+03  0.25266470110E+03  0.36044119996E+03  0.45184446308E+03  0.00000000000E+00 0.  1.
         22    1    1    2    0    0 -0.18382572007E+03 -0.58818360892E+03  0.56912803753E+03  0.83884359464E+03  0.00000000000E+00 0.  1.
<mgrwt>
<rscale>  0 0.12412643E+04</rscale>
<asrwt>0</asrwt>
<pdfrwt beam="1">  1        2 0.23263919E+00 0.12412643E+04</pdfrwt>
<pdfrwt beam="2">  1       -2 0.39188526E-01 0.12412643E+04</pdfrwt>
<totfact> 0.75659897E+01</totfact>
</mgrwt>
</event>
<event>
 6    1  0.9906445E-006  0.2533942E+04  0.7818608E-02  0.8390993E-01
          2   -1    0    0  501    0  0.00000000000E+00  0.00000000000E+00  0.13327836157E+04  0.13327836157E+04  0.00000000000E+00 0. -1.
         -2   -1    0    0    0  501 -0.00000000000E+00 -0.00000000000E+00 -0.12044077855E+04  0.12044077855E+04  0.00000000000E+00 0.  1.
         23    2    1    2    0    0  0.89685900323E+03 -0.16724853652E+03  0.94205746810E+03  0.13147324233E+04  0.93385903752E+02 0.  0.
         13    1    3    3    0    0  0.35499666853E+03 -0.20838701579E+02  0.37830150307E+03  0.51920026327E+03  0.00000000000E+00 0. -1.
        -13    1    3    3    0    0  0.54186233470E+03 -0.14640983494E+03  0.56375596503E+03  0.79553216002E+03  0.00000000000E+00 0.  1.
         22    1    1    2    0    0 -0.89685900323E+03  0.16724853652E+03 -0.81368163791E+03  0.12224589778E+04  0.00000000000E+00 0.  1.
<mgrwt>
<rscale>  0 0.25339416E+04</rscale>
<asrwt>0</asrwt>
<pdfrwt beam="1">  1        2 0.20504363E+00 0.25339416E+04</pdfrwt>
<pdfrwt beam="2">  1       -2 0.18529351E+00 0.25339416E+04</pdfrwt>
<totfact> 0.23469765E+00</totfact>
</mgrwt>
</event>
<event>
 6    1  0.9906445E-006  0.1050984E+04  0.7818608E-02  0.9254329E-01
         -2   -1    0    0    0  501 -0.00000000000E+00  0.00000000000E+00  0.30250209499E+03  0.30250209499E+03  0.00000000000E+00 0.  1.
          2   -1    0    0  501    0  0.00000000000E+00 -0.00000000000E+00 -0.91285862646E+03  0.91285862646E+03  0.00000000000E+00 0. -1.
         23    2    1    2    0    0 -0.31425648001E+03  0.29231031995E+03  0.28706203174E+02  0.44555318888E+03  0.11615136522E+03 0.  0.
         13    1    3    3    0    0 -0.96223666094E+02  0.16736167034E+03  0.46610904023E+01  0.19310786721E+03  0.00000000000E+00 0.  1.
        -13    1    3    3    0    0 -0.21803281392E+03  0.12494864961E+03  0.24045112772E+02  0.25244532167E+03  0.00000000000E+00 0. -1.
         22    1    1    2    0    0  0.31425648001E+03 -0.29231031995E+03 -0.63906273464E+03  0.76980753256E+03  0.00000000000E+00 0. -1.
<mgrwt>
<rscale>  0 0.10509836E+04</rscale>
<asrwt>0</asrwt>
<pdfrwt beam="1">  1        2 0.14043979E+00 0.10509836E+04</pdfrwt>
<pdfrwt beam="2">  1       -2 0.46538784E-01 0.10509836E+04</pdfrwt>
<totfact> 0.12522036E+02</totfact>
</mgrwt>
</event>
<event>
 6    1  0.9906445E-006  0.1697882E+04  0.7818608E-02  0.8762573E-01
         -1   -1    0    0    0  501 -0.00000000000E+00  0.00000000000E+00  0.45501761312E+03  0.45501761312E+03  0.00000000000E+00 0.  1.
          1   -1    0    0  501    0  0.00000000000E+00 -0.00000000000E+00 -0.15838958270E+04  0.15838958270E+04  0.00000000000E+00 0. -1.
         23    2    1    2    0    0  0.14737926071E+03 -0.83082478692E+03 -0.65234737228E+03  0.10698561064E+04  0.83931646209E+02 0.  0.
         11    1    3    3    0    0  0.10424061128E+03 -0.47973075624E+03 -0.42526354418E+03  0.64950503118E+03  0.00000000000E+00 0. -1.
        -11    1    3    3    0    0  0.43138649434E+02 -0.35109403068E+03 -0.22708382810E+03  0.42035107522E+03  0.00000000000E+00 0.  1.
         22    1    1    2    0    0 -0.14737926071E+03  0.83082478692E+03 -0.47653084159E+03  0.96905733372E+03  0.00000000000E+00 0.  1.
<mgrwt>
<rscale>  0 0.16978816E+04</rscale>
<asrwt>0</asrwt>
<pdfrwt beam="1">  1        1 0.24367628E+00 0.16978816E+04</pdfrwt>
<pdfrwt beam="2">  1       -1 0.70002709E-01 0.16978816E+04</pdfrwt>
<totfact> 0.11239552E+01</totfact>
</mgrwt>
</event>
<event>
 6    1  0.1291878E-005  0.3736330E+04  0.7818608E-02  0.8059958E-01
         -1   -1    0    0    0  501 -0.00000000000E+00  0.00000000000E+00  0.10776108947E+04  0.10776108947E+04  0.00000000000E+00 0.  1.
          1   -1    0    0  501    0  0.00000000000E+00 -0.00000000000E+00 -0.32386837779E+04  0.32386837779E+04  0.00000000000E+00 0. -1.
         23    2    1    2    0    0 -0.14543673241E+04  0.10045291737E+04 -0.38534136294E+03  0.18108035818E+04  0.79110502835E+02 0.  0.
         11    1    3    3    0    0 -0.33970082946E+03  0.21505930556E+03 -0.58115342417E+02  0.40623213987E+03  0.00000000000E+00 0. -1.
        -11    1    3    3    0    0 -0.11146664946E+04  0.78946986813E+03 -0.32722602052E+03  0.14045714419E+04  0.00000000000E+00 0.  1.
         22    1    1    2    0    0  0.14543673241E+04 -0.10045291737E+04 -0.17757315202E+04  0.25054910908E+04  0.00000000000E+00 0. -1.
<mgrwt>
<rscale>  0 0.37363302E+04</rscale>
<asrwt>0</asrwt>
<pdfrwt beam="1">  1        1 0.49825905E+00 0.37363302E+04</pdfrwt>
<pdfrwt beam="2">  1       -1 0.16578629E+00 0.37363302E+04</pdfrwt>
<totfact> 0.83977627E-02</totfact>
</mgrwt>
</event>
<event>
 6    1  0.9906445E-006  0.3836315E+04  0.7818608E-02  0.8038406E-01
         -2   -1    0    0    0  501 -0.00000000000E+00  0.00000000000E+00  0.11839822703E+04  0.11839822703E+04  0.00000000000E+00 0.  1.
          2   -1    0    0  501    0  0.00000000000E+00 -0.00000000000E+00 -0.31075878194E+04  0.31075878194E+04  0.00000000000E+00 0. -1.
         23    2    1    2    0    0 -0.61831160407E+03  0.18065132471E+03 -0.29822309223E+04  0.30523639641E+04  0.90996450853E+02 0.  0.
         11    1    3    3    0    0 -0.36315796287E+03  0.86891647542E+02 -0.19143031404E+04  0.19503821107E+04  0.00000000000E+00 0.  1.
        -11    1    3    3    0    0 -0.25515364121E+03  0.93759677170E+02 -0.10679277819E+04  0.11019818533E+04  0.00000000000E+00 0. -1.
         22    1    1    2    0    0  0.61831160407E+03 -0.18065132471E+03  0.10586253733E+04  0.12392061256E+04  0.00000000000E+00 0.  1.
<mgrwt>
<rscale>  0 0.38363154E+04</rscale>
<asrwt>0</asrwt>
<pdfrwt beam="1">  1        2 0.47809043E+00 0.38363154E+04</pdfrwt>
<pdfrwt beam="2">  1       -2 0.18215112E+00 0.38363154E+04</pdfrwt>
<totfact> 0.20830029E-01</totfact>
</mgrwt>
</event>
<event>
 6    1  0.9906445E-006  0.1441434E+04  0.7818608E-02  0.8924361E-01
         -2   -1    0    0    0  501 -0.00000000000E+00  0.00000000000E+00  0.60374877509E+03  0.60374877509E+03  0.00000000000E+00 0.  1.
          2   -1    0    0  501    0  0.00000000000E+00 -0.00000000000E+00 -0.86034604123E+03  0.86034604123E+03  0.00000000000E+00 0. -1.
         23    2    1    2    0    0 -0.16506630444E+03 -0.39259282153E+03  0.45813752582E+03  0.63209611967E+03  0.90991777431E+02 0.  0.
         11    1    3    3    0    0  0.50123119362E+00 -0.93344609221E+02  0.91483674455E+02  0.13070091811E+03  0.00000000000E+00 0. -1.
        -11    1    3    3    0    0 -0.16556753564E+03 -0.29924821231E+03  0.36665385136E+03  0.50139520156E+03  0.00000000000E+00 0.  1.
         22    1    1    2    0    0  0.16506630444E+03  0.39259282153E+03 -0.71473479196E+03  0.83199869665E+03  0.00000000000E+00 0. -1.
<mgrwt>
<rscale>  0 0.14414338E+04</rscale>
<asrwt>0</asrwt>
<pdfrwt beam="1">  1        2 0.13236093E+00 0.14414338E+04</pdfrwt>
<pdfrwt beam="2">  1       -2 0.92884428E-01 0.14414338E+04</pdfrwt>
<totfact> 0.29763677E+01</totfact>
</mgrwt>
</event>
<event>
 6    1  0.9906445E-006  0.1127376E+04  0.7818608E-02  0.9178912E-01
         -2   -1    0    0    0  501 -0.00000000000E+00  0.00000000000E+00  0.23832686843E+03  0.23832686843E+03  0.00000000000E+00 0.  1.
          2   -1    0    0  501    0  0.00000000000E+00 -0.00000000000E+00 -0.13332291068E+04  0.13332291068E+04  0.00000000000E+00 0. -1.
         23    2    1    2    0    0 -0.49131357470E+03 -0.21262484181E+03 -0.77947082938E+03  0.95019028111E+03  0.93211825585E+02 0.  0.
         11    1    3    3    0    0 -0.21666678668E+03 -0.92777810779E+02 -0.42545371849E+03  0.48637751304E+03  0.00000000000E+00 0. -1.
        -11    1    3    3    0    0 -0.27464678802E+03 -0.11984703103E+03 -0.35401711089E+03  0.46381276807E+03  0.00000000000E+00 0.  1.
         22    1    1    2    0    0  0.49131357470E+03  0.21262484181E+03 -0.31543140895E+03  0.62136569409E+03  0.00000000000E+00 0.  1.
<mgrwt>
<rscale>  0 0.11273763E+04</rscale>
<asrwt>0</asrwt>
<pdfrwt beam="1">  1        2 0.20511217E+00 0.11273763E+04</pdfrwt>
<pdfrwt beam="2">  1       -2 0.36665673E-01 0.11273763E+04</pdfrwt>
<totfact> 0.10970546E+02</totfact>
</mgrwt>
</event>
<event>
 6    1  0.9906445E-006  0.1653439E+04  0.7818608E-02  0.8788374E-01
         -2   -1    0    0    0  501 -0.00000000000E+00  0.00000000000E+00  0.40595580584E+03  0.40595580584E+03  0.00000000000E+00 0.  1.
          2   -1    0    0  501    0  0.00000000000E+00 -0.00000000000E+00 -0.16835957089E+04  0.16835957089E+04  0.00000000000E+00 0. -1.
         23    2    1    2    0    0 -0.55432798447E+03  0.56868434448E+03 -0.91945983555E+03  0.12183601702E+04  0.91179587570E+02 0.  0.
         11    1    3    3    0    0 -0.12044771469E+03  0.84883597859E+02 -0.13670140384E+03  0.20099788798E+03  0.00000000000E+00 0.  1.
        -11    1    3    3    0    0 -0.43388026978E+03  0.48380074662E+03 -0.78275843172E+03  0.10173622823E+04  0.00000000000E+00 0. -1.
         22    1    1    2    0    0  0.55432798447E+03 -0.56868434448E+03 -0.35818006753E+03  0.87119134454E+03  0.00000000000E+00 0.  1.
<mgrwt>
<rscale>  0 0.16534394E+04</rscale>
<asrwt>0</asrwt>
<pdfrwt beam="1">  1        2 0.25901472E+00 0.16534394E+04</pdfrwt>
<pdfrwt beam="2">  1       -2 0.62454740E-01 0.16534394E+04</pdfrwt>
<totfact> 0.22745305E+01</totfact>
</mgrwt>
</event>
<event>
 6    1  0.9906445E-006  0.2021976E+04  0.7818608E-02  0.8596415E-01
         -2   -1    0    0    0  501 -0.00000000000E+00  0.00000000000E+00  0.74123144746E+03  0.74123144746E+03  0.00000000000E+00 0. -1.
          2   -1    0    0  501    0  0.00000000000E+00 -0.00000000000E+00 -0.13789167266E+04  0.13789167266E+04  0.00000000000E+00 0.  1.
         23    2    1    2    0    0 -0.94822891692E+03 -0.11398995586E+03  0.21877898744E+02  0.95947794764E+03  0.89372818283E+02 0.  0.
         13    1    3    3    0    0 -0.69629143600E+03 -0.96540991686E+02  0.53398011943E+02  0.70497749936E+03  0.00000000000E+00 0.  1.
        -13    1    3    3    0    0 -0.25193748092E+03 -0.17448964175E+02 -0.31520113199E+02  0.25450044829E+03  0.00000000000E+00 0. -1.
         22    1    1    2    0    0  0.94822891692E+03  0.11398995586E+03 -0.65956317791E+03  0.11606702264E+04  0.00000000000E+00 0.  1.
<mgrwt>
<rscale>  0 0.20219757E+04</rscale>
<asrwt>0</asrwt>
<pdfrwt beam="1">  1        2 0.21214103E+00 0.20219757E+04</pdfrwt>
<pdfrwt beam="2">  1       -2 0.11403561E+00 0.20219757E+04</pdfrwt>
<totfact> 0.83073525E+00</totfact>
</mgrwt>
</event>
<event>
 6    1  0.9906445E-006  0.2130191E+04  0.7818608E-02  0.8548059E-01
         -2   -1    0    0    0  501 -0.00000000000E+00  0.00000000000E+00  0.14801351913E+04  0.14801351913E+04  0.00000000000E+00 0.  1.
          2   -1    0    0  501    0  0.00000000000E+00 -0.00000000000E+00 -0.76643564083E+03  0.76643564083E+03  0.00000000000E+00 0. -1.
         23    2    1    2    0    0  0.61223809337E+03 -0.81305965426E+03  0.68162929211E+03  0.12282732402E+04  0.90195212705E+02 0.  0.
         11    1    3    3    0    0  0.29289750883E+03 -0.35488802031E+03  0.26011469913E+03  0.52857744404E+03  0.00000000000E+00 0. -1.
        -11    1    3    3    0    0  0.31934058453E+03 -0.45817163395E+03  0.42151459298E+03  0.69969579617E+03  0.00000000000E+00 0.  1.
         22    1    1    2    0    0 -0.61223809337E+03  0.81305965426E+03  0.32070258404E+02  0.10182975920E+04  0.00000000000E+00 0. -1.
<mgrwt>
<rscale>  0 0.21301909E+04</rscale>
<asrwt>0</asrwt>
<pdfrwt beam="1">  1        2 0.11791318E+00 0.21301909E+04</pdfrwt>
<pdfrwt beam="2">  1       -2 0.22771311E+00 0.21301909E+04</pdfrwt>
<totfact> 0.29601696E+00</totfact>
</mgrwt>
</event>
<event>
 6    1  0.9906445E-006  0.1095139E+04  0.7818608E-02  0.9209942E-01
         -1   -1    0    0    0  501 -0.00000000000E+00  0.00000000000E+00  0.81943459800E+03  0.81943459800E+03  0.00000000000E+00 0. -1.
          1   -1    0    0  501    0  0.00000000000E+00 -0.00000000000E+00 -0.36590165566E+03  0.36590165566E+03  0.00000000000E+00 0.  1.
         23    2    1    2    0    0 -0.24203178473E+03 -0.14091916723E+03  0.73110257864E+03  0.79102356111E+03  0.11300308505E+03 0.  0.
         11    1    3    3    0    0 -0.68946895065E+02 -0.10412115671E+03  0.31572785564E+03  0.33952756655E+03  0.00000000000E+00 0. -1.
        -11    1    3    3    0    0 -0.17308488966E+03 -0.36798010522E+02  0.41537472299E+03  0.45149599457E+03  0.00000000000E+00 0.  1.
         22    1    1    2    0    0  0.24203178473E+03  0.14091916723E+03 -0.27756963630E+03  0.39431269255E+03  0.00000000000E+00 0.  1.
<mgrwt>
<rscale>  0 0.10951392E+04</rscale>
<asrwt>0</asrwt>
<pdfrwt beam="1">  1        1 0.56292562E-01 0.10951392E+04</pdfrwt>
<pdfrwt beam="2">  1       -1 0.12606686E+00 0.10951392E+04</pdfrwt>
<totfact> 0.36895154E+01</totfact>
</mgrwt>
</event>
<event>
 6    1  0.9906445E-006  0.2844254E+04  0.7818608E-02  0.8289659E-01
         -2   -1    0    0    0  501 -0.00000000000E+00  0.00000000000E+00  0.66381003509E+03  0.66381003509E+03  0.00000000000E+00 0.  1.
          2   -1    0    0  501    0  0.00000000000E+00 -0.00000000000E+00 -0.30467226210E+04  0.30467226210E+04  0.00000000000E+00 0. -1.
         23    2    1    2    0    0 -0.74428085751E+03 -0.26340629347E+03 -0.27335122875E+04  0.28466709652E+04  0.90051582836E+02 0.  0.
         13    1    3    3    0    0 -0.44964728998E+03 -0.11384650586E+03 -0.16395337139E+04  0.17038821882E+04  0.00000000000E+00 0. -1.
        -13    1    3    3    0    0 -0.29463356754E+03 -0.14955978762E+03 -0.10939785736E+04  0.11427887769E+04  0.00000000000E+00 0.  1.
         22    1    1    2    0    0  0.74428085751E+03  0.26340629347E+03  0.35059970160E+03  0.86386169093E+03  0.00000000000E+00 0.  1.
<mgrwt>
<rscale>  0 0.28442539E+04</rscale>
<asrwt>0</asrwt>
<pdfrwt beam="1">  1        2 0.46872656E+00 0.28442539E+04</pdfrwt>
<pdfrwt beam="2">  1       -2 0.10212462E+00 0.28442539E+04</pdfrwt>
<totfact> 0.11077567E+00</totfact>
</mgrwt>
</event>
<event>
 6    1  0.9906445E-006  0.3697479E+04  0.7818608E-02  0.8068521E-01
          1   -1    0    0  501    0  0.00000000000E+00  0.00000000000E+00  0.22785423815E+04  0.22785423815E+04  0.00000000000E+00 0. -1.
         -1   -1    0    0    0  501 -0.00000000000E+00 -0.00000000000E+00 -0.15000105272E+04  0.15000105272E+04  0.00000000000E+00 0.  1.
         23    2    1    2    0    0  0.30045426044E+03 -0.40341530013E+03 -0.14273724650E+04  0.15160254429E+04  0.89018664170E+02 0.  0.
         11    1    3    3    0    0  0.61866040507E+01  0.46287546126E+01 -0.20286035103E+02  0.21707663604E+02  0.00000000000E+00 0. -1.
        -11    1    3    3    0    0  0.29426765639E+03 -0.40804405475E+03 -0.14070864299E+04  0.14943177793E+04  0.00000000000E+00 0.  1.
         22    1    1    2    0    0 -0.30045426044E+03  0.40341530013E+03  0.22059043194E+04  0.22625274658E+04  0.00000000000E+00 0. -1.
<mgrwt>
<rscale>  0 0.36974789E+04</rscale>
<asrwt>0</asrwt>
<pdfrwt beam="1">  1        1 0.35054498E+00 0.36974789E+04</pdfrwt>
<pdfrwt beam="2">  1       -1 0.23077085E+00 0.36974789E+04</pdfrwt>
<totfact> 0.14413596E-01</totfact>
</mgrwt>
</event>
<event>
 6    1  0.9906445E-006  0.2428654E+04  0.7818608E-02  0.8428853E-01
          2   -1    0    0  501    0  0.00000000000E+00  0.00000000000E+00  0.11951465879E+04  0.11951465879E+04  0.00000000000E+00 0. -1.
         -2   -1    0    0    0  501 -0.00000000000E+00 -0.00000000000E+00 -0.12338147339E+04  0.12338147339E+04  0.00000000000E+00 0.  1.
         23    2    1    2    0    0 -0.22261048084E+03 -0.10827987405E+04 -0.51788002500E+03  0.12241158697E+04  0.90837237396E+02 0.  0.
         13    1    3    3    0    0 -0.14492221950E+03 -0.48876072553E+03 -0.25182251857E+03  0.56859834452E+03  0.00000000000E+00 0. -1.
        -13    1    3    3    0    0 -0.77688261346E+02 -0.59403801492E+03 -0.26605750643E+03  0.65551752520E+03  0.00000000000E+00 0.  1.
         22    1    1    2    0    0  0.22261048084E+03  0.10827987405E+04  0.47921187894E+03  0.12048454521E+04  0.00000000000E+00 0.  1.
<mgrwt>
<rscale>  0 0.24286535E+04</rscale>
<asrwt>0</asrwt>
<pdfrwt beam="1">  1        2 0.18386870E+00 0.24286535E+04</pdfrwt>
<pdfrwt beam="2">  1       -2 0.18981765E+00 0.24286535E+04</pdfrwt>
<totfact> 0.26589294E+00</totfact>
</mgrwt>
</event>
<event>
 6    1  0.9906445E-006  0.2221787E+04  0.7818608E-02  0.8509414E-01
         -3   -1    0    0    0  501 -0.00000000000E+00  0.00000000000E+00  0.88077475459E+03  0.88077475459E+03  0.00000000000E+00 0.  1.
          3   -1    0    0  501    0  0.00000000000E+00 -0.00000000000E+00 -0.14011355792E+04  0.14011355792E+04  0.00000000000E+00 0. -1.
         23    2    1    2    0    0 -0.31468205365E+03 -0.98368439752E+02 -0.13480624470E+04  0.13909607727E+04  0.93799602257E+02 0.  0.
         13    1    3    3    0    0 -0.18554163192E+03 -0.10360102961E+03 -0.88950530999E+03  0.91453735135E+03  0.00000000000E+00 0. -1.
        -13    1    3    3    0    0 -0.12914042172E+03  0.52325898561E+01 -0.45855713699E+03  0.47642342134E+03  0.00000000000E+00 0.  1.
         22    1    1    2    0    0  0.31468205365E+03  0.98368439752E+02  0.82770162235E+03  0.89094956113E+03  0.00000000000E+00 0.  1.
<mgrwt>
<rscale>  0 0.22217874E+04</rscale>
<asrwt>0</asrwt>
<pdfrwt beam="1">  1        3 0.21555932E+00 0.22217874E+04</pdfrwt>
<pdfrwt beam="2">  1       -3 0.13550381E+00 0.22217874E+04</pdfrwt>
<totfact> 0.11753340E-01</totfact>
</mgrwt>
</event>
<event>
 6    1  0.9906445E-006  0.3970234E+04  0.7818608E-02  0.8010578E-01
          2   -1    0    0  501    0  0.00000000000E+00  0.00000000000E+00  0.92939405197E+03  0.92939405197E+03  0.00000000000E+00 0. -1.
         -2   -1    0    0    0  501 -0.00000000000E+00 -0.00000000000E+00 -0.42400635187E+04  0.42400635187E+04  0.00000000000E+00 0.  1.
         23    2    1    2    0    0  0.10107135147E+04  0.37221509275E+03  0.51333717808E+03  0.11966609860E+04  0.91632815504E+02 0.  0.
         11    1    3    3    0    0  0.21164729053E+03  0.11714607541E+03  0.10382510380E+03  0.26324405170E+03  0.00000000000E+00 0. -1.
        -11    1    3    3    0    0  0.79906622416E+03  0.25506901734E+03  0.40951207427E+03  0.93341693426E+03  0.00000000000E+00 0.  1.
         22    1    1    2    0    0 -0.10107135147E+04 -0.37221509275E+03 -0.38240066448E+04  0.39727965847E+04  0.00000000000E+00 0.  1.
<mgrwt>
<rscale>  0 0.39702342E+04</rscale>
<asrwt>0</asrwt>
<pdfrwt beam="1">  1        2 0.14298370E+00 0.39702342E+04</pdfrwt>
<pdfrwt beam="2">  1       -2 0.65231746E+00 0.39702342E+04</pdfrwt>
<totfact> 0.73005946E-03</totfact>
</mgrwt>
</event>
<event>
 6    1  0.9906445E-006  0.2007763E+03  0.7818608E-02  0.1149086E+00
          2   -1    0    0  501    0  0.00000000000E+00  0.00000000000E+00  0.25589014236E+04  0.25589014236E+04  0.00000000000E+00 0. -1.
         -2   -1    0    0    0  501 -0.00000000000E+00 -0.00000000000E+00 -0.39383245493E+01  0.39383245493E+01  0.00000000000E+00 0.  1.
         23    2    1    2    0    0  0.19315591464E+02 -0.56395494666E+02  0.22180184626E+04  0.22206625544E+04  0.90458477595E+02 0.  0.
         13    1    3    3    0    0 -0.20164960200E+02 -0.41857924713E+02  0.50636470952E+03  0.50849181953E+03  0.00000000000E+00 0.  1.
        -13    1    3    3    0    0  0.39480551664E+02 -0.14537569952E+02  0.17116537530E+04  0.17121707348E+04  0.00000000000E+00 0. -1.
         22    1    1    2    0    0 -0.19315591464E+02  0.56395494666E+02  0.33694463646E+03  0.34217719376E+03  0.00000000000E+00 0. -1.
<mgrwt>
<rscale>  0 0.20077634E+03</rscale>
<asrwt>0</asrwt>
<pdfrwt beam="1">  1        2 0.39367581E+00 0.20077634E+03</pdfrwt>
<pdfrwt beam="2">  1       -2 0.60589813E-03 0.20077634E+03</pdfrwt>
<totfact> 0.16290914E+04</totfact>
</mgrwt>
</event>
<event>
 6    1  0.9906445E-006  0.3257097E+04  0.7818608E-02  0.8173899E-01
         -1   -1    0    0    0  501 -0.00000000000E+00  0.00000000000E+00  0.14437058306E+04  0.14437058306E+04  0.00000000000E+00 0.  1.
          1   -1    0    0  501    0  0.00000000000E+00 -0.00000000000E+00 -0.18370571418E+04  0.18370571418E+04  0.00000000000E+00 0. -1.
         23    2    1    2    0    0 -0.65241642253E+03  0.85118404186E+01  0.13047074709E+04  0.14616633964E+04  0.92079639546E+02 0.  0.
         11    1    3    3    0    0 -0.44019426641E+03  0.25797882363E-01  0.78072241458E+03  0.89626920145E+03  0.00000000000E+00 0. -1.
        -11    1    3    3    0    0 -0.21222215613E+03  0.84860425363E+01  0.52398505629E+03  0.56539419495E+03  0.00000000000E+00 0.  1.
         22    1    1    2    0    0  0.65241642253E+03 -0.85118404186E+01 -0.16980587821E+04  0.18190995760E+04  0.00000000000E+00 0. -1.
<mgrwt>
<rscale>  0 0.32570969E+04</rscale>
<asrwt>0</asrwt>
<pdfrwt beam="1">  1        1 0.28262418E+00 0.32570969E+04</pdfrwt>
<pdfrwt beam="2">  1       -1 0.22210859E+00 0.32570969E+04</pdfrwt>
<totfact> 0.34101937E-01</totfact>
</mgrwt>
</event>
<event>
 6    1  0.9906445E-006  0.3346154E+04  0.7818608E-02  0.8151250E-01
         -2   -1    0    0    0  501 -0.00000000000E+00  0.00000000000E+00  0.14155024670E+04  0.14155024670E+04  0.00000000000E+00 0.  1.
          2   -1    0    0  501    0  0.00000000000E+00 -0.00000000000E+00 -0.19775210659E+04  0.19775210659E+04  0.00000000000E+00 0. -1.
         23    2    1    2    0    0 -0.77778043202E+03  0.29731375886E+03 -0.17512808640E+04  0.19412375270E+04  0.89892157511E+02 0.  0.
         11    1    3    3    0    0 -0.48010110416E+03  0.13821408771E+03 -0.10736391626E+04  0.11841880154E+04  0.00000000000E+00 0. -1.
        -11    1    3    3    0    0 -0.29767932785E+03  0.15909967116E+03 -0.67764170134E+03  0.75704951158E+03  0.00000000000E+00 0.  1.
         22    1    1    2    0    0  0.77778043202E+03 -0.29731375886E+03  0.11892622651E+04  0.14517860059E+04  0.00000000000E+00 0.  1.
<mgrwt>
<rscale>  0 0.33461536E+04</rscale>
<asrwt>0</asrwt>
<pdfrwt beam="1">  1        2 0.30423401E+00 0.33461536E+04</pdfrwt>
<pdfrwt beam="2">  1       -2 0.21776961E+00 0.33461536E+04</pdfrwt>
<totfact> 0.58429951E-01</totfact>
</mgrwt>
</event>
<event>
 6    1  0.9906445E-006  0.1627022E+04  0.7818608E-02  0.8804117E-01
         -1   -1    0    0    0  501 -0.00000000000E+00  0.00000000000E+00  0.96726446096E+03  0.96726446096E+03  0.00000000000E+00 0.  1.
          1   -1    0    0  501    0  0.00000000000E+00 -0.00000000000E+00 -0.68419735345E+03  0.68419735345E+03  0.00000000000E+00 0. -1.
         23    2    1    2    0    0 -0.37359431351E+03  0.10668683394E+03 -0.58079248303E+03  0.70425107557E+03  0.87720450771E+02 0.  0.
         11    1    3    3    0    0 -0.23631504172E+03  0.87179383900E+02 -0.43768086224E+03  0.50498473352E+03  0.00000000000E+00 0. -1.
        -11    1    3    3    0    0 -0.13727927179E+03  0.19507450040E+02 -0.14311162079E+03  0.19926634205E+03  0.00000000000E+00 0.  1.
         22    1    1    2    0    0  0.37359431351E+03 -0.10668683394E+03  0.86385959053E+03  0.94721073884E+03  0.00000000000E+00 0.  1.
<mgrwt>
<rscale>  0 0.16270216E+04</rscale>
<asrwt>0</asrwt>
<pdfrwt beam="1">  1        1 0.10526113E+00 0.16270216E+04</pdfrwt>
<pdfrwt beam="2">  1       -1 0.14880992E+00 0.16270216E+04</pdfrwt>
<totfact> 0.96266594E+00</totfact>
</mgrwt>
</event>
<event>
 6    1  0.9906445E-006  0.1592581E+04  0.7818608E-02  0.8825119E-01
         -1   -1    0    0    0  501 -0.00000000000E+00  0.00000000000E+00  0.17588642034E+03  0.17588642034E+03  0.00000000000E+00 0.  1.
          1   -1    0    0  501    0  0.00000000000E+00 -0.00000000000E+00 -0.36050461863E+04  0.36050461863E+04  0.00000000000E+00 0. -1.
         23    2    1    2    0    0  0.27229940783E+03  0.66304973722E+03 -0.25295015139E+04  0.26306426901E+04  0.90117327721E+02 0.  0.
         11    1    3    3    0    0  0.34800770909E+02  0.11171685892E+03 -0.54064627974E+03  0.55316376420E+03  0.00000000000E+00 0. -1.
        -11    1    3    3    0    0  0.23749863692E+03  0.55133287831E+03 -0.19888552341E+04  0.20774789259E+04  0.00000000000E+00 0.  1.
         22    1    1    2    0    0 -0.27229940783E+03 -0.66304973722E+03 -0.89965825202E+03  0.11502899165E+04  0.00000000000E+00 0. -1.
<mgrwt>
<rscale>  0 0.15925811E+04</rscale>
<asrwt>0</asrwt>
<pdfrwt beam="1">  1        1 0.55462251E+00 0.15925811E+04</pdfrwt>
<pdfrwt beam="2">  1       -1 0.27059448E-01 0.15925811E+04</pdfrwt>
<totfact> 0.24444238E+00</totfact>
</mgrwt>
</event>
<event>
 6    1  0.9906445E-006  0.5537169E+04  0.7818608E-02  0.7750595E-01
          2   -1    0    0  501    0  0.00000000000E+00  0.00000000000E+00  0.37419228952E+04  0.37419228952E+04  0.00000000000E+00 0. -1.
         -2   -1    0    0    0  501 -0.00000000000E+00 -0.00000000000E+00 -0.20484278179E+04  0.20484278179E+04  0.00000000000E+00 0.  1.
         23    2    1    2    0    0  0.82444670450E+03  0.22728462823E+04 -0.56195332440E+03  0.24839039671E+04  0.91895524052E+02 0.  0.
         11    1    3    3    0    0  0.28287814427E+03  0.66047063477E+03 -0.17745230642E+03  0.74008838996E+03  0.00000000000E+00 0. -1.
        -11    1    3    3    0    0  0.54156856023E+03  0.16123756475E+04 -0.38450101798E+03  0.17438155771E+04  0.00000000000E+00 0.  1.
         22    1    1    2    0    0 -0.82444670450E+03 -0.22728462823E+04  0.22554484016E+04  0.33064467460E+04  0.00000000000E+00 0. -1.
<mgrwt>
<rscale>  0 0.55371686E+04</rscale>
<asrwt>0</asrwt>
<pdfrwt beam="1">  1        2 0.57568045E+00 0.55371686E+04</pdfrwt>
<pdfrwt beam="2">  1       -2 0.31514274E+00 0.55371686E+04</pdfrwt>
<totfact> 0.96925764E-03</totfact>
</mgrwt>
</event>
<event>
 6    1  0.9906445E-006  0.3175479E+04  0.7818608E-02  0.8195323E-01
         -1   -1    0    0    0  501 -0.00000000000E+00  0.00000000000E+00  0.18629396928E+04  0.18629396928E+04  0.00000000000E+00 0.  1.
          1   -1    0    0  501    0  0.00000000000E+00 -0.00000000000E+00 -0.13531926768E+04  0.13531926768E+04  0.00000000000E+00 0. -1.
         23    2    1    2    0    0 -0.58446874269E+03 -0.90333771964E+03  0.14358815498E+04  0.17965028680E+04  0.89688253365E+02 0.  0.
         11    1    3    3    0    0 -0.23488169077E+03 -0.43159792672E+03  0.61330158176E+03  0.78586577047E+03  0.00000000000E+00 0.  1.
        -11    1    3    3    0    0 -0.34958705192E+03 -0.47173979292E+03  0.82257996804E+03  0.10106370975E+04  0.00000000000E+00 0. -1.
         22    1    1    2    0    0  0.58446874269E+03  0.90333771964E+03 -0.92613453384E+03  0.14196295016E+04  0.00000000000E+00 0. -1.
<mgrwt>
<rscale>  0 0.31754788E+04</rscale>
<asrwt>0</asrwt>
<pdfrwt beam="1">  1        1 0.20818349E+00 0.31754788E+04</pdfrwt>
<pdfrwt beam="2">  1       -1 0.28660611E+00 0.31754788E+04</pdfrwt>
<totfact> 0.28029728E-01</totfact>
</mgrwt>
</event>
<event>
 6    1  0.9906445E-006  0.2122084E+04  0.7818608E-02  0.8551577E-01
         -2   -1    0    0    0  501 -0.00000000000E+00  0.00000000000E+00  0.96549349331E+03  0.96549349331E+03  0.00000000000E+00 0. -1.
          2   -1    0    0  501    0  0.00000000000E+00 -0.00000000000E+00 -0.11660459109E+04  0.11660459109E+04  0.00000000000E+00 0.  1.
         23    2    1    2    0    0 -0.85150966250E+03 -0.41809217107E+03  0.37254866094E+03  0.10232458443E+04  0.91486524714E+02 0.  0.
         11    1    3    3    0    0 -0.20103971008E+03 -0.66392799302E+02  0.10974747459E+03  0.23847322073E+03  0.00000000000E+00 0.  1.
        -11    1    3    3    0    0 -0.65046995242E+03 -0.35169937177E+03  0.26280118635E+03  0.78477262354E+03  0.00000000000E+00 0. -1.
         22    1    1    2    0    0  0.85150966250E+03  0.41809217107E+03 -0.57310107856E+03  0.11082935600E+04  0.00000000000E+00 0.  1.
<mgrwt>
<rscale>  0 0.21220836E+04</rscale>
<asrwt>0</asrwt>
<pdfrwt beam="1">  1        2 0.17939168E+00 0.21220836E+04</pdfrwt>
<pdfrwt beam="2">  1       -2 0.14853746E+00 0.21220836E+04</pdfrwt>
<totfact> 0.56160414E+00</totfact>
</mgrwt>
</event>
<event>
 6    1  0.9906445E-006  0.7661924E+03  0.7818608E-02  0.9610284E-01
          1   -1    0    0  501    0  0.00000000000E+00  0.00000000000E+00  0.11635480653E+03  0.11635480653E+03  0.00000000000E+00 0. -1.
         -1   -1    0    0    0  501 -0.00000000000E+00 -0.00000000000E+00 -0.12613376199E+04  0.12613376199E+04  0.00000000000E+00 0.  1.
         23    2    1    2    0    0 -0.22270933178E+02  0.29341224150E+03 -0.15646024535E+03  0.34630326351E+03  0.94124407123E+02 0.  0.
         11    1    3    3    0    0 -0.47782808687E+02  0.16684224602E+03 -0.12362189419E+03  0.21307722681E+03  0.00000000000E+00 0.  1.
        -11    1    3    3    0    0  0.25511875508E+02  0.12656999548E+03 -0.32838351167E+02  0.13322603670E+03  0.00000000000E+00 0. -1.
         22    1    1    2    0    0  0.22270933178E+02 -0.29341224150E+03 -0.98852256805E+03  0.10313891630E+04  0.00000000000E+00 0.  1.
<mgrwt>
<rscale>  0 0.76619239E+03</rscale>
<asrwt>0</asrwt>
<pdfrwt beam="1">  1        1 0.17900740E-01 0.76619239E+03</pdfrwt>
<pdfrwt beam="2">  1       -1 0.19405194E+00 0.76619239E+03</pdfrwt>
<totfact> 0.51387559E+01</totfact>
</mgrwt>
</event>
<event>
 6    1  0.9906445E-006  0.3117640E+04  0.7818608E-02  0.8210913E-01
          2   -1    0    0  501    0  0.00000000000E+00  0.00000000000E+00  0.19931889795E+04  0.19931889795E+04  0.00000000000E+00 0.  1.
         -2   -1    0    0    0  501 -0.00000000000E+00 -0.00000000000E+00 -0.12191117504E+04  0.12191117504E+04  0.00000000000E+00 0. -1.
         23    2    1    2    0    0  0.29864913019E+03  0.58009991531E+03 -0.10698230359E+04  0.12563673462E+04  0.90721363264E+02 0.  0.
         11    1    3    3    0    0  0.28754579419E+03  0.51540983152E+03 -0.99465280958E+03  0.11565742906E+04  0.00000000000E+00 0. -1.
        -11    1    3    3    0    0  0.11103335995E+02  0.64690083789E+02 -0.75170226303E+02  0.99793055537E+02  0.00000000000E+00 0.  1.
         22    1    1    2    0    0 -0.29864913019E+03 -0.58009991531E+03  0.18439002649E+04  0.19559333838E+04  0.00000000000E+00 0.  1.
<mgrwt>
<rscale>  0 0.31176402E+04</rscale>
<asrwt>0</asrwt>
<pdfrwt beam="1">  1        2 0.30664446E+00 0.31176402E+04</pdfrwt>
<pdfrwt beam="2">  1       -2 0.18755565E+00 0.31176402E+04</pdfrwt>
<totfact> 0.91997184E-01</totfact>
</mgrwt>
</event>
<event>
 6    1  0.9906445E-006  0.1202962E+04  0.7818608E-02  0.9110268E-01
          1   -1    0    0  501    0  0.00000000000E+00  0.00000000000E+00  0.21670643024E+04  0.21670643024E+04  0.00000000000E+00 0. -1.
         -1   -1    0    0    0  501 -0.00000000000E+00 -0.00000000000E+00 -0.16694438787E+03  0.16694438787E+03  0.00000000000E+00 0.  1.
         23    2    1    2    0    0 -0.29686946127E+01 -0.35159864746E+03  0.79596195053E+02  0.38156361316E+03  0.12499925831E+03 0.  0.
         11    1    3    3    0    0 -0.21264218014E+02 -0.25686311814E+03  0.11024068535E+03  0.28032808838E+03  0.00000000000E+00 0.  1.
        -11    1    3    3    0    0  0.18295523401E+02 -0.94735529316E+02 -0.30644490296E+02  0.10123552478E+03  0.00000000000E+00 0. -1.
         22    1    1    2    0    0  0.29686946127E+01  0.35159864746E+03  0.19205237195E+04  0.19524450772E+04  0.00000000000E+00 0. -1.
<mgrwt>
<rscale>  0 0.12029617E+04</rscale>
<asrwt>0</asrwt>
<pdfrwt beam="1">  1        1 0.33339449E+00 0.12029617E+04</pdfrwt>
<pdfrwt beam="2">  1       -1 0.25683753E-01 0.12029617E+04</pdfrwt>
<totfact> 0.30449218E+01</totfact>
</mgrwt>
</event>
<event>
 6    1  0.9906445E-006  0.3000157E+04  0.7818608E-02  0.8243686E-01
          2   -1    0    0  501    0  0.00000000000E+00  0.00000000000E+00  0.23211239868E+04  0.23211239868E+04  0.00000000000E+00 0. -1.
         -2   -1    0    0    0  501 -0.00000000000E+00 -0.00000000000E+00 -0.96945970545E+03  0.96945970545E+03  0.00000000000E+00 0.  1.
         23    2    1    2    0    0 -0.14029034586E+04  0.17595638472E+03  0.13008377818E+03  0.14220661812E+04  0.79067508172E+02 0.  0.
         11    1    3    3    0    0 -0.59273887341E+03  0.72076301004E+02  0.94121521635E+02  0.60447764728E+03  0.00000000000E+00 0. -1.
        -11    1    3    3    0    0 -0.81016458518E+03  0.10388008371E+03  0.35962256550E+02  0.81758853390E+03  0.00000000000E+00 0.  1.
         22    1    1    2    0    0  0.14029034586E+04 -0.17595638472E+03  0.12215805032E+04  0.18685175111E+04  0.00000000000E+00 0. -1.
<mgrwt>
<rscale>  0 0.30001574E+04</rscale>
<asrwt>0</asrwt>
<pdfrwt beam="1">  1        2 0.35709600E+00 0.30001574E+04</pdfrwt>
<pdfrwt beam="2">  1       -2 0.14914765E+00 0.30001574E+04</pdfrwt>
<totfact> 0.11481677E+00</totfact>
</mgrwt>
</event>
<event>
 6    1  0.9906445E-006  0.5386153E+03  0.7818608E-02  0.1004164E+00
         -1   -1    0    0    0  501 -0.00000000000E+00  0.00000000000E+00  0.18326947516E+03  0.18326947516E+03  0.00000000000E+00 0.  1.
          1   -1    0    0  501    0  0.00000000000E+00 -0.00000000000E+00 -0.39573748505E+03  0.39573748505E+03  0.00000000000E+00 0. -1.
         23    2    1    2    0    0 -0.19023735645E+03 -0.74835116012E+02  0.65907724948E+02  0.23363238656E+03  0.91922344745E+02 0.  0.
         13    1    3    3    0    0 -0.14357447740E+03 -0.12802390970E+02  0.58827238891E+02  0.15568614521E+03  0.00000000000E+00 0.  1.
        -13    1    3    3    0    0 -0.46662879050E+02 -0.62032725041E+02  0.70804860576E+01  0.77946241347E+02  0.00000000000E+00 0. -1.
         22    1    1    2    0    0  0.19023735645E+03  0.74835116012E+02 -0.27837573484E+03  0.34537457365E+03  0.00000000000E+00 0. -1.
<mgrwt>
<rscale>  0 0.53861527E+03</rscale>
<asrwt>0</asrwt>
<pdfrwt beam="1">  1        1 0.60882690E-01 0.53861527E+03</pdfrwt>
<pdfrwt beam="2">  1       -1 0.28195304E-01 0.53861527E+03</pdfrwt>
<totfact> 0.69744623E+02</totfact>
</mgrwt>
</event>
<event>
 6    1  0.9906445E-006  0.2643369E+04  0.7818608E-02  0.8353617E-01
         -2   -1    0    0    0  501 -0.00000000000E+00  0.00000000000E+00  0.52440798788E+03  0.52440798788E+03  0.00000000000E+00 0.  1.
          2   -1    0    0  501    0  0.00000000000E+00 -0.00000000000E+00 -0.33310896994E+04  0.33310896994E+04  0.00000000000E+00 0. -1.
         23    2    1    2    0    0  0.98072933808E+02 -0.12998852498E+04 -0.11004035404E+04  0.17082424252E+04  0.88793403783E+02 0.  0.
         11    1    3    3    0    0  0.51804508740E+01 -0.45459644336E+03 -0.42398549230E+03  0.62164978973E+03  0.00000000000E+00 0.  1.
        -11    1    3    3    0    0  0.92892482934E+02 -0.84528880647E+03 -0.67641804805E+03  0.10865926355E+04  0.00000000000E+00 0. -1.
         22    1    1    2    0    0 -0.98072933808E+02  0.12998852498E+04 -0.17062781711E+04  0.21472552621E+04  0.00000000000E+00 0. -1.
<mgrwt>
<rscale>  0 0.26433691E+04</rscale>
<asrwt>0</asrwt>
<pdfrwt beam="1">  1        2 0.51247534E+00 0.26433691E+04</pdfrwt>
<pdfrwt beam="2">  1       -2 0.80678152E-01 0.26433691E+04</pdfrwt>
<totfact> 0.12693616E+00</totfact>
</mgrwt>
</event>
<event>
 6    1  0.9906445E-006  0.6440236E+04  0.7818608E-02  0.7638092E-01
          1   -1    0    0  501    0  0.00000000000E+00  0.00000000000E+00  0.31327838081E+04  0.31327838081E+04  0.00000000000E+00 0. -1.
         -1   -1    0    0    0  501 -0.00000000000E+00 -0.00000000000E+00 -0.33098865705E+04  0.33098865705E+04  0.00000000000E+00 0.  1.
         23    2    1    2    0    0 -0.11328397652E+04  0.61025168111E+03  0.28637263898E+04  0.31407959139E+04  0.89090345491E+02 0.  0.
         11    1    3    3    0    0 -0.85887474293E+03  0.47927487279E+03  0.22700928990E+04  0.24740032332E+04  0.00000000000E+00 0. -1.
        -11    1    3    3    0    0 -0.27396502226E+03  0.13097680832E+03  0.59363349074E+03  0.66679268072E+03  0.00000000000E+00 0.  1.
         22    1    1    2    0    0  0.11328397652E+04 -0.61025168111E+03 -0.30408291522E+04  0.33018744647E+04  0.00000000000E+00 0.  1.
<mgrwt>
<rscale>  0 0.64402357E+04</rscale>
<asrwt>0</asrwt>
<pdfrwt beam="1">  1        1 0.48196674E+00 0.64402357E+04</pdfrwt>
<pdfrwt beam="2">  1       -1 0.50921332E+00 0.64402357E+04</pdfrwt>
<totfact> 0.40647877E-04</totfact>
</mgrwt>
</event>
<event>
 6    1  0.9906445E-006  0.1706406E+04  0.7818608E-02  0.8757719E-01
         -2   -1    0    0    0  501 -0.00000000000E+00  0.00000000000E+00  0.13038982101E+04  0.13038982101E+04  0.00000000000E+00 0.  1.
          2   -1    0    0  501    0  0.00000000000E+00 -0.00000000000E+00 -0.55829167765E+03  0.55829167765E+03  0.00000000000E+00 0. -1.
         23    2    1    2    0    0 -0.63022454480E+02  0.35789029298E+03  0.12135486187E+04  0.12697144978E+04  0.86124122890E+02 0.  0.
         13    1    3    3    0    0 -0.18010880157E+02  0.28981400123E+03  0.89781680749E+03  0.94360562044E+03  0.00000000000E+00 0.  1.
        -13    1    3    3    0    0 -0.45011574323E+02  0.68076291748E+02  0.31573181117E+03  0.32610887738E+03  0.00000000000E+00 0. -1.
         22    1    1    2    0    0  0.63022454480E+02 -0.35789029298E+03 -0.46794208623E+03  0.59247538991E+03  0.00000000000E+00 0. -1.
<mgrwt>
<rscale>  0 0.17064062E+04</rscale>
<asrwt>0</asrwt>
<pdfrwt beam="1">  1        2 0.85891028E-01 0.17064062E+04</pdfrwt>
<pdfrwt beam="2">  1       -2 0.20059972E+00 0.17064062E+04</pdfrwt>
<totfact> 0.67729086E+00</totfact>
</mgrwt>
</event>
<event>
 6    1  0.9906445E-006  0.2154339E+04  0.7818608E-02  0.8537677E-01
         -1   -1    0    0    0  501 -0.00000000000E+00  0.00000000000E+00  0.94892880928E+03  0.94892880928E+03  0.00000000000E+00 0.  1.
          1   -1    0    0  501    0  0.00000000000E+00 -0.00000000000E+00 -0.12227411089E+04  0.12227411089E+04  0.00000000000E+00 0. -1.
         23    2    1    2    0    0  0.22959983403E+03 -0.10108958624E+04 -0.42481184515E+03  0.11240882310E+04  0.92101677092E+02 0.  0.
         13    1    3    3    0    0  0.75020377571E+02 -0.28122331297E+03 -0.76753821170E+02  0.30100790334E+03  0.00000000000E+00 0.  1.
        -13    1    3    3    0    0  0.15457945646E+03 -0.72967254947E+03 -0.34805802398E+03  0.82308032771E+03  0.00000000000E+00 0. -1.
         22    1    1    2    0    0 -0.22959983403E+03  0.10108958624E+04  0.15099954553E+03  0.10475816871E+04  0.00000000000E+00 0.  1.
<mgrwt>
<rscale>  0 0.21543391E+04</rscale>
<asrwt>0</asrwt>
<pdfrwt beam="1">  1        1 0.18811402E+00 0.21543391E+04</pdfrwt>
<pdfrwt beam="2">  1       -1 0.14598905E+00 0.21543391E+04</pdfrwt>
<totfact> 0.35327410E+00</totfact>
</mgrwt>
</event>
<event>
 6    1  0.9906445E-006  0.3081108E+04  0.7818608E-02  0.8220942E-01
          2   -1    0    0  501    0  0.00000000000E+00  0.00000000000E+00  0.17598594540E+04  0.17598594540E+04  0.00000000000E+00 0. -1.
         -2   -1    0    0    0  501 -0.00000000000E+00 -0.00000000000E+00 -0.13485775669E+04  0.13485775669E+04  0.00000000000E+00 0.  1.
         23    2    1    2    0    0 -0.83261501772E+03 -0.49577342183E+03 -0.10005697101E+04  0.13960223556E+04  0.93271747622E+02 0.  0.
         11    1    3    3    0    0 -0.43201585151E+03 -0.29970156759E+03 -0.49992116227E+03  0.72552042980E+03  0.00000000000E+00 0. -1.
        -11    1    3    3    0    0 -0.40059916622E+03 -0.19607185425E+03 -0.50064854782E+03  0.67050192575E+03  0.00000000000E+00 0.  1.
         22    1    1    2    0    0  0.83261501772E+03  0.49577342183E+03  0.14118515972E+04  0.17124146653E+04  0.00000000000E+00 0. -1.
<mgrwt>
<rscale>  0 0.30811082E+04</rscale>
<asrwt>0</asrwt>
<pdfrwt beam="1">  1        2 0.27074761E+00 0.30811082E+04</pdfrwt>
<pdfrwt beam="2">  1       -2 0.20747347E+00 0.30811082E+04</pdfrwt>
<totfact> 0.91836966E-01</totfact>
</mgrwt>
</event>
<event>
 6    1  0.9906445E-006  0.2770345E+04  0.7818608E-02  0.8312535E-01
          2   -1    0    0  501    0  0.00000000000E+00  0.00000000000E+00  0.11077681487E+04  0.11077681487E+04  0.00000000000E+00 0. -1.
         -2   -1    0    0    0  501 -0.00000000000E+00 -0.00000000000E+00 -0.17320434648E+04  0.17320434648E+04  0.00000000000E+00 0.  1.
         23    2    1    2    0    0 -0.42905571444E+03 -0.11916253839E+04 -0.88151026448E+03  0.15474379522E+04  0.11594829778E+03 0.  0.
         11    1    3    3    0    0 -0.52114211531E+02 -0.24836407969E+03 -0.21396970207E+03  0.33193921209E+03  0.00000000000E+00 0. -1.
        -11    1    3    3    0    0 -0.37694150290E+03 -0.94326130425E+03 -0.66754056241E+03  0.12154987401E+04  0.00000000000E+00 0.  1.
         22    1    1    2    0    0  0.42905571444E+03  0.11916253839E+04  0.25723494840E+03  0.12923736613E+04  0.00000000000E+00 0. -1.
<mgrwt>
<rscale>  0 0.27703448E+04</rscale>
<asrwt>0</asrwt>
<pdfrwt beam="1">  1        2 0.17042587E+00 0.27703448E+04</pdfrwt>
<pdfrwt beam="2">  1       -2 0.26646822E+00 0.27703448E+04</pdfrwt>
<totfact> 0.95730714E-01</totfact>
</mgrwt>
</event>
<event>
 6    1  0.1489285E-005  0.3455404E+04  0.7818608E-02  0.8124441E-01
          1   -1    0    0  501    0  0.00000000000E+00  0.00000000000E+00  0.13635245777E+04  0.13635245777E+04  0.00000000000E+00 0. -1.
         -1   -1    0    0    0  501 -0.00000000000E+00 -0.00000000000E+00 -0.21891464489E+04  0.21891464489E+04  0.00000000000E+00 0.  1.
         23    2    1    2    0    0  0.95558085764E+03 -0.60707475900E+03 -0.17532638464E+04  0.20890473821E+04  0.92251347103E+02 0.  0.
         13    1    3    3    0    0  0.49335835532E+03 -0.33665921708E+03 -0.10008188380E+04  0.11654957064E+04  0.00000000000E+00 0.  1.
        -13    1    3    3    0    0  0.46222250232E+03 -0.27041554192E+03 -0.75244500846E+03  0.92355167572E+03  0.00000000000E+00 0. -1.
         22    1    1    2    0    0 -0.95558085764E+03  0.60707475900E+03  0.92764197518E+03  0.14636236445E+04  0.00000000000E+00 0. -1.
<mgrwt>
<rscale>  0 0.34554045E+04</rscale>
<asrwt>0</asrwt>
<pdfrwt beam="1">  1        1 0.20977301E+00 0.34554045E+04</pdfrwt>
<pdfrwt beam="2">  1       -1 0.33679176E+00 0.34554045E+04</pdfrwt>
<totfact> 0.12676037E-01</totfact>
</mgrwt>
</event>
<event>
 6    1  0.9906445E-006  0.1014025E+04  0.7818608E-02  0.9293295E-01
         -2   -1    0    0    0  501 -0.00000000000E+00  0.00000000000E+00  0.25064952435E+03  0.25064952435E+03  0.00000000000E+00 0.  1.
          2   -1    0    0  501    0  0.00000000000E+00 -0.00000000000E+00 -0.10255822382E+04  0.10255822382E+04  0.00000000000E+00 0. -1.
         23    2    1    2    0    0 -0.32443849171E+03  0.33165333038E+03 -0.14760964741E+03  0.49598276631E+03  0.94636303900E+02 0.  0.
         11    1    3    3    0    0 -0.93449158841E+02  0.13307971966E+03 -0.13547685571E+02  0.16317627541E+03  0.00000000000E+00 0. -1.
        -11    1    3    3    0    0 -0.23098933287E+03  0.19857361072E+03 -0.13406196184E+03  0.33280649090E+03  0.00000000000E+00 0.  1.
         22    1    1    2    0    0  0.32443849171E+03 -0.33165333038E+03 -0.62732306643E+03  0.78024899624E+03  0.00000000000E+00 0. -1.
<mgrwt>
<rscale>  0 0.10140250E+04</rscale>
<asrwt>0</asrwt>
<pdfrwt beam="1">  1        2 0.15778188E+00 0.10140250E+04</pdfrwt>
<pdfrwt beam="2">  1       -2 0.38561465E-01 0.10140250E+04</pdfrwt>
<totfact> 0.15359168E+02</totfact>
</mgrwt>
</event>
<event>
 6    1  0.9906445E-006  0.2475064E+04  0.7818608E-02  0.8411923E-01
          2   -1    0    0  501    0  0.00000000000E+00  0.00000000000E+00  0.13800663839E+04  0.13800663839E+04  0.00000000000E+00 0. -1.
         -2   -1    0    0    0  501 -0.00000000000E+00 -0.00000000000E+00 -0.11097188176E+04  0.11097188176E+04  0.00000000000E+00 0.  1.
         23    2    1    2    0    0  0.42934835583E+03  0.11265328035E+04  0.40847932949E+03  0.12763205122E+04  0.93394428144E+02 0.  0.
         11    1    3    3    0    0  0.37588791499E+03  0.91277162242E+03  0.35976952637E+03  0.10506559244E+04  0.00000000000E+00 0.  1.
        -11    1    3    3    0    0  0.53460440834E+02  0.21376118111E+03  0.48709803118E+02  0.22566458783E+03  0.00000000000E+00 0. -1.
         22    1    1    2    0    0 -0.42934835583E+03 -0.11265328035E+04 -0.13813176322E+03  0.12134646893E+04  0.00000000000E+00 0.  1.
<mgrwt>
<rscale>  0 0.24750641E+04</rscale>
<asrwt>0</asrwt>
<pdfrwt beam="1">  1        2 0.21231791E+00 0.24750641E+04</pdfrwt>
<pdfrwt beam="2">  1       -2 0.17072597E+00 0.24750641E+04</pdfrwt>
<totfact> 0.27968290E+00</totfact>
</mgrwt>
</event>
<event>
 6    1  0.9906445E-006  0.3500308E+04  0.7818608E-02  0.8113717E-01
          2   -1    0    0  501    0  0.00000000000E+00  0.00000000000E+00  0.19558170516E+04  0.19558170516E+04  0.00000000000E+00 0. -1.
         -2   -1    0    0    0  501 -0.00000000000E+00 -0.00000000000E+00 -0.15661169478E+04  0.15661169478E+04  0.00000000000E+00 0.  1.
         23    2    1    2    0    0 -0.12749185199E+03 -0.71347546958E+03  0.17964605077E+04  0.19394434774E+04  0.94176580307E+02 0.  0.
         11    1    3    3    0    0 -0.12252577199E+03 -0.42562244892E+03  0.11014994655E+04  0.11872102199E+04  0.00000000000E+00 0.  1.
        -11    1    3    3    0    0 -0.49660799967E+01 -0.28785302066E+03  0.69496104227E+03  0.75223325753E+03  0.00000000000E+00 0. -1.
         22    1    1    2    0    0  0.12749185199E+03  0.71347546958E+03 -0.14067604039E+04  0.15824905219E+04  0.00000000000E+00 0.  1.
<mgrwt>
<rscale>  0 0.35003075E+04</rscale>
<asrwt>0</asrwt>
<pdfrwt beam="1">  1        2 0.30089493E+00 0.35003075E+04</pdfrwt>
<pdfrwt beam="2">  1       -2 0.24094107E+00 0.35003075E+04</pdfrwt>
<totfact> 0.42463370E-01</totfact>
</mgrwt>
</event>
<event>
 6    1  0.9906445E-006  0.2562253E+04  0.7818608E-02  0.8381137E-01
         -1   -1    0    0    0  501 -0.00000000000E+00  0.00000000000E+00  0.87748540244E+03  0.87748540244E+03  0.00000000000E+00 0.  1.
          1   -1    0    0  501    0  0.00000000000E+00 -0.00000000000E+00 -0.18704409720E+04  0.18704409720E+04  0.00000000000E+00 0. -1.
         23    2    1    2    0    0 -0.52097226567E+03  0.10279846748E+04  0.98976605926E+02  0.11603242615E+04  0.91604749479E+02 0.  0.
         11    1    3    3    0    0 -0.34133812574E+03  0.57445064336E+03  0.63590081804E+02  0.67122943636E+03  0.00000000000E+00 0.  1.
        -11    1    3    3    0    0 -0.17963413993E+03  0.45353403142E+03  0.35386524122E+02  0.48909482513E+03  0.00000000000E+00 0. -1.
         22    1    1    2    0    0  0.52097226567E+03 -0.10279846748E+04 -0.10919321755E+04  0.15876021129E+04  0.00000000000E+00 0. -1.
<mgrwt>
<rscale>  0 0.25622526E+04</rscale>
<asrwt>0</asrwt>
<pdfrwt beam="1">  1        1 0.28776015E+00 0.25622526E+04</pdfrwt>
<pdfrwt beam="2">  1       -1 0.13499776E+00 0.25622526E+04</pdfrwt>
<totfact> 0.14851487E+00</totfact>
</mgrwt>
</event>
<event>
 6    1  0.9906445E-006  0.4949897E+04  0.7818608E-02  0.7836283E-01
         -1   -1    0    0    0  501 -0.00000000000E+00  0.00000000000E+00  0.20730854365E+04  0.20730854365E+04  0.00000000000E+00 0.  1.
          1   -1    0    0  501    0  0.00000000000E+00 -0.00000000000E+00 -0.29547115404E+04  0.29547115404E+04  0.00000000000E+00 0. -1.
         23    2    1    2    0    0 -0.79717270531E+03 -0.73014848183E+03  0.18195845126E+04  0.21183056258E+04  0.87919270517E+02 0.  0.
         13    1    3    3    0    0 -0.34787000466E+03 -0.29426086496E+03  0.69008623945E+03  0.82693531469E+03  0.00000000000E+00 0. -1.
        -13    1    3    3    0    0 -0.44930270065E+03 -0.43588761687E+03  0.11294982731E+04  0.12913703111E+04  0.00000000000E+00 0.  1.
         22    1    1    2    0    0  0.79717270531E+03  0.73014848183E+03 -0.27012106165E+04  0.29094913511E+04  0.00000000000E+00 0. -1.
<mgrwt>
<rscale>  0 0.49498968E+04</rscale>
<asrwt>0</asrwt>
<pdfrwt beam="1">  1        1 0.45457101E+00 0.49498968E+04</pdfrwt>
<pdfrwt beam="2">  1       -1 0.31893622E+00 0.49498968E+04</pdfrwt>
<totfact> 0.11624541E-02</totfact>
</mgrwt>
</event>
<event>
 6    1  0.9906445E-006  0.1687808E+04  0.7818608E-02  0.8768348E-01
          1   -1    0    0  501    0  0.00000000000E+00  0.00000000000E+00  0.14311871911E+04  0.14311871911E+04  0.00000000000E+00 0.  1.
         -1   -1    0    0    0  501 -0.00000000000E+00 -0.00000000000E+00 -0.49761085442E+03  0.49761085442E+03  0.00000000000E+00 0. -1.
         23    2    1    2    0    0 -0.69402388312E+03  0.34182941499E+03  0.88341949284E+02  0.78296312332E+03  0.81917355781E+02 0.  0.
         13    1    3    3    0    0 -0.21839753840E+03  0.70219586808E+02  0.42705710795E+02  0.23334963656E+03  0.00000000000E+00 0. -1.
        -13    1    3    3    0    0 -0.47562634473E+03  0.27160982818E+03  0.45636238489E+02  0.54961348676E+03  0.00000000000E+00 0.  1.
         22    1    1    2    0    0  0.69402388312E+03 -0.34182941499E+03  0.84523438736E+03  0.11458349222E+04  0.00000000000E+00 0. -1.
<mgrwt>
<rscale>  0 0.16878084E+04</rscale>
<asrwt>0</asrwt>
<pdfrwt beam="1">  1        1 0.22018264E+00 0.16878084E+04</pdfrwt>
<pdfrwt beam="2">  1       -1 0.76555517E-01 0.16878084E+04</pdfrwt>
<totfact> 0.11916530E+01</totfact>
</mgrwt>
</event>
<event>
 6    1  0.9906445E-006  0.9082815E+03  0.7818608E-02  0.9415288E-01
          2   -1    0    0  501    0  0.00000000000E+00  0.00000000000E+00  0.29579907478E+04  0.29579907478E+04  0.00000000000E+00 0.  1.
         -2   -1    0    0    0  501 -0.00000000000E+00 -0.00000000000E+00 -0.69724295691E+02  0.69724295691E+02  0.00000000000E+00 0. -1.
         23    2    1    2    0    0 -0.16472590396E+03  0.65305261371E+02  0.28353526916E+04  0.28427846062E+04  0.10392319699E+03 0.  0.
         13    1    3    3    0    0 -0.92292887148E+02 -0.11682862998E+02  0.97394209667E+03  0.97837501704E+03  0.00000000000E+00 0.  1.
        -13    1    3    3    0    0 -0.72433016813E+02  0.76988124369E+02  0.18614105949E+04  0.18644095891E+04  0.00000000000E+00 0. -1.
         22    1    1    2    0    0  0.16472590396E+03 -0.65305261371E+02  0.52913760555E+02  0.18493043734E+03  0.00000000000E+00 0. -1.
<mgrwt>
<rscale>  0 0.90828150E+03</rscale>
<asrwt>0</asrwt>
<pdfrwt beam="1">  1        2 0.45507540E+00 0.90828150E+03</pdfrwt>
<pdfrwt beam="2">  1       -2 0.10726817E-01 0.90828150E+03</pdfrwt>
<totfact> 0.11718262E+02</totfact>
</mgrwt>
</event>
<event>
 6    1  0.9906445E-006  0.9311210E+03  0.7818608E-02  0.9387494E-01
         -2   -1    0    0    0  501 -0.00000000000E+00  0.00000000000E+00  0.79601059593E+02  0.79601059593E+02  0.00000000000E+00 0. -1.
          2   -1    0    0  501    0  0.00000000000E+00 -0.00000000000E+00 -0.27229109369E+04  0.27229109369E+04  0.00000000000E+00 0.  1.
         23    2    1    2    0    0  0.17835269342E+03  0.35623073144E+03 -0.20325920093E+04  0.20733437501E+04  0.92811704146E+02 0.  0.
         13    1    3    3    0    0  0.55676676926E+01  0.70952614452E+02 -0.48721031201E+03  0.49238111311E+03  0.00000000000E+00 0.  1.
        -13    1    3    3    0    0  0.17278502573E+03  0.28527811699E+03 -0.15453816973E+04  0.15809626370E+04  0.00000000000E+00 0. -1.
         22    1    1    2    0    0 -0.17835269342E+03 -0.35623073144E+03 -0.61071786797E+03  0.72916824638E+03  0.00000000000E+00 0. -1.
<mgrwt>
<rscale>  0 0.93112104E+03</rscale>
<asrwt>0</asrwt>
<pdfrwt beam="1">  1        2 0.41890928E+00 0.93112104E+03</pdfrwt>
<pdfrwt beam="2">  1       -2 0.12246320E-01 0.93112104E+03</pdfrwt>
<totfact> 0.12987414E+02</totfact>
</mgrwt>
</event>
<event>
 6    1  0.9906445E-006  0.2194070E+04  0.7818608E-02  0.8520900E-01
         -2   -1    0    0    0  501 -0.00000000000E+00  0.00000000000E+00  0.93842865760E+03  0.93842865760E+03  0.00000000000E+00 0.  1.
          2   -1    0    0  501    0  0.00000000000E+00 -0.00000000000E+00 -0.12824483696E+04  0.12824483696E+04  0.00000000000E+00 0. -1.
         23    2    1    2    0    0  0.58282078232E+02  0.10920672156E+04 -0.11528561955E+03  0.11035915269E+04  0.92821765724E+02 0.  0.
         11    1    3    3    0    0  0.32336739392E+01  0.42669388372E+03 -0.39430320883E+01  0.42672435430E+03  0.00000000000E+00 0.  1.
        -11    1    3    3    0    0  0.55048404292E+02  0.66537333188E+03 -0.11134258747E+03  0.67686717262E+03  0.00000000000E+00 0. -1.
         22    1    1    2    0    0 -0.58282078232E+02 -0.10920672156E+04 -0.22873409244E+03  0.11172855003E+04  0.00000000000E+00 0. -1.
<mgrwt>
<rscale>  0 0.21940705E+04</rscale>
<asrwt>0</asrwt>
<pdfrwt beam="1">  1        2 0.19729975E+00 0.21940705E+04</pdfrwt>
<pdfrwt beam="2">  1       -2 0.14437364E+00 0.21940705E+04</pdfrwt>
<totfact> 0.51309761E+00</totfact>
</mgrwt>
</event>
<event>
 6    1  0.9906445E-006  0.1856894E+04  0.7818608E-02  0.8676616E-01
         -1   -1    0    0    0  501 -0.00000000000E+00  0.00000000000E+00  0.37297435382E+03  0.37297435382E+03  0.00000000000E+00 0.  1.
          1   -1    0    0  501    0  0.00000000000E+00 -0.00000000000E+00 -0.23111877035E+04  0.23111877035E+04  0.00000000000E+00 0. -1.
         23    2    1    2    0    0  0.69627593931E+02 -0.92290866561E+03 -0.91707450714E+03  0.13059991705E+04  0.89441459844E+02 0.  0.
         11    1    3    3    0    0 -0.13838724229E+01 -0.92235684182E+02 -0.58404331583E+02  0.10918059574E+03  0.00000000000E+00 0. -1.
        -11    1    3    3    0    0  0.71011466354E+02 -0.83067298143E+03 -0.85867017556E+03  0.11968185747E+04  0.00000000000E+00 0.  1.
         22    1    1    2    0    0 -0.69627593931E+02  0.92290866561E+03 -0.10211388425E+04  0.13781628868E+04  0.00000000000E+00 0.  1.
<mgrwt>
<rscale>  0 0.18568939E+04</rscale>
<asrwt>0</asrwt>
<pdfrwt beam="1">  1        1 0.35556735E+00 0.18568939E+04</pdfrwt>
<pdfrwt beam="2">  1       -1 0.57380669E-01 0.18568939E+04</pdfrwt>
<totfact> 0.52839166E+00</totfact>
</mgrwt>
</event>
<event>
 6    1  0.9906445E-006  0.3429535E+04  0.7818608E-02  0.8130695E-01
          1   -1    0    0  501    0  0.00000000000E+00  0.00000000000E+00  0.26705610140E+04  0.26705610140E+04  0.00000000000E+00 0. -1.
         -1   -1    0    0    0  501 -0.00000000000E+00 -0.00000000000E+00 -0.11010522931E+04  0.11010522931E+04  0.00000000000E+00 0.  1.
         23    2    1    2    0    0 -0.13327517002E+04  0.10753740657E+04  0.85190067946E+03  0.19148371287E+04  0.90608974672E+02 0.  0.
         11    1    3    3    0    0 -0.71965857164E+03  0.56395306514E+03  0.50303571842E+03  0.10435499286E+04  0.00000000000E+00 0. -1.
        -11    1    3    3    0    0 -0.61309312859E+03  0.51142100053E+03  0.34886496104E+03  0.87128720015E+03  0.00000000000E+00 0.  1.
         22    1    1    2    0    0  0.13327517002E+04 -0.10753740657E+04  0.71760804139E+03  0.18567761784E+04  0.00000000000E+00 0. -1.
<mgrwt>
<rscale>  0 0.34295349E+04</rscale>
<asrwt>0</asrwt>
<pdfrwt beam="1">  1        1 0.41085554E+00 0.34295349E+04</pdfrwt>
<pdfrwt beam="2">  1       -1 0.16939266E+00 0.34295349E+04</pdfrwt>
<totfact> 0.20995511E-01</totfact>
</mgrwt>
</event>
<event>
 6    1  0.9906445E-006  0.2076513E+04  0.7818608E-02  0.8571661E-01
         -4   -1    0    0    0  501 -0.00000000000E+00  0.00000000000E+00  0.87003924576E+03  0.87003924576E+03  0.00000000000E+00 0.  1.
          4   -1    0    0  501    0  0.00000000000E+00 -0.00000000000E+00 -0.12389975666E+04  0.12389975666E+04  0.00000000000E+00 0. -1.
         23    2    1    2    0    0 -0.82850043687E+03  0.18819037898E+03  0.41764552210E+03  0.95120513272E+03  0.92384142313E+02 0.  0.
         13    1    3    3    0    0 -0.57774462944E+03  0.10783019553E+03  0.24755940383E+03  0.63773181381E+03  0.00000000000E+00 0.  1.
        -13    1    3    3    0    0 -0.25075580743E+03  0.80360183452E+02  0.17008611827E+03  0.31347331891E+03  0.00000000000E+00 0. -1.
         22    1    1    2    0    0  0.82850043687E+03 -0.18819037898E+03 -0.78660384289E+03  0.11578316796E+04  0.00000000000E+00 0. -1.
<mgrwt>
<rscale>  0 0.20765130E+04</rscale>
<asrwt>0</asrwt>
<pdfrwt beam="1">  1        4 0.19061501E+00 0.20765130E+04</pdfrwt>
<pdfrwt beam="2">  1       -4 0.13385219E+00 0.20765130E+04</pdfrwt>
<totfact> 0.11270031E-01</totfact>
</mgrwt>
</event>
<event>
 6    1  0.9906445E-006  0.2442108E+04  0.7818608E-02  0.8423905E-01
          2   -1    0    0  501    0  0.00000000000E+00  0.00000000000E+00  0.17916771058E+04  0.17916771058E+04  0.00000000000E+00 0.  1.
         -2   -1    0    0    0  501 -0.00000000000E+00 -0.00000000000E+00 -0.83216612198E+03  0.83216612198E+03  0.00000000000E+00 0. -1.
         23    2    1    2    0    0  0.18723434128E+03 -0.59563381587E+01  0.17753220173E+04  0.17868009236E+04  0.76138683121E+02 0.  0.
         11    1    3    3    0    0  0.10441580432E+03  0.23876311839E+02  0.73533563162E+03  0.74309570688E+03  0.00000000000E+00 0. -1.
        -11    1    3    3    0    0  0.82818536957E+02 -0.29832649997E+02  0.10399863857E+04  0.10437052167E+04  0.00000000000E+00 0.  1.
         22    1    1    2    0    0 -0.18723434128E+03  0.59563381587E+01 -0.81581103350E+03  0.83704230412E+03  0.00000000000E+00 0. -1.
<mgrwt>
<rscale>  0 0.24421081E+04</rscale>
<asrwt>0</asrwt>
<pdfrwt beam="1">  1        2 0.27564263E+00 0.24421081E+04</pdfrwt>
<pdfrwt beam="2">  1       -2 0.12802556E+00 0.24421081E+04</pdfrwt>
<totfact> 0.35285535E+00</totfact>
</mgrwt>
</event>
<event>
 6    1  0.9906445E-006  0.6793466E+03  0.7818608E-02  0.9753219E-01
         -2   -1    0    0    0  501 -0.00000000000E+00  0.00000000000E+00  0.98108835163E+02  0.98108835163E+02  0.00000000000E+00 0.  1.
          2   -1    0    0  501    0  0.00000000000E+00 -0.00000000000E+00 -0.11760199591E+04  0.11760199591E+04  0.00000000000E+00 0. -1.
         23    2    1    2    0    0 -0.23304474727E+02 -0.21793190491E+03 -0.76732793386E+02  0.24924076951E+03  0.90529696142E+02 0.  0.
         11    1    3    3    0    0  0.41102154182E+01 -0.48408065986E+02 -0.59258600525E+02  0.76627778642E+02  0.00000000000E+00 0. -1.
        -11    1    3    3    0    0 -0.27414690146E+02 -0.16952383893E+03 -0.17474192861E+02  0.17261299087E+03  0.00000000000E+00 0.  1.
         22    1    1    2    0    0  0.23304474727E+02  0.21793190491E+03 -0.10011783306E+04  0.10248880248E+04  0.00000000000E+00 0.  1.
<mgrwt>
<rscale>  0 0.67934659E+03</rscale>
<asrwt>0</asrwt>
<pdfrwt beam="1">  1        2 0.18092614E+00 0.67934659E+03</pdfrwt>
<pdfrwt beam="2">  1       -2 0.15093667E-01 0.67934659E+03</pdfrwt>
<totfact> 0.68534874E+02</totfact>
</mgrwt>
</event>
<event>
 6    1  0.9906445E-006  0.1257218E+04  0.7818608E-02  0.9064197E-01
         -2   -1    0    0    0  501 -0.00000000000E+00  0.00000000000E+00  0.35339783694E+03  0.35339783694E+03  0.00000000000E+00 0.  1.
          2   -1    0    0  501    0  0.00000000000E+00 -0.00000000000E+00 -0.11181432491E+04  0.11181432491E+04  0.00000000000E+00 0. -1.
         23    2    1    2    0    0  0.77814288310E+02  0.49108752251E+03 -0.82858288696E+03  0.97024552313E+03  0.87205254176E+02 0.  0.
         11    1    3    3    0    0  0.85551968060E+02  0.48192370774E+03 -0.78542703852E+03  0.92545406810E+03  0.00000000000E+00 0.  1.
        -11    1    3    3    0    0 -0.77376797502E+01  0.91638147696E+01 -0.43155848442E+02  0.44791455031E+02  0.00000000000E+00 0. -1.
         22    1    1    2    0    0 -0.77814288310E+02 -0.49108752251E+03  0.63837474769E+02  0.50129556294E+03  0.00000000000E+00 0.  1.
<mgrwt>
<rscale>  0 0.12572182E+04</rscale>
<asrwt>0</asrwt>
<pdfrwt beam="1">  1        2 0.17202203E+00 0.12572182E+04</pdfrwt>
<pdfrwt beam="2">  1       -2 0.54368900E-01 0.12572182E+04</pdfrwt>
<totfact> 0.66460910E+01</totfact>
</mgrwt>
</event>
<event>
 6    1  0.9906445E-006  0.1927649E+04  0.7818608E-02  0.8641215E-01
         -2   -1    0    0    0  501 -0.00000000000E+00  0.00000000000E+00  0.28090440218E+03  0.28090440218E+03  0.00000000000E+00 0. -1.
          2   -1    0    0  501    0  0.00000000000E+00 -0.00000000000E+00 -0.33070225359E+04  0.33070225359E+04  0.00000000000E+00 0.  1.
         23    2    1    2    0    0 -0.19704186170E+03 -0.82793483736E+03 -0.68407895180E+03  0.10960503120E+04  0.95187624591E+02 0.  0.
         13    1    3    3    0    0 -0.15926265571E+03 -0.56102779731E+03 -0.51350661668E+03  0.77704943744E+03  0.00000000000E+00 0. -1.
        -13    1    3    3    0    0 -0.37779205991E+02 -0.26690704005E+03 -0.17057233512E+03  0.31900087452E+03  0.00000000000E+00 0.  1.
         22    1    1    2    0    0  0.19704186170E+03  0.82793483736E+03 -0.23420391819E+04  0.24918766261E+04  0.00000000000E+00 0.  1.
<mgrwt>
<rscale>  0 0.19276485E+04</rscale>
<asrwt>0</asrwt>
<pdfrwt beam="1">  1        2 0.50877268E+00 0.19276485E+04</pdfrwt>
<pdfrwt beam="2">  1       -2 0.43216064E-01 0.19276485E+04</pdfrwt>
<totfact> 0.52533641E+00</totfact>
</mgrwt>
</event>
<event>
 6    1  0.9906445E-006  0.1191550E+04  0.7818608E-02  0.9120285E-01
         -1   -1    0    0    0  501 -0.00000000000E+00  0.00000000000E+00  0.38401019567E+03  0.38401019567E+03  0.00000000000E+00 0.  1.
          1   -1    0    0  501    0  0.00000000000E+00 -0.00000000000E+00 -0.92431901660E+03  0.92431901660E+03  0.00000000000E+00 0. -1.
         23    2    1    2    0    0  0.26622407446E+03 -0.75275610131E+02 -0.84713717819E+03  0.89518841772E+03  0.84730332480E+02 0.  0.
         13    1    3    3    0    0  0.22183136701E+03 -0.34605498703E+02 -0.59464051756E+03  0.63561312215E+03  0.00000000000E+00 0. -1.
        -13    1    3    3    0    0  0.44392707452E+02 -0.40670111428E+02 -0.25249666063E+03  0.25957529556E+03  0.00000000000E+00 0.  1.
         22    1    1    2    0    0 -0.26622407446E+03  0.75275610131E+02  0.30682835726E+03  0.41314079455E+03  0.00000000000E+00 0.  1.
<mgrwt>
<rscale>  0 0.11915501E+04</rscale>
<asrwt>0</asrwt>
<pdfrwt beam="1">  1        1 0.14220292E+00 0.11915501E+04</pdfrwt>
<pdfrwt beam="2">  1       -1 0.59078492E-01 0.11915501E+04</pdfrwt>
<totfact> 0.49995757E+01</totfact>
</mgrwt>
</event>
<event>
 6    1  0.9906445E-006  0.1192212E+04  0.7818608E-02  0.9119701E-01
          2   -1    0    0  501    0  0.00000000000E+00  0.00000000000E+00  0.13270699803E+04  0.13270699803E+04  0.00000000000E+00 0.  1.
         -2   -1    0    0    0  501 -0.00000000000E+00 -0.00000000000E+00 -0.26776459807E+03  0.26776459807E+03  0.00000000000E+00 0. -1.
         23    2    1    2    0    0  0.12544190139E+03 -0.57750644282E+03  0.59234846439E+03  0.84164262061E+03  0.90753707534E+02 0.  0.
         11    1    3    3    0    0  0.72564320834E+02 -0.30675768759E+03  0.37866113120E+03  0.49269677474E+03  0.00000000000E+00 0.  1.
        -11    1    3    3    0    0  0.52877580560E+02 -0.27074875523E+03  0.21368733320E+03  0.34894584587E+03  0.00000000000E+00 0. -1.
         22    1    1    2    0    0 -0.12544190139E+03  0.57750644282E+03  0.46695691786E+03  0.75319195778E+03  0.00000000000E+00 0. -1.
<mgrwt>
<rscale>  0 0.11922120E+04</rscale>
<asrwt>0</asrwt>
<pdfrwt beam="1">  1        2 0.20416461E+00 0.11922120E+04</pdfrwt>
<pdfrwt beam="2">  1       -2 0.41194554E-01 0.11922120E+04</pdfrwt>
<totfact> 0.87798274E+01</totfact>
</mgrwt>
</event>
<event>
 6    1  0.9906445E-006  0.1209297E+04  0.7818608E-02  0.9104758E-01
          1   -1    0    0  501    0  0.00000000000E+00  0.00000000000E+00  0.12487495925E+04  0.12487495925E+04  0.00000000000E+00 0. -1.
         -1   -1    0    0    0  501 -0.00000000000E+00 -0.00000000000E+00 -0.29277253285E+03  0.29277253285E+03  0.00000000000E+00 0.  1.
         23    2    1    2    0    0 -0.52127594027E+02  0.59254851429E+03  0.59094902165E+03  0.84361346631E+03  0.92908053982E+02 0.  0.
         11    1    3    3    0    0 -0.70915333713E+02  0.49677430964E+03  0.52222098067E+03  0.72424336513E+03  0.00000000000E+00 0.  1.
        -11    1    3    3    0    0  0.18787739686E+02  0.95774204650E+02  0.68728040977E+02  0.11937010118E+03  0.00000000000E+00 0. -1.
         22    1    1    2    0    0  0.52127594027E+02 -0.59254851429E+03  0.36502803802E+03  0.69790865906E+03  0.00000000000E+00 0. -1.
<mgrwt>
<rscale>  0 0.12092966E+04</rscale>
<asrwt>0</asrwt>
<pdfrwt beam="1">  1        1 0.19211532E+00 0.12092966E+04</pdfrwt>
<pdfrwt beam="2">  1       -1 0.45041929E-01 0.12092966E+04</pdfrwt>
<totfact> 0.47597891E+01</totfact>
</mgrwt>
</event>
<event>
 6    1  0.9906445E-006  0.1978992E+04  0.7818608E-02  0.8616506E-01
          2   -1    0    0  501    0  0.00000000000E+00  0.00000000000E+00  0.31334291958E+04  0.31334291958E+04  0.00000000000E+00 0. -1.
         -2   -1    0    0    0  501 -0.00000000000E+00 -0.00000000000E+00 -0.31246980543E+03  0.31246980543E+03  0.00000000000E+00 0.  1.
         23    2    1    2    0    0 -0.14862183534E+03  0.57131402661E+03  0.35118498542E+02  0.59819858835E+03  0.90111459954E+02 0.  0.
         13    1    3    3    0    0 -0.16890425654E+02  0.23950131752E+03  0.18459755979E+02  0.24080475527E+03  0.00000000000E+00 0.  1.
        -13    1    3    3    0    0 -0.13173140968E+03  0.33181270910E+03  0.16658742563E+02  0.35739383308E+03  0.00000000000E+00 0. -1.
         22    1    1    2    0    0  0.14862183534E+03 -0.57131402661E+03  0.27858408918E+04  0.28477004129E+04  0.00000000000E+00 0. -1.
<mgrwt>
<rscale>  0 0.19789917E+04</rscale>
<asrwt>0</asrwt>
<pdfrwt beam="1">  1        2 0.48206601E+00 0.19789917E+04</pdfrwt>
<pdfrwt beam="2">  1       -2 0.48072280E-01 0.19789917E+04</pdfrwt>
<totfact> 0.54824887E+00</totfact>
</mgrwt>
</event>
<event>
 6    1  0.9906445E-006  0.2049226E+04  0.7818608E-02  0.8583946E-01
          2   -1    0    0  501    0  0.00000000000E+00  0.00000000000E+00  0.12108802782E+04  0.12108802782E+04  0.00000000000E+00 0. -1.
         -2   -1    0    0    0  501 -0.00000000000E+00 -0.00000000000E+00 -0.86699851608E+03  0.86699851608E+03  0.00000000000E+00 0.  1.
         23    2    1    2    0    0 -0.78471794980E+03 -0.49499618486E+03 -0.26118226534E+03  0.97022092243E+03  0.11094583743E+03 0.  0.
         11    1    3    3    0    0 -0.23868786477E+03 -0.21037871363E+03 -0.74282674893E+02  0.32672467878E+03  0.00000000000E+00 0.  1.
        -11    1    3    3    0    0 -0.54603008503E+03 -0.28461747123E+03 -0.18689959044E+03  0.64349624365E+03  0.00000000000E+00 0. -1.
         22    1    1    2    0    0  0.78471794980E+03  0.49499618486E+03  0.60506402748E+03  0.11076578719E+04  0.00000000000E+00 0. -1.
<mgrwt>
<rscale>  0 0.20492256E+04</rscale>
<asrwt>0</asrwt>
<pdfrwt beam="1">  1        2 0.18628927E+00 0.20492256E+04</pdfrwt>
<pdfrwt beam="2">  1       -2 0.13338439E+00 0.20492256E+04</pdfrwt>
<totfact> 0.70255915E+00</totfact>
</mgrwt>
</event>
<event>
 6    1  0.9906445E-006  0.1423354E+04  0.7818608E-02  0.8937085E-01
         -1   -1    0    0    0  501 -0.00000000000E+00  0.00000000000E+00  0.36683651214E+03  0.36683651214E+03  0.00000000000E+00 0.  1.
          1   -1    0    0  501    0  0.00000000000E+00 -0.00000000000E+00 -0.13806816796E+04  0.13806816796E+04  0.00000000000E+00 0. -1.
         23    2    1    2    0    0  0.50089665758E+03  0.39218624360E+03 -0.89160235428E+03  0.10997135788E+04  0.98527589679E+02 0.  0.
         13    1    3    3    0    0  0.26642007160E+03  0.17236432272E+03 -0.37438533879E+03  0.49076827138E+03  0.00000000000E+00 0.  1.
        -13    1    3    3    0    0  0.23447658598E+03  0.21982192088E+03 -0.51721701549E+03  0.60894530739E+03  0.00000000000E+00 0. -1.
         22    1    1    2    0    0 -0.50089665758E+03 -0.39218624360E+03 -0.12224281320E+03  0.64780461300E+03  0.00000000000E+00 0.  1.
<mgrwt>
<rscale>  0 0.14233544E+04</rscale>
<asrwt>0</asrwt>
<pdfrwt beam="1">  1        1 0.21241257E+00 0.14233544E+04</pdfrwt>
<pdfrwt beam="2">  1       -1 0.56436387E-01 0.14233544E+04</pdfrwt>
<totfact> 0.24512937E+01</totfact>
</mgrwt>
</event>
<event>
 6    1  0.1680725E-005  0.2288973E+04  0.7818608E-02  0.8482282E-01
         -1   -1    0    0    0  501 -0.00000000000E+00  0.00000000000E+00  0.10809289120E+04  0.10809289120E+04  0.00000000000E+00 0.  1.
          1   -1    0    0  501    0  0.00000000000E+00 -0.00000000000E+00 -0.12117809926E+04  0.12117809926E+04  0.00000000000E+00 0. -1.
         23    2    1    2    0    0 -0.45076684787E+03  0.29937982404E+03  0.94318956370E+03  0.10900526452E+04  0.76086700524E+02 0.  0.
         11    1    3    3    0    0 -0.21217722373E+03  0.10285311215E+03  0.44915794439E+03  0.50728768560E+03  0.00000000000E+00 0.  1.
        -11    1    3    3    0    0 -0.23858962414E+03  0.19652671189E+03  0.49403161931E+03  0.58276495957E+03  0.00000000000E+00 0. -1.
         22    1    1    2    0    0  0.45076684787E+03 -0.29937982404E+03 -0.10740416442E+04  0.12026572595E+04  0.00000000000E+00 0. -1.
<mgrwt>
<rscale>  0 0.22889728E+04</rscale>
<asrwt>0</asrwt>
<pdfrwt beam="1">  1        1 0.18642785E+00 0.22889728E+04</pdfrwt>
<pdfrwt beam="2">  1       -1 0.16629676E+00 0.22889728E+04</pdfrwt>
<totfact> 0.24842225E+00</totfact>
</mgrwt>
</event>
<event>
 6    1  0.9906445E-006  0.2283886E+04  0.7818608E-02  0.8484302E-01
         -2   -1    0    0    0  501 -0.00000000000E+00  0.00000000000E+00  0.48316732996E+03  0.48316732996E+03  0.00000000000E+00 0.  1.
          2   -1    0    0  501    0  0.00000000000E+00 -0.00000000000E+00 -0.26989273506E+04  0.26989273506E+04  0.00000000000E+00 0. -1.
         23    2    1    2    0    0 -0.86183808515E+03  0.71154200212E+03 -0.79590837082E+03  0.13751537260E+04  0.92307798105E+02 0.  0.
         11    1    3    3    0    0 -0.55472931612E+03  0.50981211636E+03 -0.55535216380E+03  0.93597491098E+03  0.00000000000E+00 0. -1.
        -11    1    3    3    0    0 -0.30710876903E+03  0.20172988576E+03 -0.24055620702E+03  0.43917881502E+03  0.00000000000E+00 0.  1.
         22    1    1    2    0    0  0.86183808515E+03 -0.71154200212E+03 -0.14198516498E+04  0.18069409546E+04  0.00000000000E+00 0. -1.
<mgrwt>
<rscale>  0 0.22838857E+04</rscale>
<asrwt>0</asrwt>
<pdfrwt beam="1">  1        2 0.41521958E+00 0.22838857E+04</pdfrwt>
<pdfrwt beam="2">  1       -2 0.74333437E-01 0.22838857E+04</pdfrwt>
<totfact> 0.39330502E+00</totfact>
</mgrwt>
</event>
<event>
 6    1  0.9906445E-006  0.2259019E+04  0.7818608E-02  0.8494257E-01
         -2   -1    0    0    0  501 -0.00000000000E+00  0.00000000000E+00  0.77161204724E+03  0.77161204724E+03  0.00000000000E+00 0.  1.
          2   -1    0    0  501    0  0.00000000000E+00 -0.00000000000E+00 -0.16534104191E+04  0.16534104191E+04  0.00000000000E+00 0. -1.
         23    2    1    2    0    0  0.35925694925E+03  0.74069097289E+03 -0.12689688011E+04  0.15153029413E+04  0.90401951556E+02 0.  0.
         11    1    3    3    0    0  0.71281143358E+02  0.19016975190E+03 -0.37800641635E+03  0.42910882855E+03  0.00000000000E+00 0. -1.
        -11    1    3    3    0    0  0.28797580589E+03  0.55052122099E+03 -0.89096238475E+03  0.10861941128E+04  0.00000000000E+00 0.  1.
         22    1    1    2    0    0 -0.35925694925E+03 -0.74069097289E+03  0.38717042925E+03  0.90971952502E+03  0.00000000000E+00 0.  1.
<mgrwt>
<rscale>  0 0.22590187E+04</rscale>
<asrwt>0</asrwt>
<pdfrwt beam="1">  1        2 0.25437083E+00 0.22590187E+04</pdfrwt>
<pdfrwt beam="2">  1       -2 0.11870955E+00 0.22590187E+04</pdfrwt>
<totfact> 0.51663974E+00</totfact>
</mgrwt>
</event>
<event>
 6    1  0.9906445E-006  0.1435317E+04  0.7818608E-02  0.8928644E-01
         -1   -1    0    0    0  501 -0.00000000000E+00  0.00000000000E+00  0.24634042874E+03  0.24634042874E+03  0.00000000000E+00 0.  1.
          1   -1    0    0  501    0  0.00000000000E+00 -0.00000000000E+00 -0.20907393318E+04  0.20907393318E+04  0.00000000000E+00 0. -1.
         23    2    1    2    0    0  0.61213933518E+03  0.16937356201E+03 -0.39279339879E+03  0.75260492349E+03  0.93410639370E+02 0.  0.
         13    1    3    3    0    0  0.43964032514E+03  0.16420698651E+03 -0.28157943920E+03  0.54729747898E+03  0.00000000000E+00 0. -1.
        -13    1    3    3    0    0  0.17249901004E+03  0.51665754943E+01 -0.11121395958E+03  0.20530744452E+03  0.00000000000E+00 0.  1.
         22    1    1    2    0    0 -0.61213933518E+03 -0.16937356201E+03 -0.14516055043E+04  0.15844748370E+04  0.00000000000E+00 0. -1.
<mgrwt>
<rscale>  0 0.14353169E+04</rscale>
<asrwt>0</asrwt>
<pdfrwt beam="1">  1        1 0.32165221E+00 0.14353169E+04</pdfrwt>
<pdfrwt beam="2">  1       -1 0.37898527E-01 0.14353169E+04</pdfrwt>
<totfact> 0.16917707E+01</totfact>
</mgrwt>
</event>
<event>
 6    1  0.9906445E-006  0.1225037E+04  0.7818608E-02  0.9091220E-01
         -1   -1    0    0    0  501 -0.00000000000E+00  0.00000000000E+00  0.11905935173E+03  0.11905935173E+03  0.00000000000E+00 0.  1.
          1   -1    0    0  501    0  0.00000000000E+00 -0.00000000000E+00 -0.31511931295E+04  0.31511931295E+04  0.00000000000E+00 0. -1.
         23    2    1    2    0    0  0.14583359524E+03 -0.38312382020E+03 -0.27273435804E+04  0.27594214294E+04  0.89175783484E+02 0.  0.
         11    1    3    3    0    0  0.13659621452E+02 -0.14465780690E+03 -0.10652928654E+04  0.10751564330E+04  0.00000000000E+00 0. -1.
        -11    1    3    3    0    0  0.13217397378E+03 -0.23846601330E+03 -0.16620507150E+04  0.16842649964E+04  0.00000000000E+00 0.  1.
         22    1    1    2    0    0 -0.14583359524E+03  0.38312382020E+03 -0.30479019738E+03  0.51083105184E+03  0.00000000000E+00 0.  1.
<mgrwt>
<rscale>  0 0.12250372E+04</rscale>
<asrwt>0</asrwt>
<pdfrwt beam="1">  1        1 0.48479895E+00 0.12250372E+04</pdfrwt>
<pdfrwt beam="2">  1       -1 0.18316823E-01 0.12250372E+04</pdfrwt>
<totfact> 0.10980202E+01</totfact>
</mgrwt>
</event>
<event>
 6    1  0.9906445E-006  0.1567192E+04  0.7818608E-02  0.8840961E-01
         -1   -1    0    0    0  501 -0.00000000000E+00  0.00000000000E+00  0.57587157943E+03  0.57587157943E+03  0.00000000000E+00 0.  1.
          1   -1    0    0  501    0  0.00000000000E+00 -0.00000000000E+00 -0.10662494362E+04  0.10662494362E+04  0.00000000000E+00 0. -1.
         23    2    1    2    0    0  0.14120129319E+03  0.51368790883E+03  0.35215770569E+03  0.64528640203E+03  0.92554946322E+02 0.  0.
         13    1    3    3    0    0  0.28257591855E+02  0.22795564278E+03  0.18867560276E+03  0.29725536101E+03  0.00000000000E+00 0.  1.
        -13    1    3    3    0    0  0.11294370133E+03  0.28573226606E+03  0.16348210293E+03  0.34803104102E+03  0.00000000000E+00 0. -1.
         22    1    1    2    0    0 -0.14120129319E+03 -0.51368790883E+03 -0.84253556245E+03  0.99683461360E+03  0.00000000000E+00 0. -1.
<mgrwt>
<rscale>  0 0.15671921E+04</rscale>
<asrwt>0</asrwt>
<pdfrwt beam="1">  1        1 0.16403837E+00 0.15671921E+04</pdfrwt>
<pdfrwt beam="2">  1       -1 0.88595628E-01 0.15671921E+04</pdfrwt>
<totfact> 0.16184127E+01</totfact>
</mgrwt>
</event>
<event>
 6    1  0.9906445E-006  0.2291317E+04  0.7818608E-02  0.8481352E-01
          1   -1    0    0  501    0  0.00000000000E+00  0.00000000000E+00  0.24211466522E+04  0.24211466522E+04  0.00000000000E+00 0.  1.
         -1   -1    0    0    0  501 -0.00000000000E+00 -0.00000000000E+00 -0.54211240076E+03  0.54211240076E+03  0.00000000000E+00 0. -1.
         23    2    1    2    0    0  0.62853623730E+03 -0.34524572297E+03  0.20934621173E+04  0.22147727669E+04  0.91555237333E+02 0.  0.
         11    1    3    3    0    0  0.66895196223E+02 -0.66464051267E+02  0.22718088952E+03  0.24597478316E+03  0.00000000000E+00 0.  1.
        -11    1    3    3    0    0  0.56164104107E+03 -0.27878167170E+03  0.18662812278E+04  0.19687979837E+04  0.00000000000E+00 0. -1.
         22    1    1    2    0    0 -0.62853623730E+03  0.34524572297E+03 -0.21442786586E+03  0.74848628610E+03  0.00000000000E+00 0. -1.
<mgrwt>
<rscale>  0 0.22913172E+04</rscale>
<asrwt>0</asrwt>
<pdfrwt beam="1">  1        1 0.37248409E+00 0.22913172E+04</pdfrwt>
<pdfrwt beam="2">  1       -1 0.83401909E-01 0.22913172E+04</pdfrwt>
<totfact> 0.19820219E+00</totfact>
</mgrwt>
</event>
<event>
 6    1  0.9906445E-006  0.4694141E+04  0.7818608E-02  0.7877503E-01
         -2   -1    0    0    0  501 -0.00000000000E+00  0.00000000000E+00  0.25851944571E+04  0.25851944571E+04  0.00000000000E+00 0.  1.
          2   -1    0    0  501    0  0.00000000000E+00 -0.00000000000E+00 -0.21308804270E+04  0.21308804270E+04  0.00000000000E+00 0. -1.
         23    2    1    2    0    0  0.21125622204E+04  0.10208719562E+04  0.21682684612E+03  0.23577918544E+04  0.84082468718E+02 0.  0.
         13    1    3    3    0    0  0.74750135674E+03  0.36071342951E+03  0.11711473476E+03  0.83820541495E+03  0.00000000000E+00 0. -1.
        -13    1    3    3    0    0  0.13650608636E+04  0.66015852668E+03  0.99712111361E+02  0.15195864394E+04  0.00000000000E+00 0.  1.
         22    1    1    2    0    0 -0.21125622204E+04 -0.10208719562E+04  0.23748718397E+03  0.23582830298E+04  0.00000000000E+00 0. -1.
<mgrwt>
<rscale>  0 0.46941411E+04</rscale>
<asrwt>0</asrwt>
<pdfrwt beam="1">  1        2 0.32782776E+00 0.46941411E+04</pdfrwt>
<pdfrwt beam="2">  1       -2 0.39772222E+00 0.46941411E+04</pdfrwt>
<totfact> 0.32364295E-02</totfact>
</mgrwt>
</event>
<event>
 6    1  0.9906445E-006  0.2685603E+04  0.7818608E-02  0.8339691E-01
          2   -1    0    0  501    0  0.00000000000E+00  0.00000000000E+00  0.28040829422E+04  0.28040829422E+04  0.00000000000E+00 0. -1.
         -2   -1    0    0    0  501 -0.00000000000E+00 -0.00000000000E+00 -0.64303235462E+03  0.64303235462E+03  0.00000000000E+00 0.  1.
         23    2    1    2    0    0 -0.12572007744E+04  0.43400819439E+03  0.85796566715E+03  0.15851412879E+04  0.87469518624E+02 0.  0.
         11    1    3    3    0    0 -0.72130041102E+02  0.46309837902E+01  0.41373709431E+02  0.83282487188E+02  0.00000000000E+00 0. -1.
        -11    1    3    3    0    0 -0.11850707333E+04  0.42937721060E+03  0.81659195772E+03  0.15018588007E+04  0.00000000000E+00 0.  1.
         22    1    1    2    0    0  0.12572007744E+04 -0.43400819439E+03  0.13030849205E+04  0.18619740089E+04  0.00000000000E+00 0.  1.
<mgrwt>
<rscale>  0 0.26856031E+04</rscale>
<asrwt>0</asrwt>
<pdfrwt beam="1">  1        2 0.43139737E+00 0.26856031E+04</pdfrwt>
<pdfrwt beam="2">  1       -2 0.98928056E-01 0.26856031E+04</pdfrwt>
<totfact> 0.17107136E+00</totfact>
</mgrwt>
</event>
<event>
 6    1  0.9906445E-006  0.1859118E+04  0.7818608E-02  0.8675478E-01
          1   -1    0    0  501    0  0.00000000000E+00  0.00000000000E+00  0.11371448856E+04  0.11371448856E+04  0.00000000000E+00 0. -1.
         -1   -1    0    0    0  501 -0.00000000000E+00 -0.00000000000E+00 -0.75986778019E+03  0.75986778019E+03  0.00000000000E+00 0.  1.
         23    2    1    2    0    0  0.46335148420E+03 -0.48468040576E+03  0.84269854402E+03  0.10807854859E+04  0.91360476803E+02 0.  0.
         11    1    3    3    0    0  0.35059973039E+03 -0.30589288946E+03  0.58651270277E+03  0.74865731899E+03  0.00000000000E+00 0. -1.
        -11    1    3    3    0    0  0.11275175381E+03 -0.17878751630E+03  0.25618584125E+03  0.33212816687E+03  0.00000000000E+00 0.  1.
         22    1    1    2    0    0 -0.46335148420E+03  0.48468040576E+03 -0.46542143866E+03  0.81622717989E+03  0.00000000000E+00 0.  1.
<mgrwt>
<rscale>  0 0.18591178E+04</rscale>
<asrwt>0</asrwt>
<pdfrwt beam="1">  1        1 0.17494537E+00 0.18591178E+04</pdfrwt>
<pdfrwt beam="2">  1       -1 0.11690274E+00 0.18591178E+04</pdfrwt>
<totfact> 0.73671053E+00</totfact>
</mgrwt>
</event>
<event>
 6    1  0.9906445E-006  0.7477898E+03  0.7818608E-02  0.9638824E-01
          2   -1    0    0  501    0  0.00000000000E+00  0.00000000000E+00  0.38597831862E+03  0.38597831862E+03  0.00000000000E+00 0. -1.
         -2   -1    0    0    0  501 -0.00000000000E+00 -0.00000000000E+00 -0.36218976353E+03  0.36218976353E+03  0.00000000000E+00 0.  1.
         23    2    1    2    0    0  0.77882784535E+02  0.27239434351E+03 -0.22395305070E+03  0.37181677055E+03  0.88477881080E+02 0.  0.
         11    1    3    3    0    0 -0.14948990940E+02  0.95033932630E+02 -0.82013391809E+02  0.12641644322E+03  0.00000000000E+00 0. -1.
        -11    1    3    3    0    0  0.92831775475E+02  0.17736041088E+03 -0.14193965889E+03  0.24540032733E+03  0.00000000000E+00 0.  1.
         22    1    1    2    0    0 -0.77882784535E+02 -0.27239434351E+03  0.24774160579E+03  0.37635131160E+03  0.00000000000E+00 0. -1.
<mgrwt>
<rscale>  0 0.74778980E+03</rscale>
<asrwt>0</asrwt>
<pdfrwt beam="1">  1        2 0.59381280E-01 0.74778980E+03</pdfrwt>
<pdfrwt beam="2">  1       -2 0.55721502E-01 0.74778980E+03</pdfrwt>
<totfact> 0.25268975E+02</totfact>
</mgrwt>
</event>
<event>
 6    1  0.9906445E-006  0.1886863E+04  0.7818608E-02  0.8661423E-01
         -1   -1    0    0    0  501 -0.00000000000E+00  0.00000000000E+00  0.43341654988E+03  0.43341654988E+03  0.00000000000E+00 0.  1.
          1   -1    0    0  501    0  0.00000000000E+00 -0.00000000000E+00 -0.20535979750E+04  0.20535979750E+04  0.00000000000E+00 0. -1.
         23    2    1    2    0    0  0.80706489336E+03  0.47106029844E+03 -0.96168269022E+03  0.13438294433E+04  0.88274737219E+02 0.  0.
         13    1    3    3    0    0  0.66728140364E+03  0.41534802150E+03 -0.83927749329E+03  0.11498544088E+04  0.00000000000E+00 0. -1.
        -13    1    3    3    0    0  0.13978348972E+03  0.55712276938E+02 -0.12240519694E+03  0.19397503457E+03  0.00000000000E+00 0.  1.
         22    1    1    2    0    0 -0.80706489336E+03 -0.47106029844E+03 -0.65849873493E+03  0.11431850816E+04  0.00000000000E+00 0.  1.
<mgrwt>
<rscale>  0 0.18868634E+04</rscale>
<asrwt>0</asrwt>
<pdfrwt beam="1">  1        1 0.31593815E+00 0.18868634E+04</pdfrwt>
<pdfrwt beam="2">  1       -1 0.66679469E-01 0.18868634E+04</pdfrwt>
<totfact> 0.58496919E+00</totfact>
</mgrwt>
</event>
<event>
 6    1  0.9906445E-006  0.1350494E+04  0.7818608E-02  0.8990454E-01
         -1   -1    0    0    0  501 -0.00000000000E+00  0.00000000000E+00  0.45214556828E+03  0.45214556828E+03  0.00000000000E+00 0.  1.
          1   -1    0    0  501    0  0.00000000000E+00 -0.00000000000E+00 -0.10084334118E+04  0.10084334118E+04  0.00000000000E+00 0. -1.
         23    2    1    2    0    0  0.66480949987E+03  0.77276345909E+02 -0.21426362302E+03  0.70896480232E+03  0.93695709764E+02 0.  0.
         13    1    3    3    0    0  0.14563541168E+03 -0.10818462678E+02 -0.75474700807E+02  0.16438717326E+03  0.00000000000E+00 0.  1.
        -13    1    3    3    0    0  0.51917408819E+03  0.88094808587E+02 -0.13878892221E+03  0.54457762907E+03  0.00000000000E+00 0. -1.
         22    1    1    2    0    0 -0.66480949987E+03 -0.77276345909E+02 -0.34202422046E+03  0.75161417771E+03  0.00000000000E+00 0. -1.
<mgrwt>
<rscale>  0 0.13504943E+04</rscale>
<asrwt>0</asrwt>
<pdfrwt beam="1">  1        1 0.15514360E+00 0.13504943E+04</pdfrwt>
<pdfrwt beam="2">  1       -1 0.69560857E-01 0.13504943E+04</pdfrwt>
<totfact> 0.30493168E+01</totfact>
</mgrwt>
</event>
<event>
 6    1  0.9906445E-006  0.2018480E+04  0.7818608E-02  0.8598029E-01
          2   -1    0    0  501    0  0.00000000000E+00  0.00000000000E+00  0.19752190855E+04  0.19752190855E+04  0.00000000000E+00 0. -1.
         -2   -1    0    0    0  501 -0.00000000000E+00 -0.00000000000E+00 -0.51567191381E+03  0.51567191381E+03  0.00000000000E+00 0.  1.
         23    2    1    2    0    0  0.80708408971E+02 -0.24126155860E+03  0.19338557879E+04  0.19526627482E+04  0.91501981154E+02 0.  0.
         13    1    3    3    0    0  0.51120883689E+02 -0.85075894676E+02  0.10451207023E+04  0.10498230969E+04  0.00000000000E+00 0. -1.
        -13    1    3    3    0    0  0.29587525282E+02 -0.15618566392E+03  0.88873508568E+03  0.90283965121E+03  0.00000000000E+00 0.  1.
         22    1    1    2    0    0 -0.80708408971E+02  0.24126155860E+03 -0.47430861623E+03  0.53822825118E+03  0.00000000000E+00 0.  1.
<mgrwt>
<rscale>  0 0.20184796E+04</rscale>
<asrwt>0</asrwt>
<pdfrwt beam="1">  1        2 0.30387985E+00 0.20184796E+04</pdfrwt>
<pdfrwt beam="2">  1       -2 0.79334142E-01 0.20184796E+04</pdfrwt>
<totfact> 0.90108471E+00</totfact>
</mgrwt>
</event>
<event>
 6    1  0.9906445E-006  0.2234997E+04  0.7818608E-02  0.8504001E-01
         -2   -1    0    0    0  501 -0.00000000000E+00  0.00000000000E+00  0.63611813136E+03  0.63611813136E+03  0.00000000000E+00 0.  1.
          2   -1    0    0  501    0  0.00000000000E+00 -0.00000000000E+00 -0.19631617204E+04  0.19631617204E+04  0.00000000000E+00 0. -1.
         23    2    1    2    0    0 -0.13952182135E+03 -0.76910006916E+03  0.26103210780E+03  0.82926129991E+03  0.92494795528E+02 0.  0.
         11    1    3    3    0    0 -0.13397773480E+03 -0.53715539490E+03  0.20696871612E+03  0.59103468692E+03  0.00000000000E+00 0. -1.
        -11    1    3    3    0    0 -0.55440865581E+01 -0.23194467426E+03  0.54063391681E+02  0.23822661298E+03  0.00000000000E+00 0.  1.
         22    1    1    2    0    0  0.13952182135E+03  0.76910006916E+03 -0.15880756968E+04  0.17700185519E+04  0.00000000000E+00 0. -1.
<mgrwt>
<rscale>  0 0.22349969E+04</rscale>
<asrwt>0</asrwt>
<pdfrwt beam="1">  1        2 0.30202488E+00 0.22349969E+04</pdfrwt>
<pdfrwt beam="2">  1       -2 0.97864328E-01 0.22349969E+04</pdfrwt>
<totfact> 0.55485244E+00</totfact>
</mgrwt>
</event>
<event>
 6    1  0.9906445E-006  0.1477066E+04  0.7818608E-02  0.8899848E-01
          1   -1    0    0  501    0  0.00000000000E+00  0.00000000000E+00  0.17005511151E+04  0.17005511151E+04  0.00000000000E+00 0. -1.
         -1   -1    0    0    0  501 -0.00000000000E+00 -0.00000000000E+00 -0.32073790632E+03  0.32073790632E+03  0.00000000000E+00 0.  1.
         23    2    1    2    0    0  0.12402193326E+03 -0.47228983574E+03  0.14456386505E+04  0.15285699152E+04  0.90640768923E+02 0.  0.
         11    1    3    3    0    0  0.18728533265E+02 -0.14903789837E+03  0.56383183270E+03  0.58349754814E+03  0.00000000000E+00 0.  1.
        -11    1    3    3    0    0  0.10529340000E+03 -0.32325193737E+03  0.88180681777E+03  0.94507236705E+03  0.00000000000E+00 0. -1.
         22    1    1    2    0    0 -0.12402193326E+03  0.47228983574E+03 -0.65825441703E+02  0.49271910623E+03  0.00000000000E+00 0.  1.
<mgrwt>
<rscale>  0 0.14770663E+04</rscale>
<asrwt>0</asrwt>
<pdfrwt beam="1">  1        1 0.26162324E+00 0.14770663E+04</pdfrwt>
<pdfrwt beam="2">  1       -1 0.49344294E-01 0.14770663E+04</pdfrwt>
<totfact> 0.18996868E+01</totfact>
</mgrwt>
</event>
<event>
 6    1  0.9906445E-006  0.7981585E+03  0.7818608E-02  0.9562686E-01
         -1   -1    0    0    0  501 -0.00000000000E+00  0.00000000000E+00  0.24850592387E+03  0.24850592387E+03  0.00000000000E+00 0. -1.
          1   -1    0    0  501    0  0.00000000000E+00 -0.00000000000E+00 -0.64088707641E+03  0.64088707641E+03  0.00000000000E+00 0.  1.
         23    2    1    2    0    0  0.36402408892E+03  0.19512692424E+02 -0.36491802773E+03  0.52381331580E+03  0.91219188594E+02 0.  0.
         13    1    3    3    0    0  0.14712590065E+03  0.52751003157E+02 -0.15638956508E+03  0.22110267986E+03  0.00000000000E+00 0. -1.
        -13    1    3    3    0    0  0.21689818827E+03 -0.33238310733E+02 -0.20852846265E+03  0.30271063594E+03  0.00000000000E+00 0.  1.
         22    1    1    2    0    0 -0.36402408892E+03 -0.19512692424E+02 -0.27463124811E+02  0.36557968448E+03  0.00000000000E+00 0. -1.
<mgrwt>
<rscale>  0 0.79815847E+03</rscale>
<asrwt>0</asrwt>
<pdfrwt beam="1">  1        1 0.98598011E-01 0.79815847E+03</pdfrwt>
<pdfrwt beam="2">  1       -1 0.38231681E-01 0.79815847E+03</pdfrwt>
<totfact> 0.20788946E+02</totfact>
</mgrwt>
</event>
<event>
 6    1  0.9906445E-006  0.3439042E+04  0.7818608E-02  0.8128390E-01
          2   -1    0    0  501    0  0.00000000000E+00  0.00000000000E+00  0.13725317446E+04  0.13725317446E+04  0.00000000000E+00 0. -1.
         -2   -1    0    0    0  501 -0.00000000000E+00 -0.00000000000E+00 -0.21542320670E+04  0.21542320670E+04  0.00000000000E+00 0.  1.
         23    2    1    2    0    0  0.10252884042E+04  0.48975524359E+03  0.93073346731E+03  0.14716467846E+04  0.91667666296E+02 0.  0.
         13    1    3    3    0    0  0.40044903319E+03  0.16990858290E+03  0.30482455609E+03  0.53117451437E+03  0.00000000000E+00 0.  1.
        -13    1    3    3    0    0  0.62483937101E+03  0.31984666068E+03  0.62590891122E+03  0.94047227022E+03  0.00000000000E+00 0. -1.
         22    1    1    2    0    0 -0.10252884042E+04 -0.48975524359E+03 -0.17124337897E+04  0.20551170270E+04  0.00000000000E+00 0. -1.
<mgrwt>
<rscale>  0 0.34390417E+04</rscale>
<asrwt>0</asrwt>
<pdfrwt beam="1">  1        2 0.21115873E+00 0.34390417E+04</pdfrwt>
<pdfrwt beam="2">  1       -2 0.33142032E+00 0.34390417E+04</pdfrwt>
<totfact> 0.25198734E-01</totfact>
</mgrwt>
</event>
<event>
 6    1  0.9906445E-006  0.3753968E+04  0.7818608E-02  0.8056106E-01
          1   -1    0    0  501    0  0.00000000000E+00  0.00000000000E+00  0.20723380212E+04  0.20723380212E+04  0.00000000000E+00 0. -1.
         -1   -1    0    0    0  501 -0.00000000000E+00 -0.00000000000E+00 -0.17000451944E+04  0.17000451944E+04  0.00000000000E+00 0.  1.
         23    2    1    2    0    0 -0.14702631269E+03 -0.77215626744E+03  0.18979102901E+04  0.20561808143E+04  0.89297447160E+02 0.  0.
         11    1    3    3    0    0 -0.99747305518E+02 -0.62483282501E+03  0.15979921825E+04  0.17187043374E+04  0.00000000000E+00 0. -1.
        -11    1    3    3    0    0 -0.47279007172E+02 -0.14732344243E+03  0.29991810757E+03  0.33747647689E+03  0.00000000000E+00 0.  1.
         22    1    1    2    0    0  0.14702631269E+03  0.77215626744E+03 -0.15256174633E+04  0.17162024013E+04  0.00000000000E+00 0.  1.
<mgrwt>
<rscale>  0 0.37539677E+04</rscale>
<asrwt>0</asrwt>
<pdfrwt beam="1">  1        1 0.31882123E+00 0.37539677E+04</pdfrwt>
<pdfrwt beam="2">  1       -1 0.26154542E+00 0.37539677E+04</pdfrwt>
<totfact> 0.12463191E-01</totfact>
</mgrwt>
</event>
<event>
 6    1  0.9906445E-006  0.1568601E+04  0.7818608E-02  0.8840073E-01
          2   -1    0    0  501    0  0.00000000000E+00  0.00000000000E+00  0.17933570238E+04  0.17933570238E+04  0.00000000000E+00 0. -1.
         -2   -1    0    0    0  501 -0.00000000000E+00 -0.00000000000E+00 -0.34300335260E+03  0.34300335260E+03  0.00000000000E+00 0.  1.
         23    2    1    2    0    0  0.59298179443E+03  0.46545466282E+03  0.44442857272E+03  0.87931592395E+03  0.86048162176E+02 0.  0.
         11    1    3    3    0    0  0.18575790959E+03  0.18068931129E+03  0.11775950914E+03  0.28464351421E+03  0.00000000000E+00 0. -1.
        -11    1    3    3    0    0  0.40722388484E+03  0.28476535153E+03  0.32666906358E+03  0.59467240974E+03  0.00000000000E+00 0.  1.
         22    1    1    2    0    0 -0.59298179443E+03 -0.46545466282E+03  0.10059250985E+04  0.12570444524E+04  0.00000000000E+00 0. -1.
<mgrwt>
<rscale>  0 0.15686013E+04</rscale>
<asrwt>0</asrwt>
<pdfrwt beam="1">  1        2 0.27590108E+00 0.15686013E+04</pdfrwt>
<pdfrwt beam="2">  1       -2 0.52769748E-01 0.15686013E+04</pdfrwt>
<totfact> 0.28335159E+01</totfact>
</mgrwt>
</event>
<event>
 6    1  0.9906445E-006  0.2020523E+04  0.7818608E-02  0.8597085E-01
          1   -1    0    0  501    0  0.00000000000E+00  0.00000000000E+00  0.22139675945E+04  0.22139675945E+04  0.00000000000E+00 0. -1.
         -1   -1    0    0    0  501 -0.00000000000E+00 -0.00000000000E+00 -0.46099522685E+03  0.46099522685E+03  0.00000000000E+00 0.  1.
         23    2    1    2    0    0  0.52699418758E+03  0.96686034471E+02 -0.25249690089E+03  0.59915501472E+03  0.90338163031E+02 0.  0.
         13    1    3    3    0    0  0.71485197958E+01  0.22155008604E+01 -0.21022349520E+02  0.22314769967E+02  0.00000000000E+00 0. -1.
        -13    1    3    3    0    0  0.51984566779E+03  0.94470533611E+02 -0.23147455137E+03  0.57684024476E+03  0.00000000000E+00 0.  1.
         22    1    1    2    0    0 -0.52699418758E+03 -0.96686034471E+02  0.20054692686E+04  0.20758078067E+04  0.00000000000E+00 0. -1.
<mgrwt>
<rscale>  0 0.20205232E+04</rscale>
<asrwt>0</asrwt>
<pdfrwt beam="1">  1        1 0.34061039E+00 0.20205232E+04</pdfrwt>
<pdfrwt beam="2">  1       -1 0.70922344E-01 0.20205232E+04</pdfrwt>
<totfact> 0.39637216E+00</totfact>
</mgrwt>
</event>
<event>
 6    1  0.9906445E-006  0.4150149E+04  0.7818608E-02  0.7974923E-01
         -2   -1    0    0    0  501 -0.00000000000E+00  0.00000000000E+00  0.25294706312E+04  0.25294706312E+04  0.00000000000E+00 0.  1.
          2   -1    0    0  501    0  0.00000000000E+00 -0.00000000000E+00 -0.17023067517E+04  0.17023067517E+04  0.00000000000E+00 0. -1.
         23    2    1    2    0    0  0.12528689808E+04  0.78093356425E+03  0.18992269144E+04  0.24072618127E+04  0.91151785273E+02 0.  0.
         11    1    3    3    0    0  0.11542023564E+04  0.73928537445E+03  0.17870437792E+04  0.22521659382E+04  0.00000000000E+00 0. -1.
        -11    1    3    3    0    0  0.98666624380E+02  0.41648189805E+02  0.11218313522E+03  0.15509587457E+03  0.00000000000E+00 0.  1.
         22    1    1    2    0    0 -0.12528689808E+04 -0.78093356425E+03 -0.10720630349E+04  0.18245155701E+04  0.00000000000E+00 0. -1.
<mgrwt>
<rscale>  0 0.41501494E+04</rscale>
<asrwt>0</asrwt>
<pdfrwt beam="1">  1        2 0.26189335E+00 0.41501494E+04</pdfrwt>
<pdfrwt beam="2">  1       -2 0.38914933E+00 0.41501494E+04</pdfrwt>
<totfact> 0.66550240E-02</totfact>
</mgrwt>
</event>
<event>
 6    1  0.9906445E-006  0.3007592E+04  0.7818608E-02  0.8241566E-01
          2   -1    0    0  501    0  0.00000000000E+00  0.00000000000E+00  0.30305186557E+04  0.30305186557E+04  0.00000000000E+00 0.  1.
         -2   -1    0    0    0  501 -0.00000000000E+00 -0.00000000000E+00 -0.74620971591E+03  0.74620971591E+03  0.00000000000E+00 0. -1.
         23    2    1    2    0    0  0.50361264110E+03  0.61440837178E+03 -0.45985270674E+03  0.91988632454E+03  0.60024983050E+02 0.  0.
         13    1    3    3    0    0  0.46977763058E+03  0.55584303404E+03 -0.43477094085E+03  0.84774894378E+03  0.00000000000E+00 0. -1.
        -13    1    3    3    0    0  0.33835010520E+02  0.58565337747E+02 -0.25081765885E+02  0.72137380755E+02  0.00000000000E+00 0.  1.
         22    1    1    2    0    0 -0.50361264110E+03 -0.61440837178E+03  0.27441616465E+04  0.28568420471E+04  0.00000000000E+00 0.  1.
<mgrwt>
<rscale>  0 0.30075920E+04</rscale>
<asrwt>0</asrwt>
<pdfrwt beam="1">  1        2 0.46623363E+00 0.30075920E+04</pdfrwt>
<pdfrwt beam="2">  1       -2 0.11480150E+00 0.30075920E+04</pdfrwt>
<totfact> 0.84333791E-01</totfact>
</mgrwt>
</event>
<event>
 6    1  0.9906445E-006  0.6410933E+03  0.7818608E-02  0.9823637E-01
          4   -1    0    0  501    0  0.00000000000E+00  0.00000000000E+00  0.89790139838E+03  0.89790139838E+03  0.00000000000E+00 0. -1.
         -4   -1    0    0    0  501 -0.00000000000E+00 -0.00000000000E+00 -0.11443365642E+03  0.11443365642E+03  0.00000000000E+00 0.  1.
         23    2    1    2    0    0  0.10429850289E+03 -0.27011387745E+03  0.58939506765E+03  0.66376097743E+03  0.96707832640E+02 0.  0.
         13    1    3    3    0    0  0.69194918554E+02 -0.65913146502E+02  0.22737940236E+03  0.24664523561E+03  0.00000000000E+00 0.  1.
        -13    1    3    3    0    0  0.35103584337E+02 -0.20420073095E+03  0.36201566530E+03  0.41711574182E+03  0.00000000000E+00 0. -1.
         22    1    1    2    0    0 -0.10429850289E+03  0.27011387745E+03  0.19407267431E+03  0.34857407737E+03  0.00000000000E+00 0.  1.
<mgrwt>
<rscale>  0 0.64109325E+03</rscale>
<asrwt>0</asrwt>
<pdfrwt beam="1">  1        4 0.13813867E+00 0.64109325E+03</pdfrwt>
<pdfrwt beam="2">  1       -4 0.17605178E-01 0.64109325E+03</pdfrwt>
<totfact> 0.21447871E+01</totfact>
</mgrwt>
</event>
<event>
 6    1  0.9906445E-006  0.2051107E+04  0.7818608E-02  0.8583092E-01
         -2   -1    0    0    0  501 -0.00000000000E+00  0.00000000000E+00  0.83265864960E+03  0.83265864960E+03  0.00000000000E+00 0.  1.
          2   -1    0    0  501    0  0.00000000000E+00 -0.00000000000E+00 -0.12631347500E+04  0.12631347500E+04  0.00000000000E+00 0. -1.
         23    2    1    2    0    0  0.75541306562E+03  0.42170645469E+03 -0.77431761246E+03  0.11648195980E+04  0.93550507208E+02 0.  0.
         11    1    3    3    0    0  0.49246557263E+03  0.30507264217E+03 -0.46914921774E+03  0.74544794972E+03  0.00000000000E+00 0.  1.
        -11    1    3    3    0    0  0.26294749299E+03  0.11663381252E+03 -0.30516839471E+03  0.41937164833E+03  0.00000000000E+00 0. -1.
         22    1    1    2    0    0 -0.75541306562E+03 -0.42170645469E+03  0.34384151211E+03  0.93097380150E+03  0.00000000000E+00 0.  1.
<mgrwt>
<rscale>  0 0.20511071E+04</rscale>
<asrwt>0</asrwt>
<pdfrwt beam="1">  1        2 0.19432842E+00 0.20511071E+04</pdfrwt>
<pdfrwt beam="2">  1       -2 0.12810133E+00 0.20511071E+04</pdfrwt>
<totfact> 0.72477239E+00</totfact>
</mgrwt>
</event>
<event>
 6    1  0.9906445E-006  0.1889391E+04  0.7818608E-02  0.8660155E-01
          1   -1    0    0  501    0  0.00000000000E+00  0.00000000000E+00  0.57534229646E+03  0.57534229646E+03  0.00000000000E+00 0. -1.
         -1   -1    0    0    0  501 -0.00000000000E+00 -0.00000000000E+00 -0.15511635944E+04  0.15511635944E+04  0.00000000000E+00 0.  1.
         23    2    1    2    0    0  0.60388512131E+03 -0.63672506284E+03 -0.87592110170E+03  0.12432867252E+04  0.91804461765E+02 0.  0.
         11    1    3    3    0    0  0.43791628510E+03 -0.47846627312E+03 -0.59050117450E+03  0.87715009226E+03  0.00000000000E+00 0. -1.
        -11    1    3    3    0    0  0.16596883621E+03 -0.15825878972E+03 -0.28541992721E+03  0.36613663292E+03  0.00000000000E+00 0.  1.
         22    1    1    2    0    0 -0.60388512131E+03  0.63672506284E+03 -0.99900196226E+02  0.88321916566E+03  0.00000000000E+00 0. -1.
<mgrwt>
<rscale>  0 0.18893915E+04</rscale>
<asrwt>0</asrwt>
<pdfrwt beam="1">  1        1 0.88514200E-01 0.18893915E+04</pdfrwt>
<pdfrwt beam="2">  1       -1 0.23864055E+00 0.18893915E+04</pdfrwt>
<totfact> 0.28195079E+00</totfact>
</mgrwt>
</event>
<event>
 6    1  0.9906445E-006  0.2629139E+04  0.7818608E-02  0.8358370E-01
         -2   -1    0    0    0  501 -0.00000000000E+00  0.00000000000E+00  0.78358936692E+03  0.78358936692E+03  0.00000000000E+00 0.  1.
          2   -1    0    0  501    0  0.00000000000E+00 -0.00000000000E+00 -0.22053545558E+04  0.22053545558E+04  0.00000000000E+00 0. -1.
         23    2    1    2    0    0  0.28213358738E+03  0.55028084633E+03  0.60491741359E+03  0.87001713254E+03  0.92716571778E+02 0.  0.
         13    1    3    3    0    0  0.12162224774E+02  0.88521985432E+01  0.83796448269E+00  0.15065965451E+02  0.00000000000E+00 0. -1.
        -13    1    3    3    0    0  0.26997136261E+03  0.54142864779E+03  0.60407944911E+03  0.85495116709E+03  0.00000000000E+00 0.  1.
         22    1    1    2    0    0 -0.28213358738E+03 -0.55028084633E+03 -0.20266826025E+04  0.21189267902E+04  0.00000000000E+00 0. -1.
<mgrwt>
<rscale>  0 0.26291386E+04</rscale>
<asrwt>0</asrwt>
<pdfrwt beam="1">  1        2 0.33928531E+00 0.26291386E+04</pdfrwt>
<pdfrwt beam="2">  1       -2 0.12055221E+00 0.26291386E+04</pdfrwt>
<totfact> 0.23753700E+00</totfact>
</mgrwt>
</event>
<event>
 6    1  0.9906445E-006  0.2742894E+04  0.7818608E-02  0.8321220E-01
          2   -1    0    0  501    0  0.00000000000E+00  0.00000000000E+00  0.16434292986E+04  0.16434292986E+04  0.00000000000E+00 0. -1.
         -2   -1    0    0    0  501 -0.00000000000E+00 -0.00000000000E+00 -0.11444772758E+04  0.11444772758E+04  0.00000000000E+00 0.  1.
         23    2    1    2    0    0  0.56080721924E+03 -0.72239233428E+03  0.12864459231E+04  0.15810503010E+04  0.91768837916E+02 0.  0.
         11    1    3    3    0    0  0.30987984575E+03 -0.33721382835E+03  0.59775017587E+03  0.75302321185E+03  0.00000000000E+00 0.  1.
        -11    1    3    3    0    0  0.25092737349E+03 -0.38517850593E+03  0.68869574720E+03  0.82802708918E+03  0.00000000000E+00 0. -1.
         22    1    1    2    0    0 -0.56080721924E+03  0.72239233428E+03 -0.78749390019E+03  0.12068562734E+04  0.00000000000E+00 0.  1.
<mgrwt>
<rscale>  0 0.27428944E+04</rscale>
<asrwt>0</asrwt>
<pdfrwt beam="1">  1        2 0.25283528E+00 0.27428944E+04</pdfrwt>
<pdfrwt beam="2">  1       -2 0.17607343E+00 0.27428944E+04</pdfrwt>
<totfact> 0.17805249E+00</totfact>
</mgrwt>
</event>
<event>
 6    1  0.9906445E-006  0.1511683E+04  0.7818608E-02  0.8876721E-01
         -1   -1    0    0    0  501 -0.00000000000E+00  0.00000000000E+00  0.42352399724E+03  0.42352399724E+03  0.00000000000E+00 0.  1.
          1   -1    0    0  501    0  0.00000000000E+00 -0.00000000000E+00 -0.13489112353E+04  0.13489112353E+04  0.00000000000E+00 0. -1.
         23    2    1    2    0    0  0.60683720883E+03 -0.25455484605E+02 -0.98645143009E+03  0.11620024227E+04  0.90905592667E+02 0.  0.
         13    1    3    3    0    0  0.19114747725E+03 -0.18793966265E+02 -0.23798712581E+03  0.30582420322E+03  0.00000000000E+00 0. -1.
        -13    1    3    3    0    0  0.41568973158E+03 -0.66615183396E+01 -0.74846430428E+03  0.85617821951E+03  0.00000000000E+00 0.  1.
         22    1    1    2    0    0 -0.60683720883E+03  0.25455484605E+02  0.61064192057E+02  0.61043280979E+03  0.00000000000E+00 0.  1.
<mgrwt>
<rscale>  0 0.15116829E+04</rscale>
<asrwt>0</asrwt>
<pdfrwt beam="1">  1        1 0.20752481E+00 0.15116829E+04</pdfrwt>
<pdfrwt beam="2">  1       -1 0.65157537E-01 0.15116829E+04</pdfrwt>
<totfact> 0.19265761E+01</totfact>
</mgrwt>
</event>
<event>
 6    1  0.9906445E-006  0.5045899E+04  0.7818608E-02  0.7821466E-01
         -1   -1    0    0    0  501 -0.00000000000E+00  0.00000000000E+00  0.24007609684E+04  0.24007609684E+04  0.00000000000E+00 0.  1.
          1   -1    0    0  501    0  0.00000000000E+00 -0.00000000000E+00 -0.26513571891E+04  0.26513571891E+04  0.00000000000E+00 0. -1.
         23    2    1    2    0    0 -0.17032702639E+04 -0.10590601001E+04  0.14057134392E+04  0.24509454265E+04  0.91462139121E+02 0.  0.
         11    1    3    3    0    0 -0.98309658362E+03 -0.60524367603E+03  0.75407101134E+03  0.13789205525E+04  0.00000000000E+00 0.  1.
        -11    1    3    3    0    0 -0.72017368028E+03 -0.45381642406E+03  0.65164242786E+03  0.10720248739E+04  0.00000000000E+00 0. -1.
         22    1    1    2    0    0  0.17032702639E+04  0.10590601001E+04 -0.16563096599E+04  0.26011727311E+04  0.00000000000E+00 0. -1.
<mgrwt>
<rscale>  0 0.50458993E+04</rscale>
<asrwt>0</asrwt>
<pdfrwt beam="1">  1        1 0.40790111E+00 0.50458993E+04</pdfrwt>
<pdfrwt beam="2">  1       -1 0.36934784E+00 0.50458993E+04</pdfrwt>
<totfact> 0.88190787E-03</totfact>
</mgrwt>
</event>
<event>
 6    1  0.9906445E-006  0.3494958E+04  0.7818608E-02  0.8114986E-01
          2   -1    0    0  501    0  0.00000000000E+00  0.00000000000E+00  0.23617240686E+04  0.23617240686E+04  0.00000000000E+00 0.  1.
         -2   -1    0    0    0  501 -0.00000000000E+00 -0.00000000000E+00 -0.12929888801E+04  0.12929888801E+04  0.00000000000E+00 0. -1.
         23    2    1    2    0    0  0.55306435325E+03  0.83493741829E+03 -0.96126798174E+03  0.13911066353E+04  0.90226751101E+02 0.  0.
         13    1    3    3    0    0  0.20990841818E+03  0.28028260951E+03 -0.28416810368E+03  0.45096717881E+03  0.00000000000E+00 0.  1.
        -13    1    3    3    0    0  0.34315593507E+03  0.55465480878E+03 -0.67709987807E+03  0.94013945644E+03  0.00000000000E+00 0. -1.
         22    1    1    2    0    0 -0.55306435325E+03 -0.83493741829E+03  0.20300031703E+04  0.22636063135E+04  0.00000000000E+00 0.  1.
<mgrwt>
<rscale>  0 0.34949581E+04</rscale>
<asrwt>0</asrwt>
<pdfrwt beam="1">  1        2 0.36334216E+00 0.34949581E+04</pdfrwt>
<pdfrwt beam="2">  1       -2 0.19892137E+00 0.34949581E+04</pdfrwt>
<totfact> 0.46465460E-01</totfact>
</mgrwt>
</event>
<event>
 6    1  0.9906445E-006  0.1565987E+04  0.7818608E-02  0.8841720E-01
         -1   -1    0    0    0  501 -0.00000000000E+00  0.00000000000E+00  0.32436369660E+03  0.32436369660E+03  0.00000000000E+00 0.  1.
          1   -1    0    0  501    0  0.00000000000E+00 -0.00000000000E+00 -0.18900962992E+04  0.18900962992E+04  0.00000000000E+00 0. -1.
         23    2    1    2    0    0  0.42089945096E+03 -0.40092668274E+03 -0.49298774737E+02  0.59043102222E+03  0.90993791368E+02 0.  0.
         11    1    3    3    0    0  0.39346985540E+02 -0.17382205705E+02  0.15135139982E+02  0.45600425531E+02  0.00000000000E+00 0.  1.
        -11    1    3    3    0    0  0.38155246542E+03 -0.38354447703E+03 -0.64433914720E+02  0.54483059669E+03  0.00000000000E+00 0. -1.
         22    1    1    2    0    0 -0.42089945096E+03  0.40092668274E+03 -0.15164338279E+04  0.16240289736E+04  0.00000000000E+00 0. -1.
<mgrwt>
<rscale>  0 0.15659867E+04</rscale>
<asrwt>0</asrwt>
<pdfrwt beam="1">  1        1 0.29078404E+00 0.15659867E+04</pdfrwt>
<pdfrwt beam="2">  1       -1 0.49902107E-01 0.15659867E+04</pdfrwt>
<totfact> 0.13720972E+01</totfact>
</mgrwt>
</event>
<event>
 6    1  0.9906445E-006  0.3088095E+04  0.7818608E-02  0.8219013E-01
         -1   -1    0    0    0  501 -0.00000000000E+00  0.00000000000E+00  0.19535362420E+04  0.19535362420E+04  0.00000000000E+00 0.  1.
          1   -1    0    0  501    0  0.00000000000E+00 -0.00000000000E+00 -0.12203932263E+04  0.12203932263E+04  0.00000000000E+00 0. -1.
         23    2    1    2    0    0  0.42114282664E+03  0.11883720631E+04 -0.54674482478E+03  0.13773487367E+04  0.92575365446E+02 0.  0.
         13    1    3    3    0    0  0.33368287018E+03  0.10324271447E+04 -0.48098353848E+03  0.11868425470E+04  0.00000000000E+00 0. -1.
        -13    1    3    3    0    0  0.87459956458E+02  0.15594491844E+03 -0.65761286301E+02  0.19050618978E+03  0.00000000000E+00 0.  1.
         22    1    1    2    0    0 -0.42114282664E+03 -0.11883720631E+04  0.12798878405E+04  0.17965807316E+04  0.00000000000E+00 0.  1.
<mgrwt>
<rscale>  0 0.30880948E+04</rscale>
<asrwt>0</asrwt>
<pdfrwt beam="1">  1        1 0.18775280E+00 0.30880948E+04</pdfrwt>
<pdfrwt beam="2">  1       -1 0.30054404E+00 0.30880948E+04</pdfrwt>
<totfact> 0.28566370E-01</totfact>
</mgrwt>
</event>
<event>
 6    1  0.9906445E-006  0.2017066E+04  0.7818608E-02  0.8598683E-01
         -2   -1    0    0    0  501 -0.00000000000E+00  0.00000000000E+00  0.72462040956E+03  0.72462040956E+03  0.00000000000E+00 0.  1.
          2   -1    0    0  501    0  0.00000000000E+00 -0.00000000000E+00 -0.14036852031E+04  0.14036852031E+04  0.00000000000E+00 0. -1.
         23    2    1    2    0    0  0.67726518107E+03 -0.45524858189E+03 -0.96172551394E+03  0.12646873638E+04  0.92621635220E+02 0.  0.
         11    1    3    3    0    0  0.28226407375E+03 -0.19977787540E+03 -0.33904752062E+03  0.48429064421E+03  0.00000000000E+00 0.  1.
        -11    1    3    3    0    0  0.39500110732E+03 -0.25547070649E+03 -0.62267799332E+03  0.78039671964E+03  0.00000000000E+00 0. -1.
         22    1    1    2    0    0 -0.67726518107E+03  0.45524858189E+03  0.28266072041E+03  0.86361824881E+03  0.00000000000E+00 0.  1.
<mgrwt>
<rscale>  0 0.20170661E+04</rscale>
<asrwt>0</asrwt>
<pdfrwt beam="1">  1        2 0.21595157E+00 0.20170661E+04</pdfrwt>
<pdfrwt beam="2">  1       -2 0.11148006E+00 0.20170661E+04</pdfrwt>
<totfact> 0.84993278E+00</totfact>
</mgrwt>
</event>
<event>
 6    1  0.9906445E-006  0.3674897E+04  0.7818608E-02  0.8073548E-01
         -1   -1    0    0    0  501 -0.00000000000E+00  0.00000000000E+00  0.92281421512E+03  0.92281421512E+03  0.00000000000E+00 0.  1.
          1   -1    0    0  501    0  0.00000000000E+00 -0.00000000000E+00 -0.36586104873E+04  0.36586104873E+04  0.00000000000E+00 0. -1.
         23    2    1    2    0    0 -0.10725562845E+04 -0.10260394155E+03 -0.32225300700E+04  0.33991327156E+04  0.92187925651E+02 0.  0.
         11    1    3    3    0    0 -0.77894544302E+03 -0.45638225508E+02 -0.24199406442E+04  0.25426269039E+04  0.00000000000E+00 0.  1.
        -11    1    3    3    0    0 -0.29361084149E+03 -0.56965716042E+02 -0.80258942580E+03  0.85650581169E+03  0.00000000000E+00 0. -1.
         22    1    1    2    0    0  0.10725562845E+04  0.10260394155E+03  0.48673379783E+03  0.11822919869E+04  0.00000000000E+00 0.  1.
<mgrwt>
<rscale>  0 0.36748974E+04</rscale>
<asrwt>0</asrwt>
<pdfrwt beam="1">  1        1 0.56286316E+00 0.36748974E+04</pdfrwt>
<pdfrwt beam="2">  1       -1 0.14197142E+00 0.36748974E+04</pdfrwt>
<totfact> 0.60469194E-02</totfact>
</mgrwt>
</event>
<event>
 6    1  0.9906445E-006  0.3478670E+04  0.7818608E-02  0.8118863E-01
         -2   -1    0    0    0  501 -0.00000000000E+00  0.00000000000E+00  0.11983084022E+04  0.11983084022E+04  0.00000000000E+00 0.  1.
          2   -1    0    0  501    0  0.00000000000E+00 -0.00000000000E+00 -0.25246310607E+04  0.25246310607E+04  0.00000000000E+00 0. -1.
         23    2    1    2    0    0 -0.31257928640E+03  0.17093883264E+04 -0.62294593056E+03  0.18482520004E+04  0.90882142043E+02 0.  0.
         13    1    3    3    0    0 -0.24324654550E+03  0.14742813257E+04 -0.51573394733E+03  0.15807137039E+04  0.00000000000E+00 0. -1.
        -13    1    3    3    0    0 -0.69332740902E+02  0.23510700069E+03 -0.10721198323E+03  0.26753829648E+03  0.00000000000E+00 0.  1.
         22    1    1    2    0    0  0.31257928640E+03 -0.17093883264E+04 -0.70337672788E+03  0.18746874625E+04  0.00000000000E+00 0.  1.
<mgrwt>
<rscale>  0 0.34786702E+04</rscale>
<asrwt>0</asrwt>
<pdfrwt beam="1">  1        2 0.38840478E+00 0.34786702E+04</pdfrwt>
<pdfrwt beam="2">  1       -2 0.18435514E+00 0.34786702E+04</pdfrwt>
<totfact> 0.46921044E-01</totfact>
</mgrwt>
</event>
<event>
 6    1  0.9906445E-006  0.1045968E+04  0.7818608E-02  0.9259516E-01
         -1   -1    0    0    0  501 -0.00000000000E+00  0.00000000000E+00  0.10346758537E+03  0.10346758537E+03  0.00000000000E+00 0.  1.
          1   -1    0    0  501    0  0.00000000000E+00 -0.00000000000E+00 -0.26434606363E+04  0.26434606363E+04  0.00000000000E+00 0. -1.
         23    2    1    2    0    0 -0.47864516516E+03 -0.16546832229E+03 -0.15782206776E+04  0.16599659142E+04  0.90693821304E+02 0.  0.
         11    1    3    3    0    0 -0.20870930823E+03 -0.72558671949E+02 -0.54656214456E+03  0.58953754255E+03  0.00000000000E+00 0. -1.
        -11    1    3    3    0    0 -0.26993585693E+03 -0.92909650345E+02 -0.10316585331E+04  0.10704283716E+04  0.00000000000E+00 0.  1.
         22    1    1    2    0    0  0.47864516516E+03  0.16546832229E+03 -0.96177237331E+03  0.10869623075E+04  0.00000000000E+00 0. -1.
<mgrwt>
<rscale>  0 0.10459684E+04</rscale>
<asrwt>0</asrwt>
<pdfrwt beam="1">  1        1 0.40668631E+00 0.10459684E+04</pdfrwt>
<pdfrwt beam="2">  1       -1 0.15918088E-01 0.10459684E+04</pdfrwt>
<totfact> 0.32538994E+01</totfact>
</mgrwt>
</event>
<event>
 6    1  0.9906445E-006  0.2673612E+04  0.7818608E-02  0.8343618E-01
          2   -1    0    0  501    0  0.00000000000E+00  0.00000000000E+00  0.37429635581E+04  0.37429635581E+04  0.00000000000E+00 0. -1.
         -2   -1    0    0    0  501 -0.00000000000E+00 -0.00000000000E+00 -0.47744266052E+03  0.47744266052E+03  0.00000000000E+00 0.  1.
         23    2    1    2    0    0 -0.33478247450E+03  0.66888757547E+03 -0.11133350977E+03  0.76170189731E+03  0.91130324887E+02 0.  0.
         13    1    3    3    0    0 -0.19566906895E+03  0.28982921873E+03 -0.55869875036E+02  0.35413105415E+03  0.00000000000E+00 0. -1.
        -13    1    3    3    0    0 -0.13911340555E+03  0.37905835674E+03 -0.55463634735E+02  0.40757084316E+03  0.00000000000E+00 0.  1.
         22    1    1    2    0    0  0.33478247450E+03 -0.66888757547E+03  0.33768544074E+04  0.34587043213E+04  0.00000000000E+00 0. -1.
<mgrwt>
<rscale>  0 0.26736121E+04</rscale>
<asrwt>0</asrwt>
<pdfrwt beam="1">  1        2 0.57584053E+00 0.26736121E+04</pdfrwt>
<pdfrwt beam="2">  1       -2 0.73452719E-01 0.26736121E+04</pdfrwt>
<totfact> 0.79800519E-01</totfact>
</mgrwt>
</event>
<event>
 6    1  0.9906445E-006  0.1588013E+04  0.7818608E-02  0.8827946E-01
         -2   -1    0    0    0  501 -0.00000000000E+00  0.00000000000E+00  0.52185525743E+03  0.52185525743E+03  0.00000000000E+00 0.  1.
          2   -1    0    0  501    0  0.00000000000E+00 -0.00000000000E+00 -0.12080866699E+04  0.12080866699E+04  0.00000000000E+00 0. -1.
         23    2    1    2    0    0 -0.14470840102E+03 -0.54473481780E+03  0.26081049479E+03  0.62786891833E+03  0.92307753519E+02 0.  0.
         13    1    3    3    0    0 -0.10146414621E+03 -0.22040840391E+03  0.13206887200E+03  0.27625536091E+03  0.00000000000E+00 0. -1.
        -13    1    3    3    0    0 -0.43244254809E+02 -0.32432641389E+03  0.12874162280E+03  0.35161355742E+03  0.00000000000E+00 0.  1.
         22    1    1    2    0    0  0.14470840102E+03  0.54473481780E+03 -0.94704190725E+03  0.11020730090E+04  0.00000000000E+00 0. -1.
<mgrwt>
<rscale>  0 0.15880131E+04</rscale>
<asrwt>0</asrwt>
<pdfrwt beam="1">  1        2 0.18585949E+00 0.15880131E+04</pdfrwt>
<pdfrwt beam="2">  1       -2 0.80285425E-01 0.15880131E+04</pdfrwt>
<totfact> 0.24656016E+01</totfact>
</mgrwt>
</event>
<event>
 6    1  0.9906445E-006  0.3904740E+04  0.7818608E-02  0.8024044E-01
          2   -1    0    0  501    0  0.00000000000E+00  0.00000000000E+00  0.40177358121E+04  0.40177358121E+04  0.00000000000E+00 0. -1.
         -2   -1    0    0    0  501 -0.00000000000E+00 -0.00000000000E+00 -0.94873056460E+03  0.94873056460E+03  0.00000000000E+00 0.  1.
         23    2    1    2    0    0 -0.94947823490E+03  0.43670280829E+03 -0.56057354358E+03  0.11894224980E+04  0.90911603069E+02 0.  0.
         13    1    3    3    0    0 -0.48899642065E+03  0.27404385663E+03 -0.30861880443E+03  0.63989303889E+03  0.00000000000E+00 0.  1.
        -13    1    3    3    0    0 -0.46048181425E+03  0.16265895165E+03 -0.25195473915E+03  0.54952945907E+03  0.00000000000E+00 0. -1.
         22    1    1    2    0    0  0.94947823490E+03 -0.43670280829E+03  0.36295787910E+04  0.37770438787E+04  0.00000000000E+00 0. -1.
<mgrwt>
<rscale>  0 0.39047401E+04</rscale>
<asrwt>0</asrwt>
<pdfrwt beam="1">  1        2 0.61811319E+00 0.39047401E+04</pdfrwt>
<pdfrwt beam="2">  1       -2 0.14595855E+00 0.39047401E+04</pdfrwt>
<totfact> 0.84421575E-02</totfact>
</mgrwt>
</event>
<event>
 6    1  0.9906445E-006  0.5812740E+03  0.7818608E-02  0.9945037E-01
          2   -1    0    0  501    0  0.00000000000E+00  0.00000000000E+00  0.49620584192E+03  0.49620584192E+03  0.00000000000E+00 0. -1.
         -2   -1    0    0    0  501 -0.00000000000E+00 -0.00000000000E+00 -0.17023148702E+03  0.17023148702E+03  0.00000000000E+00 0.  1.
         23    2    1    2    0    0  0.21337132347E+03 -0.11088333538E+03 -0.43940996162E+01  0.25782290007E+03  0.92902658439E+02 0.  0.
         13    1    3    3    0    0  0.16848273377E+03 -0.12466086655E+03  0.62337520958E+01  0.20967981041E+03  0.00000000000E+00 0. -1.
        -13    1    3    3    0    0  0.44888589697E+02  0.13777531169E+02 -0.10627851712E+02  0.48143089661E+02  0.00000000000E+00 0.  1.
         22    1    1    2    0    0 -0.21337132347E+03  0.11088333538E+03  0.33036845452E+03  0.40861442887E+03  0.00000000000E+00 0. -1.
<mgrwt>
<rscale>  0 0.58127397E+03</rscale>
<asrwt>0</asrwt>
<pdfrwt beam="1">  1        2 0.76339360E-01 0.58127397E+03</pdfrwt>
<pdfrwt beam="2">  1       -2 0.26189460E-01 0.58127397E+03</pdfrwt>
<totfact> 0.82197697E+02</totfact>
</mgrwt>
</event>
<event>
 6    1  0.9906445E-006  0.2121406E+04  0.7818608E-02  0.8551872E-01
          2   -1    0    0  501    0  0.00000000000E+00  0.00000000000E+00  0.89709507346E+03  0.89709507346E+03  0.00000000000E+00 0. -1.
         -2   -1    0    0    0  501 -0.00000000000E+00 -0.00000000000E+00 -0.12541483945E+04  0.12541483945E+04  0.00000000000E+00 0.  1.
         23    2    1    2    0    0 -0.63018850276E+03 -0.81603614191E+03 -0.42292232405E+03  0.11180971765E+04  0.90694377012E+02 0.  0.
         11    1    3    3    0    0 -0.19320716640E+03 -0.18555186443E+03 -0.10547923882E+03  0.28789646292E+03  0.00000000000E+00 0. -1.
        -11    1    3    3    0    0 -0.43698133636E+03 -0.63048427749E+03 -0.31744308523E+03  0.83020071359E+03  0.00000000000E+00 0.  1.
         22    1    1    2    0    0  0.63018850276E+03  0.81603614191E+03  0.65869003038E+02  0.10331462914E+04  0.00000000000E+00 0. -1.
<mgrwt>
<rscale>  0 0.21214055E+04</rscale>
<asrwt>0</asrwt>
<pdfrwt beam="1">  1        2 0.13801463E+00 0.21214055E+04</pdfrwt>
<pdfrwt beam="2">  1       -2 0.19294591E+00 0.21214055E+04</pdfrwt>
<totfact> 0.40120023E+00</totfact>
</mgrwt>
</event>
<event>
 6    1  0.9906445E-006  0.2263212E+04  0.7818608E-02  0.8492569E-01
         -2   -1    0    0    0  501 -0.00000000000E+00  0.00000000000E+00  0.95959625911E+03  0.95959625911E+03  0.00000000000E+00 0.  1.
          2   -1    0    0  501    0  0.00000000000E+00 -0.00000000000E+00 -0.13344486950E+04  0.13344486950E+04  0.00000000000E+00 0. -1.
         23    2    1    2    0    0 -0.32025011829E+03  0.46125595275E+03 -0.11814951834E+04  0.13111971966E+04  0.89386955388E+02 0.  0.
         11    1    3    3    0    0 -0.27105068402E+03  0.42818283224E+03 -0.10152635021E+04  0.11347109719E+04  0.00000000000E+00 0. -1.
        -11    1    3    3    0    0 -0.49199434268E+02  0.33073120507E+02 -0.16623168130E+03  0.17648622468E+03  0.00000000000E+00 0.  1.
         22    1    1    2    0    0  0.32025011829E+03 -0.46125595275E+03  0.80664274754E+03  0.98284775747E+03  0.00000000000E+00 0.  1.
<mgrwt>
<rscale>  0 0.22632119E+04</rscale>
<asrwt>0</asrwt>
<pdfrwt beam="1">  1        2 0.20529980E+00 0.22632119E+04</pdfrwt>
<pdfrwt beam="2">  1       -2 0.14763019E+00 0.22632119E+04</pdfrwt>
<totfact> 0.44867815E+00</totfact>
</mgrwt>
</event>
<event>
 6    1  0.9906445E-006  0.1404814E+04  0.7818608E-02  0.8950341E-01
         -2   -1    0    0    0  501 -0.00000000000E+00  0.00000000000E+00  0.31888705403E+03  0.31888705403E+03  0.00000000000E+00 0.  1.
          2   -1    0    0  501    0  0.00000000000E+00 -0.00000000000E+00 -0.15471806422E+04  0.15471806422E+04  0.00000000000E+00 0. -1.
         23    2    1    2    0    0  0.43912600609E+03 -0.18373143091E+03 -0.12975338219E+04  0.13850447260E+04  0.90365845838E+02 0.  0.
         13    1    3    3    0    0  0.44464670560E+02 -0.44817634205E+02 -0.12379252721E+03  0.13896156684E+03  0.00000000000E+00 0. -1.
        -13    1    3    3    0    0  0.39466133553E+03 -0.13891379671E+03 -0.11737412947E+04  0.12460831592E+04  0.00000000000E+00 0.  1.
         22    1    1    2    0    0 -0.43912600609E+03  0.18373143091E+03  0.69240233736E+02  0.48102297024E+03  0.00000000000E+00 0.  1.
<mgrwt>
<rscale>  0 0.14048144E+04</rscale>
<asrwt>0</asrwt>
<pdfrwt beam="1">  1        2 0.23802778E+00 0.14048144E+04</pdfrwt>
<pdfrwt beam="2">  1       -2 0.49059548E-01 0.14048144E+04</pdfrwt>
<totfact> 0.45686877E+01</totfact>
</mgrwt>
</event>
<event>
 6    1  0.9906445E-006  0.2030998E+04  0.7818608E-02  0.8592263E-01
         -1   -1    0    0    0  501 -0.00000000000E+00  0.00000000000E+00  0.77777809851E+03  0.77777809851E+03  0.00000000000E+00 0.  1.
          1   -1    0    0  501    0  0.00000000000E+00 -0.00000000000E+00 -0.13258777470E+04  0.13258777470E+04  0.00000000000E+00 0. -1.
         23    2    1    2    0    0 -0.28312334453E+03  0.45987607602E+03 -0.11630684988E+04  0.12852234901E+04  0.86175709636E+02 0.  0.
         11    1    3    3    0    0 -0.80813029109E+02  0.20302386166E+03 -0.42150593174E+03  0.47478066996E+03  0.00000000000E+00 0. -1.
        -11    1    3    3    0    0 -0.20231031542E+03  0.25685221435E+03 -0.74156256710E+03  0.81044282011E+03  0.00000000000E+00 0.  1.
         22    1    1    2    0    0  0.28312334453E+03 -0.45987607602E+03  0.61496885035E+03  0.81843235543E+03  0.00000000000E+00 0.  1.
<mgrwt>
<rscale>  0 0.20309984E+04</rscale>
<asrwt>0</asrwt>
<pdfrwt beam="1">  1        1 0.20398119E+00 0.20309984E+04</pdfrwt>
<pdfrwt beam="2">  1       -1 0.11965817E+00 0.20309984E+04</pdfrwt>
<totfact> 0.50003519E+00</totfact>
</mgrwt>
</event>
<event>
 6    1  0.9906445E-006  0.3247699E+04  0.7818608E-02  0.8176332E-01
          2   -1    0    0  501    0  0.00000000000E+00  0.00000000000E+00  0.32466323587E+04  0.32466323587E+04  0.00000000000E+00 0.  1.
         -2   -1    0    0    0  501 -0.00000000000E+00 -0.00000000000E+00 -0.81219153582E+03  0.81219153582E+03  0.00000000000E+00 0. -1.
         23    2    1    2    0    0  0.69719707404E+03 -0.14879935770E+03  0.30397500055E+04  0.31236104346E+04  0.92935690377E+02 0.  0.
         11    1    3    3    0    0  0.39552806460E+03 -0.51809197827E+02  0.15475135557E+04  0.15981003873E+04  0.00000000000E+00 0.  1.
        -11    1    3    3    0    0  0.30166900944E+03 -0.96990159870E+02  0.14922364498E+04  0.15255100474E+04  0.00000000000E+00 0. -1.
         22    1    1    2    0    0 -0.69719707404E+03  0.14879935770E+03 -0.60530918265E+03  0.93521345986E+03  0.00000000000E+00 0. -1.
<mgrwt>
<rscale>  0 0.32476991E+04</rscale>
<asrwt>0</asrwt>
<pdfrwt beam="1">  1        2 0.49948189E+00 0.32476991E+04</pdfrwt>
<pdfrwt beam="2">  1       -2 0.12495255E+00 0.32476991E+04</pdfrwt>
<totfact> 0.48598694E-01</totfact>
</mgrwt>
</event>
<event>
 6    1  0.9906445E-006  0.3815673E+04  0.7818608E-02  0.8042800E-01
         -1   -1    0    0    0  501 -0.00000000000E+00  0.00000000000E+00  0.18714537539E+04  0.18714537539E+04  0.00000000000E+00 0.  1.
          1   -1    0    0  501    0  0.00000000000E+00 -0.00000000000E+00 -0.19449262207E+04  0.19449262207E+04  0.00000000000E+00 0. -1.
         23    2    1    2    0    0  0.28054230821E+03 -0.11569083657E+04 -0.15264834011E+04  0.19379812606E+04  0.92080613238E+02 0.  0.
         13    1    3    3    0    0  0.19917686971E+03 -0.72888239823E+03 -0.10299808856E+04  0.12774198999E+04  0.00000000000E+00 0.  1.
        -13    1    3    3    0    0  0.81365438498E+02 -0.42802596747E+03 -0.49650251548E+03  0.66056136073E+03  0.00000000000E+00 0. -1.
         22    1    1    2    0    0 -0.28054230821E+03  0.11569083657E+04  0.14530109343E+04  0.18783987140E+04  0.00000000000E+00 0.  1.
<mgrwt>
<rscale>  0 0.38156727E+04</rscale>
<asrwt>0</asrwt>
<pdfrwt beam="1">  1        1 0.29921942E+00 0.38156727E+04</pdfrwt>
<pdfrwt beam="2">  1       -1 0.28791596E+00 0.38156727E+04</pdfrwt>
<totfact> 0.10207613E-01</totfact>
</mgrwt>
</event>
<event>
 6    1  0.9906445E-006  0.1131931E+04  0.7818608E-02  0.9174617E-01
          1   -1    0    0  501    0  0.00000000000E+00  0.00000000000E+00  0.10596336018E+04  0.10596336018E+04  0.00000000000E+00 0. -1.
         -1   -1    0    0    0  501 -0.00000000000E+00 -0.00000000000E+00 -0.30229025079E+03  0.30229025079E+03  0.00000000000E+00 0.  1.
         23    2    1    2    0    0 -0.23911288744E+03  0.89089824416E+02 -0.22175037472E+03  0.35012520982E+03  0.91117858351E+02 0.  0.
         11    1    3    3    0    0 -0.45271737081E+02  0.29107128583E+02 -0.99802244466E+02  0.11338978399E+03  0.00000000000E+00 0. -1.
        -11    1    3    3    0    0 -0.19384115036E+03  0.59982695833E+02 -0.12194813025E+03  0.23673542583E+03  0.00000000000E+00 0.  1.
         22    1    1    2    0    0  0.23911288744E+03 -0.89089824416E+02  0.97909372574E+03  0.10117986428E+04  0.00000000000E+00 0. -1.
<mgrwt>
<rscale>  0 0.11319309E+04</rscale>
<asrwt>0</asrwt>
<pdfrwt beam="1">  1        1 0.16302055E+00 0.11319309E+04</pdfrwt>
<pdfrwt beam="2">  1       -1 0.46506193E-01 0.11319309E+04</pdfrwt>
<totfact> 0.62262790E+01</totfact>
</mgrwt>
</event>
<event>
 6    1  0.9906445E-006  0.3316151E+04  0.7818608E-02  0.8158798E-01
         -2   -1    0    0    0  501 -0.00000000000E+00  0.00000000000E+00  0.76572868478E+03  0.76572868478E+03  0.00000000000E+00 0.  1.
          2   -1    0    0  501    0  0.00000000000E+00 -0.00000000000E+00 -0.35903246736E+04  0.35903246736E+04  0.00000000000E+00 0. -1.
         23    2    1    2    0    0 -0.45776906128E+02 -0.11641735613E+04 -0.29607716590E+04  0.31830489172E+04  0.90752336180E+02 0.  0.
         11    1    3    3    0    0 -0.34059297421E+02 -0.71853246778E+03 -0.19450016142E+04  0.20737599239E+04  0.00000000000E+00 0.  1.
        -11    1    3    3    0    0 -0.11717608707E+02 -0.44564109349E+03 -0.10157700449E+04  0.11092889933E+04  0.00000000000E+00 0. -1.
         22    1    1    2    0    0  0.45776906128E+02  0.11641735613E+04  0.13617567019E+03  0.11730044412E+04  0.00000000000E+00 0.  1.
<mgrwt>
<rscale>  0 0.33161511E+04</rscale>
<asrwt>0</asrwt>
<pdfrwt beam="1">  1        2 0.55235765E+00 0.33161511E+04</pdfrwt>
<pdfrwt beam="2">  1       -2 0.11780441E+00 0.33161511E+04</pdfrwt>
<totfact> 0.32475355E-01</totfact>
</mgrwt>
</event>
<event>
 6    1  0.9906445E-006  0.6971690E+03  0.7818608E-02  0.9722086E-01
          2   -1    0    0  501    0  0.00000000000E+00  0.00000000000E+00  0.15198984509E+03  0.15198984509E+03  0.00000000000E+00 0. -1.
         -2   -1    0    0    0  501 -0.00000000000E+00 -0.00000000000E+00 -0.79946883140E+03  0.79946883140E+03  0.00000000000E+00 0.  1.
         23    2    1    2    0    0 -0.30385010222E+03  0.11158016562E+03 -0.17569610622E+03  0.37931000357E+03  0.90730034107E+02 0.  0.
         13    1    3    3    0    0 -0.58222876071E+02  0.62648511519E+02 -0.39288032915E+02  0.94118482902E+02  0.00000000000E+00 0. -1.
        -13    1    3    3    0    0 -0.24562722615E+03  0.48931654103E+02 -0.13640807330E+03  0.28519152067E+03  0.00000000000E+00 0.  1.
         22    1    1    2    0    0  0.30385010222E+03 -0.11158016562E+03 -0.47178288009E+03  0.57214867292E+03  0.00000000000E+00 0.  1.
<mgrwt>
<rscale>  0 0.69716897E+03</rscale>
<asrwt>0</asrwt>
<pdfrwt beam="1">  1        2 0.23383053E-01 0.69716897E+03</pdfrwt>
<pdfrwt beam="2">  1       -2 0.12299520E+00 0.69716897E+03</pdfrwt>
<totfact> 0.11954134E+02</totfact>
</mgrwt>
</event>
<event>
 6    1  0.9906445E-006  0.1727647E+04  0.7818608E-02  0.8745751E-01
         -2   -1    0    0    0  501 -0.00000000000E+00  0.00000000000E+00  0.36530482344E+03  0.36530482344E+03  0.00000000000E+00 0.  1.
          2   -1    0    0  501    0  0.00000000000E+00 -0.00000000000E+00 -0.20426540331E+04  0.20426540331E+04  0.00000000000E+00 0. -1.
         23    2    1    2    0    0 -0.36855488087E+03 -0.13992862205E+01  0.24406177631E+03  0.45151953081E+03  0.92027592754E+02 0.  0.
         11    1    3    3    0    0 -0.79508604537E+02  0.87035324354E+01  0.10104110186E+03  0.12886688456E+03  0.00000000000E+00 0. -1.
        -11    1    3    3    0    0 -0.28904627634E+03 -0.10102818656E+02  0.14302067446E+03  0.32265264625E+03  0.00000000000E+00 0.  1.
         22    1    1    2    0    0  0.36855488087E+03  0.13992862205E+01 -0.19214109859E+04  0.19564393257E+04  0.00000000000E+00 0. -1.
<mgrwt>
<rscale>  0 0.17276474E+04</rscale>
<asrwt>0</asrwt>
<pdfrwt beam="1">  1        2 0.31425447E+00 0.17276474E+04</pdfrwt>
<pdfrwt beam="2">  1       -2 0.56200742E-01 0.17276474E+04</pdfrwt>
<totfact> 0.17852247E+01</totfact>
</mgrwt>
</event>
<event>
 6    1  0.9906445E-006  0.1390635E+04  0.7818608E-02  0.8960625E-01
          2   -1    0    0  501    0  0.00000000000E+00  0.00000000000E+00  0.39558427251E+03  0.39558427251E+03  0.00000000000E+00 0.  1.
         -2   -1    0    0    0  501 -0.00000000000E+00 -0.00000000000E+00 -0.12221581030E+04  0.12221581030E+04  0.00000000000E+00 0. -1.
         23    2    1    2    0    0  0.54485133366E+02  0.54278338384E+03 -0.91110987957E+03  0.10657199347E+04  0.89751518841E+02 0.  0.
         11    1    3    3    0    0  0.16121016413E+02  0.43949817822E+03 -0.68220819684E+03  0.81168131657E+03  0.00000000000E+00 0. -1.
        -11    1    3    3    0    0  0.38364116953E+02  0.10328520562E+03 -0.22890168273E+03  0.25403861818E+03  0.00000000000E+00 0.  1.
         22    1    1    2    0    0 -0.54485133366E+02 -0.54278338384E+03  0.84536049070E+02  0.55202244077E+03  0.00000000000E+00 0.  1.
<mgrwt>
<rscale>  0 0.13906351E+04</rscale>
<asrwt>0</asrwt>
<pdfrwt beam="1">  1        2 0.60859121E-01 0.13906351E+04</pdfrwt>
<pdfrwt beam="2">  1       -2 0.18802432E+00 0.13906351E+04</pdfrwt>
<totfact> 0.12520091E+01</totfact>
</mgrwt>
</event>
<event>
 6    1  0.9906445E-006  0.3041253E+04  0.7818608E-02  0.8232048E-01
          1   -1    0    0  501    0  0.00000000000E+00  0.00000000000E+00  0.16276668526E+04  0.16276668526E+04  0.00000000000E+00 0. -1.
         -1   -1    0    0    0  501 -0.00000000000E+00 -0.00000000000E+00 -0.14206251516E+04  0.14206251516E+04  0.00000000000E+00 0.  1.
         23    2    1    2    0    0 -0.13467366342E+04  0.98565442338E+01 -0.60102828492E+03  0.14776953610E+04  0.92476306086E+02 0.  0.
         11    1    3    3    0    0 -0.95430728333E+03  0.11733275937E+02 -0.47104537433E+03  0.10642949805E+04  0.00000000000E+00 0.  1.
        -11    1    3    3    0    0 -0.39242935089E+03 -0.18767317030E+01 -0.12998291059E+03  0.41340038051E+03  0.00000000000E+00 0. -1.
         22    1    1    2    0    0  0.13467366342E+04 -0.98565442338E+01  0.80806998591E+03  0.15705966432E+04  0.00000000000E+00 0. -1.
<mgrwt>
<rscale>  0 0.30412527E+04</rscale>
<asrwt>0</asrwt>
<pdfrwt beam="1">  1        1 0.25041028E+00 0.30412527E+04</pdfrwt>
<pdfrwt beam="2">  1       -1 0.21855772E+00 0.30412527E+04</pdfrwt>
<totfact> 0.50976704E-01</totfact>
</mgrwt>
</event>
<event>
 6    1  0.9906445E-006  0.3734458E+04  0.7818608E-02  0.8060368E-01
         -2   -1    0    0    0  501 -0.00000000000E+00  0.00000000000E+00  0.19877044030E+04  0.19877044030E+04  0.00000000000E+00 0.  1.
          2   -1    0    0  501    0  0.00000000000E+00 -0.00000000000E+00 -0.17540552590E+04  0.17540552590E+04  0.00000000000E+00 0. -1.
         23    2    1    2    0    0  0.13558957813E+04 -0.12812381482E+04  0.16398694176E+03  0.18749770329E+04  0.92857927906E+02 0.  0.
         13    1    3    3    0    0  0.10478120500E+04 -0.10406710186E+04  0.12095441322E+03  0.14817341972E+04  0.00000000000E+00 0.  1.
        -13    1    3    3    0    0  0.30808373130E+03 -0.24056712961E+03  0.43032528541E+02  0.39324283573E+03  0.00000000000E+00 0. -1.
         22    1    1    2    0    0 -0.13558957813E+04  0.12812381482E+04  0.69662202258E+02  0.18667826291E+04  0.00000000000E+00 0. -1.
<mgrwt>
<rscale>  0 0.37344576E+04</rscale>
<asrwt>0</asrwt>
<pdfrwt beam="1">  1        2 0.26985466E+00 0.37344576E+04</pdfrwt>
<pdfrwt beam="2">  1       -2 0.30580068E+00 0.37344576E+04</pdfrwt>
<totfact> 0.21601207E-01</totfact>
</mgrwt>
</event>
<event>
 6    1  0.9906445E-006  0.2162615E+04  0.7818608E-02  0.8534152E-01
         -2   -1    0    0    0  501 -0.00000000000E+00  0.00000000000E+00  0.36749408503E+03  0.36749408503E+03  0.00000000000E+00 0.  1.
          2   -1    0    0  501    0  0.00000000000E+00 -0.00000000000E+00 -0.31816177537E+04  0.31816177537E+04  0.00000000000E+00 0. -1.
         23    2    1    2    0    0 -0.96586566654E+03  0.47803630352E+03 -0.13120216568E+04  0.17004026546E+04  0.92483331816E+02 0.  0.
         13    1    3    3    0    0 -0.63802949179E+03  0.33402191435E+03 -0.93842158226E+03  0.11829147635E+04  0.00000000000E+00 0.  1.
        -13    1    3    3    0    0 -0.32783617475E+03  0.14401438916E+03 -0.37360007452E+03  0.51748789111E+03  0.00000000000E+00 0. -1.
         22    1    1    2    0    0  0.96586566654E+03 -0.47803630352E+03 -0.15021020119E+04  0.18487091841E+04  0.00000000000E+00 0. -1.
<mgrwt>
<rscale>  0 0.21626148E+04</rscale>
<asrwt>0</asrwt>
<pdfrwt beam="1">  1        2 0.48947965E+00 0.21626148E+04</pdfrwt>
<pdfrwt beam="2">  1       -2 0.56537552E-01 0.21626148E+04</pdfrwt>
<totfact> 0.35950817E+00</totfact>
</mgrwt>
</event>
<event>
 6    1  0.9906445E-006  0.1941453E+04  0.7818608E-02  0.8634494E-01
         -2   -1    0    0    0  501 -0.00000000000E+00  0.00000000000E+00  0.18392129346E+04  0.18392129346E+04  0.00000000000E+00 0.  1.
          2   -1    0    0  501    0  0.00000000000E+00 -0.00000000000E+00 -0.51234389128E+03  0.51234389128E+03  0.00000000000E+00 0. -1.
         23    2    1    2    0    0  0.28598033028E+03  0.42084007941E+03 -0.33342891807E+03  0.61504294965E+03  0.90619339948E+02 0.  0.
         13    1    3    3    0    0  0.68063944932E+02  0.15136744427E+03 -0.71874001403E+02  0.18086092962E+03  0.00000000000E+00 0. -1.
        -13    1    3    3    0    0  0.21791638535E+03  0.26947263513E+03 -0.26155491666E+03  0.43418202003E+03  0.00000000000E+00 0.  1.
         22    1    1    2    0    0 -0.28598033028E+03 -0.42084007941E+03  0.16602979614E+04  0.17365138762E+04  0.00000000000E+00 0.  1.
<mgrwt>
<rscale>  0 0.19414526E+04</rscale>
<asrwt>0</asrwt>
<pdfrwt beam="1">  1        2 0.78822138E-01 0.19414526E+04</pdfrwt>
<pdfrwt beam="2">  1       -2 0.28295583E+00 0.19414526E+04</pdfrwt>
<totfact> 0.22585928E+00</totfact>
</mgrwt>
</event>
<event>
 6    1  0.9906445E-006  0.3021554E+04  0.7818608E-02  0.8237603E-01
         -1   -1    0    0    0  501 -0.00000000000E+00  0.00000000000E+00  0.89766238384E+03  0.89766238384E+03  0.00000000000E+00 0.  1.
          1   -1    0    0  501    0  0.00000000000E+00 -0.00000000000E+00 -0.25426558652E+04  0.25426558652E+04  0.00000000000E+00 0. -1.
         23    2    1    2    0    0  0.13214412810E+04 -0.25637970461E+03 -0.16004401938E+04  0.20934988077E+04  0.96906304071E+02 0.  0.
         13    1    3    3    0    0  0.58338844366E+03 -0.68745284834E+02 -0.66580901822E+03  0.88790181841E+03  0.00000000000E+00 0.  1.
        -13    1    3    3    0    0  0.73805283737E+03 -0.18763441978E+03 -0.93463117559E+03  0.12055969893E+04  0.00000000000E+00 0. -1.
         22    1    1    2    0    0 -0.13214412810E+04  0.25637970461E+03 -0.44553287569E+02  0.13468194413E+04  0.00000000000E+00 0.  1.
<mgrwt>
<rscale>  0 0.30215536E+04</rscale>
<asrwt>0</asrwt>
<pdfrwt beam="1">  1        1 0.39117782E+00 0.30215536E+04</pdfrwt>
<pdfrwt beam="2">  1       -1 0.13810191E+00 0.30215536E+04</pdfrwt>
<totfact> 0.46669073E-01</totfact>
</mgrwt>
</event>
<event>
 6    1  0.9906445E-006  0.1285639E+04  0.7818608E-02  0.9041032E-01
          1   -1    0    0  501    0  0.00000000000E+00  0.00000000000E+00  0.29276917198E+03  0.29276917198E+03  0.00000000000E+00 0. -1.
         -1   -1    0    0    0  501 -0.00000000000E+00 -0.00000000000E+00 -0.14114075176E+04  0.14114075176E+04  0.00000000000E+00 0.  1.
         23    2    1    2    0    0 -0.98515927563E+02 -0.62064594846E+03 -0.40074992024E+03  0.75009568011E+03  0.84476324647E+02 0.  0.
         11    1    3    3    0    0 -0.18919862489E+02 -0.31211950762E+03 -0.16363077466E+03  0.35291865727E+03  0.00000000000E+00 0.  1.
        -11    1    3    3    0    0 -0.79596065075E+02 -0.30852644084E+03 -0.23711914558E+03  0.39717702284E+03  0.00000000000E+00 0. -1.
         22    1    1    2    0    0  0.98515927563E+02  0.62064594846E+03 -0.71788842535E+03  0.95408100944E+03  0.00000000000E+00 0.  1.
<mgrwt>
<rscale>  0 0.12856385E+04</rscale>
<asrwt>0</asrwt>
<pdfrwt beam="1">  1        1 0.45041412E-01 0.12856385E+04</pdfrwt>
<pdfrwt beam="2">  1       -1 0.21713961E+00 0.12856385E+04</pdfrwt>
<totfact> 0.10245128E+01</totfact>
</mgrwt>
</event>
<event>
 6    1  0.9906445E-006  0.2700166E+04  0.7818608E-02  0.8334951E-01
         -1   -1    0    0    0  501 -0.00000000000E+00  0.00000000000E+00  0.87924205919E+03  0.87924205919E+03  0.00000000000E+00 0.  1.
          1   -1    0    0  501    0  0.00000000000E+00 -0.00000000000E+00 -0.20730623378E+04  0.20730623378E+04  0.00000000000E+00 0. -1.
         23    2    1    2    0    0 -0.70454854574E+03 -0.11068733785E+04 -0.25716256245E+03  0.13401986291E+04  0.91882820268E+02 0.  0.
         13    1    3    3    0    0 -0.47327599305E+03 -0.68290374460E+03 -0.19316728690E+03  0.85303065051E+03  0.00000000000E+00 0. -1.
        -13    1    3    3    0    0 -0.23127255269E+03 -0.42396963392E+03 -0.63995275556E+02  0.48716797864E+03  0.00000000000E+00 0.  1.
         22    1    1    2    0    0  0.70454854574E+03  0.11068733785E+04 -0.93665771612E+03  0.16121057678E+04  0.00000000000E+00 0. -1.
<mgrwt>
<rscale>  0 0.27001656E+04</rscale>
<asrwt>0</asrwt>
<pdfrwt beam="1">  1        1 0.31893266E+00 0.27001656E+04</pdfrwt>
<pdfrwt beam="2">  1       -1 0.13526801E+00 0.27001656E+04</pdfrwt>
<totfact> 0.10635302E+00</totfact>
</mgrwt>
</event>
<event>
 6    1  0.9906445E-006  0.1922485E+04  0.7818608E-02  0.8643744E-01
         -2   -1    0    0    0  501 -0.00000000000E+00  0.00000000000E+00  0.18076954205E+04  0.18076954205E+04  0.00000000000E+00 0.  1.
          2   -1    0    0  501    0  0.00000000000E+00 -0.00000000000E+00 -0.51114100728E+03  0.51114100728E+03  0.00000000000E+00 0. -1.
         23    2    1    2    0    0  0.70556482722E+03  0.61616267958E+03  0.89787541763E+03  0.13007877479E+04  0.91598724490E+02 0.  0.
         11    1    3    3    0    0  0.44163009134E+03  0.40250347588E+03  0.51314845731E+03  0.78763413138E+03  0.00000000000E+00 0. -1.
        -11    1    3    3    0    0  0.26393473588E+03  0.21365920370E+03  0.38472696032E+03  0.51315361650E+03  0.00000000000E+00 0.  1.
         22    1    1    2    0    0 -0.70556482722E+03 -0.61616267958E+03  0.39867899560E+03  0.10180486799E+04  0.00000000000E+00 0. -1.
<mgrwt>
<rscale>  0 0.19224851E+04</rscale>
<asrwt>0</asrwt>
<pdfrwt beam="1">  1        2 0.78637079E-01 0.19224851E+04</pdfrwt>
<pdfrwt beam="2">  1       -2 0.27810699E+00 0.19224851E+04</pdfrwt>
<totfact> 0.24278729E+00</totfact>
</mgrwt>
</event>
<event>
 6    1  0.9906445E-006  0.2135119E+04  0.7818608E-02  0.8545929E-01
         -2   -1    0    0    0  501 -0.00000000000E+00  0.00000000000E+00  0.15847744408E+04  0.15847744408E+04  0.00000000000E+00 0.  1.
          2   -1    0    0  501    0  0.00000000000E+00 -0.00000000000E+00 -0.71914554711E+03  0.71914554711E+03  0.00000000000E+00 0. -1.
         23    2    1    2    0    0  0.41198519434E+03  0.95379415831E+03  0.17830094544E+03  0.10581773157E+04  0.92156972665E+02 0.  0.
         11    1    3    3    0    0  0.71090388810E+02  0.25838753012E+03  0.30312482321E+02  0.26969761899E+03  0.00000000000E+00 0.  1.
        -11    1    3    3    0    0  0.34089480553E+03  0.69540662818E+03  0.14798846312E+03  0.78847969674E+03  0.00000000000E+00 0. -1.
         22    1    1    2    0    0 -0.41198519434E+03 -0.95379415831E+03  0.68732794821E+03  0.12457426721E+04  0.00000000000E+00 0.  1.
<mgrwt>
<rscale>  0 0.21351192E+04</rscale>
<asrwt>0</asrwt>
<pdfrwt beam="1">  1        2 0.11063778E+00 0.21351192E+04</pdfrwt>
<pdfrwt beam="2">  1       -2 0.24381145E+00 0.21351192E+04</pdfrwt>
<totfact> 0.25516422E+00</totfact>
</mgrwt>
</event>
<event>
 6    1  0.9906445E-006  0.9935946E+03  0.7818608E-02  0.9315598E-01
         -1   -1    0    0    0  501 -0.00000000000E+00  0.00000000000E+00  0.21917895613E+03  0.21917895613E+03  0.00000000000E+00 0.  1.
          1   -1    0    0  501    0  0.00000000000E+00 -0.00000000000E+00 -0.11260549054E+04  0.11260549054E+04  0.00000000000E+00 0. -1.
         23    2    1    2    0    0  0.65016014258E+02  0.32556175340E+03  0.35288234840E+02  0.34628897456E+03  0.91941595579E+02 0.  0.
         11    1    3    3    0    0  0.76583245887E+02  0.20045815326E+03 -0.40810022328E+01  0.21462786245E+03  0.00000000000E+00 0.  1.
        -11    1    3    3    0    0 -0.11567231630E+02  0.12510360014E+03  0.39369237073E+02  0.13166111212E+03  0.00000000000E+00 0. -1.
         22    1    1    2    0    0 -0.65016014258E+02 -0.32556175340E+03 -0.94216418408E+03  0.99894488694E+03  0.00000000000E+00 0. -1.
<mgrwt>
<rscale>  0 0.99359456E+03</rscale>
<asrwt>0</asrwt>
<pdfrwt beam="1">  1        1 0.17323922E+00 0.99359456E+03</pdfrwt>
<pdfrwt beam="2">  1       -1 0.33719839E-01 0.99359456E+03</pdfrwt>
<totfact> 0.10072334E+02</totfact>
</mgrwt>
</event>
<event>
 6    1  0.9906445E-006  0.1790555E+04  0.7818608E-02  0.8711338E-01
          1   -1    0    0  501    0  0.00000000000E+00  0.00000000000E+00  0.51896377660E+03  0.51896377660E+03  0.00000000000E+00 0.  1.
         -1   -1    0    0    0  501 -0.00000000000E+00 -0.00000000000E+00 -0.15444665609E+04  0.15444665609E+04  0.00000000000E+00 0. -1.
         23    2    1    2    0    0 -0.16040130598E+03 -0.83067032417E+03 -0.84307399153E+03  0.11979697487E+04  0.92822395444E+02 0.  0.
         13    1    3    3    0    0 -0.48964063959E+02 -0.31618713269E+03 -0.25871689888E+03  0.41146836598E+03  0.00000000000E+00 0. -1.
        -13    1    3    3    0    0 -0.11143724202E+03 -0.51448319148E+03 -0.58435709265E+03  0.78650138268E+03  0.00000000000E+00 0.  1.
         22    1    1    2    0    0  0.16040130598E+03  0.83067032417E+03 -0.18242879277E+03  0.86546058885E+03  0.00000000000E+00 0.  1.
<mgrwt>
<rscale>  0 0.17905554E+04</rscale>
<asrwt>0</asrwt>
<pdfrwt beam="1">  1        1 0.79840582E-01 0.17905554E+04</pdfrwt>
<pdfrwt beam="2">  1       -1 0.23761024E+00 0.17905554E+04</pdfrwt>
<totfact> 0.33412223E+00</totfact>
</mgrwt>
</event>
<event>
 6    1  0.9906445E-006  0.3375661E+04  0.7818608E-02  0.8143906E-01
          2   -1    0    0  501    0  0.00000000000E+00  0.00000000000E+00  0.12884415251E+04  0.12884415251E+04  0.00000000000E+00 0. -1.
         -2   -1    0    0    0  501 -0.00000000000E+00 -0.00000000000E+00 -0.22110209870E+04  0.22110209870E+04  0.00000000000E+00 0.  1.
         23    2    1    2    0    0  0.14613716645E+04 -0.47683509885E+03 -0.11811235698E+04  0.19406732675E+04  0.90448829243E+02 0.  0.
         13    1    3    3    0    0  0.33834201325E+03 -0.88734315964E+02 -0.22927178473E+03  0.41822798571E+03  0.00000000000E+00 0.  1.
        -13    1    3    3    0    0  0.11230296512E+04 -0.38810078289E+03 -0.95185178506E+03  0.15224452818E+04  0.00000000000E+00 0. -1.
         22    1    1    2    0    0 -0.14613716645E+04  0.47683509885E+03  0.25854410789E+03  0.15587892446E+04  0.00000000000E+00 0. -1.
<mgrwt>
<rscale>  0 0.33756607E+04</rscale>
<asrwt>0</asrwt>
<pdfrwt beam="1">  1        2 0.19822177E+00 0.33756607E+04</pdfrwt>
<pdfrwt beam="2">  1       -2 0.34015707E+00 0.33756607E+04</pdfrwt>
<totfact> 0.24995482E-01</totfact>
</mgrwt>
</event>
<event>
 6    1  0.9906445E-006  0.1973033E+04  0.7818608E-02  0.8619333E-01
         -2   -1    0    0    0  501 -0.00000000000E+00  0.00000000000E+00  0.14646381538E+04  0.14646381538E+04  0.00000000000E+00 0.  1.
          2   -1    0    0  501    0  0.00000000000E+00 -0.00000000000E+00 -0.66447457336E+03  0.66447457336E+03  0.00000000000E+00 0. -1.
         23    2    1    2    0    0 -0.46127650466E+03  0.65617398844E+02 -0.53489770701E+03  0.71508645512E+03  0.90285239896E+02 0.  0.
         13    1    3    3    0    0 -0.25757381829E+02 -0.16680734078E+02 -0.25882080014E+02  0.40144385335E+02  0.00000000000E+00 0.  1.
        -13    1    3    3    0    0 -0.43551912283E+03  0.82298132922E+02 -0.50901562700E+03  0.67494206979E+03  0.00000000000E+00 0. -1.
         22    1    1    2    0    0  0.46127650466E+03 -0.65617398844E+02  0.13350612875E+04  0.14140262721E+04  0.00000000000E+00 0.  1.
<mgrwt>
<rscale>  0 0.19730330E+04</rscale>
<asrwt>0</asrwt>
<pdfrwt beam="1">  1        2 0.10222686E+00 0.19730330E+04</pdfrwt>
<pdfrwt beam="2">  1       -2 0.22532895E+00 0.19730330E+04</pdfrwt>
<totfact> 0.37237707E+00</totfact>
</mgrwt>
</event>
<event>
 6    1  0.9906445E-006  0.1350311E+04  0.7818608E-02  0.8990593E-01
         -2   -1    0    0    0  501 -0.00000000000E+00  0.00000000000E+00  0.26251958261E+03  0.26251958261E+03  0.00000000000E+00 0.  1.
          2   -1    0    0  501    0  0.00000000000E+00 -0.00000000000E+00 -0.17363840096E+04  0.17363840096E+04  0.00000000000E+00 0. -1.
         23    2    1    2    0    0  0.41295782106E+03 -0.42337937982E+03 -0.26687969840E+03  0.65480672209E+03  0.88106802501E+02 0.  0.
         11    1    3    3    0    0  0.12280238698E+03 -0.93787875458E+02 -0.10493124053E+03  0.18678104045E+03  0.00000000000E+00 0.  1.
        -11    1    3    3    0    0  0.29015543408E+03 -0.32959150436E+03 -0.16194845787E+03  0.46802568165E+03  0.00000000000E+00 0. -1.
         22    1    1    2    0    0 -0.41295782106E+03  0.42337937982E+03 -0.12069847286E+04  0.13440968702E+04  0.00000000000E+00 0. -1.
<mgrwt>
<rscale>  0 0.13503108E+04</rscale>
<asrwt>0</asrwt>
<pdfrwt beam="1">  1        2 0.26713601E+00 0.13503108E+04</pdfrwt>
<pdfrwt beam="2">  1       -2 0.40387627E-01 0.13503108E+04</pdfrwt>
<totfact> 0.53054888E+01</totfact>
</mgrwt>
</event>
<event>
 6    1  0.9906445E-006  0.1301247E+04  0.7818608E-02  0.9028577E-01
         -1   -1    0    0    0  501 -0.00000000000E+00  0.00000000000E+00  0.28074026637E+03  0.28074026637E+03  0.00000000000E+00 0.  1.
          1   -1    0    0  501    0  0.00000000000E+00 -0.00000000000E+00 -0.15078374328E+04  0.15078374328E+04  0.00000000000E+00 0. -1.
         23    2    1    2    0    0 -0.48559929024E+03 -0.29210602130E+03 -0.10468674119E+04  0.11939220318E+04  0.91574240251E+02 0.  0.
         13    1    3    3    0    0 -0.91869785891E+02 -0.74870290726E+02 -0.29390939158E+03  0.31690432066E+03  0.00000000000E+00 0. -1.
        -13    1    3    3    0    0 -0.39372950435E+03 -0.21723573057E+03 -0.75295802033E+03  0.87701771111E+03  0.00000000000E+00 0.  1.
         22    1    1    2    0    0  0.48559929024E+03  0.29210602130E+03 -0.18022975453E+03  0.59465566740E+03  0.00000000000E+00 0.  1.
<mgrwt>
<rscale>  0 0.13012466E+04</rscale>
<asrwt>0</asrwt>
<pdfrwt beam="1">  1        1 0.23197499E+00 0.13012466E+04</pdfrwt>
<pdfrwt beam="2">  1       -1 0.43190810E-01 0.13012466E+04</pdfrwt>
<totfact> 0.33548731E+01</totfact>
</mgrwt>
</event>
<event>
 6    1  0.1305938E-005  0.3519980E+04  0.7818608E-02  0.8109071E-01
          2   -1    0    0  501    0  0.00000000000E+00  0.00000000000E+00  0.17089868429E+04  0.17089868429E+04  0.00000000000E+00 0.  1.
         -2   -1    0    0    0  501 -0.00000000000E+00 -0.00000000000E+00 -0.18125156530E+04  0.18125156530E+04  0.00000000000E+00 0. -1.
         23    2    1    2    0    0 -0.17348789866E+04 -0.20795550797E+03 -0.25295055478E+03  0.17678270843E+04  0.90432435999E+02 0.  0.
         11    1    3    3    0    0 -0.69440290000E+03 -0.10643739574E+03 -0.13999070639E+03  0.71632513890E+03  0.00000000000E+00 0. -1.
        -11    1    3    3    0    0 -0.10404760866E+04 -0.10151811223E+03 -0.11295984839E+03  0.10515019454E+04  0.00000000000E+00 0.  1.
         22    1    1    2    0    0  0.17348789866E+04  0.20795550797E+03  0.14942174465E+03  0.17536754116E+04  0.00000000000E+00 0. -1.
<mgrwt>
<rscale>  0 0.35199803E+04</rscale>
<asrwt>0</asrwt>
<pdfrwt beam="1">  1        2 0.26292105E+00 0.35199803E+04</pdfrwt>
<pdfrwt beam="2">  1       -2 0.27884856E+00 0.35199803E+04</pdfrwt>
<totfact> 0.34038753E-01</totfact>
</mgrwt>
</event>
<event>
 6    1  0.9906445E-006  0.5791993E+03  0.7818608E-02  0.9949526E-01
         -1   -1    0    0    0  501 -0.00000000000E+00  0.00000000000E+00  0.23196404385E+03  0.23196404385E+03  0.00000000000E+00 0.  1.
          1   -1    0    0  501    0  0.00000000000E+00 -0.00000000000E+00 -0.36155586988E+03  0.36155586988E+03  0.00000000000E+00 0. -1.
         23    2    1    2    0    0  0.18436116845E+03  0.16444219114E+03 -0.20740363110E+03  0.33451228514E+03  0.88611105722E+02 0.  0.
         11    1    3    3    0    0  0.35383979702E+02  0.86289869159E+02 -0.87880437114E+02  0.12814421082E+03  0.00000000000E+00 0. -1.
        -11    1    3    3    0    0  0.14897718875E+03  0.78152321976E+02 -0.11952319399E+03  0.20636807432E+03  0.00000000000E+00 0.  1.
         22    1    1    2    0    0 -0.18436116845E+03 -0.16444219114E+03  0.77811805074E+02  0.25900762859E+03  0.00000000000E+00 0.  1.
<mgrwt>
<rscale>  0 0.57919932E+03</rscale>
<asrwt>0</asrwt>
<pdfrwt beam="1">  1        1 0.55623980E-01 0.57919932E+03</pdfrwt>
<pdfrwt beam="2">  1       -1 0.35686776E-01 0.57919932E+03</pdfrwt>
<totfact> 0.51961114E+02</totfact>
</mgrwt>
</event>
<event>
 6    1  0.9906445E-006  0.4064266E+04  0.7818608E-02  0.7991706E-01
          1   -1    0    0  501    0  0.00000000000E+00  0.00000000000E+00  0.15322257748E+04  0.15322257748E+04  0.00000000000E+00 0. -1.
         -1   -1    0    0    0  501 -0.00000000000E+00 -0.00000000000E+00 -0.26951411035E+04  0.26951411035E+04  0.00000000000E+00 0.  1.
         23    2    1    2    0    0 -0.10244433212E+04 -0.11832009655E+04 -0.19282720887E+04  0.24851787102E+04  0.91822277441E+02 0.  0.
         13    1    3    3    0    0 -0.69119851720E+03 -0.83007342240E+03 -0.12706241390E+04  0.16677118994E+04  0.00000000000E+00 0.  1.
        -13    1    3    3    0    0 -0.33324480403E+03 -0.35312754309E+03 -0.65764794970E+03  0.81746681086E+03  0.00000000000E+00 0. -1.
         22    1    1    2    0    0  0.10244433212E+04  0.11832009655E+04  0.76535675991E+03  0.17421881681E+04  0.00000000000E+00 0. -1.
<mgrwt>
<rscale>  0 0.40642661E+04</rscale>
<asrwt>0</asrwt>
<pdfrwt beam="1">  1        1 0.23572705E+00 0.40642661E+04</pdfrwt>
<pdfrwt beam="2">  1       -1 0.41463709E+00 0.40642661E+04</pdfrwt>
<totfact> 0.27448059E-02</totfact>
</mgrwt>
</event>
<event>
 6    1  0.9906445E-006  0.7270737E+03  0.7818608E-02  0.9672021E-01
         -1   -1    0    0    0  501 -0.00000000000E+00  0.00000000000E+00  0.43395366863E+03  0.43395366863E+03  0.00000000000E+00 0.  1.
          1   -1    0    0  501    0  0.00000000000E+00 -0.00000000000E+00 -0.30454640679E+03  0.30454640679E+03  0.00000000000E+00 0. -1.
         23    2    1    2    0    0  0.19659915496E+03 -0.26115388460E+03 -0.81467815176E+02  0.34950023316E+03  0.93063574493E+02 0.  0.
         13    1    3    3    0    0  0.12486805727E+03 -0.19649663006E+03 -0.96020695901E+02  0.25183909822E+03  0.00000000000E+00 0. -1.
        -13    1    3    3    0    0  0.71731097688E+02 -0.64657254537E+02  0.14552880725E+02  0.97661134937E+02  0.00000000000E+00 0.  1.
         22    1    1    2    0    0 -0.19659915496E+03  0.26115388460E+03  0.21087507702E+03  0.38899984226E+03  0.00000000000E+00 0. -1.
<mgrwt>
<rscale>  0 0.72707367E+03</rscale>
<asrwt>0</asrwt>
<pdfrwt beam="1">  1        1 0.46853293E-01 0.72707367E+03</pdfrwt>
<pdfrwt beam="2">  1       -1 0.66762103E-01 0.72707367E+03</pdfrwt>
<totfact> 0.19817441E+02</totfact>
</mgrwt>
</event>
<event>
 6    1  0.9906445E-006  0.3175255E+04  0.7818608E-02  0.8195383E-01
         -2   -1    0    0    0  501 -0.00000000000E+00  0.00000000000E+00  0.13151788354E+04  0.13151788354E+04  0.00000000000E+00 0.  1.
          2   -1    0    0  501    0  0.00000000000E+00 -0.00000000000E+00 -0.19165159963E+04  0.19165159963E+04  0.00000000000E+00 0. -1.
         23    2    1    2    0    0  0.12860678014E+04 -0.89955195654E+03 -0.66133744523E+02  0.15735009922E+04  0.91474522035E+02 0.  0.
         13    1    3    3    0    0  0.33201176382E+03 -0.21451672605E+03  0.20305701052E+02  0.39580495016E+03  0.00000000000E+00 0.  1.
        -13    1    3    3    0    0  0.95405603753E+03 -0.68503523049E+03 -0.86439445575E+02  0.11776960421E+04  0.00000000000E+00 0. -1.
         22    1    1    2    0    0 -0.12860678014E+04  0.89955195654E+03 -0.53520341643E+03  0.16581938394E+04  0.00000000000E+00 0. -1.
<mgrwt>
<rscale>  0 0.31752551E+04</rscale>
<asrwt>0</asrwt>
<pdfrwt beam="1">  1        2 0.29484861E+00 0.31752551E+04</pdfrwt>
<pdfrwt beam="2">  1       -2 0.20233521E+00 0.31752551E+04</pdfrwt>
<totfact> 0.80552653E-01</totfact>
</mgrwt>
</event>
<event>
 6    1  0.9906445E-006  0.2955326E+04  0.7818608E-02  0.8256604E-01
          2   -1    0    0  501    0  0.00000000000E+00  0.00000000000E+00  0.29637790900E+04  0.29637790900E+04  0.00000000000E+00 0. -1.
         -2   -1    0    0    0  501 -0.00000000000E+00 -0.00000000000E+00 -0.73672435001E+03  0.73672435001E+03  0.00000000000E+00 0.  1.
         23    2    1    2    0    0 -0.94782395145E+03 -0.53707192908E+03 -0.13289017635E+03  0.11012426782E+04  0.90879795878E+02 0.  0.
         11    1    3    3    0    0 -0.87721965878E+03 -0.52255917832E+03 -0.12661611139E+03  0.10288897241E+04  0.00000000000E+00 0.  1.
        -11    1    3    3    0    0 -0.70604292667E+02 -0.14512750759E+02 -0.62740649573E+01  0.72352954112E+02  0.00000000000E+00 0. -1.
         22    1    1    2    0    0  0.94782395145E+03  0.53707192908E+03  0.23599449164E+04  0.25992607619E+04  0.00000000000E+00 0. -1.
<mgrwt>
<rscale>  0 0.29553262E+04</rscale>
<asrwt>0</asrwt>
<pdfrwt beam="1">  1        2 0.45596601E+00 0.29553262E+04</pdfrwt>
<pdfrwt beam="2">  1       -2 0.11334221E+00 0.29553262E+04</pdfrwt>
<totfact> 0.96228041E-01</totfact>
</mgrwt>
</event>
<event>
 6    1  0.9906445E-006  0.6509865E+03  0.7818608E-02  0.9804930E-01
          2   -1    0    0  501    0  0.00000000000E+00  0.00000000000E+00  0.20850469508E+04  0.20850469508E+04  0.00000000000E+00 0. -1.
         -2   -1    0    0    0  501 -0.00000000000E+00 -0.00000000000E+00 -0.50812217939E+02  0.50812217939E+02  0.00000000000E+00 0.  1.
         23    2    1    2    0    0 -0.30340413013E+02  0.12096343825E+03  0.20007541745E+04  0.20067327119E+04  0.91685419857E+02 0.  0.
         11    1    3    3    0    0 -0.18951990196E+02  0.33781176183E+02  0.12871182164E+04  0.12877009159E+04  0.00000000000E+00 0.  1.
        -11    1    3    3    0    0 -0.11388422817E+02  0.87182262064E+02  0.71363595809E+03  0.71903179601E+03  0.00000000000E+00 0. -1.
         22    1    1    2    0    0  0.30340413013E+02 -0.12096343825E+03  0.33480558304E+02  0.12912645677E+03  0.00000000000E+00 0.  1.
<mgrwt>
<rscale>  0 0.65098651E+03</rscale>
<asrwt>0</asrwt>
<pdfrwt beam="1">  1        2 0.32077639E+00 0.65098651E+03</pdfrwt>
<pdfrwt beam="2">  1       -2 0.78172659E-02 0.65098651E+03</pdfrwt>
<totfact> 0.63174651E+02</totfact>
</mgrwt>
</event>
<event>
 6    1  0.9906445E-006  0.1493719E+04  0.7818608E-02  0.8888640E-01
         -2   -1    0    0    0  501 -0.00000000000E+00  0.00000000000E+00  0.90443168863E+03  0.90443168863E+03  0.00000000000E+00 0.  1.
          2   -1    0    0  501    0  0.00000000000E+00 -0.00000000000E+00 -0.61673998338E+03  0.61673998338E+03  0.00000000000E+00 0. -1.
         23    2    1    2    0    0 -0.34097779284E+03  0.13500665144E+03  0.80383141797E+03  0.88801067022E+03  0.89024439116E+02 0.  0.
         13    1    3    3    0    0 -0.33294619430E+03  0.11155744931E+03  0.72855945528E+03  0.80876270480E+03  0.00000000000E+00 0. -1.
        -13    1    3    3    0    0 -0.80315985396E+01  0.23449202132E+02  0.75271962688E+02  0.79247965416E+02  0.00000000000E+00 0.  1.
         22    1    1    2    0    0  0.34097779284E+03 -0.13500665144E+03 -0.51613971272E+03  0.63316100179E+03  0.00000000000E+00 0. -1.
<mgrwt>
<rscale>  0 0.14937191E+04</rscale>
<asrwt>0</asrwt>
<pdfrwt beam="1">  1        2 0.94883074E-01 0.14937191E+04</pdfrwt>
<pdfrwt beam="2">  1       -2 0.13914334E+00 0.14937191E+04</pdfrwt>
<totfact> 0.16910420E+01</totfact>
</mgrwt>
</event>
<event>
 6    1  0.9906445E-006  0.3091784E+04  0.7818608E-02  0.8217996E-01
         -1   -1    0    0    0  501 -0.00000000000E+00  0.00000000000E+00  0.19130164826E+04  0.19130164826E+04  0.00000000000E+00 0.  1.
          1   -1    0    0  501    0  0.00000000000E+00 -0.00000000000E+00 -0.12492215717E+04  0.12492215717E+04  0.00000000000E+00 0. -1.
         23    2    1    2    0    0  0.90442149098E+03 -0.12266102845E+04  0.58922503917E+03  0.16364229642E+04  0.90238282351E+02 0.  0.
         13    1    3    3    0    0  0.45101322053E+03 -0.55695075380E+03  0.31030520626E+03  0.78095863417E+03  0.00000000000E+00 0.  1.
        -13    1    3    3    0    0  0.45340827045E+03 -0.66965953074E+03  0.27891983291E+03  0.85546433006E+03  0.00000000000E+00 0. -1.
         22    1    1    2    0    0 -0.90442149098E+03  0.12266102845E+04  0.74569871713E+02  0.15258150901E+04  0.00000000000E+00 0. -1.
<mgrwt>
<rscale>  0 0.30917836E+04</rscale>
<asrwt>0</asrwt>
<pdfrwt beam="1">  1        1 0.19218793E+00 0.30917836E+04</pdfrwt>
<pdfrwt beam="2">  1       -1 0.29431023E+00 0.30917836E+04</pdfrwt>
<totfact> 0.29868080E-01</totfact>
</mgrwt>
</event>
<event>
 6    1  0.1477123E-005  0.3023363E+04  0.7818608E-02  0.8237091E-01
         -1   -1    0    0    0  501 -0.00000000000E+00  0.00000000000E+00  0.16055673215E+04  0.16055673215E+04  0.00000000000E+00 0.  1.
          1   -1    0    0  501    0  0.00000000000E+00 -0.00000000000E+00 -0.14232856225E+04  0.14232856225E+04  0.00000000000E+00 0. -1.
         23    2    1    2    0    0  0.35595635123E+02 -0.52293377160E+03  0.15101354731E+04  0.16012947406E+04  0.94387078949E+02 0.  0.
         13    1    3    3    0    0 -0.18740412784E+02 -0.32617509057E+03  0.99120131739E+03  0.10436577238E+04  0.00000000000E+00 0. -1.
        -13    1    3    3    0    0  0.54336047908E+02 -0.19675868102E+03  0.51893415568E+03  0.55763701687E+03  0.00000000000E+00 0.  1.
         22    1    1    2    0    0 -0.35595635123E+02  0.52293377160E+03 -0.13278537740E+04  0.14275582033E+04  0.00000000000E+00 0. -1.
<mgrwt>
<rscale>  0 0.30233630E+04</rscale>
<asrwt>0</asrwt>
<pdfrwt beam="1">  1        1 0.21896702E+00 0.30233630E+04</pdfrwt>
<pdfrwt beam="2">  1       -1 0.24701036E+00 0.30233630E+04</pdfrwt>
<totfact> 0.45833237E-01</totfact>
</mgrwt>
</event>
<event>
 6    1  0.9906445E-006  0.2831753E+04  0.7818608E-02  0.8293478E-01
          1   -1    0    0  501    0  0.00000000000E+00  0.00000000000E+00  0.11981961101E+04  0.11981961101E+04  0.00000000000E+00 0. -1.
         -1   -1    0    0    0  501 -0.00000000000E+00 -0.00000000000E+00 -0.16731031431E+04  0.16731031431E+04  0.00000000000E+00 0.  1.
         23    2    1    2    0    0  0.75738927478E+03  0.67778835559E+03  0.75947651011E+03  0.12723188593E+04  0.94631611453E+02 0.  0.
         11    1    3    3    0    0  0.27192025909E+03  0.22552610723E+03  0.31848035119E+03  0.47563892444E+03  0.00000000000E+00 0. -1.
        -11    1    3    3    0    0  0.48546901569E+03  0.45226224835E+03  0.44099615892E+03  0.79667993489E+03  0.00000000000E+00 0.  1.
         22    1    1    2    0    0 -0.75738927478E+03 -0.67778835559E+03 -0.12343835431E+04  0.15989803939E+04  0.00000000000E+00 0.  1.
<mgrwt>
<rscale>  0 0.28317526E+04</rscale>
<asrwt>0</asrwt>
<pdfrwt beam="1">  1        1 0.18433786E+00 0.28317526E+04</pdfrwt>
<pdfrwt beam="2">  1       -1 0.25740048E+00 0.28317526E+04</pdfrwt>
<totfact> 0.57727166E-01</totfact>
</mgrwt>
</event>
<event>
 6    1  0.9906445E-006  0.1158178E+04  0.7818608E-02  0.9150272E-01
          2   -1    0    0  501    0  0.00000000000E+00  0.00000000000E+00  0.14120694649E+04  0.14120694649E+04  0.00000000000E+00 0. -1.
         -2   -1    0    0    0  501 -0.00000000000E+00 -0.00000000000E+00 -0.23748410725E+03  0.23748410725E+03  0.00000000000E+00 0.  1.
         23    2    1    2    0    0  0.39465154243E+03  0.41790667606E+03  0.55166291331E+03  0.80195213190E+03  0.91648361157E+02 0.  0.
         13    1    3    3    0    0  0.33872208601E+03  0.38509688641E+03  0.45531442685E+03  0.68581593068E+03  0.00000000000E+00 0. -1.
        -13    1    3    3    0    0  0.55929456421E+02  0.32809789657E+02  0.96348486455E+02  0.11613620123E+03  0.00000000000E+00 0.  1.
         22    1    1    2    0    0 -0.39465154243E+03 -0.41790667606E+03  0.62292244433E+03  0.84760144023E+03  0.00000000000E+00 0. -1.
<mgrwt>
<rscale>  0 0.11581780E+04</rscale>
<asrwt>0</asrwt>
<pdfrwt beam="1">  1        2 0.21724145E+00 0.11581780E+04</pdfrwt>
<pdfrwt beam="2">  1       -2 0.36536017E-01 0.11581780E+04</pdfrwt>
<totfact> 0.99318042E+01</totfact>
</mgrwt>
</event>
<event>
 6    1  0.9906445E-006  0.6203743E+04  0.7818608E-02  0.7665641E-01
         -2   -1    0    0    0  501 -0.00000000000E+00  0.00000000000E+00  0.25715384734E+04  0.25715384734E+04  0.00000000000E+00 0.  1.
          2   -1    0    0  501    0  0.00000000000E+00 -0.00000000000E+00 -0.37415761779E+04  0.37415761779E+04  0.00000000000E+00 0. -1.
         23    2    1    2    0    0  0.25764717236E+04 -0.16819729980E+04 -0.19069387990E+03  0.30841281175E+04  0.90787561885E+02 0.  0.
         11    1    3    3    0    0  0.10404499048E+04 -0.66038525422E+03 -0.11805993492E+03  0.12379752972E+04  0.00000000000E+00 0.  1.
        -11    1    3    3    0    0  0.15360218188E+04 -0.10215877437E+04 -0.72633944982E+02  0.18461528203E+04  0.00000000000E+00 0. -1.
         22    1    1    2    0    0 -0.25764717236E+04  0.16819729980E+04 -0.97934382458E+03  0.32289865337E+04  0.00000000000E+00 0. -1.
<mgrwt>
<rscale>  0 0.62037431E+04</rscale>
<asrwt>0</asrwt>
<pdfrwt beam="1">  1        2 0.57562710E+00 0.62037431E+04</pdfrwt>
<pdfrwt beam="2">  1       -2 0.39562130E+00 0.62037431E+04</pdfrwt>
<totfact> 0.28489442E-03</totfact>
</mgrwt>
</event>
<event>
 6    1  0.9906445E-006  0.7380884E+03  0.7818608E-02  0.9654225E-01
         -1   -1    0    0    0  501 -0.00000000000E+00  0.00000000000E+00  0.44153821903E+03  0.44153821903E+03  0.00000000000E+00 0.  1.
          1   -1    0    0  501    0  0.00000000000E+00 -0.00000000000E+00 -0.30845263148E+03  0.30845263148E+03  0.00000000000E+00 0. -1.
         23    2    1    2    0    0  0.25183336221E+03  0.22087835789E+03 -0.76928418426E+02  0.35462624155E+03  0.87375616327E+02 0.  0.
         11    1    3    3    0    0  0.19683160712E+03  0.20041776735E+03 -0.36287235909E+02  0.28324322856E+03  0.00000000000E+00 0.  1.
        -11    1    3    3    0    0  0.55001755086E+02  0.20460590539E+02 -0.40641182517E+02  0.71383012994E+02  0.00000000000E+00 0. -1.
         22    1    1    2    0    0 -0.25183336221E+03 -0.22087835789E+03  0.21001400598E+03  0.39536460895E+03  0.00000000000E+00 0.  1.
<mgrwt>
<rscale>  0 0.73808841E+03</rscale>
<asrwt>0</asrwt>
<pdfrwt beam="1">  1        1 0.47454251E-01 0.73808841E+03</pdfrwt>
<pdfrwt beam="2">  1       -1 0.67928957E-01 0.73808841E+03</pdfrwt>
<totfact> 0.18810512E+02</totfact>
</mgrwt>
</event>
<event>
 6    1  0.9906445E-006  0.1139754E+04  0.7818608E-02  0.9167288E-01
          2   -1    0    0  501    0  0.00000000000E+00  0.00000000000E+00  0.12581986861E+04  0.12581986861E+04  0.00000000000E+00 0. -1.
         -2   -1    0    0    0  501 -0.00000000000E+00 -0.00000000000E+00 -0.25811491418E+03  0.25811491418E+03  0.00000000000E+00 0.  1.
         23    2    1    2    0    0 -0.16026717007E+03 -0.46787248536E+03  0.13640078006E+03  0.52105557405E+03  0.91123597870E+02 0.  0.
         13    1    3    3    0    0 -0.13867228374E+03 -0.29316171175E+03  0.11319564953E+03  0.34349242580E+03  0.00000000000E+00 0.  1.
        -13    1    3    3    0    0 -0.21594886327E+02 -0.17471077361E+03  0.23205130527E+02  0.17756314824E+03  0.00000000000E+00 0. -1.
         22    1    1    2    0    0  0.16026717007E+03  0.46787248536E+03  0.86368299184E+03  0.99525802622E+03  0.00000000000E+00 0. -1.
<mgrwt>
<rscale>  0 0.11397541E+04</rscale>
<asrwt>0</asrwt>
<pdfrwt beam="1">  1        2 0.19356903E+00 0.11397541E+04</pdfrwt>
<pdfrwt beam="2">  1       -2 0.39709988E-01 0.11397541E+04</pdfrwt>
<totfact> 0.10386174E+02</totfact>
</mgrwt>
</event>
<event>
 6    1  0.2063947E-005  0.3247272E+04  0.7818608E-02  0.8176443E-01
          2   -1    0    0  501    0  0.00000000000E+00  0.00000000000E+00  0.15954344398E+04  0.15954344398E+04  0.00000000000E+00 0. -1.
         -2   -1    0    0    0  501 -0.00000000000E+00 -0.00000000000E+00 -0.16523363454E+04  0.16523363454E+04  0.00000000000E+00 0.  1.
         23    2    1    2    0    0  0.76950692056E+03 -0.14006862990E+04 -0.30792695218E+03  0.16300326782E+04  0.90136092455E+02 0.  0.
         11    1    3    3    0    0  0.56211508088E+03 -0.10162324194E+04 -0.26432330002E+03  0.11910367338E+04  0.00000000000E+00 0. -1.
        -11    1    3    3    0    0  0.20739183969E+03 -0.38445387957E+03 -0.43603652164E+02  0.43899594436E+03  0.00000000000E+00 0.  1.
         22    1    1    2    0    0 -0.76950692056E+03  0.14006862990E+04  0.25102504657E+03  0.16177381070E+04  0.00000000000E+00 0.  1.
<mgrwt>
<rscale>  0 0.32472723E+04</rscale>
<asrwt>0</asrwt>
<pdfrwt beam="1">  1        2 0.24545145E+00 0.32472723E+04</pdfrwt>
<pdfrwt beam="2">  1       -2 0.25420559E+00 0.32472723E+04</pdfrwt>
<totfact> 0.56973481E-01</totfact>
</mgrwt>
</event>
<event>
 6    1  0.9906445E-006  0.2292435E+04  0.7818608E-02  0.8480910E-01
         -1   -1    0    0    0  501 -0.00000000000E+00  0.00000000000E+00  0.46799034234E+03  0.46799034234E+03  0.00000000000E+00 0.  1.
          1   -1    0    0  501    0  0.00000000000E+00 -0.00000000000E+00 -0.28073544376E+04  0.28073544376E+04  0.00000000000E+00 0. -1.
         23    2    1    2    0    0  0.44955568242E+03 -0.43854556225E+03 -0.25385711503E+04  0.26164775911E+04  0.84787842463E+02 0.  0.
         13    1    3    3    0    0  0.37843930381E+03 -0.34080642413E+03 -0.19331787424E+04  0.19991361573E+04  0.00000000000E+00 0.  1.
        -13    1    3    3    0    0  0.71116378609E+02 -0.97739138128E+02 -0.60539240782E+03  0.61734143379E+03  0.00000000000E+00 0. -1.
         22    1    1    2    0    0 -0.44955568242E+03  0.43854556225E+03  0.19920705498E+03  0.65886718883E+03  0.00000000000E+00 0.  1.
<mgrwt>
<rscale>  0 0.22924352E+04</rscale>
<asrwt>0</asrwt>
<pdfrwt beam="1">  1        1 0.43190068E+00 0.22924352E+04</pdfrwt>
<pdfrwt beam="2">  1       -1 0.71998515E-01 0.22924352E+04</pdfrwt>
<totfact> 0.14501125E+00</totfact>
</mgrwt>
</event>
<event>
 6    1  0.9906445E-006  0.2338941E+04  0.7818608E-02  0.8462724E-01
         -2   -1    0    0    0  501 -0.00000000000E+00  0.00000000000E+00  0.10782019076E+04  0.10782019076E+04  0.00000000000E+00 0.  1.
          2   -1    0    0  501    0  0.00000000000E+00 -0.00000000000E+00 -0.12684646291E+04  0.12684646291E+04  0.00000000000E+00 0. -1.
         23    2    1    2    0    0 -0.28157321801E+03  0.21040199432E+03 -0.12124833755E+04  0.12657005143E+04  0.91265434988E+02 0.  0.
         11    1    3    3    0    0 -0.89012705183E+02  0.72055432502E+02 -0.25919897765E+03  0.28337141184E+03  0.00000000000E+00 0. -1.
        -11    1    3    3    0    0 -0.19256051283E+03  0.13834656182E+03 -0.95328439785E+03  0.98232910242E+03  0.00000000000E+00 0.  1.
         22    1    1    2    0    0  0.28157321801E+03 -0.21040199432E+03  0.10222206539E+04  0.10809660224E+04  0.00000000000E+00 0.  1.
<mgrwt>
<rscale>  0 0.23389408E+04</rscale>
<asrwt>0</asrwt>
<pdfrwt beam="1">  1        2 0.19514840E+00 0.23389408E+04</pdfrwt>
<pdfrwt beam="2">  1       -2 0.16587722E+00 0.23389408E+04</pdfrwt>
<totfact> 0.35571003E+00</totfact>
</mgrwt>
</event>
<event>
 6    1  0.9906445E-006  0.3383447E+04  0.7818608E-02  0.8141981E-01
          1   -1    0    0  501    0  0.00000000000E+00  0.00000000000E+00  0.31808387462E+04  0.31808387462E+04  0.00000000000E+00 0. -1.
         -1   -1    0    0    0  501 -0.00000000000E+00 -0.00000000000E+00 -0.89973998832E+03  0.89973998832E+03  0.00000000000E+00 0.  1.
         23    2    1    2    0    0  0.24278356850E+03  0.95628166832E+03  0.27969383551E+04  0.29672463581E+04  0.90930178216E+02 0.  0.
         13    1    3    3    0    0  0.17724025919E+02  0.21984595884E+03  0.59924259268E+03  0.63854371158E+03  0.00000000000E+00 0.  1.
        -13    1    3    3    0    0  0.22505954258E+03  0.73643570948E+03  0.21976957624E+04  0.23287026465E+04  0.00000000000E+00 0. -1.
         22    1    1    2    0    0 -0.24278356850E+03 -0.95628166832E+03 -0.51583959720E+03  0.11133323764E+04  0.00000000000E+00 0.  1.
<mgrwt>
<rscale>  0 0.33834467E+04</rscale>
<asrwt>0</asrwt>
<pdfrwt beam="1">  1        1 0.48935980E+00 0.33834467E+04</pdfrwt>
<pdfrwt beam="2">  1       -1 0.13842154E+00 0.33834467E+04</pdfrwt>
<totfact> 0.15612525E-01</totfact>
</mgrwt>
</event>
<event>
 6    1  0.9906445E-006  0.1716294E+04  0.7818608E-02  0.8752125E-01
          2   -1    0    0  501    0  0.00000000000E+00  0.00000000000E+00  0.37489426575E+04  0.37489426575E+04  0.00000000000E+00 0. -1.
         -2   -1    0    0    0  501 -0.00000000000E+00 -0.00000000000E+00 -0.19643314368E+03  0.19643314368E+03  0.00000000000E+00 0.  1.
         23    2    1    2    0    0 -0.27880508510E+03 -0.31706540376E+03  0.34923354781E+04  0.35188975950E+04  0.89277358037E+02 0.  0.
         13    1    3    3    0    0 -0.42759694036E+02 -0.51796683072E+02  0.33568524108E+03  0.34233882177E+03  0.00000000000E+00 0.  1.
        -13    1    3    3    0    0 -0.23604539107E+03 -0.26526872069E+03  0.31566502371E+04  0.31765587733E+04  0.00000000000E+00 0. -1.
         22    1    1    2    0    0  0.27880508510E+03  0.31706540376E+03  0.60174035672E+02  0.42647820614E+03  0.00000000000E+00 0.  1.
<mgrwt>
<rscale>  0 0.17162944E+04</rscale>
<asrwt>0</asrwt>
<pdfrwt beam="1">  1        2 0.57676035E+00 0.17162944E+04</pdfrwt>
<pdfrwt beam="2">  1       -2 0.30220487E-01 0.17162944E+04</pdfrwt>
<totfact> 0.52266164E+00</totfact>
</mgrwt>
</event>
<event>
 6    1  0.9906445E-006  0.2317263E+04  0.7818608E-02  0.8471146E-01
          1   -1    0    0  501    0  0.00000000000E+00  0.00000000000E+00  0.11603835860E+04  0.11603835860E+04  0.00000000000E+00 0. -1.
         -1   -1    0    0    0  501 -0.00000000000E+00 -0.00000000000E+00 -0.11568817506E+04  0.11568817506E+04  0.00000000000E+00 0.  1.
         23    2    1    2    0    0  0.77418421264E+03 -0.97091935692E+01 -0.85780710735E+03  0.11591165731E+04  0.90899576645E+02 0.  0.
         13    1    3    3    0    0  0.24135997267E+03  0.22342426645E+02 -0.21924909982E+03  0.32683939207E+03  0.00000000000E+00 0. -1.
        -13    1    3    3    0    0  0.53282423997E+03 -0.32051620214E+02 -0.63855800753E+03  0.83227718101E+03  0.00000000000E+00 0.  1.
         22    1    1    2    0    0 -0.77418421264E+03  0.97091935692E+01  0.86130894275E+03  0.11581487635E+04  0.00000000000E+00 0. -1.
<mgrwt>
<rscale>  0 0.23172627E+04</rscale>
<asrwt>0</asrwt>
<pdfrwt beam="1">  1        1 0.17852055E+00 0.23172627E+04</pdfrwt>
<pdfrwt beam="2">  1       -1 0.17798181E+00 0.23172627E+04</pdfrwt>
<totfact> 0.22197205E+00</totfact>
</mgrwt>
</event>
<event>
 6    1  0.9906445E-006  0.1530953E+04  0.7818608E-02  0.8864127E-01
          2   -1    0    0  501    0  0.00000000000E+00  0.00000000000E+00  0.72661266380E+03  0.72661266380E+03  0.00000000000E+00 0. -1.
         -2   -1    0    0    0  501 -0.00000000000E+00 -0.00000000000E+00 -0.80641873646E+03  0.80641873646E+03  0.00000000000E+00 0.  1.
         23    2    1    2    0    0 -0.24222980004E+03 -0.63354909773E+03 -0.38963991017E+03  0.78733927739E+03  0.89577580140E+02 0.  0.
         13    1    3    3    0    0 -0.20085487203E+03 -0.58079637028E+03 -0.37060941137E+03  0.71764785176E+03  0.00000000000E+00 0.  1.
        -13    1    3    3    0    0 -0.41374928006E+02 -0.52752727450E+02 -0.19030498800E+02  0.69691425624E+02  0.00000000000E+00 0. -1.
         22    1    1    2    0    0  0.24222980004E+03  0.63354909773E+03  0.30983383750E+03  0.74569212288E+03  0.00000000000E+00 0.  1.
<mgrwt>
<rscale>  0 0.15309527E+04</rscale>
<asrwt>0</asrwt>
<pdfrwt beam="1">  1        2 0.11178656E+00 0.15309527E+04</pdfrwt>
<pdfrwt beam="2">  1       -2 0.12406442E+00 0.15309527E+04</pdfrwt>
<totfact> 0.18397199E+01</totfact>
</mgrwt>
</event>
<event>
 6    1  0.9906445E-006  0.5783041E+03  0.7818608E-02  0.9951469E-01
          1   -1    0    0  501    0  0.00000000000E+00  0.00000000000E+00  0.42251538504E+03  0.42251538504E+03  0.00000000000E+00 0. -1.
         -1   -1    0    0    0  501 -0.00000000000E+00 -0.00000000000E+00 -0.19788367269E+03  0.19788367269E+03  0.00000000000E+00 0.  1.
         23    2    1    2    0    0  0.49860563545E+02  0.19182410678E+03  0.32984615211E+03  0.39600511379E+03  0.93482631226E+02 0.  0.
         13    1    3    3    0    0  0.56940824807E+02  0.10072693172E+03  0.24660692700E+03  0.27240254908E+03  0.00000000000E+00 0.  1.
        -13    1    3    3    0    0 -0.70802612623E+01  0.91097175059E+02  0.83239225118E+02  0.12360256470E+03  0.00000000000E+00 0. -1.
         22    1    1    2    0    0 -0.49860563545E+02 -0.19182410678E+03 -0.10521443976E+03  0.22439394394E+03  0.00000000000E+00 0.  1.
<mgrwt>
<rscale>  0 0.57830406E+03</rscale>
<asrwt>0</asrwt>
<pdfrwt beam="1">  1        1 0.65002367E-01 0.57830406E+03</pdfrwt>
<pdfrwt beam="2">  1       -1 0.30443642E-01 0.57830406E+03</pdfrwt>
<totfact> 0.55980374E+02</totfact>
</mgrwt>
</event>
<event>
 6    1  0.9906445E-006  0.2639232E+04  0.7818608E-02  0.8354996E-01
         -1   -1    0    0    0  501 -0.00000000000E+00  0.00000000000E+00  0.12554849965E+04  0.12554849965E+04  0.00000000000E+00 0.  1.
          1   -1    0    0  501    0  0.00000000000E+00 -0.00000000000E+00 -0.13870231341E+04  0.13870231341E+04  0.00000000000E+00 0. -1.
         23    2    1    2    0    0 -0.11992464559E+04  0.36380480962E+03  0.34323220485E+03  0.13023764657E+04  0.88487910966E+02 0.  0.
         11    1    3    3    0    0 -0.43415370390E+03  0.16488026567E+03  0.97478509094E+02  0.47452818710E+03  0.00000000000E+00 0. -1.
        -11    1    3    3    0    0 -0.76509275198E+03  0.19892454395E+03  0.24575369576E+03  0.82784827855E+03  0.00000000000E+00 0.  1.
         22    1    1    2    0    0  0.11992464559E+04 -0.36380480962E+03 -0.47477034248E+03  0.13401316650E+04  0.00000000000E+00 0. -1.
<mgrwt>
<rscale>  0 0.26392323E+04</rscale>
<asrwt>0</asrwt>
<pdfrwt beam="1">  1        1 0.21338817E+00 0.26392323E+04</pdfrwt>
<pdfrwt beam="2">  1       -1 0.19315154E+00 0.26392323E+04</pdfrwt>
<totfact> 0.11566297E+00</totfact>
</mgrwt>
</event>
<event>
 6    1  0.9906445E-006  0.4687282E+04  0.7818608E-02  0.7878645E-01
          1   -1    0    0  501    0  0.00000000000E+00  0.00000000000E+00  0.30543894022E+04  0.30543894022E+04  0.00000000000E+00 0. -1.
         -1   -1    0    0    0  501 -0.00000000000E+00 -0.00000000000E+00 -0.17982817030E+04  0.17982817030E+04  0.00000000000E+00 0.  1.
         23    2    1    2    0    0 -0.10139842825E+04 -0.20845022309E+04  0.97979259150E+03  0.25182196248E+04  0.90127024655E+02 0.  0.
         11    1    3    3    0    0 -0.77377057426E+03 -0.16723145781E+04  0.78601561398E+03  0.20032916650E+04  0.00000000000E+00 0.  1.
        -11    1    3    3    0    0 -0.24021370822E+03 -0.41218765284E+03  0.19377697752E+03  0.51492795981E+03  0.00000000000E+00 0. -1.
         22    1    1    2    0    0  0.10139842825E+04  0.20845022309E+04  0.27631510769E+03  0.23344514804E+04  0.00000000000E+00 0.  1.
<mgrwt>
<rscale>  0 0.46872818E+04</rscale>
<asrwt>0</asrwt>
<pdfrwt beam="1">  1        1 0.46990606E+00 0.46872818E+04</pdfrwt>
<pdfrwt beam="2">  1       -1 0.27665872E+00 0.46872818E+04</pdfrwt>
<totfact> 0.18875493E-02</totfact>
</mgrwt>
</event>
<event>
 6    1  0.9906445E-006  0.2278518E+04  0.7818608E-02  0.8486440E-01
         -2   -1    0    0    0  501 -0.00000000000E+00  0.00000000000E+00  0.17008213577E+04  0.17008213577E+04  0.00000000000E+00 0.  1.
          2   -1    0    0  501    0  0.00000000000E+00 -0.00000000000E+00 -0.76310831139E+03  0.76310831139E+03  0.00000000000E+00 0. -1.
         23    2    1    2    0    0  0.10607073173E+03 -0.70630336947E+03 -0.48815431277E+03  0.86918417982E+03  0.84089568373E+02 0.  0.
         13    1    3    3    0    0  0.71250107372E+02 -0.30625113331E+03 -0.25504218946E+03  0.40486152307E+03  0.00000000000E+00 0.  1.
        -13    1    3    3    0    0  0.34820624363E+02 -0.40005223616E+03 -0.23311212331E+03  0.46432265675E+03  0.00000000000E+00 0. -1.
         22    1    1    2    0    0 -0.10607073173E+03  0.70630336947E+03  0.14258673591E+04  0.15947454893E+04  0.00000000000E+00 0.  1.
<mgrwt>
<rscale>  0 0.22785179E+04</rscale>
<asrwt>0</asrwt>
<pdfrwt beam="1">  1        2 0.11740128E+00 0.22785179E+04</pdfrwt>
<pdfrwt beam="2">  1       -2 0.26166482E+00 0.22785179E+04</pdfrwt>
<totfact> 0.18145069E+00</totfact>
</mgrwt>
</event>
<event>
 6    1  0.9906445E-006  0.2214302E+04  0.7818608E-02  0.8512499E-01
         -2   -1    0    0    0  501 -0.00000000000E+00  0.00000000000E+00  0.56161709119E+03  0.56161709119E+03  0.00000000000E+00 0.  1.
          2   -1    0    0  501    0  0.00000000000E+00 -0.00000000000E+00 -0.21825965229E+04  0.21825965229E+04  0.00000000000E+00 0. -1.
         23    2    1    2    0    0 -0.10430325432E+04 -0.28831986719E+03 -0.10909741163E+04  0.15392443753E+04  0.89462240599E+02 0.  0.
         13    1    3    3    0    0 -0.90929978116E+03 -0.25121338870E+03 -0.90572301725E+03  0.13077723207E+04  0.00000000000E+00 0.  1.
        -13    1    3    3    0    0 -0.13373276205E+03 -0.37106478493E+02 -0.18525109907E+03  0.23147205468E+03  0.00000000000E+00 0. -1.
         22    1    1    2    0    0  0.10430325432E+04  0.28831986719E+03 -0.53000531538E+03  0.12049692388E+04  0.00000000000E+00 0.  1.
<mgrwt>
<rscale>  0 0.22143022E+04</rscale>
<asrwt>0</asrwt>
<pdfrwt beam="1">  1        2 0.33578408E+00 0.22143022E+04</pdfrwt>
<pdfrwt beam="2">  1       -2 0.86402629E-01 0.22143022E+04</pdfrwt>
<totfact> 0.55960937E+00</totfact>
</mgrwt>
</event>
<event>
 6    1  0.9906445E-006  0.2355927E+04  0.7818608E-02  0.8456191E-01
         -2   -1    0    0    0  501 -0.00000000000E+00  0.00000000000E+00  0.67007541945E+03  0.67007541945E+03  0.00000000000E+00 0. -1.
          2   -1    0    0  501    0  0.00000000000E+00 -0.00000000000E+00 -0.20708084105E+04  0.20708084105E+04  0.00000000000E+00 0.  1.
         23    2    1    2    0    0  0.85896015067E+02 -0.58929484793E+03  0.47867904166E+03  0.76937777317E+03  0.90343730990E+02 0.  0.
         13    1    3    3    0    0 -0.99303066525E+01 -0.15823266495E+03  0.98242658292E+02  0.18651489795E+03  0.00000000000E+00 0.  1.
        -13    1    3    3    0    0  0.95826321720E+02 -0.43106218297E+03  0.38043638337E+03  0.58286287523E+03  0.00000000000E+00 0. -1.
         22    1    1    2    0    0 -0.85896015067E+02  0.58929484793E+03 -0.18794120327E+04  0.19715060568E+04  0.00000000000E+00 0.  1.
<mgrwt>
<rscale>  0 0.23559268E+04</rscale>
<asrwt>0</asrwt>
<pdfrwt beam="1">  1        2 0.31858591E+00 0.23559268E+04</pdfrwt>
<pdfrwt beam="2">  1       -2 0.10308853E+00 0.23559268E+04</pdfrwt>
<totfact> 0.42292008E+00</totfact>
</mgrwt>
</event>
<event>
 6    1  0.9906445E-006  0.6310873E+04  0.7818608E-02  0.7653008E-01
         -2   -1    0    0    0  501 -0.00000000000E+00  0.00000000000E+00  0.56263841801E+04  0.56263841801E+04  0.00000000000E+00 0.  1.
          2   -1    0    0  501    0  0.00000000000E+00 -0.00000000000E+00 -0.17696585665E+04  0.17696585665E+04  0.00000000000E+00 0. -1.
         23    2    1    2    0    0  0.20369943399E+04 -0.22296106522E+04  0.29980462210E+04  0.42563230297E+04  0.86573605362E+02 0.  0.
         13    1    3    3    0    0  0.11698738145E+04 -0.12213111349E+04  0.17007170508E+04  0.23984670348E+04  0.00000000000E+00 0. -1.
        -13    1    3    3    0    0  0.86712052533E+03 -0.10082995174E+04  0.12973291702E+04  0.18578559950E+04  0.00000000000E+00 0.  1.
         22    1    1    2    0    0 -0.20369943399E+04  0.22296106522E+04  0.85867939269E+03  0.31397197169E+04  0.00000000000E+00 0. -1.
<mgrwt>
<rscale>  0 0.63108728E+04</rscale>
<asrwt>0</asrwt>
<pdfrwt beam="1">  1        2 0.27225517E+00 0.63108728E+04</pdfrwt>
<pdfrwt beam="2">  1       -2 0.86559756E+00 0.63108728E+04</pdfrwt>
<totfact> 0.13521463E-04</totfact>
</mgrwt>
</event>
<event>
 6    1  0.9906445E-006  0.4948378E+04  0.7818608E-02  0.7836520E-01
          2   -1    0    0  501    0  0.00000000000E+00  0.00000000000E+00  0.25844767563E+04  0.25844767563E+04  0.00000000000E+00 0. -1.
         -2   -1    0    0    0  501 -0.00000000000E+00 -0.00000000000E+00 -0.23686073865E+04  0.23686073865E+04  0.00000000000E+00 0.  1.
         23    2    1    2    0    0  0.78939973073E+03 -0.32227493623E+03  0.24319171255E+04  0.25786619553E+04  0.90903823612E+02 0.  0.
         13    1    3    3    0    0  0.70269582058E+03 -0.26490724306E+03  0.20655532396E+04  0.21978324434E+04  0.00000000000E+00 0.  1.
        -13    1    3    3    0    0  0.86703910155E+02 -0.57367693162E+02  0.36636388587E+03  0.38082951189E+03  0.00000000000E+00 0. -1.
         22    1    1    2    0    0 -0.78939973073E+03  0.32227493623E+03 -0.22160477556E+04  0.23744221875E+04  0.00000000000E+00 0.  1.
<mgrwt>
<rscale>  0 0.49483778E+04</rscale>
<asrwt>0</asrwt>
<pdfrwt beam="1">  1        2 0.39761181E+00 0.49483778E+04</pdfrwt>
<pdfrwt beam="2">  1       -2 0.36440114E+00 0.49483778E+04</pdfrwt>
<totfact> 0.28645067E-02</totfact>
</mgrwt>
</event>
<event>
 6    1  0.9906445E-006  0.5146967E+03  0.7818608E-02  0.1010012E+00
         -2   -1    0    0    0  501 -0.00000000000E+00  0.00000000000E+00  0.22207341954E+04  0.22207341954E+04  0.00000000000E+00 0.  1.
          2   -1    0    0  501    0  0.00000000000E+00 -0.00000000000E+00 -0.29822646066E+02  0.29822646066E+02  0.00000000000E+00 0. -1.
         23    2    1    2    0    0  0.22067114106E+03 -0.11550110508E+03  0.11986208220E+04  0.12274844367E+04  0.89386294885E+02 0.  0.
         13    1    3    3    0    0  0.10544059418E+03 -0.80674009913E+02  0.80477902985E+03  0.81565636249E+03  0.00000000000E+00 0.  1.
        -13    1    3    3    0    0  0.11523054689E+03 -0.34827095170E+02  0.39384179213E+03  0.41182807423E+03  0.00000000000E+00 0. -1.
         22    1    1    2    0    0 -0.22067114106E+03  0.11550110508E+03  0.99229072734E+03  0.10230724047E+04  0.00000000000E+00 0.  1.
<mgrwt>
<rscale>  0 0.51469669E+03</rscale>
<asrwt>0</asrwt>
<pdfrwt beam="1">  1        2 0.45881011E-02 0.51469669E+03</pdfrwt>
<pdfrwt beam="2">  1       -2 0.34165129E+00 0.51469669E+03</pdfrwt>
<totfact> 0.35246309E+01</totfact>
</mgrwt>
</event>
<event>
 6    1  0.9906445E-006  0.1879470E+04  0.7818608E-02  0.8665143E-01
         -2   -1    0    0    0  501 -0.00000000000E+00  0.00000000000E+00  0.89003010380E+03  0.89003010380E+03  0.00000000000E+00 0.  1.
          2   -1    0    0  501    0  0.00000000000E+00 -0.00000000000E+00 -0.99221571878E+03  0.99221571878E+03  0.00000000000E+00 0. -1.
         23    2    1    2    0    0 -0.37887323083E+03  0.21528040511E+03  0.78004801445E+03  0.89826068308E+03  0.92232163920E+02 0.  0.
         13    1    3    3    0    0 -0.33932962910E+03  0.16509584427E+03  0.61840724720E+03  0.72445065972E+03  0.00000000000E+00 0.  1.
        -13    1    3    3    0    0 -0.39543601736E+02  0.50184560840E+02  0.16164076725E+03  0.17381002336E+03  0.00000000000E+00 0. -1.
         22    1    1    2    0    0  0.37887323083E+03 -0.21528040511E+03 -0.88223362943E+03  0.98398513950E+03  0.00000000000E+00 0. -1.
<mgrwt>
<rscale>  0 0.18794700E+04</rscale>
<asrwt>0</asrwt>
<pdfrwt beam="1">  1        2 0.15264857E+00 0.18794700E+04</pdfrwt>
<pdfrwt beam="2">  1       -2 0.13692771E+00 0.18794700E+04</pdfrwt>
<totfact> 0.90933535E+00</totfact>
</mgrwt>
</event>
<event>
 6    1  0.9906445E-006  0.5025056E+03  0.7818608E-02  0.1013127E+00
          4   -1    0    0  501    0  0.00000000000E+00  0.00000000000E+00  0.48905509966E+03  0.48905509966E+03  0.00000000000E+00 0. -1.
         -4   -1    0    0    0  501 -0.00000000000E+00 -0.00000000000E+00 -0.12908153035E+03  0.12908153035E+03  0.00000000000E+00 0.  1.
         23    2    1    2    0    0 -0.43053364034E+02 -0.20426892873E+03  0.33835005754E+03  0.40826294500E+03  0.92835787396E+02 0.  0.
         11    1    3    3    0    0 -0.35167560809E+02 -0.19295318858E+03  0.24469342048E+03  0.31359617399E+03  0.00000000000E+00 0.  1.
        -11    1    3    3    0    0 -0.78858032251E+01 -0.11315740156E+02  0.93656637059E+02  0.94666771008E+02  0.00000000000E+00 0. -1.
         22    1    1    2    0    0  0.43053364034E+02  0.20426892873E+03  0.21623511768E+02  0.20987368502E+03  0.00000000000E+00 0. -1.
<mgrwt>
<rscale>  0 0.50250564E+03</rscale>
<asrwt>0</asrwt>
<pdfrwt beam="1">  1        4 0.75239245E-01 0.50250564E+03</pdfrwt>
<pdfrwt beam="2">  1       -4 0.19858697E-01 0.50250564E+03</pdfrwt>
<totfact> 0.72730958E+01</totfact>
</mgrwt>
</event>
<event>
 6    1  0.9906445E-006  0.1071245E+04  0.7818608E-02  0.9233681E-01
         -2   -1    0    0    0  501 -0.00000000000E+00  0.00000000000E+00  0.18124657402E+03  0.18124657402E+03  0.00000000000E+00 0.  1.
          2   -1    0    0  501    0  0.00000000000E+00 -0.00000000000E+00 -0.15828785314E+04  0.15828785314E+04  0.00000000000E+00 0. -1.
         23    2    1    2    0    0 -0.60018184698E+02  0.19468913137E+02 -0.15762564749E+04  0.15784508121E+04  0.54233481149E+02 0.  0.
         11    1    3    3    0    0 -0.56504736157E+02  0.14621605514E+02 -0.78321048492E+03  0.78538222558E+03  0.00000000000E+00 0. -1.
        -11    1    3    3    0    0 -0.35134485410E+01  0.48473076230E+01 -0.79304598999E+03  0.79306858653E+03  0.00000000000E+00 0.  1.
         22    1    1    2    0    0  0.60018184698E+02 -0.19468913137E+02  0.17462451753E+03  0.18567429331E+03  0.00000000000E+00 0.  1.
<mgrwt>
<rscale>  0 0.10712447E+04</rscale>
<asrwt>0</asrwt>
<pdfrwt beam="1">  1        2 0.24351976E+00 0.10712447E+04</pdfrwt>
<pdfrwt beam="2">  1       -2 0.27884089E-01 0.10712447E+04</pdfrwt>
<totfact> 0.13311983E+02</totfact>
</mgrwt>
</event>
<event>
 6    1  0.9906445E-006  0.1012132E+04  0.7818608E-02  0.9295338E-01
         -2   -1    0    0    0  501 -0.00000000000E+00  0.00000000000E+00  0.60775801887E+03  0.60775801887E+03  0.00000000000E+00 0.  1.
          2   -1    0    0  501    0  0.00000000000E+00 -0.00000000000E+00 -0.42138953271E+03  0.42138953271E+03  0.00000000000E+00 0. -1.
         23    2    1    2    0    0  0.80636953727E+02 -0.42720116714E+03 -0.16200975090E+03  0.47203844955E+03  0.87005648973E+02 0.  0.
         11    1    3    3    0    0  0.80240078069E+02 -0.19577769535E+03 -0.67898206126E+02  0.22221058148E+03  0.00000000000E+00 0. -1.
        -11    1    3    3    0    0  0.39687565821E+00 -0.23142347179E+03 -0.94111544772E+02  0.24982786807E+03  0.00000000000E+00 0.  1.
         22    1    1    2    0    0 -0.80636953727E+02  0.42720116714E+03  0.34837823706E+03  0.55710910203E+03  0.00000000000E+00 0.  1.
<mgrwt>
<rscale>  0 0.10121321E+04</rscale>
<asrwt>0</asrwt>
<pdfrwt beam="1">  1        2 0.64829159E-01 0.10121321E+04</pdfrwt>
<pdfrwt beam="2">  1       -2 0.93501234E-01 0.10121321E+04</pdfrwt>
<totfact> 0.72376543E+01</totfact>
</mgrwt>
</event>
<event>
 6    1  0.9906445E-006  0.6359130E+03  0.7818608E-02  0.9833578E-01
         -2   -1    0    0    0  501 -0.00000000000E+00  0.00000000000E+00  0.42324689204E+03  0.42324689204E+03  0.00000000000E+00 0. -1.
          2   -1    0    0  501    0  0.00000000000E+00 -0.00000000000E+00 -0.23885897865E+03  0.23885897865E+03  0.00000000000E+00 0.  1.
         23    2    1    2    0    0  0.17109132102E+03  0.19638401057E+03 -0.82452297077E+02  0.28922168269E+03  0.94930925981E+02 0.  0.
         11    1    3    3    0    0  0.14553252355E+03  0.20016771393E+03 -0.88244458113E+02  0.26274305604E+03  0.00000000000E+00 0. -1.
        -11    1    3    3    0    0  0.25558797474E+02 -0.37837033658E+01  0.57921610352E+01  0.26478626644E+02  0.00000000000E+00 0.  1.
         22    1    1    2    0    0 -0.17109132102E+03 -0.19638401057E+03  0.26684021047E+03  0.37288418800E+03  0.00000000000E+00 0. -1.
<mgrwt>
<rscale>  0 0.63591295E+03</rscale>
<asrwt>0</asrwt>
<pdfrwt beam="1">  1        2 0.36747535E-01 0.63591295E+03</pdfrwt>
<pdfrwt beam="2">  1       -2 0.65114906E-01 0.63591295E+03</pdfrwt>
<totfact> 0.31114793E+02</totfact>
</mgrwt>
</event>
<event>
 6    1  0.9906445E-006  0.1233463E+04  0.7818608E-02  0.9084061E-01
         -1   -1    0    0    0  501 -0.00000000000E+00  0.00000000000E+00  0.27838283180E+03  0.27838283180E+03  0.00000000000E+00 0.  1.
          1   -1    0    0  501    0  0.00000000000E+00 -0.00000000000E+00 -0.13663110891E+04  0.13663110891E+04  0.00000000000E+00 0. -1.
         23    2    1    2    0    0  0.16957570524E+03  0.13586384430E+03 -0.13118044846E+04  0.13327075924E+04  0.89797644201E+02 0.  0.
         11    1    3    3    0    0  0.30222772526E+02  0.26293769566E+01 -0.73979740653E+02  0.79958311822E+02  0.00000000000E+00 0. -1.
        -11    1    3    3    0    0  0.13935293271E+03  0.13323446735E+03 -0.12378247440E+04  0.12527492805E+04  0.00000000000E+00 0.  1.
         22    1    1    2    0    0 -0.16957570524E+03 -0.13586384430E+03  0.22387622736E+03  0.31198632850E+03  0.00000000000E+00 0.  1.
<mgrwt>
<rscale>  0 0.12334627E+04</rscale>
<asrwt>0</asrwt>
<pdfrwt beam="1">  1        1 0.21020170E+00 0.12334627E+04</pdfrwt>
<pdfrwt beam="2">  1       -1 0.42828128E-01 0.12334627E+04</pdfrwt>
<totfact> 0.43011017E+01</totfact>
</mgrwt>
</event>
<event>
 6    1  0.9906445E-006  0.1527917E+04  0.7818608E-02  0.8866098E-01
          1   -1    0    0  501    0  0.00000000000E+00  0.00000000000E+00  0.25947873124E+04  0.25947873124E+04  0.00000000000E+00 0. -1.
         -1   -1    0    0    0  501 -0.00000000000E+00 -0.00000000000E+00 -0.22492507219E+03  0.22492507219E+03  0.00000000000E+00 0.  1.
         23    2    1    2    0    0  0.18467812720E+02  0.59352888989E+03  0.31041334819E+03  0.67636282324E+03  0.92155405070E+02 0.  0.
         11    1    3    3    0    0  0.15742937791E+02  0.12286993303E+03  0.26440182964E+02  0.12666469046E+03  0.00000000000E+00 0.  1.
        -11    1    3    3    0    0  0.27248749294E+01  0.47065895686E+03  0.28397316522E+03  0.54969813278E+03  0.00000000000E+00 0. -1.
         22    1    1    2    0    0 -0.18467812720E+02 -0.59352888989E+03  0.20594488920E+04  0.21433495613E+04  0.00000000000E+00 0. -1.
<mgrwt>
<rscale>  0 0.15279172E+04</rscale>
<asrwt>0</asrwt>
<pdfrwt beam="1">  1        1 0.39919803E+00 0.15279172E+04</pdfrwt>
<pdfrwt beam="2">  1       -1 0.34603859E-01 0.15279172E+04</pdfrwt>
<totfact> 0.89206812E+00</totfact>
</mgrwt>
</event>
<event>
 6    1  0.9906445E-006  0.1070887E+04  0.7818608E-02  0.9234041E-01
          2   -1    0    0  501    0  0.00000000000E+00  0.00000000000E+00  0.73568114537E+03  0.73568114537E+03  0.00000000000E+00 0. -1.
         -2   -1    0    0    0  501 -0.00000000000E+00 -0.00000000000E+00 -0.38970646875E+03  0.38970646875E+03  0.00000000000E+00 0.  1.
         23    2    1    2    0    0 -0.44899112006E+02 -0.14215199189E+03  0.71046716398E+03  0.73158830940E+03  0.90745491873E+02 0.  0.
         11    1    3    3    0    0 -0.11925093202E+02 -0.14061631670E+03  0.59400841099E+03  0.61054168465E+03  0.00000000000E+00 0. -1.
        -11    1    3    3    0    0 -0.32974018805E+02 -0.15356751925E+01  0.11645875300E+03  0.12104662475E+03  0.00000000000E+00 0.  1.
         22    1    1    2    0    0  0.44899112006E+02  0.14215199189E+03 -0.36449248736E+03  0.39379930472E+03  0.00000000000E+00 0.  1.
<mgrwt>
<rscale>  0 0.10708869E+04</rscale>
<asrwt>0</asrwt>
<pdfrwt beam="1">  1        2 0.11318171E+00 0.10708869E+04</pdfrwt>
<pdfrwt beam="2">  1       -2 0.59954841E-01 0.10708869E+04</pdfrwt>
<totfact> 0.99235193E+01</totfact>
</mgrwt>
</event>
<event>
 6    1  0.9906445E-006  0.1424374E+04  0.7818608E-02  0.8936362E-01
         -1   -1    0    0    0  501 -0.00000000000E+00  0.00000000000E+00  0.97282123155E+03  0.97282123155E+03  0.00000000000E+00 0.  1.
          1   -1    0    0  501    0  0.00000000000E+00 -0.00000000000E+00 -0.52138093106E+03  0.52138093106E+03  0.00000000000E+00 0. -1.
         23    2    1    2    0    0  0.64395010986E+03 -0.24598666766E+03  0.40121334940E+03  0.80304087082E+03  0.93387921111E+02 0.  0.
         11    1    3    3    0    0  0.48705672368E+03 -0.18632045318E+03  0.34807996870E+03  0.62697625790E+03  0.00000000000E+00 0. -1.
        -11    1    3    3    0    0  0.15689338618E+03 -0.59666214485E+02  0.53133380693E+02  0.17606461292E+03  0.00000000000E+00 0.  1.
         22    1    1    2    0    0 -0.64395010986E+03  0.24598666766E+03  0.50226951098E+02  0.69116129179E+03  0.00000000000E+00 0.  1.
<mgrwt>
<rscale>  0 0.14243742E+04</rscale>
<asrwt>0</asrwt>
<pdfrwt beam="1">  1        1 0.80212451E-01 0.14243742E+04</pdfrwt>
<pdfrwt beam="2">  1       -1 0.14966480E+00 0.14243742E+04</pdfrwt>
<totfact> 0.14285861E+01</totfact>
</mgrwt>
</event>
<event>
 6    1  0.9906445E-006  0.3853287E+04  0.7818608E-02  0.8034815E-01
          2   -1    0    0  501    0  0.00000000000E+00  0.00000000000E+00  0.40519427561E+04  0.40519427561E+04  0.00000000000E+00 0. -1.
         -2   -1    0    0    0  501 -0.00000000000E+00 -0.00000000000E+00 -0.91609277385E+03  0.91609277385E+03  0.00000000000E+00 0.  1.
         23    2    1    2    0    0 -0.18622291452E+04  0.46132843162E+03  0.17818787191E+04  0.26198533623E+04  0.88422616519E+02 0.  0.
         11    1    3    3    0    0 -0.64701748111E+03  0.11715087795E+03  0.61366758920E+03  0.89941306368E+03  0.00000000000E+00 0. -1.
        -11    1    3    3    0    0 -0.12152116641E+04  0.34417755367E+03  0.11682111299E+04  0.17204402986E+04  0.00000000000E+00 0.  1.
         22    1    1    2    0    0  0.18622291452E+04 -0.46132843162E+03  0.13539712631E+04  0.23481821677E+04  0.00000000000E+00 0.  1.
<mgrwt>
<rscale>  0 0.38532872E+04</rscale>
<asrwt>0</asrwt>
<pdfrwt beam="1">  1        2 0.62337580E+00 0.38532872E+04</pdfrwt>
<pdfrwt beam="2">  1       -2 0.14093735E+00 0.38532872E+04</pdfrwt>
<totfact> 0.87104771E-02</totfact>
</mgrwt>
</event>
<event>
 6    1  0.9906445E-006  0.2145755E+04  0.7818608E-02  0.8541352E-01
          2   -1    0    0  501    0  0.00000000000E+00  0.00000000000E+00  0.31913555128E+04  0.31913555128E+04  0.00000000000E+00 0. -1.
         -2   -1    0    0    0  501 -0.00000000000E+00 -0.00000000000E+00 -0.36068243017E+03  0.36068243017E+03  0.00000000000E+00 0.  1.
         23    2    1    2    0    0  0.31013009189E+03  0.96793868235E+03  0.19763583620E+04  0.22242805824E+04  0.91355172125E+02 0.  0.
         11    1    3    3    0    0  0.25725111551E+03  0.71058137125E+03  0.14027741857E+04  0.15933861546E+04  0.00000000000E+00 0. -1.
        -11    1    3    3    0    0  0.52878976378E+02  0.25735731111E+03  0.57358417629E+03  0.63089442779E+03  0.00000000000E+00 0.  1.
         22    1    1    2    0    0 -0.31013009189E+03 -0.96793868235E+03  0.85431472066E+03  0.13277573606E+04  0.00000000000E+00 0.  1.
<mgrwt>
<rscale>  0 0.21457548E+04</rscale>
<asrwt>0</asrwt>
<pdfrwt beam="1">  1        2 0.49097775E+00 0.21457548E+04</pdfrwt>
<pdfrwt beam="2">  1       -2 0.55489607E-01 0.21457548E+04</pdfrwt>
<totfact> 0.36898918E+00</totfact>
</mgrwt>
</event>
<event>
 6    1  0.9906445E-006  0.1665692E+04  0.7818608E-02  0.8781177E-01
         -1   -1    0    0    0  501 -0.00000000000E+00  0.00000000000E+00  0.53475615369E+03  0.53475615369E+03  0.00000000000E+00 0.  1.
          1   -1    0    0  501    0  0.00000000000E+00 -0.00000000000E+00 -0.12971003846E+04  0.12971003846E+04  0.00000000000E+00 0. -1.
         23    2    1    2    0    0  0.61478645116E+03  0.68323638770E+02  0.22662966164E+03  0.66536613529E+03  0.93384100944E+02 0.  0.
         13    1    3    3    0    0  0.22205256672E+03  0.15419432669E+02  0.35497865035E+02  0.22540008810E+03  0.00000000000E+00 0. -1.
        -13    1    3    3    0    0  0.39273388444E+03  0.52904206101E+02  0.19113179660E+03  0.43996604719E+03  0.00000000000E+00 0.  1.
         22    1    1    2    0    0 -0.61478645116E+03 -0.68323638770E+02 -0.98897389254E+03  0.11664904030E+04  0.00000000000E+00 0. -1.
<mgrwt>
<rscale>  0 0.16656919E+04</rscale>
<asrwt>0</asrwt>
<pdfrwt beam="1">  1        1 0.19955391E+00 0.16656919E+04</pdfrwt>
<pdfrwt beam="2">  1       -1 0.82270178E-01 0.16656919E+04</pdfrwt>
<totfact> 0.12744023E+01</totfact>
</mgrwt>
</event>
<event>
 6    1  0.9906445E-006  0.3127287E+04  0.7818608E-02  0.8208289E-01
         -1   -1    0    0    0  501 -0.00000000000E+00  0.00000000000E+00  0.91257540369E+03  0.91257540369E+03  0.00000000000E+00 0.  1.
          1   -1    0    0  501    0  0.00000000000E+00 -0.00000000000E+00 -0.26792100155E+04  0.26792100155E+04  0.00000000000E+00 0. -1.
         23    2    1    2    0    0 -0.70842766298E+03  0.97066307581E+03  0.26269841178E+03  0.12333433315E+04  0.89826262091E+02 0.  0.
         11    1    3    3    0    0 -0.21340012544E+03  0.33280875968E+03  0.50870316771E+02  0.39860892261E+03  0.00000000000E+00 0.  1.
        -11    1    3    3    0    0 -0.49502753755E+03  0.63785431613E+03  0.21182809501E+03  0.83473440888E+03  0.00000000000E+00 0. -1.
         22    1    1    2    0    0  0.70842766298E+03 -0.97066307581E+03 -0.20293330236E+04  0.23584420877E+04  0.00000000000E+00 0. -1.
<mgrwt>
<rscale>  0 0.31272871E+04</rscale>
<asrwt>0</asrwt>
<pdfrwt beam="1">  1        1 0.41218615E+00 0.31272871E+04</pdfrwt>
<pdfrwt beam="2">  1       -1 0.14039622E+00 0.31272871E+04</pdfrwt>
<totfact> 0.35537454E-01</totfact>
</mgrwt>
</event>
<event>
 6    1  0.1564924E-005  0.2956816E+04  0.7818608E-02  0.8256171E-01
          2   -1    0    0  501    0  0.00000000000E+00  0.00000000000E+00  0.27050620639E+04  0.27050620639E+04  0.00000000000E+00 0. -1.
         -2   -1    0    0    0  501 -0.00000000000E+00 -0.00000000000E+00 -0.80799980490E+03  0.80799980490E+03  0.00000000000E+00 0.  1.
         23    2    1    2    0    0 -0.64152837588E+03 -0.57081855696E+03 -0.47843259080E+03  0.98712278335E+03  0.90117497955E+02 0.  0.
         11    1    3    3    0    0 -0.23010233534E+03 -0.21663394422E+03 -0.22535086782E+03  0.38814992483E+03  0.00000000000E+00 0.  1.
        -11    1    3    3    0    0 -0.41142604054E+03 -0.35418461275E+03 -0.25308172297E+03  0.59897285852E+03  0.00000000000E+00 0. -1.
         22    1    1    2    0    0  0.64152837588E+03  0.57081855696E+03  0.23754948498E+04  0.25259390855E+04  0.00000000000E+00 0. -1.
<mgrwt>
<rscale>  0 0.29568156E+04</rscale>
<asrwt>0</asrwt>
<pdfrwt beam="1">  1        2 0.41616339E+00 0.29568156E+04</pdfrwt>
<pdfrwt beam="2">  1       -2 0.12430766E+00 0.29568156E+04</pdfrwt>
<totfact> 0.11010744E+00</totfact>
</mgrwt>
</event>
<event>
 6    1  0.9906445E-006  0.2772842E+04  0.7818608E-02  0.8311750E-01
          2   -1    0    0  501    0  0.00000000000E+00  0.00000000000E+00  0.23596303508E+04  0.23596303508E+04  0.00000000000E+00 0. -1.
         -2   -1    0    0    0  501 -0.00000000000E+00 -0.00000000000E+00 -0.81460337190E+03  0.81460337190E+03  0.00000000000E+00 0.  1.
         23    2    1    2    0    0 -0.13796930832E+04  0.80620083132E+02  0.67088597583E+03  0.15389431996E+04  0.90584642121E+02 0.  0.
         13    1    3    3    0    0 -0.10416636519E+04  0.71541711941E+02  0.54773065883E+03  0.11790632955E+04  0.00000000000E+00 0.  1.
        -13    1    3    3    0    0 -0.33802943130E+03  0.90783711910E+01  0.12315531700E+03  0.35987990407E+03  0.00000000000E+00 0. -1.
         22    1    1    2    0    0  0.13796930832E+04 -0.80620083132E+02  0.87414100305E+03  0.16352905231E+04  0.00000000000E+00 0.  1.
<mgrwt>
<rscale>  0 0.27728417E+04</rscale>
<asrwt>0</asrwt>
<pdfrwt beam="1">  1        2 0.36302005E+00 0.27728417E+04</pdfrwt>
<pdfrwt beam="2">  1       -2 0.12532360E+00 0.27728417E+04</pdfrwt>
<totfact> 0.17415558E+00</totfact>
</mgrwt>
</event>
<event>
 6    1  0.9906445E-006  0.7560832E+03  0.7818608E-02  0.9625855E-01
          1   -1    0    0  501    0  0.00000000000E+00  0.00000000000E+00  0.77368039452E+03  0.77368039452E+03  0.00000000000E+00 0. -1.
         -1   -1    0    0    0  501 -0.00000000000E+00 -0.00000000000E+00 -0.18472155223E+03  0.18472155223E+03  0.00000000000E+00 0.  1.
         23    2    1    2    0    0  0.20862210227E+03  0.57572349748E+02  0.68310266187E+03  0.72239174406E+03  0.91557786240E+02 0.  0.
         13    1    3    3    0    0  0.94586360287E+02 -0.13451814830E+02  0.36024112368E+03  0.37269451038E+03  0.00000000000E+00 0.  1.
        -13    1    3    3    0    0  0.11403574198E+03  0.71024164577E+02  0.32286153819E+03  0.34969723368E+03  0.00000000000E+00 0. -1.
         22    1    1    2    0    0 -0.20862210227E+03 -0.57572349748E+02 -0.94143819576E+02  0.23601020269E+03  0.00000000000E+00 0.  1.
<mgrwt>
<rscale>  0 0.75608318E+03</rscale>
<asrwt>0</asrwt>
<pdfrwt beam="1">  1        1 0.11902775E+00 0.75608318E+03</pdfrwt>
<pdfrwt beam="2">  1       -1 0.28418701E-01 0.75608318E+03</pdfrwt>
<totfact> 0.26443146E+02</totfact>
</mgrwt>
</event>
<event>
 6    1  0.9906445E-006  0.1520473E+04  0.7818608E-02  0.8870952E-01
         -2   -1    0    0    0  501 -0.00000000000E+00  0.00000000000E+00  0.97760514750E+03  0.97760514750E+03  0.00000000000E+00 0.  1.
          2   -1    0    0  501    0  0.00000000000E+00 -0.00000000000E+00 -0.59119916273E+03  0.59119916273E+03  0.00000000000E+00 0. -1.
         23    2    1    2    0    0  0.45286498559E+03  0.63632571039E+02  0.81660400468E+03  0.94094593798E+03  0.96960602677E+02 0.  0.
         13    1    3    3    0    0  0.24242192073E+03 -0.12575126572E+01  0.36008804363E+03  0.43408912467E+03  0.00000000000E+00 0. -1.
        -13    1    3    3    0    0  0.21044306486E+03  0.64890083696E+02  0.45651596105E+03  0.50685681331E+03  0.00000000000E+00 0.  1.
         22    1    1    2    0    0 -0.45286498559E+03 -0.63632571039E+02 -0.43019801991E+03  0.62785837225E+03  0.00000000000E+00 0. -1.
<mgrwt>
<rscale>  0 0.15204727E+04</rscale>
<asrwt>0</asrwt>
<pdfrwt beam="1">  1        2 0.90953717E-01 0.15204727E+04</pdfrwt>
<pdfrwt beam="2">  1       -2 0.15040079E+00 0.15204727E+04</pdfrwt>
<totfact> 0.14480338E+01</totfact>
</mgrwt>
</event>
<event>
 6    1  0.9906445E-006  0.2410336E+04  0.7818608E-02  0.8435644E-01
         -2   -1    0    0    0  501 -0.00000000000E+00  0.00000000000E+00  0.53946891857E+03  0.53946891857E+03  0.00000000000E+00 0. -1.
          2   -1    0    0  501    0  0.00000000000E+00 -0.00000000000E+00 -0.26923322087E+04  0.26923322087E+04  0.00000000000E+00 0.  1.
         23    2    1    2    0    0  0.83751748386E+02  0.39143508988E+03 -0.25996929150E+04  0.26318907184E+04  0.90607483799E+02 0.  0.
         13    1    3    3    0    0  0.87165004548E+02  0.19452099771E+03 -0.14030614499E+04  0.14191608749E+04  0.00000000000E+00 0.  1.
        -13    1    3    3    0    0 -0.34132561622E+01  0.19691409217E+03 -0.11966314651E+04  0.12127298435E+04  0.00000000000E+00 0. -1.
         22    1    1    2    0    0 -0.83751748386E+02 -0.39143508988E+03  0.44682962493E+03  0.59991040886E+03  0.00000000000E+00 0. -1.
<mgrwt>
<rscale>  0 0.24103357E+04</rscale>
<asrwt>0</asrwt>
<pdfrwt beam="1">  1        2 0.41420496E+00 0.24103357E+04</pdfrwt>
<pdfrwt beam="2">  1       -2 0.82995218E-01 0.24103357E+04</pdfrwt>
<totfact> 0.30672019E+00</totfact>
</mgrwt>
</event>
<event>
 6    1  0.9906445E-006  0.3026739E+04  0.7818608E-02  0.8236136E-01
         -1   -1    0    0    0  501 -0.00000000000E+00  0.00000000000E+00  0.12388191813E+04  0.12388191813E+04  0.00000000000E+00 0.  1.
          1   -1    0    0  501    0  0.00000000000E+00 -0.00000000000E+00 -0.18487663827E+04  0.18487663827E+04  0.00000000000E+00 0. -1.
         23    2    1    2    0    0 -0.13431851253E+04  0.66752693686E+03 -0.50054333212E+03  0.15836880613E+04  0.88236930281E+02 0.  0.
         13    1    3    3    0    0 -0.11169441193E+04  0.58957608921E+03 -0.41097115218E+03  0.13281797388E+04  0.00000000000E+00 0.  1.
        -13    1    3    3    0    0 -0.22624100598E+03  0.77950847645E+02 -0.89572179942E+02  0.25550832248E+03  0.00000000000E+00 0. -1.
         22    1    1    2    0    0  0.13431851253E+04 -0.66752693686E+03 -0.10940386926E+03  0.15038975028E+04  0.00000000000E+00 0.  1.
<mgrwt>
<rscale>  0 0.30267390E+04</rscale>
<asrwt>0</asrwt>
<pdfrwt beam="1">  1        1 0.28442560E+00 0.30267390E+04</pdfrwt>
<pdfrwt beam="2">  1       -1 0.19058757E+00 0.30267390E+04</pdfrwt>
<totfact> 0.56101539E-01</totfact>
</mgrwt>
</event>
<event>
 6    1  0.9906445E-006  0.1725605E+04  0.7818608E-02  0.8746894E-01
          1   -1    0    0  501    0  0.00000000000E+00  0.00000000000E+00  0.18606219959E+04  0.18606219959E+04  0.00000000000E+00 0. -1.
         -1   -1    0    0    0  501 -0.00000000000E+00 -0.00000000000E+00 -0.40009645158E+03  0.40009645158E+03  0.00000000000E+00 0.  1.
         23    2    1    2    0    0 -0.57722829190E+03 -0.41730354122E+03  0.13648182627E+04  0.15420428390E+04  0.88501302400E+02 0.  0.
         13    1    3    3    0    0 -0.32825610629E+03 -0.20439826596E+03  0.81377988842E+03  0.90098192503E+03  0.00000000000E+00 0. -1.
        -13    1    3    3    0    0 -0.24897218562E+03 -0.21290527526E+03  0.55103837427E+03  0.64106091392E+03  0.00000000000E+00 0.  1.
         22    1    1    2    0    0  0.57722829190E+03  0.41730354122E+03  0.95707281603E+02  0.71867560849E+03  0.00000000000E+00 0.  1.
<mgrwt>
<rscale>  0 0.17256051E+04</rscale>
<asrwt>0</asrwt>
<pdfrwt beam="1">  1        1 0.28624953E+00 0.17256051E+04</pdfrwt>
<pdfrwt beam="2">  1       -1 0.61553301E-01 0.17256051E+04</pdfrwt>
<totfact> 0.94194409E+00</totfact>
</mgrwt>
</event>
<event>
 6    1  0.9906445E-006  0.7005235E+03  0.7818608E-02  0.9716337E-01
          1   -1    0    0  501    0  0.00000000000E+00  0.00000000000E+00  0.59924490606E+02  0.59924490606E+02  0.00000000000E+00 0. -1.
         -1   -1    0    0    0  501 -0.00000000000E+00 -0.00000000000E+00 -0.20472980649E+04  0.20472980649E+04  0.00000000000E+00 0.  1.
         23    2    1    2    0    0 -0.11083817952E+03  0.30826328130E+03 -0.13294608331E+04  0.13722664155E+04  0.91310765324E+02 0.  0.
         11    1    3    3    0    0  0.66037701174E+01  0.10580569220E+03 -0.41810169577E+03  0.43133221801E+03  0.00000000000E+00 0. -1.
        -11    1    3    3    0    0 -0.11744194964E+03  0.20245758909E+03 -0.91135913728E+03  0.94093419750E+03  0.00000000000E+00 0.  1.
         22    1    1    2    0    0  0.11083817952E+03 -0.30826328130E+03 -0.65791274122E+03  0.73495613998E+03  0.00000000000E+00 0. -1.
<mgrwt>
<rscale>  0 0.70052350E+03</rscale>
<asrwt>0</asrwt>
<pdfrwt beam="1">  1        1 0.92191522E-02 0.70052350E+03</pdfrwt>
<pdfrwt beam="2">  1       -1 0.31496894E+00 0.70052350E+03</pdfrwt>
<totfact> 0.20826645E+01</totfact>
</mgrwt>
</event>
<event>
 6    1  0.9906445E-006  0.9200754E+03  0.7818608E-02  0.9400828E-01
         -2   -1    0    0    0  501 -0.00000000000E+00  0.00000000000E+00  0.56581355236E+03  0.56581355236E+03  0.00000000000E+00 0. -1.
          2   -1    0    0  501    0  0.00000000000E+00 -0.00000000000E+00 -0.37403605619E+03  0.37403605619E+03  0.00000000000E+00 0.  1.
         23    2    1    2    0    0  0.41672853602E+02 -0.34548314216E+03  0.39712142579E+03  0.53579347671E+03  0.90961500751E+02 0.  0.
         11    1    3    3    0    0  0.52979149604E+01 -0.26796906890E+03  0.25545020834E+03  0.37025707114E+03  0.00000000000E+00 0.  1.
        -11    1    3    3    0    0  0.36374938641E+02 -0.77514073263E+02  0.14167121745E+03  0.16553640557E+03  0.00000000000E+00 0. -1.
         22    1    1    2    0    0 -0.41672853602E+02  0.34548314216E+03 -0.20534392962E+03  0.40405613184E+03  0.00000000000E+00 0.  1.
<mgrwt>
<rscale>  0 0.92007537E+03</rscale>
<asrwt>0</asrwt>
<pdfrwt beam="1">  1        2 0.57544009E-01 0.92007537E+03</pdfrwt>
<pdfrwt beam="2">  1       -2 0.87048239E-01 0.92007537E+03</pdfrwt>
<totfact> 0.98150545E+01</totfact>
</mgrwt>
</event>
<event>
 6    1  0.9906445E-006  0.6006450E+04  0.7818608E-02  0.7689603E-01
         -1   -1    0    0    0  501 -0.00000000000E+00  0.00000000000E+00  0.33267270140E+04  0.33267270140E+04  0.00000000000E+00 0.  1.
          1   -1    0    0  501    0  0.00000000000E+00 -0.00000000000E+00 -0.27111810805E+04  0.27111810805E+04  0.00000000000E+00 0. -1.
         23    2    1    2    0    0 -0.40252971181E+03 -0.76276616468E+03  0.31989089911E+04  0.33143796702E+04  0.90837626364E+02 0.  0.
         11    1    3    3    0    0 -0.29006347250E+03 -0.47048050779E+03  0.21292666345E+04  0.21998329771E+04  0.00000000000E+00 0.  1.
        -11    1    3    3    0    0 -0.11246623931E+03 -0.29228565689E+03  0.10696423566E+04  0.11145466931E+04  0.00000000000E+00 0. -1.
         22    1    1    2    0    0  0.40252971181E+03  0.76276616468E+03 -0.25833630576E+04  0.27235284243E+04  0.00000000000E+00 0. -1.
<mgrwt>
<rscale>  0 0.60064496E+04</rscale>
<asrwt>0</asrwt>
<pdfrwt beam="1">  1        1 0.41710478E+00 0.60064496E+04</pdfrwt>
<pdfrwt beam="2">  1       -1 0.51180416E+00 0.60064496E+04</pdfrwt>
<totfact> 0.81617964E-04</totfact>
</mgrwt>
</event>
<event>
 6    1  0.9906445E-006  0.4940103E+04  0.7818608E-02  0.7837814E-01
          2   -1    0    0  501    0  0.00000000000E+00  0.00000000000E+00  0.29233786539E+04  0.29233786539E+04  0.00000000000E+00 0. -1.
         -2   -1    0    0    0  501 -0.00000000000E+00 -0.00000000000E+00 -0.20870216792E+04  0.20870216792E+04  0.00000000000E+00 0.  1.
         23    2    1    2    0    0  0.39574241375E+03  0.23925976464E+04 -0.52832485391E+02  0.24274188288E+04  0.91844124343E+02 0.  0.
         13    1    3    3    0    0  0.31298530405E+03  0.20827102424E+04 -0.45920868320E+02  0.21065968956E+04  0.00000000000E+00 0. -1.
        -13    1    3    3    0    0  0.82757109698E+02  0.30988740400E+03 -0.69116170713E+01  0.32082193319E+03  0.00000000000E+00 0.  1.
         22    1    1    2    0    0 -0.39574241375E+03 -0.23925976464E+04  0.88918946010E+03  0.25829815043E+04  0.00000000000E+00 0.  1.
<mgrwt>
<rscale>  0 0.49401031E+04</rscale>
<asrwt>0</asrwt>
<pdfrwt beam="1">  1        2 0.44975056E+00 0.49401031E+04</pdfrwt>
<pdfrwt beam="2">  1       -2 0.32108026E+00 0.49401031E+04</pdfrwt>
<totfact> 0.33507332E-02</totfact>
</mgrwt>
</event>
<event>
 6    1  0.9906445E-006  0.4086449E+04  0.7818608E-02  0.7987331E-01
         -2   -1    0    0    0  501 -0.00000000000E+00  0.00000000000E+00  0.16069626003E+04  0.16069626003E+04  0.00000000000E+00 0.  1.
          2   -1    0    0  501    0  0.00000000000E+00 -0.00000000000E+00 -0.25979241889E+04  0.25979241889E+04  0.00000000000E+00 0. -1.
         23    2    1    2    0    0  0.15698614977E+04 -0.12991511757E+04 -0.37233153235E+03  0.20753417565E+04  0.12709735167E+03 0.  0.
         13    1    3    3    0    0  0.69433485322E+03 -0.54255578947E+03 -0.21992148788E+03  0.90820324483E+03  0.00000000000E+00 0.  1.
        -13    1    3    3    0    0  0.87552664451E+03 -0.75659538627E+03 -0.15241004448E+03  0.11671385117E+04  0.00000000000E+00 0. -1.
         22    1    1    2    0    0 -0.15698614977E+04  0.12991511757E+04 -0.61863005624E+03  0.21295450326E+04  0.00000000000E+00 0. -1.
<mgrwt>
<rscale>  0 0.40864493E+04</rscale>
<asrwt>0</asrwt>
<pdfrwt beam="1">  1        2 0.39968064E+00 0.40864493E+04</pdfrwt>
<pdfrwt beam="2">  1       -2 0.24722502E+00 0.40864493E+04</pdfrwt>
<totfact> 0.15979653E-01</totfact>
</mgrwt>
</event>
<event>
 6    1  0.1810275E-005  0.3536061E+04  0.7818608E-02  0.8105297E-01
          1   -1    0    0  501    0  0.00000000000E+00  0.00000000000E+00  0.27391638649E+04  0.27391638649E+04  0.00000000000E+00 0. -1.
         -1   -1    0    0    0  501 -0.00000000000E+00 -0.00000000000E+00 -0.11411994009E+04  0.11411994009E+04  0.00000000000E+00 0.  1.
         23    2    1    2    0    0 -0.52358847382E+03 -0.25128162902E+03 -0.10318341766E+04  0.11872000258E+04  0.86456846477E+02 0.  0.
         11    1    3    3    0    0 -0.42236391011E+03 -0.16262975442E+03 -0.79896172607E+03  0.91824808702E+03  0.00000000000E+00 0. -1.
        -11    1    3    3    0    0 -0.10122456370E+03 -0.88651874606E+02 -0.23287245055E+03  0.26895193882E+03  0.00000000000E+00 0.  1.
         22    1    1    2    0    0  0.52358847382E+03  0.25128162902E+03  0.26297986407E+04  0.26931632400E+04  0.00000000000E+00 0. -1.
<mgrwt>
<rscale>  0 0.35360612E+04</rscale>
<asrwt>0</asrwt>
<pdfrwt beam="1">  1        1 0.42140982E+00 0.35360612E+04</pdfrwt>
<pdfrwt beam="2">  1       -1 0.17556914E+00 0.35360612E+04</pdfrwt>
<totfact> 0.16771597E-01</totfact>
</mgrwt>
</event>
<event>
 6    1  0.9906445E-006  0.1187199E+04  0.7818608E-02  0.9124135E-01
          1   -1    0    0  501    0  0.00000000000E+00  0.00000000000E+00  0.24496780283E+04  0.24496780283E+04  0.00000000000E+00 0. -1.
         -1   -1    0    0    0  501 -0.00000000000E+00 -0.00000000000E+00 -0.14383957281E+03  0.14383957281E+03  0.00000000000E+00 0.  1.
         23    2    1    2    0    0  0.24241092293E+03 -0.52534724231E+03  0.14147089698E+04  0.15310372292E+04  0.88998579937E+02 0.  0.
         11    1    3    3    0    0  0.39547813523E+02 -0.15965213164E+03  0.46851839963E+03  0.49655042391E+03  0.00000000000E+00 0. -1.
        -11    1    3    3    0    0  0.20286310941E+03 -0.36569511067E+03  0.94619057020E+03  0.10344868053E+04  0.00000000000E+00 0.  1.
         22    1    1    2    0    0 -0.24241092293E+03  0.52534724231E+03  0.89112948568E+03  0.10624803720E+04  0.00000000000E+00 0.  1.
<mgrwt>
<rscale>  0 0.11871995E+04</rscale>
<asrwt>0</asrwt>
<pdfrwt beam="1">  1        1 0.37687351E+00 0.11871995E+04</pdfrwt>
<pdfrwt beam="2">  1       -1 0.22129167E-01 0.11871995E+04</pdfrwt>
<totfact> 0.25235213E+01</totfact>
</mgrwt>
</event>
<event>
 6    1  0.9906445E-006  0.1269936E+04  0.7818608E-02  0.9053752E-01
          1   -1    0    0  501    0  0.00000000000E+00  0.00000000000E+00  0.30496134040E+04  0.30496134040E+04  0.00000000000E+00 0. -1.
         -1   -1    0    0    0  501 -0.00000000000E+00 -0.00000000000E+00 -0.13220833153E+03  0.13220833153E+03  0.00000000000E+00 0.  1.
         23    2    1    2    0    0 -0.74210135489E+02  0.99843715484E+02  0.30178804962E+04  0.30219116904E+04  0.94189509786E+02 0.  0.
         13    1    3    3    0    0 -0.82195584828E+02  0.11339688103E+03  0.27612089676E+04  0.27647585662E+04  0.00000000000E+00 0. -1.
        -13    1    3    3    0    0  0.79854493387E+01 -0.13553165549E+02  0.25667152861E+03  0.25715312422E+03  0.00000000000E+00 0.  1.
         22    1    1    2    0    0  0.74210135489E+02 -0.99843715484E+02 -0.10047542376E+03  0.15991004506E+03  0.00000000000E+00 0.  1.
<mgrwt>
<rscale>  0 0.12699359E+04</rscale>
<asrwt>0</asrwt>
<pdfrwt beam="1">  1        1 0.46917124E+00 0.12699359E+04</pdfrwt>
<pdfrwt beam="2">  1       -1 0.20339746E-01 0.12699359E+04</pdfrwt>
<totfact> 0.10889858E+01</totfact>
</mgrwt>
</event>
<event>
 6    1  0.9906445E-006  0.9436493E+03  0.7818608E-02  0.9372605E-01
         -1   -1    0    0    0  501 -0.00000000000E+00  0.00000000000E+00  0.11470082524E+03  0.11470082524E+03  0.00000000000E+00 0.  1.
          1   -1    0    0  501    0  0.00000000000E+00 -0.00000000000E+00 -0.19408620469E+04  0.19408620469E+04  0.00000000000E+00 0. -1.
         23    2    1    2    0    0  0.22108042677E+03 -0.25032056797E+03 -0.20937760330E+03  0.40464609337E+03  0.91446915040E+02 0.  0.
         11    1    3    3    0    0  0.38849858067E+02 -0.50020406670E+02 -0.16511603340E+01  0.63356758801E+02  0.00000000000E+00 0. -1.
        -11    1    3    3    0    0  0.18223056870E+03 -0.20030016130E+03 -0.20772644297E+03  0.34128933457E+03  0.00000000000E+00 0.  1.
         22    1    1    2    0    0 -0.22108042677E+03  0.25032056797E+03 -0.16167836184E+04  0.16509167788E+04  0.00000000000E+00 0. -1.
<mgrwt>
<rscale>  0 0.94364925E+03</rscale>
<asrwt>0</asrwt>
<pdfrwt beam="1">  1        1 0.29859415E+00 0.94364925E+03</pdfrwt>
<pdfrwt beam="2">  1       -1 0.17646281E-01 0.94364925E+03</pdfrwt>
<totfact> 0.83286833E+01</totfact>
</mgrwt>
</event>
<event>
 6    1  0.9906445E-006  0.5368483E+04  0.7818608E-02  0.7774050E-01
         -2   -1    0    0    0  501 -0.00000000000E+00  0.00000000000E+00  0.38377064851E+04  0.38377064851E+04  0.00000000000E+00 0.  1.
          2   -1    0    0  501    0  0.00000000000E+00 -0.00000000000E+00 -0.18774631370E+04  0.18774631370E+04  0.00000000000E+00 0. -1.
         23    2    1    2    0    0  0.14185643255E+04  0.20410099383E+04  0.20572518128E+04  0.32277096815E+04  0.88195539861E+02 0.  0.
         11    1    3    3    0    0  0.97052453672E+03  0.14340490106E+04  0.14772024728E+04  0.22760803120E+04  0.00000000000E+00 0.  1.
        -11    1    3    3    0    0  0.44803978876E+03  0.60696092768E+03  0.58004933999E+03  0.95162936949E+03  0.00000000000E+00 0. -1.
         22    1    1    2    0    0 -0.14185643255E+04 -0.20410099383E+04 -0.97008464773E+02  0.24874599406E+04  0.00000000000E+00 0. -1.
<mgrwt>
<rscale>  0 0.53684830E+04</rscale>
<asrwt>0</asrwt>
<pdfrwt beam="1">  1        2 0.28884048E+00 0.53684830E+04</pdfrwt>
<pdfrwt beam="2">  1       -2 0.59041638E+00 0.53684830E+04</pdfrwt>
<totfact> 0.31115989E-03</totfact>
</mgrwt>
</event>
<event>
 6    1  0.9906445E-006  0.7261209E+03  0.7818608E-02  0.9673576E-01
         -2   -1    0    0    0  501 -0.00000000000E+00  0.00000000000E+00  0.71843993064E+02  0.71843993064E+02  0.00000000000E+00 0.  1.
          2   -1    0    0  501    0  0.00000000000E+00 -0.00000000000E+00 -0.18347097587E+04  0.18347097587E+04  0.00000000000E+00 0. -1.
         23    2    1    2    0    0 -0.16164757231E+03 -0.23918634555E+03 -0.34397269193E+03  0.45859049252E+03  0.92994524031E+02 0.  0.
         11    1    3    3    0    0 -0.20423910135E+01 -0.63054876630E+02 -0.97909538483E+02  0.11647474642E+03  0.00000000000E+00 0.  1.
        -11    1    3    3    0    0 -0.15960518130E+03 -0.17613146892E+03 -0.24606315345E+03  0.34211574610E+03  0.00000000000E+00 0. -1.
         22    1    1    2    0    0  0.16164757231E+03  0.23918634555E+03 -0.14188930737E+04  0.14479632592E+04  0.00000000000E+00 0. -1.
<mgrwt>
<rscale>  0 0.72612086E+03</rscale>
<asrwt>0</asrwt>
<pdfrwt beam="1">  1        2 0.28226305E+00 0.72612086E+03</pdfrwt>
<pdfrwt beam="2">  1       -2 0.11052922E-01 0.72612086E+03</pdfrwt>
<totfact> 0.49118139E+02</totfact>
</mgrwt>
</event>
<event>
 6    1  0.9906445E-006  0.1435076E+04  0.7818608E-02  0.8928813E-01
         -1   -1    0    0    0  501 -0.00000000000E+00  0.00000000000E+00  0.53593859186E+03  0.53593859186E+03  0.00000000000E+00 0.  1.
          1   -1    0    0  501    0  0.00000000000E+00 -0.00000000000E+00 -0.96067085537E+03  0.96067085537E+03  0.00000000000E+00 0. -1.
         23    2    1    2    0    0 -0.60577534106E+03 -0.36882020627E+03 -0.12234808305E+03  0.72561768270E+03  0.92519509464E+02 0.  0.
         11    1    3    3    0    0 -0.40622457460E+03 -0.20328994712E+03 -0.53712098212E+02  0.45741687453E+03  0.00000000000E+00 0. -1.
        -11    1    3    3    0    0 -0.19955076646E+03 -0.16553025915E+03 -0.68635984837E+02  0.26820080817E+03  0.00000000000E+00 0.  1.
         22    1    1    2    0    0  0.60577534106E+03  0.36882020627E+03 -0.30238418046E+03  0.77099176453E+03  0.00000000000E+00 0. -1.
<mgrwt>
<rscale>  0 0.14350757E+04</rscale>
<asrwt>0</asrwt>
<pdfrwt beam="1">  1        1 0.14779551E+00 0.14350757E+04</pdfrwt>
<pdfrwt beam="2">  1       -1 0.82452092E-01 0.14350757E+04</pdfrwt>
<totfact> 0.23114544E+01</totfact>
</mgrwt>
</event>
<event>
 6    1  0.9906445E-006  0.2944480E+04  0.7818608E-02  0.8259765E-01
         -2   -1    0    0    0  501 -0.00000000000E+00  0.00000000000E+00  0.11043135859E+04  0.11043135859E+04  0.00000000000E+00 0.  1.
          2   -1    0    0  501    0  0.00000000000E+00 -0.00000000000E+00 -0.19627496921E+04  0.19627496921E+04  0.00000000000E+00 0. -1.
         23    2    1    2    0    0  0.78609309428E+03  0.11390953528E+04  0.88972435075E+02  0.13898442942E+04  0.90942247622E+02 0.  0.
         11    1    3    3    0    0  0.51675091802E+03  0.81032172660E+03  0.38449006668E+02  0.96183737607E+03  0.00000000000E+00 0.  1.
        -11    1    3    3    0    0  0.26934217625E+03  0.32877362620E+03  0.50523428407E+02  0.42800691818E+03  0.00000000000E+00 0. -1.
         22    1    1    2    0    0 -0.78609309428E+03 -0.11390953528E+04 -0.94740854127E+03  0.16772189838E+04  0.00000000000E+00 0. -1.
<mgrwt>
<rscale>  0 0.29444804E+04</rscale>
<asrwt>0</asrwt>
<pdfrwt beam="1">  1        2 0.30196149E+00 0.29444804E+04</pdfrwt>
<pdfrwt beam="2">  1       -2 0.16989440E+00 0.29444804E+04</pdfrwt>
<totfact> 0.12867130E+00</totfact>
</mgrwt>
</event>
<event>
 6    1  0.9906445E-006  0.2143804E+04  0.7818608E-02  0.8542189E-01
         -3   -1    0    0    0  501 -0.00000000000E+00  0.00000000000E+00  0.11517506129E+04  0.11517506129E+04  0.00000000000E+00 0. -1.
          3   -1    0    0  501    0  0.00000000000E+00 -0.00000000000E+00 -0.99758911672E+03  0.99758911672E+03  0.00000000000E+00 0.  1.
         23    2    1    2    0    0 -0.22086754019E+03  0.70774865871E+02 -0.97000151514E+03  0.10015008786E+04  0.91156560320E+02 0.  0.
         13    1    3    3    0    0 -0.10252775281E+03  0.41214407855E+02 -0.28400970067E+03  0.30474920440E+03  0.00000000000E+00 0. -1.
        -13    1    3    3    0    0 -0.11833978738E+03  0.29560458016E+02 -0.68599181447E+03  0.69675167418E+03  0.00000000000E+00 0.  1.
         22    1    1    2    0    0  0.22086754019E+03 -0.70774865871E+02  0.11241630113E+04  0.11478388511E+04  0.00000000000E+00 0. -1.
<mgrwt>
<rscale>  0 0.21438040E+04</rscale>
<asrwt>0</asrwt>
<pdfrwt beam="1">  1        3 0.15347525E+00 0.21438040E+04</pdfrwt>
<pdfrwt beam="2">  1       -3 0.17719240E+00 0.21438040E+04</pdfrwt>
<totfact> 0.15088830E-01</totfact>
</mgrwt>
</event>
<event>
 6    1  0.9906445E-006  0.1124360E+04  0.7818608E-02  0.9181769E-01
          2   -1    0    0  501    0  0.00000000000E+00  0.00000000000E+00  0.27767408755E+03  0.27767408755E+03  0.00000000000E+00 0.  1.
         -2   -1    0    0    0  501 -0.00000000000E+00 -0.00000000000E+00 -0.11381915319E+04  0.11381915319E+04  0.00000000000E+00 0. -1.
         23    2    1    2    0    0  0.47238969660E+03 -0.18414135967E+02 -0.59396951988E+02  0.48565857306E+03  0.94048635448E+02 0.  0.
         13    1    3    3    0    0  0.26601314722E+03  0.20927845213E+02  0.17754032527E+01  0.26684100370E+03  0.00000000000E+00 0. -1.
        -13    1    3    3    0    0  0.20637654937E+03 -0.39341981181E+02 -0.61172355241E+02  0.21881756936E+03  0.00000000000E+00 0.  1.
         22    1    1    2    0    0 -0.47238969660E+03  0.18414135967E+02 -0.80112049235E+03  0.93020704637E+03  0.00000000000E+00 0. -1.
<mgrwt>
<rscale>  0 0.11243599E+04</rscale>
<asrwt>0</asrwt>
<pdfrwt beam="1">  1        2 0.42719090E-01 0.11243599E+04</pdfrwt>
<pdfrwt beam="2">  1       -2 0.17510639E+00 0.11243599E+04</pdfrwt>
<totfact> 0.23250471E+01</totfact>
</mgrwt>
</event>
<event>
 6    1  0.9906445E-006  0.4314204E+04  0.7818608E-02  0.7943997E-01
         -2   -1    0    0    0  501 -0.00000000000E+00  0.00000000000E+00  0.14665155945E+04  0.14665155945E+04  0.00000000000E+00 0.  1.
          2   -1    0    0  501    0  0.00000000000E+00 -0.00000000000E+00 -0.31728869408E+04  0.31728869408E+04  0.00000000000E+00 0. -1.
         23    2    1    2    0    0  0.73356067605E+03  0.15883175988E+04  0.50161114880E+03  0.18223028283E+04  0.91158068733E+02 0.  0.
         11    1    3    3    0    0  0.62818812039E+02  0.16300826210E+03  0.76446898462E+02  0.19068829262E+03  0.00000000000E+00 0.  1.
        -11    1    3    3    0    0  0.67074186401E+03  0.14253093367E+04  0.42516425034E+03  0.16316145357E+04  0.00000000000E+00 0. -1.
         22    1    1    2    0    0 -0.73356067605E+03 -0.15883175988E+04 -0.22079824951E+04  0.28170997069E+04  0.00000000000E+00 0. -1.
<mgrwt>
<rscale>  0 0.43142036E+04</rscale>
<asrwt>0</asrwt>
<pdfrwt beam="1">  1        2 0.48813645E+00 0.43142036E+04</pdfrwt>
<pdfrwt beam="2">  1       -2 0.22561779E+00 0.43142036E+04</pdfrwt>
<totfact> 0.94531715E-02</totfact>
</mgrwt>
</event>
<event>
 6    1  0.9906445E-006  0.4246820E+04  0.7818608E-02  0.7956525E-01
         -2   -1    0    0    0  501 -0.00000000000E+00  0.00000000000E+00  0.17586267388E+04  0.17586267388E+04  0.00000000000E+00 0.  1.
          2   -1    0    0  501    0  0.00000000000E+00 -0.00000000000E+00 -0.25638584550E+04  0.25638584550E+04  0.00000000000E+00 0. -1.
         23    2    1    2    0    0 -0.15666520883E+04  0.23192646446E+03  0.10353014082E+04  0.18943684683E+04  0.92705109014E+02 0.  0.
         13    1    3    3    0    0 -0.34290449928E+03  0.51917205012E+02  0.27350424837E+03  0.44168253948E+03  0.00000000000E+00 0. -1.
        -13    1    3    3    0    0 -0.12237475890E+04  0.18000925944E+03  0.76179715980E+03  0.14526859288E+04  0.00000000000E+00 0.  1.
         22    1    1    2    0    0  0.15666520883E+04 -0.23192646446E+03 -0.18405331244E+04  0.24281167255E+04  0.00000000000E+00 0.  1.
<mgrwt>
<rscale>  0 0.42468200E+04</rscale>
<asrwt>0</asrwt>
<pdfrwt beam="1">  1        2 0.39443976E+00 0.42468200E+04</pdfrwt>
<pdfrwt beam="2">  1       -2 0.27055796E+00 0.42468200E+04</pdfrwt>
<totfact> 0.11882902E-01</totfact>
</mgrwt>
</event>
<event>
 6    1  0.9906445E-006  0.2064612E+04  0.7818608E-02  0.8576994E-01
          2   -1    0    0  501    0  0.00000000000E+00  0.00000000000E+00  0.11956085893E+04  0.11956085893E+04  0.00000000000E+00 0. -1.
         -2   -1    0    0    0  501 -0.00000000000E+00 -0.00000000000E+00 -0.89130774654E+03  0.89130774654E+03  0.00000000000E+00 0.  1.
         23    2    1    2    0    0  0.11804248960E+03  0.10121190803E+04 -0.13948040210E+01  0.10230700638E+04  0.91385709543E+02 0.  0.
         13    1    3    3    0    0  0.11748508468E+03  0.62941999885E+03 -0.70191273992E+01  0.64032924986E+03  0.00000000000E+00 0. -1.
        -13    1    3    3    0    0  0.55740491372E+00  0.38269908147E+03  0.56243233782E+01  0.38274081397E+03  0.00000000000E+00 0.  1.
         22    1    1    2    0    0 -0.11804248960E+03 -0.10121190803E+04  0.30569564682E+03  0.10638462721E+04  0.00000000000E+00 0. -1.
<mgrwt>
<rscale>  0 0.20646115E+04</rscale>
<asrwt>0</asrwt>
<pdfrwt beam="1">  1        2 0.18393978E+00 0.20646115E+04</pdfrwt>
<pdfrwt beam="2">  1       -2 0.13712427E+00 0.20646115E+04</pdfrwt>
<totfact> 0.66759333E+00</totfact>
</mgrwt>
</event>
<event>
 6    1  0.9906445E-006  0.1681894E+04  0.7818608E-02  0.8771759E-01
          2   -1    0    0  501    0  0.00000000000E+00  0.00000000000E+00  0.20998225042E+04  0.20998225042E+04  0.00000000000E+00 0.  1.
         -2   -1    0    0    0  501 -0.00000000000E+00 -0.00000000000E+00 -0.33678660356E+03  0.33678660356E+03  0.00000000000E+00 0. -1.
         23    2    1    2    0    0 -0.83311632195E+03 -0.48699385714E+02  0.10038019691E+04  0.13083845739E+04  0.88302683506E+02 0.  0.
         13    1    3    3    0    0 -0.24365074231E+03 -0.50206744274E+02  0.26978606798E+03  0.36697537231E+03  0.00000000000E+00 0. -1.
        -13    1    3    3    0    0 -0.58946557964E+03  0.15073585602E+01  0.73401590116E+03  0.94140920160E+03  0.00000000000E+00 0.  1.
         22    1    1    2    0    0  0.83311632195E+03  0.48699385714E+02  0.75923393153E+03  0.11282245339E+04  0.00000000000E+00 0.  1.
<mgrwt>
<rscale>  0 0.16818943E+04</rscale>
<asrwt>0</asrwt>
<pdfrwt beam="1">  1        2 0.32304961E+00 0.16818943E+04</pdfrwt>
<pdfrwt beam="2">  1       -2 0.51813325E-01 0.16818943E+04</pdfrwt>
<totfact> 0.19706565E+01</totfact>
</mgrwt>
</event>
<event>
 6    1  0.9906445E-006  0.9699900E+03  0.7818608E-02  0.9342086E-01
          1   -1    0    0  501    0  0.00000000000E+00  0.00000000000E+00  0.15399413279E+04  0.15399413279E+04  0.00000000000E+00 0. -1.
         -1   -1    0    0    0  501 -0.00000000000E+00 -0.00000000000E+00 -0.15274618344E+03  0.15274618344E+03  0.00000000000E+00 0.  1.
         23    2    1    2    0    0 -0.18825472766E+03 -0.18336281802E+03 -0.26427177353E+01  0.27822257762E+03  0.91318416672E+02 0.  0.
         11    1    3    3    0    0 -0.54017572278E+02 -0.12406561548E+02 -0.22797451467E+02  0.59929497559E+02  0.00000000000E+00 0. -1.
        -11    1    3    3    0    0 -0.13423715538E+03 -0.17095625647E+03  0.20154733731E+02  0.21829308007E+03  0.00000000000E+00 0.  1.
         22    1    1    2    0    0  0.18825472766E+03  0.18336281802E+03  0.13898378622E+04  0.14144649337E+04  0.00000000000E+00 0. -1.
<mgrwt>
<rscale>  0 0.96999002E+03</rscale>
<asrwt>0</asrwt>
<pdfrwt beam="1">  1        1 0.23691404E+00 0.96999002E+03</pdfrwt>
<pdfrwt beam="2">  1       -1 0.23499414E-01 0.96999002E+03</pdfrwt>
<totfact> 0.96044289E+01</totfact>
</mgrwt>
</event>
<event>
 6    1  0.9906445E-006  0.2325024E+04  0.7818608E-02  0.8468119E-01
         -1   -1    0    0    0  501 -0.00000000000E+00  0.00000000000E+00  0.74340887539E+03  0.74340887539E+03  0.00000000000E+00 0.  1.
          1   -1    0    0  501    0  0.00000000000E+00 -0.00000000000E+00 -0.18178878065E+04  0.18178878065E+04  0.00000000000E+00 0. -1.
         23    2    1    2    0    0 -0.68970397313E+02 -0.97262364456E+03 -0.12321976220E+04  0.15735574171E+04  0.83775267683E+02 0.  0.
         11    1    3    3    0    0 -0.72840791264E+02 -0.44290194871E+03 -0.57460359814E+03  0.72913456374E+03  0.00000000000E+00 0. -1.
        -11    1    3    3    0    0  0.38703939502E+01 -0.52972169585E+03 -0.65759402388E+03  0.84442285334E+03  0.00000000000E+00 0.  1.
         22    1    1    2    0    0  0.68970397313E+02  0.97262364456E+03  0.15771869095E+03  0.98773926476E+03  0.00000000000E+00 0. -1.
<mgrwt>
<rscale>  0 0.23250238E+04</rscale>
<asrwt>0</asrwt>
<pdfrwt beam="1">  1        1 0.27967504E+00 0.23250238E+04</pdfrwt>
<pdfrwt beam="2">  1       -1 0.11437060E+00 0.23250238E+04</pdfrwt>
<totfact> 0.24847741E+00</totfact>
</mgrwt>
</event>
<event>
 6    1  0.9906445E-006  0.6098885E+04  0.7818608E-02  0.7678261E-01
         -2   -1    0    0    0  501 -0.00000000000E+00  0.00000000000E+00  0.19662396403E+04  0.19662396403E+04  0.00000000000E+00 0.  1.
          2   -1    0    0  501    0  0.00000000000E+00 -0.00000000000E+00 -0.47293830487E+04  0.47293830487E+04  0.00000000000E+00 0. -1.
         23    2    1    2    0    0  0.20316079393E+04  0.22328933676E+04 -0.18497370122E+04  0.35416482352E+04  0.92204108248E+02 0.  0.
         13    1    3    3    0    0  0.10736740981E+04  0.12468669959E+04 -0.10186589532E+04  0.19352311070E+04  0.00000000000E+00 0. -1.
        -13    1    3    3    0    0  0.95793384120E+03  0.98602637173E+03 -0.83107805896E+03  0.16064171283E+04  0.00000000000E+00 0.  1.
         22    1    1    2    0    0 -0.20316079393E+04 -0.22328933676E+04 -0.91340639627E+03  0.31539744538E+04  0.00000000000E+00 0. -1.
<mgrwt>
<rscale>  0 0.60988853E+04</rscale>
<asrwt>0</asrwt>
<pdfrwt beam="1">  1        2 0.72759739E+00 0.60988853E+04</pdfrwt>
<pdfrwt beam="2">  1       -2 0.30249841E+00 0.60988853E+04</pdfrwt>
<totfact> 0.14384923E-03</totfact>
</mgrwt>
</event>
<event>
 6    1  0.9906445E-006  0.1913684E+04  0.7818608E-02  0.8648075E-01
          1   -1    0    0  501    0  0.00000000000E+00  0.00000000000E+00  0.61651171451E+03  0.61651171451E+03  0.00000000000E+00 0. -1.
         -1   -1    0    0    0  501 -0.00000000000E+00 -0.00000000000E+00 -0.14850431551E+04  0.14850431551E+04  0.00000000000E+00 0.  1.
         23    2    1    2    0    0  0.73899578925E+03 -0.57211714475E+03 -0.64914165715E+03  0.11415732652E+04  0.91497676766E+02 0.  0.
         13    1    3    3    0    0  0.21092443684E+03 -0.20981720714E+03 -0.18016157293E+03  0.34780823859E+03  0.00000000000E+00 0.  1.
        -13    1    3    3    0    0  0.52807135241E+03 -0.36229993761E+03 -0.46898008422E+03  0.79376502658E+03  0.00000000000E+00 0. -1.
         22    1    1    2    0    0 -0.73899578925E+03  0.57211714475E+03 -0.21938978348E+03  0.95998160448E+03  0.00000000000E+00 0. -1.
<mgrwt>
<rscale>  0 0.19136839E+04</rscale>
<asrwt>0</asrwt>
<pdfrwt beam="1">  1        1 0.94847957E-01 0.19136839E+04</pdfrwt>
<pdfrwt beam="2">  1       -1 0.22846818E+00 0.19136839E+04</pdfrwt>
<totfact> 0.29726526E+00</totfact>
</mgrwt>
</event>
<event>
 6    1  0.9906445E-006  0.7893228E+03  0.7818608E-02  0.9575602E-01
         -2   -1    0    0    0  501 -0.00000000000E+00  0.00000000000E+00  0.71865383883E+02  0.71865383883E+02  0.00000000000E+00 0.  1.
          2   -1    0    0  501    0  0.00000000000E+00 -0.00000000000E+00 -0.21673527520E+04  0.21673527520E+04  0.00000000000E+00 0. -1.
         23    2    1    2    0    0  0.41921774887E+02 -0.35358036402E+03 -0.15111774922E+04  0.15549707098E+04  0.86602461348E+02 0.  0.
         11    1    3    3    0    0 -0.60217701547E+01 -0.24543935593E+03 -0.11032660066E+04  0.11302533435E+04  0.00000000000E+00 0.  1.
        -11    1    3    3    0    0  0.47943545041E+02 -0.10814100810E+03 -0.40791148558E+03  0.42471736627E+03  0.00000000000E+00 0. -1.
         22    1    1    2    0    0 -0.41921774887E+02  0.35358036402E+03 -0.58430987591E+03  0.68424742609E+03  0.00000000000E+00 0.  1.
<mgrwt>
<rscale>  0 0.78932284E+03</rscale>
<asrwt>0</asrwt>
<pdfrwt beam="1">  1        2 0.33343892E+00 0.78932284E+03</pdfrwt>
<pdfrwt beam="2">  1       -2 0.11056212E-01 0.78932284E+03</pdfrwt>
<totfact> 0.32154382E+02</totfact>
</mgrwt>
</event>
<event>
 6    1  0.9906445E-006  0.2715599E+04  0.7818608E-02  0.8329961E-01
         -1   -1    0    0    0  501 -0.00000000000E+00  0.00000000000E+00  0.16713751749E+04  0.16713751749E+04  0.00000000000E+00 0.  1.
          1   -1    0    0  501    0  0.00000000000E+00 -0.00000000000E+00 -0.11030553345E+04  0.11030553345E+04  0.00000000000E+00 0. -1.
         23    2    1    2    0    0  0.67086593980E+03 -0.11411950417E+03  0.14830630246E+04  0.16343254864E+04  0.91975486457E+02 0.  0.
         13    1    3    3    0    0  0.24537486431E+03 -0.86420768394E+02  0.57862601104E+03  0.63441739722E+03  0.00000000000E+00 0.  1.
        -13    1    3    3    0    0  0.42549107550E+03 -0.27698735773E+02  0.90443701360E+03  0.99990808920E+03  0.00000000000E+00 0. -1.
         22    1    1    2    0    0 -0.67086593980E+03  0.11411950417E+03 -0.91474318426E+03  0.11401050230E+04  0.00000000000E+00 0. -1.
<mgrwt>
<rscale>  0 0.27155989E+04</rscale>
<asrwt>0</asrwt>
<pdfrwt beam="1">  1        1 0.16970082E+00 0.27155989E+04</pdfrwt>
<pdfrwt beam="2">  1       -1 0.25713464E+00 0.27155989E+04</pdfrwt>
<totfact> 0.68876196E-01</totfact>
</mgrwt>
</event>
<event>
 6    1  0.9906445E-006  0.2695042E+04  0.7818608E-02  0.8336615E-01
         -2   -1    0    0    0  501 -0.00000000000E+00  0.00000000000E+00  0.45410884952E+03  0.45410884952E+03  0.00000000000E+00 0.  1.
          2   -1    0    0  501    0  0.00000000000E+00 -0.00000000000E+00 -0.39986297239E+04  0.39986297239E+04  0.00000000000E+00 0. -1.
         23    2    1    2    0    0  0.80901500303E+03 -0.79438648183E+03 -0.29726057466E+04  0.31828401243E+04  0.92364359180E+02 0.  0.
         11    1    3    3    0    0  0.21971367068E+03 -0.21884601181E+03 -0.93257418384E+03  0.98278292737E+03  0.00000000000E+00 0. -1.
        -11    1    3    3    0    0  0.58930133235E+03 -0.57554047003E+03 -0.20400315627E+04  0.22000571969E+04  0.00000000000E+00 0.  1.
         22    1    1    2    0    0 -0.80901500303E+03  0.79438648183E+03 -0.57191512783E+03  0.12698984491E+04  0.00000000000E+00 0.  1.
<mgrwt>
<rscale>  0 0.26950422E+04</rscale>
<asrwt>0</asrwt>
<pdfrwt beam="1">  1        2 0.61517380E+00 0.26950422E+04</pdfrwt>
<pdfrwt beam="2">  1       -2 0.69862901E-01 0.26950422E+04</pdfrwt>
<totfact> 0.56283944E-01</totfact>
</mgrwt>
</event>
<event>
 6    1  0.9906445E-006  0.1049150E+04  0.7818608E-02  0.9256222E-01
          1   -1    0    0  501    0  0.00000000000E+00  0.00000000000E+00  0.82196580356E+03  0.82196580356E+03  0.00000000000E+00 0. -1.
         -1   -1    0    0    0  501 -0.00000000000E+00 -0.00000000000E+00 -0.33478164083E+03  0.33478164083E+03  0.00000000000E+00 0.  1.
         23    2    1    2    0    0 -0.38136034784E+03 -0.20435800509E+03 -0.76044377322E+02  0.44651910260E+03  0.79991577744E+02 0.  0.
         13    1    3    3    0    0 -0.99293929478E+02 -0.86794167542E+02 -0.45061481767E+02  0.13936659962E+03  0.00000000000E+00 0. -1.
        -13    1    3    3    0    0 -0.28206641836E+03 -0.11756383755E+03 -0.30982895555E+02  0.30715250298E+03  0.00000000000E+00 0.  1.
         22    1    1    2    0    0  0.38136034784E+03  0.20435800509E+03  0.56322854005E+03  0.71022834179E+03  0.00000000000E+00 0. -1.
<mgrwt>
<rscale>  0 0.10491502E+04</rscale>
<asrwt>0</asrwt>
<pdfrwt beam="1">  1        1 0.12645628E+00 0.10491502E+04</pdfrwt>
<pdfrwt beam="2">  1       -1 0.51504868E-01 0.10491502E+04</pdfrwt>
<totfact> 0.80208333E+01</totfact>
</mgrwt>
</event>
<event>
 6    1  0.9906445E-006  0.2810111E+04  0.7818608E-02  0.8300136E-01
         -2   -1    0    0    0  501 -0.00000000000E+00  0.00000000000E+00  0.43049109002E+03  0.43049109002E+03  0.00000000000E+00 0.  1.
          2   -1    0    0  501    0  0.00000000000E+00 -0.00000000000E+00 -0.45858796324E+04  0.45858796324E+04  0.00000000000E+00 0. -1.
         23    2    1    2    0    0  0.30251302923E+03  0.80332036791E+03 -0.40620851561E+04  0.41529222478E+04  0.96900125335E+02 0.  0.
         13    1    3    3    0    0  0.47297573320E+01  0.97464521432E+02 -0.43372370640E+03  0.44456490756E+03  0.00000000000E+00 0. -1.
        -13    1    3    3    0    0  0.29778327189E+03  0.70585584648E+03 -0.36283614498E+04  0.37083573403E+04  0.00000000000E+00 0.  1.
         22    1    1    2    0    0 -0.30251302923E+03 -0.80332036791E+03 -0.93303386192E+02  0.86344847456E+03  0.00000000000E+00 0.  1.
<mgrwt>
<rscale>  0 0.28101105E+04</rscale>
<asrwt>0</asrwt>
<pdfrwt beam="1">  1        2 0.70551995E+00 0.28101105E+04</pdfrwt>
<pdfrwt beam="2">  1       -2 0.66229398E-01 0.28101105E+04</pdfrwt>
<totfact> 0.18444586E-01</totfact>
</mgrwt>
</event>
<event>
 6    1  0.9906445E-006  0.1236734E+04  0.7818608E-02  0.9081297E-01
          2   -1    0    0  501    0  0.00000000000E+00  0.00000000000E+00  0.51653805481E+03  0.51653805481E+03  0.00000000000E+00 0. -1.
         -2   -1    0    0    0  501 -0.00000000000E+00 -0.00000000000E+00 -0.74027021775E+03  0.74027021775E+03  0.00000000000E+00 0.  1.
         23    2    1    2    0    0 -0.42580668138E+03 -0.18373149392E+03 -0.52296329145E+03  0.70489536273E+03  0.91204585617E+02 0.  0.
         11    1    3    3    0    0 -0.25842156419E+03 -0.12760593591E+03 -0.25993746382E+03  0.38811398431E+03  0.00000000000E+00 0. -1.
        -11    1    3    3    0    0 -0.16738511718E+03 -0.56125558009E+02 -0.26302582763E+03  0.31678137842E+03  0.00000000000E+00 0.  1.
         22    1    1    2    0    0  0.42580668138E+03  0.18373149392E+03  0.29923112850E+03  0.55191290982E+03  0.00000000000E+00 0. -1.
<mgrwt>
<rscale>  0 0.12367340E+04</rscale>
<asrwt>0</asrwt>
<pdfrwt beam="1">  1        2 0.79467393E-01 0.12367340E+04</pdfrwt>
<pdfrwt beam="2">  1       -2 0.11388773E+00 0.12367340E+04</pdfrwt>
<totfact> 0.35231513E+01</totfact>
</mgrwt>
</event>
<event>
 6    1  0.9906445E-006  0.1398833E+04  0.7818608E-02  0.8954663E-01
         -2   -1    0    0    0  501 -0.00000000000E+00  0.00000000000E+00  0.75183845413E+03  0.75183845413E+03  0.00000000000E+00 0.  1.
          2   -1    0    0  501    0  0.00000000000E+00 -0.00000000000E+00 -0.65065002802E+03  0.65065002802E+03  0.00000000000E+00 0. -1.
         23    2    1    2    0    0  0.17329607995E+03  0.16600988665E+03  0.70633867813E+03  0.75149106178E+03  0.90739594036E+02 0.  0.
         13    1    3    3    0    0  0.12685647524E+02  0.49825769382E+02  0.22760684479E+03  0.23334182810E+03  0.00000000000E+00 0. -1.
        -13    1    3    3    0    0  0.16061043242E+03  0.11618411726E+03  0.47873183334E+03  0.51814923368E+03  0.00000000000E+00 0.  1.
         22    1    1    2    0    0 -0.17329607995E+03 -0.16600988665E+03 -0.60515025203E+03  0.65099742036E+03  0.00000000000E+00 0. -1.
<mgrwt>
<rscale>  0 0.13988334E+04</rscale>
<asrwt>0</asrwt>
<pdfrwt beam="1">  1        2 0.10010000E+00 0.13988334E+04</pdfrwt>
<pdfrwt beam="2">  1       -2 0.11566746E+00 0.13988334E+04</pdfrwt>
<totfact> 0.25410449E+01</totfact>
</mgrwt>
</event>
<event>
 6    1  0.9906445E-006  0.1188029E+04  0.7818608E-02  0.9123400E-01
         -1   -1    0    0    0  501 -0.00000000000E+00  0.00000000000E+00  0.42438275726E+03  0.42438275726E+03  0.00000000000E+00 0.  1.
          1   -1    0    0  501    0  0.00000000000E+00 -0.00000000000E+00 -0.83145058775E+03  0.83145058775E+03  0.00000000000E+00 0. -1.
         23    2    1    2    0    0  0.23270713084E+02 -0.67366607243E+02 -0.82425919362E+03  0.83259769041E+03  0.93466089819E+02 0.  0.
         11    1    3    3    0    0 -0.99471100207E+01 -0.74565379385E+02 -0.69058167022E+03  0.69466681513E+03  0.00000000000E+00 0.  1.
        -11    1    3    3    0    0  0.33217823105E+02  0.71987721417E+01 -0.13367752340E+03  0.13793087528E+03  0.00000000000E+00 0. -1.
         22    1    1    2    0    0 -0.23270713084E+02  0.67366607243E+02  0.41719136313E+03  0.42323565460E+03  0.00000000000E+00 0.  1.
<mgrwt>
<rscale>  0 0.11880291E+04</rscale>
<asrwt>0</asrwt>
<pdfrwt beam="1">  1        1 0.12791547E+00 0.11880291E+04</pdfrwt>
<pdfrwt beam="2">  1       -1 0.65289656E-01 0.11880291E+04</pdfrwt>
<totfact> 0.48935051E+01</totfact>
</mgrwt>
</event>
<event>
 6    1  0.9906445E-006  0.4815701E+04  0.7818608E-02  0.7857583E-01
          2   -1    0    0  501    0  0.00000000000E+00  0.00000000000E+00  0.36096851361E+04  0.36096851361E+04  0.00000000000E+00 0. -1.
         -2   -1    0    0    0  501 -0.00000000000E+00 -0.00000000000E+00 -0.16061634881E+04  0.16061634881E+04  0.00000000000E+00 0.  1.
         23    2    1    2    0    0 -0.86801597561E+03  0.14042599449E+04  0.28993429611E+04  0.33375798597E+04  0.88611436900E+02 0.  0.
         13    1    3    3    0    0 -0.44609355869E+03  0.74177356981E+03  0.14330961889E+04  0.16742138987E+04  0.00000000000E+00 0.  1.
        -13    1    3    3    0    0 -0.42192241692E+03  0.66248637513E+03  0.14662467722E+04  0.16633659610E+04  0.00000000000E+00 0. -1.
         22    1    1    2    0    0  0.86801597561E+03 -0.14042599449E+04 -0.89582131310E+03  0.18782687646E+04  0.00000000000E+00 0.  1.
<mgrwt>
<rscale>  0 0.48157012E+04</rscale>
<asrwt>0</asrwt>
<pdfrwt beam="1">  1        2 0.55533617E+00 0.48157012E+04</pdfrwt>
<pdfrwt beam="2">  1       -2 0.24710208E+00 0.48157012E+04</pdfrwt>
<totfact> 0.33525714E-02</totfact>
</mgrwt>
</event>
<event>
 6    1  0.9906445E-006  0.3035761E+04  0.7818608E-02  0.8233592E-01
          1   -1    0    0  501    0  0.00000000000E+00  0.00000000000E+00  0.28101135286E+04  0.28101135286E+04  0.00000000000E+00 0. -1.
         -1   -1    0    0    0  501 -0.00000000000E+00 -0.00000000000E+00 -0.81988174189E+03  0.81988174189E+03  0.00000000000E+00 0.  1.
         23    2    1    2    0    0 -0.48289492729E+03 -0.19187306058E+02  0.27148094029E+04  0.27590369560E+04  0.92407612590E+02 0.  0.
         11    1    3    3    0    0 -0.41924626348E+03  0.82341126194E+01  0.22025879061E+04  0.22421482365E+04  0.00000000000E+00 0. -1.
        -11    1    3    3    0    0 -0.63648663815E+02 -0.27421418677E+02  0.51222149681E+03  0.51688871955E+03  0.00000000000E+00 0.  1.
         22    1    1    2    0    0  0.48289492729E+03  0.19187306058E+02 -0.72457761626E+03  0.87095831445E+03  0.00000000000E+00 0.  1.
<mgrwt>
<rscale>  0 0.30357607E+04</rscale>
<asrwt>0</asrwt>
<pdfrwt beam="1">  1        1 0.43232515E+00 0.30357607E+04</pdfrwt>
<pdfrwt beam="2">  1       -1 0.12613565E+00 0.30357607E+04</pdfrwt>
<totfact> 0.38025680E-01</totfact>
</mgrwt>
</event>
<event>
 6    1  0.9906445E-006  0.6876668E+03  0.7818608E-02  0.9738559E-01
         -1   -1    0    0    0  501 -0.00000000000E+00  0.00000000000E+00  0.74802939316E+03  0.74802939316E+03  0.00000000000E+00 0.  1.
          1   -1    0    0  501    0  0.00000000000E+00 -0.00000000000E+00 -0.15804379755E+03  0.15804379755E+03  0.00000000000E+00 0. -1.
         23    2    1    2    0    0  0.70998215764E+02 -0.30107627555E+03  0.12145120721E+03  0.34463562210E+03  0.91299758769E+02 0.  0.
         13    1    3    3    0    0 -0.65720358495E+01 -0.12329757217E+03  0.17910048477E+02  0.12476478988E+03  0.00000000000E+00 0.  1.
        -13    1    3    3    0    0  0.77570251613E+02 -0.17777870338E+03  0.10354115874E+03  0.21987083223E+03  0.00000000000E+00 0. -1.
         22    1    1    2    0    0 -0.70998215764E+02  0.30107627555E+03  0.46853438840E+03  0.56143756861E+03  0.00000000000E+00 0.  1.
<mgrwt>
<rscale>  0 0.68766680E+03</rscale>
<asrwt>0</asrwt>
<pdfrwt beam="1">  1        1 0.24314431E-01 0.68766680E+03</pdfrwt>
<pdfrwt beam="2">  1       -1 0.11508144E+00 0.68766680E+03</pdfrwt>
<totfact> 0.14118091E+02</totfact>
</mgrwt>
</event>
<event>
 6    1  0.9906445E-006  0.2884002E+04  0.7818608E-02  0.8277653E-01
          2   -1    0    0  501    0  0.00000000000E+00  0.00000000000E+00  0.16525874468E+04  0.16525874468E+04  0.00000000000E+00 0. -1.
         -2   -1    0    0    0  501 -0.00000000000E+00 -0.00000000000E+00 -0.12582494081E+04  0.12582494081E+04  0.00000000000E+00 0.  1.
         23    2    1    2    0    0 -0.78823726523E+03  0.10667735771E+04 -0.37024944831E+03  0.13798509385E+04  0.87063812438E+02 0.  0.
         11    1    3    3    0    0 -0.30159851310E+03  0.35169395120E+03 -0.10390679418E+03  0.47481251068E+03  0.00000000000E+00 0. -1.
        -11    1    3    3    0    0 -0.48663875212E+03  0.71507962589E+03 -0.26634265413E+03  0.90503842782E+03  0.00000000000E+00 0.  1.
         22    1    1    2    0    0  0.78823726523E+03 -0.10667735771E+04  0.76458748696E+03  0.15309859164E+04  0.00000000000E+00 0. -1.
<mgrwt>
<rscale>  0 0.28840022E+04</rscale>
<asrwt>0</asrwt>
<pdfrwt beam="1">  1        2 0.25424422E+00 0.28840022E+04</pdfrwt>
<pdfrwt beam="2">  1       -2 0.19357683E+00 0.28840022E+04</pdfrwt>
<totfact> 0.13213342E+00</totfact>
</mgrwt>
</event>
<event>
 6    1  0.9906445E-006  0.1064240E+04  0.7818608E-02  0.9240764E-01
          2   -1    0    0  501    0  0.00000000000E+00  0.00000000000E+00  0.74246485616E+03  0.74246485616E+03  0.00000000000E+00 0. -1.
         -2   -1    0    0    0  501 -0.00000000000E+00 -0.00000000000E+00 -0.38136715659E+03  0.38136715659E+03  0.00000000000E+00 0.  1.
         23    2    1    2    0    0  0.13439502159E+03  0.75481113066E+02 -0.35120594571E+03  0.39504129976E+03  0.94618137591E+02 0.  0.
         13    1    3    3    0    0  0.69708721076E+02 -0.89567993961E+01 -0.18292592443E+03  0.19596281249E+03  0.00000000000E+00 0. -1.
        -13    1    3    3    0    0  0.64686300513E+02  0.84437912462E+02 -0.16828002128E+03  0.19907848728E+03  0.00000000000E+00 0.  1.
         22    1    1    2    0    0 -0.13439502159E+03 -0.75481113066E+02  0.71230364528E+03  0.72879071299E+03  0.00000000000E+00 0. -1.
<mgrwt>
<rscale>  0 0.10642400E+04</rscale>
<asrwt>0</asrwt>
<pdfrwt beam="1">  1        2 0.11422536E+00 0.10642400E+04</pdfrwt>
<pdfrwt beam="2">  1       -2 0.58671870E-01 0.10642400E+04</pdfrwt>
<totfact> 0.10268405E+02</totfact>
</mgrwt>
</event>
<event>
 6    1  0.9906445E-006  0.1832175E+04  0.7818608E-02  0.8689374E-01
         -2   -1    0    0    0  501 -0.00000000000E+00  0.00000000000E+00  0.37655356998E+03  0.37655356998E+03  0.00000000000E+00 0.  1.
          2   -1    0    0  501    0  0.00000000000E+00 -0.00000000000E+00 -0.22286766574E+04  0.22286766574E+04  0.00000000000E+00 0. -1.
         23    2    1    2    0    0 -0.34865937220E+03 -0.20082595950E+03  0.23822228390E+03  0.47651272728E+03  0.91761096777E+02 0.  0.
         13    1    3    3    0    0 -0.15045125590E+03 -0.35498654888E+02  0.89887279406E+02  0.17881682778E+03  0.00000000000E+00 0. -1.
        -13    1    3    3    0    0 -0.19820811630E+03 -0.16532730461E+03  0.14833500449E+03  0.29769589949E+03  0.00000000000E+00 0.  1.
         22    1    1    2    0    0  0.34865937220E+03  0.20082595950E+03 -0.20903453713E+04  0.21287175001E+04  0.00000000000E+00 0. -1.
<mgrwt>
<rscale>  0 0.18321748E+04</rscale>
<asrwt>0</asrwt>
<pdfrwt beam="1">  1        2 0.34287334E+00 0.18321748E+04</pdfrwt>
<pdfrwt beam="2">  1       -2 0.57931318E-01 0.18321748E+04</pdfrwt>
<totfact> 0.13069430E+01</totfact>
</mgrwt>
</event>
<event>
 6    1  0.9906445E-006  0.2645008E+04  0.7818608E-02  0.8353072E-01
         -2   -1    0    0    0  501 -0.00000000000E+00  0.00000000000E+00  0.12631068856E+04  0.12631068856E+04  0.00000000000E+00 0.  1.
          2   -1    0    0  501    0  0.00000000000E+00 -0.00000000000E+00 -0.13846939538E+04  0.13846939538E+04  0.00000000000E+00 0. -1.
         23    2    1    2    0    0  0.11965008037E+04  0.25562481949E+02  0.49867833844E+03  0.12998406069E+04  0.92940327654E+02 0.  0.
         11    1    3    3    0    0  0.85357849377E+03 -0.23778755843E+02  0.35192600885E+03  0.92358734831E+03  0.00000000000E+00 0. -1.
        -11    1    3    3    0    0  0.34292230991E+03  0.49341237792E+02  0.14675232960E+03  0.37625325862E+03  0.00000000000E+00 0.  1.
         22    1    1    2    0    0 -0.11965008037E+04 -0.25562481949E+02 -0.62026540659E+03  0.13479602325E+04  0.00000000000E+00 0. -1.
<mgrwt>
<rscale>  0 0.26450077E+04</rscale>
<asrwt>0</asrwt>
<pdfrwt beam="1">  1        2 0.21302984E+00 0.26450077E+04</pdfrwt>
<pdfrwt beam="2">  1       -2 0.19432414E+00 0.26450077E+04</pdfrwt>
<totfact> 0.18872397E+00</totfact>
</mgrwt>
</event>
<event>
 6    1  0.1008864E-005  0.3037347E+04  0.7818608E-02  0.8233146E-01
          2   -1    0    0  501    0  0.00000000000E+00  0.00000000000E+00  0.11980150000E+04  0.11980150000E+04  0.00000000000E+00 0. -1.
         -2   -1    0    0    0  501 -0.00000000000E+00 -0.00000000000E+00 -0.19251593692E+04  0.19251593692E+04  0.00000000000E+00 0.  1.
         23    2    1    2    0    0  0.21043540329E+03 -0.50699952073E+03 -0.18184291527E+04  0.19016040471E+04  0.89898807612E+02 0.  0.
         11    1    3    3    0    0  0.10769868193E+03 -0.34769804432E+03 -0.11041664812E+04  0.11626162541E+04  0.00000000000E+00 0. -1.
        -11    1    3    3    0    0  0.10273672136E+03 -0.15930147641E+03 -0.71426267152E+03  0.73898779302E+03  0.00000000000E+00 0.  1.
         22    1    1    2    0    0 -0.21043540329E+03  0.50699952073E+03  0.10912847836E+04  0.12215703221E+04  0.00000000000E+00 0. -1.
<mgrwt>
<rscale>  0 0.30373474E+04</rscale>
<asrwt>0</asrwt>
<pdfrwt beam="1">  1        2 0.18431000E+00 0.30373474E+04</pdfrwt>
<pdfrwt beam="2">  1       -2 0.29617836E+00 0.30373474E+04</pdfrwt>
<totfact> 0.54362397E-01</totfact>
</mgrwt>
</event>
<event>
 6    1  0.9906445E-006  0.2526672E+04  0.7818608E-02  0.8393545E-01
         -2   -1    0    0    0  501 -0.00000000000E+00  0.00000000000E+00  0.12758029724E+04  0.12758029724E+04  0.00000000000E+00 0.  1.
          2   -1    0    0  501    0  0.00000000000E+00 -0.00000000000E+00 -0.12509906976E+04  0.12509906976E+04  0.00000000000E+00 0. -1.
         23    2    1    2    0    0 -0.77516512607E+03 -0.48669216709E+03 -0.85603163845E+03  0.12565038458E+04  0.90892850204E+02 0.  0.
         13    1    3    3    0    0 -0.66704896724E+03 -0.44255491894E+03 -0.77630935693E+03  0.11151077969E+04  0.00000000000E+00 0. -1.
        -13    1    3    3    0    0 -0.10811615883E+03 -0.44137248149E+02 -0.79722281523E+02  0.14139604890E+03  0.00000000000E+00 0.  1.
         22    1    1    2    0    0  0.77516512607E+03  0.48669216709E+03  0.88084391323E+03  0.12702898243E+04  0.00000000000E+00 0.  1.
<mgrwt>
<rscale>  0 0.25266718E+04</rscale>
<asrwt>0</asrwt>
<pdfrwt beam="1">  1        2 0.19246011E+00 0.25266718E+04</pdfrwt>
<pdfrwt beam="2">  1       -2 0.19627738E+00 0.25266718E+04</pdfrwt>
<totfact> 0.22124238E+00</totfact>
</mgrwt>
</event>
<event>
 6    1  0.9906445E-006  0.2471578E+04  0.7818608E-02  0.8413182E-01
          2   -1    0    0  501    0  0.00000000000E+00  0.00000000000E+00  0.27810001199E+04  0.27810001199E+04  0.00000000000E+00 0. -1.
         -2   -1    0    0    0  501 -0.00000000000E+00 -0.00000000000E+00 -0.54914563168E+03  0.54914563168E+03  0.00000000000E+00 0.  1.
         23    2    1    2    0    0 -0.11449639658E+03 -0.38729739375E+03  0.26887316379E+04  0.27203544546E+04  0.89117014910E+02 0.  0.
         13    1    3    3    0    0  0.12614752835E+01 -0.91553815369E+02  0.45126563224E+03  0.46046103339E+03  0.00000000000E+00 0.  1.
        -13    1    3    3    0    0 -0.11575787187E+03 -0.29574357838E+03  0.22374660056E+04  0.22598934213E+04  0.00000000000E+00 0. -1.
         22    1    1    2    0    0  0.11449639658E+03  0.38729739375E+03 -0.45687714962E+03  0.60979129698E+03  0.00000000000E+00 0.  1.
<mgrwt>
<rscale>  0 0.24715777E+04</rscale>
<asrwt>0</asrwt>
<pdfrwt beam="1">  1        2 0.42784617E+00 0.24715777E+04</pdfrwt>
<pdfrwt beam="2">  1       -2 0.84483945E-01 0.24715777E+04</pdfrwt>
<totfact> 0.25932668E+00</totfact>
</mgrwt>
</event>
<event>
 6    1  0.9906445E-006  0.4749808E+04  0.7818608E-02  0.7868305E-01
          1   -1    0    0  501    0  0.00000000000E+00  0.00000000000E+00  0.43801840187E+04  0.43801840187E+04  0.00000000000E+00 0. -1.
         -1   -1    0    0    0  501 -0.00000000000E+00 -0.00000000000E+00 -0.12876557515E+04  0.12876557515E+04  0.00000000000E+00 0.  1.
         23    2    1    2    0    0 -0.18247378480E+04 -0.41654668621E+02  0.33583916485E+04  0.38233651396E+04  0.89012362867E+02 0.  0.
         11    1    3    3    0    0 -0.13890063415E+04 -0.26140676499E+02  0.26327088155E+04  0.29767730277E+04  0.00000000000E+00 0.  1.
        -11    1    3    3    0    0 -0.43573150652E+03 -0.15513992122E+02  0.72568283305E+03  0.84659211189E+03  0.00000000000E+00 0. -1.
         22    1    1    2    0    0  0.18247378480E+04  0.41654668621E+02 -0.26586338131E+03  0.18444746306E+04  0.00000000000E+00 0.  1.
<mgrwt>
<rscale>  0 0.47498081E+04</rscale>
<asrwt>0</asrwt>
<pdfrwt beam="1">  1        1 0.67387446E+00 0.47498081E+04</pdfrwt>
<pdfrwt beam="2">  1       -1 0.19810089E+00 0.47498081E+04</pdfrwt>
<totfact> 0.48268858E-03</totfact>
</mgrwt>
</event>
<event>
 6    1  0.9906445E-006  0.1193592E+04  0.7818608E-02  0.9118484E-01
          1   -1    0    0  501    0  0.00000000000E+00  0.00000000000E+00  0.63479471009E+03  0.63479471009E+03  0.00000000000E+00 0. -1.
         -1   -1    0    0    0  501 -0.00000000000E+00 -0.00000000000E+00 -0.56107168302E+03  0.56107168302E+03  0.00000000000E+00 0.  1.
         23    2    1    2    0    0  0.26749459214E+02  0.50477261628E+03 -0.27412181458E+03  0.58226476210E+03  0.91534453814E+02 0.  0.
         11    1    3    3    0    0  0.48221131838E+02  0.25727517233E+03 -0.17460177433E+03  0.31464515164E+03  0.00000000000E+00 0. -1.
        -11    1    3    3    0    0 -0.21471672624E+02  0.24749744395E+03 -0.99520040248E+02  0.26761961045E+03  0.00000000000E+00 0.  1.
         22    1    1    2    0    0 -0.26749459214E+02 -0.50477261628E+03  0.34784484165E+03  0.61360163101E+03  0.00000000000E+00 0. -1.
<mgrwt>
<rscale>  0 0.11935918E+04</rscale>
<asrwt>0</asrwt>
<pdfrwt beam="1">  1        1 0.97660725E-01 0.11935918E+04</pdfrwt>
<pdfrwt beam="2">  1       -1 0.86318720E-01 0.11935918E+04</pdfrwt>
<totfact> 0.41372216E+01</totfact>
</mgrwt>
</event>
<event>
 6    1  0.9906445E-006  0.3994515E+04  0.7818608E-02  0.8005654E-01
          2   -1    0    0  501    0  0.00000000000E+00  0.00000000000E+00  0.25886740135E+04  0.25886740135E+04  0.00000000000E+00 0. -1.
         -2   -1    0    0    0  501 -0.00000000000E+00 -0.00000000000E+00 -0.15409580352E+04  0.15409580352E+04  0.00000000000E+00 0.  1.
         23    2    1    2    0    0 -0.14203517642E+03 -0.14986265821E+04  0.18794647913E+04  0.24097885350E+04  0.92936848974E+02 0.  0.
         11    1    3    3    0    0 -0.55947855207E+02 -0.10288641282E+04  0.12641604513E+04  0.16308872442E+04  0.00000000000E+00 0. -1.
        -11    1    3    3    0    0 -0.86087321215E+02 -0.46976245394E+03  0.61530433996E+03  0.77890129078E+03  0.00000000000E+00 0.  1.
         22    1    1    2    0    0  0.14203517642E+03  0.14986265821E+04 -0.83174881298E+03  0.17198435138E+04  0.00000000000E+00 0.  1.
<mgrwt>
<rscale>  0 0.39945153E+04</rscale>
<asrwt>0</asrwt>
<pdfrwt beam="1">  1        2 0.39825754E+00 0.39945153E+04</pdfrwt>
<pdfrwt beam="2">  1       -2 0.23707047E+00 0.39945153E+04</pdfrwt>
<totfact> 0.18837204E-01</totfact>
</mgrwt>
</event>
<event>
 6    1  0.9906445E-006  0.4178648E+04  0.7818608E-02  0.7969446E-01
          1   -1    0    0  501    0  0.00000000000E+00  0.00000000000E+00  0.21284996418E+04  0.21284996418E+04  0.00000000000E+00 0. -1.
         -1   -1    0    0    0  501 -0.00000000000E+00 -0.00000000000E+00 -0.20508696466E+04  0.20508696466E+04  0.00000000000E+00 0.  1.
         23    2    1    2    0    0  0.66167967588E+03 -0.50073449933E+03  0.19553956850E+04  0.21264301714E+04  0.97867035529E+02 0.  0.
         11    1    3    3    0    0  0.32293916918E+03 -0.27387138319E+03  0.11052144078E+04  0.11835514897E+04  0.00000000000E+00 0.  1.
        -11    1    3    3    0    0  0.33874050670E+03 -0.22686311614E+03  0.85018127726E+03  0.94287868178E+03  0.00000000000E+00 0. -1.
         22    1    1    2    0    0 -0.66167967588E+03  0.50073449933E+03 -0.18777656898E+04  0.20529391170E+04  0.00000000000E+00 0.  1.
<mgrwt>
<rscale>  0 0.41786483E+04</rscale>
<asrwt>0</asrwt>
<pdfrwt beam="1">  1        1 0.32746148E+00 0.41786483E+04</pdfrwt>
<pdfrwt beam="2">  1       -1 0.31551841E+00 0.41786483E+04</pdfrwt>
<totfact> 0.49210821E-02</totfact>
</mgrwt>
</event>
<event>
 6    1  0.9906445E-006  0.1923152E+04  0.7818608E-02  0.8643417E-01
          2   -1    0    0  501    0  0.00000000000E+00  0.00000000000E+00  0.16577488687E+04  0.16577488687E+04  0.00000000000E+00 0. -1.
         -2   -1    0    0    0  501 -0.00000000000E+00 -0.00000000000E+00 -0.55776168288E+03  0.55776168288E+03  0.00000000000E+00 0.  1.
         23    2    1    2    0    0 -0.12292373921E+03 -0.75522410702E+03 -0.11566429811E+03  0.77909757898E+03  0.90228101139E+02 0.  0.
         11    1    3    3    0    0 -0.73030421675E+00 -0.21068005412E+03 -0.87471656403E+01  0.21086282616E+03  0.00000000000E+00 0.  1.
        -11    1    3    3    0    0 -0.12219343500E+03 -0.54454405290E+03 -0.10691713247E+03  0.56823475283E+03  0.00000000000E+00 0. -1.
         22    1    1    2    0    0  0.12292373921E+03  0.75522410702E+03  0.12156514840E+04  0.14364129726E+04  0.00000000000E+00 0. -1.
<mgrwt>
<rscale>  0 0.19231524E+04</rscale>
<asrwt>0</asrwt>
<pdfrwt beam="1">  1        2 0.25503829E+00 0.19231524E+04</pdfrwt>
<pdfrwt beam="2">  1       -2 0.85809490E-01 0.19231524E+04</pdfrwt>
<totfact> 0.11411954E+01</totfact>
</mgrwt>
</event>
<event>
 6    1  0.9906445E-006  0.8716525E+03  0.7818608E-02  0.9461728E-01
          3   -1    0    0  501    0  0.00000000000E+00  0.00000000000E+00  0.14013815479E+04  0.14013815479E+04  0.00000000000E+00 0. -1.
         -3   -1    0    0    0  501 -0.00000000000E+00 -0.00000000000E+00 -0.13554090143E+03  0.13554090143E+03  0.00000000000E+00 0.  1.
         23    2    1    2    0    0  0.41719098962E+03 -0.10699885854E+03  0.66252194114E+03  0.79564615958E+03  0.92846169658E+02 0.  0.
         13    1    3    3    0    0  0.35780412706E+03 -0.91590727132E+02  0.61757291291E+03  0.71958943669E+03  0.00000000000E+00 0.  1.
        -13    1    3    3    0    0  0.59386862563E+02 -0.15408131409E+02  0.44949028229E+02  0.76056722894E+02  0.00000000000E+00 0. -1.
         22    1    1    2    0    0 -0.41719098962E+03  0.10699885854E+03  0.60331870535E+03  0.74127628977E+03  0.00000000000E+00 0. -1.
<mgrwt>
<rscale>  0 0.87165250E+03</rscale>
<asrwt>0</asrwt>
<pdfrwt beam="1">  1        3 0.21559715E+00 0.87165250E+03</pdfrwt>
<pdfrwt beam="2">  1       -3 0.20852447E-01 0.87165250E+03</pdfrwt>
<totfact> 0.66529275E+00</totfact>
</mgrwt>
</event>
<event>
 6    1  0.9906445E-006  0.1559569E+04  0.7818608E-02  0.8845779E-01
         -1   -1    0    0    0  501 -0.00000000000E+00  0.00000000000E+00  0.29903728111E+03  0.29903728111E+03  0.00000000000E+00 0.  1.
          1   -1    0    0  501    0  0.00000000000E+00 -0.00000000000E+00 -0.20334054080E+04  0.20334054080E+04  0.00000000000E+00 0. -1.
         23    2    1    2    0    0 -0.13078642963E+03 -0.99096472919E+02 -0.20060659033E+04  0.20150393451E+04  0.95697192079E+02 0.  0.
         11    1    3    3    0    0 -0.10883632422E+03 -0.41427322189E+02 -0.16088564538E+04  0.16130656086E+04  0.00000000000E+00 0. -1.
        -11    1    3    3    0    0 -0.21950105403E+02 -0.57669150730E+02 -0.39720944950E+03  0.40197373651E+03  0.00000000000E+00 0.  1.
         22    1    1    2    0    0  0.13078642963E+03  0.99096472919E+02  0.27169777641E+03  0.31740334407E+03  0.00000000000E+00 0.  1.
<mgrwt>
<rscale>  0 0.15595692E+04</rscale>
<asrwt>0</asrwt>
<pdfrwt beam="1">  1        1 0.31283159E+00 0.15595692E+04</pdfrwt>
<pdfrwt beam="2">  1       -1 0.46005738E-01 0.15595692E+04</pdfrwt>
<totfact> 0.12801290E+01</totfact>
</mgrwt>
</event>
<event>
 6    1  0.9906445E-006  0.4740767E+03  0.7818608E-02  0.1020776E+00
          2   -1    0    0  501    0  0.00000000000E+00  0.00000000000E+00  0.30026128182E+03  0.30026128182E+03  0.00000000000E+00 0. -1.
         -2   -1    0    0    0  501 -0.00000000000E+00 -0.00000000000E+00 -0.18712762912E+03  0.18712762912E+03  0.00000000000E+00 0.  1.
         23    2    1    2    0    0  0.57447376207E+02  0.21301547667E+03 -0.11868964401E+01  0.23890353453E+03  0.91638942338E+02 0.  0.
         13    1    3    3    0    0  0.89295572054E+01  0.17954525593E+03  0.32240759775E+01  0.17979608056E+03  0.00000000000E+00 0. -1.
        -13    1    3    3    0    0  0.48517819002E+02  0.33470220744E+02 -0.44109724176E+01  0.59107453972E+02  0.00000000000E+00 0.  1.
         22    1    1    2    0    0 -0.57447376207E+02 -0.21301547667E+03  0.11432054913E+03  0.24848537641E+03  0.00000000000E+00 0. -1.
<mgrwt>
<rscale>  0 0.47407671E+03</rscale>
<asrwt>0</asrwt>
<pdfrwt beam="1">  1        2 0.46194043E-01 0.47407671E+03</pdfrwt>
<pdfrwt beam="2">  1       -2 0.28788866E-01 0.47407671E+03</pdfrwt>
<totfact> 0.12124481E+03</totfact>
</mgrwt>
</event>
<event>
 6    1  0.9906445E-006  0.2516848E+04  0.7818608E-02  0.8397008E-01
          1   -1    0    0  501    0  0.00000000000E+00  0.00000000000E+00  0.77147094733E+03  0.77147094733E+03  0.00000000000E+00 0. -1.
         -1   -1    0    0    0  501 -0.00000000000E+00 -0.00000000000E+00 -0.20527419270E+04  0.20527419270E+04  0.00000000000E+00 0.  1.
         23    2    1    2    0    0  0.27029711696E+03  0.29544087957E+03  0.69528900124E+03  0.80749891273E+03  0.91004692460E+02 0.  0.
         11    1    3    3    0    0  0.61239384275E+02  0.19214769142E+02  0.11288169749E+03  0.12985279037E+03  0.00000000000E+00 0.  1.
        -11    1    3    3    0    0  0.20905773269E+03  0.27622611043E+03  0.58240730375E+03  0.67764612235E+03  0.00000000000E+00 0. -1.
         22    1    1    2    0    0 -0.27029711696E+03 -0.29544087957E+03 -0.19765599810E+04  0.20167139616E+04  0.00000000000E+00 0.  1.
<mgrwt>
<rscale>  0 0.25168478E+04</rscale>
<asrwt>0</asrwt>
<pdfrwt beam="1">  1        1 0.11868784E+00 0.25168478E+04</pdfrwt>
<pdfrwt beam="2">  1       -1 0.31580644E+00 0.25168478E+04</pdfrwt>
<totfact> 0.54183949E-01</totfact>
</mgrwt>
</event>
<event>
 6    1  0.9906445E-006  0.3074203E+04  0.7818608E-02  0.8222854E-01
         -2   -1    0    0    0  501 -0.00000000000E+00  0.00000000000E+00  0.75707396509E+03  0.75707396509E+03  0.00000000000E+00 0. -1.
          2   -1    0    0  501    0  0.00000000000E+00 -0.00000000000E+00 -0.31208051721E+04  0.31208051721E+04  0.00000000000E+00 0.  1.
         23    2    1    2    0    0  0.14903878439E+04  0.37015134268E+03 -0.11483183628E+04  0.19194368165E+04  0.85642794019E+02 0.  0.
         11    1    3    3    0    0  0.43566292499E+03  0.88289000065E+02 -0.29078372272E+03  0.53118010612E+03  0.00000000000E+00 0. -1.
        -11    1    3    3    0    0  0.10547249189E+04  0.28186234262E+03 -0.85753464013E+03  0.13882567104E+04  0.00000000000E+00 0.  1.
         22    1    1    2    0    0 -0.14903878439E+04 -0.37015134268E+03 -0.12154128442E+04  0.19584423207E+04  0.00000000000E+00 0. -1.
<mgrwt>
<rscale>  0 0.30742026E+04</rscale>
<asrwt>0</asrwt>
<pdfrwt beam="1">  1        2 0.48012388E+00 0.30742026E+04</pdfrwt>
<pdfrwt beam="2">  1       -2 0.11647292E+00 0.30742026E+04</pdfrwt>
<totfact> 0.70914898E-01</totfact>
</mgrwt>
</event>
<event>
 6    1  0.9906445E-006  0.2497894E+04  0.7818608E-02  0.8403736E-01
         -1   -1    0    0    0  501 -0.00000000000E+00  0.00000000000E+00  0.96599081569E+03  0.96599081569E+03  0.00000000000E+00 0.  1.
          1   -1    0    0  501    0  0.00000000000E+00 -0.00000000000E+00 -0.16147856954E+04  0.16147856954E+04  0.00000000000E+00 0. -1.
         23    2    1    2    0    0  0.61718350252E+02 -0.85438568356E+03  0.61202797307E+03  0.10564870645E+04  0.88332477203E+02 0.  0.
         11    1    3    3    0    0  0.81804932333E+02 -0.54569465585E+03  0.38887624454E+03  0.67505513697E+03  0.00000000000E+00 0.  1.
        -11    1    3    3    0    0 -0.20086582080E+02 -0.30869102770E+03  0.22315172854E+03  0.38143192750E+03  0.00000000000E+00 0. -1.
         22    1    1    2    0    0 -0.61718350252E+02  0.85438568356E+03 -0.12608228528E+04  0.15242894466E+04  0.00000000000E+00 0. -1.
<mgrwt>
<rscale>  0 0.24978936E+04</rscale>
<asrwt>0</asrwt>
<pdfrwt beam="1">  1        1 0.24842857E+00 0.24978936E+04</pdfrwt>
<pdfrwt beam="2">  1       -1 0.14861397E+00 0.24978936E+04</pdfrwt>
<totfact> 0.17327897E+00</totfact>
</mgrwt>
</event>
<event>
 6    1  0.9906445E-006  0.7309149E+03  0.7818608E-02  0.9665777E-01
         -1   -1    0    0    0  501 -0.00000000000E+00  0.00000000000E+00  0.10210976631E+03  0.10210976631E+03  0.00000000000E+00 0.  1.
          1   -1    0    0  501    0  0.00000000000E+00 -0.00000000000E+00 -0.13079958141E+04  0.13079958141E+04  0.00000000000E+00 0. -1.
         23    2    1    2    0    0  0.32329210420E+03  0.99044779212E+02 -0.37803268802E+03  0.51586353364E+03  0.94227486488E+02 0.  0.
         13    1    3    3    0    0  0.81538206675E+02  0.60621980413E+02 -0.74864250746E+02  0.12620681319E+03  0.00000000000E+00 0.  1.
        -13    1    3    3    0    0  0.24175389752E+03  0.38422798799E+02 -0.30316843727E+03  0.38965672045E+03  0.00000000000E+00 0. -1.
         22    1    1    2    0    0 -0.32329210420E+03 -0.99044779212E+02 -0.82785335978E+03  0.89424204678E+03  0.00000000000E+00 0. -1.
<mgrwt>
<rscale>  0 0.73091490E+03</rscale>
<asrwt>0</asrwt>
<pdfrwt beam="1">  1        1 0.20123012E+00 0.73091490E+03</pdfrwt>
<pdfrwt beam="2">  1       -1 0.15709195E-01 0.73091490E+03</pdfrwt>
<totfact> 0.27666127E+02</totfact>
</mgrwt>
</event>
<event>
 6    1  0.9906445E-006  0.2538290E+04  0.7818608E-02  0.8389470E-01
         -2   -1    0    0    0  501 -0.00000000000E+00  0.00000000000E+00  0.89723077096E+03  0.89723077096E+03  0.00000000000E+00 0.  1.
          2   -1    0    0  501    0  0.00000000000E+00 -0.00000000000E+00 -0.17952233472E+04  0.17952233472E+04  0.00000000000E+00 0. -1.
         23    2    1    2    0    0 -0.64652642180E+03  0.89738037441E+03  0.20751980586E+03  0.11286620676E+04  0.86750461388E+02 0.  0.
         11    1    3    3    0    0 -0.37464526743E+03  0.48283091324E+03  0.15243856462E+03  0.62985893911E+03  0.00000000000E+00 0. -1.
        -11    1    3    3    0    0 -0.27188115437E+03  0.41454946117E+03  0.55081241238E+02  0.49880312849E+03  0.00000000000E+00 0.  1.
         22    1    1    2    0    0  0.64652642180E+03 -0.89738037441E+03 -0.11055123821E+04  0.15637920506E+04  0.00000000000E+00 0. -1.
<mgrwt>
<rscale>  0 0.25382905E+04</rscale>
<asrwt>0</asrwt>
<pdfrwt beam="1">  1        2 0.27618821E+00 0.25382905E+04</pdfrwt>
<pdfrwt beam="2">  1       -2 0.13803550E+00 0.25382905E+04</pdfrwt>
<totfact> 0.28761637E+00</totfact>
</mgrwt>
</event>
<event>
 6    1  0.9906445E-006  0.9582495E+03  0.7818608E-02  0.9355560E-01
          2   -1    0    0  501    0  0.00000000000E+00  0.00000000000E+00  0.12260722718E+04  0.12260722718E+04  0.00000000000E+00 0. -1.
         -2   -1    0    0    0  501 -0.00000000000E+00 -0.00000000000E+00 -0.18723245960E+03  0.18723245960E+03  0.00000000000E+00 0.  1.
         23    2    1    2    0    0  0.32962489158E+03  0.34205714298E+03  0.54368063177E+03  0.72712817092E+03  0.86435463581E+02 0.  0.
         11    1    3    3    0    0 -0.33229480456E+01  0.58719042223E+01  0.49746996865E+00  0.67652582567E+01  0.00000000000E+00 0.  1.
        -11    1    3    3    0    0  0.33294783962E+03  0.33618523876E+03  0.54318316180E+03  0.72036291266E+03  0.00000000000E+00 0. -1.
         22    1    1    2    0    0 -0.32962489158E+03 -0.34205714298E+03  0.49515918046E+03  0.68617656052E+03  0.00000000000E+00 0.  1.
<mgrwt>
<rscale>  0 0.95824950E+03</rscale>
<asrwt>0</asrwt>
<pdfrwt beam="1">  1        2 0.18862650E+00 0.95824950E+03</pdfrwt>
<pdfrwt beam="2">  1       -2 0.28804995E-01 0.95824950E+03</pdfrwt>
<totfact> 0.20189139E+02</totfact>
</mgrwt>
</event>
<event>
 6    1  0.9906445E-006  0.1974415E+04  0.7818608E-02  0.8618677E-01
         -2   -1    0    0    0  501 -0.00000000000E+00  0.00000000000E+00  0.51128875675E+03  0.51128875675E+03  0.00000000000E+00 0.  1.
          2   -1    0    0  501    0  0.00000000000E+00 -0.00000000000E+00 -0.19061227010E+04  0.19061227010E+04  0.00000000000E+00 0. -1.
         23    2    1    2    0    0  0.31371127417E+02  0.64888563352E+03  0.20783926945E+03  0.68807686233E+03  0.90641566179E+02 0.  0.
         11    1    3    3    0    0 -0.28038310659E+02  0.34741930911E+03  0.10380651717E+03  0.36367858916E+03  0.00000000000E+00 0. -1.
        -11    1    3    3    0    0  0.59409438076E+02  0.30146632441E+03  0.10403275228E+03  0.32439827316E+03  0.00000000000E+00 0.  1.
         22    1    1    2    0    0 -0.31371127417E+02 -0.64888563352E+03 -0.16026732137E+04  0.17293345954E+04  0.00000000000E+00 0. -1.
<mgrwt>
<rscale>  0 0.19744155E+04</rscale>
<asrwt>0</asrwt>
<pdfrwt beam="1">  1        2 0.29324965E+00 0.19744155E+04</pdfrwt>
<pdfrwt beam="2">  1       -2 0.78659808E-01 0.19744155E+04</pdfrwt>
<totfact> 0.10070020E+01</totfact>
</mgrwt>
</event>
<event>
 6    1  0.9906445E-006  0.1277157E+04  0.7818608E-02  0.9047878E-01
          2   -1    0    0  501    0  0.00000000000E+00  0.00000000000E+00  0.21107037308E+03  0.21107037308E+03  0.00000000000E+00 0. -1.
         -2   -1    0    0    0  501 -0.00000000000E+00 -0.00000000000E+00 -0.19319748091E+04  0.19319748091E+04  0.00000000000E+00 0.  1.
         23    2    1    2    0    0  0.21724863540E+03 -0.90234925357E+00 -0.18665165621E+04  0.18815099549E+04  0.94856995915E+02 0.  0.
         11    1    3    3    0    0  0.47749263251E+02 -0.36053147419E+02 -0.34168015783E+03  0.34687916027E+03  0.00000000000E+00 0. -1.
        -11    1    3    3    0    0  0.16949937215E+03  0.35150798165E+02 -0.15248364043E+04  0.15346307946E+04  0.00000000000E+00 0.  1.
         22    1    1    2    0    0 -0.21724863540E+03  0.90234925357E+00  0.14561212617E+03  0.26153522727E+03  0.00000000000E+00 0. -1.
<mgrwt>
<rscale>  0 0.12771572E+04</rscale>
<asrwt>0</asrwt>
<pdfrwt beam="1">  1        2 0.32472363E-01 0.12771572E+04</pdfrwt>
<pdfrwt beam="2">  1       -2 0.29722691E+00 0.12771572E+04</pdfrwt>
<totfact> 0.53166491E+00</totfact>
</mgrwt>
</event>
<event>
 6    1  0.9906445E-006  0.4646907E+04  0.7818608E-02  0.7885411E-01
          2   -1    0    0  501    0  0.00000000000E+00  0.00000000000E+00  0.37190021504E+04  0.37190021504E+04  0.00000000000E+00 0. -1.
         -2   -1    0    0    0  501 -0.00000000000E+00 -0.00000000000E+00 -0.14515819603E+04  0.14515819603E+04  0.00000000000E+00 0.  1.
         23    2    1    2    0    0  0.25167610323E+02  0.89719469467E+03  0.35177068432E+04  0.36314907270E+04  0.88722805868E+02 0.  0.
         13    1    3    3    0    0  0.45711869651E+02  0.33163610084E+03  0.12174619123E+04  0.12626502233E+04  0.00000000000E+00 0. -1.
        -13    1    3    3    0    0 -0.20544259328E+02  0.56555859382E+03  0.23002449309E+04  0.23688405037E+04  0.00000000000E+00 0.  1.
         22    1    1    2    0    0 -0.25167610323E+02 -0.89719469467E+03 -0.12502866531E+04  0.15390933837E+04  0.00000000000E+00 0.  1.
<mgrwt>
<rscale>  0 0.46469071E+04</rscale>
<asrwt>0</asrwt>
<pdfrwt beam="1">  1        2 0.57215417E+00 0.46469071E+04</pdfrwt>
<pdfrwt beam="2">  1       -2 0.22332030E+00 0.46469071E+04</pdfrwt>
<totfact> 0.39731321E-02</totfact>
</mgrwt>
</event>
<event>
 6    1  0.9906445E-006  0.2752565E+04  0.7818608E-02  0.8318148E-01
         -1   -1    0    0    0  501 -0.00000000000E+00  0.00000000000E+00  0.20625375035E+04  0.20625375035E+04  0.00000000000E+00 0.  1.
          1   -1    0    0  501    0  0.00000000000E+00 -0.00000000000E+00 -0.91836055345E+03  0.91836055345E+03  0.00000000000E+00 0. -1.
         23    2    1    2    0    0  0.16755432308E+03  0.30885624618E+03  0.20120685782E+04  0.20445741226E+04  0.91633767843E+02 0.  0.
         13    1    3    3    0    0  0.42260537656E+02  0.19333441868E+02  0.31867770851E+03  0.32204846983E+03  0.00000000000E+00 0.  1.
        -13    1    3    3    0    0  0.12529378542E+03  0.28952280432E+03  0.16933908697E+04  0.17225256528E+04  0.00000000000E+00 0. -1.
         22    1    1    2    0    0 -0.16755432308E+03 -0.30885624618E+03 -0.86789162811E+03  0.93632393440E+03  0.00000000000E+00 0. -1.
<mgrwt>
<rscale>  0 0.27525647E+04</rscale>
<asrwt>0</asrwt>
<pdfrwt beam="1">  1        1 0.14128624E+00 0.27525647E+04</pdfrwt>
<pdfrwt beam="2">  1       -1 0.31731346E+00 0.27525647E+04</pdfrwt>
<totfact> 0.38936304E-01</totfact>
</mgrwt>
</event>
<event>
 6    1  0.9906445E-006  0.1886339E+04  0.7818608E-02  0.8661686E-01
         -2   -1    0    0    0  501 -0.00000000000E+00  0.00000000000E+00  0.86851252380E+03  0.86851252380E+03  0.00000000000E+00 0.  1.
          2   -1    0    0  501    0  0.00000000000E+00 -0.00000000000E+00 -0.10242438371E+04  0.10242438371E+04  0.00000000000E+00 0. -1.
         23    2    1    2    0    0  0.97718458646E+02 -0.10647658549E+03 -0.10110346055E+04  0.10253291985E+04  0.90679828731E+02 0.  0.
         11    1    3    3    0    0  0.91800745696E+02 -0.87035444365E+02 -0.57185516566E+03  0.58567984085E+03  0.00000000000E+00 0.  1.
        -11    1    3    3    0    0  0.59177129496E+01 -0.19441141127E+02 -0.43917943983E+03  0.43964935763E+03  0.00000000000E+00 0. -1.
         22    1    1    2    0    0 -0.97718458646E+02  0.10647658549E+03  0.85530329221E+03  0.86742716241E+03  0.00000000000E+00 0.  1.
<mgrwt>
<rscale>  0 0.18863389E+04</rscale>
<asrwt>0</asrwt>
<pdfrwt beam="1">  1        2 0.15757597E+00 0.18863389E+04</pdfrwt>
<pdfrwt beam="2">  1       -2 0.13361731E+00 0.18863389E+04</pdfrwt>
<totfact> 0.92295314E+00</totfact>
</mgrwt>
</event>
<event>
 6    1  0.9906445E-006  0.8003381E+03  0.7818608E-02  0.9559528E-01
          1   -1    0    0  501    0  0.00000000000E+00  0.00000000000E+00  0.32174554893E+04  0.32174554893E+04  0.00000000000E+00 0. -1.
         -1   -1    0    0    0  501 -0.00000000000E+00 -0.00000000000E+00 -0.49770774805E+02  0.49770774805E+02  0.00000000000E+00 0.  1.
         23    2    1    2    0    0 -0.59675037886E+02  0.28595602510E+03  0.26900958998E+04  0.27073842914E+04  0.89340880782E+02 0.  0.
         11    1    3    3    0    0  0.50137228345E+01  0.13966192916E+03  0.15188883531E+04  0.15253040422E+04  0.00000000000E+00 0.  1.
        -11    1    3    3    0    0 -0.64688760720E+02  0.14629409594E+03  0.11712075467E+04  0.11820802493E+04  0.00000000000E+00 0. -1.
         22    1    1    2    0    0  0.59675037886E+02 -0.28595602510E+03  0.47758881471E+03  0.55984197268E+03  0.00000000000E+00 0.  1.
<mgrwt>
<rscale>  0 0.80033806E+03</rscale>
<asrwt>0</asrwt>
<pdfrwt beam="1">  1        1 0.49499299E+00 0.80033806E+03</pdfrwt>
<pdfrwt beam="2">  1       -1 0.76570448E-02 0.80033806E+03</pdfrwt>
<totfact> 0.41903632E+01</totfact>
</mgrwt>
</event>
<event>
 6    1  0.9906445E-006  0.5512735E+03  0.7818608E-02  0.1001200E+00
         -1   -1    0    0    0  501 -0.00000000000E+00  0.00000000000E+00  0.10183553845E+04  0.10183553845E+04  0.00000000000E+00 0.  1.
          1   -1    0    0  501    0  0.00000000000E+00 -0.00000000000E+00 -0.74606201290E+02  0.74606201290E+02  0.00000000000E+00 0. -1.
         23    2    1    2    0    0 -0.10713633549E+03 -0.55678011939E+02  0.95934975119E+03  0.97121753820E+03  0.91287052723E+02 0.  0.
         13    1    3    3    0    0 -0.75636919888E+01 -0.46857026302E+02  0.21440023148E+03  0.21959109638E+03  0.00000000000E+00 0. -1.
        -13    1    3    3    0    0 -0.99572643502E+02 -0.88209856372E+01  0.74494951971E+03  0.75162644182E+03  0.00000000000E+00 0.  1.
         22    1    1    2    0    0  0.10713633549E+03  0.55678011939E+02 -0.15600568007E+02  0.12174404757E+03  0.00000000000E+00 0. -1.
<mgrwt>
<rscale>  0 0.55127353E+03</rscale>
<asrwt>0</asrwt>
<pdfrwt beam="1">  1        1 0.11477878E-01 0.55127353E+03</pdfrwt>
<pdfrwt beam="2">  1       -1 0.15667005E+00 0.55127353E+03</pdfrwt>
<totfact> 0.17650120E+02</totfact>
</mgrwt>
</event>
<event>
 6    1  0.9906445E-006  0.1389027E+04  0.7818608E-02  0.8961800E-01
          4   -1    0    0  501    0  0.00000000000E+00  0.00000000000E+00  0.85586520929E+03  0.85586520929E+03  0.00000000000E+00 0. -1.
         -4   -1    0    0    0  501 -0.00000000000E+00 -0.00000000000E+00 -0.56358026535E+03  0.56358026535E+03  0.00000000000E+00 0.  1.
         23    2    1    2    0    0  0.12646892709E+03  0.56248256190E+03  0.53707353113E+03  0.79310493278E+03  0.90478917985E+02 0.  0.
         11    1    3    3    0    0  0.91621257381E+02  0.43488498193E+03  0.46177963930E+03  0.64090548257E+03  0.00000000000E+00 0. -1.
        -11    1    3    3    0    0  0.34847669713E+02  0.12759757996E+03  0.75293891825E+02  0.15219945021E+03  0.00000000000E+00 0.  1.
         22    1    1    2    0    0 -0.12646892709E+03 -0.56248256190E+03 -0.24478858719E+03  0.62634054186E+03  0.00000000000E+00 0.  1.
<mgrwt>
<rscale>  0 0.13890266E+04</rscale>
<asrwt>0</asrwt>
<pdfrwt beam="1">  1        4 0.13167157E+00 0.13890266E+04</pdfrwt>
<pdfrwt beam="2">  1       -4 0.86704657E-01 0.13890266E+04</pdfrwt>
<totfact> 0.94025767E-01</totfact>
</mgrwt>
</event>
<event>
 6    1  0.9906445E-006  0.1808234E+04  0.7818608E-02  0.8701933E-01
         -2   -1    0    0    0  501 -0.00000000000E+00  0.00000000000E+00  0.65791799563E+03  0.65791799563E+03  0.00000000000E+00 0.  1.
          2   -1    0    0  501    0  0.00000000000E+00 -0.00000000000E+00 -0.12424458322E+04  0.12424458322E+04  0.00000000000E+00 0. -1.
         23    2    1    2    0    0  0.80324207060E+03  0.38551423140E+03 -0.14656731374E+03  0.90757559958E+03  0.91610288158E+02 0.  0.
         11    1    3    3    0    0  0.45455653060E+03  0.20856819974E+03 -0.36938916320E+02  0.50148461291E+03  0.00000000000E+00 0. -1.
        -11    1    3    3    0    0  0.34868554000E+03  0.17694603166E+03 -0.10962839742E+03  0.40609098666E+03  0.00000000000E+00 0.  1.
         22    1    1    2    0    0 -0.80324207060E+03 -0.38551423140E+03 -0.43796052282E+03  0.99278822824E+03  0.00000000000E+00 0.  1.
<mgrwt>
<rscale>  0 0.18082339E+04</rscale>
<asrwt>0</asrwt>
<pdfrwt beam="1">  1        2 0.19114551E+00 0.18082339E+04</pdfrwt>
<pdfrwt beam="2">  1       -2 0.10121815E+00 0.18082339E+04</pdfrwt>
<totfact> 0.13533179E+01</totfact>
</mgrwt>
</event>
<event>
 6    1  0.9906445E-006  0.1540872E+04  0.7818608E-02  0.8857720E-01
         -1   -1    0    0    0  501 -0.00000000000E+00  0.00000000000E+00  0.57602041009E+03  0.57602041009E+03  0.00000000000E+00 0.  1.
          1   -1    0    0  501    0  0.00000000000E+00 -0.00000000000E+00 -0.10304693634E+04  0.10304693634E+04  0.00000000000E+00 0. -1.
         23    2    1    2    0    0 -0.70935940403E+03  0.29197000497E+03 -0.26782977050E+03  0.81701908548E+03  0.85733028530E+02 0.  0.
         13    1    3    3    0    0 -0.60967253582E+03  0.23346684464E+03 -0.19904499091E+03  0.68251467156E+03  0.00000000000E+00 0. -1.
        -13    1    3    3    0    0 -0.99686868207E+02  0.58503160327E+02 -0.68784779586E+02  0.13450441392E+03  0.00000000000E+00 0.  1.
         22    1    1    2    0    0  0.70935940403E+03 -0.29197000497E+03 -0.18661918285E+03  0.78947068805E+03  0.00000000000E+00 0. -1.
<mgrwt>
<rscale>  0 0.15408717E+04</rscale>
<asrwt>0</asrwt>
<pdfrwt beam="1">  1        1 0.15853375E+00 0.15408717E+04</pdfrwt>
<pdfrwt beam="2">  1       -1 0.88618525E-01 0.15408717E+04</pdfrwt>
<totfact> 0.17268861E+01</totfact>
</mgrwt>
</event>
<event>
 6    1  0.9906445E-006  0.1126275E+04  0.7818608E-02  0.9179954E-01
          1   -1    0    0  501    0  0.00000000000E+00  0.00000000000E+00  0.21171317984E+04  0.21171317984E+04  0.00000000000E+00 0. -1.
         -1   -1    0    0    0  501 -0.00000000000E+00 -0.00000000000E+00 -0.14978942372E+03  0.14978942372E+03  0.00000000000E+00 0.  1.
         23    2    1    2    0    0  0.37626262216E+03  0.23460163134E+03  0.16769658102E+04  0.17368928875E+04  0.89280949893E+02 0.  0.
         13    1    3    3    0    0  0.16796929408E+03  0.69674999495E+02  0.56098195044E+03  0.58971945706E+03  0.00000000000E+00 0. -1.
        -13    1    3    3    0    0  0.20829332808E+03  0.16492663185E+03  0.11159838597E+04  0.11471734305E+04  0.00000000000E+00 0.  1.
         22    1    1    2    0    0 -0.37626262216E+03 -0.23460163134E+03  0.29037656454E+03  0.53002833462E+03  0.00000000000E+00 0.  1.
<mgrwt>
<rscale>  0 0.11262752E+04</rscale>
<asrwt>0</asrwt>
<pdfrwt beam="1">  1        1 0.32571256E+00 0.11262752E+04</pdfrwt>
<pdfrwt beam="2">  1       -1 0.23044528E-01 0.11262752E+04</pdfrwt>
<totfact> 0.39881974E+01</totfact>
</mgrwt>
</event>
<event>
 6    1  0.9906445E-006  0.2234147E+04  0.7818608E-02  0.8504348E-01
         -1   -1    0    0    0  501 -0.00000000000E+00  0.00000000000E+00  0.90423901456E+03  0.90423901456E+03  0.00000000000E+00 0.  1.
          1   -1    0    0  501    0  0.00000000000E+00 -0.00000000000E+00 -0.13800042783E+04  0.13800042783E+04  0.00000000000E+00 0. -1.
         23    2    1    2    0    0 -0.28793099420E+02 -0.11125879902E+04 -0.17084047604E+03  0.11302674678E+04  0.98168233578E+02 0.  0.
         13    1    3    3    0    0  0.20411123319E+02 -0.76495872794E+02 -0.23562397764E+02  0.82603989602E+02  0.00000000000E+00 0.  1.
        -13    1    3    3    0    0 -0.49204222740E+02 -0.10360921174E+04 -0.14727807828E+03  0.10476634782E+04  0.00000000000E+00 0. -1.
         22    1    1    2    0    0  0.28793099420E+02  0.11125879902E+04 -0.30492478769E+03  0.11539758250E+04  0.00000000000E+00 0.  1.
<mgrwt>
<rscale>  0 0.22341475E+04</rscale>
<asrwt>0</asrwt>
<pdfrwt beam="1">  1        1 0.21230835E+00 0.22341475E+04</pdfrwt>
<pdfrwt beam="2">  1       -1 0.13911370E+00 0.22341475E+04</pdfrwt>
<totfact> 0.30746862E+00</totfact>
</mgrwt>
</event>
<event>
 6    1  0.9906445E-006  0.1711306E+04  0.7818608E-02  0.8754942E-01
          1   -1    0    0  501    0  0.00000000000E+00  0.00000000000E+00  0.96860543367E+03  0.96860543367E+03  0.00000000000E+00 0. -1.
         -1   -1    0    0    0  501 -0.00000000000E+00 -0.00000000000E+00 -0.75587248988E+03  0.75587248988E+03  0.00000000000E+00 0.  1.
         23    2    1    2    0    0  0.76783720184E+03  0.34931972592E+03 -0.22696478622E+02  0.84867814484E+03  0.90228731256E+02 0.  0.
         11    1    3    3    0    0  0.30715629810E+03  0.15491203112E+03  0.32881186780E+02  0.34557763425E+03  0.00000000000E+00 0.  1.
        -11    1    3    3    0    0  0.46068090375E+03  0.19440769480E+03 -0.55577665402E+02  0.50310051060E+03  0.00000000000E+00 0. -1.
         22    1    1    2    0    0 -0.76783720184E+03 -0.34931972592E+03  0.23542942241E+03  0.87579977871E+03  0.00000000000E+00 0. -1.
<mgrwt>
<rscale>  0 0.17113062E+04</rscale>
<asrwt>0</asrwt>
<pdfrwt beam="1">  1        1 0.14901622E+00 0.17113062E+04</pdfrwt>
<pdfrwt beam="2">  1       -1 0.11628807E+00 0.17113062E+04</pdfrwt>
<totfact> 0.10178551E+01</totfact>
</mgrwt>
</event>
<event>
 6    1  0.9906445E-006  0.1201396E+04  0.7818608E-02  0.9111636E-01
          2   -1    0    0  501    0  0.00000000000E+00  0.00000000000E+00  0.17762990644E+04  0.17762990644E+04  0.00000000000E+00 0. -1.
         -2   -1    0    0    0  501 -0.00000000000E+00 -0.00000000000E+00 -0.20314031962E+03  0.20314031962E+03  0.00000000000E+00 0.  1.
         23    2    1    2    0    0 -0.21777539058E+03  0.42684391350E+03  0.13784219033E+04  0.14621925526E+04  0.91314127802E+02 0.  0.
         11    1    3    3    0    0 -0.12874048976E+03  0.15389924973E+03  0.55528364757E+03  0.59042274857E+03  0.00000000000E+00 0.  1.
        -11    1    3    3    0    0 -0.89034900820E+02  0.27294466377E+03  0.82313825576E+03  0.87176980399E+03  0.00000000000E+00 0. -1.
         22    1    1    2    0    0  0.21777539058E+03 -0.42684391350E+03  0.19473684143E+03  0.51724683145E+03  0.00000000000E+00 0.  1.
<mgrwt>
<rscale>  0 0.12013958E+04</rscale>
<asrwt>0</asrwt>
<pdfrwt beam="1">  1        2 0.27327677E+00 0.12013958E+04</pdfrwt>
<pdfrwt beam="2">  1       -2 0.31252358E-01 0.12013958E+04</pdfrwt>
<totfact> 0.83359413E+01</totfact>
</mgrwt>
</event>
<event>
 6    1  0.9906445E-006  0.5315474E+04  0.7818608E-02  0.7781603E-01
          2   -1    0    0  501    0  0.00000000000E+00  0.00000000000E+00  0.19825524621E+04  0.19825524621E+04  0.00000000000E+00 0. -1.
         -2   -1    0    0    0  501 -0.00000000000E+00 -0.00000000000E+00 -0.35628651037E+04  0.35628651037E+04  0.00000000000E+00 0.  1.
         23    2    1    2    0    0 -0.15789410189E+04 -0.14886783350E+04 -0.23897891155E+04  0.32292849944E+04  0.89283997690E+02 0.  0.
         11    1    3    3    0    0 -0.24536795998E+03 -0.27663186848E+03 -0.41619066406E+03  0.55672730784E+03  0.00000000000E+00 0.  1.
        -11    1    3    3    0    0 -0.13335730589E+04 -0.12120464666E+04 -0.19735984515E+04  0.26725576866E+04  0.00000000000E+00 0. -1.
         22    1    1    2    0    0  0.15789410189E+04  0.14886783350E+04  0.80947647399E+03  0.23161325714E+04  0.00000000000E+00 0. -1.
<mgrwt>
<rscale>  0 0.53154744E+04</rscale>
<asrwt>0</asrwt>
<pdfrwt beam="1">  1        2 0.30500807E+00 0.53154744E+04</pdfrwt>
<pdfrwt beam="2">  1       -2 0.54813309E+00 0.53154744E+04</pdfrwt>
<totfact> 0.42888722E-03</totfact>
</mgrwt>
</event>
<event>
 6    1  0.9906445E-006  0.1430954E+04  0.7818608E-02  0.8931712E-01
          2   -1    0    0  501    0  0.00000000000E+00  0.00000000000E+00  0.18511265838E+04  0.18511265838E+04  0.00000000000E+00 0. -1.
         -2   -1    0    0    0  501 -0.00000000000E+00 -0.00000000000E+00 -0.27653817881E+03  0.27653817881E+03  0.00000000000E+00 0.  1.
         23    2    1    2    0    0 -0.19831418633E+02  0.60918619928E+03  0.24166499778E+03  0.66199565942E+03  0.91297159723E+02 0.  0.
         11    1    3    3    0    0  0.31047321406E+02  0.38155641450E+03  0.14110116919E+03  0.40799359500E+03  0.00000000000E+00 0. -1.
        -11    1    3    3    0    0 -0.50878740040E+02  0.22762978478E+03  0.10056382860E+03  0.25400206442E+03  0.00000000000E+00 0.  1.
         22    1    1    2    0    0  0.19831418633E+02 -0.60918619928E+03  0.13329234072E+04  0.14656691032E+04  0.00000000000E+00 0.  1.
<mgrwt>
<rscale>  0 0.14309538E+04</rscale>
<asrwt>0</asrwt>
<pdfrwt beam="1">  1        2 0.28478870E+00 0.14309538E+04</pdfrwt>
<pdfrwt beam="2">  1       -2 0.42544336E-01 0.14309538E+04</pdfrwt>
<totfact> 0.41114962E+01</totfact>
</mgrwt>
</event>
<event>
 6    1  0.9906445E-006  0.2190085E+04  0.7818608E-02  0.8522566E-01
         -2   -1    0    0    0  501 -0.00000000000E+00  0.00000000000E+00  0.70828989131E+03  0.70828989131E+03  0.00000000000E+00 0.  1.
          2   -1    0    0  501    0  0.00000000000E+00 -0.00000000000E+00 -0.16929758153E+04  0.16929758153E+04  0.00000000000E+00 0. -1.
         23    2    1    2    0    0 -0.10305564034E+04  0.20596043872E+03 -0.16404904129E+03  0.10678823798E+04  0.94839264500E+02 0.  0.
         11    1    3    3    0    0 -0.92248166577E+03  0.19724755387E+03 -0.12034179550E+03  0.95097905810E+03  0.00000000000E+00 0.  1.
        -11    1    3    3    0    0 -0.10807473767E+03  0.87128848491E+01 -0.43707245789E+02  0.11690332168E+03  0.00000000000E+00 0. -1.
         22    1    1    2    0    0  0.10305564034E+04 -0.20596043872E+03 -0.82063688265E+03  0.13333833268E+04  0.00000000000E+00 0.  1.
<mgrwt>
<rscale>  0 0.21900846E+04</rscale>
<asrwt>0</asrwt>
<pdfrwt beam="1">  1        2 0.26045781E+00 0.21900846E+04</pdfrwt>
<pdfrwt beam="2">  1       -2 0.10896768E+00 0.21900846E+04</pdfrwt>
<totfact> 0.60854295E+00</totfact>
</mgrwt>
</event>
<event>
 6    1  0.9906445E-006  0.2838384E+04  0.7818608E-02  0.8291450E-01
          2   -1    0    0  501    0  0.00000000000E+00  0.00000000000E+00  0.13643497269E+04  0.13643497269E+04  0.00000000000E+00 0. -1.
         -2   -1    0    0    0  501 -0.00000000000E+00 -0.00000000000E+00 -0.14762384785E+04  0.14762384785E+04  0.00000000000E+00 0.  1.
         23    2    1    2    0    0 -0.71962826935E+03 -0.70267071526E+03  0.94354914048E+03  0.13826581233E+04  0.99234697503E+02 0.  0.
         11    1    3    3    0    0 -0.43713772528E+03 -0.35802247296E+03  0.52513827345E+03  0.77138815667E+03  0.00000000000E+00 0. -1.
        -11    1    3    3    0    0 -0.28249054407E+03 -0.34464824230E+03  0.41841086703E+03  0.61126996660E+03  0.00000000000E+00 0.  1.
         22    1    1    2    0    0  0.71962826935E+03  0.70267071526E+03 -0.10554378921E+04  0.14579300821E+04  0.00000000000E+00 0.  1.
<mgrwt>
<rscale>  0 0.28383837E+04</rscale>
<asrwt>0</asrwt>
<pdfrwt beam="1">  1        2 0.20989996E+00 0.28383837E+04</pdfrwt>
<pdfrwt beam="2">  1       -2 0.22711361E+00 0.28383837E+04</pdfrwt>
<totfact> 0.11729555E+00</totfact>
</mgrwt>
</event>
<event>
 6    1  0.9906445E-006  0.1545708E+04  0.7818608E-02  0.8854614E-01
         -2   -1    0    0    0  501 -0.00000000000E+00  0.00000000000E+00  0.38673781688E+03  0.38673781688E+03  0.00000000000E+00 0.  1.
          2   -1    0    0  501    0  0.00000000000E+00 -0.00000000000E+00 -0.15444647592E+04  0.15444647592E+04  0.00000000000E+00 0. -1.
         23    2    1    2    0    0 -0.39023517542E+03  0.13745116295E+03  0.23062956576E+03  0.48251002489E+03  0.91921777526E+02 0.  0.
         13    1    3    3    0    0 -0.29215402500E+03  0.58996583341E+02  0.16851312609E+03  0.34239048590E+03  0.00000000000E+00 0.  1.
        -13    1    3    3    0    0 -0.98081150425E+02  0.78454579610E+02  0.62116439671E+02  0.14011953899E+03  0.00000000000E+00 0. -1.
         22    1    1    2    0    0  0.39023517542E+03 -0.13745116295E+03 -0.13883565080E+04  0.14486925511E+04  0.00000000000E+00 0. -1.
<mgrwt>
<rscale>  0 0.15457075E+04</rscale>
<asrwt>0</asrwt>
<pdfrwt beam="1">  1        2 0.23760996E+00 0.15457075E+04</pdfrwt>
<pdfrwt beam="2">  1       -2 0.59498126E-01 0.15457075E+04</pdfrwt>
<totfact> 0.30411609E+01</totfact>
</mgrwt>
</event>
<event>
 6    1  0.9906445E-006  0.2956195E+04  0.7818608E-02  0.8256351E-01
         -1   -1    0    0    0  501 -0.00000000000E+00  0.00000000000E+00  0.11886363636E+04  0.11886363636E+04  0.00000000000E+00 0.  1.
          1   -1    0    0  501    0  0.00000000000E+00 -0.00000000000E+00 -0.18380497359E+04  0.18380497359E+04  0.00000000000E+00 0. -1.
         23    2    1    2    0    0 -0.31796124967E+03 -0.43052517959E+03 -0.17340639498E+04  0.18171745610E+04  0.93243319361E+02 0.  0.
         11    1    3    3    0    0 -0.17170949774E+03 -0.28425914957E+03 -0.11768157196E+04  0.12227766164E+04  0.00000000000E+00 0. -1.
        -11    1    3    3    0    0 -0.14625175193E+03 -0.14626603002E+03 -0.55724823019E+03  0.59439794459E+03  0.00000000000E+00 0.  1.
         22    1    1    2    0    0  0.31796124967E+03  0.43052517959E+03  0.10846505775E+04  0.12095115386E+04  0.00000000000E+00 0.  1.
<mgrwt>
<rscale>  0 0.29561954E+04</rscale>
<asrwt>0</asrwt>
<pdfrwt beam="1">  1        1 0.28277688E+00 0.29561954E+04</pdfrwt>
<pdfrwt beam="2">  1       -1 0.18286713E+00 0.29561954E+04</pdfrwt>
<totfact> 0.65089025E-01</totfact>
</mgrwt>
</event>
<event>
 6    1  0.9906445E-006  0.1989695E+04  0.7818608E-02  0.8611454E-01
          1   -1    0    0  501    0  0.00000000000E+00  0.00000000000E+00  0.36274952037E+04  0.36274952037E+04  0.00000000000E+00 0. -1.
         -1   -1    0    0    0  501 -0.00000000000E+00 -0.00000000000E+00 -0.27283890534E+03  0.27283890534E+03  0.00000000000E+00 0.  1.
         23    2    1    2    0    0 -0.70783210472E+03  0.69573841994E+03  0.17426001856E+04  0.20072405698E+04  0.85329132836E+02 0.  0.
         13    1    3    3    0    0 -0.36002261507E+03  0.29597158830E+03  0.83639262107E+03  0.95748006821E+03  0.00000000000E+00 0. -1.
        -13    1    3    3    0    0 -0.34780948965E+03  0.39976683163E+03  0.90620756449E+03  0.10497605016E+04  0.00000000000E+00 0.  1.
         22    1    1    2    0    0  0.70783210472E+03 -0.69573841994E+03  0.16120561128E+04  0.18930935392E+04  0.00000000000E+00 0. -1.
<mgrwt>
<rscale>  0 0.19896953E+04</rscale>
<asrwt>0</asrwt>
<pdfrwt beam="1">  1        1 0.55807615E+00 0.19896953E+04</pdfrwt>
<pdfrwt beam="2">  1       -1 0.41975219E-01 0.19896953E+04</pdfrwt>
<totfact> 0.10284659E+00</totfact>
</mgrwt>
</event>
<event>
 6    1  0.9906445E-006  0.1779327E+04  0.7818608E-02  0.8717371E-01
          1   -1    0    0  501    0  0.00000000000E+00  0.00000000000E+00  0.11632469281E+04  0.11632469281E+04  0.00000000000E+00 0. -1.
         -1   -1    0    0    0  501 -0.00000000000E+00 -0.00000000000E+00 -0.68042430343E+03  0.68042430343E+03  0.00000000000E+00 0.  1.
         23    2    1    2    0    0  0.46422585840E+03  0.35875628164E+03 -0.44783206740E+03  0.74352129943E+03  0.89769955388E+02 0.  0.
         11    1    3    3    0    0  0.28732810343E+03  0.21994282845E+03 -0.32967284198E+03  0.48950635291E+03  0.00000000000E+00 0.  1.
        -11    1    3    3    0    0  0.17689775497E+03  0.13881345319E+03 -0.11815922542E+03  0.25401494652E+03  0.00000000000E+00 0. -1.
         22    1    1    2    0    0 -0.46422585840E+03 -0.35875628164E+03  0.93065469204E+03  0.11001499321E+04  0.00000000000E+00 0. -1.
<mgrwt>
<rscale>  0 0.17793274E+04</rscale>
<asrwt>0</asrwt>
<pdfrwt beam="1">  1        1 0.17896107E+00 0.17793274E+04</pdfrwt>
<pdfrwt beam="2">  1       -1 0.10468066E+00 0.17793274E+04</pdfrwt>
<totfact> 0.92184485E+00</totfact>
</mgrwt>
</event>
<event>
 6    1  0.9906445E-006  0.2610775E+04  0.7818608E-02  0.8364550E-01
         -1   -1    0    0    0  501 -0.00000000000E+00  0.00000000000E+00  0.87852983913E+03  0.87852983913E+03  0.00000000000E+00 0.  1.
          1   -1    0    0  501    0  0.00000000000E+00 -0.00000000000E+00 -0.19396454470E+04  0.19396454470E+04  0.00000000000E+00 0. -1.
         23    2    1    2    0    0 -0.31695757883E+03 -0.81514248463E+03  0.51301592307E+03  0.10173950514E+04  0.83594116531E+02 0.  0.
         11    1    3    3    0    0 -0.17816837961E+03 -0.51453316932E+03  0.35916554513E+03  0.65229459804E+03  0.00000000000E+00 0.  1.
        -11    1    3    3    0    0 -0.13878919923E+03 -0.30060931531E+03  0.15385037794E+03  0.36510045339E+03  0.00000000000E+00 0. -1.
         22    1    1    2    0    0  0.31695757883E+03  0.81514248463E+03 -0.15741315309E+04  0.18007802347E+04  0.00000000000E+00 0. -1.
<mgrwt>
<rscale>  0 0.26107749E+04</rscale>
<asrwt>0</asrwt>
<pdfrwt beam="1">  1        1 0.29840699E+00 0.26107749E+04</pdfrwt>
<pdfrwt beam="2">  1       -1 0.13515844E+00 0.26107749E+04</pdfrwt>
<totfact> 0.13232076E+00</totfact>
</mgrwt>
</event>
<event>
 6    1  0.9906445E-006  0.1398154E+04  0.7818608E-02  0.8955156E-01
          2   -1    0    0  501    0  0.00000000000E+00  0.00000000000E+00  0.12439087843E+04  0.12439087843E+04  0.00000000000E+00 0. -1.
         -2   -1    0    0    0  501 -0.00000000000E+00 -0.00000000000E+00 -0.39288116837E+03  0.39288116837E+03  0.00000000000E+00 0.  1.
         23    2    1    2    0    0  0.48286163848E+02  0.51804174715E+03  0.96864521625E+03  0.11033738812E+04  0.91986745449E+02 0.  0.
         11    1    3    3    0    0  0.25370792151E+02  0.33537438321E+03  0.71293018467E+03  0.78828237467E+03  0.00000000000E+00 0. -1.
        -11    1    3    3    0    0  0.22915371697E+02  0.18266736393E+03  0.25571503158E+03  0.31509150653E+03  0.00000000000E+00 0.  1.
         22    1    1    2    0    0 -0.48286163848E+02 -0.51804174715E+03 -0.11761760031E+03  0.53341607148E+03  0.00000000000E+00 0.  1.
<mgrwt>
<rscale>  0 0.13981535E+04</rscale>
<asrwt>0</asrwt>
<pdfrwt beam="1">  1        2 0.19137058E+00 0.13981535E+04</pdfrwt>
<pdfrwt beam="2">  1       -2 0.60443257E-01 0.13981535E+04</pdfrwt>
<totfact> 0.44267349E+01</totfact>
</mgrwt>
</event>
<event>
 6    1  0.9906445E-006  0.1449804E+04  0.7818608E-02  0.8918536E-01
         -1   -1    0    0    0  501 -0.00000000000E+00  0.00000000000E+00  0.66182991782E+03  0.66182991782E+03  0.00000000000E+00 0.  1.
          1   -1    0    0  501    0  0.00000000000E+00 -0.00000000000E+00 -0.79398500756E+03  0.79398500756E+03  0.00000000000E+00 0. -1.
         23    2    1    2    0    0  0.14877679632E+03 -0.69118724184E+03  0.81866436335E+02  0.71711366504E+03  0.87610255014E+02 0.  0.
         11    1    3    3    0    0  0.15221858013E+03 -0.55877290458E+03  0.53079688764E+02  0.58156264357E+03  0.00000000000E+00 0.  1.
        -11    1    3    3    0    0 -0.34417838070E+01 -0.13241433726E+03  0.28786747571E+02  0.13555102147E+03  0.00000000000E+00 0. -1.
         22    1    1    2    0    0 -0.14877679632E+03  0.69118724184E+03 -0.21402152608E+03  0.73870126034E+03  0.00000000000E+00 0.  1.
<mgrwt>
<rscale>  0 0.14498042E+04</rscale>
<asrwt>0</asrwt>
<pdfrwt beam="1">  1        1 0.12215154E+00 0.14498042E+04</pdfrwt>
<pdfrwt beam="2">  1       -1 0.10181999E+00 0.14498042E+04</pdfrwt>
<totfact> 0.19881899E+01</totfact>
</mgrwt>
</event>
<event>
 6    1  0.9906445E-006  0.5530467E+03  0.7818608E-02  0.1000791E+00
         -1   -1    0    0    0  501 -0.00000000000E+00  0.00000000000E+00  0.58230864172E+03  0.58230864172E+03  0.00000000000E+00 0.  1.
          1   -1    0    0  501    0  0.00000000000E+00 -0.00000000000E+00 -0.13131381065E+03  0.13131381065E+03  0.00000000000E+00 0. -1.
         23    2    1    2    0    0 -0.25974360800E+03  0.69704682761E+02  0.22729261529E+03  0.36381083729E+03  0.91492664564E+02 0.  0.
         11    1    3    3    0    0 -0.16075741271E+03  0.38529819377E+02  0.80054480618E+02  0.18367420230E+03  0.00000000000E+00 0. -1.
        -11    1    3    3    0    0 -0.98986195286E+02  0.31174863384E+02  0.14723813467E+03  0.18013663499E+03  0.00000000000E+00 0.  1.
         22    1    1    2    0    0  0.25974360800E+03 -0.69704682761E+02  0.22370221579E+03  0.34981161508E+03  0.00000000000E+00 0. -1.
<mgrwt>
<rscale>  0 0.55304671E+03</rscale>
<asrwt>0</asrwt>
<pdfrwt beam="1">  1        1 0.20202125E-01 0.55304671E+03</pdfrwt>
<pdfrwt beam="2">  1       -1 0.89585944E-01 0.55304671E+03</pdfrwt>
<totfact> 0.32100238E+02</totfact>
</mgrwt>
</event>
<event>
 6    1  0.9906445E-006  0.2078698E+04  0.7818608E-02  0.8570686E-01
         -2   -1    0    0    0  501 -0.00000000000E+00  0.00000000000E+00  0.10945696080E+04  0.10945696080E+04  0.00000000000E+00 0.  1.
          2   -1    0    0  501    0  0.00000000000E+00 -0.00000000000E+00 -0.98691378387E+03  0.98691378387E+03  0.00000000000E+00 0. -1.
         23    2    1    2    0    0  0.45723646624E+03 -0.32746526819E+03 -0.81890660176E+03  0.99759381401E+03  0.91031353978E+02 0.  0.
         13    1    3    3    0    0  0.27975117963E+03 -0.22005372442E+03 -0.44332891119E+03  0.56852870432E+03  0.00000000000E+00 0.  1.
        -13    1    3    3    0    0  0.17748528661E+03 -0.10741154377E+03 -0.37557769058E+03  0.42906510969E+03  0.00000000000E+00 0. -1.
         22    1    1    2    0    0 -0.45723646624E+03  0.32746526819E+03  0.92656242591E+03  0.10838895779E+04  0.00000000000E+00 0.  1.
<mgrwt>
<rscale>  0 0.20786975E+04</rscale>
<asrwt>0</asrwt>
<pdfrwt beam="1">  1        2 0.15183289E+00 0.20786975E+04</pdfrwt>
<pdfrwt beam="2">  1       -2 0.16839532E+00 0.20786975E+04</pdfrwt>
<totfact> 0.51873636E+00</totfact>
</mgrwt>
</event>
<event>
 6    1  0.9906445E-006  0.3146793E+04  0.7818608E-02  0.8203012E-01
         -2   -1    0    0    0  501 -0.00000000000E+00  0.00000000000E+00  0.53497779450E+03  0.53497779450E+03  0.00000000000E+00 0.  1.
          2   -1    0    0  501    0  0.00000000000E+00 -0.00000000000E+00 -0.46274368719E+04  0.46274368719E+04  0.00000000000E+00 0. -1.
         23    2    1    2    0    0 -0.67003745818E+01  0.77774880630E+03 -0.42892315967E+04  0.43601319699E+04  0.91131797518E+02 0.  0.
         13    1    3    3    0    0 -0.24001201615E+02  0.81135064598E+02 -0.38308696764E+03  0.39231948863E+03  0.00000000000E+00 0. -1.
        -13    1    3    3    0    0  0.17300827034E+02  0.69661374170E+03 -0.39061446290E+04  0.39678124813E+04  0.00000000000E+00 0.  1.
         22    1    1    2    0    0  0.67003745818E+01 -0.77774880630E+03  0.19677251928E+03  0.80228269647E+03  0.00000000000E+00 0.  1.
<mgrwt>
<rscale>  0 0.31467926E+04</rscale>
<asrwt>0</asrwt>
<pdfrwt beam="1">  1        2 0.71191337E+00 0.31467926E+04</pdfrwt>
<pdfrwt beam="2">  1       -2 0.82304275E-01 0.31467926E+04</pdfrwt>
<totfact> 0.10014475E-01</totfact>
</mgrwt>
</event>
<event>
 6    1  0.9906445E-006  0.1886054E+04  0.7818608E-02  0.8661829E-01
          4   -1    0    0  501    0  0.00000000000E+00  0.00000000000E+00  0.57362244466E+03  0.57362244466E+03  0.00000000000E+00 0. -1.
         -4   -1    0    0    0  501 -0.00000000000E+00 -0.00000000000E+00 -0.15503230309E+04  0.15503230309E+04  0.00000000000E+00 0.  1.
         23    2    1    2    0    0  0.83993252285E+03 -0.39998462322E+03 -0.33186362457E+03  0.99200508453E+03  0.92012394099E+02 0.  0.
         13    1    3    3    0    0  0.50032902427E+03 -0.27950468460E+03 -0.23005529652E+03  0.61755764160E+03  0.00000000000E+00 0. -1.
        -13    1    3    3    0    0  0.33960349858E+03 -0.12047993862E+03 -0.10180832805E+03  0.37444744293E+03  0.00000000000E+00 0.  1.
         22    1    1    2    0    0 -0.83993252285E+03  0.39998462322E+03 -0.64483696170E+03  0.11319403911E+04  0.00000000000E+00 0.  1.
<mgrwt>
<rscale>  0 0.18860542E+04</rscale>
<asrwt>0</asrwt>
<pdfrwt beam="1">  1        4 0.88249606E-01 0.18860542E+04</pdfrwt>
<pdfrwt beam="2">  1       -4 0.23851124E+00 0.18860542E+04</pdfrwt>
<totfact> 0.15485722E-01</totfact>
</mgrwt>
</event>
<event>
 6    1  0.9906445E-006  0.1441870E+04  0.7818608E-02  0.8924056E-01
          1   -1    0    0  501    0  0.00000000000E+00  0.00000000000E+00  0.94070454868E+03  0.94070454868E+03  0.00000000000E+00 0. -1.
         -1   -1    0    0    0  501 -0.00000000000E+00 -0.00000000000E+00 -0.55250884748E+03  0.55250884748E+03  0.00000000000E+00 0.  1.
         23    2    1    2    0    0 -0.27241083671E+03 -0.63064737363E+03  0.41061523659E+03  0.80588057328E+03  0.94418494147E+02 0.  0.
         11    1    3    3    0    0 -0.16365818500E+03 -0.29575166283E+03  0.24041375737E+03  0.41479129972E+03  0.00000000000E+00 0. -1.
        -11    1    3    3    0    0 -0.10875265171E+03 -0.33489571080E+03  0.17020147922E+03  0.39108927356E+03  0.00000000000E+00 0.  1.
         22    1    1    2    0    0  0.27241083671E+03  0.63064737363E+03 -0.22419535391E+02  0.68733282287E+03  0.00000000000E+00 0.  1.
<mgrwt>
<rscale>  0 0.14418704E+04</rscale>
<asrwt>0</asrwt>
<pdfrwt beam="1">  1        1 0.14472378E+00 0.14418704E+04</pdfrwt>
<pdfrwt beam="2">  1       -1 0.85001361E-01 0.14418704E+04</pdfrwt>
<totfact> 0.22441680E+01</totfact>
</mgrwt>
</event>
<event>
 6    1  0.9906445E-006  0.1706015E+04  0.7818608E-02  0.8757941E-01
          2   -1    0    0  501    0  0.00000000000E+00  0.00000000000E+00  0.78268684490E+03  0.78268684490E+03  0.00000000000E+00 0. -1.
         -2   -1    0    0    0  501 -0.00000000000E+00 -0.00000000000E+00 -0.92964630356E+03  0.92964630356E+03  0.00000000000E+00 0.  1.
         23    2    1    2    0    0  0.73694172346E+02 -0.69457461408E+03  0.41352311121E+03  0.81678558598E+03  0.90953858623E+02 0.  0.
         11    1    3    3    0    0  0.78466006249E+02 -0.38275876643E+03  0.25883915095E+03  0.46867781415E+03  0.00000000000E+00 0. -1.
        -11    1    3    3    0    0 -0.47718339028E+01 -0.31181584765E+03  0.15468396026E+03  0.34810777182E+03  0.00000000000E+00 0.  1.
         22    1    1    2    0    0 -0.73694172346E+02  0.69457461408E+03 -0.56048256986E+03  0.89554756248E+03  0.00000000000E+00 0.  1.
<mgrwt>
<rscale>  0 0.17060152E+04</rscale>
<asrwt>0</asrwt>
<pdfrwt beam="1">  1        2 0.12041336E+00 0.17060152E+04</pdfrwt>
<pdfrwt beam="2">  1       -2 0.14302251E+00 0.17060152E+04</pdfrwt>
<totfact> 0.11452785E+01</totfact>
</mgrwt>
</event>
<event>
 6    1  0.9906445E-006  0.1625677E+04  0.7818608E-02  0.8804927E-01
          1   -1    0    0  501    0  0.00000000000E+00  0.00000000000E+00  0.61170058033E+03  0.61170058033E+03  0.00000000000E+00 0. -1.
         -1   -1    0    0    0  501 -0.00000000000E+00 -0.00000000000E+00 -0.10801147325E+04  0.10801147325E+04  0.00000000000E+00 0.  1.
         23    2    1    2    0    0 -0.17582678129E+03  0.76963861840E+03 -0.45634111615E+02  0.79626987980E+03  0.93298388978E+02 0.  0.
         13    1    3    3    0    0 -0.60622389214E+02  0.35814250882E+03  0.20733431030E+02  0.36382826424E+03  0.00000000000E+00 0. -1.
        -13    1    3    3    0    0 -0.11520439207E+03  0.41149610958E+03 -0.66367542645E+02  0.43244161556E+03  0.00000000000E+00 0.  1.
         22    1    1    2    0    0  0.17582678129E+03 -0.76963861840E+03 -0.42278004058E+03  0.89554543305E+03  0.00000000000E+00 0.  1.
<mgrwt>
<rscale>  0 0.16256775E+04</rscale>
<asrwt>0</asrwt>
<pdfrwt beam="1">  1        1 0.94107783E-01 0.16256775E+04</pdfrwt>
<pdfrwt beam="2">  1       -1 0.16617149E+00 0.16256775E+04</pdfrwt>
<totfact> 0.83744771E+00</totfact>
</mgrwt>
</event>
<event>
 6    1  0.9906445E-006  0.8583669E+03  0.7818608E-02  0.9479175E-01
         -2   -1    0    0    0  501 -0.00000000000E+00  0.00000000000E+00  0.19141860849E+03  0.19141860849E+03  0.00000000000E+00 0.  1.
          2   -1    0    0  501    0  0.00000000000E+00 -0.00000000000E+00 -0.96228077994E+03  0.96228077994E+03  0.00000000000E+00 0. -1.
         23    2    1    2    0    0 -0.21294766262E+03 -0.34625736907E+03 -0.55347258875E+03  0.69272313814E+03  0.91063532575E+02 0.  0.
         11    1    3    3    0    0 -0.78191917623E+02 -0.54884614190E+02 -0.12434541238E+03  0.15680586225E+03  0.00000000000E+00 0. -1.
        -11    1    3    3    0    0 -0.13475574500E+03 -0.29137275488E+03 -0.42912717637E+03  0.53591727589E+03  0.00000000000E+00 0.  1.
         22    1    1    2    0    0  0.21294766262E+03  0.34625736907E+03 -0.21738958270E+03  0.46097625028E+03  0.00000000000E+00 0. -1.
<mgrwt>
<rscale>  0 0.85836693E+03</rscale>
<asrwt>0</asrwt>
<pdfrwt beam="1">  1        2 0.14804319E+00 0.85836693E+03</pdfrwt>
<pdfrwt beam="2">  1       -2 0.29449018E-01 0.85836693E+03</pdfrwt>
<totfact> 0.28360968E+02</totfact>
</mgrwt>
</event>
<event>
 6    1  0.9906445E-006  0.2185876E+04  0.7818608E-02  0.8524330E-01
          1   -1    0    0  501    0  0.00000000000E+00  0.00000000000E+00  0.70885246026E+03  0.70885246026E+03  0.00000000000E+00 0. -1.
         -1   -1    0    0    0  501 -0.00000000000E+00 -0.00000000000E+00 -0.16851366200E+04  0.16851366200E+04  0.00000000000E+00 0.  1.
         23    2    1    2    0    0 -0.57130736209E+03  0.40393263286E+03 -0.14057705638E+04  0.15730065926E+04  0.92764154174E+02 0.  0.
         13    1    3    3    0    0 -0.43332074963E+03  0.25593009947E+03 -0.10193308896E+04  0.11367948585E+04  0.00000000000E+00 0.  1.
        -13    1    3    3    0    0 -0.13798661246E+03  0.14800253339E+03 -0.38643967420E+03  0.43621173403E+03  0.00000000000E+00 0. -1.
         22    1    1    2    0    0  0.57130736209E+03 -0.40393263286E+03  0.42948640405E+03  0.82098248771E+03  0.00000000000E+00 0. -1.
<mgrwt>
<rscale>  0 0.21858758E+04</rscale>
<asrwt>0</asrwt>
<pdfrwt beam="1">  1        1 0.10905422E+00 0.21858758E+04</pdfrwt>
<pdfrwt beam="2">  1       -1 0.25925179E+00 0.21858758E+04</pdfrwt>
<totfact> 0.14803545E+00</totfact>
</mgrwt>
</event>
<event>
 6    1  0.9906445E-006  0.2562909E+04  0.7818608E-02  0.8380910E-01
         -1   -1    0    0    0  501 -0.00000000000E+00  0.00000000000E+00  0.51438492597E+03  0.51438492597E+03  0.00000000000E+00 0.  1.
          1   -1    0    0  501    0  0.00000000000E+00 -0.00000000000E+00 -0.31924072854E+04  0.31924072854E+04  0.00000000000E+00 0. -1.
         23    2    1    2    0    0 -0.98753106519E+03  0.57187097028E+03 -0.21787277010E+04  0.24611802464E+04  0.91103231908E+02 0.  0.
         11    1    3    3    0    0 -0.55961668960E+03  0.28577901108E+03 -0.11308343230E+04  0.12936872684E+04  0.00000000000E+00 0. -1.
        -11    1    3    3    0    0 -0.42791437559E+03  0.28609195921E+03 -0.10478933780E+04  0.11674929780E+04  0.00000000000E+00 0.  1.
         22    1    1    2    0    0  0.98753106519E+03 -0.57187097028E+03 -0.49929465848E+03  0.12456119650E+04  0.00000000000E+00 0.  1.
<mgrwt>
<rscale>  0 0.25629094E+04</rscale>
<asrwt>0</asrwt>
<pdfrwt beam="1">  1        1 0.49113960E+00 0.25629094E+04</pdfrwt>
<pdfrwt beam="2">  1       -1 0.79136139E-01 0.25629094E+04</pdfrwt>
<totfact> 0.60752979E-01</totfact>
</mgrwt>
</event>
<event>
 6    1  0.9906445E-006  0.2017182E+04  0.7818608E-02  0.8598629E-01
         -2   -1    0    0    0  501 -0.00000000000E+00  0.00000000000E+00  0.35118757497E+03  0.35118757497E+03  0.00000000000E+00 0.  1.
          2   -1    0    0  501    0  0.00000000000E+00 -0.00000000000E+00 -0.28966166109E+04  0.28966166109E+04  0.00000000000E+00 0. -1.
         23    2    1    2    0    0  0.62606591411E+03 -0.52100237428E+03 -0.22278013345E+04  0.23735677422E+04  0.85574750331E+02 0.  0.
         13    1    3    3    0    0  0.44769546577E+03 -0.32277510063E+03 -0.14671902112E+04  0.15675656642E+04  0.00000000000E+00 0. -1.
        -13    1    3    3    0    0  0.17837044834E+03 -0.19822727365E+03 -0.76061112326E+03  0.80600207797E+03  0.00000000000E+00 0.  1.
         22    1    1    2    0    0 -0.62606591411E+03  0.52100237428E+03 -0.31762770147E+03  0.87423644374E+03  0.00000000000E+00 0.  1.
<mgrwt>
<rscale>  0 0.20171820E+04</rscale>
<asrwt>0</asrwt>
<pdfrwt beam="1">  1        2 0.44563333E+00 0.20171820E+04</pdfrwt>
<pdfrwt beam="2">  1       -2 0.54028857E-01 0.20171820E+04</pdfrwt>
<totfact> 0.60534207E+00</totfact>
</mgrwt>
</event>
<event>
 6    1  0.9906445E-006  0.1810408E+04  0.7818608E-02  0.8700784E-01
         -2   -1    0    0    0  501 -0.00000000000E+00  0.00000000000E+00  0.55895698613E+03  0.55895698613E+03  0.00000000000E+00 0.  1.
          2   -1    0    0  501    0  0.00000000000E+00 -0.00000000000E+00 -0.14659342790E+04  0.14659342790E+04  0.00000000000E+00 0. -1.
         23    2    1    2    0    0  0.71228776230E+03  0.43993065288E+01 -0.10753657011E+04  0.12929569332E+04  0.89179760054E+02 0.  0.
         13    1    3    3    0    0  0.51260439856E+03  0.42892888886E+02 -0.76057263875E+03  0.91819050755E+03  0.00000000000E+00 0. -1.
        -13    1    3    3    0    0  0.19968336374E+03 -0.38493582357E+02 -0.31479306239E+03  0.37476642561E+03  0.00000000000E+00 0.  1.
         22    1    1    2    0    0 -0.71228776230E+03 -0.43993065288E+01  0.16838840830E+03  0.73193433194E+03  0.00000000000E+00 0. -1.
<mgrwt>
<rscale>  0 0.18104079E+04</rscale>
<asrwt>0</asrwt>
<pdfrwt beam="1">  1        2 0.22552835E+00 0.18104079E+04</pdfrwt>
<pdfrwt beam="2">  1       -2 0.85993382E-01 0.18104079E+04</pdfrwt>
<totfact> 0.14688722E+01</totfact>
</mgrwt>
</event>
<event>
 6    1  0.9906445E-006  0.4310436E+04  0.7818608E-02  0.7944691E-01
         -1   -1    0    0    0  501 -0.00000000000E+00  0.00000000000E+00  0.22091313785E+04  0.22091313785E+04  0.00000000000E+00 0. -1.
          1   -1    0    0  501    0  0.00000000000E+00 -0.00000000000E+00 -0.21026200845E+04  0.21026200845E+04  0.00000000000E+00 0.  1.
         23    2    1    2    0    0  0.17881292201E+04  0.34256816902E+03 -0.10986078579E+04  0.21283890953E+04  0.91333768244E+02 0.  0.
         11    1    3    3    0    0  0.85496899343E+03  0.20546043029E+03 -0.55365488476E+03  0.10390956162E+04  0.00000000000E+00 0. -1.
        -11    1    3    3    0    0  0.93316022667E+03  0.13710773873E+03 -0.54495297316E+03  0.10892934791E+04  0.00000000000E+00 0.  1.
         22    1    1    2    0    0 -0.17881292201E+04 -0.34256816902E+03  0.12051191520E+04  0.21833623677E+04  0.00000000000E+00 0. -1.
<mgrwt>
<rscale>  0 0.43104357E+04</rscale>
<asrwt>0</asrwt>
<pdfrwt beam="1">  1        1 0.32348001E+00 0.43104357E+04</pdfrwt>
<pdfrwt beam="2">  1       -1 0.33986637E+00 0.43104357E+04</pdfrwt>
<totfact> 0.35110276E-02</totfact>
</mgrwt>
</event>
<event>
 6    1  0.9906445E-006  0.3170097E+04  0.7818608E-02  0.8196759E-01
         -2   -1    0    0    0  501 -0.00000000000E+00  0.00000000000E+00  0.18688841595E+04  0.18688841595E+04  0.00000000000E+00 0.  1.
          2   -1    0    0  501    0  0.00000000000E+00 -0.00000000000E+00 -0.13443202081E+04  0.13443202081E+04  0.00000000000E+00 0. -1.
         23    2    1    2    0    0  0.65750966146E+03 -0.76582675493E+02  0.17208164559E+04  0.18460160428E+04  0.91553778635E+02 0.  0.
         13    1    3    3    0    0  0.19117099918E+03 -0.67263977787E+01  0.60905061312E+03  0.63838408869E+03  0.00000000000E+00 0. -1.
        -13    1    3    3    0    0  0.46633866229E+03 -0.69856277714E+02  0.11117658427E+04  0.12076319541E+04  0.00000000000E+00 0.  1.
         22    1    1    2    0    0 -0.65750966146E+03  0.76582675493E+02 -0.11962525044E+04  0.13671883248E+04  0.00000000000E+00 0. -1.
<mgrwt>
<rscale>  0 0.31700970E+04</rscale>
<asrwt>0</asrwt>
<pdfrwt beam="1">  1        2 0.20681849E+00 0.31700970E+04</pdfrwt>
<pdfrwt beam="2">  1       -2 0.28752064E+00 0.31700970E+04</pdfrwt>
<totfact> 0.49824146E-01</totfact>
</mgrwt>
</event>
<event>
 6    1  0.9906445E-006  0.8810654E+03  0.7818608E-02  0.9449565E-01
          2   -1    0    0  501    0  0.00000000000E+00  0.00000000000E+00  0.16874145540E+04  0.16874145540E+04  0.00000000000E+00 0. -1.
         -2   -1    0    0    0  501 -0.00000000000E+00 -0.00000000000E+00 -0.11500970753E+03  0.11500970753E+03  0.00000000000E+00 0.  1.
         23    2    1    2    0    0  0.43529244472E+03  0.17023922697E+02  0.76923622714E+03  0.88872345851E+03  0.91299979109E+02 0.  0.
         11    1    3    3    0    0  0.22517463856E+03 -0.30858068788E+02  0.43990121566E+03  0.49514535017E+03  0.00000000000E+00 0.  1.
        -11    1    3    3    0    0  0.21011780616E+03  0.47881991485E+02  0.32933501148E+03  0.39357810833E+03  0.00000000000E+00 0. -1.
         22    1    1    2    0    0 -0.43529244472E+03 -0.17023922697E+02  0.80316861935E+03  0.91370080304E+03  0.00000000000E+00 0.  1.
<mgrwt>
<rscale>  0 0.88106539E+03</rscale>
<asrwt>0</asrwt>
<pdfrwt beam="1">  1        2 0.25960222E+00 0.88106539E+03</pdfrwt>
<pdfrwt beam="2">  1       -2 0.17693802E-01 0.88106539E+03</pdfrwt>
<totfact> 0.26529834E+02</totfact>
</mgrwt>
</event>
<event>
 6    1  0.9906445E-006  0.7338680E+03  0.7818608E-02  0.9661004E-01
          1   -1    0    0  501    0  0.00000000000E+00  0.00000000000E+00  0.68061665292E+02  0.68061665292E+02  0.00000000000E+00 0. -1.
         -1   -1    0    0    0  501 -0.00000000000E+00 -0.00000000000E+00 -0.19782142970E+04  0.19782142970E+04  0.00000000000E+00 0.  1.
         23    2    1    2    0    0  0.68790025676E+02 -0.33253880557E+03 -0.62014388858E+03  0.71232068486E+03  0.86649816494E+02 0.  0.
         13    1    3    3    0    0  0.48069374587E+02 -0.20915861209E+03 -0.30223523817E+03  0.37068062935E+03  0.00000000000E+00 0. -1.
        -13    1    3    3    0    0  0.20720651090E+02 -0.12338019348E+03 -0.31790865041E+03  0.34164005551E+03  0.00000000000E+00 0.  1.
         22    1    1    2    0    0 -0.68790025676E+02  0.33253880557E+03 -0.12900087432E+04  0.13339552775E+04  0.00000000000E+00 0.  1.
<mgrwt>
<rscale>  0 0.73386800E+03</rscale>
<asrwt>0</asrwt>
<pdfrwt beam="1">  1        1 0.10471028E-01 0.73386800E+03</pdfrwt>
<pdfrwt beam="2">  1       -1 0.30434060E+00 0.73386800E+03</pdfrwt>
<totfact> 0.20360221E+01</totfact>
</mgrwt>
</event>
<event>
 6    1  0.9906445E-006  0.4135967E+04  0.7818608E-02  0.7977666E-01
          2   -1    0    0  501    0  0.00000000000E+00  0.00000000000E+00  0.21240669660E+04  0.21240669660E+04  0.00000000000E+00 0. -1.
         -2   -1    0    0    0  501 -0.00000000000E+00 -0.00000000000E+00 -0.20133807569E+04  0.20133807569E+04  0.00000000000E+00 0.  1.
         23    2    1    2    0    0  0.21707882390E+02  0.12223164939E+04  0.17226459693E+04  0.21143453746E+04  0.91751753234E+02 0.  0.
         11    1    3    3    0    0  0.51399170278E+02  0.66283240771E+03  0.89542204461E+03  0.11152440600E+04  0.00000000000E+00 0.  1.
        -11    1    3    3    0    0 -0.29691287888E+02  0.55948408616E+03  0.82722392471E+03  0.99910131461E+03  0.00000000000E+00 0. -1.
         22    1    1    2    0    0 -0.21707882390E+02 -0.12223164939E+04 -0.16119597602E+04  0.20231023483E+04  0.00000000000E+00 0.  1.
<mgrwt>
<rscale>  0 0.41359669E+04</rscale>
<asrwt>0</asrwt>
<pdfrwt beam="1">  1        2 0.32677953E+00 0.41359669E+04</pdfrwt>
<pdfrwt beam="2">  1       -2 0.30975088E+00 0.41359669E+04</pdfrwt>
<totfact> 0.12309056E-01</totfact>
</mgrwt>
</event>
<event>
 6    1  0.9906445E-006  0.2614000E+04  0.7818608E-02  0.8363461E-01
          2   -1    0    0  501    0  0.00000000000E+00  0.00000000000E+00  0.18559353255E+04  0.18559353255E+04  0.00000000000E+00 0. -1.
         -2   -1    0    0    0  501 -0.00000000000E+00 -0.00000000000E+00 -0.92042502828E+03  0.92042502828E+03  0.00000000000E+00 0.  1.
         23    2    1    2    0    0 -0.12290150699E+04 -0.20526189266E+03  0.88135425303E+03  0.15291461124E+04  0.94297545942E+02 0.  0.
         11    1    3    3    0    0 -0.58094258129E+03 -0.50366782060E+02  0.42327627661E+03  0.72055110980E+03  0.00000000000E+00 0. -1.
        -11    1    3    3    0    0 -0.64807248862E+03 -0.15489511060E+03  0.45807797642E+03  0.80859500263E+03  0.00000000000E+00 0.  1.
         22    1    1    2    0    0  0.12290150699E+04  0.20526189266E+03  0.54156044166E+02  0.12472142413E+04  0.00000000000E+00 0.  1.
<mgrwt>
<rscale>  0 0.26140002E+04</rscale>
<asrwt>0</asrwt>
<pdfrwt beam="1">  1        2 0.28552851E+00 0.26140002E+04</pdfrwt>
<pdfrwt beam="2">  1       -2 0.14160385E+00 0.26140002E+04</pdfrwt>
<totfact> 0.24749980E+00</totfact>
</mgrwt>
</event>
<event>
 6    1  0.9906445E-006  0.5829162E+03  0.7818608E-02  0.9941497E-01
         -1   -1    0    0    0  501 -0.00000000000E+00  0.00000000000E+00  0.63644651110E+03  0.63644651110E+03  0.00000000000E+00 0.  1.
          1   -1    0    0  501    0  0.00000000000E+00 -0.00000000000E+00 -0.13347207080E+03  0.13347207080E+03  0.00000000000E+00 0. -1.
         23    2    1    2    0    0 -0.13923417845E+03 -0.21420590485E+03  0.92460779550E+02  0.28639837365E+03  0.90579835228E+02 0.  0.
         13    1    3    3    0    0 -0.22564730501E+02 -0.27126935249E+01 -0.89607689306E+01  0.24429923221E+02  0.00000000000E+00 0. -1.
        -13    1    3    3    0    0 -0.11666944795E+03 -0.21149321132E+03  0.10142154848E+03  0.26196845042E+03  0.00000000000E+00 0.  1.
         22    1    1    2    0    0  0.13923417845E+03  0.21420590485E+03  0.41051366075E+03  0.48352020825E+03  0.00000000000E+00 0.  1.
<mgrwt>
<rscale>  0 0.58291623E+03</rscale>
<asrwt>0</asrwt>
<pdfrwt beam="1">  1        1 0.20534165E-01 0.58291623E+03</pdfrwt>
<pdfrwt beam="2">  1       -1 0.97914846E-01 0.58291623E+03</pdfrwt>
<totfact> 0.25771070E+02</totfact>
</mgrwt>
</event>
<event>
 6    1  0.9906445E-006  0.2267329E+04  0.7818608E-02  0.8490915E-01
         -1   -1    0    0    0  501 -0.00000000000E+00  0.00000000000E+00  0.88904323967E+03  0.88904323967E+03  0.00000000000E+00 0.  1.
          1   -1    0    0  501    0  0.00000000000E+00 -0.00000000000E+00 -0.14455931837E+04  0.14455931837E+04  0.00000000000E+00 0. -1.
         23    2    1    2    0    0  0.10927307549E+03  0.81951665496E+03 -0.10749191689E+04  0.13588009833E+04  0.85678117130E+02 0.  0.
         13    1    3    3    0    0  0.28195942280E+01  0.33415691094E+03 -0.44411303445E+03  0.55579238805E+03  0.00000000000E+00 0. -1.
        -13    1    3    3    0    0  0.10645348126E+03  0.48535974401E+03 -0.63080613447E+03  0.80300859527E+03  0.00000000000E+00 0.  1.
         22    1    1    2    0    0 -0.10927307549E+03 -0.81951665496E+03  0.51836922489E+03  0.97583544007E+03  0.00000000000E+00 0.  1.
<mgrwt>
<rscale>  0 0.22673287E+04</rscale>
<asrwt>0</asrwt>
<pdfrwt beam="1">  1        1 0.22239895E+00 0.22673287E+04</pdfrwt>
<pdfrwt beam="2">  1       -1 0.13677588E+00 0.22673287E+04</pdfrwt>
<totfact> 0.28818431E+00</totfact>
</mgrwt>
</event>
<event>
 6    1  0.9906445E-006  0.3507002E+04  0.7818608E-02  0.8112132E-01
          1   -1    0    0  501    0  0.00000000000E+00  0.00000000000E+00  0.24625732401E+04  0.24625732401E+04  0.00000000000E+00 0. -1.
         -1   -1    0    0    0  501 -0.00000000000E+00 -0.00000000000E+00 -0.12485989839E+04  0.12485989839E+04  0.00000000000E+00 0.  1.
         23    2    1    2    0    0 -0.65844903979E+03 -0.15524669910E+04  0.11108946216E+04  0.20216946990E+04  0.97230136387E+02 0.  0.
         11    1    3    3    0    0 -0.32705076113E+03 -0.88592959374E+03  0.64261300054E+03  0.11422718214E+04  0.00000000000E+00 0. -1.
        -11    1    3    3    0    0 -0.33139827867E+03 -0.66653739729E+03  0.46828162111E+03  0.87942287766E+03  0.00000000000E+00 0.  1.
         22    1    1    2    0    0  0.65844903979E+03  0.15524669910E+04  0.10307963451E+03  0.16894775249E+04  0.00000000000E+00 0.  1.
<mgrwt>
<rscale>  0 0.35070024E+04</rscale>
<asrwt>0</asrwt>
<pdfrwt beam="1">  1        1 0.37885742E+00 0.35070024E+04</pdfrwt>
<pdfrwt beam="2">  1       -1 0.19209215E+00 0.35070024E+04</pdfrwt>
<totfact> 0.20029331E-01</totfact>
</mgrwt>
</event>
<event>
 6    1  0.9906445E-006  0.2405599E+04  0.7818608E-02  0.8437410E-01
          1   -1    0    0  501    0  0.00000000000E+00  0.00000000000E+00  0.19487121449E+04  0.19487121449E+04  0.00000000000E+00 0. -1.
         -1   -1    0    0    0  501 -0.00000000000E+00 -0.00000000000E+00 -0.74240143383E+03  0.74240143383E+03  0.00000000000E+00 0.  1.
         23    2    1    2    0    0  0.75368517118E+03 -0.91912448629E+03  0.41151357743E+03  0.12612416816E+04  0.92498629531E+02 0.  0.
         11    1    3    3    0    0  0.10794215130E+03 -0.17376333237E+03  0.94752638922E+02  0.22544016121E+03  0.00000000000E+00 0. -1.
        -11    1    3    3    0    0  0.64574301989E+03 -0.74536115392E+03  0.31676093851E+03  0.10358015204E+04  0.00000000000E+00 0.  1.
         22    1    1    2    0    0 -0.75368517118E+03  0.91912448629E+03  0.79479713368E+03  0.14298718971E+04  0.00000000000E+00 0.  1.
<mgrwt>
<rscale>  0 0.24055990E+04</rscale>
<asrwt>0</asrwt>
<pdfrwt beam="1">  1        1 0.29980187E+00 0.24055990E+04</pdfrwt>
<pdfrwt beam="2">  1       -1 0.11421561E+00 0.24055990E+04</pdfrwt>
<totfact> 0.20175562E+00</totfact>
</mgrwt>
</event>
<event>
 6    1  0.9906445E-006  0.1060021E+04  0.7818608E-02  0.9245059E-01
          1   -1    0    0  501    0  0.00000000000E+00  0.00000000000E+00  0.77762070878E+03  0.77762070878E+03  0.00000000000E+00 0. -1.
         -1   -1    0    0    0  501 -0.00000000000E+00 -0.00000000000E+00 -0.36124451911E+03  0.36124451911E+03  0.00000000000E+00 0.  1.
         23    2    1    2    0    0 -0.14897429347E+02  0.48136749660E+03  0.43731732028E+03  0.65681219021E+03  0.90659883178E+02 0.  0.
         11    1    3    3    0    0  0.17581938509E+02  0.30650696073E+03  0.32168167696E+03  0.44467374875E+03  0.00000000000E+00 0.  1.
        -11    1    3    3    0    0 -0.32479367856E+02  0.17486053587E+03  0.11563564332E+03  0.21213844146E+03  0.00000000000E+00 0. -1.
         22    1    1    2    0    0  0.14897429347E+02 -0.48136749660E+03 -0.20941130601E+02  0.48205303767E+03  0.00000000000E+00 0.  1.
<mgrwt>
<rscale>  0 0.10600212E+04</rscale>
<asrwt>0</asrwt>
<pdfrwt beam="1">  1        1 0.11963395E+00 0.10600212E+04</pdfrwt>
<pdfrwt beam="2">  1       -1 0.55576080E-01 0.10600212E+04</pdfrwt>
<totfact> 0.75666400E+01</totfact>
</mgrwt>
</event>
<event>
 6    1  0.9906445E-006  0.5447247E+04  0.7818608E-02  0.7762990E-01
         -1   -1    0    0    0  501 -0.00000000000E+00  0.00000000000E+00  0.18746954587E+04  0.18746954587E+04  0.00000000000E+00 0.  1.
          1   -1    0    0  501    0  0.00000000000E+00 -0.00000000000E+00 -0.39569761823E+04  0.39569761823E+04  0.00000000000E+00 0. -1.
         23    2    1    2    0    0  0.36283302053E+03 -0.24968268079E+04  0.54642036410E+02  0.25252792276E+04  0.90870875088E+02 0.  0.
         13    1    3    3    0    0  0.35171148276E+03 -0.22322181768E+04  0.55418723146E+02  0.22604358409E+04  0.00000000000E+00 0. -1.
        -13    1    3    3    0    0  0.11121537768E+02 -0.26460863111E+03 -0.77668673617E+00  0.26484338674E+03  0.00000000000E+00 0.  1.
         22    1    1    2    0    0 -0.36283302053E+03  0.24968268079E+04 -0.21369227600E+04  0.33063924134E+04  0.00000000000E+00 0. -1.
<mgrwt>
<rscale>  0 0.54472471E+04</rscale>
<asrwt>0</asrwt>
<pdfrwt beam="1">  1        1 0.60876556E+00 0.54472471E+04</pdfrwt>
<pdfrwt beam="2">  1       -1 0.28841469E+00 0.54472471E+04</pdfrwt>
<totfact> 0.28542316E-03</totfact>
</mgrwt>
</event>
<event>
 6    1  0.9906445E-006  0.3294536E+04  0.7818608E-02  0.8164287E-01
         -2   -1    0    0    0  501 -0.00000000000E+00  0.00000000000E+00  0.27059967465E+04  0.27059967465E+04  0.00000000000E+00 0.  1.
          2   -1    0    0  501    0  0.00000000000E+00 -0.00000000000E+00 -0.10027700989E+04  0.10027700989E+04  0.00000000000E+00 0. -1.
         23    2    1    2    0    0 -0.12302320943E+04 -0.10217638347E+04  0.41272444999E+03  0.16538049815E+04  0.85188645420E+02 0.  0.
         13    1    3    3    0    0 -0.33147116730E+03 -0.29818321309E+03  0.15024963364E+03  0.47049050546E+03  0.00000000000E+00 0. -1.
        -13    1    3    3    0    0 -0.89876092704E+03 -0.72358062165E+03  0.26247481636E+03  0.11833144761E+04  0.00000000000E+00 0.  1.
         22    1    1    2    0    0  0.12302320943E+04  0.10217638347E+04  0.12905021976E+04  0.20549618639E+04  0.00000000000E+00 0.  1.
<mgrwt>
<rscale>  0 0.32945365E+04</rscale>
<asrwt>0</asrwt>
<pdfrwt beam="1">  1        2 0.15427232E+00 0.32945365E+04</pdfrwt>
<pdfrwt beam="2">  1       -2 0.41630719E+00 0.32945365E+04</pdfrwt>
<totfact> 0.12143329E-01</totfact>
</mgrwt>
</event>
<event>
 6    1  0.9906445E-006  0.2955852E+04  0.7818608E-02  0.8256451E-01
          2   -1    0    0  501    0  0.00000000000E+00  0.00000000000E+00  0.39154369189E+04  0.39154369189E+04  0.00000000000E+00 0. -1.
         -2   -1    0    0    0  501 -0.00000000000E+00 -0.00000000000E+00 -0.55785979660E+03  0.55785979660E+03  0.00000000000E+00 0.  1.
         23    2    1    2    0    0  0.51966240581E+03  0.55225184299E+03  0.35976987775E+04  0.36778788860E+04  0.91244136392E+02 0.  0.
         11    1    3    3    0    0  0.92855507796E+02  0.58295536130E+02  0.59815153795E+03  0.60811658192E+03  0.00000000000E+00 0. -1.
        -11    1    3    3    0    0  0.42680689802E+03  0.49395630686E+03  0.29995472395E+04  0.30697623041E+04  0.00000000000E+00 0.  1.
         22    1    1    2    0    0 -0.51966240581E+03 -0.55225184299E+03 -0.24012165524E+03  0.79541782945E+03  0.00000000000E+00 0.  1.
<mgrwt>
<rscale>  0 0.29558517E+04</rscale>
<asrwt>0</asrwt>
<pdfrwt beam="1">  1        2 0.60237489E+00 0.29558517E+04</pdfrwt>
<pdfrwt beam="2">  1       -2 0.85824587E-01 0.29558517E+04</pdfrwt>
<totfact> 0.40461117E-01</totfact>
</mgrwt>
</event>
<event>
 6    1  0.9906445E-006  0.2590001E+04  0.7818608E-02  0.8371606E-01
          2   -1    0    0  501    0  0.00000000000E+00  0.00000000000E+00  0.20629691076E+04  0.20629691076E+04  0.00000000000E+00 0.  1.
         -2   -1    0    0    0  501 -0.00000000000E+00 -0.00000000000E+00 -0.81291875724E+03  0.81291875724E+03  0.00000000000E+00 0. -1.
         23    2    1    2    0    0 -0.88898977417E+03 -0.74101076490E+03  0.12669520124E+04  0.17184400524E+04  0.92027386197E+02 0.  0.
         11    1    3    3    0    0 -0.59692959173E+03 -0.53293690194E+03  0.92245238313E+03  0.12211736478E+04  0.00000000000E+00 0. -1.
        -11    1    3    3    0    0 -0.29206018244E+03 -0.20807386296E+03  0.34449962928E+03  0.49726640464E+03  0.00000000000E+00 0.  1.
         22    1    1    2    0    0  0.88898977417E+03  0.74101076490E+03 -0.16901662024E+02  0.11574478124E+04  0.00000000000E+00 0. -1.
<mgrwt>
<rscale>  0 0.25900010E+04</rscale>
<asrwt>0</asrwt>
<pdfrwt beam="1">  1        2 0.31737986E+00 0.25900010E+04</pdfrwt>
<pdfrwt beam="2">  1       -2 0.12506442E+00 0.25900010E+04</pdfrwt>
<totfact> 0.26124622E+00</totfact>
</mgrwt>
</event>
<event>
 6    1  0.9906445E-006  0.1440820E+04  0.7818608E-02  0.8924790E-01
          1   -1    0    0  501    0  0.00000000000E+00  0.00000000000E+00  0.19456039666E+04  0.19456039666E+04  0.00000000000E+00 0. -1.
         -1   -1    0    0    0  501 -0.00000000000E+00 -0.00000000000E+00 -0.26675040953E+03  0.26675040953E+03  0.00000000000E+00 0.  1.
         23    2    1    2    0    0  0.41510993187E+03  0.21294561316E+03  0.16795123922E+04  0.17458112123E+04  0.97122724365E+02 0.  0.
         13    1    3    3    0    0  0.13860347451E+03  0.30673723016E+02  0.60436669649E+03  0.62081471009E+03  0.00000000000E+00 0. -1.
        -13    1    3    3    0    0  0.27650645736E+03  0.18227189015E+03  0.10751456957E+04  0.11249965022E+04  0.00000000000E+00 0.  1.
         22    1    1    2    0    0 -0.41510993187E+03 -0.21294561316E+03 -0.65883512617E+00  0.46654316388E+03  0.00000000000E+00 0.  1.
<mgrwt>
<rscale>  0 0.14408201E+04</rscale>
<asrwt>0</asrwt>
<pdfrwt beam="1">  1        1 0.29932368E+00 0.14408201E+04</pdfrwt>
<pdfrwt beam="2">  1       -1 0.41038526E-01 0.14408201E+04</pdfrwt>
<totfact> 0.18335011E+01</totfact>
</mgrwt>
</event>
<event>
 6    1  0.9906445E-006  0.3932007E+04  0.7818608E-02  0.8018405E-01
          2   -1    0    0  501    0  0.00000000000E+00  0.00000000000E+00  0.22693464489E+04  0.22693464489E+04  0.00000000000E+00 0. -1.
         -2   -1    0    0    0  501 -0.00000000000E+00 -0.00000000000E+00 -0.17032082530E+04  0.17032082530E+04  0.00000000000E+00 0.  1.
         23    2    1    2    0    0 -0.51464174630E+03 -0.12360558527E+04  0.17361978800E+04  0.21944293231E+04  0.91906352136E+02 0.  0.
         13    1    3    3    0    0 -0.44762471640E+03 -0.11417563605E+04  0.15888804940E+04  0.20071165132E+04  0.00000000000E+00 0.  1.
        -13    1    3    3    0    0 -0.67017029899E+02 -0.94299492226E+02  0.14731738604E+03  0.18731280992E+03  0.00000000000E+00 0. -1.
         22    1    1    2    0    0  0.51464174630E+03  0.12360558527E+04 -0.11700596841E+04  0.17781253787E+04  0.00000000000E+00 0.  1.
<mgrwt>
<rscale>  0 0.39320069E+04</rscale>
<asrwt>0</asrwt>
<pdfrwt beam="1">  1        2 0.34913023E+00 0.39320069E+04</pdfrwt>
<pdfrwt beam="2">  1       -2 0.26203204E+00 0.39320069E+04</pdfrwt>
<totfact> 0.20295159E-01</totfact>
</mgrwt>
</event>
<event>
 6    1  0.9906445E-006  0.1125355E+04  0.7818608E-02  0.9180826E-01
          1   -1    0    0  501    0  0.00000000000E+00  0.00000000000E+00  0.93091331907E+03  0.93091331907E+03  0.00000000000E+00 0. -1.
         -1   -1    0    0    0  501 -0.00000000000E+00 -0.00000000000E+00 -0.34010246932E+03  0.34010246932E+03  0.00000000000E+00 0.  1.
         23    2    1    2    0    0 -0.41328912964E+03 -0.37362159835E+03  0.24553918109E+03  0.61556668387E+03  0.90729539839E+02 0.  0.
         13    1    3    3    0    0 -0.26580824739E+03 -0.25236874912E+03  0.11449961795E+03  0.38399762034E+03  0.00000000000E+00 0. -1.
        -13    1    3    3    0    0 -0.14748088225E+03 -0.12125284924E+03  0.13103956314E+03  0.23156906353E+03  0.00000000000E+00 0.  1.
         22    1    1    2    0    0  0.41328912964E+03  0.37362159835E+03  0.34527166866E+03  0.65544910452E+03  0.00000000000E+00 0.  1.
<mgrwt>
<rscale>  0 0.11253549E+04</rscale>
<asrwt>0</asrwt>
<pdfrwt beam="1">  1        1 0.14321743E+00 0.11253549E+04</pdfrwt>
<pdfrwt beam="2">  1       -1 0.52323457E-01 0.11253549E+04</pdfrwt>
<totfact> 0.62838614E+01</totfact>
</mgrwt>
</event>
<event>
 6    1  0.9906445E-006  0.1545055E+04  0.7818608E-02  0.8855033E-01
          1   -1    0    0  501    0  0.00000000000E+00  0.00000000000E+00  0.11235995795E+04  0.11235995795E+04  0.00000000000E+00 0. -1.
         -1   -1    0    0    0  501 -0.00000000000E+00 -0.00000000000E+00 -0.53114880731E+03  0.53114880731E+03  0.00000000000E+00 0.  1.
         23    2    1    2    0    0  0.16652876469E+03  0.13528710017E+03  0.10891073018E+04  0.11137288517E+04  0.90569372701E+02 0.  0.
         11    1    3    3    0    0  0.16565044710E+03  0.11314483376E+03  0.83929526946E+03  0.86293590339E+03  0.00000000000E+00 0. -1.
        -11    1    3    3    0    0  0.87831758909E+00  0.22142266407E+02  0.24981203232E+03  0.25079294826E+03  0.00000000000E+00 0.  1.
         22    1    1    2    0    0 -0.16652876469E+03 -0.13528710017E+03 -0.49665652964E+03  0.54101953511E+03  0.00000000000E+00 0.  1.
<mgrwt>
<rscale>  0 0.15450548E+04</rscale>
<asrwt>0</asrwt>
<pdfrwt beam="1">  1        1 0.17286147E+00 0.15450548E+04</pdfrwt>
<pdfrwt beam="2">  1       -1 0.81715201E-01 0.15450548E+04</pdfrwt>
<totfact> 0.17490225E+01</totfact>
</mgrwt>
</event>
<event>
 6    1  0.9906445E-006  0.1926903E+04  0.7818608E-02  0.8641580E-01
         -1   -1    0    0    0  501 -0.00000000000E+00  0.00000000000E+00  0.52000167112E+03  0.52000167112E+03  0.00000000000E+00 0.  1.
          1   -1    0    0  501    0  0.00000000000E+00 -0.00000000000E+00 -0.17850687854E+04  0.17850687854E+04  0.00000000000E+00 0. -1.
         23    2    1    2    0    0 -0.66494162943E+03 -0.21024427162E+03  0.15743593245E+03  0.72081512916E+03  0.91860510044E+02 0.  0.
         13    1    3    3    0    0 -0.20116490279E+03 -0.66043139462E+02  0.50376593900E+01  0.21178855586E+03  0.00000000000E+00 0.  1.
        -13    1    3    3    0    0 -0.46377672664E+03 -0.14420113216E+03  0.15239827306E+03  0.50902657329E+03  0.00000000000E+00 0. -1.
         22    1    1    2    0    0  0.66494162943E+03  0.21024427162E+03 -0.14225030468E+04  0.15842553274E+04  0.00000000000E+00 0. -1.
<mgrwt>
<rscale>  0 0.19269030E+04</rscale>
<asrwt>0</asrwt>
<pdfrwt beam="1">  1        1 0.27462597E+00 0.19269030E+04</pdfrwt>
<pdfrwt beam="2">  1       -1 0.80000257E-01 0.19269030E+04</pdfrwt>
<totfact> 0.60720427E+00</totfact>
</mgrwt>
</event>
<event>
 6    1  0.9906445E-006  0.1782375E+04  0.7818608E-02  0.8715729E-01
         -2   -1    0    0    0  501 -0.00000000000E+00  0.00000000000E+00  0.65867722002E+03  0.65867722002E+03  0.00000000000E+00 0.  1.
          2   -1    0    0  501    0  0.00000000000E+00 -0.00000000000E+00 -0.12057724006E+04  0.12057724006E+04  0.00000000000E+00 0. -1.
         23    2    1    2    0    0 -0.24952953491E+03 -0.30864533932E+03  0.55679255428E+03  0.69137883612E+03  0.10227322356E+03 0.  0.
         11    1    3    3    0    0 -0.16939433517E+03 -0.18861065008E+03  0.27027056629E+03  0.37055984282E+03  0.00000000000E+00 0.  1.
        -11    1    3    3    0    0 -0.80135199744E+02 -0.12003468924E+03  0.28652198799E+03  0.32081899330E+03  0.00000000000E+00 0. -1.
         22    1    1    2    0    0  0.24952953491E+03  0.30864533932E+03 -0.11038877348E+04  0.11730707845E+04  0.00000000000E+00 0. -1.
<mgrwt>
<rscale>  0 0.17823746E+04</rscale>
<asrwt>0</asrwt>
<pdfrwt beam="1">  1        2 0.18550344E+00 0.17823746E+04</pdfrwt>
<pdfrwt beam="2">  1       -2 0.10133496E+00 0.17823746E+04</pdfrwt>
<totfact> 0.14220342E+01</totfact>
</mgrwt>
</event>
<event>
 6    1  0.1001622E-005  0.3488207E+04  0.7818608E-02  0.8116590E-01
         -2   -1    0    0    0  501 -0.00000000000E+00  0.00000000000E+00  0.11394628773E+04  0.11394628773E+04  0.00000000000E+00 0.  1.
          2   -1    0    0  501    0  0.00000000000E+00 -0.00000000000E+00 -0.26695890829E+04  0.26695890829E+04  0.00000000000E+00 0. -1.
         23    2    1    2    0    0 -0.58831736905E+03  0.14771463908E+04 -0.15452294617E+04  0.22189869002E+04  0.89944357407E+02 0.  0.
         11    1    3    3    0    0 -0.30985463887E+03  0.69510153391E+03 -0.69336388876E+03  0.10295287863E+04  0.00000000000E+00 0. -1.
        -11    1    3    3    0    0 -0.27846273018E+03  0.78204485686E+03 -0.85186557296E+03  0.11894581139E+04  0.00000000000E+00 0.  1.
         22    1    1    2    0    0  0.58831736905E+03 -0.14771463908E+04  0.15103256144E+02  0.15900650599E+04  0.00000000000E+00 0.  1.
<mgrwt>
<rscale>  0 0.34882074E+04</rscale>
<asrwt>0</asrwt>
<pdfrwt beam="1">  1        2 0.41070601E+00 0.34882074E+04</pdfrwt>
<pdfrwt beam="2">  1       -2 0.17530198E+00 0.34882074E+04</pdfrwt>
<totfact> 0.44509312E-01</totfact>
</mgrwt>
</event>
<event>
 6    1  0.9906445E-006  0.4179798E+04  0.7818608E-02  0.7969226E-01
         -2   -1    0    0    0  501 -0.00000000000E+00  0.00000000000E+00  0.86616027958E+03  0.86616027958E+03  0.00000000000E+00 0.  1.
          2   -1    0    0  501    0  0.00000000000E+00 -0.00000000000E+00 -0.50425744194E+04  0.50425744194E+04  0.00000000000E+00 0. -1.
         23    2    1    2    0    0  0.17365308562E+04  0.86442317378E+03 -0.31845422127E+04  0.37300707144E+04  0.96703630476E+02 0.  0.
         11    1    3    3    0    0  0.95509878111E+03  0.44326406157E+03 -0.18018079312E+04  0.20869136376E+04  0.00000000000E+00 0. -1.
        -11    1    3    3    0    0  0.78143207506E+03  0.42115911221E+03 -0.13827342816E+04  0.16431570768E+04  0.00000000000E+00 0.  1.
         22    1    1    2    0    0 -0.17365308562E+04 -0.86442317378E+03 -0.99187192707E+03  0.21786639845E+04  0.00000000000E+00 0. -1.
<mgrwt>
<rscale>  0 0.41797979E+04</rscale>
<asrwt>0</asrwt>
<pdfrwt beam="1">  1        2 0.77578066E+00 0.41797979E+04</pdfrwt>
<pdfrwt beam="2">  1       -2 0.13325543E+00 0.41797979E+04</pdfrwt>
<totfact> 0.94715457E-03</totfact>
</mgrwt>
</event>
<event>
 6    1  0.9906445E-006  0.1158848E+04  0.7818608E-02  0.9149660E-01
          2   -1    0    0  501    0  0.00000000000E+00  0.00000000000E+00  0.49214233232E+03  0.49214233232E+03  0.00000000000E+00 0.  1.
         -2   -1    0    0    0  501 -0.00000000000E+00 -0.00000000000E+00 -0.68218502450E+03  0.68218502450E+03  0.00000000000E+00 0. -1.
         23    2    1    2    0    0  0.21878275131E+03  0.44320522059E+03  0.20370832836E+03  0.54239648559E+03  0.91652085140E+02 0.  0.
         13    1    3    3    0    0  0.86444825848E+02  0.11600786350E+03  0.95043546212E+02  0.17310057188E+03  0.00000000000E+00 0. -1.
        -13    1    3    3    0    0  0.13233792546E+03  0.32719735709E+03  0.10866478215E+03  0.36929591371E+03  0.00000000000E+00 0.  1.
         22    1    1    2    0    0 -0.21878275131E+03 -0.44320522059E+03 -0.39375102054E+03  0.63193087123E+03  0.00000000000E+00 0. -1.
<mgrwt>
<rscale>  0 0.11588479E+04</rscale>
<asrwt>0</asrwt>
<pdfrwt beam="1">  1        2 0.75714205E-01 0.11588479E+04</pdfrwt>
<pdfrwt beam="2">  1       -2 0.10495154E+00 0.11588479E+04</pdfrwt>
<totfact> 0.45671811E+01</totfact>
</mgrwt>
</event>
<event>
 6    1  0.9906445E-006  0.1747738E+04  0.7818608E-02  0.8734597E-01
         -1   -1    0    0    0  501 -0.00000000000E+00  0.00000000000E+00  0.68973617193E+03  0.68973617193E+03  0.00000000000E+00 0. -1.
          1   -1    0    0  501    0  0.00000000000E+00 -0.00000000000E+00 -0.11071577261E+04  0.11071577261E+04  0.00000000000E+00 0.  1.
         23    2    1    2    0    0  0.37211833020E+03 -0.74267585722E+03  0.62217775719E+02  0.83767892351E+03  0.88291826946E+02 0.  0.
         11    1    3    3    0    0  0.23498147911E+03 -0.47163748302E+03 -0.32689751119E+01  0.52694297330E+03  0.00000000000E+00 0. -1.
        -11    1    3    3    0    0  0.13713685109E+03 -0.27103837420E+03  0.65486750831E+02  0.31073595021E+03  0.00000000000E+00 0.  1.
         22    1    1    2    0    0 -0.37211833020E+03  0.74267585722E+03 -0.47963932990E+03  0.95921497453E+03  0.00000000000E+00 0.  1.
<mgrwt>
<rscale>  0 0.17477377E+04</rscale>
<asrwt>0</asrwt>
<pdfrwt beam="1">  1        1 0.17033196E+00 0.17477377E+04</pdfrwt>
<pdfrwt beam="2">  1       -1 0.10611326E+00 0.17477377E+04</pdfrwt>
<totfact> 0.98600534E+00</totfact>
</mgrwt>
</event>
<event>
 6    1  0.9906445E-006  0.3677487E+04  0.7818608E-02  0.8072969E-01
         -2   -1    0    0    0  501 -0.00000000000E+00  0.00000000000E+00  0.14791087725E+04  0.14791087725E+04  0.00000000000E+00 0.  1.
          2   -1    0    0  501    0  0.00000000000E+00 -0.00000000000E+00 -0.22858210020E+04  0.22858210020E+04  0.00000000000E+00 0. -1.
         23    2    1    2    0    0  0.10647117332E+04  0.86606949149E+03  0.84737869546E+03  0.16155800527E+04  0.91437488485E+02 0.  0.
         13    1    3    3    0    0  0.58097092164E+03  0.52547457059E+03  0.46026683625E+03  0.90856826749E+03  0.00000000000E+00 0.  1.
        -13    1    3    3    0    0  0.48374081153E+03  0.34059492090E+03  0.38711185921E+03  0.70701178521E+03  0.00000000000E+00 0. -1.
         22    1    1    2    0    0 -0.10647117332E+04 -0.86606949149E+03 -0.16540909249E+04  0.21493497219E+04  0.00000000000E+00 0. -1.
<mgrwt>
<rscale>  0 0.36774871E+04</rscale>
<asrwt>0</asrwt>
<pdfrwt beam="1">  1        2 0.35166477E+00 0.36774871E+04</pdfrwt>
<pdfrwt beam="2">  1       -2 0.22755520E+00 0.36774871E+04</pdfrwt>
<totfact> 0.33129355E-01</totfact>
</mgrwt>
</event>
<event>
 6    1  0.9906445E-006  0.1111329E+04  0.7818608E-02  0.9194220E-01
         -1   -1    0    0    0  501 -0.00000000000E+00  0.00000000000E+00  0.19746385255E+03  0.19746385255E+03  0.00000000000E+00 0.  1.
          1   -1    0    0  501    0  0.00000000000E+00 -0.00000000000E+00 -0.15636432906E+04  0.15636432906E+04  0.00000000000E+00 0. -1.
         23    2    1    2    0    0 -0.45119693071E+02  0.17144680640E+03 -0.15159382017E+04  0.15290349962E+04  0.91921674566E+02 0.  0.
         11    1    3    3    0    0 -0.53941755531E+01  0.12630827009E+03 -0.12503479212E+04  0.12567230404E+04  0.00000000000E+00 0.  1.
        -11    1    3    3    0    0 -0.39725517518E+02  0.45138536313E+02 -0.26559028048E+03  0.27231195583E+03  0.00000000000E+00 0. -1.
         22    1    1    2    0    0  0.45119693071E+02 -0.17144680640E+03  0.14975876358E+03  0.23207214697E+03  0.00000000000E+00 0.  1.
<mgrwt>
<rscale>  0 0.11113290E+04</rscale>
<asrwt>0</asrwt>
<pdfrwt beam="1">  1        1 0.24056052E+00 0.11113290E+04</pdfrwt>
<pdfrwt beam="2">  1       -1 0.30379053E-01 0.11113290E+04</pdfrwt>
<totfact> 0.58745943E+01</totfact>
</mgrwt>
</event>
<event>
 6    1  0.9906445E-006  0.2707092E+04  0.7818608E-02  0.8332708E-01
          1   -1    0    0  501    0  0.00000000000E+00  0.00000000000E+00  0.12371790009E+04  0.12371790009E+04  0.00000000000E+00 0. -1.
         -1   -1    0    0    0  501 -0.00000000000E+00 -0.00000000000E+00 -0.14808577762E+04  0.14808577762E+04  0.00000000000E+00 0.  1.
         23    2    1    2    0    0  0.12233689216E+04 -0.54727978693E+03  0.53644225580E+02  0.13452485013E+04  0.10329154802E+03 0.  0.
         11    1    3    3    0    0  0.38339027451E+03 -0.20307653417E+03 -0.21439402996E+02  0.43438212362E+03  0.00000000000E+00 0. -1.
        -11    1    3    3    0    0  0.83997864704E+03 -0.34420325276E+03  0.75083628576E+02  0.91086637767E+03  0.00000000000E+00 0.  1.
         22    1    1    2    0    0 -0.12233689216E+04  0.54727978693E+03 -0.29732300085E+03  0.13727882758E+04  0.00000000000E+00 0.  1.
<mgrwt>
<rscale>  0 0.27070915E+04</rscale>
<asrwt>0</asrwt>
<pdfrwt beam="1">  1        1 0.19033523E+00 0.27070915E+04</pdfrwt>
<pdfrwt beam="2">  1       -1 0.22782427E+00 0.27070915E+04</pdfrwt>
<totfact> 0.85489905E-01</totfact>
</mgrwt>
</event>
<event>
 6    1  0.9906445E-006  0.3633523E+04  0.7818608E-02  0.8082856E-01
          2   -1    0    0  501    0  0.00000000000E+00  0.00000000000E+00  0.20468783510E+04  0.20468783510E+04  0.00000000000E+00 0. -1.
         -2   -1    0    0    0  501 -0.00000000000E+00 -0.00000000000E+00 -0.16125154023E+04  0.16125154023E+04  0.00000000000E+00 0.  1.
         23    2    1    2    0    0 -0.45700987253E+03  0.34405630913E+03 -0.15182188541E+04  0.16247418262E+04  0.86975545427E+02 0.  0.
         13    1    3    3    0    0 -0.16752350493E+03  0.77043399278E+02 -0.51273642868E+03  0.54488389165E+03  0.00000000000E+00 0. -1.
        -13    1    3    3    0    0 -0.28948636760E+03  0.26701290985E+03 -0.10054824254E+04  0.10798579346E+04  0.00000000000E+00 0.  1.
         22    1    1    2    0    0  0.45700987253E+03 -0.34405630913E+03  0.19525818028E+04  0.20346519270E+04  0.00000000000E+00 0. -1.
<mgrwt>
<rscale>  0 0.36335233E+04</rscale>
<asrwt>0</asrwt>
<pdfrwt beam="1">  1        2 0.31490436E+00 0.36335233E+04</pdfrwt>
<pdfrwt beam="2">  1       -2 0.24807929E+00 0.36335233E+04</pdfrwt>
<totfact> 0.33770395E-01</totfact>
</mgrwt>
</event>
<event>
 6    1  0.9906445E-006  0.3662449E+04  0.7818608E-02  0.8076335E-01
         -2   -1    0    0    0  501 -0.00000000000E+00  0.00000000000E+00  0.26453703417E+04  0.26453703417E+04  0.00000000000E+00 0. -1.
          2   -1    0    0  501    0  0.00000000000E+00 -0.00000000000E+00 -0.12676422801E+04  0.12676422801E+04  0.00000000000E+00 0.  1.
         23    2    1    2    0    0  0.16518781905E+04  0.44366167296E+03  0.13848184825E+04  0.22025777325E+04  0.89939991382E+02 0.  0.
         11    1    3    3    0    0  0.84536866563E+03  0.18202120862E+03  0.71394081968E+03  0.11213792379E+04  0.00000000000E+00 0. -1.
        -11    1    3    3    0    0  0.80650952484E+03  0.26164046434E+03  0.67087766281E+03  0.10811984946E+04  0.00000000000E+00 0.  1.
         22    1    1    2    0    0 -0.16518781905E+04 -0.44366167296E+03 -0.70904208755E+01  0.17104348892E+04  0.00000000000E+00 0.  1.
<mgrwt>
<rscale>  0 0.36624491E+04</rscale>
<asrwt>0</asrwt>
<pdfrwt beam="1">  1        2 0.19502189E+00 0.36624491E+04</pdfrwt>
<pdfrwt beam="2">  1       -2 0.40698005E+00 0.36624491E+04</pdfrwt>
<totfact> 0.93469574E-02</totfact>
</mgrwt>
</event>
<event>
 6    1  0.9906445E-006  0.1325968E+04  0.7818608E-02  0.9009222E-01
         -1   -1    0    0    0  501 -0.00000000000E+00  0.00000000000E+00  0.28425849971E+03  0.28425849971E+03  0.00000000000E+00 0.  1.
          1   -1    0    0  501    0  0.00000000000E+00 -0.00000000000E+00 -0.15462964028E+04  0.15462964028E+04  0.00000000000E+00 0. -1.
         23    2    1    2    0    0  0.49031391377E+03  0.39580119542E+03 -0.90352579523E+03  0.11055740394E+04  0.94174166770E+02 0.  0.
         11    1    3    3    0    0  0.32497633572E+03  0.20480212943E+03 -0.56369949771E+03  0.68213682991E+03  0.00000000000E+00 0. -1.
        -11    1    3    3    0    0  0.16533757805E+03  0.19099906598E+03 -0.33982629752E+03  0.42343720952E+03  0.00000000000E+00 0.  1.
         22    1    1    2    0    0 -0.49031391377E+03 -0.39580119542E+03 -0.35851210783E+03  0.72498086305E+03  0.00000000000E+00 0. -1.
<mgrwt>
<rscale>  0 0.13259682E+04</rscale>
<asrwt>0</asrwt>
<pdfrwt beam="1">  1        1 0.23789176E+00 0.13259682E+04</pdfrwt>
<pdfrwt beam="2">  1       -1 0.43732076E-01 0.13259682E+04</pdfrwt>
<totfact> 0.30777272E+01</totfact>
</mgrwt>
</event>
<event>
 6    1  0.9906445E-006  0.1286474E+04  0.7818608E-02  0.9040361E-01
          1   -1    0    0  501    0  0.00000000000E+00  0.00000000000E+00  0.49075391097E+03  0.49075391097E+03  0.00000000000E+00 0. -1.
         -1   -1    0    0    0  501 -0.00000000000E+00 -0.00000000000E+00 -0.84309862069E+03  0.84309862069E+03  0.00000000000E+00 0.  1.
         23    2    1    2    0    0 -0.58272145834E+03 -0.14569006060E+03 -0.40622072513E+03  0.73078328455E+03  0.90769156041E+02 0.  0.
         11    1    3    3    0    0 -0.13735639138E+03 -0.34980008988E+01 -0.65054331848E+02  0.15202328886E+03  0.00000000000E+00 0. -1.
        -11    1    3    3    0    0 -0.44536506696E+03 -0.14219205970E+03 -0.34116639328E+03  0.57875999569E+03  0.00000000000E+00 0.  1.
         22    1    1    2    0    0  0.58272145834E+03  0.14569006060E+03  0.53876015403E+02  0.60306924711E+03  0.00000000000E+00 0. -1.
<mgrwt>
<rscale>  0 0.12864742E+04</rscale>
<asrwt>0</asrwt>
<pdfrwt beam="1">  1        1 0.75500602E-01 0.12864742E+04</pdfrwt>
<pdfrwt beam="2">  1       -1 0.12970748E+00 0.12864742E+04</pdfrwt>
<totfact> 0.22820722E+01</totfact>
</mgrwt>
</event>
<event>
 6    1  0.9906445E-006  0.1931558E+04  0.7818608E-02  0.8639305E-01
          1   -1    0    0  501    0  0.00000000000E+00  0.00000000000E+00  0.76870967832E+03  0.76870967832E+03  0.00000000000E+00 0. -1.
         -1   -1    0    0    0  501 -0.00000000000E+00 -0.00000000000E+00 -0.12133698418E+04  0.12133698418E+04  0.00000000000E+00 0.  1.
         23    2    1    2    0    0 -0.60132993823E+03  0.62036304616E+03 -0.66073401049E+03  0.10914977378E+04  0.91377652516E+02 0.  0.
         11    1    3    3    0    0 -0.21323285334E+03  0.18976366216E+03 -0.17185782444E+03  0.33318704813E+03  0.00000000000E+00 0. -1.
        -11    1    3    3    0    0 -0.38809708489E+03  0.43059938399E+03 -0.48887618605E+03  0.75831068968E+03  0.00000000000E+00 0.  1.
         22    1    1    2    0    0  0.60132993823E+03 -0.62036304616E+03  0.21607384700E+03  0.89058178233E+03  0.00000000000E+00 0. -1.
<mgrwt>
<rscale>  0 0.19315581E+04</rscale>
<asrwt>0</asrwt>
<pdfrwt beam="1">  1        1 0.11826303E+00 0.19315581E+04</pdfrwt>
<pdfrwt beam="2">  1       -1 0.18667228E+00 0.19315581E+04</pdfrwt>
<totfact> 0.41002091E+00</totfact>
</mgrwt>
</event>
<event>
 6    1  0.9906445E-006  0.1895322E+04  0.7818608E-02  0.8657188E-01
         -1   -1    0    0    0  501 -0.00000000000E+00  0.00000000000E+00  0.11087955600E+04  0.11087955600E+04  0.00000000000E+00 0.  1.
          1   -1    0    0  501    0  0.00000000000E+00 -0.00000000000E+00 -0.80994304810E+03  0.80994304810E+03  0.00000000000E+00 0. -1.
         23    2    1    2    0    0  0.88883472418E+02 -0.82834831072E+03 -0.30267577436E+03  0.89116988792E+03  0.92249385923E+02 0.  0.
         13    1    3    3    0    0  0.17733392448E+02 -0.22737070069E+03 -0.12687617875E+03  0.26097791760E+03  0.00000000000E+00 0. -1.
        -13    1    3    3    0    0  0.71150079970E+02 -0.60097761003E+03 -0.17579959561E+03  0.63019197032E+03  0.00000000000E+00 0.  1.
         22    1    1    2    0    0 -0.88883472418E+02  0.82834831072E+03  0.60152828628E+03  0.10275687202E+04  0.00000000000E+00 0.  1.
<mgrwt>
<rscale>  0 0.18953219E+04</rscale>
<asrwt>0</asrwt>
<pdfrwt beam="1">  1        1 0.12460662E+00 0.18953219E+04</pdfrwt>
<pdfrwt beam="2">  1       -1 0.17058393E+00 0.18953219E+04</pdfrwt>
<totfact> 0.49424111E+00</totfact>
</mgrwt>
</event>
<event>
 6    1  0.9906445E-006  0.1804715E+04  0.7818608E-02  0.8703796E-01
          1   -1    0    0  501    0  0.00000000000E+00  0.00000000000E+00  0.36249324387E+04  0.36249324387E+04  0.00000000000E+00 0. -1.
         -1   -1    0    0    0  501 -0.00000000000E+00 -0.00000000000E+00 -0.22462464785E+03  0.22462464785E+03  0.00000000000E+00 0.  1.
         23    2    1    2    0    0 -0.57762872227E+03 -0.62731052499E+03  0.23188655493E+04  0.24723531230E+04  0.90659215262E+02 0.  0.
         11    1    3    3    0    0 -0.30491027171E+03 -0.27034875911E+03  0.10488091975E+04  0.11251930760E+04  0.00000000000E+00 0.  1.
        -11    1    3    3    0    0 -0.27271845056E+03 -0.35696176588E+03  0.12700563518E+04  0.13471600470E+04  0.00000000000E+00 0. -1.
         22    1    1    2    0    0  0.57762872227E+03  0.62731052499E+03  0.10814422416E+04  0.13772039636E+04  0.00000000000E+00 0.  1.
<mgrwt>
<rscale>  0 0.18047151E+04</rscale>
<asrwt>0</asrwt>
<pdfrwt beam="1">  1        1 0.55768187E+00 0.18047151E+04</pdfrwt>
<pdfrwt beam="2">  1       -1 0.34557641E-01 0.18047151E+04</pdfrwt>
<totfact> 0.14985878E+00</totfact>
</mgrwt>
</event>
<event>
 6    1  0.9906445E-006  0.1703954E+04  0.7818608E-02  0.8759113E-01
          1   -1    0    0  501    0  0.00000000000E+00  0.00000000000E+00  0.12104887751E+04  0.12104887751E+04  0.00000000000E+00 0. -1.
         -1   -1    0    0    0  501 -0.00000000000E+00 -0.00000000000E+00 -0.59964582405E+03  0.59964582405E+03  0.00000000000E+00 0.  1.
         23    2    1    2    0    0  0.37093520374E+03  0.35542875433E+03 -0.41232844870E+03  0.66523187925E+03  0.92715580008E+02 0.  0.
         11    1    3    3    0    0  0.16911894258E+03  0.10583589304E+03 -0.13342124196E+03  0.24000766821E+03  0.00000000000E+00 0. -1.
        -11    1    3    3    0    0  0.20181626117E+03  0.24959286129E+03 -0.27890720674E+03  0.42522421104E+03  0.00000000000E+00 0.  1.
         22    1    1    2    0    0 -0.37093520374E+03 -0.35542875433E+03  0.10231713998E+04  0.11449027199E+04  0.00000000000E+00 0. -1.
<mgrwt>
<rscale>  0 0.17039537E+04</rscale>
<asrwt>0</asrwt>
<pdfrwt beam="1">  1        1 0.18622904E+00 0.17039537E+04</pdfrwt>
<pdfrwt beam="2">  1       -1 0.92253204E-01 0.17039537E+04</pdfrwt>
<totfact> 0.11421074E+01</totfact>
</mgrwt>
</event>
<event>
 6    1  0.9906445E-006  0.2453583E+04  0.7818608E-02  0.8419711E-01
         -2   -1    0    0    0  501 -0.00000000000E+00  0.00000000000E+00  0.10231438057E+04  0.10231438057E+04  0.00000000000E+00 0.  1.
          2   -1    0    0  501    0  0.00000000000E+00 -0.00000000000E+00 -0.14709731441E+04  0.14709731441E+04  0.00000000000E+00 0. -1.
         23    2    1    2    0    0  0.10433154962E+04 -0.24350510286E+02 -0.87656777488E+03  0.13658807959E+04  0.90327806108E+02 0.  0.
         13    1    3    3    0    0  0.77307640442E+03 -0.59917481050E+01 -0.69694371990E+03  0.10408715468E+04  0.00000000000E+00 0. -1.
        -13    1    3    3    0    0  0.27023909182E+03 -0.18358762181E+02 -0.17962405498E+03  0.32500924914E+03  0.00000000000E+00 0.  1.
         22    1    1    2    0    0 -0.10433154962E+04  0.24350510286E+02  0.42873843645E+03  0.11282361539E+04  0.00000000000E+00 0.  1.
<mgrwt>
<rscale>  0 0.24535827E+04</rscale>
<asrwt>0</asrwt>
<pdfrwt beam="1">  1        2 0.22630356E+00 0.24535827E+04</pdfrwt>
<pdfrwt beam="2">  1       -2 0.15740674E+00 0.24535827E+04</pdfrwt>
<totfact> 0.31085812E+00</totfact>
</mgrwt>
</event>
<event>
 6    1  0.9906445E-006  0.5416487E+04  0.7818608E-02  0.7767286E-01
         -2   -1    0    0    0  501 -0.00000000000E+00  0.00000000000E+00  0.32226286488E+04  0.32226286488E+04  0.00000000000E+00 0.  1.
          2   -1    0    0  501    0  0.00000000000E+00 -0.00000000000E+00 -0.22759627613E+04  0.22759627613E+04  0.00000000000E+00 0. -1.
         23    2    1    2    0    0  0.21431173344E+04 -0.16505228102E+04  0.58960048844E+03  0.27700985743E+04  0.92951168037E+02 0.  0.
         11    1    3    3    0    0  0.11114620826E+04 -0.79779987327E+03  0.29206141238E+03  0.13989755064E+04  0.00000000000E+00 0. -1.
        -11    1    3    3    0    0  0.10316552518E+04 -0.85272293689E+03  0.29753907606E+03  0.13711230679E+04  0.00000000000E+00 0.  1.
         22    1    1    2    0    0 -0.21431173344E+04  0.16505228102E+04  0.35706539897E+03  0.27284928358E+04  0.00000000000E+00 0. -1.
<mgrwt>
<rscale>  0 0.54164870E+04</rscale>
<asrwt>0</asrwt>
<pdfrwt beam="1">  1        2 0.35014812E+00 0.54164870E+04</pdfrwt>
<pdfrwt beam="2">  1       -2 0.49578902E+00 0.54164870E+04</pdfrwt>
<totfact> 0.58236827E-03</totfact>
</mgrwt>
</event>
<event>
 6    1  0.9906445E-006  0.1543673E+04  0.7818608E-02  0.8855920E-01
         -3   -1    0    0    0  501 -0.00000000000E+00  0.00000000000E+00  0.36043930806E+03  0.36043930806E+03  0.00000000000E+00 0.  1.
          3   -1    0    0  501    0  0.00000000000E+00 -0.00000000000E+00 -0.16527921246E+04  0.16527921246E+04  0.00000000000E+00 0. -1.
         23    2    1    2    0    0 -0.72650463616E+02  0.21817071420E+03 -0.16056993914E+04  0.16245636743E+04  0.89777759057E+02 0.  0.
         11    1    3    3    0    0 -0.86065258754E+02  0.11947572896E+03 -0.95332420631E+03  0.96462879954E+03  0.00000000000E+00 0. -1.
        -11    1    3    3    0    0  0.13414795138E+02  0.98694985239E+02 -0.65237518510E+03  0.65993487480E+03  0.00000000000E+00 0.  1.
         22    1    1    2    0    0  0.72650463616E+02 -0.21817071420E+03  0.31334657485E+03  0.38866775833E+03  0.00000000000E+00 0.  1.
<mgrwt>
<rscale>  0 0.15436726E+04</rscale>
<asrwt>0</asrwt>
<pdfrwt beam="1">  1        3 0.25427571E+00 0.15436726E+04</pdfrwt>
<pdfrwt beam="2">  1       -3 0.55452201E-01 0.15436726E+04</pdfrwt>
<totfact> 0.56530668E-01</totfact>
</mgrwt>
</event>
<event>
 6    1  0.9906445E-006  0.1107077E+04  0.7818608E-02  0.9198321E-01
          2   -1    0    0  501    0  0.00000000000E+00  0.00000000000E+00  0.97193952308E+03  0.97193952308E+03  0.00000000000E+00 0.  1.
         -2   -1    0    0    0  501 -0.00000000000E+00 -0.00000000000E+00 -0.31525097352E+03  0.31525097352E+03  0.00000000000E+00 0. -1.
         23    2    1    2    0    0  0.37800261407E+03  0.17232026686E+03 -0.88185437417E+02  0.43430275070E+03  0.90895309416E+02 0.  0.
         11    1    3    3    0    0  0.42471431510E+02  0.55560308195E+02 -0.11916780971E+02  0.70942089128E+02  0.00000000000E+00 0.  1.
        -11    1    3    3    0    0  0.33553118256E+03  0.11675995867E+03 -0.76268656446E+02  0.36336066157E+03  0.00000000000E+00 0. -1.
         22    1    1    2    0    0 -0.37800261407E+03 -0.17232026686E+03  0.74487398698E+03  0.85288774590E+03  0.00000000000E+00 0.  1.
<mgrwt>
<rscale>  0 0.11070770E+04</rscale>
<asrwt>0</asrwt>
<pdfrwt beam="1">  1        2 0.14952916E+00 0.11070770E+04</pdfrwt>
<pdfrwt beam="2">  1       -2 0.48500150E-01 0.11070770E+04</pdfrwt>
<totfact> 0.10493188E+02</totfact>
</mgrwt>
</event>
<event>
 6    1  0.9906445E-006  0.6302207E+04  0.7818608E-02  0.7654021E-01
         -1   -1    0    0    0  501 -0.00000000000E+00  0.00000000000E+00  0.44705537306E+04  0.44705537306E+04  0.00000000000E+00 0.  1.
          1   -1    0    0  501    0  0.00000000000E+00 -0.00000000000E+00 -0.22210792338E+04  0.22210792338E+04  0.00000000000E+00 0. -1.
         23    2    1    2    0    0  0.26081846806E+04 -0.45148316946E+03 -0.68896775210E+03  0.27367742779E+04  0.93768352235E+02 0.  0.
         11    1    3    3    0    0  0.12628466143E+04 -0.17170959879E+03 -0.33953334512E+03  0.13189195010E+04  0.00000000000E+00 0.  1.
        -11    1    3    3    0    0  0.13453380663E+04 -0.27977357067E+03 -0.34943440698E+03  0.14178547769E+04  0.00000000000E+00 0. -1.
         22    1    1    2    0    0 -0.26081846806E+04  0.45148316946E+03  0.29384422489E+04  0.39548586865E+04  0.00000000000E+00 0. -1.
<mgrwt>
<rscale>  0 0.63022072E+04</rscale>
<asrwt>0</asrwt>
<pdfrwt beam="1">  1        1 0.34170450E+00 0.63022072E+04</pdfrwt>
<pdfrwt beam="2">  1       -1 0.68777749E+00 0.63022072E+04</pdfrwt>
<totfact> 0.30979125E-04</totfact>
</mgrwt>
</event>
<event>
 6    1  0.9906445E-006  0.1610802E+04  0.7818608E-02  0.8813939E-01
         -1   -1    0    0    0  501 -0.00000000000E+00  0.00000000000E+00  0.15832928697E+04  0.15832928697E+04  0.00000000000E+00 0.  1.
          1   -1    0    0  501    0  0.00000000000E+00 -0.00000000000E+00 -0.40969741111E+03  0.40969741111E+03  0.00000000000E+00 0. -1.
         23    2    1    2    0    0 -0.72891599419E+03  0.22537250527E+03  0.89755282981E+03  0.11816267213E+04  0.92354390745E+02 0.  0.
         13    1    3    3    0    0 -0.30407916590E+03  0.12681129822E+03  0.33552253616E+03  0.47023464011E+03  0.00000000000E+00 0.  1.
        -13    1    3    3    0    0 -0.42483682829E+03  0.98561207057E+02  0.56203029365E+03  0.71139208120E+03  0.00000000000E+00 0. -1.
         22    1    1    2    0    0  0.72891599419E+03 -0.22537250527E+03  0.27604262873E+03  0.81136355945E+03  0.00000000000E+00 0.  1.
<mgrwt>
<rscale>  0 0.16108023E+04</rscale>
<asrwt>0</asrwt>
<pdfrwt beam="1">  1        1 0.63030372E-01 0.16108023E+04</pdfrwt>
<pdfrwt beam="2">  1       -1 0.24358351E+00 0.16108023E+04</pdfrwt>
<totfact> 0.42790957E+00</totfact>
</mgrwt>
</event>
<event>
 6    1  0.9906445E-006  0.3022322E+04  0.7818608E-02  0.8237385E-01
          1   -1    0    0  501    0  0.00000000000E+00  0.00000000000E+00  0.17080625190E+04  0.17080625190E+04  0.00000000000E+00 0. -1.
         -1   -1    0    0    0  501 -0.00000000000E+00 -0.00000000000E+00 -0.13369577222E+04  0.13369577222E+04  0.00000000000E+00 0.  1.
         23    2    1    2    0    0  0.85080360779E+03 -0.12469566829E+04  0.15927448253E+03  0.15206712555E+04  0.91131546180E+02 0.  0.
         13    1    3    3    0    0  0.87751394043E+02 -0.14099034746E+03 -0.10141278651E+02  0.16637737456E+03  0.00000000000E+00 0. -1.
        -13    1    3    3    0    0  0.76305221374E+03 -0.11059663354E+04  0.16941576118E+03  0.13542938810E+04  0.00000000000E+00 0.  1.
         22    1    1    2    0    0 -0.85080360779E+03  0.12469566829E+04  0.21183031427E+03  0.15243489856E+04  0.00000000000E+00 0. -1.
<mgrwt>
<rscale>  0 0.30223219E+04</rscale>
<asrwt>0</asrwt>
<pdfrwt beam="1">  1        1 0.26277885E+00 0.30223219E+04</pdfrwt>
<pdfrwt beam="2">  1       -1 0.20568580E+00 0.30223219E+04</pdfrwt>
<totfact> 0.54991610E-01</totfact>
</mgrwt>
</event>
<event>
 6    1  0.1248932E-005  0.2648261E+04  0.7818608E-02  0.8351990E-01
         -1   -1    0    0    0  501 -0.00000000000E+00  0.00000000000E+00  0.12474822004E+04  0.12474822004E+04  0.00000000000E+00 0.  1.
          1   -1    0    0  501    0  0.00000000000E+00 -0.00000000000E+00 -0.14054885709E+04  0.14054885709E+04  0.00000000000E+00 0. -1.
         23    2    1    2    0    0  0.77119230497E+03  0.97603345563E+02  0.99283377150E+03  0.12641954055E+04  0.90593273434E+02 0.  0.
         11    1    3    3    0    0  0.50965489139E+03  0.10383971785E+03  0.63212477940E+03  0.81860401419E+03  0.00000000000E+00 0. -1.
        -11    1    3    3    0    0  0.26153741358E+03 -0.62363722844E+01  0.36070899211E+03  0.44559139133E+03  0.00000000000E+00 0.  1.
         22    1    1    2    0    0 -0.77119230497E+03 -0.97603345563E+02 -0.11508401419E+04  0.13887753658E+04  0.00000000000E+00 0. -1.
<mgrwt>
<rscale>  0 0.26482613E+04</rscale>
<asrwt>0</asrwt>
<pdfrwt beam="1">  1        1 0.21622901E+00 0.26482613E+04</pdfrwt>
<pdfrwt beam="2">  1       -1 0.19192034E+00 0.26482613E+04</pdfrwt>
<totfact> 0.11441590E+00</totfact>
</mgrwt>
</event>
<event>
 6    1  0.9906445E-006  0.1026825E+04  0.7818608E-02  0.9279603E-01
          1   -1    0    0  501    0  0.00000000000E+00  0.00000000000E+00  0.32536263642E+03  0.32536263642E+03  0.00000000000E+00 0. -1.
         -1   -1    0    0    0  501 -0.00000000000E+00 -0.00000000000E+00 -0.81014920793E+03  0.81014920793E+03  0.00000000000E+00 0.  1.
         23    2    1    2    0    0 -0.46503687169E+03 -0.18600303513E+03 -0.14220067403E+03  0.52869925528E+03  0.91899128050E+02 0.  0.
         13    1    3    3    0    0 -0.37189558303E+03 -0.16725908234E+03 -0.14726998973E+03  0.43355550415E+03  0.00000000000E+00 0. -1.
        -13    1    3    3    0    0 -0.93141288657E+02 -0.18743952794E+02  0.50693156933E+01  0.95143751139E+02  0.00000000000E+00 0.  1.
         22    1    1    2    0    0  0.46503687169E+03  0.18600303513E+03 -0.34258589747E+03  0.60681258907E+03  0.00000000000E+00 0.  1.
<mgrwt>
<rscale>  0 0.10268248E+04</rscale>
<asrwt>0</asrwt>
<pdfrwt beam="1">  1        1 0.50055791E-01 0.10268248E+04</pdfrwt>
<pdfrwt beam="2">  1       -1 0.12463834E+00 0.10268248E+04</pdfrwt>
<totfact> 0.44499818E+01</totfact>
</mgrwt>
</event>
<event>
 6    1  0.9906445E-006  0.6840735E+04  0.7818608E-02  0.7594087E-01
         -2   -1    0    0    0  501 -0.00000000000E+00  0.00000000000E+00  0.36914792023E+04  0.36914792023E+04  0.00000000000E+00 0.  1.
          2   -1    0    0  501    0  0.00000000000E+00 -0.00000000000E+00 -0.31691670683E+04  0.31691670683E+04  0.00000000000E+00 0. -1.
         23    2    1    2    0    0  0.27485678070E+04  0.17113169020E+04 -0.84269467672E+03  0.33468912817E+04  0.91194323205E+02 0.  0.
         13    1    3    3    0    0  0.11114793395E+04  0.65952476764E+03 -0.30008559744E+03  0.13268046605E+04  0.00000000000E+00 0. -1.
        -13    1    3    3    0    0  0.16370884675E+04  0.10517921344E+04 -0.54260907928E+03  0.20200866212E+04  0.00000000000E+00 0.  1.
         22    1    1    2    0    0 -0.27485678070E+04 -0.17113169020E+04  0.13650068107E+04  0.35137549889E+04  0.00000000000E+00 0.  1.
<mgrwt>
<rscale>  0 0.68407351E+04</rscale>
<asrwt>0</asrwt>
<pdfrwt beam="1">  1        2 0.48756416E+00 0.68407351E+04</pdfrwt>
<pdfrwt beam="2">  1       -2 0.56791988E+00 0.68407351E+04</pdfrwt>
<totfact> 0.61249726E-04</totfact>
</mgrwt>
</event>
<event>
 6    1  0.9906445E-006  0.1915961E+04  0.7818608E-02  0.8646952E-01
          1   -1    0    0  501    0  0.00000000000E+00  0.00000000000E+00  0.87137128995E+03  0.87137128995E+03  0.00000000000E+00 0. -1.
         -1   -1    0    0    0  501 -0.00000000000E+00 -0.00000000000E+00 -0.10531981479E+04  0.10531981479E+04  0.00000000000E+00 0.  1.
         23    2    1    2    0    0 -0.93274069818E+03  0.54928651224E+02  0.11116357276E+03  0.94535252658E+03  0.91168486049E+02 0.  0.
         11    1    3    3    0    0 -0.54579342514E+03  0.60234017057E+02  0.29846981342E+02  0.54991766841E+03  0.00000000000E+00 0. -1.
        -11    1    3    3    0    0 -0.38694727304E+03 -0.53053658323E+01  0.81316591416E+02  0.39543485818E+03  0.00000000000E+00 0.  1.
         22    1    1    2    0    0  0.93274069818E+03 -0.54928651224E+02 -0.29299043067E+03  0.97921691122E+03  0.00000000000E+00 0.  1.
<mgrwt>
<rscale>  0 0.19159610E+04</rscale>
<asrwt>0</asrwt>
<pdfrwt beam="1">  1        1 0.13405712E+00 0.19159610E+04</pdfrwt>
<pdfrwt beam="2">  1       -1 0.16203048E+00 0.19159610E+04</pdfrwt>
<totfact> 0.50652125E+00</totfact>
</mgrwt>
</event>
<event>
 6    1  0.9906445E-006  0.2931985E+04  0.7818608E-02  0.8263424E-01
         -2   -1    0    0    0  501 -0.00000000000E+00  0.00000000000E+00  0.14733102902E+04  0.14733102902E+04  0.00000000000E+00 0.  1.
          2   -1    0    0  501    0  0.00000000000E+00 -0.00000000000E+00 -0.14587111027E+04  0.14587111027E+04  0.00000000000E+00 0. -1.
         23    2    1    2    0    0 -0.70119668317E+02 -0.66668233552E+03  0.13095088577E+04  0.14738810848E+04  0.90165955554E+02 0.  0.
         11    1    3    3    0    0  0.71849620626E+01 -0.28441425386E+03  0.60722086101E+03  0.67056712232E+03  0.00000000000E+00 0.  1.
        -11    1    3    3    0    0 -0.77304630380E+02 -0.38226808166E+03  0.70228799664E+03  0.80331396250E+03  0.00000000000E+00 0. -1.
         22    1    1    2    0    0  0.70119668317E+02  0.66668233552E+03 -0.12949096702E+04  0.14581403082E+04  0.00000000000E+00 0. -1.
<mgrwt>
<rscale>  0 0.29319850E+04</rscale>
<asrwt>0</asrwt>
<pdfrwt beam="1">  1        2 0.22441709E+00 0.29319850E+04</pdfrwt>
<pdfrwt beam="2">  1       -2 0.22666312E+00 0.29319850E+04</pdfrwt>
<totfact> 0.10346656E+00</totfact>
</mgrwt>
</event>
<event>
 6    1  0.9906445E-006  0.2925645E+04  0.7818608E-02  0.8265288E-01
          1   -1    0    0  501    0  0.00000000000E+00  0.00000000000E+00  0.22909859188E+04  0.22909859188E+04  0.00000000000E+00 0. -1.
         -1   -1    0    0    0  501 -0.00000000000E+00 -0.00000000000E+00 -0.93403026755E+03  0.93403026755E+03  0.00000000000E+00 0.  1.
         23    2    1    2    0    0 -0.88506655148E+03 -0.48982416821E+03  0.18416062573E+04  0.21033403302E+04  0.96210299114E+02 0.  0.
         13    1    3    3    0    0 -0.45770037584E+03 -0.30479304183E+03  0.10309940052E+04  0.11684763888E+04  0.00000000000E+00 0. -1.
        -13    1    3    3    0    0 -0.42736617564E+03 -0.18503112637E+03  0.81061225208E+03  0.93486394146E+03  0.00000000000E+00 0.  1.
         22    1    1    2    0    0  0.88506655148E+03  0.48982416821E+03 -0.48465060601E+03  0.11216758561E+04  0.00000000000E+00 0.  1.
<mgrwt>
<rscale>  0 0.29256454E+04</rscale>
<asrwt>0</asrwt>
<pdfrwt beam="1">  1        1 0.35245937E+00 0.29256454E+04</pdfrwt>
<pdfrwt beam="2">  1       -1 0.14369696E+00 0.29256454E+04</pdfrwt>
<totfact> 0.63260155E-01</totfact>
</mgrwt>
</event>
<event>
 6    1  0.9906445E-006  0.6229452E+04  0.7818608E-02  0.7662586E-01
         -2   -1    0    0    0  501 -0.00000000000E+00  0.00000000000E+00  0.26783089589E+04  0.26783089589E+04  0.00000000000E+00 0.  1.
          2   -1    0    0  501    0  0.00000000000E+00 -0.00000000000E+00 -0.36222545347E+04  0.36222545347E+04  0.00000000000E+00 0. -1.
         23    2    1    2    0    0  0.24418936687E+03 -0.27043523481E+04 -0.20139189661E+04  0.33820033819E+04  0.94483880840E+02 0.  0.
         13    1    3    3    0    0  0.12636549487E+03 -0.13442186136E+04 -0.94289542792E+03  0.16467980166E+04  0.00000000000E+00 0.  1.
        -13    1    3    3    0    0  0.11782387201E+03 -0.13601337344E+04 -0.10710235382E+04  0.17352053653E+04  0.00000000000E+00 0. -1.
         22    1    1    2    0    0 -0.24418936687E+03  0.27043523481E+04  0.10699733904E+04  0.29185601117E+04  0.00000000000E+00 0.  1.
<mgrwt>
<rscale>  0 0.62294516E+04</rscale>
<asrwt>0</asrwt>
<pdfrwt beam="1">  1        2 0.55726993E+00 0.62294516E+04</pdfrwt>
<pdfrwt beam="2">  1       -2 0.41204753E+00 0.62294516E+04</pdfrwt>
<totfact> 0.27201322E-03</totfact>
</mgrwt>
</event>
<event>
 6    1  0.9906445E-006  0.1884161E+04  0.7818608E-02  0.8662781E-01
          1   -1    0    0  501    0  0.00000000000E+00  0.00000000000E+00  0.18663329292E+04  0.18663329292E+04  0.00000000000E+00 0. -1.
         -1   -1    0    0    0  501 -0.00000000000E+00 -0.00000000000E+00 -0.47553978099E+03  0.47553978099E+03  0.00000000000E+00 0.  1.
         23    2    1    2    0    0  0.92754573963E+03  0.97502427920E+02  0.55164650548E+03  0.10872752008E+04  0.89474424622E+02 0.  0.
         11    1    3    3    0    0  0.51379575740E+03  0.86460937837E+02  0.34274730635E+03  0.62364837056E+03  0.00000000000E+00 0. -1.
        -11    1    3    3    0    0  0.41374998224E+03  0.11041490083E+02  0.20889919913E+03  0.46362683022E+03  0.00000000000E+00 0.  1.
         22    1    1    2    0    0 -0.92754573963E+03 -0.97502427920E+02  0.83914664269E+03  0.12545975094E+04  0.00000000000E+00 0. -1.
<mgrwt>
<rscale>  0 0.18841609E+04</rscale>
<asrwt>0</asrwt>
<pdfrwt beam="1">  1        1 0.28712814E+00 0.18841609E+04</pdfrwt>
<pdfrwt beam="2">  1       -1 0.73159967E-01 0.18841609E+04</pdfrwt>
<totfact> 0.64785175E+00</totfact>
</mgrwt>
</event>
<event>
 6    1  0.9906445E-006  0.1412063E+04  0.7818608E-02  0.8945133E-01
          2   -1    0    0  501    0  0.00000000000E+00  0.00000000000E+00  0.25378376983E+04  0.25378376983E+04  0.00000000000E+00 0. -1.
         -2   -1    0    0    0  501 -0.00000000000E+00 -0.00000000000E+00 -0.19641926221E+03  0.19641926221E+03  0.00000000000E+00 0.  1.
         23    2    1    2    0    0  0.98275371245E+02 -0.51578822724E+03  0.26980018736E+03  0.59713325974E+03  0.89891294524E+02 0.  0.
         11    1    3    3    0    0  0.23796921255E+02 -0.33881186805E+03  0.19021760169E+03  0.38928461488E+03  0.00000000000E+00 0. -1.
        -11    1    3    3    0    0  0.74478449990E+02 -0.17697635919E+03  0.79582585670E+02  0.20784864486E+03  0.00000000000E+00 0.  1.
         22    1    1    2    0    0 -0.98275371245E+02  0.51578822724E+03  0.20716182488E+04  0.21371237008E+04  0.00000000000E+00 0. -1.
<mgrwt>
<rscale>  0 0.14120626E+04</rscale>
<asrwt>0</asrwt>
<pdfrwt beam="1">  1        2 0.39043655E+00 0.14120626E+04</pdfrwt>
<pdfrwt beam="2">  1       -2 0.30218350E-01 0.14120626E+04</pdfrwt>
<totfact> 0.32681379E+01</totfact>
</mgrwt>
</event>
<event>
 6    1  0.9906445E-006  0.1213551E+04  0.7818608E-02  0.9101078E-01
         -1   -1    0    0    0  501 -0.00000000000E+00  0.00000000000E+00  0.71966796996E+03  0.71966796996E+03  0.00000000000E+00 0.  1.
          1   -1    0    0  501    0  0.00000000000E+00 -0.00000000000E+00 -0.51159186183E+03  0.51159186183E+03  0.00000000000E+00 0. -1.
         23    2    1    2    0    0  0.26113552096E+03 -0.31485190060E+03  0.55431187931E+03  0.69534688283E+03  0.94457124123E+02 0.  0.
         13    1    3    3    0    0  0.17538403155E+03 -0.18583281680E+03  0.27116357549E+03  0.37258969255E+03  0.00000000000E+00 0. -1.
        -13    1    3    3    0    0  0.85751489416E+02 -0.12901908380E+03  0.28314830382E+03  0.32275719029E+03  0.00000000000E+00 0.  1.
         22    1    1    2    0    0 -0.26113552096E+03  0.31485190060E+03 -0.34623577118E+03  0.53591294896E+03  0.00000000000E+00 0. -1.
<mgrwt>
<rscale>  0 0.12135506E+04</rscale>
<asrwt>0</asrwt>
<pdfrwt beam="1">  1        1 0.78706440E-01 0.12135506E+04</pdfrwt>
<pdfrwt beam="2">  1       -1 0.11071815E+00 0.12135506E+04</pdfrwt>
<totfact> 0.31919155E+01</totfact>
</mgrwt>
</event>
<event>
 6    1  0.9906445E-006  0.2106933E+04  0.7818608E-02  0.8558196E-01
          1   -1    0    0  501    0  0.00000000000E+00  0.00000000000E+00  0.60296137997E+03  0.60296137997E+03  0.00000000000E+00 0. -1.
         -1   -1    0    0    0  501 -0.00000000000E+00 -0.00000000000E+00 -0.18405682077E+04  0.18405682077E+04  0.00000000000E+00 0.  1.
         23    2    1    2    0    0 -0.39909812021E+03 -0.97277728548E+03 -0.59735589324E+03  0.12124746678E+04  0.87668695081E+02 0.  0.
         11    1    3    3    0    0 -0.13313694121E+03 -0.27703699647E+03 -0.21606594015E+03  0.37571190162E+03  0.00000000000E+00 0. -1.
        -11    1    3    3    0    0 -0.26596117900E+03 -0.69574028901E+03 -0.38128995310E+03  0.83676276615E+03  0.00000000000E+00 0.  1.
         22    1    1    2    0    0  0.39909812021E+03  0.97277728548E+03 -0.64025093450E+03  0.12310549199E+04  0.00000000000E+00 0. -1.
<mgrwt>
<rscale>  0 0.21069329E+04</rscale>
<asrwt>0</asrwt>
<pdfrwt beam="1">  1        1 0.92763290E-01 0.21069329E+04</pdfrwt>
<pdfrwt beam="2">  1       -1 0.28316434E+00 0.21069329E+04</pdfrwt>
<totfact> 0.13273372E+00</totfact>
</mgrwt>
</event>
<event>
 6    1  0.9906445E-006  0.1989194E+04  0.7818608E-02  0.8611689E-01
         -1   -1    0    0    0  501 -0.00000000000E+00  0.00000000000E+00  0.12935607799E+04  0.12935607799E+04  0.00000000000E+00 0. -1.
          1   -1    0    0  501    0  0.00000000000E+00 -0.00000000000E+00 -0.76472895222E+03  0.76472895222E+03  0.00000000000E+00 0.  1.
         23    2    1    2    0    0  0.45505545729E+03 -0.73687383650E+03 -0.23719090614E+03  0.90206771674E+03  0.86070433383E+02 0.  0.
         11    1    3    3    0    0  0.17662941979E+03 -0.36092579624E+03 -0.91894632942E+02  0.41220141423E+03  0.00000000000E+00 0. -1.
        -11    1    3    3    0    0  0.27842603750E+03 -0.37594804026E+03 -0.14529627320E+03  0.48986630251E+03  0.00000000000E+00 0.  1.
         22    1    1    2    0    0 -0.45505545729E+03  0.73687383650E+03  0.76602273383E+03  0.11562220154E+04  0.00000000000E+00 0. -1.
<mgrwt>
<rscale>  0 0.19891942E+04</rscale>
<asrwt>0</asrwt>
<pdfrwt beam="1">  1        1 0.11765061E+00 0.19891942E+04</pdfrwt>
<pdfrwt beam="2">  1       -1 0.19900935E+00 0.19891942E+04</pdfrwt>
<totfact> 0.33721251E+00</totfact>
</mgrwt>
</event>
<event>
 6    1  0.9906445E-006  0.8418355E+04  0.7818608E-02  0.7446574E-01
         -2   -1    0    0    0  501 -0.00000000000E+00  0.00000000000E+00  0.47026401920E+04  0.47026401920E+04  0.00000000000E+00 0.  1.
          2   -1    0    0  501    0  0.00000000000E+00 -0.00000000000E+00 -0.37674958217E+04  0.37674958217E+04  0.00000000000E+00 0. -1.
         23    2    1    2    0    0  0.16503963734E+04  0.11013756337E+03 -0.34261754387E+04  0.38056908218E+04  0.93091471561E+02 0.  0.
         13    1    3    3    0    0  0.90374118413E+03  0.36308084686E+02 -0.19634682316E+04  0.21617756363E+04  0.00000000000E+00 0. -1.
        -13    1    3    3    0    0  0.74665518928E+03  0.73829478683E+02 -0.14627072070E+04  0.16439151855E+04  0.00000000000E+00 0.  1.
         22    1    1    2    0    0 -0.16503963734E+04 -0.11013756337E+03  0.43613198089E+04  0.46644451919E+04  0.00000000000E+00 0.  1.
<mgrwt>
<rscale>  0 0.84183555E+04</rscale>
<asrwt>0</asrwt>
<pdfrwt beam="1">  1        2 0.57961474E+00 0.84183555E+04</pdfrwt>
<pdfrwt beam="2">  1       -2 0.72348311E+00 0.84183555E+04</pdfrwt>
<totfact> 0.55625961E-05</totfact>
</mgrwt>
</event>
<event>
 6    1  0.9906445E-006  0.4222427E+04  0.7818608E-02  0.7961120E-01
          1   -1    0    0  501    0  0.00000000000E+00  0.00000000000E+00  0.21321519464E+04  0.21321519464E+04  0.00000000000E+00 0. -1.
         -1   -1    0    0    0  501 -0.00000000000E+00 -0.00000000000E+00 -0.20904804853E+04  0.20904804853E+04  0.00000000000E+00 0.  1.
         23    2    1    2    0    0  0.17085260476E+04  0.85118920783E+03 -0.87905958053E+03  0.21033566182E+04  0.88198607935E+02 0.  0.
         13    1    3    3    0    0  0.13104775727E+03  0.83120069085E+02 -0.91758190318E+02  0.18028318297E+03  0.00000000000E+00 0.  1.
        -13    1    3    3    0    0  0.15774782903E+04  0.76806913874E+03 -0.78730139022E+03  0.19230734352E+04  0.00000000000E+00 0. -1.
         22    1    1    2    0    0 -0.17085260476E+04 -0.85118920783E+03  0.92073104161E+03  0.21192758135E+04  0.00000000000E+00 0. -1.
<mgrwt>
<rscale>  0 0.42224268E+04</rscale>
<asrwt>0</asrwt>
<pdfrwt beam="1">  1        1 0.32802338E+00 0.42224268E+04</pdfrwt>
<pdfrwt beam="2">  1       -1 0.32161238E+00 0.42224268E+04</pdfrwt>
<totfact> 0.44490268E-02</totfact>
</mgrwt>
</event>
<event>
 6    1  0.9906445E-006  0.1971082E+04  0.7818608E-02  0.8620262E-01
          2   -1    0    0  501    0  0.00000000000E+00  0.00000000000E+00  0.22680425624E+04  0.22680425624E+04  0.00000000000E+00 0.  1.
         -2   -1    0    0    0  501 -0.00000000000E+00 -0.00000000000E+00 -0.42825060823E+03  0.42825060823E+03  0.00000000000E+00 0. -1.
         23    2    1    2    0    0 -0.56321528731E+03  0.18324679908E+03  0.19955773214E+04  0.20838718043E+04  0.96963919588E+02 0.  0.
         11    1    3    3    0    0 -0.13648230176E+03  0.87840796641E+02  0.58202124844E+03  0.60422856427E+03  0.00000000000E+00 0. -1.
        -11    1    3    3    0    0 -0.42673298555E+03  0.95406002439E+02  0.14135560730E+04  0.14796432400E+04  0.00000000000E+00 0.  1.
         22    1    1    2    0    0  0.56321528731E+03 -0.18324679908E+03 -0.15578536730E+03  0.61242136629E+03  0.00000000000E+00 0. -1.
<mgrwt>
<rscale>  0 0.19710815E+04</rscale>
<asrwt>0</asrwt>
<pdfrwt beam="1">  1        2 0.34892962E+00 0.19710815E+04</pdfrwt>
<pdfrwt beam="2">  1       -2 0.65884710E-01 0.19710815E+04</pdfrwt>
<totfact> 0.93349144E+00</totfact>
</mgrwt>
</event>
<event>
 6    1  0.9906445E-006  0.7972501E+03  0.7818608E-02  0.9564006E-01
         -1   -1    0    0    0  501 -0.00000000000E+00  0.00000000000E+00  0.90758600158E+03  0.90758600158E+03  0.00000000000E+00 0. -1.
          1   -1    0    0  501    0  0.00000000000E+00 -0.00000000000E+00 -0.17508193842E+03  0.17508193842E+03  0.00000000000E+00 0.  1.
         23    2    1    2    0    0  0.20671887628E+03  0.31971061027E+03  0.23773346954E+03  0.45837192974E+03  0.92951897782E+02 0.  0.
         13    1    3    3    0    0  0.14173862786E+03  0.15210333550E+03  0.16081814014E+03  0.26284546315E+03  0.00000000000E+00 0.  1.
        -13    1    3    3    0    0  0.64980248416E+02  0.16760727477E+03  0.76915329403E+02  0.19552646659E+03  0.00000000000E+00 0. -1.
         22    1    1    2    0    0 -0.20671887628E+03 -0.31971061027E+03  0.49477059361E+03  0.62429601026E+03  0.00000000000E+00 0. -1.
<mgrwt>
<rscale>  0 0.79725006E+03</rscale>
<asrwt>0</asrwt>
<pdfrwt beam="1">  1        1 0.26935683E-01 0.79725006E+03</pdfrwt>
<pdfrwt beam="2">  1       -1 0.13962861E+00 0.79725006E+03</pdfrwt>
<totfact> 0.75787020E+01</totfact>
</mgrwt>
</event>
<event>
 6    1  0.9906445E-006  0.1058349E+04  0.7818608E-02  0.9246766E-01
         -1   -1    0    0    0  501 -0.00000000000E+00  0.00000000000E+00  0.19193775489E+03  0.19193775489E+03  0.00000000000E+00 0.  1.
          1   -1    0    0  501    0  0.00000000000E+00 -0.00000000000E+00 -0.14589411870E+04  0.14589411870E+04  0.00000000000E+00 0. -1.
         23    2    1    2    0    0  0.30681114656E+03 -0.28987288337E+03 -0.15044202633E+03  0.45720028285E+03  0.90774044695E+02 0.  0.
         13    1    3    3    0    0  0.17015479199E+03 -0.21441125298E+03 -0.11628254039E+03  0.29739950881E+03  0.00000000000E+00 0. -1.
        -13    1    3    3    0    0  0.13665635457E+03 -0.75461630390E+02 -0.34159485939E+02  0.15980077404E+03  0.00000000000E+00 0.  1.
         22    1    1    2    0    0 -0.30681114656E+03  0.28987288337E+03 -0.11165614058E+04  0.11936786590E+04  0.00000000000E+00 0.  1.
<mgrwt>
<rscale>  0 0.10583495E+04</rscale>
<asrwt>0</asrwt>
<pdfrwt beam="1">  1        1 0.22445249E+00 0.10583495E+04</pdfrwt>
<pdfrwt beam="2">  1       -1 0.29528886E-01 0.10583495E+04</pdfrwt>
<totfact> 0.73205517E+01</totfact>
</mgrwt>
</event>
<event>
 6    1  0.9906445E-006  0.1910459E+04  0.7818608E-02  0.8649668E-01
         -1   -1    0    0    0  501 -0.00000000000E+00  0.00000000000E+00  0.96990712042E+03  0.96990712042E+03  0.00000000000E+00 0.  1.
          1   -1    0    0  501    0  0.00000000000E+00 -0.00000000000E+00 -0.94077410123E+03  0.94077410123E+03  0.00000000000E+00 0. -1.
         23    2    1    2    0    0  0.77365567993E+02  0.86118363142E+03 -0.38639566541E+03  0.95136544159E+03  0.90398645218E+02 0.  0.
         11    1    3    3    0    0  0.15901155357E+01  0.43211328625E+03 -0.22068444585E+03  0.48520721889E+03  0.00000000000E+00 0. -1.
        -11    1    3    3    0    0  0.75775452457E+02  0.42907034517E+03 -0.16571121956E+03  0.46615822270E+03  0.00000000000E+00 0.  1.
         22    1    1    2    0    0 -0.77365567993E+02 -0.86118363142E+03  0.41552868460E+03  0.95931578006E+03  0.00000000000E+00 0.  1.
<mgrwt>
<rscale>  0 0.19104591E+04</rscale>
<asrwt>0</asrwt>
<pdfrwt beam="1">  1        1 0.14473448E+00 0.19104591E+04</pdfrwt>
<pdfrwt beam="2">  1       -1 0.14921648E+00 0.19104591E+04</pdfrwt>
<totfact> 0.55774461E+00</totfact>
</mgrwt>
</event>
<event>
 6    1  0.9906445E-006  0.2971520E+04  0.7818608E-02  0.8251911E-01
          2   -1    0    0  501    0  0.00000000000E+00  0.00000000000E+00  0.23699425680E+04  0.23699425680E+04  0.00000000000E+00 0. -1.
         -2   -1    0    0    0  501 -0.00000000000E+00 -0.00000000000E+00 -0.93144969948E+03  0.93144969948E+03  0.00000000000E+00 0.  1.
         23    2    1    2    0    0 -0.16015538176E+03  0.68636870022E+03  0.21713559870E+04  0.22846129948E+04  0.88983003180E+02 0.  0.
         13    1    3    3    0    0 -0.29233307858E+02  0.20431722054E+03  0.75734397121E+03  0.78496496968E+03  0.00000000000E+00 0.  1.
        -13    1    3    3    0    0 -0.13092207390E+03  0.48205147968E+03  0.14140120158E+04  0.14996480252E+04  0.00000000000E+00 0. -1.
         22    1    1    2    0    0  0.16015538176E+03 -0.68636870022E+03 -0.73286311847E+03  0.10167792727E+04  0.00000000000E+00 0.  1.
<mgrwt>
<rscale>  0 0.29715197E+04</rscale>
<asrwt>0</asrwt>
<pdfrwt beam="1">  1        2 0.36460655E+00 0.29715197E+04</pdfrwt>
<pdfrwt beam="2">  1       -2 0.14329995E+00 0.29715197E+04</pdfrwt>
<totfact> 0.11992896E+00</totfact>
</mgrwt>
</event>
<event>
 6    1  0.9906445E-006  0.6523062E+03  0.7818608E-02  0.9802461E-01
          1   -1    0    0  501    0  0.00000000000E+00  0.00000000000E+00  0.22256897333E+04  0.22256897333E+04  0.00000000000E+00 0. -1.
         -1   -1    0    0    0  501 -0.00000000000E+00 -0.00000000000E+00 -0.47794558624E+02  0.47794558624E+02  0.00000000000E+00 0.  1.
         23    2    1    2    0    0  0.84118180082E+02  0.29360539925E+03  0.14402083670E+04  0.14750722273E+04  0.91421752057E+02 0.  0.
         11    1    3    3    0    0  0.41869389958E+02  0.17819741056E+03  0.10541202139E+04  0.10698956904E+04  0.00000000000E+00 0.  1.
        -11    1    3    3    0    0  0.42248790124E+02  0.11540798868E+03  0.38608815301E+03  0.40517653685E+03  0.00000000000E+00 0. -1.
         22    1    1    2    0    0 -0.84118180082E+02 -0.29360539925E+03  0.73768680771E+03  0.79841206463E+03  0.00000000000E+00 0.  1.
<mgrwt>
<rscale>  0 0.65230624E+03</rscale>
<asrwt>0</asrwt>
<pdfrwt beam="1">  1        1 0.34241372E+00 0.65230624E+03</pdfrwt>
<pdfrwt beam="2">  1       -1 0.73530108E-02 0.65230624E+03</pdfrwt>
<totfact> 0.22350575E+02</totfact>
</mgrwt>
</event>
<event>
 6    1  0.9906445E-006  0.1513731E+04  0.7818608E-02  0.8875373E-01
          1   -1    0    0  501    0  0.00000000000E+00  0.00000000000E+00  0.71801420663E+03  0.71801420663E+03  0.00000000000E+00 0.  1.
         -1   -1    0    0    0  501 -0.00000000000E+00 -0.00000000000E+00 -0.79781938199E+03  0.79781938199E+03  0.00000000000E+00 0. -1.
         23    2    1    2    0    0 -0.24073348794E+03  0.24833027987E+02  0.67573572317E+03  0.72247910237E+03  0.82389285127E+02 0.  0.
         11    1    3    3    0    0 -0.91444130316E+02  0.46430582582E+02  0.22764552471E+03  0.24968042151E+03  0.00000000000E+00 0.  1.
        -11    1    3    3    0    0 -0.14928935763E+03 -0.21597554595E+02  0.44809019846E+03  0.47279868086E+03  0.00000000000E+00 0. -1.
         22    1    1    2    0    0  0.24073348794E+03 -0.24833027987E+02 -0.75554089853E+03  0.79335448625E+03  0.00000000000E+00 0. -1.
<mgrwt>
<rscale>  0 0.15137314E+04</rscale>
<asrwt>0</asrwt>
<pdfrwt beam="1">  1        1 0.11046372E+00 0.15137314E+04</pdfrwt>
<pdfrwt beam="2">  1       -1 0.12274144E+00 0.15137314E+04</pdfrwt>
<totfact> 0.14831373E+01</totfact>
</mgrwt>
</event>
<event>
 6    1  0.9906445E-006  0.1219687E+04  0.7818608E-02  0.9095797E-01
         -1   -1    0    0    0  501 -0.00000000000E+00  0.00000000000E+00  0.82855286608E+03  0.82855286608E+03  0.00000000000E+00 0.  1.
          1   -1    0    0  501    0  0.00000000000E+00 -0.00000000000E+00 -0.44886551187E+03  0.44886551187E+03  0.00000000000E+00 0. -1.
         23    2    1    2    0    0  0.46799509175E+02  0.29016673872E+03  0.74635319310E+03  0.80749203508E+03  0.92808229976E+02 0.  0.
         13    1    3    3    0    0  0.20826478122E+02  0.83944666641E+02  0.34297577913E+03  0.35371292642E+03  0.00000000000E+00 0.  1.
        -13    1    3    3    0    0  0.25973031053E+02  0.20622207208E+03  0.40337741397E+03  0.45377910865E+03  0.00000000000E+00 0. -1.
         22    1    1    2    0    0 -0.46799509175E+02 -0.29016673872E+03 -0.36666583889E+03  0.46992634287E+03  0.00000000000E+00 0. -1.
<mgrwt>
<rscale>  0 0.12196865E+04</rscale>
<asrwt>0</asrwt>
<pdfrwt beam="1">  1        1 0.69056233E-01 0.12196865E+04</pdfrwt>
<pdfrwt beam="2">  1       -1 0.12746967E+00 0.12196865E+04</pdfrwt>
<totfact> 0.27069088E+01</totfact>
</mgrwt>
</event>
<event>
 6    1  0.9906445E-006  0.3838835E+04  0.7818608E-02  0.8037872E-01
         -2   -1    0    0    0  501 -0.00000000000E+00  0.00000000000E+00  0.26388967085E+04  0.26388967085E+04  0.00000000000E+00 0.  1.
          2   -1    0    0  501    0  0.00000000000E+00 -0.00000000000E+00 -0.13960997483E+04  0.13960997483E+04  0.00000000000E+00 0. -1.
         23    2    1    2    0    0 -0.13575876942E+04 -0.13374120188E+04  0.85725414635E+03  0.20906820489E+04  0.65965920909E+02 0.  0.
         11    1    3    3    0    0 -0.10685794426E+04 -0.10749198474E+04  0.70494229731E+03  0.16716035254E+04  0.00000000000E+00 0. -1.
        -11    1    3    3    0    0 -0.28900825155E+03 -0.26249217147E+03  0.15231184904E+03  0.41907852356E+03  0.00000000000E+00 0.  1.
         22    1    1    2    0    0  0.13575876942E+04  0.13374120188E+04  0.38554281391E+03  0.19443144079E+04  0.00000000000E+00 0. -1.
<mgrwt>
<rscale>  0 0.38388347E+04</rscale>
<asrwt>0</asrwt>
<pdfrwt beam="1">  1        2 0.21478458E+00 0.38388347E+04</pdfrwt>
<pdfrwt beam="2">  1       -2 0.40598411E+00 0.38388347E+04</pdfrwt>
<totfact> 0.78788155E-02</totfact>
</mgrwt>
</event>
<event>
 6    1  0.9906445E-006  0.1338876E+04  0.7818608E-02  0.8999292E-01
          1   -1    0    0  501    0  0.00000000000E+00  0.00000000000E+00  0.11712332101E+04  0.11712332101E+04  0.00000000000E+00 0. -1.
         -1   -1    0    0    0  501 -0.00000000000E+00 -0.00000000000E+00 -0.38262852051E+03  0.38262852051E+03  0.00000000000E+00 0.  1.
         23    2    1    2    0    0  0.22941948904E+03 -0.61834563402E+03  0.28543490649E+03  0.72430494793E+03  0.90332423337E+02 0.  0.
         13    1    3    3    0    0  0.13111456751E+03 -0.38584508478E+03  0.12949561987E+03  0.42759393685E+03  0.00000000000E+00 0. -1.
        -13    1    3    3    0    0  0.98304921524E+02 -0.23250054923E+03  0.15593928661E+03  0.29671101109E+03  0.00000000000E+00 0.  1.
         22    1    1    2    0    0 -0.22941948904E+03  0.61834563402E+03  0.50316978312E+03  0.82955678269E+03  0.00000000000E+00 0. -1.
<mgrwt>
<rscale>  0 0.13388760E+04</rscale>
<asrwt>0</asrwt>
<pdfrwt beam="1">  1        1 0.18018972E+00 0.13388760E+04</pdfrwt>
<pdfrwt beam="2">  1       -1 0.58865927E-01 0.13388760E+04</pdfrwt>
<totfact> 0.32144570E+01</totfact>
</mgrwt>
</event>
<event>
 6    1  0.9906445E-006  0.4315306E+04  0.7818608E-02  0.7943794E-01
         -2   -1    0    0    0  501 -0.00000000000E+00  0.00000000000E+00  0.15779453840E+04  0.15779453840E+04  0.00000000000E+00 0.  1.
          2   -1    0    0  501    0  0.00000000000E+00 -0.00000000000E+00 -0.29503347411E+04  0.29503347411E+04  0.00000000000E+00 0. -1.
         23    2    1    2    0    0  0.12727526327E+04 -0.69345559141E+03 -0.23623590413E+04  0.27730536734E+04  0.91140081652E+02 0.  0.
         11    1    3    3    0    0  0.82922827333E+03 -0.49395636040E+03 -0.16122985728E+04  0.18791272185E+04  0.00000000000E+00 0. -1.
        -11    1    3    3    0    0  0.44352435936E+03 -0.19949923101E+03 -0.75006046845E+03  0.89392645494E+03  0.00000000000E+00 0.  1.
         22    1    1    2    0    0 -0.12727526327E+04  0.69345559141E+03  0.98996968416E+03  0.17552264517E+04  0.00000000000E+00 0.  1.
<mgrwt>
<rscale>  0 0.43153063E+04</rscale>
<asrwt>0</asrwt>
<pdfrwt beam="1">  1        2 0.45389765E+00 0.43153063E+04</pdfrwt>
<pdfrwt beam="2">  1       -2 0.24276083E+00 0.43153063E+04</pdfrwt>
<totfact> 0.10237894E-01</totfact>
</mgrwt>
</event>
<event>
 6    1  0.9906445E-006  0.4811967E+04  0.7818608E-02  0.7858186E-01
         -1   -1    0    0    0  501 -0.00000000000E+00  0.00000000000E+00  0.19861960194E+04  0.19861960194E+04  0.00000000000E+00 0.  1.
          1   -1    0    0  501    0  0.00000000000E+00 -0.00000000000E+00 -0.29144937980E+04  0.29144937980E+04  0.00000000000E+00 0. -1.
         23    2    1    2    0    0 -0.53877886639E+03  0.14158130103E+04  0.14382866983E+04  0.20907910233E+04  0.89046783697E+02 0.  0.
         13    1    3    3    0    0 -0.29560771247E+03  0.89811706605E+03  0.89672158381E+03  0.13031146469E+04  0.00000000000E+00 0. -1.
        -13    1    3    3    0    0 -0.24317115393E+03  0.51769594420E+03  0.54156511447E+03  0.78767637641E+03  0.00000000000E+00 0.  1.
         22    1    1    2    0    0  0.53877886639E+03 -0.14158130103E+04 -0.23665844769E+04  0.28098987941E+04  0.00000000000E+00 0. -1.
<mgrwt>
<rscale>  0 0.48119667E+04</rscale>
<asrwt>0</asrwt>
<pdfrwt beam="1">  1        1 0.44838366E+00 0.48119667E+04</pdfrwt>
<pdfrwt beam="2">  1       -1 0.30556862E+00 0.48119667E+04</pdfrwt>
<totfact> 0.15356148E-02</totfact>
</mgrwt>
</event>
<event>
 6    1  0.9906445E-006  0.8834550E+03  0.7818608E-02  0.9446503E-01
          3   -1    0    0  501    0  0.00000000000E+00  0.00000000000E+00  0.92943242758E+03  0.92943242758E+03  0.00000000000E+00 0. -1.
         -3   -1    0    0    0  501 -0.00000000000E+00 -0.00000000000E+00 -0.20993797893E+03  0.20993797893E+03  0.00000000000E+00 0.  1.
         23    2    1    2    0    0 -0.41737815674E+03 -0.56768993940E+02  0.20969835860E+03  0.47806919085E+03  0.84554747027E+02 0.  0.
         13    1    3    3    0    0 -0.23779727455E+03  0.47605488943E+01  0.13911854467E+03  0.27554341959E+03  0.00000000000E+00 0. -1.
        -13    1    3    3    0    0 -0.17958088219E+03 -0.61529542834E+02  0.70579813927E+02  0.20252577126E+03  0.00000000000E+00 0.  1.
         22    1    1    2    0    0  0.41737815674E+03  0.56768993940E+02  0.50979609006E+03  0.66130121566E+03  0.00000000000E+00 0. -1.
<mgrwt>
<rscale>  0 0.88345496E+03</rscale>
<asrwt>0</asrwt>
<pdfrwt beam="1">  1        3 0.14298960E+00 0.88345496E+03</pdfrwt>
<pdfrwt beam="2">  1       -3 0.32298151E-01 0.88345496E+03</pdfrwt>
<totfact> 0.90743134E+00</totfact>
</mgrwt>
</event>
<event>
 6    1  0.9906445E-006  0.1642367E+04  0.7818608E-02  0.8794935E-01
          1   -1    0    0  501    0  0.00000000000E+00  0.00000000000E+00  0.98596673717E+03  0.98596673717E+03  0.00000000000E+00 0. -1.
         -1   -1    0    0    0  501 -0.00000000000E+00 -0.00000000000E+00 -0.68394025556E+03  0.68394025556E+03  0.00000000000E+00 0.  1.
         23    2    1    2    0    0  0.28080939830E+01  0.52780632182E+03  0.78782693463E+03  0.95255806863E+03  0.90045524254E+02 0.  0.
         13    1    3    3    0    0 -0.34709746963E+02  0.14698774584E+03  0.18940204929E+03  0.24224636269E+03  0.00000000000E+00 0.  1.
        -13    1    3    3    0    0  0.37517840946E+02  0.38081857598E+03  0.59842488534E+03  0.71031170594E+03  0.00000000000E+00 0. -1.
         22    1    1    2    0    0 -0.28080939830E+01 -0.52780632182E+03 -0.48580045303E+03  0.71734892410E+03  0.00000000000E+00 0.  1.
<mgrwt>
<rscale>  0 0.16423670E+04</rscale>
<asrwt>0</asrwt>
<pdfrwt beam="1">  1        1 0.15168719E+00 0.16423670E+04</pdfrwt>
<pdfrwt beam="2">  1       -1 0.10522158E+00 0.16423670E+04</pdfrwt>
<totfact> 0.12575017E+01</totfact>
</mgrwt>
</event>
<event>
 6    1  0.9906445E-006  0.1782919E+04  0.7818608E-02  0.8715436E-01
          2   -1    0    0  501    0  0.00000000000E+00  0.00000000000E+00  0.17776491080E+04  0.17776491080E+04  0.00000000000E+00 0. -1.
         -2   -1    0    0    0  501 -0.00000000000E+00 -0.00000000000E+00 -0.44705094286E+03  0.44705094286E+03  0.00000000000E+00 0.  1.
         23    2    1    2    0    0 -0.68989004773E+03  0.43079152885E+02 -0.30859764257E+02  0.69781702164E+03  0.90510658326E+02 0.  0.
         11    1    3    3    0    0 -0.13366853571E+03  0.39198881492E+02  0.12721237642E+02  0.13987730207E+03  0.00000000000E+00 0.  1.
        -11    1    3    3    0    0 -0.55622151203E+03  0.38802713931E+01 -0.43581001899E+02  0.55793971957E+03  0.00000000000E+00 0. -1.
         22    1    1    2    0    0  0.68989004773E+03 -0.43079152885E+02  0.13614579294E+04  0.15268830292E+04  0.00000000000E+00 0. -1.
<mgrwt>
<rscale>  0 0.17829186E+04</rscale>
<asrwt>0</asrwt>
<pdfrwt beam="1">  1        2 0.27348447E+00 0.17829186E+04</pdfrwt>
<pdfrwt beam="2">  1       -2 0.68777069E-01 0.17829186E+04</pdfrwt>
<totfact> 0.16213455E+01</totfact>
</mgrwt>
</event>
<event>
 6    1  0.9906445E-006  0.2932661E+04  0.7818608E-02  0.8263226E-01
          1   -1    0    0  501    0  0.00000000000E+00  0.00000000000E+00  0.16076772997E+04  0.16076772997E+04  0.00000000000E+00 0. -1.
         -1   -1    0    0    0  501 -0.00000000000E+00 -0.00000000000E+00 -0.13374104930E+04  0.13374104930E+04  0.00000000000E+00 0.  1.
         23    2    1    2    0    0  0.21793401789E+03  0.54381590616E+03  0.14836183948E+04  0.15977003012E+04  0.91058965268E+02 0.  0.
         13    1    3    3    0    0  0.13298263085E+03  0.34319283854E+03  0.80937129325E+03  0.88912743455E+03  0.00000000000E+00 0.  1.
        -13    1    3    3    0    0  0.84951387035E+02  0.20062306762E+03  0.67424710151E+03  0.70857286662E+03  0.00000000000E+00 0. -1.
         22    1    1    2    0    0 -0.21793401789E+03 -0.54381590616E+03 -0.12133515881E+04  0.13473874915E+04  0.00000000000E+00 0.  1.
<mgrwt>
<rscale>  0 0.29326606E+04</rscale>
<asrwt>0</asrwt>
<pdfrwt beam="1">  1        1 0.24733497E+00 0.29326606E+04</pdfrwt>
<pdfrwt beam="2">  1       -1 0.20575546E+00 0.29326606E+04</pdfrwt>
<totfact> 0.64842997E-01</totfact>
</mgrwt>
</event>
<event>
 6    1  0.9906445E-006  0.2804397E+04  0.7818608E-02  0.8301904E-01
         -2   -1    0    0    0  501 -0.00000000000E+00  0.00000000000E+00  0.83408858129E+03  0.83408858129E+03  0.00000000000E+00 0.  1.
          2   -1    0    0  501    0  0.00000000000E+00 -0.00000000000E+00 -0.23572570548E+04  0.23572570548E+04  0.00000000000E+00 0. -1.
         23    2    1    2    0    0 -0.80078533569E+03  0.46046994530E+01 -0.20701664238E+04  0.22215595181E+04  0.91974524462E+02 0.  0.
         11    1    3    3    0    0 -0.64954241519E+03  0.19808627756E+02 -0.17602343614E+04  0.18763589043E+04  0.00000000000E+00 0. -1.
        -11    1    3    3    0    0 -0.15124292050E+03 -0.15203928303E+02 -0.30993206238E+03  0.34520061374E+03  0.00000000000E+00 0.  1.
         22    1    1    2    0    0  0.80078533569E+03 -0.46046994530E+01  0.54699795025E+03  0.96978611801E+03  0.00000000000E+00 0.  1.
<mgrwt>
<rscale>  0 0.28043974E+04</rscale>
<asrwt>0</asrwt>
<pdfrwt beam="1">  1        2 0.36265493E+00 0.28043974E+04</pdfrwt>
<pdfrwt beam="2">  1       -2 0.12832132E+00 0.28043974E+04</pdfrwt>
<totfact> 0.16417281E+00</totfact>
</mgrwt>
</event>
<event>
 6    1  0.9906445E-006  0.4040755E+04  0.7818608E-02  0.7996375E-01
         -1   -1    0    0    0  501 -0.00000000000E+00  0.00000000000E+00  0.10878980779E+04  0.10878980779E+04  0.00000000000E+00 0.  1.
          1   -1    0    0  501    0  0.00000000000E+00 -0.00000000000E+00 -0.37521208611E+04  0.37521208611E+04  0.00000000000E+00 0. -1.
         23    2    1    2    0    0 -0.18469705758E+04 -0.79941289568E+03 -0.15310182591E+04  0.25303623024E+04  0.91406704307E+02 0.  0.
         13    1    3    3    0    0 -0.34573256681E+03 -0.11160038475E+03 -0.28088628369E+03  0.45921972736E+03  0.00000000000E+00 0.  1.
        -13    1    3    3    0    0 -0.15012380090E+04 -0.68781251094E+03 -0.12501319754E+04  0.20711425750E+04  0.00000000000E+00 0. -1.
         22    1    1    2    0    0  0.18469705758E+04  0.79941289568E+03 -0.11332045241E+04  0.23096566366E+04  0.00000000000E+00 0.  1.
<mgrwt>
<rscale>  0 0.40407549E+04</rscale>
<asrwt>0</asrwt>
<pdfrwt beam="1">  1        1 0.57724936E+00 0.40407549E+04</pdfrwt>
<pdfrwt beam="2">  1       -1 0.16736894E+00 0.40407549E+04</pdfrwt>
<totfact> 0.31291890E-02</totfact>
</mgrwt>
</event>
<event>
 6    1  0.9906445E-006  0.4879180E+04  0.7818608E-02  0.7847420E-01
          2   -1    0    0  501    0  0.00000000000E+00  0.00000000000E+00  0.15473974748E+04  0.15473974748E+04  0.00000000000E+00 0. -1.
         -2   -1    0    0    0  501 -0.00000000000E+00 -0.00000000000E+00 -0.38462001429E+04  0.38462001429E+04  0.00000000000E+00 0.  1.
         23    2    1    2    0    0  0.12485631808E+04 -0.66028594636E+03  0.10479468003E+04  0.17610200821E+04  0.90064898371E+02 0.  0.
         13    1    3    3    0    0  0.79669893326E+03 -0.39694272255E+03  0.61267733585E+03  0.10805860600E+04  0.00000000000E+00 0. -1.
        -13    1    3    3    0    0  0.45186424755E+03 -0.26334322381E+03  0.43526946450E+03  0.68043402212E+03  0.00000000000E+00 0.  1.
         22    1    1    2    0    0 -0.12485631808E+04  0.66028594636E+03 -0.33467494684E+04  0.36325775355E+04  0.00000000000E+00 0.  1.
<mgrwt>
<rscale>  0 0.48791804E+04</rscale>
<asrwt>0</asrwt>
<pdfrwt beam="1">  1        2 0.23806115E+00 0.48791804E+04</pdfrwt>
<pdfrwt beam="2">  1       -2 0.59172309E+00 0.48791804E+04</pdfrwt>
<totfact> 0.48531202E-03</totfact>
</mgrwt>
</event>
<event>
 6    1  0.9906445E-006  0.3774916E+04  0.7818608E-02  0.8051559E-01
         -1   -1    0    0    0  501 -0.00000000000E+00  0.00000000000E+00  0.24167460638E+04  0.24167460638E+04  0.00000000000E+00 0.  1.
          1   -1    0    0  501    0  0.00000000000E+00 -0.00000000000E+00 -0.14740884978E+04  0.14740884978E+04  0.00000000000E+00 0. -1.
         23    2    1    2    0    0 -0.92608652306E+03 -0.16431977517E+04  0.44871441719E+03  0.19410358711E+04  0.92414961813E+02 0.  0.
         13    1    3    3    0    0 -0.39227589995E+03 -0.73152291670E+03  0.24110552522E+03  0.86437146739E+03  0.00000000000E+00 0. -1.
        -13    1    3    3    0    0 -0.53381062312E+03 -0.91167483499E+03  0.20760889198E+03  0.10766644037E+04  0.00000000000E+00 0.  1.
         22    1    1    2    0    0  0.92608652306E+03  0.16431977517E+04  0.49394314884E+03  0.19497986905E+04  0.00000000000E+00 0.  1.
<mgrwt>
<rscale>  0 0.37749159E+04</rscale>
<asrwt>0</asrwt>
<pdfrwt beam="1">  1        1 0.22678285E+00 0.37749159E+04</pdfrwt>
<pdfrwt beam="2">  1       -1 0.37180709E+00 0.37749159E+04</pdfrwt>
<totfact> 0.60370665E-02</totfact>
</mgrwt>
</event>
<event>
 6    1  0.9906445E-006  0.2243868E+04  0.7818608E-02  0.8500388E-01
         -2   -1    0    0    0  501 -0.00000000000E+00  0.00000000000E+00  0.48032545694E+03  0.48032545694E+03  0.00000000000E+00 0.  1.
          2   -1    0    0  501    0  0.00000000000E+00 -0.00000000000E+00 -0.26205892485E+04  0.26205892485E+04  0.00000000000E+00 0. -1.
         23    2    1    2    0    0 -0.60639180804E+03  0.78323637350E+03 -0.34940202243E+03  0.10543673403E+04  0.91861163736E+02 0.  0.
         13    1    3    3    0    0 -0.21942089552E+03  0.28099879370E+03 -0.79451839441E+02  0.36526489873E+03  0.00000000000E+00 0. -1.
        -13    1    3    3    0    0 -0.38697091252E+03  0.50223757980E+03 -0.26995018299E+03  0.68910244158E+03  0.00000000000E+00 0.  1.
         22    1    1    2    0    0  0.60639180804E+03 -0.78323637350E+03 -0.17908617692E+04  0.20465473652E+04  0.00000000000E+00 0. -1.
<mgrwt>
<rscale>  0 0.22438678E+04</rscale>
<asrwt>0</asrwt>
<pdfrwt beam="1">  1        2 0.40316758E+00 0.22438678E+04</pdfrwt>
<pdfrwt beam="2">  1       -2 0.73896224E-01 0.22438678E+04</pdfrwt>
<totfact> 0.44486441E+00</totfact>
</mgrwt>
</event>
<event>
 6    1  0.9906445E-006  0.1099745E+04  0.7818608E-02  0.9205440E-01
          1   -1    0    0  501    0  0.00000000000E+00  0.00000000000E+00  0.91302827549E+03  0.91302827549E+03  0.00000000000E+00 0. -1.
         -1   -1    0    0    0  501 -0.00000000000E+00 -0.00000000000E+00 -0.33116156141E+03  0.33116156141E+03  0.00000000000E+00 0.  1.
         23    2    1    2    0    0  0.12967644891E+03  0.45759874431E+03 -0.11779575343E+02  0.48351348710E+03  0.86220308593E+02 0.  0.
         13    1    3    3    0    0  0.77134607971E+01  0.16760010822E+03  0.10636107140E+02  0.16811430792E+03  0.00000000000E+00 0. -1.
        -13    1    3    3    0    0  0.12196298811E+03  0.28999863609E+03 -0.22415682483E+02  0.31539917917E+03  0.00000000000E+00 0.  1.
         22    1    1    2    0    0 -0.12967644891E+03 -0.45759874431E+03  0.59364628943E+03  0.76067634980E+03  0.00000000000E+00 0. -1.
<mgrwt>
<rscale>  0 0.10997452E+04</rscale>
<asrwt>0</asrwt>
<pdfrwt beam="1">  1        1 0.14046589E+00 0.10997452E+04</pdfrwt>
<pdfrwt beam="2">  1       -1 0.50947933E-01 0.10997452E+04</pdfrwt>
<totfact> 0.68494283E+01</totfact>
</mgrwt>
</event>
<event>
 6    1  0.9906445E-006  0.1108879E+04  0.7818608E-02  0.9196581E-01
         -1   -1    0    0    0  501 -0.00000000000E+00  0.00000000000E+00  0.23758117668E+03  0.23758117668E+03  0.00000000000E+00 0.  1.
          1   -1    0    0  501    0  0.00000000000E+00 -0.00000000000E+00 -0.12938871635E+04  0.12938871635E+04  0.00000000000E+00 0. -1.
         23    2    1    2    0    0 -0.35070077005E+03  0.44429464801E+02  0.53326947186E+02  0.36688676053E+03  0.82444674142E+02 0.  0.
         11    1    3    3    0    0 -0.12207311378E+03  0.51964930945E+02  0.36047973810E+02  0.13748329198E+03  0.00000000000E+00 0. -1.
        -11    1    3    3    0    0 -0.22862765627E+03 -0.75354661442E+01  0.17278973376E+02  0.22940346855E+03  0.00000000000E+00 0.  1.
         22    1    1    2    0    0  0.35070077005E+03 -0.44429464801E+02 -0.11096329340E+04  0.11645815797E+04  0.00000000000E+00 0. -1.
<mgrwt>
<rscale>  0 0.11088791E+04</rscale>
<asrwt>0</asrwt>
<pdfrwt beam="1">  1        1 0.19905957E+00 0.11088791E+04</pdfrwt>
<pdfrwt beam="2">  1       -1 0.36550950E-01 0.11088791E+04</pdfrwt>
<totfact> 0.65265512E+01</totfact>
</mgrwt>
</event>
<event>
 6    1  0.9906445E-006  0.5275032E+04  0.7818608E-02  0.7787427E-01
          2   -1    0    0  501    0  0.00000000000E+00  0.00000000000E+00  0.27848735547E+04  0.27848735547E+04  0.00000000000E+00 0. -1.
         -2   -1    0    0    0  501 -0.00000000000E+00 -0.00000000000E+00 -0.24979552172E+04  0.24979552172E+04  0.00000000000E+00 0.  1.
         23    2    1    2    0    0 -0.39594065828E+03  0.39355508331E+03  0.27242168428E+04  0.27824130840E+04  0.93864558088E+02 0.  0.
         13    1    3    3    0    0 -0.23972470102E+03  0.28378601940E+03  0.19439139093E+04  0.19790916411E+04  0.00000000000E+00 0.  1.
        -13    1    3    3    0    0 -0.15621595726E+03  0.10976906391E+03  0.78030293350E+03  0.80332144296E+03  0.00000000000E+00 0. -1.
         22    1    1    2    0    0  0.39594065828E+03 -0.39355508331E+03 -0.24372985052E+04  0.25004156879E+04  0.00000000000E+00 0.  1.
<mgrwt>
<rscale>  0 0.52750315E+04</rscale>
<asrwt>0</asrwt>
<pdfrwt beam="1">  1        2 0.42844209E+00 0.52750315E+04</pdfrwt>
<pdfrwt beam="2">  1       -2 0.38430080E+00 0.52750315E+04</pdfrwt>
<totfact> 0.15805178E-02</totfact>
</mgrwt>
</event>
<event>
 6    1  0.9906445E-006  0.1446030E+04  0.7818608E-02  0.8921157E-01
          2   -1    0    0  501    0  0.00000000000E+00  0.00000000000E+00  0.79626067915E+03  0.79626067915E+03  0.00000000000E+00 0. -1.
         -2   -1    0    0    0  501 -0.00000000000E+00 -0.00000000000E+00 -0.65650695847E+03  0.65650695847E+03  0.00000000000E+00 0.  1.
         23    2    1    2    0    0  0.37625894349E+02 -0.52254036731E+03  0.56660728543E+03  0.77699540592E+03  0.90630577191E+02 0.  0.
         13    1    3    3    0    0  0.36372834153E+02 -0.14074798155E+03  0.11317382672E+03  0.18423162711E+03  0.00000000000E+00 0.  1.
        -13    1    3    3    0    0  0.12530601961E+01 -0.38179238576E+03  0.45343345871E+03  0.59276377881E+03  0.00000000000E+00 0. -1.
         22    1    1    2    0    0 -0.37625894349E+02  0.52254036731E+03 -0.42685356475E+03  0.67577223170E+03  0.00000000000E+00 0.  1.
<mgrwt>
<rscale>  0 0.14460300E+04</rscale>
<asrwt>0</asrwt>
<pdfrwt beam="1">  1        2 0.12250164E+00 0.14460300E+04</pdfrwt>
<pdfrwt beam="2">  1       -2 0.10100107E+00 0.14460300E+04</pdfrwt>
<totfact> 0.27128909E+01</totfact>
</mgrwt>
</event>
<event>
 6    1  0.9906445E-006  0.7746525E+03  0.7818608E-02  0.9597449E-01
          2   -1    0    0  501    0  0.00000000000E+00  0.00000000000E+00  0.33464614059E+03  0.33464614059E+03  0.00000000000E+00 0. -1.
         -2   -1    0    0    0  501 -0.00000000000E+00 -0.00000000000E+00 -0.44829925585E+03  0.44829925585E+03  0.00000000000E+00 0.  1.
         23    2    1    2    0    0  0.15147964537E+03  0.24681544050E+03  0.19428244070E+03  0.36023006522E+03  0.90311065176E+02 0.  0.
         11    1    3    3    0    0  0.53958254023E+01  0.50934668105E+02  0.68117259253E+02  0.85225678964E+02  0.00000000000E+00 0.  1.
        -11    1    3    3    0    0  0.14608381996E+03  0.19588077239E+03  0.12616518145E+03  0.27500438625E+03  0.00000000000E+00 0. -1.
         22    1    1    2    0    0 -0.15147964537E+03 -0.24681544050E+03 -0.30793555595E+03  0.42271533122E+03  0.00000000000E+00 0.  1.
<mgrwt>
<rscale>  0 0.77465248E+03</rscale>
<asrwt>0</asrwt>
<pdfrwt beam="1">  1        2 0.51484022E-01 0.77465248E+03</pdfrwt>
<pdfrwt beam="2">  1       -2 0.68969116E-01 0.77465248E+03</pdfrwt>
<totfact> 0.18815593E+02</totfact>
</mgrwt>
</event>
<event>
 6    1  0.9906445E-006  0.1767687E+04  0.7818608E-02  0.8723674E-01
         -1   -1    0    0    0  501 -0.00000000000E+00  0.00000000000E+00  0.12219869370E+04  0.12219869370E+04  0.00000000000E+00 0. -1.
          1   -1    0    0  501    0  0.00000000000E+00 -0.00000000000E+00 -0.63927002372E+03  0.63927002372E+03  0.00000000000E+00 0.  1.
         23    2    1    2    0    0  0.17972521116E+03 -0.22881030569E+03  0.11680790291E+04  0.12075719341E+04  0.95739492176E+02 0.  0.
         13    1    3    3    0    0  0.12105263976E+03 -0.16455504556E+03  0.62424871411E+03  0.65682460496E+03  0.00000000000E+00 0.  1.
        -13    1    3    3    0    0  0.58672571401E+02 -0.64255260133E+02  0.54383031494E+03  0.55074732913E+03  0.00000000000E+00 0. -1.
         22    1    1    2    0    0 -0.17972521116E+03  0.22881030569E+03 -0.58536211575E+03  0.65368502666E+03  0.00000000000E+00 0.  1.
<mgrwt>
<rscale>  0 0.17676873E+04</rscale>
<asrwt>0</asrwt>
<pdfrwt beam="1">  1        1 0.98349235E-01 0.17676873E+04</pdfrwt>
<pdfrwt beam="2">  1       -1 0.18799799E+00 0.17676873E+04</pdfrwt>
<totfact> 0.53905684E+00</totfact>
</mgrwt>
</event>
<event>
 6    1  0.9906445E-006  0.2847297E+04  0.7818608E-02  0.8288733E-01
          1   -1    0    0  501    0  0.00000000000E+00  0.00000000000E+00  0.18166282608E+04  0.18166282608E+04  0.00000000000E+00 0. -1.
         -1   -1    0    0    0  501 -0.00000000000E+00 -0.00000000000E+00 -0.11156792249E+04  0.11156792249E+04  0.00000000000E+00 0.  1.
         23    2    1    2    0    0  0.11039595262E+04 -0.45373181824E+03  0.11471221551E+04  0.16580745202E+04  0.93395275394E+02 0.  0.
         11    1    3    3    0    0  0.11461294565E+03 -0.64107471411E+02  0.16222716198E+03  0.20871882350E+03  0.00000000000E+00 0.  1.
        -11    1    3    3    0    0  0.98934658053E+03 -0.38962434683E+03  0.98489499308E+03  0.14493556967E+04  0.00000000000E+00 0. -1.
         22    1    1    2    0    0 -0.11039595262E+04  0.45373181824E+03 -0.44617311912E+03  0.12742329656E+04  0.00000000000E+00 0.  1.
<mgrwt>
<rscale>  0 0.28472965E+04</rscale>
<asrwt>0</asrwt>
<pdfrwt beam="1">  1        1 0.27948127E+00 0.28472965E+04</pdfrwt>
<pdfrwt beam="2">  1       -1 0.17164296E+00 0.28472965E+04</pdfrwt>
<totfact> 0.81909009E-01</totfact>
</mgrwt>
</event>
<event>
 6    1  0.9906445E-006  0.6945266E+03  0.7818608E-02  0.9726639E-01
         -1   -1    0    0    0  501 -0.00000000000E+00  0.00000000000E+00  0.35448645449E+03  0.35448645449E+03  0.00000000000E+00 0.  1.
          1   -1    0    0  501    0  0.00000000000E+00 -0.00000000000E+00 -0.34018730351E+03  0.34018730351E+03  0.00000000000E+00 0. -1.
         23    2    1    2    0    0 -0.31720598732E+03  0.53839847768E+02 -0.10671868293E+03  0.35092430896E+03  0.90777892319E+02 0.  0.
         11    1    3    3    0    0 -0.25818973562E+03  0.79145961449E+02 -0.88413635277E+02  0.28415311664E+03  0.00000000000E+00 0. -1.
        -11    1    3    3    0    0 -0.59016251700E+02 -0.25306113681E+02 -0.18305047648E+02  0.66771192319E+02  0.00000000000E+00 0.  1.
         22    1    1    2    0    0  0.31720598732E+03 -0.53839847768E+02  0.12101783391E+03  0.34374944905E+03  0.00000000000E+00 0.  1.
<mgrwt>
<rscale>  0 0.69452658E+03</rscale>
<asrwt>0</asrwt>
<pdfrwt beam="1">  1        1 0.52336508E-01 0.69452658E+03</pdfrwt>
<pdfrwt beam="2">  1       -1 0.54536378E-01 0.69452658E+03</pdfrwt>
<totfact> 0.25607406E+02</totfact>
</mgrwt>
</event>
<event>
 6    1  0.9906445E-006  0.1114804E+04  0.7818608E-02  0.9190882E-01
          1   -1    0    0  501    0  0.00000000000E+00  0.00000000000E+00  0.95629878139E+03  0.95629878139E+03  0.00000000000E+00 0. -1.
         -1   -1    0    0    0  501 -0.00000000000E+00 -0.00000000000E+00 -0.32489503998E+03  0.32489503998E+03  0.00000000000E+00 0.  1.
         23    2    1    2    0    0 -0.10871306220E+03 -0.14233485694E+03  0.91988230095E+03  0.94163878796E+03  0.91773732623E+02 0.  0.
         13    1    3    3    0    0 -0.70807300172E+02 -0.65033040720E+02  0.28122359071E+03  0.29720309237E+03  0.00000000000E+00 0. -1.
        -13    1    3    3    0    0 -0.37905762030E+02 -0.77301816218E+02  0.63865871025E+03  0.64443569560E+03  0.00000000000E+00 0.  1.
         22    1    1    2    0    0  0.10871306220E+03  0.14233485694E+03 -0.28847855954E+03  0.33955503340E+03  0.00000000000E+00 0.  1.
<mgrwt>
<rscale>  0 0.11148035E+04</rscale>
<asrwt>0</asrwt>
<pdfrwt beam="1">  1        1 0.14712289E+00 0.11148035E+04</pdfrwt>
<pdfrwt beam="2">  1       -1 0.49983853E-01 0.11148035E+04</pdfrwt>
<totfact> 0.65485385E+01</totfact>
</mgrwt>
</event>
<event>
 6    1  0.9906445E-006  0.4324018E+04  0.7818608E-02  0.7942192E-01
         -3   -1    0    0    0  501 -0.00000000000E+00  0.00000000000E+00  0.15793187465E+04  0.15793187465E+04  0.00000000000E+00 0. -1.
          3   -1    0    0  501    0  0.00000000000E+00 -0.00000000000E+00 -0.29596832086E+04  0.29596832086E+04  0.00000000000E+00 0.  1.
         23    2    1    2    0    0  0.10153237041E+04 -0.13185700258E+04 -0.21376623939E+04  0.27106121459E+04  0.91151293823E+02 0.  0.
         11    1    3    3    0    0  0.46069557591E+03 -0.63897382295E+03 -0.94948632615E+03  0.12337148145E+04  0.00000000000E+00 0.  1.
        -11    1    3    3    0    0  0.55462812820E+03 -0.67959620285E+03 -0.11881760677E+04  0.14768973314E+04  0.00000000000E+00 0. -1.
         22    1    1    2    0    0 -0.10153237041E+04  0.13185700258E+04  0.75729793171E+03  0.18283898092E+04  0.00000000000E+00 0. -1.
<mgrwt>
<rscale>  0 0.43240181E+04</rscale>
<asrwt>0</asrwt>
<pdfrwt beam="1">  1        3 0.45533588E+00 0.43240181E+04</pdfrwt>
<pdfrwt beam="2">  1       -3 0.24297212E+00 0.43240181E+04</pdfrwt>
<totfact> 0.91100377E-04</totfact>
</mgrwt>
</event>
<event>
 6    1  0.9906445E-006  0.1131555E+04  0.7818608E-02  0.9174971E-01
          2   -1    0    0  501    0  0.00000000000E+00  0.00000000000E+00  0.11103118311E+04  0.11103118311E+04  0.00000000000E+00 0. -1.
         -2   -1    0    0    0  501 -0.00000000000E+00 -0.00000000000E+00 -0.28830094036E+03  0.28830094036E+03  0.00000000000E+00 0.  1.
         23    2    1    2    0    0  0.17902619200E+03 -0.42527227595E+03  0.17014739690E+02  0.47075195792E+03  0.91711604501E+02 0.  0.
         13    1    3    3    0    0  0.78230351239E+02 -0.18046497239E+03 -0.38054953993E+02  0.20033914655E+03  0.00000000000E+00 0. -1.
        -13    1    3    3    0    0  0.10079584076E+03 -0.24480730356E+03  0.55069693682E+02  0.27041281137E+03  0.00000000000E+00 0.  1.
         22    1    1    2    0    0 -0.17902619200E+03  0.42527227595E+03  0.80499615103E+03  0.92786081353E+03  0.00000000000E+00 0. -1.
<mgrwt>
<rscale>  0 0.11315546E+04</rscale>
<asrwt>0</asrwt>
<pdfrwt beam="1">  1        2 0.17081720E+00 0.11315546E+04</pdfrwt>
<pdfrwt beam="2">  1       -2 0.44353991E-01 0.11315546E+04</pdfrwt>
<totfact> 0.10250968E+02</totfact>
</mgrwt>
</event>
<event>
 6    1  0.9906445E-006  0.7675869E+03  0.7818608E-02  0.9608156E-01
         -2   -1    0    0    0  501 -0.00000000000E+00  0.00000000000E+00  0.18721915025E+03  0.18721915025E+03  0.00000000000E+00 0.  1.
          2   -1    0    0  501    0  0.00000000000E+00 -0.00000000000E+00 -0.78676460324E+03  0.78676460324E+03  0.00000000000E+00 0. -1.
         23    2    1    2    0    0 -0.17728077643E+03  0.18761122001E+02 -0.72780489285E+03  0.75436832301E+03  0.87127213404E+02 0.  0.
         11    1    3    3    0    0 -0.12001644087E+03 -0.18883170297E+02 -0.35227680851E+03  0.37263852459E+03  0.00000000000E+00 0. -1.
        -11    1    3    3    0    0 -0.57264335565E+02  0.37644292298E+02 -0.37552808435E+03  0.38172979842E+03  0.00000000000E+00 0.  1.
         22    1    1    2    0    0  0.17728077643E+03 -0.18761122001E+02  0.12825943986E+03  0.21961543048E+03  0.00000000000E+00 0.  1.
<mgrwt>
<rscale>  0 0.76758687E+03</rscale>
<asrwt>0</asrwt>
<pdfrwt beam="1">  1        2 0.12104071E+00 0.76758687E+03</pdfrwt>
<pdfrwt beam="2">  1       -2 0.28802946E-01 0.76758687E+03</pdfrwt>
<totfact> 0.39147718E+02</totfact>
</mgrwt>
</event>
<event>
 6    1  0.9906445E-006  0.1938687E+04  0.7818608E-02  0.8635835E-01
         -1   -1    0    0    0  501 -0.00000000000E+00  0.00000000000E+00  0.93635518162E+03  0.93635518162E+03  0.00000000000E+00 0.  1.
          1   -1    0    0  501    0  0.00000000000E+00 -0.00000000000E+00 -0.10034939682E+04  0.10034939682E+04  0.00000000000E+00 0. -1.
         23    2    1    2    0    0 -0.74909704907E+02 -0.18123993077E+03 -0.98126477418E+03  0.10049236461E+04  0.92366666880E+02 0.  0.
         11    1    3    3    0    0  0.14443998377E+02 -0.70767765642E+02 -0.40580159669E+03  0.41217913778E+03  0.00000000000E+00 0. -1.
        -11    1    3    3    0    0 -0.89353703285E+02 -0.11047216513E+03 -0.57546317748E+03  0.59274450837E+03  0.00000000000E+00 0.  1.
         22    1    1    2    0    0  0.74909704907E+02  0.18123993077E+03  0.91412598755E+03  0.93492550372E+03  0.00000000000E+00 0.  1.
<mgrwt>
<rscale>  0 0.19386870E+04</rscale>
<asrwt>0</asrwt>
<pdfrwt beam="1">  1        1 0.15438369E+00 0.19386870E+04</pdfrwt>
<pdfrwt beam="2">  1       -1 0.14405464E+00 0.19386870E+04</pdfrwt>
<totfact> 0.54518398E+00</totfact>
</mgrwt>
</event>
<event>
 6    1  0.9906445E-006  0.7529172E+03  0.7818608E-02  0.9630785E-01
          3   -1    0    0  501    0  0.00000000000E+00  0.00000000000E+00  0.10201531188E+04  0.10201531188E+04  0.00000000000E+00 0. -1.
         -3   -1    0    0    0  501 -0.00000000000E+00 -0.00000000000E+00 -0.13892136305E+03  0.13892136305E+03  0.00000000000E+00 0.  1.
         23    2    1    2    0    0  0.29524560818E+03 -0.19631946427E+03  0.27808527114E+03  0.45943387188E+03  0.89647997235E+02 0.  0.
         13    1    3    3    0    0  0.75776558099E+02 -0.11905533237E+02  0.38453658970E+02  0.85805083574E+02  0.00000000000E+00 0. -1.
        -13    1    3    3    0    0  0.21946905008E+03 -0.18441393103E+03  0.23963161217E+03  0.37362878831E+03  0.00000000000E+00 0.  1.
         22    1    1    2    0    0 -0.29524560818E+03  0.19631946427E+03  0.60314648458E+03  0.69964060992E+03  0.00000000000E+00 0. -1.
<mgrwt>
<rscale>  0 0.75291716E+03</rscale>
<asrwt>0</asrwt>
<pdfrwt beam="1">  1        3 0.15694663E+00 0.75291716E+03</pdfrwt>
<pdfrwt beam="2">  1       -3 0.21372518E-01 0.75291716E+03</pdfrwt>
<totfact> 0.15476287E+01</totfact>
</mgrwt>
</event>
<event>
 6    1  0.9906445E-006  0.1959467E+04  0.7818608E-02  0.8625809E-01
         -2   -1    0    0    0  501 -0.00000000000E+00  0.00000000000E+00  0.66105427225E+03  0.66105427225E+03  0.00000000000E+00 0.  1.
          2   -1    0    0  501    0  0.00000000000E+00 -0.00000000000E+00 -0.14520405993E+04  0.14520405993E+04  0.00000000000E+00 0. -1.
         23    2    1    2    0    0 -0.14540142618E+03  0.57291564143E+03 -0.12360169737E+04  0.13732123246E+04  0.92737382981E+02 0.  0.
         13    1    3    3    0    0 -0.64018499237E+01  0.19842671079E+03 -0.38922814876E+03  0.43693557309E+03  0.00000000000E+00 0.  1.
        -13    1    3    3    0    0 -0.13899957626E+03  0.37448893063E+03 -0.84678882493E+03  0.93627675149E+03  0.00000000000E+00 0. -1.
         22    1    1    2    0    0  0.14540142618E+03 -0.57291564143E+03  0.44503064661E+03  0.73988254700E+03  0.00000000000E+00 0.  1.
<mgrwt>
<rscale>  0 0.19594669E+04</rscale>
<asrwt>0</asrwt>
<pdfrwt beam="1">  1        2 0.22339086E+00 0.19594669E+04</pdfrwt>
<pdfrwt beam="2">  1       -2 0.10170066E+00 0.19594669E+04</pdfrwt>
<totfact> 0.99964232E+00</totfact>
</mgrwt>
</event>
<event>
 6    1  0.9906445E-006  0.4064232E+04  0.7818608E-02  0.7991713E-01
          1   -1    0    0  501    0  0.00000000000E+00  0.00000000000E+00  0.31998888618E+04  0.31998888618E+04  0.00000000000E+00 0. -1.
         -1   -1    0    0    0  501 -0.00000000000E+00 -0.00000000000E+00 -0.12905122174E+04  0.12905122174E+04  0.00000000000E+00 0.  1.
         23    2    1    2    0    0  0.13632845133E+03 -0.94364051811E+03  0.29366143870E+04  0.30888803858E+04  0.91842829460E+02 0.  0.
         11    1    3    3    0    0  0.21295367948E+02 -0.38188001866E+03  0.12729744299E+04  0.13291913860E+04  0.00000000000E+00 0. -1.
        -11    1    3    3    0    0  0.11503308338E+03 -0.56176049944E+03  0.16636399571E+04  0.17596889998E+04  0.00000000000E+00 0.  1.
         22    1    1    2    0    0 -0.13632845133E+03  0.94364051811E+03 -0.10272377426E+04  0.14015206934E+04  0.00000000000E+00 0.  1.
<mgrwt>
<rscale>  0 0.40642321E+04</rscale>
<asrwt>0</asrwt>
<pdfrwt beam="1">  1        1 0.49229059E+00 0.40642321E+04</pdfrwt>
<pdfrwt beam="2">  1       -1 0.19854034E+00 0.40642321E+04</pdfrwt>
<totfact> 0.50946528E-02</totfact>
</mgrwt>
</event>
<event>
 6    1  0.9906445E-006  0.2434418E+04  0.7818608E-02  0.8426729E-01
          2   -1    0    0  501    0  0.00000000000E+00  0.00000000000E+00  0.30446038300E+04  0.30446038300E+04  0.00000000000E+00 0.  1.
         -2   -1    0    0    0  501 -0.00000000000E+00 -0.00000000000E+00 -0.48663080315E+03  0.48663080315E+03  0.00000000000E+00 0. -1.
         23    2    1    2    0    0 -0.18973352239E+03  0.10247606242E+04  0.21881212652E+04  0.24253759297E+04  0.91872641759E+02 0.  0.
         11    1    3    3    0    0 -0.13696483732E+03  0.71501278088E+03  0.14278853244E+04  0.16027660912E+04  0.00000000000E+00 0. -1.
        -11    1    3    3    0    0 -0.52768685074E+02  0.30974784336E+03  0.76023594080E+03  0.82260983843E+03  0.00000000000E+00 0.  1.
         22    1    1    2    0    0  0.18973352239E+03 -0.10247606242E+04  0.36985176159E+03  0.11058587035E+04  0.00000000000E+00 0. -1.
<mgrwt>
<rscale>  0 0.24344182E+04</rscale>
<asrwt>0</asrwt>
<pdfrwt beam="1">  1        2 0.46840058E+00 0.24344182E+04</pdfrwt>
<pdfrwt beam="2">  1       -2 0.74866279E-01 0.24344182E+04</pdfrwt>
<totfact> 0.23471699E+00</totfact>
</mgrwt>
</event>
<event>
 6    1  0.9906445E-006  0.4855080E+04  0.7818608E-02  0.7851260E-01
         -2   -1    0    0    0  501 -0.00000000000E+00  0.00000000000E+00  0.35578359469E+04  0.35578359469E+04  0.00000000000E+00 0. -1.
          2   -1    0    0  501    0  0.00000000000E+00 -0.00000000000E+00 -0.16563296869E+04  0.16563296869E+04  0.00000000000E+00 0.  1.
         23    2    1    2    0    0 -0.91898184373E+03  0.22453015549E+04  0.10086752944E+04  0.26290053225E+04  0.91304078228E+02 0.  0.
         13    1    3    3    0    0 -0.35119950646E+03  0.75363538179E+03  0.32638186488E+03  0.89321470193E+03  0.00000000000E+00 0.  1.
        -13    1    3    3    0    0 -0.56778233727E+03  0.14916661731E+04  0.68229342955E+03  0.17357906206E+04  0.00000000000E+00 0. -1.
         22    1    1    2    0    0  0.91898184373E+03 -0.22453015549E+04  0.89283096557E+03  0.25851603112E+04  0.00000000000E+00 0.  1.
<mgrwt>
<rscale>  0 0.48550795E+04</rscale>
<asrwt>0</asrwt>
<pdfrwt beam="1">  1        2 0.25481995E+00 0.48550795E+04</pdfrwt>
<pdfrwt beam="2">  1       -2 0.54735938E+00 0.48550795E+04</pdfrwt>
<totfact> 0.67882886E-03</totfact>
</mgrwt>
</event>
<event>
 6    1  0.9906445E-006  0.2135183E+04  0.7818608E-02  0.8545901E-01
         -1   -1    0    0    0  501 -0.00000000000E+00  0.00000000000E+00  0.86944604134E+03  0.86944604134E+03  0.00000000000E+00 0.  1.
          1   -1    0    0  501    0  0.00000000000E+00 -0.00000000000E+00 -0.13108942547E+04  0.13108942547E+04  0.00000000000E+00 0. -1.
         23    2    1    2    0    0  0.15373146595E+02 -0.23566138443E+03 -0.12822426308E+04  0.13070088159E+04  0.91396163731E+02 0.  0.
         13    1    3    3    0    0 -0.24422335682E+01 -0.18977032627E+03 -0.79742565976E+03  0.81969898383E+03  0.00000000000E+00 0. -1.
        -13    1    3    3    0    0  0.17815380163E+02 -0.45891058153E+02 -0.48481697105E+03  0.48730983204E+03  0.00000000000E+00 0.  1.
         22    1    1    2    0    0 -0.15373146595E+02  0.23566138443E+03  0.84079441748E+03  0.87333148014E+03  0.00000000000E+00 0.  1.
<mgrwt>
<rscale>  0 0.21351832E+04</rscale>
<asrwt>0</asrwt>
<pdfrwt beam="1">  1        1 0.20167604E+00 0.21351832E+04</pdfrwt>
<pdfrwt beam="2">  1       -1 0.13376093E+00 0.21351832E+04</pdfrwt>
<totfact> 0.38425176E+00</totfact>
</mgrwt>
</event>
<event>
 6    1  0.9906445E-006  0.2781162E+04  0.7818608E-02  0.8309141E-01
         -2   -1    0    0    0  501 -0.00000000000E+00  0.00000000000E+00  0.13019510018E+04  0.13019510018E+04  0.00000000000E+00 0.  1.
          2   -1    0    0  501    0  0.00000000000E+00 -0.00000000000E+00 -0.14852448214E+04  0.14852448214E+04  0.00000000000E+00 0. -1.
         23    2    1    2    0    0 -0.98741973348E+03  0.58377020804E+02  0.88557451900E+03  0.13308699214E+04  0.92557617137E+02 0.  0.
         13    1    3    3    0    0 -0.68859282937E+03  0.46758220103E+02  0.67278073593E+03  0.96383625915E+03  0.00000000000E+00 0.  1.
        -13    1    3    3    0    0 -0.29882690411E+03  0.11618800701E+02  0.21279378307E+03  0.36703366230E+03  0.00000000000E+00 0. -1.
         22    1    1    2    0    0  0.98741973348E+03 -0.58377020804E+02 -0.10688683387E+04  0.14563259017E+04  0.00000000000E+00 0. -1.
<mgrwt>
<rscale>  0 0.27811623E+04</rscale>
<asrwt>0</asrwt>
<pdfrwt beam="1">  1        2 0.22849920E+00 0.27811623E+04</pdfrwt>
<pdfrwt beam="2">  1       -2 0.20030015E+00 0.27811623E+04</pdfrwt>
<totfact> 0.14932419E+00</totfact>
</mgrwt>
</event>
<event>
 6    1  0.9906445E-006  0.3875834E+03  0.7818608E-02  0.1048166E+00
          1   -1    0    0  501    0  0.00000000000E+00  0.00000000000E+00  0.67117082335E+02  0.67117082335E+02  0.00000000000E+00 0. -1.
         -1   -1    0    0    0  501 -0.00000000000E+00 -0.00000000000E+00 -0.55954795513E+03  0.55954795513E+03  0.00000000000E+00 0.  1.
         23    2    1    2    0    0  0.97191910391E+02 -0.11590250205E+03 -0.95610433385E+02  0.20199326002E+03  0.93703066619E+02 0.  0.
         13    1    3    3    0    0 -0.96293518497E+01 -0.40783020722E+00  0.89029247230E+01  0.13120701626E+02  0.00000000000E+00 0.  1.
        -13    1    3    3    0    0  0.10682126224E+03 -0.11549467184E+03 -0.10451335811E+03  0.18887255839E+03  0.00000000000E+00 0. -1.
         22    1    1    2    0    0 -0.97191910391E+02  0.11590250205E+03 -0.39682043941E+03  0.42467177745E+03  0.00000000000E+00 0.  1.
<mgrwt>
<rscale>  0 0.38758342E+03</rscale>
<asrwt>0</asrwt>
<pdfrwt beam="1">  1        1 0.10325705E-01 0.38758342E+03</pdfrwt>
<pdfrwt beam="2">  1       -1 0.86084303E-01 0.38758342E+03</pdfrwt>
<totfact> 0.86120478E+02</totfact>
</mgrwt>
</event>
<event>
 6    1  0.9906445E-006  0.2761908E+04  0.7818608E-02  0.8315193E-01
          1   -1    0    0  501    0  0.00000000000E+00  0.00000000000E+00  0.14465966059E+04  0.14465966059E+04  0.00000000000E+00 0. -1.
         -1   -1    0    0    0  501 -0.00000000000E+00 -0.00000000000E+00 -0.13182903948E+04  0.13182903948E+04  0.00000000000E+00 0.  1.
         23    2    1    2    0    0 -0.11392639663E+04  0.76693969472E+03  0.19378995760E+03  0.13899662752E+04  0.91284272025E+02 0.  0.
         11    1    3    3    0    0 -0.57566705488E+03  0.39187521491E+03  0.14420165143E+03  0.71116303223E+03  0.00000000000E+00 0. -1.
        -11    1    3    3    0    0 -0.56359691143E+03  0.37506447981E+03  0.49588306172E+02  0.67880324299E+03  0.00000000000E+00 0.  1.
         22    1    1    2    0    0  0.11392639663E+04 -0.76693969472E+03 -0.65483746446E+02  0.13749207255E+04  0.00000000000E+00 0.  1.
<mgrwt>
<rscale>  0 0.27619083E+04</rscale>
<asrwt>0</asrwt>
<pdfrwt beam="1">  1        1 0.22255332E+00 0.27619083E+04</pdfrwt>
<pdfrwt beam="2">  1       -1 0.20281391E+00 0.27619083E+04</pdfrwt>
<totfact> 0.89094236E-01</totfact>
</mgrwt>
</event>
<event>
 6    1  0.9906445E-006  0.1958261E+04  0.7818608E-02  0.8626388E-01
          1   -1    0    0  501    0  0.00000000000E+00  0.00000000000E+00  0.71526602186E+03  0.71526602186E+03  0.00000000000E+00 0.  1.
         -1   -1    0    0    0  501 -0.00000000000E+00 -0.00000000000E+00 -0.13403352655E+04  0.13403352655E+04  0.00000000000E+00 0. -1.
         23    2    1    2    0    0 -0.33240531310E+03  0.50178874162E+03 -0.11210303942E+04  0.12756893075E+04  0.91590562742E+02 0.  0.
         11    1    3    3    0    0 -0.85633879804E+02  0.67696404756E+02 -0.18519323835E+03  0.21497092854E+03  0.00000000000E+00 0. -1.
        -11    1    3    3    0    0 -0.24677143330E+03  0.43409233687E+03 -0.93583715583E+03  0.10607183790E+04  0.00000000000E+00 0.  1.
         22    1    1    2    0    0  0.33240531310E+03 -0.50178874162E+03  0.49596115058E+03  0.77991197983E+03  0.00000000000E+00 0.  1.
<mgrwt>
<rscale>  0 0.19582607E+04</rscale>
<asrwt>0</asrwt>
<pdfrwt beam="1">  1        1 0.11004093E+00 0.19582607E+04</pdfrwt>
<pdfrwt beam="2">  1       -1 0.20620542E+00 0.19582607E+04</pdfrwt>
<totfact> 0.33477793E+00</totfact>
</mgrwt>
</event>
<event>
 6    1  0.9906445E-006  0.1981505E+04  0.7818608E-02  0.8615317E-01
         -2   -1    0    0    0  501 -0.00000000000E+00  0.00000000000E+00  0.13077456160E+04  0.13077456160E+04  0.00000000000E+00 0. -1.
          2   -1    0    0  501    0  0.00000000000E+00 -0.00000000000E+00 -0.75059757991E+03  0.75059757991E+03  0.00000000000E+00 0.  1.
         23    2    1    2    0    0 -0.16963137310E+03 -0.88264908264E+03  0.70697353855E+03  0.11471396582E+04  0.90959361578E+02 0.  0.
         13    1    3    3    0    0 -0.52190194924E+02 -0.11853640981E+03  0.11871755767E+03  0.17569449450E+03  0.00000000000E+00 0.  1.
        -13    1    3    3    0    0 -0.11744117818E+03 -0.76411267283E+03  0.58825598088E+03  0.97144516374E+03  0.00000000000E+00 0. -1.
         22    1    1    2    0    0  0.16963137310E+03  0.88264908264E+03 -0.14982550248E+03  0.91120353765E+03  0.00000000000E+00 0.  1.
<mgrwt>
<rscale>  0 0.19815052E+04</rscale>
<asrwt>0</asrwt>
<pdfrwt beam="1">  1        2 0.11547655E+00 0.19815052E+04</pdfrwt>
<pdfrwt beam="2">  1       -2 0.20119163E+00 0.19815052E+04</pdfrwt>
<totfact> 0.45504094E+00</totfact>
</mgrwt>
</event>
<event>
 6    1  0.9906445E-006  0.7181720E+03  0.7818608E-02  0.9686651E-01
          2   -1    0    0  501    0  0.00000000000E+00  0.00000000000E+00  0.26421599086E+04  0.26421599086E+04  0.00000000000E+00 0.  1.
         -2   -1    0    0    0  501 -0.00000000000E+00 -0.00000000000E+00 -0.48802025317E+02  0.48802025317E+02  0.00000000000E+00 0. -1.
         23    2    1    2    0    0  0.31519218015E+03 -0.15415049816E+03  0.11609638275E+04  0.12162208660E+04  0.90816845864E+02 0.  0.
         11    1    3    3    0    0  0.27695130398E+03 -0.13162875349E+03  0.10917918449E+04  0.11340359721E+04  0.00000000000E+00 0.  1.
        -11    1    3    3    0    0  0.38240876174E+02 -0.22521744679E+02  0.69171982628E+02  0.82184893835E+02  0.00000000000E+00 0. -1.
         22    1    1    2    0    0 -0.31519218015E+03  0.15415049816E+03  0.14323940557E+04  0.14747410679E+04  0.00000000000E+00 0.  1.
<mgrwt>
<rscale>  0 0.71817200E+03</rscale>
<asrwt>0</asrwt>
<pdfrwt beam="1">  1        2 0.40648603E+00 0.71817200E+03</pdfrwt>
<pdfrwt beam="2">  1       -2 0.75080059E-02 0.71817200E+03</pdfrwt>
<totfact> 0.32726623E+02</totfact>
</mgrwt>
</event>
<event>
 6    1  0.9906445E-006  0.3570592E+04  0.7818608E-02  0.8097261E-01
         -1   -1    0    0    0  501 -0.00000000000E+00  0.00000000000E+00  0.13825802335E+04  0.13825802335E+04  0.00000000000E+00 0.  1.
          1   -1    0    0  501    0  0.00000000000E+00 -0.00000000000E+00 -0.23053145559E+04  0.23053145559E+04  0.00000000000E+00 0. -1.
         23    2    1    2    0    0  0.49639030234E+03  0.16802672301E+04 -0.11372676855E+03  0.17580775652E+04  0.90562964969E+02 0.  0.
         11    1    3    3    0    0  0.20425653765E+03  0.71069358989E+03 -0.92508427624E+02  0.74522742909E+03  0.00000000000E+00 0. -1.
        -11    1    3    3    0    0  0.29213376468E+03  0.96957364021E+03 -0.21218340924E+02  0.10128501361E+04  0.00000000000E+00 0.  1.
         22    1    1    2    0    0 -0.49639030234E+03 -0.16802672301E+04 -0.80900755384E+03  0.19298172242E+04  0.00000000000E+00 0. -1.
<mgrwt>
<rscale>  0 0.35705923E+04</rscale>
<asrwt>0</asrwt>
<pdfrwt beam="1">  1        1 0.35466378E+00 0.35705923E+04</pdfrwt>
<pdfrwt beam="2">  1       -1 0.21270465E+00 0.35705923E+04</pdfrwt>
<totfact> 0.18447594E-01</totfact>
</mgrwt>
</event>
<event>
 6    1  0.9906445E-006  0.1672793E+04  0.7818608E-02  0.8777035E-01
          1   -1    0    0  501    0  0.00000000000E+00  0.00000000000E+00  0.23354928316E+04  0.23354928316E+04  0.00000000000E+00 0. -1.
         -1   -1    0    0    0  501 -0.00000000000E+00 -0.00000000000E+00 -0.29953384888E+03  0.29953384888E+03  0.00000000000E+00 0.  1.
         23    2    1    2    0    0  0.67922007325E+03 -0.39568802559E+03  0.58366563066E+03  0.98364395623E+03  0.94767835820E+02 0.  0.
         11    1    3    3    0    0  0.29966573499E+03 -0.12832456364E+03  0.21106725677E+03  0.38835052883E+03  0.00000000000E+00 0.  1.
        -11    1    3    3    0    0  0.37955433826E+03 -0.26736346195E+03  0.37259837389E+03  0.59529342740E+03  0.00000000000E+00 0. -1.
         22    1    1    2    0    0 -0.67922007325E+03  0.39568802559E+03  0.14522933520E+04  0.16513827242E+04  0.00000000000E+00 0. -1.
<mgrwt>
<rscale>  0 0.16727931E+04</rscale>
<asrwt>0</asrwt>
<pdfrwt beam="1">  1        1 0.35930658E+00 0.16727931E+04</pdfrwt>
<pdfrwt beam="2">  1       -1 0.46082132E-01 0.16727931E+04</pdfrwt>
<totfact> 0.78700377E+00</totfact>
</mgrwt>
</event>
<event>
 6    1  0.9906445E-006  0.5591593E+03  0.7818608E-02  0.9993959E-01
          1   -1    0    0  501    0  0.00000000000E+00  0.00000000000E+00  0.79642322652E+02  0.79642322652E+02  0.00000000000E+00 0. -1.
         -1   -1    0    0    0  501 -0.00000000000E+00 -0.00000000000E+00 -0.98144788156E+03  0.98144788156E+03  0.00000000000E+00 0.  1.
         23    2    1    2    0    0 -0.21310756587E+03 -0.16683791995E+03 -0.43222313405E+03  0.51909631134E+03  0.96924799095E+02 0.  0.
         11    1    3    3    0    0 -0.15536831493E+02 -0.58669029368E+02 -0.71047290260E+02  0.93440706297E+02  0.00000000000E+00 0.  1.
        -11    1    3    3    0    0 -0.19757073438E+03 -0.10816889059E+03 -0.36117584379E+03  0.42565560505E+03  0.00000000000E+00 0. -1.
         22    1    1    2    0    0  0.21310756587E+03  0.16683791995E+03 -0.46958242486E+03  0.54199389286E+03  0.00000000000E+00 0.  1.
<mgrwt>
<rscale>  0 0.55915933E+03</rscale>
<asrwt>0</asrwt>
<pdfrwt beam="1">  1        1 0.12252664E-01 0.55915933E+03</pdfrwt>
<pdfrwt beam="2">  1       -1 0.15099199E+00 0.55915933E+03</pdfrwt>
<totfact> 0.17835498E+02</totfact>
</mgrwt>
</event>
<event>
 6    1  0.9906445E-006  0.2315873E+04  0.7818608E-02  0.8471689E-01
         -2   -1    0    0    0  501 -0.00000000000E+00  0.00000000000E+00  0.89541448336E+03  0.89541448336E+03  0.00000000000E+00 0.  1.
          2   -1    0    0  501    0  0.00000000000E+00 -0.00000000000E+00 -0.14974257845E+04  0.14974257845E+04  0.00000000000E+00 0. -1.
         23    2    1    2    0    0  0.64500489190E+03 -0.68046885492E+03  0.39746988431E+03  0.10224272596E+04  0.91137364325E+02 0.  0.
         13    1    3    3    0    0  0.38611790381E+03 -0.34200829623E+03  0.21104918111E+03  0.55731361654E+03  0.00000000000E+00 0. -1.
        -13    1    3    3    0    0  0.25888698808E+03 -0.33846055870E+03  0.18642070319E+03  0.46511364307E+03  0.00000000000E+00 0.  1.
         22    1    1    2    0    0 -0.64500489190E+03  0.68046885492E+03 -0.99948118542E+03  0.13704130082E+04  0.00000000000E+00 0. -1.
<mgrwt>
<rscale>  0 0.23158728E+04</rscale>
<asrwt>0</asrwt>
<pdfrwt beam="1">  1        2 0.23037320E+00 0.23158728E+04</pdfrwt>
<pdfrwt beam="2">  1       -2 0.13775608E+00 0.23158728E+04</pdfrwt>
<totfact> 0.43199857E+00</totfact>
</mgrwt>
</event>
<event>
 6    1  0.9906445E-006  0.1466558E+04  0.7818608E-02  0.8907001E-01
          2   -1    0    0  501    0  0.00000000000E+00  0.00000000000E+00  0.13477693699E+04  0.13477693699E+04  0.00000000000E+00 0. -1.
         -2   -1    0    0    0  501 -0.00000000000E+00 -0.00000000000E+00 -0.39895385906E+03  0.39895385906E+03  0.00000000000E+00 0.  1.
         23    2    1    2    0    0  0.72533272695E+03  0.65321173395E+01  0.57599283525E+03  0.93115779274E+03  0.95586899596E+02 0.  0.
         13    1    3    3    0    0  0.66853505076E+03  0.12807051442E+02  0.49458151917E+03  0.83169346142E+03  0.00000000000E+00 0.  1.
        -13    1    3    3    0    0  0.56797676184E+02 -0.62749341022E+01  0.81411316081E+02  0.99464331315E+02  0.00000000000E+00 0. -1.
         22    1    1    2    0    0 -0.72533272695E+03 -0.65321173395E+01  0.37282267559E+03  0.81556543623E+03  0.00000000000E+00 0.  1.
<mgrwt>
<rscale>  0 0.14665576E+04</rscale>
<asrwt>0</asrwt>
<pdfrwt beam="1">  1        2 0.20734913E+00 0.14665576E+04</pdfrwt>
<pdfrwt beam="2">  1       -2 0.61377517E-01 0.14665576E+04</pdfrwt>
<totfact> 0.37071061E+01</totfact>
</mgrwt>
</event>
<event>
 6    1  0.9906445E-006  0.1979134E+04  0.7818608E-02  0.8616439E-01
          2   -1    0    0  501    0  0.00000000000E+00  0.00000000000E+00  0.82264544098E+03  0.82264544098E+03  0.00000000000E+00 0. -1.
         -2   -1    0    0    0  501 -0.00000000000E+00 -0.00000000000E+00 -0.11903587077E+04  0.11903587077E+04  0.00000000000E+00 0.  1.
         23    2    1    2    0    0 -0.50255913125E+03 -0.82940392494E+03  0.48988379499E+01  0.97410264628E+03  0.91517297620E+02 0.  0.
         13    1    3    3    0    0 -0.33359492069E+03 -0.62869428652E+03  0.56966092329E+01  0.71174049229E+03  0.00000000000E+00 0. -1.
        -13    1    3    3    0    0 -0.16896421056E+03 -0.20070963842E+03 -0.79777128299E+00  0.26236215399E+03  0.00000000000E+00 0.  1.
         22    1    1    2    0    0  0.50255913125E+03  0.82940392494E+03 -0.37261210464E+03  0.10389015024E+04  0.00000000000E+00 0.  1.
<mgrwt>
<rscale>  0 0.19791343E+04</rscale>
<asrwt>0</asrwt>
<pdfrwt beam="1">  1        2 0.12656084E+00 0.19791343E+04</pdfrwt>
<pdfrwt beam="2">  1       -2 0.18313211E+00 0.19791343E+04</pdfrwt>
<totfact> 0.53254805E+00</totfact>
</mgrwt>
</event>
<event>
 6    1  0.9906445E-006  0.1959598E+04  0.7818608E-02  0.8625746E-01
          1   -1    0    0  501    0  0.00000000000E+00  0.00000000000E+00  0.15753771764E+04  0.15753771764E+04  0.00000000000E+00 0. -1.
         -1   -1    0    0    0  501 -0.00000000000E+00 -0.00000000000E+00 -0.60938179461E+03  0.60938179461E+03  0.00000000000E+00 0.  1.
         23    2    1    2    0    0  0.95782146388E+03 -0.14348270992E+03  0.33498225803E+03  0.10288235026E+04  0.90859461126E+02 0.  0.
         13    1    3    3    0    0  0.48512622436E+03 -0.44515740166E+02  0.20617901941E+03  0.52899800825E+03  0.00000000000E+00 0. -1.
        -13    1    3    3    0    0  0.47269523951E+03 -0.98966969756E+02  0.12880323862E+03  0.49982549439E+03  0.00000000000E+00 0.  1.
         22    1    1    2    0    0 -0.95782146388E+03  0.14348270992E+03  0.63101312381E+03  0.11559354684E+04  0.00000000000E+00 0. -1.
<mgrwt>
<rscale>  0 0.19595981E+04</rscale>
<asrwt>0</asrwt>
<pdfrwt beam="1">  1        1 0.24236572E+00 0.19595981E+04</pdfrwt>
<pdfrwt beam="2">  1       -1 0.93751046E-01 0.19595981E+04</pdfrwt>
<totfact> 0.59571194E+00</totfact>
</mgrwt>
</event>
<event>
 6    1  0.9906445E-006  0.2514168E+04  0.7818608E-02  0.8397955E-01
         -2   -1    0    0    0  501 -0.00000000000E+00  0.00000000000E+00  0.14091131867E+04  0.14091131867E+04  0.00000000000E+00 0.  1.
          2   -1    0    0  501    0  0.00000000000E+00 -0.00000000000E+00 -0.11214572545E+04  0.11214572545E+04  0.00000000000E+00 0. -1.
         23    2    1    2    0    0 -0.90238596383E+03 -0.66586465721E+03  0.71201050392E+03  0.13315070684E+04  0.90972226773E+02 0.  0.
         13    1    3    3    0    0 -0.60794316970E+03 -0.45783074738E+03  0.53186276346E+03  0.92848365090E+03  0.00000000000E+00 0.  1.
        -13    1    3    3    0    0 -0.29444279413E+03 -0.20803390983E+03  0.18014774046E+03  0.40302341749E+03  0.00000000000E+00 0. -1.
         22    1    1    2    0    0  0.90238596383E+03  0.66586465721E+03 -0.42435457179E+03  0.11990633728E+04  0.00000000000E+00 0. -1.
<mgrwt>
<rscale>  0 0.25141680E+04</rscale>
<asrwt>0</asrwt>
<pdfrwt beam="1">  1        2 0.17253189E+00 0.25141680E+04</pdfrwt>
<pdfrwt beam="2">  1       -2 0.21678664E+00 0.25141680E+04</pdfrwt>
<totfact> 0.19501426E+00</totfact>
</mgrwt>
</event>
<event>
 6    1  0.9906445E-006  0.1636606E+04  0.7818608E-02  0.8798370E-01
         -2   -1    0    0    0  501 -0.00000000000E+00  0.00000000000E+00  0.33477370713E+03  0.33477370713E+03  0.00000000000E+00 0.  1.
          2   -1    0    0  501    0  0.00000000000E+00 -0.00000000000E+00 -0.20002170314E+04  0.20002170314E+04  0.00000000000E+00 0. -1.
         23    2    1    2    0    0  0.54690328313E+03 -0.20087397410E+03 -0.20071345112E+02  0.58951014442E+03  0.87554536755E+02 0.  0.
         11    1    3    3    0    0  0.23541267469E+03 -0.12656801692E+03  0.12868867905E+02  0.26758960756E+03  0.00000000000E+00 0. -1.
        -11    1    3    3    0    0  0.31149060845E+03 -0.74305957189E+02 -0.32940213017E+02  0.32192053687E+03  0.00000000000E+00 0.  1.
         22    1    1    2    0    0 -0.54690328313E+03  0.20087397410E+03 -0.16453719792E+04  0.17454805941E+04  0.00000000000E+00 0. -1.
<mgrwt>
<rscale>  0 0.16366063E+04</rscale>
<asrwt>0</asrwt>
<pdfrwt beam="1">  1        2 0.30772570E+00 0.16366063E+04</pdfrwt>
<pdfrwt beam="2">  1       -2 0.51503646E-01 0.16366063E+04</pdfrwt>
<totfact> 0.22750687E+01</totfact>
</mgrwt>
</event>
<event>
 6    1  0.9906445E-006  0.1464416E+04  0.7818608E-02  0.8908467E-01
          2   -1    0    0  501    0  0.00000000000E+00  0.00000000000E+00  0.29450746649E+03  0.29450746649E+03  0.00000000000E+00 0. -1.
         -2   -1    0    0    0  501 -0.00000000000E+00 -0.00000000000E+00 -0.18204243155E+04  0.18204243155E+04  0.00000000000E+00 0.  1.
         23    2    1    2    0    0 -0.58115932818E+03 -0.22011704315E+03 -0.13175237812E+04  0.14594736612E+04  0.89424696197E+02 0.  0.
         13    1    3    3    0    0 -0.35810826384E+03 -0.15270253411E+03 -0.91487213545E+03  0.99425882786E+03  0.00000000000E+00 0. -1.
        -13    1    3    3    0    0 -0.22305106434E+03 -0.67414509046E+02 -0.40265164572E+03  0.46521483332E+03  0.00000000000E+00 0.  1.
         22    1    1    2    0    0  0.58115932818E+03  0.22011704315E+03 -0.20839306785E+03  0.65545812082E+03  0.00000000000E+00 0. -1.
<mgrwt>
<rscale>  0 0.14644160E+04</rscale>
<asrwt>0</asrwt>
<pdfrwt beam="1">  1        2 0.45308841E-01 0.14644160E+04</pdfrwt>
<pdfrwt beam="2">  1       -2 0.28006528E+00 0.14644160E+04</pdfrwt>
<totfact> 0.45803659E+00</totfact>
</mgrwt>
</event>
<event>
 6    1  0.9906445E-006  0.1386331E+04  0.7818608E-02  0.8963773E-01
         -3   -1    0    0    0  501 -0.00000000000E+00  0.00000000000E+00  0.23893657959E+04  0.23893657959E+04  0.00000000000E+00 0.  1.
          3   -1    0    0  501    0  0.00000000000E+00 -0.00000000000E+00 -0.20109028052E+03  0.20109028052E+03  0.00000000000E+00 0. -1.
         23    2    1    2    0    0 -0.45691107368E+03  0.24940236799E+03  0.19456606883E+04  0.20161467306E+04  0.91010190700E+02 0.  0.
         13    1    3    3    0    0 -0.36029751366E+03  0.18750352849E+03  0.16431709726E+04  0.16926259825E+04  0.00000000000E+00 0. -1.
        -13    1    3    3    0    0 -0.96613560025E+02  0.61898839499E+02  0.30248971568E+03  0.32352074803E+03  0.00000000000E+00 0.  1.
         22    1    1    2    0    0  0.45691107368E+03 -0.24940236799E+03  0.24261482710E+03  0.57430934586E+03  0.00000000000E+00 0. -1.
<mgrwt>
<rscale>  0 0.13863308E+04</rscale>
<asrwt>0</asrwt>
<pdfrwt beam="1">  1        3 0.30936968E-01 0.13863308E+04</pdfrwt>
<pdfrwt beam="2">  1       -3 0.36759472E+00 0.13863308E+04</pdfrwt>
<totfact> 0.42225078E-01</totfact>
</mgrwt>
</event>
<event>
 6    1  0.9906445E-006  0.7874061E+03  0.7818608E-02  0.9578427E-01
         -1   -1    0    0    0  501 -0.00000000000E+00  0.00000000000E+00  0.23285789218E+03  0.23285789218E+03  0.00000000000E+00 0.  1.
          1   -1    0    0  501    0  0.00000000000E+00 -0.00000000000E+00 -0.66565096593E+03  0.66565096593E+03  0.00000000000E+00 0. -1.
         23    2    1    2    0    0  0.20930510472E+03  0.28396118146E+03 -0.34265171358E+02  0.36628045938E+03  0.92437511412E+02 0.  0.
         11    1    3    3    0    0  0.70787488034E+02  0.17034107940E+03 -0.34631726730E+01  0.18449646435E+03  0.00000000000E+00 0.  1.
        -11    1    3    3    0    0  0.13851761669E+03  0.11362010206E+03 -0.30801998685E+02  0.18178399503E+03  0.00000000000E+00 0. -1.
         22    1    1    2    0    0 -0.20930510472E+03 -0.28396118146E+03 -0.39852790239E+03  0.53222839874E+03  0.00000000000E+00 0. -1.
<mgrwt>
<rscale>  0 0.78740607E+03</rscale>
<asrwt>0</asrwt>
<pdfrwt beam="1">  1        1 0.10240784E+00 0.78740607E+03</pdfrwt>
<pdfrwt beam="2">  1       -1 0.35824291E-01 0.78740607E+03</pdfrwt>
<totfact> 0.22105186E+02</totfact>
</mgrwt>
</event>
<event>
 6    1  0.9906445E-006  0.3131540E+04  0.7818608E-02  0.8207135E-01
          2   -1    0    0  501    0  0.00000000000E+00  0.00000000000E+00  0.25962396464E+04  0.25962396464E+04  0.00000000000E+00 0.  1.
         -2   -1    0    0    0  501 -0.00000000000E+00 -0.00000000000E+00 -0.94430260734E+03  0.94430260734E+03  0.00000000000E+00 0. -1.
         23    2    1    2    0    0 -0.83084020482E+03  0.71037361807E+03 -0.43829583636E+03  0.11817290783E+04  0.97232973256E+02 0.  0.
         11    1    3    3    0    0 -0.40360718486E+03  0.38188559028E+03 -0.26529024483E+03  0.61572256556E+03  0.00000000000E+00 0. -1.
        -11    1    3    3    0    0 -0.42723301996E+03  0.32848802779E+03 -0.17300559153E+03  0.56600651273E+03  0.00000000000E+00 0.  1.
         22    1    1    2    0    0  0.83084020482E+03 -0.71037361807E+03  0.20902328754E+04  0.23588131755E+04  0.00000000000E+00 0.  1.
<mgrwt>
<rscale>  0 0.31315401E+04</rscale>
<asrwt>0</asrwt>
<pdfrwt beam="1">  1        2 0.39942148E+00 0.31315401E+04</pdfrwt>
<pdfrwt beam="2">  1       -2 0.14527732E+00 0.31315401E+04</pdfrwt>
<totfact> 0.84426135E-01</totfact>
</mgrwt>
</event>
<event>
 6    1  0.9906445E-006  0.1020346E+04  0.7818608E-02  0.9286507E-01
         -1   -1    0    0    0  501 -0.00000000000E+00  0.00000000000E+00  0.56251714711E+03  0.56251714711E+03  0.00000000000E+00 0.  1.
          1   -1    0    0  501    0  0.00000000000E+00 -0.00000000000E+00 -0.46269945461E+03  0.46269945461E+03  0.00000000000E+00 0. -1.
         23    2    1    2    0    0 -0.23922952980E+03  0.17495490689E+02  0.49812804969E+03  0.56025638754E+03  0.90657629401E+02 0.  0.
         11    1    3    3    0    0 -0.18497003018E+03 -0.81006233502E+01  0.29353010477E+03  0.34704387989E+03  0.00000000000E+00 0. -1.
        -11    1    3    3    0    0 -0.54259499623E+02  0.25596114039E+02  0.20459794492E+03  0.21321250765E+03  0.00000000000E+00 0.  1.
         22    1    1    2    0    0  0.23922952980E+03 -0.17495490689E+02 -0.39831035719E+03  0.46496021418E+03  0.00000000000E+00 0. -1.
<mgrwt>
<rscale>  0 0.10203458E+04</rscale>
<asrwt>0</asrwt>
<pdfrwt beam="1">  1        1 0.71184531E-01 0.10203458E+04</pdfrwt>
<pdfrwt beam="2">  1       -1 0.86541100E-01 0.10203458E+04</pdfrwt>
<totfact> 0.65042057E+01</totfact>
</mgrwt>
</event>
<event>
 6    1  0.9906445E-006  0.2184480E+04  0.7818608E-02  0.8524916E-01
          1   -1    0    0  501    0  0.00000000000E+00  0.00000000000E+00  0.16475869873E+04  0.16475869873E+04  0.00000000000E+00 0. -1.
         -1   -1    0    0    0  501 -0.00000000000E+00 -0.00000000000E+00 -0.72408216390E+03  0.72408216390E+03  0.00000000000E+00 0.  1.
         23    2    1    2    0    0 -0.34492785502E+03 -0.54744517205E+03 -0.49020071775E+03  0.81692325599E+03  0.91626529632E+02 0.  0.
         11    1    3    3    0    0 -0.17796981128E+03 -0.36528485023E+03 -0.29889799782E+03  0.50442669303E+03  0.00000000000E+00 0. -1.
        -11    1    3    3    0    0 -0.16695804374E+03 -0.18216032181E+03 -0.19130271993E+03  0.31249656297E+03  0.00000000000E+00 0.  1.
         22    1    1    2    0    0  0.34492785502E+03  0.54744517205E+03  0.14137055411E+04  0.15547458952E+04  0.00000000000E+00 0. -1.
<mgrwt>
<rscale>  0 0.21844801E+04</rscale>
<asrwt>0</asrwt>
<pdfrwt beam="1">  1        1 0.25347492E+00 0.21844801E+04</pdfrwt>
<pdfrwt beam="2">  1       -1 0.11139726E+00 0.21844801E+04</pdfrwt>
<totfact> 0.34997100E+00</totfact>
</mgrwt>
</event>
<event>
 6    1  0.9906445E-006  0.2164592E+04  0.7818608E-02  0.8533312E-01
          1   -1    0    0  501    0  0.00000000000E+00  0.00000000000E+00  0.18015203875E+04  0.18015203875E+04  0.00000000000E+00 0. -1.
         -1   -1    0    0    0  501 -0.00000000000E+00 -0.00000000000E+00 -0.65020893325E+03  0.65020893325E+03  0.00000000000E+00 0.  1.
         23    2    1    2    0    0 -0.98367150111E+03 -0.13825089185E+03  0.95651445242E+02  0.10021980221E+04  0.92351206076E+02 0.  0.
         11    1    3    3    0    0 -0.61859412949E+03 -0.43643054204E+02  0.72425689886E+02  0.62434677366E+03  0.00000000000E+00 0.  1.
        -11    1    3    3    0    0 -0.36507737162E+03 -0.94607837647E+02  0.23225755356E+02  0.37785124841E+03  0.00000000000E+00 0. -1.
         22    1    1    2    0    0  0.98367150111E+03  0.13825089185E+03  0.10556600090E+04  0.14495312987E+04  0.00000000000E+00 0. -1.
<mgrwt>
<rscale>  0 0.21645920E+04</rscale>
<asrwt>0</asrwt>
<pdfrwt beam="1">  1        1 0.27715698E+00 0.21645920E+04</pdfrwt>
<pdfrwt beam="2">  1       -1 0.10003214E+00 0.21645920E+04</pdfrwt>
<totfact> 0.35396987E+00</totfact>
</mgrwt>
</event>
<event>
 6    1  0.9906445E-006  0.2409256E+04  0.7818608E-02  0.8436046E-01
         -2   -1    0    0    0  501 -0.00000000000E+00  0.00000000000E+00  0.67162021062E+03  0.67162021062E+03  0.00000000000E+00 0.  1.
          2   -1    0    0  501    0  0.00000000000E+00 -0.00000000000E+00 -0.21606393067E+04  0.21606393067E+04  0.00000000000E+00 0. -1.
         23    2    1    2    0    0  0.69202250266E+03 -0.40122018611E+03  0.31046647842E+03  0.86299033440E+03  0.92141744677E+02 0.  0.
         13    1    3    3    0    0  0.21591297613E+03 -0.16745002888E+03  0.13126891552E+03  0.30313273267E+03  0.00000000000E+00 0. -1.
        -13    1    3    3    0    0  0.47610952653E+03 -0.23377015722E+03  0.17919756290E+03  0.55985760173E+03  0.00000000000E+00 0.  1.
         22    1    1    2    0    0 -0.69202250266E+03  0.40122018611E+03 -0.17994855745E+04  0.19692691829E+04  0.00000000000E+00 0. -1.
<mgrwt>
<rscale>  0 0.24092563E+04</rscale>
<asrwt>0</asrwt>
<pdfrwt beam="1">  1        2 0.33240605E+00 0.24092563E+04</pdfrwt>
<pdfrwt beam="2">  1       -2 0.10332619E+00 0.24092563E+04</pdfrwt>
<totfact> 0.37296535E+00</totfact>
</mgrwt>
</event>
<event>
 6    1  0.9906445E-006  0.2796347E+04  0.7818608E-02  0.8304403E-01
         -1   -1    0    0    0  501 -0.00000000000E+00  0.00000000000E+00  0.17533512961E+04  0.17533512961E+04  0.00000000000E+00 0.  1.
          1   -1    0    0  501    0  0.00000000000E+00 -0.00000000000E+00 -0.11149440460E+04  0.11149440460E+04  0.00000000000E+00 0. -1.
         23    2    1    2    0    0 -0.77642884736E+02 -0.12719073256E+04 -0.26697941885E+03  0.13051249474E+04  0.91084882188E+02 0.  0.
         13    1    3    3    0    0 -0.43267210836E+02 -0.11272976111E+04 -0.22133544411E+03  0.11496353050E+04  0.00000000000E+00 0. -1.
        -13    1    3    3    0    0 -0.34375673900E+02 -0.14460971451E+03 -0.45643974747E+02  0.15548964248E+03  0.00000000000E+00 0.  1.
         22    1    1    2    0    0  0.77642884736E+02  0.12719073256E+04  0.90538666891E+03  0.15631703947E+04  0.00000000000E+00 0.  1.
<mgrwt>
<rscale>  0 0.27963466E+04</rscale>
<asrwt>0</asrwt>
<pdfrwt beam="1">  1        1 0.17152985E+00 0.27963466E+04</pdfrwt>
<pdfrwt beam="2">  1       -1 0.26974635E+00 0.27963466E+04</pdfrwt>
<totfact> 0.55487805E-01</totfact>
</mgrwt>
</event>
<event>
 6    1  0.1484366E-005  0.4274956E+04  0.7818608E-02  0.7951265E-01
         -1   -1    0    0    0  501 -0.00000000000E+00  0.00000000000E+00  0.21373692573E+04  0.21373692573E+04  0.00000000000E+00 0.  1.
          1   -1    0    0  501    0  0.00000000000E+00 -0.00000000000E+00 -0.21375867507E+04  0.21375867507E+04  0.00000000000E+00 0. -1.
         23    2    1    2    0    0 -0.55716459588E+03  0.20233374300E+04  0.39986214237E+03  0.21385125949E+04  0.94971800295E+02 0.  0.
         11    1    3    3    0    0 -0.37548183108E+03  0.12424452293E+04  0.28081522402E+03  0.13279736229E+04  0.00000000000E+00 0.  1.
        -11    1    3    3    0    0 -0.18168276480E+03  0.78089220076E+03  0.11904691835E+03  0.81053897192E+03  0.00000000000E+00 0. -1.
         22    1    1    2    0    0  0.55716459588E+03 -0.20233374300E+04 -0.40007963573E+03  0.21364434131E+04  0.00000000000E+00 0. -1.
<mgrwt>
<rscale>  0 0.42749560E+04</rscale>
<asrwt>0</asrwt>
<pdfrwt beam="1">  1        1 0.32885950E+00 0.42749560E+04</pdfrwt>
<pdfrwt beam="2">  1       -1 0.32882604E+00 0.42749560E+04</pdfrwt>
<totfact> 0.39398604E-02</totfact>
</mgrwt>
</event>
<event>
 6    1  0.9906445E-006  0.3404553E+04  0.7818608E-02  0.8136790E-01
         -2   -1    0    0    0  501 -0.00000000000E+00  0.00000000000E+00  0.11534238869E+04  0.11534238869E+04  0.00000000000E+00 0.  1.
          2   -1    0    0  501    0  0.00000000000E+00 -0.00000000000E+00 -0.25122989079E+04  0.25122989079E+04  0.00000000000E+00 0. -1.
         23    2    1    2    0    0  0.60612558029E+03 -0.95265134231E+03  0.68996415169E+03  0.13263479306E+04  0.90639414102E+02 0.  0.
         13    1    3    3    0    0  0.26787895009E+03 -0.42887066207E+03  0.25665999060E+03  0.56706571705E+03  0.00000000000E+00 0. -1.
        -13    1    3    3    0    0  0.33824663020E+03 -0.52378068024E+03  0.43330416110E+03  0.75928221358E+03  0.00000000000E+00 0.  1.
         22    1    1    2    0    0 -0.60612558029E+03  0.95265134231E+03 -0.20488391727E+04  0.23393748641E+04  0.00000000000E+00 0. -1.
<mgrwt>
<rscale>  0 0.34045532E+04</rscale>
<asrwt>0</asrwt>
<pdfrwt beam="1">  1        2 0.38650752E+00 0.34045532E+04</pdfrwt>
<pdfrwt beam="2">  1       -2 0.17744983E+00 0.34045532E+04</pdfrwt>
<totfact> 0.53552760E-01</totfact>
</mgrwt>
</event>
<event>
 6    1  0.9906445E-006  0.1351435E+04  0.7818608E-02  0.8989743E-01
         -2   -1    0    0    0  501 -0.00000000000E+00  0.00000000000E+00  0.23467385095E+03  0.23467385095E+03  0.00000000000E+00 0.  1.
          2   -1    0    0  501    0  0.00000000000E+00 -0.00000000000E+00 -0.19456528514E+04  0.19456528514E+04  0.00000000000E+00 0. -1.
         23    2    1    2    0    0 -0.42200250846E+03  0.50150865979E+03 -0.61571449387E+03  0.90392496607E+03  0.91536622873E+02 0.  0.
         11    1    3    3    0    0 -0.24361082864E+03  0.28616268349E+03 -0.29038749870E+03  0.47493180210E+03  0.00000000000E+00 0.  1.
        -11    1    3    3    0    0 -0.17839167983E+03  0.21534597630E+03 -0.32532699517E+03  0.42899316396E+03  0.00000000000E+00 0. -1.
         22    1    1    2    0    0  0.42200250846E+03 -0.50150865979E+03 -0.10952645065E+04  0.12764017362E+04  0.00000000000E+00 0. -1.
<mgrwt>
<rscale>  0 0.13514346E+04</rscale>
<asrwt>0</asrwt>
<pdfrwt beam="1">  1        2 0.29933120E+00 0.13514346E+04</pdfrwt>
<pdfrwt beam="2">  1       -2 0.36103670E-01 0.13514346E+04</pdfrwt>
<totfact> 0.50516472E+01</totfact>
</mgrwt>
</event>
<event>
 6    1  0.9906445E-006  0.1796549E+04  0.7818608E-02  0.8708137E-01
          1   -1    0    0  501    0  0.00000000000E+00  0.00000000000E+00  0.12263937520E+04  0.12263937520E+04  0.00000000000E+00 0. -1.
         -1   -1    0    0    0  501 -0.00000000000E+00 -0.00000000000E+00 -0.65794324978E+03  0.65794324978E+03  0.00000000000E+00 0.  1.
         23    2    1    2    0    0  0.14694637804E+03  0.61083072916E+02  0.12096191757E+04  0.12237148347E+04  0.94736827613E+02 0.  0.
         13    1    3    3    0    0  0.74152545054E+02  0.63056974333E+02  0.43895757372E+03  0.44962043267E+03  0.00000000000E+00 0.  1.
        -13    1    3    3    0    0  0.72793832988E+02 -0.19739014168E+01  0.77066160199E+03  0.77409440199E+03  0.00000000000E+00 0. -1.
         22    1    1    2    0    0 -0.14694637804E+03 -0.61083072916E+02 -0.64116867349E+03  0.66062216712E+03  0.00000000000E+00 0.  1.
<mgrwt>
<rscale>  0 0.17965495E+04</rscale>
<asrwt>0</asrwt>
<pdfrwt beam="1">  1        1 0.18867596E+00 0.17965495E+04</pdfrwt>
<pdfrwt beam="2">  1       -1 0.10122204E+00 0.17965495E+04</pdfrwt>
<totfact> 0.89436728E+00</totfact>
</mgrwt>
</event>
<event>
 6    1  0.9906445E-006  0.2700878E+04  0.7818608E-02  0.8334720E-01
          2   -1    0    0  501    0  0.00000000000E+00  0.00000000000E+00  0.33697269421E+04  0.33697269421E+04  0.00000000000E+00 0. -1.
         -2   -1    0    0    0  501 -0.00000000000E+00 -0.00000000000E+00 -0.54119666034E+03  0.54119666034E+03  0.00000000000E+00 0.  1.
         23    2    1    2    0    0 -0.52127942674E+03 -0.26368434519E+03 -0.34464773698E+03  0.68442078774E+03  0.91586447969E+02 0.  0.
         13    1    3    3    0    0 -0.35304810530E+03 -0.21634176437E+03 -0.21310944073E+03  0.46568482624E+03  0.00000000000E+00 0. -1.
        -13    1    3    3    0    0 -0.16823132144E+03 -0.47342580814E+02 -0.13153829626E+03  0.21873596150E+03  0.00000000000E+00 0.  1.
         22    1    1    2    0    0  0.52127942674E+03  0.26368434519E+03  0.31731780187E+04  0.32265028147E+04  0.00000000000E+00 0. -1.
<mgrwt>
<rscale>  0 0.27008776E+04</rscale>
<asrwt>0</asrwt>
<pdfrwt beam="1">  1        2 0.51841951E+00 0.27008776E+04</pdfrwt>
<pdfrwt beam="2">  1       -2 0.83261027E-01 0.27008776E+04</pdfrwt>
<totfact> 0.11076083E+00</totfact>
</mgrwt>
</event>
<event>
 6    1  0.9906445E-006  0.2477773E+04  0.7818608E-02  0.8410947E-01
         -1   -1    0    0    0  501 -0.00000000000E+00  0.00000000000E+00  0.48626661052E+03  0.48626661052E+03  0.00000000000E+00 0.  1.
          1   -1    0    0  501    0  0.00000000000E+00 -0.00000000000E+00 -0.31563748906E+04  0.31563748906E+04  0.00000000000E+00 0. -1.
         23    2    1    2    0    0  0.36135015179E+03 -0.11831301422E+04 -0.13580923816E+04  0.18393787406E+04  0.92349167460E+02 0.  0.
         13    1    3    3    0    0  0.21167302538E+03 -0.72647824979E+03 -0.89495582859E+03  0.11719735715E+04  0.00000000000E+00 0.  1.
        -13    1    3    3    0    0  0.14967712641E+03 -0.45665189243E+03 -0.46313655299E+03  0.66740516910E+03  0.00000000000E+00 0. -1.
         22    1    1    2    0    0 -0.36135015179E+03  0.11831301422E+04 -0.13120158985E+04  0.18032627605E+04  0.00000000000E+00 0. -1.
<mgrwt>
<rscale>  0 0.24777730E+04</rscale>
<asrwt>0</asrwt>
<pdfrwt beam="1">  1        1 0.48559615E+00 0.24777730E+04</pdfrwt>
<pdfrwt beam="2">  1       -1 0.74810246E-01 0.24777730E+04</pdfrwt>
<totfact> 0.73337698E-01</totfact>
</mgrwt>
</event>
<event>
 6    1  0.9906445E-006  0.2008117E+04  0.7818608E-02  0.8602835E-01
          2   -1    0    0  501    0  0.00000000000E+00  0.00000000000E+00  0.11279243745E+04  0.11279243745E+04  0.00000000000E+00 0. -1.
         -2   -1    0    0    0  501 -0.00000000000E+00 -0.00000000000E+00 -0.89379544501E+03  0.89379544501E+03  0.00000000000E+00 0.  1.
         23    2    1    2    0    0  0.34079112611E+03 -0.88976186197E+03  0.42969501603E+03  0.10490632219E+04  0.89894794532E+02 0.  0.
         13    1    3    3    0    0  0.84318480375E+02 -0.30570167523E+03  0.11091986862E+03  0.33595585666E+03  0.00000000000E+00 0.  1.
        -13    1    3    3    0    0  0.25647264574E+03 -0.58406018674E+03  0.31877514741E+03  0.71310736524E+03  0.00000000000E+00 0. -1.
         22    1    1    2    0    0 -0.34079112611E+03  0.88976186197E+03 -0.19556608655E+03  0.97265659760E+03  0.00000000000E+00 0.  1.
<mgrwt>
<rscale>  0 0.20081172E+04</rscale>
<asrwt>0</asrwt>
<pdfrwt beam="1">  1        2 0.17352683E+00 0.20081172E+04</pdfrwt>
<pdfrwt beam="2">  1       -2 0.13750699E+00 0.20081172E+04</pdfrwt>
<totfact> 0.73169561E+00</totfact>
</mgrwt>
</event>
<event>
 6    1  0.9906445E-006  0.4646463E+03  0.7818608E-02  0.1023442E+00
          1   -1    0    0  501    0  0.00000000000E+00  0.00000000000E+00  0.12186025517E+04  0.12186025517E+04  0.00000000000E+00 0. -1.
         -1   -1    0    0    0  501 -0.00000000000E+00 -0.00000000000E+00 -0.44291763432E+02  0.44291763432E+02  0.00000000000E+00 0.  1.
         23    2    1    2    0    0 -0.22207256742E+03  0.10839663401E+02  0.68130334843E+03  0.72207081413E+03  0.88194583329E+02 0.  0.
         13    1    3    3    0    0 -0.20648200225E+03  0.29914087242E+02  0.64721428486E+03  0.68001176490E+03  0.00000000000E+00 0. -1.
        -13    1    3    3    0    0 -0.15590565165E+02 -0.19074423841E+02  0.34089063567E+02  0.42059049227E+02  0.00000000000E+00 0.  1.
         22    1    1    2    0    0  0.22207256742E+03 -0.10839663401E+02  0.49300743982E+03  0.54082350099E+03  0.00000000000E+00 0.  1.
<mgrwt>
<rscale>  0 0.46464634E+03</rscale>
<asrwt>0</asrwt>
<pdfrwt beam="1">  1        1 0.18747729E+00 0.46464634E+03</pdfrwt>
<pdfrwt beam="2">  1       -1 0.68141184E-02 0.46464634E+03</pdfrwt>
<totfact> 0.12163566E+03</totfact>
</mgrwt>
</event>
<event>
 6    1  0.9906445E-006  0.1145454E+04  0.7818608E-02  0.9161988E-01
          1   -1    0    0  501    0  0.00000000000E+00  0.00000000000E+00  0.30232024754E+03  0.30232024754E+03  0.00000000000E+00 0. -1.
         -1   -1    0    0    0  501 -0.00000000000E+00 -0.00000000000E+00 -0.10849959100E+04  0.10849959100E+04  0.00000000000E+00 0.  1.
         23    2    1    2    0    0 -0.43904665588E+03 -0.29344023056E+03 -0.65071570453E+03  0.84299771635E+03  0.91351446066E+02 0.  0.
         13    1    3    3    0    0 -0.15806649863E+03 -0.74457768474E+02 -0.27003545893E+03  0.32163352803E+03  0.00000000000E+00 0.  1.
        -13    1    3    3    0    0 -0.28098015725E+03 -0.21898246208E+03 -0.38068024560E+03  0.52136418831E+03  0.00000000000E+00 0. -1.
         22    1    1    2    0    0  0.43904665588E+03  0.29344023056E+03 -0.13195995797E+03  0.54431844122E+03  0.00000000000E+00 0. -1.
<mgrwt>
<rscale>  0 0.11454540E+04</rscale>
<asrwt>0</asrwt>
<pdfrwt beam="1">  1        1 0.46510807E-01 0.11454540E+04</pdfrwt>
<pdfrwt beam="2">  1       -1 0.16692245E+00 0.11454540E+04</pdfrwt>
<totfact> 0.22360468E+01</totfact>
</mgrwt>
</event>
<event>
 6    1  0.9906445E-006  0.3882213E+04  0.7818608E-02  0.8028739E-01
          1   -1    0    0  501    0  0.00000000000E+00  0.00000000000E+00  0.23661500482E+04  0.23661500482E+04  0.00000000000E+00 0. -1.
         -1   -1    0    0    0  501 -0.00000000000E+00 -0.00000000000E+00 -0.15924159873E+04  0.15924159873E+04  0.00000000000E+00 0.  1.
         23    2    1    2    0    0 -0.14461778881E+04 -0.99070642290E+03  0.12347395044E+04  0.21459834251E+04  0.87940415851E+02 0.  0.
         11    1    3    3    0    0 -0.58236337227E+03 -0.38285729297E+03  0.44107510350E+03  0.82478727626E+03  0.00000000000E+00 0.  1.
        -11    1    3    3    0    0 -0.86381451584E+03 -0.60784912993E+03  0.79366440087E+03  0.13211961489E+04  0.00000000000E+00 0. -1.
         22    1    1    2    0    0  0.14461778881E+04  0.99070642290E+03 -0.46100544343E+03  0.18125826103E+04  0.00000000000E+00 0.  1.
<mgrwt>
<rscale>  0 0.38822134E+04</rscale>
<asrwt>0</asrwt>
<pdfrwt beam="1">  1        1 0.36402308E+00 0.38822134E+04</pdfrwt>
<pdfrwt beam="2">  1       -1 0.24498708E+00 0.38822134E+04</pdfrwt>
<totfact> 0.99607842E-02</totfact>
</mgrwt>
</event>
<event>
 6    1  0.9906445E-006  0.2135878E+04  0.7818608E-02  0.8545601E-01
          2   -1    0    0  501    0  0.00000000000E+00  0.00000000000E+00  0.33135016281E+04  0.33135016281E+04  0.00000000000E+00 0.  1.
         -2   -1    0    0    0  501 -0.00000000000E+00 -0.00000000000E+00 -0.34419595963E+03  0.34419595963E+03  0.00000000000E+00 0. -1.
         23    2    1    2    0    0  0.41348077690E+03  0.76720492244E+03  0.25385202878E+04  0.26855114995E+04  0.91197678408E+02 0.  0.
         13    1    3    3    0    0  0.36532973650E+03  0.60842504904E+03  0.20980336573E+04  0.22148119748E+04  0.00000000000E+00 0.  1.
        -13    1    3    3    0    0  0.48151040397E+02  0.15877987339E+03  0.44048663051E+03  0.47069952469E+03  0.00000000000E+00 0. -1.
         22    1    1    2    0    0 -0.41348077690E+03 -0.76720492244E+03  0.43078538063E+03  0.97218608818E+03  0.00000000000E+00 0. -1.
<mgrwt>
<rscale>  0 0.21358782E+04</rscale>
<asrwt>0</asrwt>
<pdfrwt beam="1">  1        2 0.50976946E+00 0.21358782E+04</pdfrwt>
<pdfrwt beam="2">  1       -2 0.52953227E-01 0.21358782E+04</pdfrwt>
<totfact> 0.33817557E+00</totfact>
</mgrwt>
</event>
<event>
 6    1  0.9906445E-006  0.2398212E+04  0.7818608E-02  0.8440173E-01
         -1   -1    0    0    0  501 -0.00000000000E+00  0.00000000000E+00  0.67790148527E+03  0.67790148527E+03  0.00000000000E+00 0.  1.
          1   -1    0    0  501    0  0.00000000000E+00 -0.00000000000E+00 -0.21210381495E+04  0.21210381495E+04  0.00000000000E+00 0. -1.
         23    2    1    2    0    0 -0.13875535766E+03  0.11244047577E+04 -0.11751239450E+04  0.16347360761E+04  0.88919311122E+02 0.  0.
         13    1    3    3    0    0 -0.40616266235E+02  0.40475319856E+03 -0.48275080804E+03  0.63128692010E+03  0.00000000000E+00 0. -1.
        -13    1    3    3    0    0 -0.98139091420E+02  0.71965155914E+03 -0.69237313693E+03  0.10034491560E+04  0.00000000000E+00 0.  1.
         22    1    1    2    0    0  0.13875535766E+03 -0.11244047577E+04 -0.26801271924E+03  0.11642035587E+04  0.00000000000E+00 0.  1.
<mgrwt>
<rscale>  0 0.23982118E+04</rscale>
<asrwt>0</asrwt>
<pdfrwt beam="1">  1        1 0.32631356E+00 0.23982118E+04</pdfrwt>
<pdfrwt beam="2">  1       -1 0.10429254E+00 0.23982118E+04</pdfrwt>
<totfact> 0.19109711E+00</totfact>
</mgrwt>
</event>
<event>
 6    1  0.9906445E-006  0.6092559E+03  0.7818608E-02  0.9886387E-01
          2   -1    0    0  501    0  0.00000000000E+00  0.00000000000E+00  0.77689936948E+03  0.77689936948E+03  0.00000000000E+00 0. -1.
         -2   -1    0    0    0  501 -0.00000000000E+00 -0.00000000000E+00 -0.11944685769E+03  0.11944685769E+03  0.00000000000E+00 0.  1.
         23    2    1    2    0    0  0.17118095398E+03  0.15825035178E+03  0.61615039124E+02  0.25652720066E+03  0.87542554166E+02 0.  0.
         13    1    3    3    0    0  0.36610712131E+02  0.81871811625E+02 -0.77475350668E+00  0.89688003794E+02  0.00000000000E+00 0.  1.
        -13    1    3    3    0    0  0.13457024185E+03  0.76378540153E+02  0.62389792631E+02  0.16683919687E+03  0.00000000000E+00 0. -1.
         22    1    1    2    0    0 -0.17118095398E+03 -0.15825035178E+03  0.59583747266E+03  0.63981902650E+03  0.00000000000E+00 0. -1.
<mgrwt>
<rscale>  0 0.60925590E+03</rscale>
<asrwt>0</asrwt>
<pdfrwt beam="1">  1        2 0.11952298E+00 0.60925590E+03</pdfrwt>
<pdfrwt beam="2">  1       -2 0.18376440E-01 0.60925590E+03</pdfrwt>
<totfact> 0.89068308E+02</totfact>
</mgrwt>
</event>
<event>
 6    1  0.9906445E-006  0.1409771E+04  0.7818608E-02  0.8946776E-01
          2   -1    0    0  501    0  0.00000000000E+00  0.00000000000E+00  0.16831796776E+04  0.16831796776E+04  0.00000000000E+00 0. -1.
         -2   -1    0    0    0  501 -0.00000000000E+00 -0.00000000000E+00 -0.29519329225E+03  0.29519329225E+03  0.00000000000E+00 0.  1.
         23    2    1    2    0    0  0.50736438555E+03  0.42517172539E+03  0.10241594607E+04  0.12230189820E+04  0.93183762708E+02 0.  0.
         13    1    3    3    0    0  0.46484693749E+03  0.36086435727E+03  0.86536174127E+03  0.10464973497E+04  0.00000000000E+00 0.  1.
        -13    1    3    3    0    0  0.42517448059E+02  0.64307368124E+02  0.15879771945E+03  0.17652163235E+03  0.00000000000E+00 0. -1.
         22    1    1    2    0    0 -0.50736438555E+03 -0.42517172539E+03  0.36382692458E+03  0.75535398778E+03  0.00000000000E+00 0.  1.
<mgrwt>
<rscale>  0 0.14097707E+04</rscale>
<asrwt>0</asrwt>
<pdfrwt beam="1">  1        2 0.25895071E+00 0.14097707E+04</pdfrwt>
<pdfrwt beam="2">  1       -2 0.45414354E-01 0.14097707E+04</pdfrwt>
<totfact> 0.44806700E+01</totfact>
</mgrwt>
</event>
<event>
 6    1  0.9906445E-006  0.2087995E+04  0.7818608E-02  0.8566550E-01
         -1   -1    0    0    0  501 -0.00000000000E+00  0.00000000000E+00  0.13602560347E+04  0.13602560347E+04  0.00000000000E+00 0.  1.
          1   -1    0    0  501    0  0.00000000000E+00 -0.00000000000E+00 -0.80126865694E+03  0.80126865694E+03  0.00000000000E+00 0. -1.
         23    2    1    2    0    0 -0.62928255520E+03  0.19449529086E+03  0.11158696801E+04  0.12990034739E+04  0.91760176112E+02 0.  0.
         11    1    3    3    0    0 -0.10601857074E+03  0.19083098240E+02  0.12679121895E+03  0.16637342090E+03  0.00000000000E+00 0.  1.
        -11    1    3    3    0    0 -0.52326398446E+03  0.17541219262E+03  0.98907846112E+03  0.11326300530E+04  0.00000000000E+00 0. -1.
         22    1    1    2    0    0  0.62928255520E+03 -0.19449529086E+03 -0.55688230229E+03  0.86252121774E+03  0.00000000000E+00 0. -1.
<mgrwt>
<rscale>  0 0.20879948E+04</rscale>
<asrwt>0</asrwt>
<pdfrwt beam="1">  1        1 0.12327210E+00 0.20879948E+04</pdfrwt>
<pdfrwt beam="2">  1       -1 0.20927016E+00 0.20879948E+04</pdfrwt>
<totfact> 0.26398112E+00</totfact>
</mgrwt>
</event>
<event>
 6    1  0.9906445E-006  0.1905170E+04  0.7818608E-02  0.8652287E-01
         -1   -1    0    0    0  501 -0.00000000000E+00  0.00000000000E+00  0.64680878128E+03  0.64680878128E+03  0.00000000000E+00 0.  1.
          1   -1    0    0  501    0  0.00000000000E+00 -0.00000000000E+00 -0.14029150197E+04  0.14029150197E+04  0.00000000000E+00 0. -1.
         23    2    1    2    0    0  0.35884300527E+03  0.19456387577E+02 -0.13245584943E+04  0.13772025593E+04  0.11438894647E+03 0.  0.
         13    1    3    3    0    0  0.24569322517E+03  0.19478808148E+02 -0.69145081698E+03  0.73406322422E+03  0.00000000000E+00 0.  1.
        -13    1    3    3    0    0  0.11314978011E+03 -0.22420570070E-01 -0.63310767729E+03  0.64313933505E+03  0.00000000000E+00 0. -1.
         22    1    1    2    0    0 -0.35884300527E+03 -0.19456387577E+02  0.56845225582E+03  0.67252124174E+03  0.00000000000E+00 0.  1.
<mgrwt>
<rscale>  0 0.19051696E+04</rscale>
<asrwt>0</asrwt>
<pdfrwt beam="1">  1        1 0.21583308E+00 0.19051696E+04</pdfrwt>
<pdfrwt beam="2">  1       -1 0.99509043E-01 0.19051696E+04</pdfrwt>
<totfact> 0.68932152E+00</totfact>
</mgrwt>
</event>
<event>
 6    1  0.9906445E-006  0.1919584E+04  0.7818608E-02  0.8645169E-01
         -1   -1    0    0    0  501 -0.00000000000E+00  0.00000000000E+00  0.10584674168E+04  0.10584674168E+04  0.00000000000E+00 0.  1.
          1   -1    0    0  501    0  0.00000000000E+00 -0.00000000000E+00 -0.87031551904E+03  0.87031551904E+03  0.00000000000E+00 0. -1.
         23    2    1    2    0    0 -0.40182665665E+03 -0.82560319236E+03  0.36759796410E+03  0.99321562995E+03  0.90905066642E+02 0.  0.
         13    1    3    3    0    0 -0.24012817399E+03 -0.42589481495E+03  0.23233742899E+03  0.54132117477E+03  0.00000000000E+00 0.  1.
        -13    1    3    3    0    0 -0.16169848267E+03 -0.39970837741E+03  0.13526053511E+03  0.45189445518E+03  0.00000000000E+00 0. -1.
         22    1    1    2    0    0  0.40182665665E+03  0.82560319236E+03 -0.17944606630E+03  0.93556730594E+03  0.00000000000E+00 0. -1.
<mgrwt>
<rscale>  0 0.19195839E+04</rscale>
<asrwt>0</asrwt>
<pdfrwt beam="1">  1        1 0.13389469E+00 0.19195839E+04</pdfrwt>
<pdfrwt beam="2">  1       -1 0.16284114E+00 0.19195839E+04</pdfrwt>
<totfact> 0.50031280E+00</totfact>
</mgrwt>
</event>
<event>
 6    1  0.9906445E-006  0.2519209E+04  0.7818608E-02  0.8396174E-01
          2   -1    0    0  501    0  0.00000000000E+00  0.00000000000E+00  0.16092015081E+04  0.16092015081E+04  0.00000000000E+00 0. -1.
         -2   -1    0    0    0  501 -0.00000000000E+00 -0.00000000000E+00 -0.98595673277E+03  0.98595673277E+03  0.00000000000E+00 0.  1.
         23    2    1    2    0    0  0.85752047746E+03  0.30167132446E+03  0.12077694386E+04  0.15144103336E+04  0.91567921215E+02 0.  0.
         11    1    3    3    0    0  0.63680629543E+03  0.22770054610E+03  0.82946857381E+03  0.10702279718E+04  0.00000000000E+00 0. -1.
        -11    1    3    3    0    0  0.22071418204E+03  0.73970778361E+02  0.37830086482E+03  0.44418236179E+03  0.00000000000E+00 0.  1.
         22    1    1    2    0    0 -0.85752047746E+03 -0.30167132446E+03 -0.58452466327E+03  0.10807479074E+04  0.00000000000E+00 0.  1.
<mgrwt>
<rscale>  0 0.25192087E+04</rscale>
<asrwt>0</asrwt>
<pdfrwt beam="1">  1        2 0.24756946E+00 0.25192087E+04</pdfrwt>
<pdfrwt beam="2">  1       -2 0.15168565E+00 0.25192087E+04</pdfrwt>
<totfact> 0.28546775E+00</totfact>
</mgrwt>
</event>
<event>
 6    1  0.9906445E-006  0.2063927E+04  0.7818608E-02  0.8577303E-01
         -1   -1    0    0    0  501 -0.00000000000E+00  0.00000000000E+00  0.90995758064E+03  0.90995758064E+03  0.00000000000E+00 0.  1.
          1   -1    0    0  501    0  0.00000000000E+00 -0.00000000000E+00 -0.11703273162E+04  0.11703273162E+04  0.00000000000E+00 0. -1.
         23    2    1    2    0    0  0.93987267714E+03  0.36517277796E+03 -0.34277141878E+03  0.10686022171E+04  0.87787504138E+02 0.  0.
         11    1    3    3    0    0  0.66239751946E+03  0.29211109431E+03 -0.26929203344E+03  0.77241023069E+03  0.00000000000E+00 0. -1.
        -11    1    3    3    0    0  0.27747515769E+03  0.73061683655E+02 -0.73479385335E+02  0.29619198642E+03  0.00000000000E+00 0.  1.
         22    1    1    2    0    0 -0.93987267714E+03 -0.36517277796E+03  0.82401683239E+02  0.10116826797E+04  0.00000000000E+00 0.  1.
<mgrwt>
<rscale>  0 0.20639266E+04</rscale>
<asrwt>0</asrwt>
<pdfrwt beam="1">  1        1 0.18005035E+00 0.20639266E+04</pdfrwt>
<pdfrwt beam="2">  1       -1 0.13999348E+00 0.20639266E+04</pdfrwt>
<totfact> 0.43459167E+00</totfact>
</mgrwt>
</event>
<event>
 6    1  0.9906445E-006  0.1213763E+04  0.7818608E-02  0.9100894E-01
         -2   -1    0    0    0  501 -0.00000000000E+00  0.00000000000E+00  0.86808913887E+03  0.86808913887E+03  0.00000000000E+00 0.  1.
          2   -1    0    0  501    0  0.00000000000E+00 -0.00000000000E+00 -0.42427117207E+03  0.42427117207E+03  0.00000000000E+00 0. -1.
         23    2    1    2    0    0  0.55306385130E+03 -0.23037071292E+03  0.14566822308E+03  0.62314916439E+03  0.90251653063E+02 0.  0.
         11    1    3    3    0    0  0.40984386994E+02 -0.36103480024E+02  0.33551567036E+02  0.64100615424E+02  0.00000000000E+00 0. -1.
        -11    1    3    3    0    0  0.51207946430E+03 -0.19426723290E+03  0.11211665605E+03  0.55904854897E+03  0.00000000000E+00 0.  1.
         22    1    1    2    0    0 -0.55306385130E+03  0.23037071292E+03  0.29814974371E+03  0.66921114655E+03  0.00000000000E+00 0.  1.
<mgrwt>
<rscale>  0 0.12137631E+04</rscale>
<asrwt>0</asrwt>
<pdfrwt beam="1">  1        2 0.65272488E-01 0.12137631E+04</pdfrwt>
<pdfrwt beam="2">  1       -2 0.13355217E+00 0.12137631E+04</pdfrwt>
<totfact> 0.29716581E+01</totfact>
</mgrwt>
</event>
<event>
 6    1  0.9906445E-006  0.4648063E+04  0.7818608E-02  0.7885216E-01
          2   -1    0    0  501    0  0.00000000000E+00  0.00000000000E+00  0.36533840981E+04  0.36533840981E+04  0.00000000000E+00 0. -1.
         -2   -1    0    0    0  501 -0.00000000000E+00 -0.00000000000E+00 -0.14783889191E+04  0.14783889191E+04  0.00000000000E+00 0.  1.
         23    2    1    2    0    0  0.64524167857E+03  0.72282718639E+03  0.34190231366E+04  0.35549339245E+04  0.94973861384E+02 0.  0.
         13    1    3    3    0    0  0.24020162155E+03  0.28296967378E+03  0.14783573473E+04  0.15242404999E+04  0.00000000000E+00 0. -1.
        -13    1    3    3    0    0  0.40504005702E+03  0.43985751262E+03  0.19406657893E+04  0.20306934247E+04  0.00000000000E+00 0.  1.
         22    1    1    2    0    0 -0.64524167857E+03 -0.72282718639E+03 -0.12440279576E+04  0.15768390927E+04  0.00000000000E+00 0.  1.
<mgrwt>
<rscale>  0 0.46480631E+04</rscale>
<asrwt>0</asrwt>
<pdfrwt beam="1">  1        2 0.56205909E+00 0.46480631E+04</pdfrwt>
<pdfrwt beam="2">  1       -2 0.22744445E+00 0.46480631E+04</pdfrwt>
<totfact> 0.41841376E-02</totfact>
</mgrwt>
</event>
<event>
 6    1  0.9906445E-006  0.8195044E+03  0.7818608E-02  0.9532207E-01
          2   -1    0    0  501    0  0.00000000000E+00  0.00000000000E+00  0.15406676958E+04  0.15406676958E+04  0.00000000000E+00 0. -1.
         -2   -1    0    0    0  501 -0.00000000000E+00 -0.00000000000E+00 -0.10897668537E+03  0.10897668537E+03  0.00000000000E+00 0.  1.
         23    2    1    2    0    0  0.28433929353E+03 -0.26582406064E+03  0.94748100581E+03  0.10283790646E+04  0.91279674583E+02 0.  0.
         11    1    3    3    0    0  0.11448974049E+03 -0.10848535878E+03  0.50394427688E+03  0.52805000516E+03  0.00000000000E+00 0.  1.
        -11    1    3    3    0    0  0.16984955304E+03 -0.15733870186E+03  0.44353672893E+03  0.50032905940E+03  0.00000000000E+00 0. -1.
         22    1    1    2    0    0 -0.28433929353E+03  0.26582406064E+03  0.48421000463E+03  0.62126531663E+03  0.00000000000E+00 0.  1.
<mgrwt>
<rscale>  0 0.81950438E+03</rscale>
<asrwt>0</asrwt>
<pdfrwt beam="1">  1        2 0.23702578E+00 0.81950438E+03</pdfrwt>
<pdfrwt beam="2">  1       -2 0.16765645E-01 0.81950438E+03</pdfrwt>
<totfact> 0.35221006E+02</totfact>
</mgrwt>
</event>
<event>
 6    1  0.9906445E-006  0.2010700E+04  0.7818608E-02  0.8601634E-01
         -2   -1    0    0    0  501 -0.00000000000E+00  0.00000000000E+00  0.54889162246E+03  0.54889162246E+03  0.00000000000E+00 0.  1.
          2   -1    0    0  501    0  0.00000000000E+00 -0.00000000000E+00 -0.18413992982E+04  0.18413992982E+04  0.00000000000E+00 0. -1.
         23    2    1    2    0    0  0.58181760487E+03  0.61408337610E+03 -0.12883856673E+04  0.15443434582E+04  0.97205818952E+02 0.  0.
         13    1    3    3    0    0  0.31005809538E+03  0.31924984407E+03 -0.58984839604E+03  0.73890298129E+03  0.00000000000E+00 0.  1.
        -13    1    3    3    0    0  0.27175950948E+03  0.29483353203E+03 -0.69853727124E+03  0.80544047696E+03  0.00000000000E+00 0. -1.
         22    1    1    2    0    0 -0.58181760487E+03 -0.61408337610E+03 -0.41220084040E+01  0.84594746237E+03  0.00000000000E+00 0.  1.
<mgrwt>
<rscale>  0 0.20107000E+04</rscale>
<asrwt>0</asrwt>
<pdfrwt beam="1">  1        2 0.28329221E+00 0.20107000E+04</pdfrwt>
<pdfrwt beam="2">  1       -2 0.84444863E-01 0.20107000E+04</pdfrwt>
<totfact> 0.92906064E+00</totfact>
</mgrwt>
</event>
<event>
 6    1  0.9906445E-006  0.2578642E+04  0.7818608E-02  0.8375492E-01
         -1   -1    0    0    0  501 -0.00000000000E+00  0.00000000000E+00  0.94859499205E+03  0.94859499205E+03  0.00000000000E+00 0.  1.
          1   -1    0    0  501    0  0.00000000000E+00 -0.00000000000E+00 -0.17524322422E+04  0.17524322422E+04  0.00000000000E+00 0. -1.
         23    2    1    2    0    0 -0.30080752372E+03 -0.85705827981E+03 -0.13585897157E+04  0.16367038062E+04  0.89438652144E+02 0.  0.
         11    1    3    3    0    0 -0.95433263607E+01 -0.97717968715E+02 -0.17427681151E+03  0.20003070644E+03  0.00000000000E+00 0. -1.
        -11    1    3    3    0    0 -0.29126419736E+03 -0.75934031109E+03 -0.11843129042E+04  0.14366730998E+04  0.00000000000E+00 0.  1.
         22    1    1    2    0    0  0.30080752372E+03  0.85705827981E+03  0.55475246555E+03  0.10643234280E+04  0.00000000000E+00 0.  1.
<mgrwt>
<rscale>  0 0.25786419E+04</rscale>
<asrwt>0</asrwt>
<pdfrwt beam="1">  1        1 0.26960496E+00 0.25786419E+04</pdfrwt>
<pdfrwt beam="2">  1       -1 0.14593769E+00 0.25786419E+04</pdfrwt>
<totfact> 0.14545726E+00</totfact>
</mgrwt>
</event>
<event>
 6    1  0.9906445E-006  0.1356369E+04  0.7818608E-02  0.8986021E-01
          2   -1    0    0  501    0  0.00000000000E+00  0.00000000000E+00  0.21596093163E+04  0.21596093163E+04  0.00000000000E+00 0. -1.
         -2   -1    0    0    0  501 -0.00000000000E+00 -0.00000000000E+00 -0.21297090095E+03  0.21297090095E+03  0.00000000000E+00 0.  1.
         23    2    1    2    0    0  0.31095461274E+03  0.41818981065E+03  0.17285631905E+04  0.18076622651E+04  0.90203504696E+02 0.  0.
         13    1    3    3    0    0  0.23148504193E+03  0.35555086117E+03  0.13075370487E+04  0.13746471814E+04  0.00000000000E+00 0. -1.
        -13    1    3    3    0    0  0.79469570811E+02  0.62638949482E+02  0.42102614179E+03  0.43301508374E+03  0.00000000000E+00 0.  1.
         22    1    1    2    0    0 -0.31095461274E+03 -0.41818981065E+03  0.21807522481E+03  0.56491795208E+03  0.00000000000E+00 0.  1.
<mgrwt>
<rscale>  0 0.13563686E+04</rscale>
<asrwt>0</asrwt>
<pdfrwt beam="1">  1        2 0.33224757E+00 0.13563686E+04</pdfrwt>
<pdfrwt beam="2">  1       -2 0.32764756E-01 0.13563686E+04</pdfrwt>
<totfact> 0.46219087E+01</totfact>
</mgrwt>
</event>
<event>
 6    1  0.9906445E-006  0.5747778E+03  0.7818608E-02  0.9959161E-01
         -4   -1    0    0    0  501 -0.00000000000E+00  0.00000000000E+00  0.32880423657E+03  0.32880423657E+03  0.00000000000E+00 0.  1.
          4   -1    0    0  501    0  0.00000000000E+00 -0.00000000000E+00 -0.25119016192E+03  0.25119016192E+03  0.00000000000E+00 0. -1.
         23    2    1    2    0    0  0.13122572779E+03  0.14202108102E+03 -0.16527243494E+03  0.26953661452E+03  0.89133774315E+02 0.  0.
         11    1    3    3    0    0  0.78378651674E+02  0.23356334923E+02 -0.78189978070E+02  0.11314770917E+03  0.00000000000E+00 0.  1.
        -11    1    3    3    0    0  0.52847076119E+02  0.11866474610E+03 -0.87082456871E+02  0.15638890535E+03  0.00000000000E+00 0. -1.
         22    1    1    2    0    0 -0.13122572779E+03 -0.14202108102E+03  0.24288650959E+03  0.31045778398E+03  0.00000000000E+00 0.  1.
<mgrwt>
<rscale>  0 0.57477783E+03</rscale>
<asrwt>0</asrwt>
<pdfrwt beam="1">  1        4 0.38644640E-01 0.57477783E+03</pdfrwt>
<pdfrwt beam="2">  1       -4 0.50585267E-01 0.57477783E+03</pdfrwt>
<totfact> 0.48374821E+01</totfact>
</mgrwt>
</event>
<event>
 6    1  0.9906445E-006  0.2020919E+04  0.7818608E-02  0.8596902E-01
          1   -1    0    0  501    0  0.00000000000E+00  0.00000000000E+00  0.11149126966E+04  0.11149126966E+04  0.00000000000E+00 0. -1.
         -1   -1    0    0    0  501 -0.00000000000E+00 -0.00000000000E+00 -0.91579234256E+03  0.91579234256E+03  0.00000000000E+00 0.  1.
         23    2    1    2    0    0  0.39921445052E+03 -0.41102013632E+03 -0.73404243261E+03  0.93566964412E+03  0.91376474554E+02 0.  0.
         11    1    3    3    0    0  0.32401417856E+03 -0.28018639640E+03 -0.51859506103E+03  0.67262949828E+03  0.00000000000E+00 0.  1.
        -11    1    3    3    0    0  0.75200271961E+02 -0.13083373992E+03 -0.21544737158E+03  0.26304014585E+03  0.00000000000E+00 0. -1.
         22    1    1    2    0    0 -0.39921445052E+03  0.41102013632E+03  0.93316278661E+03  0.10950353950E+04  0.00000000000E+00 0. -1.
<mgrwt>
<rscale>  0 0.20209191E+04</rscale>
<asrwt>0</asrwt>
<pdfrwt beam="1">  1        1 0.17152503E+00 0.20209191E+04</pdfrwt>
<pdfrwt beam="2">  1       -1 0.14089113E+00 0.20209191E+04</pdfrwt>
<totfact> 0.47168633E+00</totfact>
</mgrwt>
</event>
<event>
 6    1  0.9906445E-006  0.3144783E+04  0.7818608E-02  0.8203554E-01
          1   -1    0    0  501    0  0.00000000000E+00  0.00000000000E+00  0.19615984397E+04  0.19615984397E+04  0.00000000000E+00 0. -1.
         -1   -1    0    0    0  501 -0.00000000000E+00 -0.00000000000E+00 -0.12604082108E+04  0.12604082108E+04  0.00000000000E+00 0.  1.
         23    2    1    2    0    0  0.73540327939E+03  0.39739180745E+03  0.17138415800E+04  0.19089183096E+04  0.89319200602E+02 0.  0.
         13    1    3    3    0    0  0.48322673245E+03  0.21272982431E+03  0.10924473232E+04  0.12133438124E+04  0.00000000000E+00 0. -1.
        -13    1    3    3    0    0  0.25217654695E+03  0.18466198314E+03  0.62139425677E+03  0.69557449723E+03  0.00000000000E+00 0.  1.
         22    1    1    2    0    0 -0.73540327939E+03 -0.39739180745E+03 -0.10126513511E+04  0.13130883408E+04  0.00000000000E+00 0.  1.
<mgrwt>
<rscale>  0 0.31447828E+04</rscale>
<asrwt>0</asrwt>
<pdfrwt beam="1">  1        1 0.30178438E+00 0.31447828E+04</pdfrwt>
<pdfrwt beam="2">  1       -1 0.19390896E+00 0.31447828E+04</pdfrwt>
<totfact> 0.44130454E-01</totfact>
</mgrwt>
</event>
<event>
 6    1  0.9906445E-006  0.1779770E+04  0.7818608E-02  0.8717132E-01
          2   -1    0    0  501    0  0.00000000000E+00  0.00000000000E+00  0.84030009139E+03  0.84030009139E+03  0.00000000000E+00 0. -1.
         -2   -1    0    0    0  501 -0.00000000000E+00 -0.00000000000E+00 -0.94239584539E+03  0.94239584539E+03  0.00000000000E+00 0.  1.
         23    2    1    2    0    0 -0.84912806499E+03  0.14013908294E+03 -0.26886526556E+03  0.90607201326E+03  0.89557405439E+02 0.  0.
         13    1    3    3    0    0 -0.27877035835E+03  0.74969082374E+02 -0.12282476530E+03  0.31371834339E+03  0.00000000000E+00 0. -1.
        -13    1    3    3    0    0 -0.57035770663E+03  0.65170000568E+02 -0.14604050026E+03  0.59235366987E+03  0.00000000000E+00 0.  1.
         22    1    1    2    0    0  0.84912806499E+03 -0.14013908294E+03  0.16676951156E+03  0.87662392353E+03  0.00000000000E+00 0. -1.
<mgrwt>
<rscale>  0 0.17797700E+04</rscale>
<asrwt>0</asrwt>
<pdfrwt beam="1">  1        2 0.12927694E+00 0.17797700E+04</pdfrwt>
<pdfrwt beam="2">  1       -2 0.14498398E+00 0.17797700E+04</pdfrwt>
<totfact> 0.99894359E+00</totfact>
</mgrwt>
</event>
<event>
 6    1  0.9906445E-006  0.1642137E+04  0.7818608E-02  0.8795072E-01
         -1   -1    0    0    0  501 -0.00000000000E+00  0.00000000000E+00  0.21802880387E+03  0.21802880387E+03  0.00000000000E+00 0. -1.
          1   -1    0    0  501    0  0.00000000000E+00 -0.00000000000E+00 -0.30920399626E+04  0.30920399626E+04  0.00000000000E+00 0.  1.
         23    2    1    2    0    0 -0.36218874982E+03 -0.51598171153E+03 -0.39116787705E+03  0.74844260747E+03  0.98672242849E+02 0.  0.
         11    1    3    3    0    0 -0.14485050404E+03 -0.28750662853E+03 -0.21652112597E+03  0.38797310211E+03  0.00000000000E+00 0.  1.
        -11    1    3    3    0    0 -0.21733824578E+03 -0.22847508300E+03 -0.17464675107E+03  0.36046950536E+03  0.00000000000E+00 0. -1.
         22    1    1    2    0    0  0.36218874982E+03  0.51598171153E+03 -0.24828432817E+04  0.25616261591E+04  0.00000000000E+00 0.  1.
<mgrwt>
<rscale>  0 0.16421374E+04</rscale>
<asrwt>0</asrwt>
<pdfrwt beam="1">  1        1 0.47569847E+00 0.16421374E+04</pdfrwt>
<pdfrwt beam="2">  1       -1 0.33542892E-01 0.16421374E+04</pdfrwt>
<totfact> 0.41173551E+00</totfact>
</mgrwt>
</event>
<event>
 6    1  0.9906445E-006  0.2351398E+04  0.7818608E-02  0.8457927E-01
          1   -1    0    0  501    0  0.00000000000E+00  0.00000000000E+00  0.10294820471E+04  0.10294820471E+04  0.00000000000E+00 0. -1.
         -1   -1    0    0    0  501 -0.00000000000E+00 -0.00000000000E+00 -0.13426830071E+04  0.13426830071E+04  0.00000000000E+00 0.  1.
         23    2    1    2    0    0  0.85264989269E+03 -0.79027208759E+03  0.69849647295E+01  0.11663206039E+04  0.93344251999E+02 0.  0.
         11    1    3    3    0    0  0.49057252013E+03 -0.50976463209E+03  0.25361322465E+02  0.70792978064E+03  0.00000000000E+00 0. -1.
        -11    1    3    3    0    0  0.36207737256E+03 -0.28050745550E+03 -0.18376357736E+02  0.45839082324E+03  0.00000000000E+00 0.  1.
         22    1    1    2    0    0 -0.85264989269E+03  0.79027208759E+03 -0.32018592475E+03  0.12058444503E+04  0.00000000000E+00 0.  1.
<mgrwt>
<rscale>  0 0.23513979E+04</rscale>
<asrwt>0</asrwt>
<pdfrwt beam="1">  1        1 0.15838185E+00 0.23513979E+04</pdfrwt>
<pdfrwt beam="2">  1       -1 0.20656662E+00 0.23513979E+04</pdfrwt>
<totfact> 0.17521664E+00</totfact>
</mgrwt>
</event>
<event>
 6    1  0.9906445E-006  0.1872101E+04  0.7818608E-02  0.8668869E-01
          1   -1    0    0  501    0  0.00000000000E+00  0.00000000000E+00  0.51861208994E+03  0.51861208994E+03  0.00000000000E+00 0. -1.
         -1   -1    0    0    0  501 -0.00000000000E+00 -0.00000000000E+00 -0.16894914945E+04  0.16894914945E+04  0.00000000000E+00 0.  1.
         23    2    1    2    0    0 -0.12554696325E+03 -0.63026000141E+03  0.21233276277E+03  0.68289356310E+03  0.90932431073E+02 0.  0.
         11    1    3    3    0    0 -0.79298452308E+02 -0.18422927859E+03  0.61659243306E+02  0.20983453937E+03  0.00000000000E+00 0.  1.
        -11    1    3    3    0    0 -0.46248510939E+02 -0.44603072283E+03  0.15067351946E+03  0.47305902373E+03  0.00000000000E+00 0. -1.
         22    1    1    2    0    0  0.12554696325E+03  0.63026000141E+03 -0.13832121673E+04  0.15252100213E+04  0.00000000000E+00 0.  1.
<mgrwt>
<rscale>  0 0.18721012E+04</rscale>
<asrwt>0</asrwt>
<pdfrwt beam="1">  1        1 0.79786475E-01 0.18721012E+04</pdfrwt>
<pdfrwt beam="2">  1       -1 0.25992177E+00 0.18721012E+04</pdfrwt>
<totfact> 0.23738488E+00</totfact>
</mgrwt>
</event>
<event>
 6    1  0.9906445E-006  0.2645679E+04  0.7818608E-02  0.8352848E-01
         -1   -1    0    0    0  501 -0.00000000000E+00  0.00000000000E+00  0.91728442482E+03  0.91728442482E+03  0.00000000000E+00 0.  1.
          1   -1    0    0  501    0  0.00000000000E+00 -0.00000000000E+00 -0.19077014218E+04  0.19077014218E+04  0.00000000000E+00 0. -1.
         23    2    1    2    0    0 -0.16911203111E+03 -0.11637131064E+04 -0.11390116553E+04  0.16396979299E+04  0.91840498764E+02 0.  0.
         13    1    3    3    0    0 -0.10086249963E+03 -0.55530726156E+03 -0.48903458293E+03  0.74678927541E+03  0.00000000000E+00 0. -1.
        -13    1    3    3    0    0 -0.68249531478E+02 -0.60840584485E+03 -0.64997707235E+03  0.89290865444E+03  0.00000000000E+00 0.  1.
         22    1    1    2    0    0  0.16911203111E+03  0.11637131064E+04  0.14859465833E+03  0.11852879167E+04  0.00000000000E+00 0.  1.
<mgrwt>
<rscale>  0 0.26456793E+04</rscale>
<asrwt>0</asrwt>
<pdfrwt beam="1">  1        1 0.29349252E+00 0.26456793E+04</pdfrwt>
<pdfrwt beam="2">  1       -1 0.14112068E+00 0.26456793E+04</pdfrwt>
<totfact> 0.12394979E+00</totfact>
</mgrwt>
</event>
<event>
 6    1  0.9906445E-006  0.2626080E+04  0.7818608E-02  0.8359396E-01
         -2   -1    0    0    0  501 -0.00000000000E+00  0.00000000000E+00  0.14764035679E+04  0.14764035679E+04  0.00000000000E+00 0.  1.
          2   -1    0    0  501    0  0.00000000000E+00 -0.00000000000E+00 -0.11677526879E+04  0.11677526879E+04  0.00000000000E+00 0. -1.
         23    2    1    2    0    0 -0.12864890106E+04 -0.18719385673E+03 -0.18558445231E+02  0.13035737492E+04  0.94151948221E+02 0.  0.
         13    1    3    3    0    0 -0.65341800247E+03 -0.11540407014E+03 -0.52022522917E+02  0.66556707269E+03  0.00000000000E+00 0. -1.
        -13    1    3    3    0    0 -0.63307100812E+03 -0.71789786590E+02  0.33464077687E+02  0.63800667651E+03  0.00000000000E+00 0.  1.
         22    1    1    2    0    0  0.12864890106E+04  0.18719385673E+03  0.32720932527E+03  0.13405825066E+04  0.00000000000E+00 0.  1.
<mgrwt>
<rscale>  0 0.26260801E+04</rscale>
<asrwt>0</asrwt>
<pdfrwt beam="1">  1        2 0.17965426E+00 0.26260801E+04</pdfrwt>
<pdfrwt beam="2">  1       -2 0.22713901E+00 0.26260801E+04</pdfrwt>
<totfact> 0.15576050E+00</totfact>
</mgrwt>
</event>
<event>
 6    1  0.9906445E-006  0.1888928E+04  0.7818608E-02  0.8660387E-01
          1   -1    0    0  501    0  0.00000000000E+00  0.00000000000E+00  0.17097839489E+04  0.17097839489E+04  0.00000000000E+00 0. -1.
         -1   -1    0    0    0  501 -0.00000000000E+00 -0.00000000000E+00 -0.52171049956E+03  0.52171049956E+03  0.00000000000E+00 0.  1.
         23    2    1    2    0    0 -0.10124313213E+03  0.28230045450E+03  0.16507963543E+04  0.16800815314E+04  0.87187329765E+02 0.  0.
         13    1    3    3    0    0 -0.60368358221E+02  0.15367711013E+03  0.67005830703E+03  0.69010080979E+03  0.00000000000E+00 0.  1.
        -13    1    3    3    0    0 -0.40874773908E+02  0.12862334437E+03  0.98073804724E+03  0.98998072161E+03  0.00000000000E+00 0. -1.
         22    1    1    2    0    0  0.10124313213E+03 -0.28230045450E+03 -0.46272290490E+03  0.55141291709E+03  0.00000000000E+00 0.  1.
<mgrwt>
<rscale>  0 0.18889280E+04</rscale>
<asrwt>0</asrwt>
<pdfrwt beam="1">  1        1 0.26304368E+00 0.18889280E+04</pdfrwt>
<pdfrwt beam="2">  1       -1 0.80263154E-01 0.18889280E+04</pdfrwt>
<totfact> 0.68076085E+00</totfact>
</mgrwt>
</event>
<event>
 6    1  0.9906445E-006  0.2467537E+04  0.7818608E-02  0.8414643E-01
         -2   -1    0    0    0  501 -0.00000000000E+00  0.00000000000E+00  0.92766096441E+03  0.92766096441E+03  0.00000000000E+00 0.  1.
          2   -1    0    0  501    0  0.00000000000E+00 -0.00000000000E+00 -0.16408853123E+04  0.16408853123E+04  0.00000000000E+00 0. -1.
         23    2    1    2    0    0 -0.88400876632E+03  0.75352588701E+03  0.70687686951E+02  0.11671930594E+04  0.89833888209E+02 0.  0.
         13    1    3    3    0    0 -0.11855660503E+03  0.13956944953E+03  0.25562328615E+02  0.18490195370E+03  0.00000000000E+00 0. -1.
        -13    1    3    3    0    0 -0.76545216129E+03  0.61395643748E+03  0.45125358336E+02  0.98229110569E+03  0.00000000000E+00 0.  1.
         22    1    1    2    0    0  0.88400876632E+03 -0.75352588701E+03 -0.78391203484E+03  0.14013532173E+04  0.00000000000E+00 0. -1.
<mgrwt>
<rscale>  0 0.24675374E+04</rscale>
<asrwt>0</asrwt>
<pdfrwt beam="1">  1        2 0.25244389E+00 0.24675374E+04</pdfrwt>
<pdfrwt beam="2">  1       -2 0.14271707E+00 0.24675374E+04</pdfrwt>
<totfact> 0.32325005E+00</totfact>
</mgrwt>
</event>
<event>
 6    1  0.9906445E-006  0.1334383E+04  0.7818608E-02  0.9002735E-01
         -1   -1    0    0    0  501 -0.00000000000E+00  0.00000000000E+00  0.20628258327E+03  0.20628258327E+03  0.00000000000E+00 0.  1.
          1   -1    0    0  501    0  0.00000000000E+00 -0.00000000000E+00 -0.21579347137E+04  0.21579347137E+04  0.00000000000E+00 0. -1.
         23    2    1    2    0    0 -0.49682746084E+03  0.43730292248E+03 -0.10675196109E+04  0.12597890811E+04  0.96948632957E+02 0.  0.
         11    1    3    3    0    0 -0.15955987298E+03  0.19491814875E+03 -0.36011855624E+03  0.43947447289E+03  0.00000000000E+00 0. -1.
        -11    1    3    3    0    0 -0.33726758786E+03  0.24238477373E+03 -0.70740105463E+03  0.82031460822E+03  0.00000000000E+00 0.  1.
         22    1    1    2    0    0  0.49682746084E+03 -0.43730292248E+03 -0.88413251958E+03  0.11044282159E+04  0.00000000000E+00 0. -1.
<mgrwt>
<rscale>  0 0.13343828E+04</rscale>
<asrwt>0</asrwt>
<pdfrwt beam="1">  1        1 0.33198994E+00 0.13343828E+04</pdfrwt>
<pdfrwt beam="2">  1       -1 0.31735783E-01 0.13343828E+04</pdfrwt>
<totfact> 0.21113645E+01</totfact>
</mgrwt>
</event>
<event>
 6    1  0.9906445E-006  0.2614228E+04  0.7818608E-02  0.8363384E-01
         -2   -1    0    0    0  501 -0.00000000000E+00  0.00000000000E+00  0.74112012810E+03  0.74112012810E+03  0.00000000000E+00 0. -1.
          2   -1    0    0  501    0  0.00000000000E+00 -0.00000000000E+00 -0.23053583656E+04  0.23053583656E+04  0.00000000000E+00 0.  1.
         23    2    1    2    0    0  0.18016240495E+03 -0.10943580140E+04  0.19409229122E+02  0.11130832280E+04  0.92193270937E+02 0.  0.
         13    1    3    3    0    0  0.25610282481E+02 -0.40920289628E+03  0.23886693464E+02  0.41069875946E+03  0.00000000000E+00 0. -1.
        -13    1    3    3    0    0  0.15455212247E+03 -0.68515511775E+03 -0.44774643413E+01  0.70238446852E+03  0.00000000000E+00 0.  1.
         22    1    1    2    0    0 -0.18016240495E+03  0.10943580140E+04 -0.15836474667E+04  0.19333952658E+04  0.00000000000E+00 0.  1.
<mgrwt>
<rscale>  0 0.26142284E+04</rscale>
<asrwt>0</asrwt>
<pdfrwt beam="1">  1        2 0.35467051E+00 0.26142284E+04</pdfrwt>
<pdfrwt beam="2">  1       -2 0.11401848E+00 0.26142284E+04</pdfrwt>
<totfact> 0.23946145E+00</totfact>
</mgrwt>
</event>
<event>
 6    1  0.9906445E-006  0.1311424E+04  0.7818608E-02  0.9020555E-01
         -1   -1    0    0    0  501 -0.00000000000E+00  0.00000000000E+00  0.17088546725E+03  0.17088546725E+03  0.00000000000E+00 0.  1.
          1   -1    0    0  501    0  0.00000000000E+00 -0.00000000000E+00 -0.25160593821E+04  0.25160593821E+04  0.00000000000E+00 0. -1.
         23    2    1    2    0    0  0.68105557372E+02 -0.32935305974E+03 -0.23239310528E+04  0.23499536565E+04  0.92275914688E+02 0.  0.
         13    1    3    3    0    0  0.80049128169E+02 -0.16048145291E+03 -0.11647973037E+04  0.11785223453E+04  0.00000000000E+00 0.  1.
        -13    1    3    3    0    0 -0.11943570797E+02 -0.16887160684E+03 -0.11591337491E+04  0.11714313112E+04  0.00000000000E+00 0. -1.
         22    1    1    2    0    0 -0.68105557372E+02  0.32935305974E+03 -0.21242862072E+02  0.33699119291E+03  0.00000000000E+00 0.  1.
<mgrwt>
<rscale>  0 0.13114236E+04</rscale>
<asrwt>0</asrwt>
<pdfrwt beam="1">  1        1 0.38708603E+00 0.13114236E+04</pdfrwt>
<pdfrwt beam="2">  1       -1 0.26290074E-01 0.13114236E+04</pdfrwt>
<totfact> 0.16725779E+01</totfact>
</mgrwt>
</event>
<event>
 6    1  0.9906445E-006  0.3993481E+04  0.7818608E-02  0.8005863E-01
         -1   -1    0    0    0  501 -0.00000000000E+00  0.00000000000E+00  0.11515233213E+04  0.11515233213E+04  0.00000000000E+00 0.  1.
          1   -1    0    0  501    0  0.00000000000E+00 -0.00000000000E+00 -0.34623465391E+04  0.34623465391E+04  0.00000000000E+00 0. -1.
         23    2    1    2    0    0 -0.97277325613E+03 -0.11390709022E+04 -0.26792462250E+04  0.30713051648E+04  0.10384966409E+03 0.  0.
         13    1    3    3    0    0 -0.46644098316E+02 -0.90032674398E+02 -0.15757736879E+03  0.18738244721E+03  0.00000000000E+00 0.  1.
        -13    1    3    3    0    0 -0.92612915782E+03 -0.10490382278E+04 -0.25216688563E+04  0.28839227176E+04  0.00000000000E+00 0. -1.
         22    1    1    2    0    0  0.97277325613E+03  0.11390709022E+04  0.36842300729E+03  0.15425646957E+04  0.00000000000E+00 0.  1.
<mgrwt>
<rscale>  0 0.39934811E+04</rscale>
<asrwt>0</asrwt>
<pdfrwt beam="1">  1        1 0.53266870E+00 0.39934811E+04</pdfrwt>
<pdfrwt beam="2">  1       -1 0.17715743E+00 0.39934811E+04</pdfrwt>
<totfact> 0.45637463E-02</totfact>
</mgrwt>
</event>
<event>
 6    1  0.9906445E-006  0.1019931E+04  0.7818608E-02  0.9286951E-01
          1   -1    0    0  501    0  0.00000000000E+00  0.00000000000E+00  0.13796929176E+04  0.13796929176E+04  0.00000000000E+00 0. -1.
         -1   -1    0    0    0  501 -0.00000000000E+00 -0.00000000000E+00 -0.18849487161E+03  0.18849487161E+03  0.00000000000E+00 0.  1.
         23    2    1    2    0    0  0.11024690848E+03  0.38608403781E+03  0.10735735087E+04  0.11497970665E+04  0.90873266075E+02 0.  0.
         13    1    3    3    0    0  0.65391712912E+02  0.97576234466E+02  0.36466649079E+03  0.38311727598E+03  0.00000000000E+00 0. -1.
        -13    1    3    3    0    0  0.44855195564E+02  0.28850780334E+03  0.70890701788E+03  0.76667979050E+03  0.00000000000E+00 0.  1.
         22    1    1    2    0    0 -0.11024690848E+03 -0.38608403781E+03  0.11762453732E+03  0.41839072272E+03  0.00000000000E+00 0.  1.
<mgrwt>
<rscale>  0 0.10199314E+04</rscale>
<asrwt>0</asrwt>
<pdfrwt beam="1">  1        1 0.21226044E+00 0.10199314E+04</pdfrwt>
<pdfrwt beam="2">  1       -1 0.28999212E-01 0.10199314E+04</pdfrwt>
<totfact> 0.86058932E+01</totfact>
</mgrwt>
</event>
<event>
 6    1  0.9906445E-006  0.2549379E+04  0.7818608E-02  0.8385602E-01
         -1   -1    0    0    0  501 -0.00000000000E+00  0.00000000000E+00  0.98121311449E+03  0.98121311449E+03  0.00000000000E+00 0.  1.
          1   -1    0    0  501    0  0.00000000000E+00 -0.00000000000E+00 -0.16559432512E+04  0.16559432512E+04  0.00000000000E+00 0. -1.
         23    2    1    2    0    0  0.44366308175E+03 -0.11540523300E+04 -0.23314080506E+02  0.12396526667E+04  0.86726451406E+02 0.  0.
         13    1    3    3    0    0  0.19924794338E+03 -0.40215280496E+03 -0.88284195002E+01  0.44889259569E+03  0.00000000000E+00 0. -1.
        -13    1    3    3    0    0  0.24441513836E+03 -0.75189952501E+03 -0.14485661006E+02  0.79076007103E+03  0.00000000000E+00 0.  1.
         22    1    1    2    0    0 -0.44366308175E+03  0.11540523300E+04 -0.65141605625E+03  0.13975036990E+04  0.00000000000E+00 0. -1.
<mgrwt>
<rscale>  0 0.25493789E+04</rscale>
<asrwt>0</asrwt>
<pdfrwt beam="1">  1        1 0.25476050E+00 0.25493789E+04</pdfrwt>
<pdfrwt beam="2">  1       -1 0.15095586E+00 0.25493789E+04</pdfrwt>
<totfact> 0.15497866E+00</totfact>
</mgrwt>
</event>
<event>
 6    1  0.9906445E-006  0.2613348E+04  0.7818608E-02  0.8363681E-01
          2   -1    0    0  501    0  0.00000000000E+00  0.00000000000E+00  0.17221312028E+04  0.17221312028E+04  0.00000000000E+00 0. -1.
         -2   -1    0    0    0  501 -0.00000000000E+00 -0.00000000000E+00 -0.99144438461E+03  0.99144438461E+03  0.00000000000E+00 0.  1.
         23    2    1    2    0    0 -0.14993355629E+03 -0.57499652807E+03  0.15723718185E+04  0.16832675178E+04  0.89080425952E+02 0.  0.
         11    1    3    3    0    0 -0.10431294131E+03 -0.22619440375E+03  0.65376126891E+03  0.69960624264E+03  0.00000000000E+00 0.  1.
        -11    1    3    3    0    0 -0.45620614979E+02 -0.34880212432E+03  0.91861054956E+03  0.98366127514E+03  0.00000000000E+00 0. -1.
         22    1    1    2    0    0  0.14993355629E+03  0.57499652807E+03 -0.84168500030E+03  0.10303080696E+04  0.00000000000E+00 0.  1.
<mgrwt>
<rscale>  0 0.26133483E+04</rscale>
<asrwt>0</asrwt>
<pdfrwt beam="1">  1        2 0.26494326E+00 0.26133483E+04</pdfrwt>
<pdfrwt beam="2">  1       -2 0.15252991E+00 0.26133483E+04</pdfrwt>
<totfact> 0.24142125E+00</totfact>
</mgrwt>
</event>
<event>
 6    1  0.9906445E-006  0.2256580E+04  0.7818608E-02  0.8495240E-01
         -2   -1    0    0    0  501 -0.00000000000E+00  0.00000000000E+00  0.48282281485E+03  0.48282281485E+03  0.00000000000E+00 0.  1.
          2   -1    0    0  501    0  0.00000000000E+00 -0.00000000000E+00 -0.26366585184E+04  0.26366585184E+04  0.00000000000E+00 0. -1.
         23    2    1    2    0    0 -0.62108120306E+03  0.60089180875E+03 -0.80509109791E+02  0.87326318023E+03  0.96405594005E+02 0.  0.
         13    1    3    3    0    0 -0.32049623164E+03  0.32415404484E+03 -0.89687434220E+02  0.46458316278E+03  0.00000000000E+00 0. -1.
        -13    1    3    3    0    0 -0.30058497142E+03  0.27673776391E+03  0.91783244294E+01  0.40868001745E+03  0.00000000000E+00 0.  1.
         22    1    1    2    0    0  0.62108120306E+03 -0.60089180875E+03 -0.20733265938E+04  0.22462181531E+04  0.00000000000E+00 0. -1.
<mgrwt>
<rscale>  0 0.22565805E+04</rscale>
<asrwt>0</asrwt>
<pdfrwt beam="1">  1        2 0.40563977E+00 0.22565805E+04</pdfrwt>
<pdfrwt beam="2">  1       -2 0.74280434E-01 0.22565805E+04</pdfrwt>
<totfact> 0.42984515E+00</totfact>
</mgrwt>
</event>
<event>
 6    1  0.9906445E-006  0.6312250E+03  0.7818608E-02  0.9842661E-01
          2   -1    0    0  501    0  0.00000000000E+00  0.00000000000E+00  0.23338564167E+04  0.23338564167E+04  0.00000000000E+00 0. -1.
         -2   -1    0    0    0  501 -0.00000000000E+00 -0.00000000000E+00 -0.42680963025E+02  0.42680963025E+02  0.00000000000E+00 0.  1.
         23    2    1    2    0    0  0.26615946002E+03 -0.11911474324E+03  0.79114173126E+03  0.84842404996E+03  0.94281225047E+02 0.  0.
         13    1    3    3    0    0  0.14431177590E+03 -0.40672973614E+02  0.28614827303E+03  0.32304955287E+03  0.00000000000E+00 0.  1.
        -13    1    3    3    0    0  0.12184768412E+03 -0.78441769626E+02  0.50499345823E+03  0.52537449710E+03  0.00000000000E+00 0. -1.
         22    1    1    2    0    0 -0.26615946002E+03  0.11911474324E+03  0.15000337224E+04  0.15281133298E+04  0.00000000000E+00 0. -1.
<mgrwt>
<rscale>  0 0.63122497E+03</rscale>
<asrwt>0</asrwt>
<pdfrwt beam="1">  1        2 0.35905473E+00 0.63122497E+03</pdfrwt>
<pdfrwt beam="2">  1       -2 0.65663038E-02 0.63122497E+03</pdfrwt>
<totfact> 0.60905156E+02</totfact>
</mgrwt>
</event>
<event>
 6    1  0.9906445E-006  0.2154649E+04  0.7818608E-02  0.8537545E-01
          1   -1    0    0  501    0  0.00000000000E+00  0.00000000000E+00  0.20074225682E+04  0.20074225682E+04  0.00000000000E+00 0. -1.
         -1   -1    0    0    0  501 -0.00000000000E+00 -0.00000000000E+00 -0.57816811037E+03  0.57816811037E+03  0.00000000000E+00 0.  1.
         23    2    1    2    0    0  0.14558407730E+03 -0.32587209335E+03  0.19332551892E+04  0.19680114675E+04  0.90587883686E+02 0.  0.
         11    1    3    3    0    0  0.10532730929E+02 -0.89967611187E+02  0.65007634382E+03  0.65635688636E+03  0.00000000000E+00 0.  1.
        -11    1    3    3    0    0  0.13505134637E+03 -0.23590448216E+03  0.12831788454E+04  0.13116545811E+04  0.00000000000E+00 0. -1.
         22    1    1    2    0    0 -0.14558407730E+03  0.32587209335E+03 -0.50400073137E+03  0.61757921112E+03  0.00000000000E+00 0.  1.
<mgrwt>
<rscale>  0 0.21546487E+04</rscale>
<asrwt>0</asrwt>
<pdfrwt beam="1">  1        1 0.30883424E+00 0.21546487E+04</pdfrwt>
<pdfrwt beam="2">  1       -1 0.88948941E-01 0.21546487E+04</pdfrwt>
<totfact> 0.33418651E+00</totfact>
</mgrwt>
</event>
<event>
 6    1  0.9906445E-006  0.1246021E+04  0.7818608E-02  0.9073502E-01
          2   -1    0    0  501    0  0.00000000000E+00  0.00000000000E+00  0.17918314124E+04  0.17918314124E+04  0.00000000000E+00 0. -1.
         -2   -1    0    0    0  501 -0.00000000000E+00 -0.00000000000E+00 -0.21661741354E+03  0.21661741354E+03  0.00000000000E+00 0.  1.
         23    2    1    2    0    0 -0.37211445735E+02 -0.61656323860E+03  0.87061033464E+03  0.10714316209E+04  0.92024152370E+02 0.  0.
         13    1    3    3    0    0 -0.60250978564E+02 -0.25796616306E+03  0.38470752768E+03  0.46709378454E+03  0.00000000000E+00 0.  1.
        -13    1    3    3    0    0  0.23039532829E+02 -0.35859707554E+03  0.48590280696E+03  0.60433783638E+03  0.00000000000E+00 0. -1.
         22    1    1    2    0    0  0.37211445735E+02  0.61656323860E+03  0.70460366422E+03  0.93701720503E+03  0.00000000000E+00 0. -1.
<mgrwt>
<rscale>  0 0.12460207E+04</rscale>
<asrwt>0</asrwt>
<pdfrwt beam="1">  1        2 0.27566636E+00 0.12460207E+04</pdfrwt>
<pdfrwt beam="2">  1       -2 0.33325757E-01 0.12460207E+04</pdfrwt>
<totfact> 0.72163259E+01</totfact>
</mgrwt>
</event>
<event>
 6    1  0.9906445E-006  0.9210134E+03  0.7818608E-02  0.9399688E-01
         -1   -1    0    0    0  501 -0.00000000000E+00  0.00000000000E+00  0.38959347577E+03  0.38959347577E+03  0.00000000000E+00 0.  1.
          1   -1    0    0  501    0  0.00000000000E+00 -0.00000000000E+00 -0.54432740014E+03  0.54432740014E+03  0.00000000000E+00 0. -1.
         23    2    1    2    0    0  0.21714429396E+03 -0.12612944100E+03 -0.46509981563E+03  0.53468752717E+03  0.80700885532E+02 0.  0.
         11    1    3    3    0    0  0.23564760613E+02 -0.14765234597E+02 -0.12329135450E+03  0.12638856036E+03  0.00000000000E+00 0. -1.
        -11    1    3    3    0    0  0.19357953335E+03 -0.11136420640E+03 -0.34180846114E+03  0.40829896682E+03  0.00000000000E+00 0.  1.
         22    1    1    2    0    0 -0.21714429396E+03  0.12612944100E+03  0.31036589126E+03  0.39923334874E+03  0.00000000000E+00 0.  1.
<mgrwt>
<rscale>  0 0.92101336E+03</rscale>
<asrwt>0</asrwt>
<pdfrwt beam="1">  1        1 0.83742677E-01 0.92101336E+03</pdfrwt>
<pdfrwt beam="2">  1       -1 0.59937458E-01 0.92101336E+03</pdfrwt>
<totfact> 0.11188029E+02</totfact>
</mgrwt>
</event>
<event>
 6    1  0.9906445E-006  0.2689722E+04  0.7818608E-02  0.8338347E-01
          2   -1    0    0  501    0  0.00000000000E+00  0.00000000000E+00  0.14797966125E+04  0.14797966125E+04  0.00000000000E+00 0.  1.
         -2   -1    0    0    0  501 -0.00000000000E+00 -0.00000000000E+00 -0.12222296800E+04  0.12222296800E+04  0.00000000000E+00 0. -1.
         23    2    1    2    0    0 -0.39016399189E+02 -0.10349769845E+04 -0.73054942548E+03  0.12705677445E+04  0.89108318944E+02 0.  0.
         11    1    3    3    0    0 -0.15171421673E+02 -0.36211591064E+03 -0.30838039363E+03  0.47587453384E+03  0.00000000000E+00 0. -1.
        -11    1    3    3    0    0 -0.23844977516E+02 -0.67286107381E+03 -0.42216903185E+03  0.79469321065E+03  0.00000000000E+00 0.  1.
         22    1    1    2    0    0  0.39016399189E+02  0.10349769845E+04  0.98811635800E+03  0.14314585480E+04  0.00000000000E+00 0.  1.
<mgrwt>
<rscale>  0 0.26897222E+04</rscale>
<asrwt>0</asrwt>
<pdfrwt beam="1">  1        2 0.22766102E+00 0.26897222E+04</pdfrwt>
<pdfrwt beam="2">  1       -2 0.18803534E+00 0.26897222E+04</pdfrwt>
<totfact> 0.18287612E+00</totfact>
</mgrwt>
</event>
<event>
 6    1  0.9906445E-006  0.4645029E+04  0.7818608E-02  0.7885727E-01
          2   -1    0    0  501    0  0.00000000000E+00  0.00000000000E+00  0.21462741692E+04  0.21462741692E+04  0.00000000000E+00 0.  1.
         -2   -1    0    0    0  501 -0.00000000000E+00 -0.00000000000E+00 -0.25132268936E+04  0.25132268936E+04  0.00000000000E+00 0. -1.
         23    2    1    2    0    0 -0.86206997800E+03 -0.21235341939E+04 -0.55516933435E+03  0.23599385801E+04  0.92385024609E+02 0.  0.
         11    1    3    3    0    0 -0.50643127660E+03 -0.11994393689E+04 -0.35855050979E+03  0.13504391529E+04  0.00000000000E+00 0. -1.
        -11    1    3    3    0    0 -0.35563870140E+03 -0.92409482493E+03 -0.19661882456E+03  0.10094994272E+04  0.00000000000E+00 0.  1.
         22    1    1    2    0    0  0.86206997800E+03  0.21235341939E+04  0.18821661002E+03  0.22995624827E+04  0.00000000000E+00 0.  1.
<mgrwt>
<rscale>  0 0.46450292E+04</rscale>
<asrwt>0</asrwt>
<pdfrwt beam="1">  1        2 0.33019603E+00 0.46450292E+04</pdfrwt>
<pdfrwt beam="2">  1       -2 0.38665029E+00 0.46450292E+04</pdfrwt>
<totfact> 0.37596986E-02</totfact>
</mgrwt>
</event>
<event>
 6    1  0.9906445E-006  0.1679309E+04  0.7818608E-02  0.8773254E-01
          2   -1    0    0  501    0  0.00000000000E+00  0.00000000000E+00  0.44248063342E+03  0.44248063342E+03  0.00000000000E+00 0. -1.
         -2   -1    0    0    0  501 -0.00000000000E+00 -0.00000000000E+00 -0.15933343190E+04  0.15933343190E+04  0.00000000000E+00 0.  1.
         23    2    1    2    0    0  0.68729794884E+03 -0.29985930950E+03 -0.12584621316E+03  0.76580141136E+03  0.91216535235E+02 0.  0.
         11    1    3    3    0    0  0.50700246648E+03 -0.25101296073E+03 -0.12315345374E+03  0.57898685705E+03  0.00000000000E+00 0.  1.
        -11    1    3    3    0    0  0.18029548236E+03 -0.48846348766E+02 -0.26927594223E+01  0.18681455431E+03  0.00000000000E+00 0. -1.
         22    1    1    2    0    0 -0.68729794884E+03  0.29985930950E+03 -0.10250074724E+04  0.12700135411E+04  0.00000000000E+00 0.  1.
<mgrwt>
<rscale>  0 0.16793089E+04</rscale>
<asrwt>0</asrwt>
<pdfrwt beam="1">  1        2 0.68073944E-01 0.16793089E+04</pdfrwt>
<pdfrwt beam="2">  1       -2 0.24512836E+00 0.16793089E+04</pdfrwt>
<totfact> 0.46531116E+00</totfact>
</mgrwt>
</event>
<event>
 6    1  0.9906445E-006  0.1389051E+04  0.7818608E-02  0.8961783E-01
          2   -1    0    0  501    0  0.00000000000E+00  0.00000000000E+00  0.98350409630E+03  0.98350409630E+03  0.00000000000E+00 0. -1.
         -2   -1    0    0    0  501 -0.00000000000E+00 -0.00000000000E+00 -0.49045591059E+03  0.49045591059E+03  0.00000000000E+00 0.  1.
         23    2    1    2    0    0  0.52031033106E+03 -0.73541869977E+02  0.72461183611E+03  0.89971879327E+03  0.91106238436E+02 0.  0.
         13    1    3    3    0    0  0.48955235718E+02 -0.32452240290E+01  0.12158289794E+03  0.13110891524E+03  0.00000000000E+00 0. -1.
        -13    1    3    3    0    0  0.47135509534E+03 -0.70296645948E+02  0.60302893817E+03  0.76860987803E+03  0.00000000000E+00 0.  1.
         22    1    1    2    0    0 -0.52031033106E+03  0.73541869977E+02 -0.23156365040E+03  0.57424121363E+03  0.00000000000E+00 0.  1.
<mgrwt>
<rscale>  0 0.13890506E+04</rscale>
<asrwt>0</asrwt>
<pdfrwt beam="1">  1        2 0.15130832E+00 0.13890506E+04</pdfrwt>
<pdfrwt beam="2">  1       -2 0.75454756E-01 0.13890506E+04</pdfrwt>
<totfact> 0.39626814E+01</totfact>
</mgrwt>
</event>
<event>
 6    1  0.9906445E-006  0.2905947E+04  0.7818608E-02  0.8271110E-01
         -2   -1    0    0    0  501 -0.00000000000E+00  0.00000000000E+00  0.16719175282E+04  0.16719175282E+04  0.00000000000E+00 0.  1.
          2   -1    0    0  501    0  0.00000000000E+00 -0.00000000000E+00 -0.12627011246E+04  0.12627011246E+04  0.00000000000E+00 0. -1.
         23    2    1    2    0    0 -0.18471933954E+03 -0.12054169023E+04 -0.59028709248E+03  0.13578630022E+04  0.90564554184E+02 0.  0.
         13    1    3    3    0    0 -0.93493491777E+02 -0.83745171643E+03 -0.43340970556E+03  0.94758133330E+03  0.00000000000E+00 0. -1.
        -13    1    3    3    0    0 -0.91225847765E+02 -0.36796518589E+03 -0.15687738692E+03  0.41028166893E+03  0.00000000000E+00 0.  1.
         22    1    1    2    0    0  0.18471933954E+03  0.12054169023E+04  0.99950349614E+03  0.15767556506E+04  0.00000000000E+00 0.  1.
<mgrwt>
<rscale>  0 0.29059471E+04</rscale>
<asrwt>0</asrwt>
<pdfrwt beam="1">  1        2 0.19426171E+00 0.29059471E+04</pdfrwt>
<pdfrwt beam="2">  1       -2 0.25721808E+00 0.29059471E+04</pdfrwt>
<totfact> 0.87021409E-01</totfact>
</mgrwt>
</event>
<event>
 6    1  0.9906445E-006  0.1978854E+04  0.7818608E-02  0.8616571E-01
         -1   -1    0    0    0  501 -0.00000000000E+00  0.00000000000E+00  0.82680968689E+03  0.82680968689E+03  0.00000000000E+00 0.  1.
          1   -1    0    0  501    0  0.00000000000E+00 -0.00000000000E+00 -0.11840279807E+04  0.11840279807E+04  0.00000000000E+00 0. -1.
         23    2    1    2    0    0  0.47401335324E+03 -0.81819144869E+03 -0.46814908750E+03  0.10587706812E+04  0.87783149812E+02 0.  0.
         13    1    3    3    0    0  0.40257626442E+03 -0.63291809829E+03 -0.38943008142E+03  0.84516788636E+03  0.00000000000E+00 0. -1.
        -13    1    3    3    0    0  0.71437088822E+02 -0.18527335040E+03 -0.78719006078E+02  0.21360279480E+03  0.00000000000E+00 0.  1.
         22    1    1    2    0    0 -0.47401335324E+03  0.81819144869E+03  0.11093079366E+03  0.95206698648E+03  0.00000000000E+00 0. -1.
<mgrwt>
<rscale>  0 0.19788540E+04</rscale>
<asrwt>0</asrwt>
<pdfrwt beam="1">  1        1 0.18215815E+00 0.19788540E+04</pdfrwt>
<pdfrwt beam="2">  1       -1 0.12720149E+00 0.19788540E+04</pdfrwt>
<totfact> 0.54661058E+00</totfact>
</mgrwt>
</event>
<event>
 6    1  0.9906445E-006  0.3439271E+04  0.7818608E-02  0.8128335E-01
         -1   -1    0    0    0  501 -0.00000000000E+00  0.00000000000E+00  0.18674901879E+04  0.18674901879E+04  0.00000000000E+00 0.  1.
          1   -1    0    0  501    0  0.00000000000E+00 -0.00000000000E+00 -0.15834871630E+04  0.15834871630E+04  0.00000000000E+00 0. -1.
         23    2    1    2    0    0  0.75899521135E+03 -0.11821076854E+04  0.11351803790E+04  0.18084320095E+04  0.91321023379E+02 0.  0.
         13    1    3    3    0    0  0.39511951688E+03 -0.55393694146E+03  0.50902435934E+03  0.84974782502E+03  0.00000000000E+00 0.  1.
        -13    1    3    3    0    0  0.36387569447E+03 -0.62817074395E+03  0.62615601965E+03  0.95868418445E+03  0.00000000000E+00 0. -1.
         22    1    1    2    0    0 -0.75899521135E+03  0.11821076854E+04 -0.85117735404E+03  0.16425453415E+04  0.00000000000E+00 0.  1.
<mgrwt>
<rscale>  0 0.34392713E+04</rscale>
<asrwt>0</asrwt>
<pdfrwt beam="1">  1        1 0.24361341E+00 0.34392713E+04</pdfrwt>
<pdfrwt beam="2">  1       -1 0.28730618E+00 0.34392713E+04</pdfrwt>
<totfact> 0.18745187E-01</totfact>
</mgrwt>
</event>
<event>
 6    1  0.9906445E-006  0.1243519E+04  0.7818608E-02  0.9075595E-01
         -2   -1    0    0    0  501 -0.00000000000E+00  0.00000000000E+00  0.27718182319E+03  0.27718182319E+03  0.00000000000E+00 0.  1.
          2   -1    0    0  501    0  0.00000000000E+00 -0.00000000000E+00 -0.13946974565E+04  0.13946974565E+04  0.00000000000E+00 0. -1.
         23    2    1    2    0    0 -0.22927004764E+03  0.55087261212E+02  0.20719876930E+03  0.32634310047E+03  0.89269973296E+02 0.  0.
         13    1    3    3    0    0 -0.61312421867E+02  0.25694959962E+02  0.11414819801E+03  0.13209562881E+03  0.00000000000E+00 0. -1.
        -13    1    3    3    0    0 -0.16795762577E+03  0.29392301250E+02  0.93050571296E+02  0.19424747166E+03  0.00000000000E+00 0.  1.
         22    1    1    2    0    0  0.22927004764E+03 -0.55087261212E+02 -0.13247144026E+04  0.13455361792E+04  0.00000000000E+00 0. -1.
<mgrwt>
<rscale>  0 0.12435189E+04</rscale>
<asrwt>0</asrwt>
<pdfrwt beam="1">  1        2 0.21456884E+00 0.12435189E+04</pdfrwt>
<pdfrwt beam="2">  1       -2 0.42643358E-01 0.12435189E+04</pdfrwt>
<totfact> 0.74709761E+01</totfact>
</mgrwt>
</event>
<event>
 6    1  0.9906445E-006  0.7911637E+03  0.7818608E-02  0.9572896E-01
          1   -1    0    0  501    0  0.00000000000E+00  0.00000000000E+00  0.38680541581E+03  0.38680541581E+03  0.00000000000E+00 0. -1.
         -1   -1    0    0    0  501 -0.00000000000E+00 -0.00000000000E+00 -0.40455742449E+03  0.40455742449E+03  0.00000000000E+00 0.  1.
         23    2    1    2    0    0 -0.23093825240E+03  0.30788125354E+03 -0.80258163111E+02  0.40145212995E+03  0.81234827464E+02 0.  0.
         11    1    3    3    0    0 -0.58367141120E+01  0.29153275453E+02 -0.25195979900E+02  0.38972016940E+02  0.00000000000E+00 0.  1.
        -11    1    3    3    0    0 -0.22510153829E+03  0.27872797809E+03 -0.55062183211E+02  0.36248011301E+03  0.00000000000E+00 0. -1.
         22    1    1    2    0    0  0.23093825240E+03 -0.30788125354E+03  0.62506154427E+02  0.38991071035E+03  0.00000000000E+00 0. -1.
<mgrwt>
<rscale>  0 0.79116371E+03</rscale>
<asrwt>0</asrwt>
<pdfrwt beam="1">  1        1 0.59508526E-01 0.79116371E+03</pdfrwt>
<pdfrwt beam="2">  1       -1 0.62239604E-01 0.79116371E+03</pdfrwt>
<totfact> 0.16631841E+02</totfact>
</mgrwt>
</event>
<event>
 6    1  0.9906445E-006  0.2278276E+04  0.7818608E-02  0.8486536E-01
         -2   -1    0    0    0  501 -0.00000000000E+00  0.00000000000E+00  0.10873689210E+04  0.10873689210E+04  0.00000000000E+00 0.  1.
          2   -1    0    0  501    0  0.00000000000E+00 -0.00000000000E+00 -0.11933720108E+04  0.11933720108E+04  0.00000000000E+00 0. -1.
         23    2    1    2    0    0  0.73421476365E+03 -0.84371041324E+03 -0.25981422992E+03  0.11517695205E+04  0.90282964876E+02 0.  0.
         11    1    3    3    0    0  0.56491129585E+03 -0.66900987770E+03 -0.23876299640E+03  0.90758292023E+03  0.00000000000E+00 0. -1.
        -11    1    3    3    0    0  0.16930346780E+03 -0.17470053554E+03 -0.21051233520E+02  0.24418660029E+03  0.00000000000E+00 0.  1.
         22    1    1    2    0    0 -0.73421476365E+03  0.84371041324E+03  0.15381114014E+03  0.11289714112E+04  0.00000000000E+00 0. -1.
<mgrwt>
<rscale>  0 0.22782762E+04</rscale>
<asrwt>0</asrwt>
<pdfrwt beam="1">  1        2 0.18359569E+00 0.22782762E+04</pdfrwt>
<pdfrwt beam="2">  1       -2 0.16728753E+00 0.22782762E+04</pdfrwt>
<totfact> 0.38693298E+00</totfact>
</mgrwt>
</event>
<event>
 6    1  0.9906445E-006  0.1890077E+04  0.7818608E-02  0.8659812E-01
          2   -1    0    0  501    0  0.00000000000E+00  0.00000000000E+00  0.65392592939E+03  0.65392592939E+03  0.00000000000E+00 0. -1.
         -2   -1    0    0    0  501 -0.00000000000E+00 -0.00000000000E+00 -0.13657473933E+04  0.13657473933E+04  0.00000000000E+00 0.  1.
         23    2    1    2    0    0  0.19835086476E+03 -0.83423398719E+03  0.62502302401E+02  0.86430900526E+03  0.88510495686E+02 0.  0.
         11    1    3    3    0    0  0.77526973258E+02 -0.46520205603E+03  0.41131943383E+01  0.47163577354E+03  0.00000000000E+00 0. -1.
        -11    1    3    3    0    0  0.12082389150E+03 -0.36903193116E+03  0.58389108062E+02  0.39267323172E+03  0.00000000000E+00 0.  1.
         22    1    1    2    0    0 -0.19835086476E+03  0.83423398719E+03 -0.77432376633E+03  0.11553643174E+04  0.00000000000E+00 0.  1.
<mgrwt>
<rscale>  0 0.18900769E+04</rscale>
<asrwt>0</asrwt>
<pdfrwt beam="1">  1        2 0.10060399E+00 0.18900769E+04</pdfrwt>
<pdfrwt beam="2">  1       -2 0.21011498E+00 0.18900769E+04</pdfrwt>
<totfact> 0.47784808E+00</totfact>
</mgrwt>
</event>
<event>
 6    1  0.9906445E-006  0.2487786E+04  0.7818608E-02  0.8407350E-01
          1   -1    0    0  501    0  0.00000000000E+00  0.00000000000E+00  0.12231021087E+04  0.12231021087E+04  0.00000000000E+00 0.  1.
         -1   -1    0    0    0  501 -0.00000000000E+00 -0.00000000000E+00 -0.12650375349E+04  0.12650375349E+04  0.00000000000E+00 0. -1.
         23    2    1    2    0    0  0.11053731311E+04  0.49532071494E+03 -0.29643737319E+03  0.12504144679E+04  0.92026387033E+02 0.  0.
         11    1    3    3    0    0  0.53664208536E+03  0.19154082330E+03 -0.15012530098E+03  0.58924546732E+03  0.00000000000E+00 0. -1.
        -11    1    3    3    0    0  0.56873104570E+03  0.30377989164E+03 -0.14631207221E+03  0.66116900063E+03  0.00000000000E+00 0.  1.
         22    1    1    2    0    0 -0.11053731311E+04 -0.49532071494E+03  0.25450194693E+03  0.12377251757E+04  0.00000000000E+00 0.  1.
<mgrwt>
<rscale>  0 0.24877862E+04</rscale>
<asrwt>0</asrwt>
<pdfrwt beam="1">  1        1 0.18816956E+00 0.24877862E+04</pdfrwt>
<pdfrwt beam="2">  1       -1 0.19462116E+00 0.24877862E+04</pdfrwt>
<totfact> 0.14993216E+00</totfact>
</mgrwt>
</event>
<event>
 6    1  0.9906445E-006  0.2763637E+04  0.7818608E-02  0.8314647E-01
          2   -1    0    0  501    0  0.00000000000E+00  0.00000000000E+00  0.26973102976E+04  0.26973102976E+04  0.00000000000E+00 0. -1.
         -2   -1    0    0    0  501 -0.00000000000E+00 -0.00000000000E+00 -0.70789881558E+03  0.70789881558E+03  0.00000000000E+00 0.  1.
         23    2    1    2    0    0 -0.51517862088E+03  0.44050106904E+03 -0.48577038752E+03  0.83889356545E+03  0.91210424371E+02 0.  0.
         11    1    3    3    0    0 -0.23819123414E+03  0.22657327552E+03 -0.18372842113E+03  0.37659878642E+03  0.00000000000E+00 0. -1.
        -11    1    3    3    0    0 -0.27698738675E+03  0.21392779352E+03 -0.30204196639E+03  0.46229477903E+03  0.00000000000E+00 0.  1.
         22    1    1    2    0    0  0.51517862088E+03 -0.44050106904E+03  0.24751818695E+04  0.25663155477E+04  0.00000000000E+00 0. -1.
<mgrwt>
<rscale>  0 0.27636373E+04</rscale>
<asrwt>0</asrwt>
<pdfrwt beam="1">  1        2 0.41497081E+00 0.27636373E+04</pdfrwt>
<pdfrwt beam="2">  1       -2 0.10890751E+00 0.27636373E+04</pdfrwt>
<totfact> 0.15652069E+00</totfact>
</mgrwt>
</event>
<event>
 6    1  0.9906445E-006  0.1075949E+04  0.7818608E-02  0.9228956E-01
         -1   -1    0    0    0  501 -0.00000000000E+00  0.00000000000E+00  0.20096832190E+03  0.20096832190E+03  0.00000000000E+00 0.  1.
          1   -1    0    0  501    0  0.00000000000E+00 -0.00000000000E+00 -0.14401113391E+04  0.14401113391E+04  0.00000000000E+00 0. -1.
         23    2    1    2    0    0  0.28839652292E+03 -0.41998833131E+03 -0.86879548035E+03  0.10112224939E+04  0.90568165897E+02 0.  0.
         11    1    3    3    0    0  0.21100509371E+03 -0.24474004675E+03 -0.49398362911E+03  0.59028862930E+03  0.00000000000E+00 0.  1.
        -11    1    3    3    0    0  0.77391429214E+02 -0.17524828456E+03 -0.37481185124E+03  0.42093386462E+03  0.00000000000E+00 0. -1.
         22    1    1    2    0    0 -0.28839652292E+03  0.41998833131E+03 -0.37034753688E+03  0.62985716710E+03  0.00000000000E+00 0. -1.
<mgrwt>
<rscale>  0 0.10759494E+04</rscale>
<asrwt>0</asrwt>
<pdfrwt beam="1">  1        1 0.22155559E+00 0.10759494E+04</pdfrwt>
<pdfrwt beam="2">  1       -1 0.30918203E-01 0.10759494E+04</pdfrwt>
<totfact> 0.69510525E+01</totfact>
</mgrwt>
</event>
<event>
 6    1  0.9906445E-006  0.2145393E+04  0.7818608E-02  0.8541507E-01
          2   -1    0    0  501    0  0.00000000000E+00  0.00000000000E+00  0.24370348831E+04  0.24370348831E+04  0.00000000000E+00 0. -1.
         -2   -1    0    0    0  501 -0.00000000000E+00 -0.00000000000E+00 -0.47216303924E+03  0.47216303924E+03  0.00000000000E+00 0.  1.
         23    2    1    2    0    0 -0.80347694615E+03 -0.32406253262E+03  0.13110101252E+03  0.88106893486E+03  0.92213146810E+02 0.  0.
         13    1    3    3    0    0 -0.38311943875E+03 -0.14674028765E+03  0.16125824803E+02  0.41057673898E+03  0.00000000000E+00 0.  1.
        -13    1    3    3    0    0 -0.42035750740E+03 -0.17732224497E+03  0.11497518772E+03  0.47049219587E+03  0.00000000000E+00 0. -1.
         22    1    1    2    0    0  0.80347694615E+03  0.32406253262E+03  0.18337708313E+04  0.20281289875E+04  0.00000000000E+00 0. -1.
<mgrwt>
<rscale>  0 0.21453930E+04</rscale>
<asrwt>0</asrwt>
<pdfrwt beam="1">  1        2 0.37492844E+00 0.21453930E+04</pdfrwt>
<pdfrwt beam="2">  1       -2 0.72640469E-01 0.21453930E+04</pdfrwt>
<totfact> 0.59569820E+00</totfact>
</mgrwt>
</event>
<event>
 6    1  0.9906445E-006  0.2476007E+04  0.7818608E-02  0.8411583E-01
          2   -1    0    0  501    0  0.00000000000E+00  0.00000000000E+00  0.25406736736E+04  0.25406736736E+04  0.00000000000E+00 0. -1.
         -2   -1    0    0    0  501 -0.00000000000E+00 -0.00000000000E+00 -0.60324663393E+03  0.60324663393E+03  0.00000000000E+00 0.  1.
         23    2    1    2    0    0  0.11974687809E+04  0.30431120148E+03  0.91496831846E+03  0.15401875913E+04  0.92054354438E+02 0.  0.
         11    1    3    3    0    0  0.88546408984E+03  0.24216734236E+03  0.72406678551E+03  0.11691725219E+04  0.00000000000E+00 0. -1.
        -11    1    3    3    0    0  0.31200469102E+03  0.62143859120E+02  0.19090153295E+03  0.37101506941E+03  0.00000000000E+00 0.  1.
         22    1    1    2    0    0 -0.11974687809E+04 -0.30431120148E+03  0.10224587212E+04  0.16037327162E+04  0.00000000000E+00 0.  1.
<mgrwt>
<rscale>  0 0.24760071E+04</rscale>
<asrwt>0</asrwt>
<pdfrwt beam="1">  1        2 0.39087287E+00 0.24760071E+04</pdfrwt>
<pdfrwt beam="2">  1       -2 0.92807176E-01 0.24760071E+04</pdfrwt>
<totfact> 0.28989286E+00</totfact>
</mgrwt>
</event>
<event>
 6    1  0.9906445E-006  0.8488605E+03  0.7818608E-02  0.9491868E-01
          2   -1    0    0  501    0  0.00000000000E+00  0.00000000000E+00  0.10494258652E+04  0.10494258652E+04  0.00000000000E+00 0. -1.
         -2   -1    0    0    0  501 -0.00000000000E+00 -0.00000000000E+00 -0.17165674735E+03  0.17165674735E+03  0.00000000000E+00 0.  1.
         23    2    1    2    0    0  0.64019418882E+02  0.86179925375E+01  0.10403453474E+04  0.10461432340E+04  0.89019483279E+02 0.  0.
         13    1    3    3    0    0  0.75973688729E+02  0.32073031722E+02  0.84893352909E+03  0.85292955017E+03  0.00000000000E+00 0.  1.
        -13    1    3    3    0    0 -0.11954269847E+02 -0.23455039185E+02  0.19141181829E+03  0.19321368381E+03  0.00000000000E+00 0. -1.
         22    1    1    2    0    0 -0.64019418882E+02 -0.86179925375E+01 -0.16257622950E+03  0.17493937861E+03  0.00000000000E+00 0.  1.
<mgrwt>
<rscale>  0 0.84886048E+03</rscale>
<asrwt>0</asrwt>
<pdfrwt beam="1">  1        2 0.16145013E+00 0.84886048E+03</pdfrwt>
<pdfrwt beam="2">  1       -2 0.26408731E-01 0.84886048E+03</pdfrwt>
<totfact> 0.30492838E+02</totfact>
</mgrwt>
</event>
<event>
 6    1  0.9906445E-006  0.1878386E+04  0.7818608E-02  0.8665691E-01
          2   -1    0    0  501    0  0.00000000000E+00  0.00000000000E+00  0.12824876512E+04  0.12824876512E+04  0.00000000000E+00 0. -1.
         -2   -1    0    0    0  501 -0.00000000000E+00 -0.00000000000E+00 -0.68779071561E+03  0.68779071561E+03  0.00000000000E+00 0.  1.
         23    2    1    2    0    0 -0.47482384214E+03 -0.66597943987E+03 -0.18156661075E+03  0.84263862437E+03  0.89928425680E+02 0.  0.
         13    1    3    3    0    0 -0.14261196543E+03 -0.27373306894E+03 -0.59975029402E+02  0.31442800426E+03  0.00000000000E+00 0.  1.
        -13    1    3    3    0    0 -0.33221187671E+03 -0.39224637094E+03 -0.12159158135E+03  0.52821062011E+03  0.00000000000E+00 0. -1.
         22    1    1    2    0    0  0.47482384214E+03  0.66597943987E+03  0.77626354638E+03  0.11276397425E+04  0.00000000000E+00 0. -1.
<mgrwt>
<rscale>  0 0.18783856E+04</rscale>
<asrwt>0</asrwt>
<pdfrwt beam="1">  1        2 0.19730579E+00 0.18783856E+04</pdfrwt>
<pdfrwt beam="2">  1       -2 0.10581396E+00 0.18783856E+04</pdfrwt>
<totfact> 0.11460172E+01</totfact>
</mgrwt>
</event>
<event>
 6    1  0.9906445E-006  0.1744860E+04  0.7818608E-02  0.8736184E-01
          2   -1    0    0  501    0  0.00000000000E+00  0.00000000000E+00  0.87534072827E+03  0.87534072827E+03  0.00000000000E+00 0. -1.
         -2   -1    0    0    0  501 -0.00000000000E+00 -0.00000000000E+00 -0.86952938126E+03  0.86952938126E+03  0.00000000000E+00 0.  1.
         23    2    1    2    0    0  0.75134795723E+03 -0.41333958972E+03  0.15013924941E+03  0.87527025174E+03  0.90459107360E+02 0.  0.
         13    1    3    3    0    0  0.33555672493E+02 -0.14743906220E+02  0.25912685127E+02  0.44886893161E+02  0.00000000000E+00 0.  1.
        -13    1    3    3    0    0  0.71779228474E+03 -0.39859568350E+03  0.12422656428E+03  0.83038335858E+03  0.00000000000E+00 0. -1.
         22    1    1    2    0    0 -0.75134795723E+03  0.41333958972E+03 -0.14432790239E+03  0.86959985779E+03  0.00000000000E+00 0.  1.
<mgrwt>
<rscale>  0 0.17448604E+04</rscale>
<asrwt>0</asrwt>
<pdfrwt beam="1">  1        2 0.13466780E+00 0.17448604E+04</pdfrwt>
<pdfrwt beam="2">  1       -2 0.13377375E+00 0.17448604E+04</pdfrwt>
<totfact> 0.11669333E+01</totfact>
</mgrwt>
</event>
<event>
 6    1  0.9906445E-006  0.2844470E+04  0.7818608E-02  0.8289594E-01
          1   -1    0    0  501    0  0.00000000000E+00  0.00000000000E+00  0.30488047345E+04  0.30488047345E+04  0.00000000000E+00 0. -1.
         -1   -1    0    0    0  501 -0.00000000000E+00 -0.00000000000E+00 -0.66345766986E+03  0.66345766986E+03  0.00000000000E+00 0.  1.
         23    2    1    2    0    0 -0.31053039416E+03  0.82057960170E+03  0.26523440323E+04  0.27951651417E+04  0.90770563712E+02 0.  0.
         13    1    3    3    0    0 -0.17265144364E+03  0.56196040639E+03  0.18343916261E+04  0.19262919450E+04  0.00000000000E+00 0.  1.
        -13    1    3    3    0    0 -0.13787895052E+03  0.25861919532E+03  0.81795240620E+03  0.86887319673E+03  0.00000000000E+00 0. -1.
         22    1    1    2    0    0  0.31053039416E+03 -0.82057960170E+03 -0.26699696767E+03  0.91709726266E+03  0.00000000000E+00 0.  1.
<mgrwt>
<rscale>  0 0.28444703E+04</rscale>
<asrwt>0</asrwt>
<pdfrwt beam="1">  1        1 0.46904687E+00 0.28444703E+04</pdfrwt>
<pdfrwt beam="2">  1       -1 0.10207041E+00 0.28444703E+04</pdfrwt>
<totfact> 0.43138253E-01</totfact>
</mgrwt>
</event>
<event>
 6    1  0.9906445E-006  0.2538801E+04  0.7818608E-02  0.8389291E-01
          1   -1    0    0  501    0  0.00000000000E+00  0.00000000000E+00  0.26526362767E+04  0.26526362767E+04  0.00000000000E+00 0. -1.
         -1   -1    0    0    0  501 -0.00000000000E+00 -0.00000000000E+00 -0.60746270978E+03  0.60746270978E+03  0.00000000000E+00 0.  1.
         23    2    1    2    0    0  0.28218514308E+03 -0.12195945029E+04  0.76639730962E+03  0.14705996368E+04  0.90880410904E+02 0.  0.
         11    1    3    3    0    0  0.12274372291E+03 -0.72851230637E+03  0.44799583839E+03  0.86400027388E+03  0.00000000000E+00 0. -1.
        -11    1    3    3    0    0  0.15944142018E+03 -0.49108219648E+03  0.31840147123E+03  0.60659936289E+03  0.00000000000E+00 0.  1.
         22    1    1    2    0    0 -0.28218514308E+03  0.12195945029E+04  0.12787762573E+04  0.17894993497E+04  0.00000000000E+00 0. -1.
<mgrwt>
<rscale>  0 0.25388010E+04</rscale>
<asrwt>0</asrwt>
<pdfrwt beam="1">  1        1 0.40809788E+00 0.25388010E+04</pdfrwt>
<pdfrwt beam="2">  1       -1 0.93455803E-01 0.25388010E+04</pdfrwt>
<totfact> 0.10420422E+00</totfact>
</mgrwt>
</event>
<event>
 6    1  0.9906445E-006  0.6063695E+03  0.7818608E-02  0.9892279E-01
         -2   -1    0    0    0  501 -0.00000000000E+00  0.00000000000E+00  0.50110389970E+02  0.50110389970E+02  0.00000000000E+00 0.  1.
          2   -1    0    0  501    0  0.00000000000E+00 -0.00000000000E+00 -0.18343699380E+04  0.18343699380E+04  0.00000000000E+00 0. -1.
         23    2    1    2    0    0 -0.16958253686E+03  0.19295426632E+03 -0.45797089734E+03  0.53354318264E+03  0.94558972230E+02 0.  0.
         11    1    3    3    0    0 -0.10573378343E+03  0.79692593813E+02 -0.30679682081E+03  0.33414791893E+03  0.00000000000E+00 0. -1.
        -11    1    3    3    0    0 -0.63848753429E+02  0.11326167250E+03 -0.15117407653E+03  0.19939526370E+03  0.00000000000E+00 0.  1.
         22    1    1    2    0    0  0.16958253686E+03 -0.19295426632E+03 -0.13262886507E+04  0.13509371454E+04  0.00000000000E+00 0. -1.
<mgrwt>
<rscale>  0 0.60636950E+03</rscale>
<asrwt>0</asrwt>
<pdfrwt beam="1">  1        2 0.28221078E+00 0.60636950E+03</pdfrwt>
<pdfrwt beam="2">  1       -2 0.77092902E-02 0.60636950E+03</pdfrwt>
<totfact> 0.88598818E+02</totfact>
</mgrwt>
</event>
<event>
 6    1  0.9906445E-006  0.5121371E+04  0.7818608E-02  0.7810053E-01
          2   -1    0    0  501    0  0.00000000000E+00  0.00000000000E+00  0.30286097658E+04  0.30286097658E+04  0.00000000000E+00 0. -1.
         -2   -1    0    0    0  501 -0.00000000000E+00 -0.00000000000E+00 -0.21650560379E+04  0.21650560379E+04  0.00000000000E+00 0.  1.
         23    2    1    2    0    0  0.19954467795E+04  0.82356568907E+03 -0.96329542545E+03  0.23656901808E+04  0.92106789223E+02 0.  0.
         13    1    3    3    0    0  0.16857674395E+04  0.73097838363E+03 -0.82373011023E+03  0.20136217499E+04  0.00000000000E+00 0. -1.
        -13    1    3    3    0    0  0.30967934008E+03  0.92587305444E+02 -0.13956531522E+03  0.35206843087E+03  0.00000000000E+00 0.  1.
         22    1    1    2    0    0 -0.19954467795E+04 -0.82356568907E+03  0.18268491533E+04  0.28279756228E+04  0.00000000000E+00 0. -1.
<mgrwt>
<rscale>  0 0.51213709E+04</rscale>
<asrwt>0</asrwt>
<pdfrwt beam="1">  1        2 0.46593996E+00 0.51213709E+04</pdfrwt>
<pdfrwt beam="2">  1       -2 0.33308554E+00 0.51213709E+04</pdfrwt>
<totfact> 0.23910133E-02</totfact>
</mgrwt>
</event>
<event>
 6    1  0.9906445E-006  0.4726705E+04  0.7818608E-02  0.7872106E-01
         -1   -1    0    0    0  501 -0.00000000000E+00  0.00000000000E+00  0.20828439835E+04  0.20828439835E+04  0.00000000000E+00 0.  1.
          1   -1    0    0  501    0  0.00000000000E+00 -0.00000000000E+00 -0.26816388322E+04  0.26816388322E+04  0.00000000000E+00 0. -1.
         23    2    1    2    0    0 -0.20238735109E+03 -0.72958895741E+03  0.19561987076E+04  0.20996652311E+04  0.92844022240E+02 0.  0.
         11    1    3    3    0    0 -0.14872228192E+03 -0.44037184336E+03  0.10931371359E+04  0.11878528846E+04  0.00000000000E+00 0. -1.
        -11    1    3    3    0    0 -0.53665069177E+02 -0.28921711404E+03  0.86306157171E+03  0.91181234652E+03  0.00000000000E+00 0.  1.
         22    1    1    2    0    0  0.20238735109E+03  0.72958895741E+03 -0.25549935563E+04  0.26648175846E+04  0.00000000000E+00 0. -1.
<mgrwt>
<rscale>  0 0.47267051E+04</rscale>
<asrwt>0</asrwt>
<pdfrwt beam="1">  1        1 0.41255982E+00 0.47267051E+04</pdfrwt>
<pdfrwt beam="2">  1       -1 0.32043754E+00 0.47267051E+04</pdfrwt>
<totfact> 0.18139132E-02</totfact>
</mgrwt>
</event>
<event>
 6    1  0.1651464E-005  0.3405424E+04  0.7818608E-02  0.8136576E-01
         -2   -1    0    0    0  501 -0.00000000000E+00  0.00000000000E+00  0.11161471726E+04  0.11161471726E+04  0.00000000000E+00 0.  1.
          2   -1    0    0  501    0  0.00000000000E+00 -0.00000000000E+00 -0.25975315459E+04  0.25975315459E+04  0.00000000000E+00 0. -1.
         23    2    1    2    0    0  0.62920128263E+03 -0.27670067952E+03  0.95610401672E+03  0.11811291786E+04  0.92052841421E+02 0.  0.
         13    1    3    3    0    0  0.37878290754E+03 -0.18503581884E+03  0.51323975463E+03  0.66417602413E+03  0.00000000000E+00 0.  1.
        -13    1    3    3    0    0  0.25041837509E+03 -0.91664860680E+02  0.44286426209E+03  0.51695315446E+03  0.00000000000E+00 0. -1.
         22    1    1    2    0    0 -0.62920128263E+03  0.27670067952E+03 -0.24374883901E+04  0.25325495399E+04  0.00000000000E+00 0. -1.
<mgrwt>
<rscale>  0 0.34054236E+04</rscale>
<asrwt>0</asrwt>
<pdfrwt beam="1">  1        2 0.39962024E+00 0.34054236E+04</pdfrwt>
<pdfrwt beam="2">  1       -2 0.17171495E+00 0.34054236E+04</pdfrwt>
<totfact> 0.52388010E-01</totfact>
</mgrwt>
</event>
<event>
 6    1  0.9906445E-006  0.3724881E+04  0.7818608E-02  0.8062470E-01
          2   -1    0    0  501    0  0.00000000000E+00  0.00000000000E+00  0.37069477793E+04  0.37069477793E+04  0.00000000000E+00 0. -1.
         -2   -1    0    0    0  501 -0.00000000000E+00 -0.00000000000E+00 -0.93572510306E+03  0.93572510306E+03  0.00000000000E+00 0.  1.
         23    2    1    2    0    0 -0.12890660229E+04 -0.12324567117E+04  0.72262506564E+03  0.19265372216E+04  0.93369817676E+02 0.  0.
         11    1    3    3    0    0 -0.70088924112E+03 -0.64407366417E+03  0.33958337671E+03  0.10106401352E+04  0.00000000000E+00 0. -1.
        -11    1    3    3    0    0 -0.58817678180E+03 -0.58838304755E+03  0.38304168894E+03  0.91589708633E+03  0.00000000000E+00 0.  1.
         22    1    1    2    0    0  0.12890660229E+04  0.12324567117E+04  0.20485976106E+04  0.27161356608E+04  0.00000000000E+00 0. -1.
<mgrwt>
<rscale>  0 0.37248807E+04</rscale>
<asrwt>0</asrwt>
<pdfrwt beam="1">  1        2 0.57029965E+00 0.37248807E+04</pdfrwt>
<pdfrwt beam="2">  1       -2 0.14395771E+00 0.37248807E+04</pdfrwt>
<totfact> 0.15504690E-01</totfact>
</mgrwt>
</event>
<event>
 6    1  0.9906445E-006  0.1108450E+04  0.7818608E-02  0.9196995E-01
          1   -1    0    0  501    0  0.00000000000E+00  0.00000000000E+00  0.11247752860E+04  0.11247752860E+04  0.00000000000E+00 0. -1.
         -1   -1    0    0    0  501 -0.00000000000E+00 -0.00000000000E+00 -0.27309037904E+03  0.27309037904E+03  0.00000000000E+00 0.  1.
         23    2    1    2    0    0 -0.18259670003E+03 -0.12104759616E+03 -0.20770196721E+03  0.31606410072E+03  0.93607335103E+02 0.  0.
         13    1    3    3    0    0 -0.11318123512E+03 -0.20015130785E+02 -0.88276941406E+02  0.14492555271E+03  0.00000000000E+00 0. -1.
        -13    1    3    3    0    0 -0.69415464905E+02 -0.10103246537E+03 -0.11942502580E+03  0.17113854801E+03  0.00000000000E+00 0.  1.
         22    1    1    2    0    0  0.18259670003E+03  0.12104759616E+03  0.10593868742E+04  0.10818015643E+04  0.00000000000E+00 0. -1.
<mgrwt>
<rscale>  0 0.11084499E+04</rscale>
<asrwt>0</asrwt>
<pdfrwt beam="1">  1        1 0.17304235E+00 0.11084499E+04</pdfrwt>
<pdfrwt beam="2">  1       -1 0.42013905E-01 0.11084499E+04</pdfrwt>
<totfact> 0.67270676E+01</totfact>
</mgrwt>
</event>
<event>
 6    1  0.9906445E-006  0.1642347E+04  0.7818608E-02  0.8794947E-01
          2   -1    0    0  501    0  0.00000000000E+00  0.00000000000E+00  0.72081757579E+03  0.72081757579E+03  0.00000000000E+00 0.  1.
         -2   -1    0    0    0  501 -0.00000000000E+00 -0.00000000000E+00 -0.93550179572E+03  0.93550179572E+03  0.00000000000E+00 0. -1.
         23    2    1    2    0    0 -0.72962645821E+02  0.80945943964E+03 -0.88976754169E+01  0.81793030073E+03  0.91556955659E+02 0.  0.
         13    1    3    3    0    0  0.21033941874E+02  0.18745273796E+03 -0.93597309672E+01  0.18886121953E+03  0.00000000000E+00 0. -1.
        -13    1    3    3    0    0 -0.93996587695E+02  0.62200670168E+03  0.46205555023E+00  0.62906908121E+03  0.00000000000E+00 0.  1.
         22    1    1    2    0    0  0.72962645821E+02 -0.80945943964E+03 -0.20578654451E+03  0.83838907078E+03  0.00000000000E+00 0.  1.
<mgrwt>
<rscale>  0 0.16423473E+04</rscale>
<asrwt>0</asrwt>
<pdfrwt beam="1">  1        2 0.11089501E+00 0.16423473E+04</pdfrwt>
<pdfrwt beam="2">  1       -2 0.14392335E+00 0.16423473E+04</pdfrwt>
<totfact> 0.12600574E+01</totfact>
</mgrwt>
</event>
<event>
 6    1  0.9906445E-006  0.1500969E+04  0.7818608E-02  0.8883809E-01
          2   -1    0    0  501    0  0.00000000000E+00  0.00000000000E+00  0.18380129888E+04  0.18380129888E+04  0.00000000000E+00 0. -1.
         -2   -1    0    0    0  501 -0.00000000000E+00 -0.00000000000E+00 -0.30643263353E+03  0.30643263353E+03  0.00000000000E+00 0.  1.
         23    2    1    2    0    0 -0.75970746251E+02 -0.72282286483E+03  0.10190230476E+04  0.12550866162E+04  0.92682222407E+02 0.  0.
         11    1    3    3    0    0  0.10501318544E+02 -0.16628032829E+03  0.28134659529E+03  0.32697910017E+03  0.00000000000E+00 0. -1.
        -11    1    3    3    0    0 -0.86472064795E+02 -0.55654253654E+03  0.73767645234E+03  0.92810751602E+03  0.00000000000E+00 0.  1.
         22    1    1    2    0    0  0.75970746251E+02  0.72282286483E+03  0.51255730769E+03  0.88935900618E+03  0.00000000000E+00 0.  1.
<mgrwt>
<rscale>  0 0.15009692E+04</rscale>
<asrwt>0</asrwt>
<pdfrwt beam="1">  1        2 0.28277122E+00 0.15009692E+04</pdfrwt>
<pdfrwt beam="2">  1       -2 0.47143483E-01 0.15009692E+04</pdfrwt>
<totfact> 0.33867273E+01</totfact>
</mgrwt>
</event>
<event>
 6    1  0.9906445E-006  0.1419246E+04  0.7818608E-02  0.8940004E-01
         -1   -1    0    0    0  501 -0.00000000000E+00  0.00000000000E+00  0.10099987686E+04  0.10099987686E+04  0.00000000000E+00 0.  1.
          1   -1    0    0  501    0  0.00000000000E+00 -0.00000000000E+00 -0.49857949927E+03  0.49857949927E+03  0.00000000000E+00 0. -1.
         23    2    1    2    0    0 -0.28720848138E+03  0.59748210637E+03  0.51686493054E+03  0.84562786670E+03  0.91997572331E+02 0.  0.
         11    1    3    3    0    0 -0.45675685171E+02  0.43049001285E+02  0.31740841270E+02  0.70334669488E+02  0.00000000000E+00 0.  1.
        -11    1    3    3    0    0 -0.24153279621E+03  0.55443310508E+03  0.48512408927E+03  0.77529319721E+03  0.00000000000E+00 0. -1.
         22    1    1    2    0    0  0.28720848138E+03 -0.59748210637E+03 -0.54456611926E+01  0.66295040118E+03  0.00000000000E+00 0.  1.
<mgrwt>
<rscale>  0 0.14192458E+04</rscale>
<asrwt>0</asrwt>
<pdfrwt beam="1">  1        1 0.76704539E-01 0.14192458E+04</pdfrwt>
<pdfrwt beam="2">  1       -1 0.15538443E+00 0.14192458E+04</pdfrwt>
<totfact> 0.13731625E+01</totfact>
</mgrwt>
</event>
<event>
 6    1  0.9906445E-006  0.3244324E+04  0.7818608E-02  0.8177208E-01
          1   -1    0    0  501    0  0.00000000000E+00  0.00000000000E+00  0.24644153663E+04  0.24644153663E+04  0.00000000000E+00 0. -1.
         -1   -1    0    0    0  501 -0.00000000000E+00 -0.00000000000E+00 -0.10677623665E+04  0.10677623665E+04  0.00000000000E+00 0.  1.
         23    2    1    2    0    0  0.10854306557E+04  0.98461620362E+03  0.14526673922E+04  0.20656285898E+04  0.94605190028E+02 0.  0.
         11    1    3    3    0    0  0.30842987841E+03  0.28521567981E+03  0.35775099146E+03  0.55178142937E+03  0.00000000000E+00 0.  1.
        -11    1    3    3    0    0  0.77700077726E+03  0.69940052381E+03  0.10949164007E+04  0.15138471604E+04  0.00000000000E+00 0. -1.
         22    1    1    2    0    0 -0.10854306557E+04 -0.98461620362E+03 -0.56014392414E+02  0.14665491430E+04  0.00000000000E+00 0.  1.
<mgrwt>
<rscale>  0 0.32443243E+04</rscale>
<asrwt>0</asrwt>
<pdfrwt beam="1">  1        1 0.37914082E+00 0.32443243E+04</pdfrwt>
<pdfrwt beam="2">  1       -1 0.16427113E+00 0.32443243E+04</pdfrwt>
<totfact> 0.32425145E-01</totfact>
</mgrwt>
</event>
<event>
 6    1  0.9906445E-006  0.1643149E+04  0.7818608E-02  0.8794470E-01
         -2   -1    0    0    0  501 -0.00000000000E+00  0.00000000000E+00  0.23476302210E+03  0.23476302210E+03  0.00000000000E+00 0.  1.
          2   -1    0    0  501    0  0.00000000000E+00 -0.00000000000E+00 -0.28751755164E+04  0.28751755164E+04  0.00000000000E+00 0. -1.
         23    2    1    2    0    0  0.58501713469E+02 -0.75262557399E+03 -0.19283344733E+04  0.20721896223E+04  0.75021895326E+02 0.  0.
         13    1    3    3    0    0  0.20507979439E+02 -0.20385374159E+03 -0.61788766845E+03  0.65097011913E+03  0.00000000000E+00 0. -1.
        -13    1    3    3    0    0  0.37993734031E+02 -0.54877183241E+03 -0.13104468048E+04  0.14212195031E+04  0.00000000000E+00 0.  1.
         22    1    1    2    0    0 -0.58501713469E+02  0.75262557399E+03 -0.71207802107E+03  0.10377489163E+04  0.00000000000E+00 0.  1.
<mgrwt>
<rscale>  0 0.16431493E+04</rscale>
<asrwt>0</asrwt>
<pdfrwt beam="1">  1        2 0.44233468E+00 0.16431493E+04</pdfrwt>
<pdfrwt beam="2">  1       -2 0.36117390E-01 0.16431493E+04</pdfrwt>
<totfact> 0.14407022E+01</totfact>
</mgrwt>
</event>
<event>
 6    1  0.9906445E-006  0.2373141E+04  0.7818608E-02  0.8449628E-01
         -2   -1    0    0    0  501 -0.00000000000E+00  0.00000000000E+00  0.64436039635E+03  0.64436039635E+03  0.00000000000E+00 0.  1.
          2   -1    0    0  501    0  0.00000000000E+00 -0.00000000000E+00 -0.21850350918E+04  0.21850350918E+04  0.00000000000E+00 0. -1.
         23    2    1    2    0    0  0.87978000188E+03 -0.73669460581E+03 -0.11215510485E+04  0.16077587069E+04  0.10138792414E+03 0.  0.
         13    1    3    3    0    0  0.21801852835E+03 -0.22637311052E+03 -0.34956855288E+03  0.47007981985E+03  0.00000000000E+00 0. -1.
        -13    1    3    3    0    0  0.66176147353E+03 -0.51032149529E+03 -0.77198249566E+03  0.11376788870E+04  0.00000000000E+00 0.  1.
         22    1    1    2    0    0 -0.87978000188E+03  0.73669460581E+03 -0.41912364690E+03  0.12216367813E+04  0.00000000000E+00 0. -1.
<mgrwt>
<rscale>  0 0.23731414E+04</rscale>
<asrwt>0</asrwt>
<pdfrwt beam="1">  1        2 0.33615924E+00 0.23731414E+04</pdfrwt>
<pdfrwt beam="2">  1       -2 0.99132369E-01 0.23731414E+04</pdfrwt>
<totfact> 0.40004326E+00</totfact>
</mgrwt>
</event>
<event>
 6    1  0.9906445E-006  0.2190512E+04  0.7818608E-02  0.8522387E-01
         -3   -1    0    0    0  501 -0.00000000000E+00  0.00000000000E+00  0.10647329780E+04  0.10647329780E+04  0.00000000000E+00 0.  1.
          3   -1    0    0  501    0  0.00000000000E+00 -0.00000000000E+00 -0.11266543259E+04  0.11266543259E+04  0.00000000000E+00 0. -1.
         23    2    1    2    0    0  0.31274141044E+03 -0.49566851426E+03  0.89227588476E+03  0.10715717725E+04  0.92818873011E+02 0.  0.
         13    1    3    3    0    0  0.33544501736E+01 -0.47229317632E+02  0.91694531837E+02  0.10319761600E+03  0.00000000000E+00 0. -1.
        -13    1    3    3    0    0  0.30938696026E+03 -0.44843919663E+03  0.80058135292E+03  0.96837415646E+03  0.00000000000E+00 0.  1.
         22    1    1    2    0    0 -0.31274141044E+03  0.49566851426E+03 -0.95419723260E+03  0.11198155315E+04  0.00000000000E+00 0. -1.
<mgrwt>
<rscale>  0 0.21905123E+04</rscale>
<asrwt>0</asrwt>
<pdfrwt beam="1">  1        3 0.17333143E+00 0.21905123E+04</pdfrwt>
<pdfrwt beam="2">  1       -3 0.16380507E+00 0.21905123E+04</pdfrwt>
<totfact> 0.13448328E-01</totfact>
</mgrwt>
</event>
<event>
 6    1  0.9906445E-006  0.3982652E+04  0.7818608E-02  0.8008055E-01
         -2   -1    0    0    0  501 -0.00000000000E+00  0.00000000000E+00  0.13530698075E+04  0.13530698075E+04  0.00000000000E+00 0. -1.
          2   -1    0    0  501    0  0.00000000000E+00 -0.00000000000E+00 -0.29306543161E+04  0.29306543161E+04  0.00000000000E+00 0.  1.
         23    2    1    2    0    0  0.39057430290E+03 -0.34775385857E+03 -0.28548198310E+04  0.29035751820E+04  0.85273311173E+02 0.  0.
         13    1    3    3    0    0  0.34171564121E+03 -0.27094231686E+03 -0.22404679538E+04  0.22825152728E+04  0.00000000000E+00 0. -1.
        -13    1    3    3    0    0  0.48858661694E+02 -0.76811541709E+02 -0.61435187724E+03  0.62105990921E+03  0.00000000000E+00 0.  1.
         22    1    1    2    0    0 -0.39057430290E+03  0.34775385857E+03  0.12772353224E+04  0.13801489416E+04  0.00000000000E+00 0. -1.
<mgrwt>
<rscale>  0 0.39826523E+04</rscale>
<asrwt>0</asrwt>
<pdfrwt beam="1">  1        2 0.45086989E+00 0.39826523E+04</pdfrwt>
<pdfrwt beam="2">  1       -2 0.20816459E+00 0.39826523E+04</pdfrwt>
<totfact> 0.17870764E-01</totfact>
</mgrwt>
</event>
<event>
 6    1  0.9906445E-006  0.1519175E+04  0.7818608E-02  0.8871801E-01
         -2   -1    0    0    0  501 -0.00000000000E+00  0.00000000000E+00  0.35475140839E+03  0.35475140839E+03  0.00000000000E+00 0.  1.
          2   -1    0    0  501    0  0.00000000000E+00 -0.00000000000E+00 -0.16264164280E+04  0.16264164280E+04  0.00000000000E+00 0. -1.
         23    2    1    2    0    0  0.33443284449E+02 -0.97915118785E+02 -0.16148739118E+04  0.16227014258E+04  0.12098075372E+03 0.  0.
         13    1    3    3    0    0  0.72166797472E+02 -0.62855560351E+02 -0.72406227952E+03  0.73035953663E+03  0.00000000000E+00 0.  1.
        -13    1    3    3    0    0 -0.38723513024E+02 -0.35059558434E+02 -0.89081163225E+03  0.89234188922E+03  0.00000000000E+00 0. -1.
         22    1    1    2    0    0 -0.33443284449E+02  0.97915118785E+02  0.34320889221E+03  0.35846641049E+03  0.00000000000E+00 0.  1.
<mgrwt>
<rscale>  0 0.15191755E+04</rscale>
<asrwt>0</asrwt>
<pdfrwt beam="1">  1        2 0.25021791E+00 0.15191755E+04</pdfrwt>
<pdfrwt beam="2">  1       -2 0.54577139E-01 0.15191755E+04</pdfrwt>
<totfact> 0.32849814E+01</totfact>
</mgrwt>
</event>
<event>
 6    1  0.9906445E-006  0.1158386E+04  0.7818608E-02  0.9150082E-01
         -2   -1    0    0    0  501 -0.00000000000E+00  0.00000000000E+00  0.21930786723E+03  0.21930786723E+03  0.00000000000E+00 0.  1.
          2   -1    0    0  501    0  0.00000000000E+00 -0.00000000000E+00 -0.15296510370E+04  0.15296510370E+04  0.00000000000E+00 0. -1.
         23    2    1    2    0    0 -0.38258543122E+03  0.30092942341E+03 -0.11229098325E+04  0.12273638640E+04  0.92549623439E+02 0.  0.
         13    1    3    3    0    0 -0.31313592824E+03  0.20796735277E+03 -0.79156229033E+03  0.87628499294E+03  0.00000000000E+00 0. -1.
        -13    1    3    3    0    0 -0.69449502979E+02  0.92962070640E+02 -0.33134754214E+03  0.35107887109E+03  0.00000000000E+00 0.  1.
         22    1    1    2    0    0  0.38258543122E+03 -0.30092942341E+03 -0.18743333732E+03  0.52159504023E+03  0.00000000000E+00 0.  1.
<mgrwt>
<rscale>  0 0.11583860E+04</rscale>
<asrwt>0</asrwt>
<pdfrwt beam="1">  1        2 0.23533093E+00 0.11583860E+04</pdfrwt>
<pdfrwt beam="2">  1       -2 0.33739671E-01 0.11583860E+04</pdfrwt>
<totfact> 0.99229684E+01</totfact>
</mgrwt>
</event>
<event>
 6    1  0.9906445E-006  0.1708848E+04  0.7818608E-02  0.8756334E-01
         -2   -1    0    0    0  501 -0.00000000000E+00  0.00000000000E+00  0.84575545476E+03  0.84575545476E+03  0.00000000000E+00 0.  1.
          2   -1    0    0  501    0  0.00000000000E+00 -0.00000000000E+00 -0.86318113239E+03  0.86318113239E+03  0.00000000000E+00 0. -1.
         23    2    1    2    0    0  0.67032577350E+03 -0.20739379947E+03 -0.49202700513E+03  0.86182664697E+03  0.91135969770E+02 0.  0.
         11    1    3    3    0    0  0.47209597153E+02 -0.41094614994E+02 -0.40541178139E+02  0.74572787059E+02  0.00000000000E+00 0. -1.
        -11    1    3    3    0    0  0.62311617634E+03 -0.16629918447E+03 -0.45148582699E+03  0.78725385992E+03  0.00000000000E+00 0.  1.
         22    1    1    2    0    0 -0.67032577350E+03  0.20739379947E+03  0.47460132750E+03  0.84710994017E+03  0.00000000000E+00 0.  1.
<mgrwt>
<rscale>  0 0.17088477E+04</rscale>
<asrwt>0</asrwt>
<pdfrwt beam="1">  1        2 0.13279710E+00 0.17088477E+04</pdfrwt>
<pdfrwt beam="2">  1       -2 0.13011622E+00 0.17088477E+04</pdfrwt>
<totfact> 0.12802675E+01</totfact>
</mgrwt>
</event>
<event>
 6    1  0.9906445E-006  0.1581085E+04  0.7818608E-02  0.8832253E-01
         -1   -1    0    0    0  501 -0.00000000000E+00  0.00000000000E+00  0.19042055420E+04  0.19042055420E+04  0.00000000000E+00 0.  1.
          1   -1    0    0  501    0  0.00000000000E+00 -0.00000000000E+00 -0.32819843282E+03  0.32819843282E+03  0.00000000000E+00 0. -1.
         23    2    1    2    0    0 -0.13570276913E+02  0.48849069938E+03  0.16631479805E+04  0.17360161755E+04  0.94253067094E+02 0.  0.
         13    1    3    3    0    0 -0.83445354255E+01  0.18859110435E+03  0.48930359598E+03  0.52445614207E+03  0.00000000000E+00 0. -1.
        -13    1    3    3    0    0 -0.52257414877E+01  0.29989959503E+03  0.11738443846E+04  0.12115600334E+04  0.00000000000E+00 0.  1.
         22    1    1    2    0    0  0.13570276913E+02 -0.48849069938E+03 -0.87140871407E+02  0.49638779927E+03  0.00000000000E+00 0. -1.
<mgrwt>
<rscale>  0 0.15810848E+04</rscale>
<asrwt>0</asrwt>
<pdfrwt beam="1">  1        1 0.50492068E-01 0.15810848E+04</pdfrwt>
<pdfrwt beam="2">  1       -1 0.29295469E+00 0.15810848E+04</pdfrwt>
<totfact> 0.27529560E+00</totfact>
</mgrwt>
</event>
<event>
 6    1  0.9906445E-006  0.3460739E+04  0.7818608E-02  0.8123158E-01
          2   -1    0    0  501    0  0.00000000000E+00  0.00000000000E+00  0.22178859188E+04  0.22178859188E+04  0.00000000000E+00 0. -1.
         -2   -1    0    0    0  501 -0.00000000000E+00 -0.00000000000E+00 -0.13500146547E+04  0.13500146547E+04  0.00000000000E+00 0.  1.
         23    2    1    2    0    0  0.12046205102E+04  0.35129776943E+03  0.16608961124E+04  0.20835121114E+04  0.89028792322E+02 0.  0.
         11    1    3    3    0    0  0.50159883934E+03  0.11038305132E+03  0.72373348196E+03  0.88745476873E+03  0.00000000000E+00 0. -1.
        -11    1    3    3    0    0  0.70302167082E+03  0.24091471811E+03  0.93716263048E+03  0.11960573427E+04  0.00000000000E+00 0.  1.
         22    1    1    2    0    0 -0.12046205102E+04 -0.35129776943E+03 -0.79302484828E+03  0.14843884621E+04  0.00000000000E+00 0.  1.
<mgrwt>
<rscale>  0 0.34607389E+04</rscale>
<asrwt>0</asrwt>
<pdfrwt beam="1">  1        2 0.34121322E+00 0.34607389E+04</pdfrwt>
<pdfrwt beam="2">  1       -2 0.20769456E+00 0.34607389E+04</pdfrwt>
<totfact> 0.49286018E-01</totfact>
</mgrwt>
</event>
<event>
 6    1  0.9906445E-006  0.1652712E+04  0.7818608E-02  0.8788804E-01
         -2   -1    0    0    0  501 -0.00000000000E+00  0.00000000000E+00  0.23554260156E+03  0.23554260156E+03  0.00000000000E+00 0.  1.
          2   -1    0    0  501    0  0.00000000000E+00 -0.00000000000E+00 -0.28991109207E+04  0.28991109207E+04  0.00000000000E+00 0. -1.
         23    2    1    2    0    0  0.17208896236E+03 -0.80472239334E+03 -0.14100087223E+04  0.16351187931E+04  0.91083089114E+02 0.  0.
         13    1    3    3    0    0  0.83289092653E+02 -0.57802958402E+03 -0.10201387383E+04  0.11754736571E+04  0.00000000000E+00 0. -1.
        -13    1    3    3    0    0  0.88799869710E+02 -0.22669280932E+03 -0.38986998397E+03  0.45964513601E+03  0.00000000000E+00 0.  1.
         22    1    1    2    0    0 -0.17208896236E+03  0.80472239334E+03 -0.12535595969E+04  0.14995347292E+04  0.00000000000E+00 0.  1.
<mgrwt>
<rscale>  0 0.16527119E+04</rscale>
<asrwt>0</asrwt>
<pdfrwt beam="1">  1        2 0.44601706E+00 0.16527119E+04</pdfrwt>
<pdfrwt beam="2">  1       -2 0.36237323E-01 0.16527119E+04</pdfrwt>
<totfact> 0.13829681E+01</totfact>
</mgrwt>
</event>
<event>
 6    1  0.1005818E-005  0.2980797E+04  0.7818608E-02  0.8249236E-01
          2   -1    0    0  501    0  0.00000000000E+00  0.00000000000E+00  0.26808244069E+04  0.26808244069E+04  0.00000000000E+00 0. -1.
         -2   -1    0    0    0  501 -0.00000000000E+00 -0.00000000000E+00 -0.82858399733E+03  0.82858399733E+03  0.00000000000E+00 0.  1.
         23    2    1    2    0    0 -0.21760763649E+03  0.97709836849E+03 -0.37084552602E+03  0.10713383925E+04  0.90361727873E+02 0.  0.
         11    1    3    3    0    0 -0.13388400537E+03  0.41647813579E+03 -0.14037924305E+03  0.45944019890E+03  0.00000000000E+00 0. -1.
        -11    1    3    3    0    0 -0.83723631126E+02  0.56062023270E+03 -0.23046628297E+03  0.61189819358E+03  0.00000000000E+00 0.  1.
         22    1    1    2    0    0  0.21760763649E+03 -0.97709836849E+03  0.22230859356E+04  0.24380700117E+04  0.00000000000E+00 0. -1.
<mgrwt>
<rscale>  0 0.29807973E+04</rscale>
<asrwt>0</asrwt>
<pdfrwt beam="1">  1        2 0.41243452E+00 0.29807973E+04</pdfrwt>
<pdfrwt beam="2">  1       -2 0.12747446E+00 0.29807973E+04</pdfrwt>
<totfact> 0.10663859E+00</totfact>
</mgrwt>
</event>
<event>
 6    1  0.9906445E-006  0.3333178E+04  0.7818608E-02  0.8154504E-01
         -1   -1    0    0    0  501 -0.00000000000E+00  0.00000000000E+00  0.17500996890E+04  0.17500996890E+04  0.00000000000E+00 0.  1.
          1   -1    0    0  501    0  0.00000000000E+00 -0.00000000000E+00 -0.15870629414E+04  0.15870629414E+04  0.00000000000E+00 0. -1.
         23    2    1    2    0    0  0.80632632515E+03  0.16989501867E+03 -0.13673844799E+04  0.15989981981E+04  0.89601683530E+02 0.  0.
         11    1    3    3    0    0  0.25639470511E+03  0.52752113924E+02 -0.35676859778E+03  0.44249843242E+03  0.00000000000E+00 0. -1.
        -11    1    3    3    0    0  0.54993162004E+03  0.11714290475E+03 -0.10106158821E+04  0.11564997657E+04  0.00000000000E+00 0.  1.
         22    1    1    2    0    0 -0.80632632515E+03 -0.16989501867E+03  0.15304212275E+04  0.17381644322E+04  0.00000000000E+00 0.  1.
<mgrwt>
<rscale>  0 0.33331777E+04</rscale>
<asrwt>0</asrwt>
<pdfrwt beam="1">  1        1 0.24416353E+00 0.33331777E+04</pdfrwt>
<pdfrwt beam="2">  1       -1 0.26924611E+00 0.33331777E+04</pdfrwt>
<totfact> 0.24621776E-01</totfact>
</mgrwt>
</event>
<event>
 6    1  0.9906445E-006  0.3238870E+04  0.7818608E-02  0.8178626E-01
          2   -1    0    0  501    0  0.00000000000E+00  0.00000000000E+00  0.24337454773E+04  0.24337454773E+04  0.00000000000E+00 0. -1.
         -2   -1    0    0    0  501 -0.00000000000E+00 -0.00000000000E+00 -0.10775858992E+04  0.10775858992E+04  0.00000000000E+00 0.  1.
         23    2    1    2    0    0  0.48735773875E+01 -0.54649434727E+03 -0.97231605658E+03  0.11195791726E+04  0.96846200577E+02 0.  0.
         11    1    3    3    0    0  0.42374684090E+02 -0.28373139591E+03 -0.56023692888E+03  0.62941602725E+03  0.00000000000E+00 0. -1.
        -11    1    3    3    0    0 -0.37501106703E+02 -0.26276295137E+03 -0.41207912770E+03  0.49016314540E+03  0.00000000000E+00 0.  1.
         22    1    1    2    0    0 -0.48735773875E+01  0.54649434727E+03  0.23284756346E+04  0.23917522038E+04  0.00000000000E+00 0. -1.
<mgrwt>
<rscale>  0 0.32388701E+04</rscale>
<asrwt>0</asrwt>
<pdfrwt beam="1">  1        2 0.37442238E+00 0.32388701E+04</pdfrwt>
<pdfrwt beam="2">  1       -2 0.16578245E+00 0.32388701E+04</pdfrwt>
<totfact> 0.72914671E-01</totfact>
</mgrwt>
</event>
<event>
 6    1  0.9906445E-006  0.3100719E+04  0.7818608E-02  0.8215541E-01
         -1   -1    0    0    0  501 -0.00000000000E+00  0.00000000000E+00  0.12319721656E+04  0.12319721656E+04  0.00000000000E+00 0.  1.
          1   -1    0    0  501    0  0.00000000000E+00 -0.00000000000E+00 -0.19510300938E+04  0.19510300938E+04  0.00000000000E+00 0. -1.
         23    2    1    2    0    0  0.62632485468E+03 -0.10878905577E+04 -0.12913806261E+04  0.18033856605E+04  0.93526627435E+02 0.  0.
         13    1    3    3    0    0  0.34007621392E+03 -0.50607570713E+03 -0.65458663503E+03  0.89456588096E+03  0.00000000000E+00 0.  1.
        -13    1    3    3    0    0  0.28624864076E+03 -0.58181485059E+03 -0.63679399107E+03  0.90881977959E+03  0.00000000000E+00 0. -1.
         22    1    1    2    0    0 -0.62632485468E+03  0.10878905577E+04  0.57232269791E+03  0.13796165988E+04  0.00000000000E+00 0.  1.
<mgrwt>
<rscale>  0 0.31007191E+04</rscale>
<asrwt>0</asrwt>
<pdfrwt beam="1">  1        1 0.30015848E+00 0.31007191E+04</pdfrwt>
<pdfrwt beam="2">  1       -1 0.18953418E+00 0.31007191E+04</pdfrwt>
<totfact> 0.48328297E-01</totfact>
</mgrwt>
</event>
<event>
 6    1  0.9906445E-006  0.1629728E+04  0.7818608E-02  0.8802490E-01
         -1   -1    0    0    0  501 -0.00000000000E+00  0.00000000000E+00  0.51637698593E+03  0.51637698593E+03  0.00000000000E+00 0.  1.
          1   -1    0    0  501    0  0.00000000000E+00 -0.00000000000E+00 -0.12858888043E+04  0.12858888043E+04  0.00000000000E+00 0. -1.
         23    2    1    2    0    0 -0.50158621776E+03  0.49611525246E+03  0.58862099451E+02  0.71418379640E+03  0.94205470718E+02 0.  0.
         11    1    3    3    0    0 -0.29614145045E+03  0.23679705281E+03  0.65080219751E+01  0.37922942561E+03  0.00000000000E+00 0. -1.
        -11    1    3    3    0    0 -0.20544476731E+03  0.25931819965E+03  0.52354077476E+02  0.33495437079E+03  0.00000000000E+00 0.  1.
         22    1    1    2    0    0  0.50158621776E+03 -0.49611525246E+03 -0.82837391781E+03  0.10880819938E+04  0.00000000000E+00 0. -1.
<mgrwt>
<rscale>  0 0.16297281E+04</rscale>
<asrwt>0</asrwt>
<pdfrwt beam="1">  1        1 0.19782904E+00 0.16297281E+04</pdfrwt>
<pdfrwt beam="2">  1       -1 0.79442614E-01 0.16297281E+04</pdfrwt>
<totfact> 0.14032524E+01</totfact>
</mgrwt>
</event>
<event>
 6    1  0.9906445E-006  0.3449603E+04  0.7818608E-02  0.8125838E-01
          1   -1    0    0  501    0  0.00000000000E+00  0.00000000000E+00  0.16100587235E+04  0.16100587235E+04  0.00000000000E+00 0. -1.
         -1   -1    0    0    0  501 -0.00000000000E+00 -0.00000000000E+00 -0.18477211955E+04  0.18477211955E+04  0.00000000000E+00 0.  1.
         23    2    1    2    0    0  0.12787293661E+04  0.38773466995E+03  0.97188174869E+03  0.16554247409E+04  0.10193121935E+03 0.  0.
         13    1    3    3    0    0  0.66488152784E+03  0.23099949765E+03  0.45899555041E+03  0.84030061840E+03  0.00000000000E+00 0. -1.
        -13    1    3    3    0    0  0.61384783823E+03  0.15673517230E+03  0.51288619828E+03  0.81512412253E+03  0.00000000000E+00 0.  1.
         22    1    1    2    0    0 -0.12787293661E+04 -0.38773466995E+03 -0.12095442207E+04  0.18023551780E+04  0.00000000000E+00 0.  1.
<mgrwt>
<rscale>  0 0.34496027E+04</rscale>
<asrwt>0</asrwt>
<pdfrwt beam="1">  1        1 0.24770134E+00 0.34496027E+04</pdfrwt>
<pdfrwt beam="2">  1       -1 0.28426480E+00 0.34496027E+04</pdfrwt>
<totfact> 0.18791384E-01</totfact>
</mgrwt>
</event>
<event>
 6    1  0.9906445E-006  0.8222071E+03  0.7818608E-02  0.9528418E-01
         -2   -1    0    0    0  501 -0.00000000000E+00  0.00000000000E+00  0.65800926955E+02  0.65800926955E+02  0.00000000000E+00 0.  1.
          2   -1    0    0  501    0  0.00000000000E+00 -0.00000000000E+00 -0.25684461902E+04  0.25684461902E+04  0.00000000000E+00 0. -1.
         23    2    1    2    0    0  0.34075194341E+03 -0.22163337735E+03 -0.12567760280E+04  0.13237421030E+04  0.87028327088E+02 0.  0.
         13    1    3    3    0    0  0.23435689731E+03 -0.10261372807E+03 -0.79473791033E+03  0.83490183772E+03  0.00000000000E+00 0. -1.
        -13    1    3    3    0    0  0.10639504610E+03 -0.11901964928E+03 -0.46203811767E+03  0.48884026525E+03  0.00000000000E+00 0.  1.
         22    1    1    2    0    0 -0.34075194341E+03  0.22163337735E+03 -0.12458692353E+04  0.13105050142E+04  0.00000000000E+00 0.  1.
<mgrwt>
<rscale>  0 0.82220713E+03</rscale>
<asrwt>0</asrwt>
<pdfrwt beam="1">  1        2 0.39514559E+00 0.82220713E+03</pdfrwt>
<pdfrwt beam="2">  1       -2 0.10123219E-01 0.82220713E+03</pdfrwt>
<totfact> 0.22069540E+02</totfact>
</mgrwt>
</event>
<event>
 6    1  0.9906445E-006  0.1979349E+04  0.7818608E-02  0.8616337E-01
          1   -1    0    0  501    0  0.00000000000E+00  0.00000000000E+00  0.78146335358E+03  0.78146335358E+03  0.00000000000E+00 0. -1.
         -1   -1    0    0    0  501 -0.00000000000E+00 -0.00000000000E+00 -0.12533610017E+04  0.12533610017E+04  0.00000000000E+00 0.  1.
         23    2    1    2    0    0 -0.45502572788E+03 -0.76938569638E+03 -0.66614527493E+03  0.11200922069E+04  0.10887727860E+03 0.  0.
         13    1    3    3    0    0 -0.10763729921E+03 -0.25749712011E+03 -0.24839100540E+03  0.37361564021E+03  0.00000000000E+00 0.  1.
        -13    1    3    3    0    0 -0.34738842868E+03 -0.51188857627E+03 -0.41775426954E+03  0.74647656669E+03  0.00000000000E+00 0. -1.
         22    1    1    2    0    0  0.45502572788E+03  0.76938569638E+03  0.19424762679E+03  0.91473214842E+03  0.00000000000E+00 0. -1.
<mgrwt>
<rscale>  0 0.19793491E+04</rscale>
<asrwt>0</asrwt>
<pdfrwt beam="1">  1        1 0.12022513E+00 0.19793491E+04</pdfrwt>
<pdfrwt beam="2">  1       -1 0.19282477E+00 0.19793491E+04</pdfrwt>
<totfact> 0.36009326E+00</totfact>
</mgrwt>
</event>
<event>
 6    1  0.9906445E-006  0.3733315E+04  0.7818608E-02  0.8060619E-01
          2   -1    0    0  501    0  0.00000000000E+00  0.00000000000E+00  0.11053514705E+04  0.11053514705E+04  0.00000000000E+00 0. -1.
         -2   -1    0    0    0  501 -0.00000000000E+00 -0.00000000000E+00 -0.31523101434E+04  0.31523101434E+04  0.00000000000E+00 0.  1.
         23    2    1    2    0    0  0.79505085449E+03 -0.11051546304E+04 -0.24786929642E+04  0.28294224474E+04  0.90774206782E+02 0.  0.
         11    1    3    3    0    0  0.67553749497E+03 -0.98556894761E+03 -0.21963555753E+04  0.25003349517E+04  0.00000000000E+00 0. -1.
        -11    1    3    3    0    0  0.11951335952E+03 -0.11958568282E+03 -0.28233738895E+03  0.32908749572E+03  0.00000000000E+00 0.  1.
         22    1    1    2    0    0 -0.79505085449E+03  0.11051546304E+04  0.43173429138E+03  0.14282391665E+04  0.00000000000E+00 0. -1.
<mgrwt>
<rscale>  0 0.37333152E+04</rscale>
<asrwt>0</asrwt>
<pdfrwt beam="1">  1        2 0.17005407E+00 0.37333152E+04</pdfrwt>
<pdfrwt beam="2">  1       -2 0.48497079E+00 0.37333152E+04</pdfrwt>
<totfact> 0.35754792E-02</totfact>
</mgrwt>
</event>
<event>
 6    1  0.9906445E-006  0.1894238E+04  0.7818608E-02  0.8657730E-01
         -1   -1    0    0    0  501 -0.00000000000E+00  0.00000000000E+00  0.84520469292E+03  0.84520469292E+03  0.00000000000E+00 0.  1.
          1   -1    0    0  501    0  0.00000000000E+00 -0.00000000000E+00 -0.10613216322E+04  0.10613216322E+04  0.00000000000E+00 0. -1.
         23    2    1    2    0    0  0.91784419379E+03  0.40940481943E+02  0.11379932747E+03  0.93033022279E+03  0.91923606140E+02 0.  0.
         13    1    3    3    0    0  0.28766087284E+03  0.18093452264E+02 -0.67755153378E+01  0.28830896341E+03  0.00000000000E+00 0. -1.
        -13    1    3    3    0    0  0.63018332096E+03  0.22847029678E+02  0.12057484281E+03  0.64202125938E+03  0.00000000000E+00 0.  1.
         22    1    1    2    0    0 -0.91784419379E+03 -0.40940481943E+02 -0.32991626676E+03  0.97619610234E+03  0.00000000000E+00 0. -1.
<mgrwt>
<rscale>  0 0.18942376E+04</rscale>
<asrwt>0</asrwt>
<pdfrwt beam="1">  1        1 0.16328025E+00 0.18942376E+04</pdfrwt>
<pdfrwt beam="2">  1       -1 0.13003149E+00 0.18942376E+04</pdfrwt>
<totfact> 0.64368233E+00</totfact>
</mgrwt>
</event>
<event>
 6    1  0.9906445E-006  0.2862167E+04  0.7818608E-02  0.8284224E-01
          2   -1    0    0  501    0  0.00000000000E+00  0.00000000000E+00  0.34319232054E+04  0.34319232054E+04  0.00000000000E+00 0.  1.
         -2   -1    0    0    0  501 -0.00000000000E+00 -0.00000000000E+00 -0.59674976826E+03  0.59674976826E+03  0.00000000000E+00 0. -1.
         23    2    1    2    0    0  0.38851712937E+02 -0.55373187615E+03 -0.43516647828E+03  0.71155802108E+03  0.93896258081E+02 0.  0.
         13    1    3    3    0    0  0.52799189996E+02 -0.20657255284E+03 -0.13454647560E+03  0.25211649717E+03  0.00000000000E+00 0.  1.
        -13    1    3    3    0    0 -0.13947477059E+02 -0.34715932331E+03 -0.30062000268E+03  0.45944152390E+03  0.00000000000E+00 0. -1.
         22    1    1    2    0    0 -0.38851712937E+02  0.55373187615E+03  0.32703399154E+04  0.33171149526E+04  0.00000000000E+00 0.  1.
<mgrwt>
<rscale>  0 0.28621666E+04</rscale>
<asrwt>0</asrwt>
<pdfrwt beam="1">  1        2 0.52798818E+00 0.28621666E+04</pdfrwt>
<pdfrwt beam="2">  1       -2 0.91807658E-01 0.28621666E+04</pdfrwt>
<totfact> 0.79173431E-01</totfact>
</mgrwt>
</event>
<event>
 6    1  0.9906445E-006  0.1688284E+04  0.7818608E-02  0.8768075E-01
          1   -1    0    0  501    0  0.00000000000E+00  0.00000000000E+00  0.65323303739E+03  0.65323303739E+03  0.00000000000E+00 0.  1.
         -1   -1    0    0    0  501 -0.00000000000E+00 -0.00000000000E+00 -0.10908444265E+04  0.10908444265E+04  0.00000000000E+00 0. -1.
         23    2    1    2    0    0  0.47044588254E+03  0.47613143845E+03 -0.74739411152E+03  0.10065235268E+04  0.80443626273E+02 0.  0.
         13    1    3    3    0    0  0.11680726883E+03  0.10803829138E+03 -0.13015817541E+03  0.20556595312E+03  0.00000000000E+00 0. -1.
        -13    1    3    3    0    0  0.35363861370E+03  0.36809314707E+03 -0.61723593611E+03  0.80095757369E+03  0.00000000000E+00 0.  1.
         22    1    1    2    0    0 -0.47044588254E+03 -0.47613143845E+03  0.30978272237E+03  0.73755393711E+03  0.00000000000E+00 0.  1.
<mgrwt>
<rscale>  0 0.16882839E+04</rscale>
<asrwt>0</asrwt>
<pdfrwt beam="1">  1        1 0.10049739E+00 0.16882839E+04</pdfrwt>
<pdfrwt beam="2">  1       -1 0.16782222E+00 0.16882839E+04</pdfrwt>
<totfact> 0.73530247E+00</totfact>
</mgrwt>
</event>
<event>
 6    1  0.9906445E-006  0.1301136E+04  0.7818608E-02  0.9028665E-01
          1   -1    0    0  501    0  0.00000000000E+00  0.00000000000E+00  0.46125767746E+03  0.46125767746E+03  0.00000000000E+00 0. -1.
         -1   -1    0    0    0  501 -0.00000000000E+00 -0.00000000000E+00 -0.91757487971E+03  0.91757487971E+03  0.00000000000E+00 0.  1.
         23    2    1    2    0    0 -0.12447759501E+03 -0.37700048989E+03  0.31280579409E+03  0.51328404637E+03  0.89381241910E+02 0.  0.
         13    1    3    3    0    0 -0.45255020196E+02 -0.23831310753E+03  0.14994743240E+03  0.28517606238E+03  0.00000000000E+00 0.  1.
        -13    1    3    3    0    0 -0.79222574814E+02 -0.13868738236E+03  0.16285836169E+03  0.22810798399E+03  0.00000000000E+00 0. -1.
         22    1    1    2    0    0  0.12447759501E+03  0.37700048989E+03 -0.76912299634E+03  0.86554851079E+03  0.00000000000E+00 0.  1.
<mgrwt>
<rscale>  0 0.13011356E+04</rscale>
<asrwt>0</asrwt>
<pdfrwt beam="1">  1        1 0.70962720E-01 0.13011356E+04</pdfrwt>
<pdfrwt beam="2">  1       -1 0.14116537E+00 0.13011356E+04</pdfrwt>
<totfact> 0.19953535E+01</totfact>
</mgrwt>
</event>
<event>
 6    1  0.9906445E-006  0.4486348E+04  0.7818608E-02  0.7913031E-01
         -2   -1    0    0    0  501 -0.00000000000E+00  0.00000000000E+00  0.11684946955E+04  0.11684946955E+04  0.00000000000E+00 0.  1.
          2   -1    0    0  501    0  0.00000000000E+00 -0.00000000000E+00 -0.43062496068E+04  0.43062496068E+04  0.00000000000E+00 0. -1.
         23    2    1    2    0    0 -0.15343387478E+04  0.86277540830E+03  0.12672255593E+03  0.17659183517E+04  0.61904930541E+02 0.  0.
         13    1    3    3    0    0 -0.66443072141E+03  0.40213000768E+03  0.37760804516E+02  0.77756196215E+03  0.00000000000E+00 0.  1.
        -13    1    3    3    0    0 -0.86990802636E+03  0.46064540063E+03  0.88961751419E+02  0.98835638950E+03  0.00000000000E+00 0. -1.
         22    1    1    2    0    0  0.15343387478E+04 -0.86277540830E+03 -0.32644774672E+04  0.37088259506E+04  0.00000000000E+00 0. -1.
<mgrwt>
<rscale>  0 0.44863481E+04</rscale>
<asrwt>0</asrwt>
<pdfrwt beam="1">  1        2 0.66249994E+00 0.44863481E+04</pdfrwt>
<pdfrwt beam="2">  1       -2 0.17976841E+00 0.44863481E+04</pdfrwt>
<totfact> 0.25677607E-02</totfact>
</mgrwt>
</event>
<event>
 6    1  0.9906445E-006  0.2829608E+04  0.7818608E-02  0.8294135E-01
         -2   -1    0    0    0  501 -0.00000000000E+00  0.00000000000E+00  0.81322453473E+03  0.81322453473E+03  0.00000000000E+00 0.  1.
          2   -1    0    0  501    0  0.00000000000E+00 -0.00000000000E+00 -0.24613986577E+04  0.24613986577E+04  0.00000000000E+00 0. -1.
         23    2    1    2    0    0 -0.10221303232E+04  0.97100982858E+03 -0.70963726160E+03  0.15809697671E+04  0.90938862881E+02 0.  0.
         13    1    3    3    0    0 -0.78286147494E+03  0.71562180491E+03 -0.49543879956E+03  0.11706606087E+04  0.00000000000E+00 0.  1.
        -13    1    3    3    0    0 -0.23926884825E+03  0.25538802367E+03 -0.21419846204E+03  0.41030915846E+03  0.00000000000E+00 0. -1.
         22    1    1    2    0    0  0.10221303232E+04 -0.97100982858E+03 -0.93853686134E+03  0.16936534253E+04  0.00000000000E+00 0. -1.
<mgrwt>
<rscale>  0 0.28296076E+04</rscale>
<asrwt>0</asrwt>
<pdfrwt beam="1">  1        2 0.37867672E+00 0.28296076E+04</pdfrwt>
<pdfrwt beam="2">  1       -2 0.12511147E+00 0.28296076E+04</pdfrwt>
<totfact> 0.15216523E+00</totfact>
</mgrwt>
</event>
<event>
 6    1  0.9906445E-006  0.3621800E+04  0.7818608E-02  0.8085516E-01
         -2   -1    0    0    0  501 -0.00000000000E+00  0.00000000000E+00  0.17162969328E+04  0.17162969328E+04  0.00000000000E+00 0.  1.
          2   -1    0    0  501    0  0.00000000000E+00 -0.00000000000E+00 -0.19107171309E+04  0.19107171309E+04  0.00000000000E+00 0. -1.
         23    2    1    2    0    0 -0.13721439050E+04 -0.40441097036E+02 -0.12782666754E+04  0.18779750233E+04  0.91706686253E+02 0.  0.
         13    1    3    3    0    0 -0.95376102746E+03 -0.51646807780E+02 -0.84019515329E+03  0.12721066724E+04  0.00000000000E+00 0. -1.
        -13    1    3    3    0    0 -0.41838287754E+03  0.11205710744E+02 -0.43807152212E+03  0.60586835093E+03  0.00000000000E+00 0.  1.
         22    1    1    2    0    0  0.13721439050E+04  0.40441097036E+02  0.10838464773E+04  0.17490390404E+04  0.00000000000E+00 0.  1.
<mgrwt>
<rscale>  0 0.36217995E+04</rscale>
<asrwt>0</asrwt>
<pdfrwt beam="1">  1        2 0.29395648E+00 0.36217995E+04</pdfrwt>
<pdfrwt beam="2">  1       -2 0.26404568E+00 0.36217995E+04</pdfrwt>
<totfact> 0.32117981E-01</totfact>
</mgrwt>
</event>
<event>
 6    1  0.9906445E-006  0.2604963E+04  0.7818608E-02  0.8366517E-01
          1   -1    0    0  501    0  0.00000000000E+00  0.00000000000E+00  0.24684274280E+04  0.24684274280E+04  0.00000000000E+00 0. -1.
         -1   -1    0    0    0  501 -0.00000000000E+00 -0.00000000000E+00 -0.68726259966E+03  0.68726259966E+03  0.00000000000E+00 0.  1.
         23    2    1    2    0    0  0.86613350599E+03 -0.23784706152E+03 -0.24890868594E+03  0.93578981633E+03  0.83597676562E+02 0.  0.
         13    1    3    3    0    0  0.20579355516E+03 -0.34853205218E+02 -0.28595379013E+02  0.21067375005E+03  0.00000000000E+00 0.  1.
        -13    1    3    3    0    0  0.66033995083E+03 -0.20299385630E+03 -0.22031330693E+03  0.72511606627E+03  0.00000000000E+00 0. -1.
         22    1    1    2    0    0 -0.86613350599E+03  0.23784706152E+03  0.20300735142E+04  0.22199002113E+04  0.00000000000E+00 0. -1.
<mgrwt>
<rscale>  0 0.26049628E+04</rscale>
<asrwt>0</asrwt>
<pdfrwt beam="1">  1        1 0.37975806E+00 0.26049628E+04</pdfrwt>
<pdfrwt beam="2">  1       -1 0.10573271E+00 0.26049628E+04</pdfrwt>
<totfact> 0.10502783E+00</totfact>
</mgrwt>
</event>
<event>
 6    1  0.9906445E-006  0.3088150E+04  0.7818608E-02  0.8218998E-01
         -2   -1    0    0    0  501 -0.00000000000E+00  0.00000000000E+00  0.17909493557E+04  0.17909493557E+04  0.00000000000E+00 0.  1.
          2   -1    0    0  501    0  0.00000000000E+00 -0.00000000000E+00 -0.13312313185E+04  0.13312313185E+04  0.00000000000E+00 0. -1.
         23    2    1    2    0    0 -0.12685384670E+04 -0.53107422904E+03 -0.47669874670E+03  0.14584180493E+04  0.92259591199E+02 0.  0.
         11    1    3    3    0    0 -0.58710476418E+03 -0.22574515194E+03 -0.17351084722E+03  0.65250202440E+03  0.00000000000E+00 0.  1.
        -11    1    3    3    0    0 -0.68143370286E+03 -0.30532907710E+03 -0.30318789949E+03  0.80591602485E+03  0.00000000000E+00 0. -1.
         22    1    1    2    0    0  0.12685384670E+04  0.53107422904E+03  0.93641678385E+03  0.16637626249E+04  0.00000000000E+00 0.  1.
<mgrwt>
<rscale>  0 0.30881502E+04</rscale>
<asrwt>0</asrwt>
<pdfrwt beam="1">  1        2 0.20480482E+00 0.30881502E+04</pdfrwt>
<pdfrwt beam="2">  1       -2 0.27553067E+00 0.30881502E+04</pdfrwt>
<totfact> 0.60413938E-01</totfact>
</mgrwt>
</event>
<event>
 6    1  0.9906445E-006  0.2778961E+04  0.7818608E-02  0.8309830E-01
          2   -1    0    0  501    0  0.00000000000E+00  0.00000000000E+00  0.30645240446E+04  0.30645240446E+04  0.00000000000E+00 0. -1.
         -2   -1    0    0    0  501 -0.00000000000E+00 -0.00000000000E+00 -0.63000204554E+03  0.63000204554E+03  0.00000000000E+00 0.  1.
         23    2    1    2    0    0 -0.12539915470E+03 -0.13658984942E+04  0.15013431557E+04  0.20355425465E+04  0.89434574082E+02 0.  0.
         13    1    3    3    0    0 -0.20388953848E+02 -0.10006478743E+03  0.14451801952E+03  0.17695798678E+03  0.00000000000E+00 0. -1.
        -13    1    3    3    0    0 -0.10501020085E+03 -0.12658337067E+04  0.13568251362E+04  0.18585845597E+04  0.00000000000E+00 0.  1.
         22    1    1    2    0    0  0.12539915470E+03  0.13658984942E+04  0.93317884334E+03  0.16589835436E+04  0.00000000000E+00 0.  1.
<mgrwt>
<rscale>  0 0.27789613E+04</rscale>
<asrwt>0</asrwt>
<pdfrwt beam="1">  1        2 0.47146523E+00 0.27789613E+04</pdfrwt>
<pdfrwt beam="2">  1       -2 0.96923393E-01 0.27789613E+04</pdfrwt>
<totfact> 0.12282758E+00</totfact>
</mgrwt>
</event>
<event>
 6    1  0.9906445E-006  0.2115804E+04  0.7818608E-02  0.8554313E-01
          1   -1    0    0  501    0  0.00000000000E+00  0.00000000000E+00  0.33102464876E+04  0.33102464876E+04  0.00000000000E+00 0. -1.
         -1   -1    0    0    0  501 -0.00000000000E+00 -0.00000000000E+00 -0.33808869977E+03  0.33808869977E+03  0.00000000000E+00 0.  1.
         23    2    1    2    0    0 -0.51181202541E+03 -0.65940549721E+03  0.37379147058E+03  0.91918244747E+03  0.91701413100E+02 0.  0.
         13    1    3    3    0    0 -0.15283446134E+03 -0.26894832557E+03  0.13558383761E+03  0.33774924341E+03  0.00000000000E+00 0.  1.
        -13    1    3    3    0    0 -0.35897756406E+03 -0.39045717163E+03  0.23820763296E+03  0.58143320406E+03  0.00000000000E+00 0. -1.
         22    1    1    2    0    0  0.51181202541E+03  0.65940549721E+03  0.25983663172E+04  0.27291527399E+04  0.00000000000E+00 0. -1.
<mgrwt>
<rscale>  0 0.21158043E+04</rscale>
<asrwt>0</asrwt>
<pdfrwt beam="1">  1        1 0.50926867E+00 0.21158043E+04</pdfrwt>
<pdfrwt beam="2">  1       -1 0.52013648E-01 0.21158043E+04</pdfrwt>
<totfact> 0.12018802E+00</totfact>
</mgrwt>
</event>
<event>
 6    1  0.9906445E-006  0.8479919E+03  0.7818608E-02  0.9493036E-01
          2   -1    0    0  501    0  0.00000000000E+00  0.00000000000E+00  0.12523951532E+04  0.12523951532E+04  0.00000000000E+00 0. -1.
         -2   -1    0    0    0  501 -0.00000000000E+00 -0.00000000000E+00 -0.14354299566E+03  0.14354299566E+03  0.00000000000E+00 0.  1.
         23    2    1    2    0    0 -0.15099263309E+03 -0.38125650363E+03  0.70112225541E+03  0.81766574772E+03  0.94072106112E+02 0.  0.
         13    1    3    3    0    0 -0.15937983043E+02 -0.15340628848E+03  0.29329570593E+03  0.33137573804E+03  0.00000000000E+00 0. -1.
        -13    1    3    3    0    0 -0.13505465005E+03 -0.22785021516E+03  0.40782654948E+03  0.48629000968E+03  0.00000000000E+00 0.  1.
         22    1    1    2    0    0  0.15099263309E+03  0.38125650363E+03  0.40772990208E+03  0.57827240109E+03  0.00000000000E+00 0.  1.
<mgrwt>
<rscale>  0 0.84799187E+03</rscale>
<asrwt>0</asrwt>
<pdfrwt beam="1">  1        2 0.19267617E+00 0.84799187E+03</pdfrwt>
<pdfrwt beam="2">  1       -2 0.22083539E-01 0.84799187E+03</pdfrwt>
<totfact> 0.31716689E+02</totfact>
</mgrwt>
</event>
<event>
 6    1  0.9906445E-006  0.1612683E+04  0.7818608E-02  0.8812794E-01
          2   -1    0    0  501    0  0.00000000000E+00  0.00000000000E+00  0.10975466665E+04  0.10975466665E+04  0.00000000000E+00 0. -1.
         -2   -1    0    0    0  501 -0.00000000000E+00 -0.00000000000E+00 -0.59239994363E+03  0.59239994363E+03  0.00000000000E+00 0.  1.
         23    2    1    2    0    0  0.91299480782E+02  0.56902278957E+03 -0.33366055627E+03  0.67224322417E+03  0.91973123213E+02 0.  0.
         11    1    3    3    0    0  0.91146778553E+02  0.29078396943E+03 -0.15891764327E+03  0.34368280356E+03  0.00000000000E+00 0. -1.
        -11    1    3    3    0    0  0.15270222881E+00  0.27823882014E+03 -0.17474291301E+03  0.32856042061E+03  0.00000000000E+00 0.  1.
         22    1    1    2    0    0 -0.91299480782E+02 -0.56902278957E+03  0.83880727916E+03  0.10177033860E+04  0.00000000000E+00 0. -1.
<mgrwt>
<rscale>  0 0.16126830E+04</rscale>
<asrwt>0</asrwt>
<pdfrwt beam="1">  1        2 0.16885333E+00 0.16126830E+04</pdfrwt>
<pdfrwt beam="2">  1       -2 0.91138453E-01 0.16126830E+04</pdfrwt>
<totfact> 0.21503982E+01</totfact>
</mgrwt>
</event>
<event>
 6    1  0.9906445E-006  0.3925751E+04  0.7818608E-02  0.8019695E-01
         -1   -1    0    0    0  501 -0.00000000000E+00  0.00000000000E+00  0.14432564689E+04  0.14432564689E+04  0.00000000000E+00 0.  1.
          1   -1    0    0  501    0  0.00000000000E+00 -0.00000000000E+00 -0.26695747697E+04  0.26695747697E+04  0.00000000000E+00 0. -1.
         23    2    1    2    0    0  0.16514718882E+04 -0.21547573189E+03  0.47257203899E+03  0.17337520943E+04  0.93716614061E+02 0.  0.
         11    1    3    3    0    0  0.30799441434E+03 -0.77233965166E+02  0.88756993385E+02  0.32970206022E+03  0.00000000000E+00 0.  1.
        -11    1    3    3    0    0  0.13434774739E+04 -0.13824176673E+03  0.38381504560E+03  0.14040500340E+04  0.00000000000E+00 0. -1.
         22    1    1    2    0    0 -0.16514718882E+04  0.21547573189E+03 -0.16988903398E+04  0.23790791444E+04  0.00000000000E+00 0.  1.
<mgrwt>
<rscale>  0 0.39257514E+04</rscale>
<asrwt>0</asrwt>
<pdfrwt beam="1">  1        1 0.41070381E+00 0.39257514E+04</pdfrwt>
<pdfrwt beam="2">  1       -1 0.22203946E+00 0.39257514E+04</pdfrwt>
<totfact> 0.86571663E-02</totfact>
</mgrwt>
</event>
<event>
 6    1  0.1097300E-005  0.2080756E+04  0.7818608E-02  0.8569768E-01
         -2   -1    0    0    0  501 -0.00000000000E+00  0.00000000000E+00  0.91100726719E+03  0.91100726719E+03  0.00000000000E+00 0.  1.
          2   -1    0    0  501    0  0.00000000000E+00 -0.00000000000E+00 -0.11881204744E+04  0.11881204744E+04  0.00000000000E+00 0. -1.
         23    2    1    2    0    0  0.93793688591E+03  0.44475123354E+03 -0.97848490313E+02  0.10457213146E+04  0.80184032793E+02 0.  0.
         13    1    3    3    0    0  0.25179110342E+03  0.88210564040E+02 -0.42829003789E+01  0.26682992074E+03  0.00000000000E+00 0. -1.
        -13    1    3    3    0    0  0.68614578250E+03  0.35654066950E+03 -0.93565589934E+02  0.77889139388E+03  0.00000000000E+00 0.  1.
         22    1    1    2    0    0 -0.93793688591E+03 -0.44475123354E+03 -0.17926471692E+03  0.10534064270E+04  0.00000000000E+00 0.  1.
<mgrwt>
<rscale>  0 0.20807560E+04</rscale>
<asrwt>0</asrwt>
<pdfrwt beam="1">  1        2 0.18278777E+00 0.20807560E+04</pdfrwt>
<pdfrwt beam="2">  1       -2 0.14015496E+00 0.20807560E+04</pdfrwt>
<totfact> 0.63650900E+00</totfact>
</mgrwt>
</event>
<event>
 6    1  0.9906445E-006  0.5995341E+04  0.7818608E-02  0.7690980E-01
         -1   -1    0    0    0  501 -0.00000000000E+00  0.00000000000E+00  0.33590833574E+04  0.33590833574E+04  0.00000000000E+00 0.  1.
          1   -1    0    0  501    0  0.00000000000E+00 -0.00000000000E+00 -0.26751431122E+04  0.26751431122E+04  0.00000000000E+00 0. -1.
         23    2    1    2    0    0  0.21550167146E+04 -0.10565647563E+04  0.21489114068E+04  0.32223646970E+04  0.73402190982E+02 0.  0.
         11    1    3    3    0    0  0.16497269527E+04 -0.83863238205E+03  0.16356556281E+04  0.24698729976E+04  0.00000000000E+00 0. -1.
        -11    1    3    3    0    0  0.50528976190E+03 -0.21793237423E+03  0.51325577875E+03  0.75249169938E+03  0.00000000000E+00 0.  1.
         22    1    1    2    0    0 -0.21550167146E+04  0.10565647563E+04 -0.14649711616E+04  0.28118617727E+04  0.00000000000E+00 0. -1.
<mgrwt>
<rscale>  0 0.59953411E+04</rscale>
<asrwt>0</asrwt>
<pdfrwt beam="1">  1        1 0.41156048E+00 0.59953411E+04</pdfrwt>
<pdfrwt beam="2">  1       -1 0.51678206E+00 0.59953411E+04</pdfrwt>
<totfact> 0.80720070E-04</totfact>
</mgrwt>
</event>
<event>
 6    1  0.9906445E-006  0.9550226E+03  0.7818608E-02  0.9359299E-01
         -1   -1    0    0    0  501 -0.00000000000E+00  0.00000000000E+00  0.51839100374E+03  0.51839100374E+03  0.00000000000E+00 0.  1.
          1   -1    0    0  501    0  0.00000000000E+00 -0.00000000000E+00 -0.43985530911E+03  0.43985530911E+03  0.00000000000E+00 0. -1.
         23    2    1    2    0    0  0.24629313163E+03 -0.40086210493E+03 -0.10073356171E+02  0.47949554497E+03  0.91998756983E+02 0.  0.
         13    1    3    3    0    0  0.13926863988E+02 -0.90003896844E+02 -0.74584942844E+01  0.91379910947E+02  0.00000000000E+00 0. -1.
        -13    1    3    3    0    0  0.23236626764E+03 -0.31085820809E+03 -0.26148618863E+01  0.38811563402E+03  0.00000000000E+00 0.  1.
         22    1    1    2    0    0 -0.24629313163E+03  0.40086210493E+03  0.88609050807E+02  0.47875076788E+03  0.00000000000E+00 0.  1.
<mgrwt>
<rscale>  0 0.95502259E+03</rscale>
<asrwt>0</asrwt>
<pdfrwt beam="1">  1        1 0.67670047E-01 0.95502259E+03</pdfrwt>
<pdfrwt beam="2">  1       -1 0.79752462E-01 0.95502259E+03</pdfrwt>
<totfact> 0.83400422E+01</totfact>
</mgrwt>
</event>
<event>
 6    1  0.9906445E-006  0.1695099E+04  0.7818608E-02  0.8764164E-01
         -2   -1    0    0    0  501 -0.00000000000E+00  0.00000000000E+00  0.28476616656E+03  0.28476616656E+03  0.00000000000E+00 0. -1.
          2   -1    0    0  501    0  0.00000000000E+00 -0.00000000000E+00 -0.25225624372E+04  0.25225624372E+04  0.00000000000E+00 0.  1.
         23    2    1    2    0    0 -0.44352371067E+03 -0.49043332236E+03 -0.25072965377E+03  0.71312902743E+03  0.91921297171E+02 0.  0.
         13    1    3    3    0    0 -0.33196933057E+03 -0.40706579837E+03 -0.22536905271E+03  0.57157450132E+03  0.00000000000E+00 0.  1.
        -13    1    3    3    0    0 -0.11155438009E+03 -0.83367523996E+02 -0.25360601058E+02  0.14155452610E+03  0.00000000000E+00 0. -1.
         22    1    1    2    0    0  0.44352371067E+03  0.49043332236E+03 -0.19870666169E+04  0.20941995764E+04  0.00000000000E+00 0.  1.
<mgrwt>
<rscale>  0 0.16950993E+04</rscale>
<asrwt>0</asrwt>
<pdfrwt beam="1">  1        2 0.38808652E+00 0.16950993E+04</pdfrwt>
<pdfrwt beam="2">  1       -2 0.43810181E-01 0.16950993E+04</pdfrwt>
<totfact> 0.15913620E+01</totfact>
</mgrwt>
</event>
<event>
 6    1  0.9906445E-006  0.2802875E+04  0.7818608E-02  0.8302376E-01
          2   -1    0    0  501    0  0.00000000000E+00  0.00000000000E+00  0.27209106573E+04  0.27209106573E+04  0.00000000000E+00 0. -1.
         -2   -1    0    0    0  501 -0.00000000000E+00 -0.00000000000E+00 -0.72182685226E+03  0.72182685226E+03  0.00000000000E+00 0.  1.
         23    2    1    2    0    0 -0.48296927966E+03 -0.97840096188E+03 -0.76568614762E+02  0.10977725343E+04  0.93348899255E+02 0.  0.
         11    1    3    3    0    0 -0.41386433760E+03 -0.75267149750E+03 -0.54713808096E+02  0.86069255480E+03  0.00000000000E+00 0. -1.
        -11    1    3    3    0    0 -0.69104942058E+02 -0.22572946438E+03 -0.21854806666E+02  0.23707997950E+03  0.00000000000E+00 0.  1.
         22    1    1    2    0    0  0.48296927966E+03  0.97840096188E+03  0.20756524198E+04  0.23449649752E+04  0.00000000000E+00 0. -1.
<mgrwt>
<rscale>  0 0.28028745E+04</rscale>
<asrwt>0</asrwt>
<pdfrwt beam="1">  1        2 0.41860164E+00 0.28028745E+04</pdfrwt>
<pdfrwt beam="2">  1       -2 0.11105029E+00 0.28028745E+04</pdfrwt>
<totfact> 0.14406898E+00</totfact>
</mgrwt>
</event>
<event>
 6    1  0.9906445E-006  0.2919111E+04  0.7818608E-02  0.8267214E-01
          2   -1    0    0  501    0  0.00000000000E+00  0.00000000000E+00  0.61551866969E+03  0.61551866969E+03  0.00000000000E+00 0. -1.
         -2   -1    0    0    0  501 -0.00000000000E+00 -0.00000000000E+00 -0.34609882187E+04  0.34609882187E+04  0.00000000000E+00 0.  1.
         23    2    1    2    0    0  0.12170474082E+03  0.25734263773E+03 -0.34212272523E+04  0.34342186275E+04  0.89578971830E+02 0.  0.
         13    1    3    3    0    0  0.73692087388E+02  0.22630413236E+03 -0.29371584295E+04  0.29467853203E+04  0.00000000000E+00 0. -1.
        -13    1    3    3    0    0  0.48012653429E+02  0.31038505369E+02 -0.48406882284E+03  0.48743330718E+03  0.00000000000E+00 0.  1.
         22    1    1    2    0    0 -0.12170474082E+03 -0.25734263773E+03  0.57575770334E+03  0.64228826089E+03  0.00000000000E+00 0. -1.
<mgrwt>
<rscale>  0 0.29191114E+04</rscale>
<asrwt>0</asrwt>
<pdfrwt beam="1">  1        2 0.94695182E-01 0.29191114E+04</pdfrwt>
<pdfrwt beam="2">  1       -2 0.53245971E+00 0.29191114E+04</pdfrwt>
<totfact> 0.43653873E-02</totfact>
</mgrwt>
</event>
<event>
 6    1  0.9906445E-006  0.1143668E+04  0.7818608E-02  0.9163645E-01
          2   -1    0    0  501    0  0.00000000000E+00  0.00000000000E+00  0.77816103869E+03  0.77816103869E+03  0.00000000000E+00 0. -1.
         -2   -1    0    0    0  501 -0.00000000000E+00 -0.00000000000E+00 -0.42021425872E+03  0.42021425872E+03  0.00000000000E+00 0.  1.
         23    2    1    2    0    0 -0.50094720031E+03  0.12369218361E+03 -0.69326511835E+02  0.52844222637E+03  0.90538210607E+02 0.  0.
         11    1    3    3    0    0 -0.25732144308E+03  0.84758425402E+02  0.43596449931E+01  0.27095631059E+03  0.00000000000E+00 0.  1.
        -11    1    3    3    0    0 -0.24362575723E+03  0.38933758204E+02 -0.73686156828E+02  0.25748591577E+03  0.00000000000E+00 0. -1.
         22    1    1    2    0    0  0.50094720031E+03 -0.12369218361E+03  0.42727329180E+03  0.66993307104E+03  0.00000000000E+00 0. -1.
<mgrwt>
<rscale>  0 0.11436684E+04</rscale>
<asrwt>0</asrwt>
<pdfrwt beam="1">  1        2 0.11971708E+00 0.11436684E+04</pdfrwt>
<pdfrwt beam="2">  1       -2 0.64648347E-01 0.11436684E+04</pdfrwt>
<totfact> 0.78192687E+01</totfact>
</mgrwt>
</event>
<event>
 6    1  0.9906445E-006  0.9832320E+03  0.7818608E-02  0.9327129E-01
         -2   -1    0    0    0  501 -0.00000000000E+00  0.00000000000E+00  0.23975380078E+03  0.23975380078E+03  0.00000000000E+00 0.  1.
          2   -1    0    0  501    0  0.00000000000E+00 -0.00000000000E+00 -0.10080603029E+04  0.10080603029E+04  0.00000000000E+00 0. -1.
         23    2    1    2    0    0 -0.22876940263E+03  0.17708957389E+03 -0.88634363143E+03  0.93535783371E+03  0.74786946399E+02 0.  0.
         13    1    3    3    0    0 -0.19679526859E+03  0.11348380141E+03 -0.69607427791E+03  0.73220649498E+03  0.00000000000E+00 0. -1.
        -13    1    3    3    0    0 -0.31974134034E+02  0.63605772476E+02 -0.19026935351E+03  0.20315133873E+03  0.00000000000E+00 0.  1.
         22    1    1    2    0    0  0.22876940263E+03 -0.17708957389E+03  0.11803712930E+03  0.31245626998E+03  0.00000000000E+00 0.  1.
<mgrwt>
<rscale>  0 0.98323200E+03</rscale>
<asrwt>0</asrwt>
<pdfrwt beam="1">  1        2 0.15508620E+00 0.98323200E+03</pdfrwt>
<pdfrwt beam="2">  1       -2 0.36885200E-01 0.98323200E+03</pdfrwt>
<totfact> 0.17203705E+02</totfact>
</mgrwt>
</event>
<event>
 6    1  0.1170158E-005  0.2533145E+04  0.7818608E-02  0.8391272E-01
          1   -1    0    0  501    0  0.00000000000E+00  0.00000000000E+00  0.17383744224E+04  0.17383744224E+04  0.00000000000E+00 0. -1.
         -1   -1    0    0    0  501 -0.00000000000E+00 -0.00000000000E+00 -0.92281957409E+03  0.92281957409E+03  0.00000000000E+00 0.  1.
         23    2    1    2    0    0 -0.20845295892E+03  0.30813089883E+03 -0.86177290809E+03  0.94310619627E+03  0.91648597516E+02 0.  0.
         13    1    3    3    0    0 -0.52213753815E+02  0.10907511196E+03 -0.38207916648E+03  0.40075946101E+03  0.00000000000E+00 0. -1.
        -13    1    3    3    0    0 -0.15623920510E+03  0.19905578688E+03 -0.47969374161E+03  0.54234673525E+03  0.00000000000E+00 0.  1.
         22    1    1    2    0    0  0.20845295892E+03 -0.30813089883E+03  0.16773277564E+04  0.17180878002E+04  0.00000000000E+00 0. -1.
<mgrwt>
<rscale>  0 0.25331450E+04</rscale>
<asrwt>0</asrwt>
<pdfrwt beam="1">  1        1 0.26744222E+00 0.25331450E+04</pdfrwt>
<pdfrwt beam="2">  1       -1 0.14197224E+00 0.25331450E+04</pdfrwt>
<totfact> 0.16059914E+00</totfact>
</mgrwt>
</event>
<event>
 6    1  0.9906445E-006  0.3422922E+04  0.7818608E-02  0.8132303E-01
          1   -1    0    0  501    0  0.00000000000E+00  0.00000000000E+00  0.13542670337E+04  0.13542670337E+04  0.00000000000E+00 0. -1.
         -1   -1    0    0    0  501 -0.00000000000E+00 -0.00000000000E+00 -0.21628665794E+04  0.21628665794E+04  0.00000000000E+00 0.  1.
         23    2    1    2    0    0  0.60845768087E+03 -0.14429788894E+04  0.30178485011E+03  0.15974038584E+04  0.90643071043E+02 0.  0.
         13    1    3    3    0    0  0.93671221473E+02 -0.24218535944E+03  0.83797352467E+02  0.27285535058E+03  0.00000000000E+00 0. -1.
        -13    1    3    3    0    0  0.51478645940E+03 -0.12007935300E+04  0.21798749765E+03  0.13245485078E+04  0.00000000000E+00 0.  1.
         22    1    1    2    0    0 -0.60845768087E+03  0.14429788894E+04 -0.11103843958E+04  0.19197297547E+04  0.00000000000E+00 0.  1.
<mgrwt>
<rscale>  0 0.34229221E+04</rscale>
<asrwt>0</asrwt>
<pdfrwt beam="1">  1        1 0.20834878E+00 0.34229221E+04</pdfrwt>
<pdfrwt beam="2">  1       -1 0.33274870E+00 0.34229221E+04</pdfrwt>
<totfact> 0.13718469E-01</totfact>
</mgrwt>
</event>
<event>
 6    1  0.9906445E-006  0.1999294E+04  0.7818608E-02  0.8606951E-01
         -2   -1    0    0    0  501 -0.00000000000E+00  0.00000000000E+00  0.52094258833E+03  0.52094258833E+03  0.00000000000E+00 0.  1.
          2   -1    0    0  501    0  0.00000000000E+00 -0.00000000000E+00 -0.19182414439E+04  0.19182414439E+04  0.00000000000E+00 0. -1.
         23    2    1    2    0    0  0.19465740964E+03  0.17578828290E+03 -0.18742635025E+04  0.18948603216E+04  0.94015605402E+02 0.  0.
         13    1    3    3    0    0  0.96698778301E+02  0.14253737908E+03 -0.10331884169E+04  0.10474473079E+04  0.00000000000E+00 0.  1.
        -13    1    3    3    0    0  0.97958631338E+02  0.33250903813E+02 -0.84107508563E+03  0.84741301366E+03  0.00000000000E+00 0. -1.
         22    1    1    2    0    0 -0.19465740964E+03 -0.17578828290E+03  0.47696464693E+03  0.54432371063E+03  0.00000000000E+00 0.  1.
<mgrwt>
<rscale>  0 0.19992935E+04</rscale>
<asrwt>0</asrwt>
<pdfrwt beam="1">  1        2 0.29511407E+00 0.19992935E+04</pdfrwt>
<pdfrwt beam="2">  1       -2 0.80145013E-01 0.19992935E+04</pdfrwt>
<totfact> 0.94879345E+00</totfact>
</mgrwt>
</event>
<event>
 6    1  0.9906445E-006  0.3423446E+04  0.7818608E-02  0.8132176E-01
         -1   -1    0    0    0  501 -0.00000000000E+00  0.00000000000E+00  0.76642459112E+03  0.76642459112E+03  0.00000000000E+00 0.  1.
          1   -1    0    0  501    0  0.00000000000E+00 -0.00000000000E+00 -0.38229407847E+04  0.38229407847E+04  0.00000000000E+00 0. -1.
         23    2    1    2    0    0 -0.16217400056E+04  0.16105722478E+03 -0.83282638189E+03  0.18324148042E+04  0.90355724879E+02 0.  0.
         11    1    3    3    0    0 -0.11419664901E+04  0.12926437488E+03 -0.62946587678E+03  0.13103526369E+04  0.00000000000E+00 0. -1.
        -11    1    3    3    0    0 -0.47977351555E+03  0.31792849898E+02 -0.20336050511E+03  0.52206216734E+03  0.00000000000E+00 0.  1.
         22    1    1    2    0    0  0.16217400056E+04 -0.16105722478E+03 -0.22236898117E+04  0.27569505715E+04  0.00000000000E+00 0. -1.
<mgrwt>
<rscale>  0 0.34234461E+04</rscale>
<asrwt>0</asrwt>
<pdfrwt beam="1">  1        1 0.58814472E+00 0.34234461E+04</pdfrwt>
<pdfrwt beam="2">  1       -1 0.11791148E+00 0.34234461E+04</pdfrwt>
<totfact> 0.72192505E-02</totfact>
</mgrwt>
</event>
<event>
 6    1  0.9906445E-006  0.4711104E+04  0.7818608E-02  0.7874686E-01
          2   -1    0    0  501    0  0.00000000000E+00  0.00000000000E+00  0.18138482753E+04  0.18138482753E+04  0.00000000000E+00 0. -1.
         -2   -1    0    0    0  501 -0.00000000000E+00 -0.00000000000E+00 -0.30590348885E+04  0.30590348885E+04  0.00000000000E+00 0.  1.
         23    2    1    2    0    0  0.23166859692E+04 -0.11356592663E+03 -0.10423345011E+04  0.25445618632E+04  0.91666590867E+02 0.  0.
         13    1    3    3    0    0  0.67674291045E+03 -0.58067852964E+02 -0.26865375876E+03  0.73042979436E+03  0.00000000000E+00 0. -1.
        -13    1    3    3    0    0  0.16399430588E+04 -0.55498073670E+02 -0.77368074233E+03  0.18141320688E+04  0.00000000000E+00 0.  1.
         22    1    1    2    0    0 -0.23166859692E+04  0.11356592663E+03 -0.20285211209E+03  0.23283213006E+04  0.00000000000E+00 0.  1.
<mgrwt>
<rscale>  0 0.47111040E+04</rscale>
<asrwt>0</asrwt>
<pdfrwt beam="1">  1        2 0.27905358E+00 0.47111040E+04</pdfrwt>
<pdfrwt beam="2">  1       -2 0.47062075E+00 0.47111040E+04</pdfrwt>
<totfact> 0.16091018E-02</totfact>
</mgrwt>
</event>
<event>
 6    1  0.9906445E-006  0.2122877E+04  0.7818608E-02  0.8551232E-01
         -1   -1    0    0    0  501 -0.00000000000E+00  0.00000000000E+00  0.61871851038E+03  0.61871851038E+03  0.00000000000E+00 0.  1.
          1   -1    0    0  501    0  0.00000000000E+00 -0.00000000000E+00 -0.18209446544E+04  0.18209446544E+04  0.00000000000E+00 0. -1.
         23    2    1    2    0    0 -0.83841314921E+03 -0.46541084560E+03 -0.11201673021E+04  0.14772300412E+04  0.88825366433E+02 0.  0.
         13    1    3    3    0    0 -0.38718787711E+03 -0.26241478585E+03 -0.52023496831E+03  0.69958587340E+03  0.00000000000E+00 0. -1.
        -13    1    3    3    0    0 -0.45122527210E+03 -0.20299605975E+03 -0.59993233383E+03  0.77764416775E+03  0.00000000000E+00 0.  1.
         22    1    1    2    0    0  0.83841314921E+03  0.46541084560E+03 -0.82058841895E+02  0.96243312365E+03  0.00000000000E+00 0. -1.
<mgrwt>
<rscale>  0 0.21228774E+04</rscale>
<asrwt>0</asrwt>
<pdfrwt beam="1">  1        1 0.28014533E+00 0.21228774E+04</pdfrwt>
<pdfrwt beam="2">  1       -1 0.95187463E-01 0.21228774E+04</pdfrwt>
<totfact> 0.38571546E+00</totfact>
</mgrwt>
</event>
<event>
 6    1  0.9906445E-006  0.5523968E+04  0.7818608E-02  0.7752400E-01
          2   -1    0    0  501    0  0.00000000000E+00  0.00000000000E+00  0.28697892757E+04  0.28697892757E+04  0.00000000000E+00 0.  1.
         -2   -1    0    0    0  501 -0.00000000000E+00 -0.00000000000E+00 -0.26582281177E+04  0.26582281177E+04  0.00000000000E+00 0. -1.
         23    2    1    2    0    0 -0.13883257701E+04  0.77029857970E+03  0.23665926724E+04  0.28512713886E+04  0.90439529073E+02 0.  0.
         11    1    3    3    0    0 -0.45441254466E+03  0.25597892434E+03  0.85464133531E+03  0.10012131554E+04  0.00000000000E+00 0.  1.
        -11    1    3    3    0    0 -0.93391322540E+03  0.51431965536E+03  0.15119513371E+04  0.18500582332E+04  0.00000000000E+00 0. -1.
         22    1    1    2    0    0  0.13883257701E+04 -0.77029857970E+03 -0.21550315145E+04  0.26767460048E+04  0.00000000000E+00 0. -1.
<mgrwt>
<rscale>  0 0.55239676E+04</rscale>
<asrwt>0</asrwt>
<pdfrwt beam="1">  1        2 0.44150604E+00 0.55239676E+04</pdfrwt>
<pdfrwt beam="2">  1       -2 0.40895817E+00 0.55239676E+04</pdfrwt>
<totfact> 0.95061574E-03</totfact>
</mgrwt>
</event>
<event>
 6    1  0.9906445E-006  0.3395958E+04  0.7818608E-02  0.8138899E-01
          1   -1    0    0  501    0  0.00000000000E+00  0.00000000000E+00  0.24796780032E+04  0.24796780032E+04  0.00000000000E+00 0. -1.
         -1   -1    0    0    0  501 -0.00000000000E+00 -0.00000000000E+00 -0.11627047427E+04  0.11627047427E+04  0.00000000000E+00 0.  1.
         23    2    1    2    0    0 -0.14179494152E+04  0.84830966144E+03  0.10723920915E+04  0.19720445245E+04  0.93407615742E+02 0.  0.
         13    1    3    3    0    0 -0.11967652638E+04  0.72237632086E+03  0.86636025612E+03  0.16445834546E+04  0.00000000000E+00 0.  1.
        -13    1    3    3    0    0 -0.22118415139E+03  0.12593334058E+03  0.20603183542E+03  0.32746106990E+03  0.00000000000E+00 0. -1.
         22    1    1    2    0    0  0.14179494152E+04 -0.84830966144E+03  0.24458116903E+03  0.16703382215E+04  0.00000000000E+00 0.  1.
<mgrwt>
<rscale>  0 0.33959584E+04</rscale>
<asrwt>0</asrwt>
<pdfrwt beam="1">  1        1 0.38148892E+00 0.33959584E+04</pdfrwt>
<pdfrwt beam="2">  1       -1 0.17887765E+00 0.33959584E+04</pdfrwt>
<totfact> 0.24413514E-01</totfact>
</mgrwt>
</event>
<event>
 6    1  0.9906445E-006  0.5462324E+04  0.7818608E-02  0.7760895E-01
         -2   -1    0    0    0  501 -0.00000000000E+00  0.00000000000E+00  0.44814454043E+04  0.44814454043E+04  0.00000000000E+00 0.  1.
          2   -1    0    0  501    0  0.00000000000E+00 -0.00000000000E+00 -0.16644733466E+04  0.16644733466E+04  0.00000000000E+00 0. -1.
         23    2    1    2    0    0 -0.16713893108E+04  0.28011115645E+03  0.38173565612E+04  0.41779823588E+04  0.10640012900E+03 0.  0.
         13    1    3    3    0    0 -0.73848781038E+03  0.71648158400E+02  0.16387605632E+04  0.17988979649E+04  0.00000000000E+00 0. -1.
        -13    1    3    3    0    0 -0.93290150046E+03  0.20846299805E+03  0.21785959980E+04  0.23790843939E+04  0.00000000000E+00 0.  1.
         22    1    1    2    0    0  0.16713893108E+04 -0.28011115645E+03 -0.10003845035E+04  0.19679363921E+04  0.00000000000E+00 0. -1.
<mgrwt>
<rscale>  0 0.54623242E+04</rscale>
<asrwt>0</asrwt>
<pdfrwt beam="1">  1        2 0.25607282E+00 0.54623242E+04</pdfrwt>
<pdfrwt beam="2">  1       -2 0.68945313E+00 0.54623242E+04</pdfrwt>
<totfact> 0.18093746E-03</totfact>
</mgrwt>
</event>
<event>
 6    1  0.9906445E-006  0.2123987E+04  0.7818608E-02  0.8550750E-01
         -1   -1    0    0    0  501 -0.00000000000E+00  0.00000000000E+00  0.39466016867E+03  0.39466016867E+03  0.00000000000E+00 0.  1.
          1   -1    0    0  501    0  0.00000000000E+00 -0.00000000000E+00 -0.28577253044E+04  0.28577253044E+04  0.00000000000E+00 0. -1.
         23    2    1    2    0    0 -0.34184706322E+03  0.19014755839E+03 -0.27424370368E+04  0.27716941296E+04  0.91169834316E+02 0.  0.
         11    1    3    3    0    0 -0.15474620564E+03  0.11089978615E+03 -0.10518897467E+04  0.10689795087E+04  0.00000000000E+00 0. -1.
        -11    1    3    3    0    0 -0.18710085759E+03  0.79247772243E+02 -0.16905472901E+04  0.17027146209E+04  0.00000000000E+00 0.  1.
         22    1    1    2    0    0  0.34184706322E+03 -0.19014755839E+03  0.27937190105E+03  0.48069134348E+03  0.00000000000E+00 0.  1.
<mgrwt>
<rscale>  0 0.21239871E+04</rscale>
<asrwt>0</asrwt>
<pdfrwt beam="1">  1        1 0.43965005E+00 0.21239871E+04</pdfrwt>
<pdfrwt beam="2">  1       -1 0.60716948E-01 0.21239871E+04</pdfrwt>
<totfact> 0.19147632E+00</totfact>
</mgrwt>
</event>
<event>
 6    1  0.9906445E-006  0.2899906E+04  0.7818608E-02  0.8272905E-01
          1   -1    0    0  501    0  0.00000000000E+00  0.00000000000E+00  0.12422936987E+04  0.12422936987E+04  0.00000000000E+00 0. -1.
         -1   -1    0    0    0  501 -0.00000000000E+00 -0.00000000000E+00 -0.16923241591E+04  0.16923241591E+04  0.00000000000E+00 0.  1.
         23    2    1    2    0    0 -0.99813662095E+02 -0.14436820117E+04 -0.28888220251E+03  0.14785446183E+04  0.91982298952E+02 0.  0.
         11    1    3    3    0    0  0.17231703862E+02 -0.23248699410E+03 -0.40518735201E+02  0.23661974125E+03  0.00000000000E+00 0. -1.
        -11    1    3    3    0    0 -0.11704536596E+03 -0.12111950176E+04 -0.24836346731E+03  0.12419248770E+04  0.00000000000E+00 0.  1.
         22    1    1    2    0    0  0.99813662095E+02  0.14436820117E+04 -0.16114825791E+03  0.14560732396E+04  0.00000000000E+00 0.  1.
<mgrwt>
<rscale>  0 0.28999060E+04</rscale>
<asrwt>0</asrwt>
<pdfrwt beam="1">  1        1 0.19112211E+00 0.28999060E+04</pdfrwt>
<pdfrwt beam="2">  1       -1 0.26035756E+00 0.28999060E+04</pdfrwt>
<totfact> 0.50989881E-01</totfact>
</mgrwt>
</event>
<event>
 6    1  0.9906445E-006  0.4138931E+04  0.7818608E-02  0.7977091E-01
          1   -1    0    0  501    0  0.00000000000E+00  0.00000000000E+00  0.25843258869E+04  0.25843258869E+04  0.00000000000E+00 0. -1.
         -1   -1    0    0    0  501 -0.00000000000E+00 -0.00000000000E+00 -0.16571781348E+04  0.16571781348E+04  0.00000000000E+00 0.  1.
         23    2    1    2    0    0 -0.34098166844E+03 -0.15217445882E+04 -0.92867693319E+03  0.18174453688E+04  0.93229461665E+02 0.  0.
         11    1    3    3    0    0 -0.30776052602E+02 -0.28149344596E+03 -0.18862721061E+03  0.34024395676E+03  0.00000000000E+00 0.  1.
        -11    1    3    3    0    0 -0.31020561584E+03 -0.12402511422E+04 -0.74004972258E+03  0.14772014120E+04  0.00000000000E+00 0. -1.
         22    1    1    2    0    0  0.34098166844E+03  0.15217445882E+04  0.18558246853E+04  0.24240586528E+04  0.00000000000E+00 0. -1.
<mgrwt>
<rscale>  0 0.41389314E+04</rscale>
<asrwt>0</asrwt>
<pdfrwt beam="1">  1        1 0.39758860E+00 0.41389314E+04</pdfrwt>
<pdfrwt beam="2">  1       -1 0.25495048E+00 0.41389314E+04</pdfrwt>
<totfact> 0.59263795E-02</totfact>
</mgrwt>
</event>
<event>
 6    1  0.9906445E-006  0.4792054E+04  0.7818608E-02  0.7861411E-01
         -1   -1    0    0    0  501 -0.00000000000E+00  0.00000000000E+00  0.14960884840E+04  0.14960884840E+04  0.00000000000E+00 0.  1.
          1   -1    0    0  501    0  0.00000000000E+00 -0.00000000000E+00 -0.38373027254E+04  0.38373027254E+04  0.00000000000E+00 0. -1.
         23    2    1    2    0    0  0.19477697548E+04 -0.67816442196E+03  0.18442624921E+03  0.20726284323E+04  0.89786279751E+02 0.  0.
         13    1    3    3    0    0  0.95219095470E+03 -0.29612664003E+03  0.59082990056E+02  0.99892412167E+03  0.00000000000E+00 0. -1.
        -13    1    3    3    0    0  0.99557880013E+03 -0.38203778193E+03  0.12534325915E+03  0.10737043106E+04  0.00000000000E+00 0.  1.
         22    1    1    2    0    0 -0.19477697548E+04  0.67816442196E+03 -0.25256404906E+04  0.32607627771E+04  0.00000000000E+00 0. -1.
<mgrwt>
<rscale>  0 0.47920536E+04</rscale>
<asrwt>0</asrwt>
<pdfrwt beam="1">  1        1 0.59035426E+00 0.47920536E+04</pdfrwt>
<pdfrwt beam="2">  1       -1 0.23016746E+00 0.47920536E+04</pdfrwt>
<totfact> 0.91374174E-03</totfact>
</mgrwt>
</event>
<event>
 6    1  0.9906445E-006  0.2050830E+04  0.7818608E-02  0.8583218E-01
         -1   -1    0    0    0  501 -0.00000000000E+00  0.00000000000E+00  0.41905204365E+03  0.41905204365E+03  0.00000000000E+00 0. -1.
          1   -1    0    0  501    0  0.00000000000E+00 -0.00000000000E+00 -0.25091772620E+04  0.25091772620E+04  0.00000000000E+00 0.  1.
         23    2    1    2    0    0 -0.30003899677E+03 -0.93996065067E+03 -0.14351242446E+04  0.17439254173E+04  0.90248763312E+02 0.  0.
         13    1    3    3    0    0 -0.11481272758E+03 -0.24714929947E+03 -0.35847786265E+03  0.45030113996E+03  0.00000000000E+00 0.  1.
        -13    1    3    3    0    0 -0.18522626919E+03 -0.69281135120E+03 -0.10766463819E+04  0.12936242773E+04  0.00000000000E+00 0. -1.
         22    1    1    2    0    0  0.30003899677E+03  0.93996065067E+03 -0.65500097381E+03  0.11843038884E+04  0.00000000000E+00 0. -1.
<mgrwt>
<rscale>  0 0.20508299E+04</rscale>
<asrwt>0</asrwt>
<pdfrwt beam="1">  1        1 0.38602728E+00 0.20508299E+04</pdfrwt>
<pdfrwt beam="2">  1       -1 0.64469544E-01 0.20508299E+04</pdfrwt>
<totfact> 0.30092729E+00</totfact>
</mgrwt>
</event>
<event>
 6    1  0.9906445E-006  0.2063506E+04  0.7818608E-02  0.8577492E-01
          1   -1    0    0  501    0  0.00000000000E+00  0.00000000000E+00  0.11037801932E+04  0.11037801932E+04  0.00000000000E+00 0. -1.
         -1   -1    0    0    0  501 -0.00000000000E+00 -0.00000000000E+00 -0.96442573275E+03  0.96442573275E+03  0.00000000000E+00 0.  1.
         23    2    1    2    0    0 -0.46489292478E+03  0.25134726230E+03 -0.81591548546E+03  0.97649096895E+03  0.92280308077E+02 0.  0.
         13    1    3    3    0    0 -0.31167782748E+03  0.15418973787E+03 -0.60916638705E+03  0.70142799382E+03  0.00000000000E+00 0. -1.
        -13    1    3    3    0    0 -0.15321509730E+03  0.97157524432E+02 -0.20674909841E+03  0.27506297513E+03  0.00000000000E+00 0.  1.
         22    1    1    2    0    0  0.46489292478E+03 -0.25134726230E+03  0.95526994590E+03  0.10917149570E+04  0.00000000000E+00 0. -1.
<mgrwt>
<rscale>  0 0.20635058E+04</rscale>
<asrwt>0</asrwt>
<pdfrwt beam="1">  1        1 0.16981234E+00 0.20635058E+04</pdfrwt>
<pdfrwt beam="2">  1       -1 0.14837319E+00 0.20635058E+04</pdfrwt>
<totfact> 0.41756886E+00</totfact>
</mgrwt>
</event>
<event>
 6    1  0.9906445E-006  0.3132339E+04  0.7818608E-02  0.8206918E-01
          1   -1    0    0  501    0  0.00000000000E+00  0.00000000000E+00  0.19473912979E+04  0.19473912979E+04  0.00000000000E+00 0. -1.
         -1   -1    0    0    0  501 -0.00000000000E+00 -0.00000000000E+00 -0.12595760200E+04  0.12595760200E+04  0.00000000000E+00 0.  1.
         23    2    1    2    0    0 -0.56744422008E+03 -0.14021007774E+04  0.75480423023E+03  0.16929108287E+04  0.91313278573E+02 0.  0.
         11    1    3    3    0    0 -0.21982280884E+03 -0.52856572692E+03  0.23688302651E+03  0.61952995344E+03  0.00000000000E+00 0. -1.
        -11    1    3    3    0    0 -0.34762141124E+03 -0.87353505051E+03  0.51792120372E+03  0.10733808752E+04  0.00000000000E+00 0.  1.
         22    1    1    2    0    0  0.56744422008E+03  0.14021007774E+04 -0.66988952362E+02  0.15140564893E+04  0.00000000000E+00 0.  1.
<mgrwt>
<rscale>  0 0.31323393E+04</rscale>
<asrwt>0</asrwt>
<pdfrwt beam="1">  1        1 0.29959866E+00 0.31323393E+04</pdfrwt>
<pdfrwt beam="2">  1       -1 0.19378093E+00 0.31323393E+04</pdfrwt>
<totfact> 0.45262377E-01</totfact>
</mgrwt>
</event>
<event>
 6    1  0.9906445E-006  0.1644776E+04  0.7818608E-02  0.8793503E-01
          2   -1    0    0  501    0  0.00000000000E+00  0.00000000000E+00  0.11219667391E+04  0.11219667391E+04  0.00000000000E+00 0. -1.
         -2   -1    0    0    0  501 -0.00000000000E+00 -0.00000000000E+00 -0.60280051114E+03  0.60280051114E+03  0.00000000000E+00 0.  1.
         23    2    1    2    0    0  0.27645013382E+03  0.18182644440E+03  0.10470420282E+04  0.11017597120E+04  0.89955110474E+02 0.  0.
         13    1    3    3    0    0  0.68558368372E+02  0.12799165833E+02  0.14740855511E+03  0.16307467810E+03  0.00000000000E+00 0. -1.
        -13    1    3    3    0    0  0.20789176545E+03  0.16902727857E+03  0.89963347305E+03  0.93868503390E+03  0.00000000000E+00 0.  1.
         22    1    1    2    0    0 -0.27645013382E+03 -0.18182644440E+03 -0.52787580015E+03  0.62300753828E+03  0.00000000000E+00 0.  1.
<mgrwt>
<rscale>  0 0.16447761E+04</rscale>
<asrwt>0</asrwt>
<pdfrwt beam="1">  1        2 0.17261027E+00 0.16447761E+04</pdfrwt>
<pdfrwt beam="2">  1       -2 0.92738540E-01 0.16447761E+04</pdfrwt>
<totfact> 0.19900291E+01</totfact>
</mgrwt>
</event>
<event>
 6    1  0.9906445E-006  0.3654830E+04  0.7818608E-02  0.8078046E-01
          1   -1    0    0  501    0  0.00000000000E+00  0.00000000000E+00  0.26421776900E+04  0.26421776900E+04  0.00000000000E+00 0. -1.
         -1   -1    0    0    0  501 -0.00000000000E+00 -0.00000000000E+00 -0.12638992100E+04  0.12638992100E+04  0.00000000000E+00 0.  1.
         23    2    1    2    0    0  0.12758711915E+03 -0.17802066044E+04  0.27546137209E+03  0.18080731820E+04  0.88519130366E+02 0.  0.
         13    1    3    3    0    0  0.69133950783E+02 -0.11550394787E+04  0.13798031162E+03  0.11653043667E+04  0.00000000000E+00 0. -1.
        -13    1    3    3    0    0  0.58453168362E+02 -0.62516712570E+03  0.13748106047E+03  0.64276881531E+03  0.00000000000E+00 0.  1.
         22    1    1    2    0    0 -0.12758711915E+03  0.17802066044E+04  0.11028171078E+04  0.20980037180E+04  0.00000000000E+00 0.  1.
<mgrwt>
<rscale>  0 0.36548304E+04</rscale>
<asrwt>0</asrwt>
<pdfrwt beam="1">  1        1 0.40648888E+00 0.36548304E+04</pdfrwt>
<pdfrwt beam="2">  1       -1 0.19444603E+00 0.36548304E+04</pdfrwt>
<totfact> 0.14274507E-01</totfact>
</mgrwt>
</event>
<event>
 6    1  0.9906445E-006  0.4462951E+04  0.7818608E-02  0.7917155E-01
         -2   -1    0    0    0  501 -0.00000000000E+00  0.00000000000E+00  0.15183586543E+04  0.15183586543E+04  0.00000000000E+00 0.  1.
          2   -1    0    0  501    0  0.00000000000E+00 -0.00000000000E+00 -0.32795163898E+04  0.32795163898E+04  0.00000000000E+00 0. -1.
         23    2    1    2    0    0 -0.99476801333E+03 -0.63920750392E+03  0.11524056853E+04  0.16535147848E+04  0.89009250724E+02 0.  0.
         13    1    3    3    0    0 -0.36930885476E+03 -0.20182886631E+03  0.36768804652E+03  0.55885456161E+03  0.00000000000E+00 0. -1.
        -13    1    3    3    0    0 -0.62545915856E+03 -0.43737863760E+03  0.78471763874E+03  0.10946602232E+04  0.00000000000E+00 0.  1.
         22    1    1    2    0    0  0.99476801333E+03  0.63920750392E+03 -0.29135634208E+04  0.31443602593E+04  0.00000000000E+00 0. -1.
<mgrwt>
<rscale>  0 0.44629506E+04</rscale>
<asrwt>0</asrwt>
<pdfrwt beam="1">  1        2 0.50454098E+00 0.44629506E+04</pdfrwt>
<pdfrwt beam="2">  1       -2 0.23359364E+00 0.44629506E+04</pdfrwt>
<totfact> 0.70835804E-02</totfact>
</mgrwt>
</event>
<event>
 6    1  0.9906445E-006  0.3591386E+04  0.7818608E-02  0.8092468E-01
          2   -1    0    0  501    0  0.00000000000E+00  0.00000000000E+00  0.18435149758E+04  0.18435149758E+04  0.00000000000E+00 0. -1.
         -2   -1    0    0    0  501 -0.00000000000E+00 -0.00000000000E+00 -0.17491112985E+04  0.17491112985E+04  0.00000000000E+00 0.  1.
         23    2    1    2    0    0 -0.15160363214E+04  0.35528022322E+03 -0.84502570978E+03  0.17740780241E+04  0.93242805027E+02 0.  0.
         13    1    3    3    0    0 -0.33189198431E+03  0.10113091895E+03 -0.15296232587E+03  0.37917967397E+03  0.00000000000E+00 0.  1.
        -13    1    3    3    0    0 -0.11841443371E+04  0.25414930427E+03 -0.69206338391E+03  0.13948983502E+04  0.00000000000E+00 0. -1.
         22    1    1    2    0    0  0.15160363214E+04 -0.35528022322E+03  0.93942938710E+03  0.18185482502E+04  0.00000000000E+00 0. -1.
<mgrwt>
<rscale>  0 0.35913857E+04</rscale>
<asrwt>0</asrwt>
<pdfrwt beam="1">  1        2 0.28361769E+00 0.35913857E+04</pdfrwt>
<pdfrwt beam="2">  1       -2 0.26909405E+00 0.35913857E+04</pdfrwt>
<totfact> 0.32679093E-01</totfact>
</mgrwt>
</event>
<event>
 6    1  0.9906445E-006  0.6448018E+03  0.7818608E-02  0.9816583E-01
         -2   -1    0    0    0  501 -0.00000000000E+00  0.00000000000E+00  0.55744731268E+02  0.55744731268E+02  0.00000000000E+00 0.  1.
          2   -1    0    0  501    0  0.00000000000E+00 -0.00000000000E+00 -0.18646125377E+04  0.18646125377E+04  0.00000000000E+00 0. -1.
         23    2    1    2    0    0  0.21387994405E+03  0.21976326540E+03 -0.11498947606E+04  0.11935244144E+04  0.90565137410E+02 0.  0.
         13    1    3    3    0    0  0.10613609802E+03  0.46852011390E+02 -0.41436105583E+03  0.43029648717E+03  0.00000000000E+00 0. -1.
        -13    1    3    3    0    0  0.10774384603E+03  0.17291125401E+03 -0.73553370478E+03  0.76322792728E+03  0.00000000000E+00 0.  1.
         22    1    1    2    0    0 -0.21387994405E+03 -0.21976326540E+03 -0.65897304579E+03  0.72683285449E+03  0.00000000000E+00 0. -1.
<mgrwt>
<rscale>  0 0.64480175E+03</rscale>
<asrwt>0</asrwt>
<pdfrwt beam="1">  1        2 0.28686345E+00 0.64480175E+03</pdfrwt>
<pdfrwt beam="2">  1       -2 0.85761130E-02 0.64480175E+03</pdfrwt>
<totfact> 0.71793515E+02</totfact>
</mgrwt>
</event>
<event>
 6    1  0.9906445E-006  0.6427073E+03  0.7818608E-02  0.9820560E-01
          1   -1    0    0  501    0  0.00000000000E+00  0.00000000000E+00  0.19317202895E+04  0.19317202895E+04  0.00000000000E+00 0. -1.
         -1   -1    0    0    0  501 -0.00000000000E+00 -0.00000000000E+00 -0.53459178591E+02  0.53459178591E+02  0.00000000000E+00 0.  1.
         23    2    1    2    0    0  0.84193420040E+02  0.13553539292E+03  0.17964921023E+04  0.18058904682E+04  0.91641337320E+02 0.  0.
         13    1    3    3    0    0 -0.51323769804E+01 -0.11102511961E+02  0.10784300911E+03  0.10853442624E+03  0.00000000000E+00 0. -1.
        -13    1    3    3    0    0  0.89325797020E+02  0.14663790488E+03  0.16886490932E+04  0.16973560419E+04  0.00000000000E+00 0.  1.
         22    1    1    2    0    0 -0.84193420040E+02 -0.13553539292E+03  0.81769008553E+02  0.17928899986E+03  0.00000000000E+00 0.  1.
<mgrwt>
<rscale>  0 0.64270734E+03</rscale>
<asrwt>0</asrwt>
<pdfrwt beam="1">  1        1 0.29718768E+00 0.64270734E+03</pdfrwt>
<pdfrwt beam="2">  1       -1 0.82244905E-02 0.64270734E+03</pdfrwt>
<totfact> 0.29501900E+02</totfact>
</mgrwt>
</event>
<event>
 6    1  0.9906445E-006  0.1561916E+04  0.7818608E-02  0.8844292E-01
          2   -1    0    0  501    0  0.00000000000E+00  0.00000000000E+00  0.44027511867E+04  0.44027511867E+04  0.00000000000E+00 0. -1.
         -2   -1    0    0    0  501 -0.00000000000E+00 -0.00000000000E+00 -0.13852606091E+03  0.13852606091E+03  0.00000000000E+00 0.  1.
         23    2    1    2    0    0  0.56187197543E+03  0.38863398895E+03  0.32233613408E+04  0.32962335082E+04  0.91435840842E+02 0.  0.
         11    1    3    3    0    0  0.26592849674E+03  0.14608110679E+03  0.12691854709E+04  0.13049480506E+04  0.00000000000E+00 0. -1.
        -11    1    3    3    0    0  0.29594347869E+03  0.24255288216E+03  0.19541758699E+04  0.19912854576E+04  0.00000000000E+00 0.  1.
         22    1    1    2    0    0 -0.56187197543E+03 -0.38863398895E+03  0.10408637850E+04  0.12450437394E+04  0.00000000000E+00 0.  1.
<mgrwt>
<rscale>  0 0.15619165E+04</rscale>
<asrwt>0</asrwt>
<pdfrwt beam="1">  1        2 0.67734623E+00 0.15619165E+04</pdfrwt>
<pdfrwt beam="2">  1       -2 0.21311705E-01 0.15619165E+04</pdfrwt>
<totfact> 0.28889149E+00</totfact>
</mgrwt>
</event>
<event>
 6    1  0.9906445E-006  0.3694298E+04  0.7818608E-02  0.8069227E-01
          1   -1    0    0  501    0  0.00000000000E+00  0.00000000000E+00  0.43925028661E+04  0.43925028661E+04  0.00000000000E+00 0. -1.
         -1   -1    0    0    0  501 -0.00000000000E+00 -0.00000000000E+00 -0.77676895831E+03  0.77676895831E+03  0.00000000000E+00 0.  1.
         23    2    1    2    0    0  0.16892631627E+04 -0.59844985200E+03  0.24282714127E+04  0.30194301010E+04  0.93294280629E+02 0.  0.
         11    1    3    3    0    0  0.12230603904E+04 -0.47697310246E+03  0.17703741168E+04  0.22039974076E+04  0.00000000000E+00 0.  1.
        -11    1    3    3    0    0  0.46620277232E+03 -0.12147674953E+03  0.65789729587E+03  0.81543269343E+03  0.00000000000E+00 0. -1.
         22    1    1    2    0    0 -0.16892631627E+04  0.59844985200E+03  0.11874624951E+04  0.21498417234E+04  0.00000000000E+00 0.  1.
<mgrwt>
<rscale>  0 0.36942982E+04</rscale>
<asrwt>0</asrwt>
<pdfrwt beam="1">  1        1 0.67576966E+00 0.36942982E+04</pdfrwt>
<pdfrwt beam="2">  1       -1 0.11950292E+00 0.36942982E+04</pdfrwt>
<totfact> 0.20666471E-02</totfact>
</mgrwt>
</event>
<event>
 6    1  0.9906445E-006  0.1290422E+04  0.7818608E-02  0.9037195E-01
         -1   -1    0    0    0  501 -0.00000000000E+00  0.00000000000E+00  0.16267427780E+03  0.16267427780E+03  0.00000000000E+00 0.  1.
          1   -1    0    0  501    0  0.00000000000E+00 -0.00000000000E+00 -0.25590848488E+04  0.25590848488E+04  0.00000000000E+00 0. -1.
         23    2    1    2    0    0  0.29480093163E+03  0.42320759041E+03 -0.20105027526E+04  0.20776030134E+04  0.91108228381E+02 0.  0.
         11    1    3    3    0    0  0.18529790057E+03  0.27262170973E+03 -0.14495442351E+04  0.14865518484E+04  0.00000000000E+00 0.  1.
        -11    1    3    3    0    0  0.10950303106E+03  0.15058588068E+03 -0.56095851746E+03  0.59105116494E+03  0.00000000000E+00 0. -1.
         22    1    1    2    0    0 -0.29480093163E+03 -0.42320759041E+03 -0.38590781843E+03  0.64415611322E+03  0.00000000000E+00 0.  1.
<mgrwt>
<rscale>  0 0.12904221E+04</rscale>
<asrwt>0</asrwt>
<pdfrwt beam="1">  1        1 0.39370533E+00 0.12904221E+04</pdfrwt>
<pdfrwt beam="2">  1       -1 0.25026814E-01 0.12904221E+04</pdfrwt>
<totfact> 0.17031598E+01</totfact>
</mgrwt>
</event>
<event>
 6    1  0.9906445E-006  0.1639182E+04  0.7818608E-02  0.8796832E-01
         -1   -1    0    0    0  501 -0.00000000000E+00  0.00000000000E+00  0.95744108124E+03  0.95744108124E+03  0.00000000000E+00 0. -1.
          1   -1    0    0  501    0  0.00000000000E+00 -0.00000000000E+00 -0.70158844704E+03  0.70158844704E+03  0.00000000000E+00 0.  1.
         23    2    1    2    0    0 -0.14896330977E+03  0.77352357960E+03  0.34779210098E+03  0.86594588742E+03  0.91510319567E+02 0.  0.
         13    1    3    3    0    0 -0.49657591987E+02  0.48773861405E+03  0.22511182684E+03  0.53947211852E+03  0.00000000000E+00 0.  1.
        -13    1    3    3    0    0 -0.99305717785E+02  0.28578496555E+03  0.12268027414E+03  0.32647376890E+03  0.00000000000E+00 0. -1.
         22    1    1    2    0    0  0.14896330977E+03 -0.77352357960E+03 -0.91939466778E+02  0.79308364086E+03  0.00000000000E+00 0.  1.
<mgrwt>
<rscale>  0 0.16391822E+04</rscale>
<asrwt>0</asrwt>
<pdfrwt beam="1">  1        1 0.10793668E+00 0.16391822E+04</pdfrwt>
<pdfrwt beam="2">  1       -1 0.14729863E+00 0.16391822E+04</pdfrwt>
<totfact> 0.95147402E+00</totfact>
</mgrwt>
</event>
<event>
 6    1  0.9906445E-006  0.2739742E+04  0.7818608E-02  0.8322224E-01
          1   -1    0    0  501    0  0.00000000000E+00  0.00000000000E+00  0.18520369111E+04  0.18520369111E+04  0.00000000000E+00 0. -1.
         -1   -1    0    0    0  501 -0.00000000000E+00 -0.00000000000E+00 -0.10132335694E+04  0.10132335694E+04  0.00000000000E+00 0.  1.
         23    2    1    2    0    0  0.10048494105E+04  0.70053411658E+03 -0.21794285703E+03  0.12474995095E+04  0.91025002120E+02 0.  0.
         13    1    3    3    0    0  0.66555326135E+03  0.51542611616E+03 -0.14708282423E+03  0.85455168486E+03  0.00000000000E+00 0.  1.
        -13    1    3    3    0    0  0.33929614910E+03  0.18510800042E+03 -0.70860032803E+02  0.39294782460E+03  0.00000000000E+00 0. -1.
         22    1    1    2    0    0 -0.10048494105E+04 -0.70053411658E+03  0.10567461987E+04  0.16177709710E+04  0.00000000000E+00 0.  1.
<mgrwt>
<rscale>  0 0.27397416E+04</rscale>
<asrwt>0</asrwt>
<pdfrwt beam="1">  1        1 0.28492875E+00 0.27397416E+04</pdfrwt>
<pdfrwt beam="2">  1       -1 0.15588209E+00 0.27397416E+04</pdfrwt>
<totfact> 0.10266849E+00</totfact>
</mgrwt>
</event>
<event>
 6    1  0.9906445E-006  0.2065025E+04  0.7818608E-02  0.8576809E-01
          1   -1    0    0  501    0  0.00000000000E+00  0.00000000000E+00  0.24231989990E+04  0.24231989990E+04  0.00000000000E+00 0. -1.
         -1   -1    0    0    0  501 -0.00000000000E+00 -0.00000000000E+00 -0.43994817417E+03  0.43994817417E+03  0.00000000000E+00 0.  1.
         23    2    1    2    0    0 -0.26757193365E+03  0.56914356837E+03  0.21255877060E+04  0.22183379543E+04  0.85912993657E+02 0.  0.
         11    1    3    3    0    0 -0.91195185248E+02  0.20423184739E+03  0.90447665701E+03  0.93172164962E+03  0.00000000000E+00 0.  1.
        -11    1    3    3    0    0 -0.17637674840E+03  0.36491172098E+03  0.12211110490E+04  0.12866163047E+04  0.00000000000E+00 0. -1.
         22    1    1    2    0    0  0.26757193365E+03 -0.56914356837E+03 -0.14233688111E+03  0.64480921893E+03  0.00000000000E+00 0.  1.
<mgrwt>
<rscale>  0 0.20650249E+04</rscale>
<asrwt>0</asrwt>
<pdfrwt beam="1">  1        1 0.37279984E+00 0.20650249E+04</pdfrwt>
<pdfrwt beam="2">  1       -1 0.67684336E-01 0.20650249E+04</pdfrwt>
<totfact> 0.31228698E+00</totfact>
</mgrwt>
</event>
<event>
 6    1  0.9906445E-006  0.2003465E+04  0.7818608E-02  0.8605002E-01
          2   -1    0    0  501    0  0.00000000000E+00  0.00000000000E+00  0.27243467328E+04  0.27243467328E+04  0.00000000000E+00 0. -1.
         -2   -1    0    0    0  501 -0.00000000000E+00 -0.00000000000E+00 -0.36833343652E+03  0.36833343652E+03  0.00000000000E+00 0.  1.
         23    2    1    2    0    0 -0.45298587987E+03 -0.86191646705E+03  0.15298602779E+04  0.18157208852E+04  0.90959658523E+02 0.  0.
         11    1    3    3    0    0 -0.15837635238E+03 -0.24125423582E+03  0.39702636609E+03  0.49083256887E+03  0.00000000000E+00 0.  1.
        -11    1    3    3    0    0 -0.29460952749E+03 -0.62066223123E+03  0.11328339118E+04  0.13248883163E+04  0.00000000000E+00 0. -1.
         22    1    1    2    0    0  0.45298587987E+03  0.86191646705E+03  0.82615301836E+03  0.12769592841E+04  0.00000000000E+00 0. -1.
<mgrwt>
<rscale>  0 0.20034650E+04</rscale>
<asrwt>0</asrwt>
<pdfrwt beam="1">  1        2 0.41913025E+00 0.20034650E+04</pdfrwt>
<pdfrwt beam="2">  1       -2 0.56666684E-01 0.20034650E+04</pdfrwt>
<totfact> 0.69759222E+00</totfact>
</mgrwt>
</event>
<event>
 6    1  0.9906445E-006  0.1819914E+04  0.7818608E-02  0.8695781E-01
          2   -1    0    0  501    0  0.00000000000E+00  0.00000000000E+00  0.12713367765E+04  0.12713367765E+04  0.00000000000E+00 0. -1.
         -2   -1    0    0    0  501 -0.00000000000E+00 -0.00000000000E+00 -0.65129974183E+03  0.65129974183E+03  0.00000000000E+00 0.  1.
         23    2    1    2    0    0  0.85828865230E+03 -0.28988078549E+03  0.24995227559E+03  0.94403904781E+03  0.89684464873E+02 0.  0.
         13    1    3    3    0    0  0.43147788887E+03 -0.13066050657E+03  0.16841343072E+03  0.48125712484E+03  0.00000000000E+00 0. -1.
        -13    1    3    3    0    0  0.42681076343E+03 -0.15922027892E+03  0.81538844869E+02  0.46278192297E+03  0.00000000000E+00 0.  1.
         22    1    1    2    0    0 -0.85828865230E+03  0.28988078549E+03  0.37008475913E+03  0.97859747057E+03  0.00000000000E+00 0.  1.
<mgrwt>
<rscale>  0 0.18199135E+04</rscale>
<asrwt>0</asrwt>
<pdfrwt beam="1">  1        2 0.19559027E+00 0.18199135E+04</pdfrwt>
<pdfrwt beam="2">  1       -2 0.10019996E+00 0.18199135E+04</pdfrwt>
<totfact> 0.13317158E+01</totfact>
</mgrwt>
</event>
<event>
 6    1  0.9906445E-006  0.7318847E+04  0.7818608E-02  0.7545418E-01
          2   -1    0    0  501    0  0.00000000000E+00  0.00000000000E+00  0.47833628568E+04  0.47833628568E+04  0.00000000000E+00 0. -1.
         -2   -1    0    0    0  501 -0.00000000000E+00 -0.00000000000E+00 -0.27995743964E+04  0.27995743964E+04  0.00000000000E+00 0.  1.
         23    2    1    2    0    0 -0.26466795844E+04  0.10474236555E+04  0.33739714965E+04  0.44151907338E+04  0.90644471389E+02 0.  0.
         13    1    3    3    0    0 -0.89655069391E+02  0.41073647712E+02  0.14279580643E+03  0.17353880931E+03  0.00000000000E+00 0.  1.
        -13    1    3    3    0    0 -0.25570245150E+04  0.10063500078E+04  0.32311756901E+04  0.42416519245E+04  0.00000000000E+00 0. -1.
         22    1    1    2    0    0  0.26466795844E+04 -0.10474236555E+04 -0.13901830361E+04  0.31677465193E+04  0.00000000000E+00 0.  1.
<mgrwt>
<rscale>  0 0.73188470E+04</rscale>
<asrwt>0</asrwt>
<pdfrwt beam="1">  1        2 0.73590198E+00 0.73188470E+04</pdfrwt>
<pdfrwt beam="2">  1       -2 0.43070375E+00 0.73188470E+04</pdfrwt>
<totfact> 0.17360975E-04</totfact>
</mgrwt>
</event>
<event>
 6    1  0.9906445E-006  0.1995769E+04  0.7818608E-02  0.8608601E-01
         -1   -1    0    0    0  501 -0.00000000000E+00  0.00000000000E+00  0.57870446032E+03  0.57870446032E+03  0.00000000000E+00 0.  1.
          1   -1    0    0  501    0  0.00000000000E+00 -0.00000000000E+00 -0.17206944821E+04  0.17206944821E+04  0.00000000000E+00 0. -1.
         23    2    1    2    0    0 -0.39723978382E+03  0.84340755635E+03 -0.16894334605E+03  0.95182497966E+03  0.91066930187E+02 0.  0.
         13    1    3    3    0    0 -0.19199058990E+03  0.30493514964E+03 -0.58006972531E+02  0.36498032955E+03  0.00000000000E+00 0.  1.
        -13    1    3    3    0    0 -0.20524919391E+03  0.53847240671E+03 -0.11093637352E+03  0.58684465011E+03  0.00000000000E+00 0. -1.
         22    1    1    2    0    0  0.39723978382E+03 -0.84340755635E+03 -0.97304667575E+03  0.13475739628E+04  0.00000000000E+00 0. -1.
<mgrwt>
<rscale>  0 0.19957691E+04</rscale>
<asrwt>0</asrwt>
<pdfrwt beam="1">  1        1 0.26472222E+00 0.19957691E+04</pdfrwt>
<pdfrwt beam="2">  1       -1 0.89031457E-01 0.19957691E+04</pdfrwt>
<totfact> 0.52959296E+00</totfact>
</mgrwt>
</event>
<event>
 6    1  0.9906445E-006  0.5383058E+04  0.7818608E-02  0.7771989E-01
          1   -1    0    0  501    0  0.00000000000E+00  0.00000000000E+00  0.21268509603E+04  0.21268509603E+04  0.00000000000E+00 0. -1.
         -1   -1    0    0    0  501 -0.00000000000E+00 -0.00000000000E+00 -0.34061285290E+04  0.34061285290E+04  0.00000000000E+00 0.  1.
         23    2    1    2    0    0  0.15334892695E+04 -0.17680124492E+04  0.72485468057E+03  0.24517454130E+04  0.90464920043E+02 0.  0.
         13    1    3    3    0    0  0.18240877162E+03 -0.17265532711E+03  0.64030019631E+02  0.25919619086E+03  0.00000000000E+00 0. -1.
        -13    1    3    3    0    0  0.13510804979E+04 -0.15953571221E+04  0.66082466094E+03  0.21925492221E+04  0.00000000000E+00 0.  1.
         22    1    1    2    0    0 -0.15334892695E+04  0.17680124492E+04 -0.20041322493E+04  0.30812340763E+04  0.00000000000E+00 0.  1.
<mgrwt>
<rscale>  0 0.53830578E+04</rscale>
<asrwt>0</asrwt>
<pdfrwt beam="1">  1        1 0.32720784E+00 0.53830578E+04</pdfrwt>
<pdfrwt beam="2">  1       -1 0.52401977E+00 0.53830578E+04</pdfrwt>
<totfact> 0.18242115E-03</totfact>
</mgrwt>
</event>
<event>
 6    1  0.9906445E-006  0.1517135E+04  0.7818608E-02  0.8873137E-01
          1   -1    0    0  501    0  0.00000000000E+00  0.00000000000E+00  0.15442054070E+04  0.15442054070E+04  0.00000000000E+00 0. -1.
         -1   -1    0    0    0  501 -0.00000000000E+00 -0.00000000000E+00 -0.37263501984E+03  0.37263501984E+03  0.00000000000E+00 0.  1.
         23    2    1    2    0    0 -0.69416133270E+03 -0.13856239116E+03  0.92226717908E+03  0.11663661890E+04  0.93668806320E+02 0.  0.
         13    1    3    3    0    0 -0.15123846128E+03 -0.17849005258E+02  0.26220589598E+03  0.30322201610E+03  0.00000000000E+00 0. -1.
        -13    1    3    3    0    0 -0.54292287142E+03 -0.12071338590E+03  0.66006128310E+03  0.86314417295E+03  0.00000000000E+00 0.  1.
         22    1    1    2    0    0  0.69416133270E+03  0.13856239116E+03  0.24930320811E+03  0.75047423782E+03  0.00000000000E+00 0.  1.
<mgrwt>
<rscale>  0 0.15171355E+04</rscale>
<asrwt>0</asrwt>
<pdfrwt beam="1">  1        1 0.23757006E+00 0.15171355E+04</pdfrwt>
<pdfrwt beam="2">  1       -1 0.57328465E-01 0.15171355E+04</pdfrwt>
<totfact> 0.18145847E+01</totfact>
</mgrwt>
</event>
<event>
 6    1  0.9906445E-006  0.2786196E+04  0.7818608E-02  0.8307567E-01
          2   -1    0    0  501    0  0.00000000000E+00  0.00000000000E+00  0.16668998554E+04  0.16668998554E+04  0.00000000000E+00 0. -1.
         -2   -1    0    0    0  501 -0.00000000000E+00 -0.00000000000E+00 -0.11642702263E+04  0.11642702263E+04  0.00000000000E+00 0.  1.
         23    2    1    2    0    0 -0.74994918531E+03 -0.73928356014E+03 -0.67261266756E+03  0.12531465018E+04  0.94891472389E+02 0.  0.
         11    1    3    3    0    0 -0.11009119366E+03 -0.65983246435E+02 -0.88520204173E+02  0.15591563834E+03  0.00000000000E+00 0.  1.
        -11    1    3    3    0    0 -0.63985799165E+03 -0.67330031371E+03 -0.58409246339E+03  0.10972308634E+04  0.00000000000E+00 0. -1.
         22    1    1    2    0    0  0.74994918531E+03  0.73928356014E+03  0.11752422966E+04  0.15780235799E+04  0.00000000000E+00 0. -1.
<mgrwt>
<rscale>  0 0.27861959E+04</rscale>
<asrwt>0</asrwt>
<pdfrwt beam="1">  1        2 0.25644613E+00 0.27861959E+04</pdfrwt>
<pdfrwt beam="2">  1       -2 0.17911849E+00 0.27861959E+04</pdfrwt>
<totfact> 0.16394384E+00</totfact>
</mgrwt>
</event>
<event>
 6    1  0.9906445E-006  0.3373294E+04  0.7818608E-02  0.8144492E-01
          1   -1    0    0  501    0  0.00000000000E+00  0.00000000000E+00  0.42308751757E+04  0.42308751757E+04  0.00000000000E+00 0. -1.
         -1   -1    0    0    0  501 -0.00000000000E+00 -0.00000000000E+00 -0.67238534753E+03  0.67238534753E+03  0.00000000000E+00 0.  1.
         23    2    1    2    0    0  0.44410116089E+03 -0.72198738276E+03  0.38979991787E+04  0.39901569031E+04  0.91993980135E+02 0.  0.
         11    1    3    3    0    0  0.31642288920E+03 -0.58643511566E+03  0.30294692765E+04  0.31018887289E+04  0.00000000000E+00 0.  1.
        -11    1    3    3    0    0  0.12767827169E+03 -0.13555226711E+03  0.86852990224E+03  0.88826817418E+03  0.00000000000E+00 0. -1.
         22    1    1    2    0    0 -0.44410116089E+03  0.72198738276E+03 -0.33950935052E+03  0.91310362011E+03  0.00000000000E+00 0.  1.
<mgrwt>
<rscale>  0 0.33732942E+04</rscale>
<asrwt>0</asrwt>
<pdfrwt beam="1">  1        1 0.65090386E+00 0.33732942E+04</pdfrwt>
<pdfrwt beam="2">  1       -1 0.10344390E+00 0.33732942E+04</pdfrwt>
<totfact> 0.42900003E-02</totfact>
</mgrwt>
</event>
<event>
 6    1  0.9906445E-006  0.2560563E+04  0.7818608E-02  0.8381722E-01
         -1   -1    0    0    0  501 -0.00000000000E+00  0.00000000000E+00  0.91429382285E+03  0.91429382285E+03  0.00000000000E+00 0.  1.
          1   -1    0    0  501    0  0.00000000000E+00 -0.00000000000E+00 -0.17927718662E+04  0.17927718662E+04  0.00000000000E+00 0. -1.
         23    2    1    2    0    0  0.13650256093E+03 -0.37419819267E+03 -0.17243431863E+04  0.17721084298E+04  0.91387232658E+02 0.  0.
         13    1    3    3    0    0  0.47367083802E+02 -0.21491949549E+03 -0.10916820560E+04  0.11136443515E+04  0.00000000000E+00 0.  1.
        -13    1    3    3    0    0  0.89135477128E+02 -0.15927869718E+03 -0.63266113029E+03  0.65846407832E+03  0.00000000000E+00 0. -1.
         22    1    1    2    0    0 -0.13650256093E+03  0.37419819267E+03  0.84586514296E+03  0.93495725924E+03  0.00000000000E+00 0.  1.
<mgrwt>
<rscale>  0 0.25605626E+04</rscale>
<asrwt>0</asrwt>
<pdfrwt beam="1">  1        1 0.27581106E+00 0.25605626E+04</pdfrwt>
<pdfrwt beam="2">  1       -1 0.14066059E+00 0.25605626E+04</pdfrwt>
<totfact> 0.15075409E+00</totfact>
</mgrwt>
</event>
<event>
 6    1  0.9906445E-006  0.4313869E+04  0.7818608E-02  0.7944059E-01
          2   -1    0    0  501    0  0.00000000000E+00  0.00000000000E+00  0.26231965728E+04  0.26231965728E+04  0.00000000000E+00 0. -1.
         -2   -1    0    0    0  501 -0.00000000000E+00 -0.00000000000E+00 -0.17735486116E+04  0.17735486116E+04  0.00000000000E+00 0.  1.
         23    2    1    2    0    0 -0.15404068613E+03  0.98381992585E+03  0.23739871240E+04  0.25759651146E+04  0.90284147089E+02 0.  0.
         13    1    3    3    0    0 -0.10921138612E+03  0.56334769821E+03  0.14674252942E+04  0.15756347134E+04  0.00000000000E+00 0. -1.
        -13    1    3    3    0    0 -0.44829300005E+02  0.42047222764E+03  0.90656182981E+03  0.10003304012E+04  0.00000000000E+00 0.  1.
         22    1    1    2    0    0  0.15404068613E+03 -0.98381992585E+03 -0.15243391627E+04  0.18207800698E+04  0.00000000000E+00 0.  1.
<mgrwt>
<rscale>  0 0.43138691E+04</rscale>
<asrwt>0</asrwt>
<pdfrwt beam="1">  1        2 0.40356871E+00 0.43138691E+04</pdfrwt>
<pdfrwt beam="2">  1       -2 0.27285363E+00 0.43138691E+04</pdfrwt>
<totfact> 0.10560810E-01</totfact>
</mgrwt>
</event>
<event>
 6    1  0.9906445E-006  0.3409653E+04  0.7818608E-02  0.8135541E-01
          2   -1    0    0  501    0  0.00000000000E+00  0.00000000000E+00  0.30192746053E+04  0.30192746053E+04  0.00000000000E+00 0. -1.
         -2   -1    0    0    0  501 -0.00000000000E+00 -0.00000000000E+00 -0.96262661642E+03  0.96262661642E+03  0.00000000000E+00 0.  1.
         23    2    1    2    0    0  0.64607799275E+03  0.11349557699E+04  0.23068244513E+04  0.26521908643E+04  0.84474607563E+02 0.  0.
         11    1    3    3    0    0  0.13151820204E+03  0.23532845482E+03  0.40976584824E+03  0.49049420945E+03  0.00000000000E+00 0. -1.
        -11    1    3    3    0    0  0.51455979071E+03  0.89962731509E+03  0.18970586031E+04  0.21616966549E+04  0.00000000000E+00 0.  1.
         22    1    1    2    0    0 -0.64607799275E+03 -0.11349557699E+04 -0.25017646238E+03  0.13297103574E+04  0.00000000000E+00 0.  1.
<mgrwt>
<rscale>  0 0.34096534E+04</rscale>
<asrwt>0</asrwt>
<pdfrwt beam="1">  1        2 0.46450378E+00 0.34096534E+04</pdfrwt>
<pdfrwt beam="2">  1       -2 0.14809640E+00 0.34096534E+04</pdfrwt>
<totfact> 0.43408418E-01</totfact>
</mgrwt>
</event>
<event>
 6    1  0.9906445E-006  0.3071677E+04  0.7818608E-02  0.8223554E-01
          1   -1    0    0  501    0  0.00000000000E+00  0.00000000000E+00  0.33269984916E+04  0.33269984916E+04  0.00000000000E+00 0. -1.
         -1   -1    0    0    0  501 -0.00000000000E+00 -0.00000000000E+00 -0.70898752259E+03  0.70898752259E+03  0.00000000000E+00 0.  1.
         23    2    1    2    0    0 -0.14754721786E+04  0.18078264106E+03  0.18104596642E+04  0.23442887531E+04  0.90692057819E+02 0.  0.
         13    1    3    3    0    0 -0.23805728367E+03 -0.30146577275E+01  0.27543081014E+03  0.36406385380E+03  0.00000000000E+00 0.  1.
        -13    1    3    3    0    0 -0.12374148949E+04  0.18379729878E+03  0.15350288540E+04  0.19802248993E+04  0.00000000000E+00 0. -1.
         22    1    1    2    0    0  0.14754721786E+04 -0.18078264106E+03  0.80755130489E+03  0.16916972611E+04  0.00000000000E+00 0.  1.
<mgrwt>
<rscale>  0 0.30716773E+04</rscale>
<asrwt>0</asrwt>
<pdfrwt beam="1">  1        1 0.51184591E+00 0.30716773E+04</pdfrwt>
<pdfrwt beam="2">  1       -1 0.10907501E+00 0.30716773E+04</pdfrwt>
<totfact> 0.22406154E-01</totfact>
</mgrwt>
</event>
<event>
 6    1  0.9906445E-006  0.2748287E+04  0.7818608E-02  0.8319505E-01
          2   -1    0    0  501    0  0.00000000000E+00  0.00000000000E+00  0.11448544277E+04  0.11448544277E+04  0.00000000000E+00 0. -1.
         -2   -1    0    0    0  501 -0.00000000000E+00 -0.00000000000E+00 -0.16493543713E+04  0.16493543713E+04  0.00000000000E+00 0.  1.
         23    2    1    2    0    0 -0.60243540807E+03 -0.71293487459E+03  0.77071434433E+03  0.12138999569E+04  0.91367109059E+02 0.  0.
         11    1    3    3    0    0 -0.43322189922E+03 -0.44646779647E+03  0.51897922686E+03  0.81015686454E+03  0.00000000000E+00 0. -1.
        -11    1    3    3    0    0 -0.16921350885E+03 -0.26646707813E+03  0.25173511747E+03  0.40374309241E+03  0.00000000000E+00 0.  1.
         22    1    1    2    0    0  0.60243540807E+03  0.71293487459E+03 -0.12752142879E+04  0.15803088421E+04  0.00000000000E+00 0.  1.
<mgrwt>
<rscale>  0 0.27482872E+04</rscale>
<asrwt>0</asrwt>
<pdfrwt beam="1">  1        2 0.17613145E+00 0.27482872E+04</pdfrwt>
<pdfrwt beam="2">  1       -2 0.25374683E+00 0.27482872E+04</pdfrwt>
<totfact> 0.10889544E+00</totfact>
</mgrwt>
</event>
<event>
 6    1  0.9906445E-006  0.5507328E+03  0.7818608E-02  0.1001324E+00
          1   -1    0    0  501    0  0.00000000000E+00  0.00000000000E+00  0.59152179061E+03  0.59152179061E+03  0.00000000000E+00 0. -1.
         -1   -1    0    0    0  501 -0.00000000000E+00 -0.00000000000E+00 -0.12818910295E+03  0.12818910295E+03  0.00000000000E+00 0.  1.
         23    2    1    2    0    0 -0.10159779996E+03  0.18707357925E+03  0.26599170791E+02  0.23385618094E+03  0.93072877196E+02 0.  0.
         11    1    3    3    0    0 -0.27466823145E+02  0.10208281298E+03  0.52664619209E+02  0.11810541561E+03  0.00000000000E+00 0. -1.
        -11    1    3    3    0    0 -0.74130976819E+02  0.84990766267E+02 -0.26065448418E+02  0.11575076534E+03  0.00000000000E+00 0.  1.
         22    1    1    2    0    0  0.10159779996E+03 -0.18707357925E+03  0.43673351687E+03  0.48585471261E+03  0.00000000000E+00 0. -1.
<mgrwt>
<rscale>  0 0.55073278E+03</rscale>
<asrwt>0</asrwt>
<pdfrwt beam="1">  1        1 0.91003351E-01 0.55073278E+03</pdfrwt>
<pdfrwt beam="2">  1       -1 0.19721401E-01 0.55073278E+03</pdfrwt>
<totfact> 0.73770007E+02</totfact>
</mgrwt>
</event>
<event>
 6    1  0.9906445E-006  0.2524584E+04  0.7818608E-02  0.8394279E-01
         -1   -1    0    0    0  501 -0.00000000000E+00  0.00000000000E+00  0.14707326760E+04  0.14707326760E+04  0.00000000000E+00 0. -1.
          1   -1    0    0  501    0  0.00000000000E+00 -0.00000000000E+00 -0.10833924047E+04  0.10833924047E+04  0.00000000000E+00 0.  1.
         23    2    1    2    0    0 -0.88611146884E+03 -0.30866065876E+03 -0.65769382213E+03  0.11496461048E+04  0.93059470507E+02 0.  0.
         11    1    3    3    0    0 -0.66683318672E+03 -0.18899066256E+03 -0.47944569332E+03  0.84276458296E+03  0.00000000000E+00 0.  1.
        -11    1    3    3    0    0 -0.21927828212E+03 -0.11966999620E+03 -0.17824812881E+03  0.30688152181E+03  0.00000000000E+00 0. -1.
         22    1    1    2    0    0  0.88611146884E+03  0.30866065876E+03  0.10450340934E+04  0.14044789759E+04  0.00000000000E+00 0. -1.
<mgrwt>
<rscale>  0 0.25245836E+04</rscale>
<asrwt>0</asrwt>
<pdfrwt beam="1">  1        1 0.16667576E+00 0.25245836E+04</pdfrwt>
<pdfrwt beam="2">  1       -1 0.22626656E+00 0.25245836E+04</pdfrwt>
<totfact> 0.11562449E+00</totfact>
</mgrwt>
</event>
<event>
 6    1  0.9906445E-006  0.2046847E+04  0.7818608E-02  0.8585026E-01
          1   -1    0    0  501    0  0.00000000000E+00  0.00000000000E+00  0.23006470084E+04  0.23006470084E+04  0.00000000000E+00 0. -1.
         -1   -1    0    0    0  501 -0.00000000000E+00 -0.00000000000E+00 -0.45526146671E+03  0.45526146671E+03  0.00000000000E+00 0.  1.
         23    2    1    2    0    0  0.74322735185E+03  0.32884555132E+03  0.17573695458E+04  0.19384287453E+04  0.92908485807E+02 0.  0.
         11    1    3    3    0    0  0.23000501280E+03  0.94222560869E+02  0.64187465743E+03  0.68831916488E+03  0.00000000000E+00 0. -1.
        -11    1    3    3    0    0  0.51322233905E+03  0.23462299046E+03  0.11154948884E+04  0.12501095804E+04  0.00000000000E+00 0.  1.
         22    1    1    2    0    0 -0.74322735185E+03 -0.32884555132E+03  0.88015995859E+02  0.81747972984E+03  0.00000000000E+00 0.  1.
<mgrwt>
<rscale>  0 0.20468473E+04</rscale>
<asrwt>0</asrwt>
<pdfrwt beam="1">  1        1 0.35394569E+00 0.20468473E+04</pdfrwt>
<pdfrwt beam="2">  1       -1 0.70040227E-01 0.20468473E+04</pdfrwt>
<totfact> 0.35403656E+00</totfact>
</mgrwt>
</event>
<event>
 6    1  0.9906445E-006  0.3360231E+04  0.7818608E-02  0.8147736E-01
         -2   -1    0    0    0  501 -0.00000000000E+00  0.00000000000E+00  0.82397572480E+03  0.82397572480E+03  0.00000000000E+00 0.  1.
          2   -1    0    0  501    0  0.00000000000E+00 -0.00000000000E+00 -0.34258149261E+04  0.34258149261E+04  0.00000000000E+00 0. -1.
         23    2    1    2    0    0 -0.12729928554E+04 -0.14927969761E+03 -0.26732966179E+04  0.29660845318E+04  0.91364132653E+02 0.  0.
         11    1    3    3    0    0 -0.76991865510E+03 -0.49449597019E+02 -0.16491629706E+04  0.18207027494E+04  0.00000000000E+00 0. -1.
        -11    1    3    3    0    0 -0.50307420025E+03 -0.99830100589E+02 -0.10241336473E+04  0.11453817824E+04  0.00000000000E+00 0.  1.
         22    1    1    2    0    0  0.12729928554E+04  0.14927969761E+03  0.71457416548E+02  0.12837061191E+04  0.00000000000E+00 0.  1.
<mgrwt>
<rscale>  0 0.33602311E+04</rscale>
<asrwt>0</asrwt>
<pdfrwt beam="1">  1        2 0.52704845E+00 0.33602311E+04</pdfrwt>
<pdfrwt beam="2">  1       -2 0.12676550E+00 0.33602311E+04</pdfrwt>
<totfact> 0.35163500E-01</totfact>
</mgrwt>
</event>
<event>
 6    1  0.9906445E-006  0.1297428E+04  0.7818608E-02  0.9031607E-01
          1   -1    0    0  501    0  0.00000000000E+00  0.00000000000E+00  0.29592438419E+03  0.29592438419E+03  0.00000000000E+00 0. -1.
         -1   -1    0    0    0  501 -0.00000000000E+00 -0.00000000000E+00 -0.14220857891E+04  0.14220857891E+04  0.00000000000E+00 0.  1.
         23    2    1    2    0    0  0.55673985304E+03  0.19971380016E+03 -0.22389194828E+03  0.63915196280E+03  0.92427058346E+02 0.  0.
         13    1    3    3    0    0  0.30579845949E+03  0.61454405524E+02 -0.10777309715E+03  0.33000663971E+03  0.00000000000E+00 0. -1.
        -13    1    3    3    0    0  0.25094139355E+03  0.13825939463E+03 -0.11611885113E+03  0.30914532309E+03  0.00000000000E+00 0.  1.
         22    1    1    2    0    0 -0.55673985304E+03 -0.19971380016E+03 -0.90226945661E+03  0.10788582105E+04  0.00000000000E+00 0.  1.
<mgrwt>
<rscale>  0 0.12974280E+04</rscale>
<asrwt>0</asrwt>
<pdfrwt beam="1">  1        1 0.45526828E-01 0.12974280E+04</pdfrwt>
<pdfrwt beam="2">  1       -1 0.21878243E+00 0.12974280E+04</pdfrwt>
<totfact> 0.98404114E+00</totfact>
</mgrwt>
</event>
<event>
 6    1  0.9906445E-006  0.1528801E+04  0.7818608E-02  0.8865523E-01
          1   -1    0    0  501    0  0.00000000000E+00  0.00000000000E+00  0.65374075831E+03  0.65374075831E+03  0.00000000000E+00 0. -1.
         -1   -1    0    0    0  501 -0.00000000000E+00 -0.00000000000E+00 -0.89379160312E+03  0.89379160312E+03  0.00000000000E+00 0.  1.
         23    2    1    2    0    0 -0.69074728651E+03  0.30514784311E+03 -0.18790008049E+02  0.76063759219E+03  0.89271844819E+02 0.  0.
         13    1    3    3    0    0 -0.81267091849E+02  0.28021204695E+02  0.25452300232E+02  0.89651256083E+02  0.00000000000E+00 0. -1.
        -13    1    3    3    0    0 -0.60948019466E+03  0.27712663841E+03 -0.44242308281E+02  0.67098633611E+03  0.00000000000E+00 0.  1.
         22    1    1    2    0    0  0.69074728651E+03 -0.30514784311E+03 -0.22126083675E+03  0.78689476924E+03  0.00000000000E+00 0. -1.
<mgrwt>
<rscale>  0 0.15288008E+04</rscale>
<asrwt>0</asrwt>
<pdfrwt beam="1">  1        1 0.10057550E+00 0.15288008E+04</pdfrwt>
<pdfrwt beam="2">  1       -1 0.13750640E+00 0.15288008E+04</pdfrwt>
<totfact> 0.12804668E+01</totfact>
</mgrwt>
</event>
<event>
 6    1  0.9906445E-006  0.1942141E+04  0.7818608E-02  0.8634160E-01
          1   -1    0    0  501    0  0.00000000000E+00  0.00000000000E+00  0.48212638829E+03  0.48212638829E+03  0.00000000000E+00 0. -1.
         -1   -1    0    0    0  501 -0.00000000000E+00 -0.00000000000E+00 -0.19558727128E+04  0.19558727128E+04  0.00000000000E+00 0.  1.
         23    2    1    2    0    0 -0.23629969288E+03 -0.50351192343E+03  0.25742250196E+03  0.61967368806E+03  0.91473128660E+02 0.  0.
         13    1    3    3    0    0 -0.22790925899E+03 -0.41363566593E+03  0.23024246276E+03  0.52540335564E+03  0.00000000000E+00 0. -1.
        -13    1    3    3    0    0 -0.83904338890E+01 -0.89876257502E+02  0.27180039203E+02  0.94270332420E+02  0.00000000000E+00 0.  1.
         22    1    1    2    0    0  0.23629969288E+03  0.50351192343E+03 -0.17311688265E+04  0.18183254131E+04  0.00000000000E+00 0.  1.
<mgrwt>
<rscale>  0 0.19421409E+04</rscale>
<asrwt>0</asrwt>
<pdfrwt beam="1">  1        1 0.74173291E-01 0.19421409E+04</pdfrwt>
<pdfrwt beam="2">  1       -1 0.30090349E+00 0.19421409E+04</pdfrwt>
<totfact> 0.14167506E+00</totfact>
</mgrwt>
</event>
<event>
 6    1  0.9906445E-006  0.3919575E+04  0.7818608E-02  0.8020970E-01
         -1   -1    0    0    0  501 -0.00000000000E+00  0.00000000000E+00  0.15364631142E+04  0.15364631142E+04  0.00000000000E+00 0.  1.
          1   -1    0    0  501    0  0.00000000000E+00 -0.00000000000E+00 -0.24997456778E+04  0.24997456778E+04  0.00000000000E+00 0. -1.
         23    2    1    2    0    0  0.88800828992E+03 -0.13922290132E+04  0.60299543001E+03  0.17602283217E+04  0.89106160543E+02 0.  0.
         13    1    3    3    0    0  0.11704362107E+03 -0.14280293422E+03  0.48944353200E+02  0.19101684995E+03  0.00000000000E+00 0.  1.
        -13    1    3    3    0    0  0.77096466885E+03 -0.12494260790E+04  0.55405107681E+03  0.15692114718E+04  0.00000000000E+00 0. -1.
         22    1    1    2    0    0 -0.88800828992E+03  0.13922290132E+04 -0.15662779935E+04  0.22759804703E+04  0.00000000000E+00 0. -1.
<mgrwt>
<rscale>  0 0.39195750E+04</rscale>
<asrwt>0</asrwt>
<pdfrwt beam="1">  1        1 0.38457626E+00 0.39195750E+04</pdfrwt>
<pdfrwt beam="2">  1       -1 0.23637894E+00 0.39195750E+04</pdfrwt>
<totfact> 0.91448671E-02</totfact>
</mgrwt>
</event>
<event>
 6    1  0.9906445E-006  0.1833508E+04  0.7818608E-02  0.8688681E-01
         -1   -1    0    0    0  501 -0.00000000000E+00  0.00000000000E+00  0.85860736580E+03  0.85860736580E+03  0.00000000000E+00 0.  1.
          1   -1    0    0  501    0  0.00000000000E+00 -0.00000000000E+00 -0.97883807389E+03  0.97883807389E+03  0.00000000000E+00 0. -1.
         23    2    1    2    0    0  0.21963894022E+03  0.44713634502E+03 -0.82883008764E+03  0.97125535906E+03  0.90584122329E+02 0.  0.
         13    1    3    3    0    0  0.35502049304E+02  0.10341618831E+03 -0.25523839723E+03  0.27767236617E+03  0.00000000000E+00 0. -1.
        -13    1    3    3    0    0  0.18413689091E+03  0.34372015670E+03 -0.57359169041E+03  0.69358299289E+03  0.00000000000E+00 0.  1.
         22    1    1    2    0    0 -0.21963894022E+03 -0.44713634502E+03  0.70859937955E+03  0.86619008064E+03  0.00000000000E+00 0.  1.
<mgrwt>
<rscale>  0 0.18335077E+04</rscale>
<asrwt>0</asrwt>
<pdfrwt beam="1">  1        1 0.15059047E+00 0.18335077E+04</pdfrwt>
<pdfrwt beam="2">  1       -1 0.13209344E+00 0.18335077E+04</pdfrwt>
<totfact> 0.72052761E+00</totfact>
</mgrwt>
</event>
<event>
 6    1  0.9906445E-006  0.3253499E+04  0.7818608E-02  0.8174829E-01
         -1   -1    0    0    0  501 -0.00000000000E+00  0.00000000000E+00  0.11352153375E+04  0.11352153375E+04  0.00000000000E+00 0.  1.
          1   -1    0    0  501    0  0.00000000000E+00 -0.00000000000E+00 -0.23311123536E+04  0.23311123536E+04  0.00000000000E+00 0. -1.
         23    2    1    2    0    0 -0.18107162764E+03  0.15902167784E+04 -0.29628237420E+03  0.16303312749E+04  0.92846563040E+02 0.  0.
         13    1    3    3    0    0 -0.67200085066E+02  0.46792379804E+03 -0.46953249674E+02  0.47505067084E+03  0.00000000000E+00 0. -1.
        -13    1    3    3    0    0 -0.11387154258E+03  0.11222929803E+04 -0.24932912452E+03  0.11552806041E+04  0.00000000000E+00 0.  1.
         22    1    1    2    0    0  0.18107162764E+03 -0.15902167784E+04 -0.89961464189E+03  0.18359964162E+04  0.00000000000E+00 0. -1.
<mgrwt>
<rscale>  0 0.32534993E+04</rscale>
<asrwt>0</asrwt>
<pdfrwt beam="1">  1        1 0.35863267E+00 0.32534993E+04</pdfrwt>
<pdfrwt beam="2">  1       -1 0.17464851E+00 0.32534993E+04</pdfrwt>
<totfact> 0.33572140E-01</totfact>
</mgrwt>
</event>
<event>
 6    1  0.9906445E-006  0.3844504E+04  0.7818608E-02  0.8036671E-01
          2   -1    0    0  501    0  0.00000000000E+00  0.00000000000E+00  0.29404099378E+04  0.29404099378E+04  0.00000000000E+00 0. -1.
         -2   -1    0    0    0  501 -0.00000000000E+00 -0.00000000000E+00 -0.12566453685E+04  0.12566453685E+04  0.00000000000E+00 0.  1.
         23    2    1    2    0    0  0.47291259131E+03 -0.77257473816E+02  0.28735349140E+04  0.29144140823E+04  0.83615217805E+02 0.  0.
         11    1    3    3    0    0  0.34378038934E+03 -0.58437254117E+02  0.18482976185E+04  0.18809050894E+04  0.00000000000E+00 0. -1.
        -11    1    3    3    0    0  0.12913220196E+03 -0.18820219699E+02  0.10252372956E+04  0.10335089929E+04  0.00000000000E+00 0.  1.
         22    1    1    2    0    0 -0.47291259131E+03  0.77257473816E+02 -0.11897703447E+04  0.12826412240E+04  0.00000000000E+00 0.  1.
<mgrwt>
<rscale>  0 0.38445039E+04</rscale>
<asrwt>0</asrwt>
<pdfrwt beam="1">  1        2 0.45237076E+00 0.38445039E+04</pdfrwt>
<pdfrwt beam="2">  1       -2 0.19333006E+00 0.38445039E+04</pdfrwt>
<totfact> 0.22300213E-01</totfact>
</mgrwt>
</event>
<event>
 6    1  0.9906445E-006  0.4975236E+04  0.7818608E-02  0.7832339E-01
         -1   -1    0    0    0  501 -0.00000000000E+00  0.00000000000E+00  0.45721536473E+04  0.45721536473E+04  0.00000000000E+00 0.  1.
          1   -1    0    0  501    0  0.00000000000E+00 -0.00000000000E+00 -0.13534633280E+04  0.13534633280E+04  0.00000000000E+00 0. -1.
         23    2    1    2    0    0  0.23226241850E+04  0.22757695679E+03  0.26327047794E+04  0.35194263285E+04  0.94089585597E+02 0.  0.
         13    1    3    3    0    0  0.16989499024E+04  0.19846826956E+03  0.19687209201E+04  0.26080035441E+04  0.00000000000E+00 0.  1.
        -13    1    3    3    0    0  0.62367428255E+03  0.29108687231E+02  0.66398385930E+03  0.91142278433E+03  0.00000000000E+00 0. -1.
         22    1    1    2    0    0 -0.23226241850E+04 -0.22757695679E+03  0.58598553995E+03  0.24061906468E+04  0.00000000000E+00 0. -1.
<mgrwt>
<rscale>  0 0.49752356E+04</rscale>
<asrwt>0</asrwt>
<pdfrwt beam="1">  1        1 0.20822513E+00 0.49752356E+04</pdfrwt>
<pdfrwt beam="2">  1       -1 0.70340825E+00 0.49752356E+04</pdfrwt>
<totfact> 0.11779195E-03</totfact>
</mgrwt>
</event>
<event>
 6    1  0.9906445E-006  0.1547309E+04  0.7818608E-02  0.8853588E-01
         -1   -1    0    0    0  501 -0.00000000000E+00  0.00000000000E+00  0.91857648737E+03  0.91857648737E+03  0.00000000000E+00 0. -1.
          1   -1    0    0  501    0  0.00000000000E+00 -0.00000000000E+00 -0.65159682151E+03  0.65159682151E+03  0.00000000000E+00 0.  1.
         23    2    1    2    0    0  0.18051368286E+03 -0.71767983420E+03  0.35326415475E+03  0.82512663440E+03  0.91590750861E+02 0.  0.
         13    1    3    3    0    0  0.92127297015E+02 -0.49074117669E+03  0.20330037773E+03  0.53911537257E+03  0.00000000000E+00 0.  1.
        -13    1    3    3    0    0  0.88386385843E+02 -0.22693865751E+03  0.14996377702E+03  0.28601126183E+03  0.00000000000E+00 0. -1.
         22    1    1    2    0    0 -0.18051368286E+03  0.71767983420E+03 -0.86284488894E+02  0.74504667447E+03  0.00000000000E+00 0.  1.
<mgrwt>
<rscale>  0 0.15473093E+04</rscale>
<asrwt>0</asrwt>
<pdfrwt beam="1">  1        1 0.10024566E+00 0.15473093E+04</pdfrwt>
<pdfrwt beam="2">  1       -1 0.14131946E+00 0.15473093E+04</pdfrwt>
<totfact> 0.11961092E+01</totfact>
</mgrwt>
</event>
<event>
 6    1  0.9906445E-006  0.1038669E+04  0.7818608E-02  0.9267122E-01
          2   -1    0    0  501    0  0.00000000000E+00  0.00000000000E+00  0.32870438702E+04  0.32870438702E+04  0.00000000000E+00 0. -1.
         -2   -1    0    0    0  501 -0.00000000000E+00 -0.00000000000E+00 -0.82051889250E+02  0.82051889250E+02  0.00000000000E+00 0.  1.
         23    2    1    2    0    0 -0.37501855431E+02  0.10048863533E+03  0.32497932329E+04  0.32528567506E+04  0.91742186671E+02 0.  0.
         13    1    3    3    0    0  0.28413433568E+02  0.12575531441E+02  0.64883939188E+03  0.64958296134E+03  0.00000000000E+00 0. -1.
        -13    1    3    3    0    0 -0.65915288999E+02  0.87913103892E+02  0.26009538410E+04  0.26032737893E+04  0.00000000000E+00 0.  1.
         22    1    1    2    0    0  0.37501855431E+02 -0.10048863533E+03 -0.44801251928E+02  0.11623900880E+03  0.00000000000E+00 0.  1.
<mgrwt>
<rscale>  0 0.10386687E+04</rscale>
<asrwt>0</asrwt>
<pdfrwt beam="1">  1        2 0.50569895E+00 0.10386687E+04</pdfrwt>
<pdfrwt beam="2">  1       -2 0.12623370E-01 0.10386687E+04</pdfrwt>
<totfact> 0.54703905E+01</totfact>
</mgrwt>
</event>
<event>
 6    1  0.9906445E-006  0.3340249E+04  0.7818608E-02  0.8152729E-01
         -2   -1    0    0    0  501 -0.00000000000E+00  0.00000000000E+00  0.21869611297E+04  0.21869611297E+04  0.00000000000E+00 0.  1.
          2   -1    0    0  501    0  0.00000000000E+00 -0.00000000000E+00 -0.12754302605E+04  0.12754302605E+04  0.00000000000E+00 0. -1.
         23    2    1    2    0    0  0.13148147745E+04  0.49238846224E+03 -0.47915040046E+03  0.14862388954E+04  0.90203430196E+02 0.  0.
         13    1    3    3    0    0  0.72192614459E+03  0.24419504484E+03 -0.22007408789E+03  0.79324723909E+03  0.00000000000E+00 0. -1.
        -13    1    3    3    0    0  0.59288862992E+03  0.24819341739E+03 -0.25907631257E+03  0.69299165627E+03  0.00000000000E+00 0.  1.
         22    1    1    2    0    0 -0.13148147745E+04 -0.49238846224E+03  0.13906812696E+04  0.19761524948E+04  0.00000000000E+00 0.  1.
<mgrwt>
<rscale>  0 0.33402493E+04</rscale>
<asrwt>0</asrwt>
<pdfrwt beam="1">  1        2 0.19622004E+00 0.33402493E+04</pdfrwt>
<pdfrwt beam="2">  1       -2 0.33645556E+00 0.33402493E+04</pdfrwt>
<totfact> 0.26909186E-01</totfact>
</mgrwt>
</event>
<event>
 6    1  0.9906445E-006  0.3014730E+03  0.7818608E-02  0.1084507E+00
         -2   -1    0    0    0  501 -0.00000000000E+00  0.00000000000E+00  0.42262216161E+02  0.42262216161E+02  0.00000000000E+00 0.  1.
          2   -1    0    0  501    0  0.00000000000E+00 -0.00000000000E+00 -0.53763127712E+03  0.53763127712E+03  0.00000000000E+00 0. -1.
         23    2    1    2    0    0  0.32856962410E+02  0.59912391277E+02 -0.49871529727E+03  0.51148098050E+03  0.90701549468E+02 0.  0.
         11    1    3    3    0    0  0.29571157365E+01 -0.23802325321E+02 -0.84744852279E+02  0.88073748711E+02  0.00000000000E+00 0.  1.
        -11    1    3    3    0    0  0.29899846673E+02  0.83714716598E+02 -0.41397044499E+03  0.42340723179E+03  0.00000000000E+00 0. -1.
         22    1    1    2    0    0 -0.32856962410E+02 -0.59912391277E+02  0.33462363114E+01  0.68412512779E+02  0.00000000000E+00 0.  1.
<mgrwt>
<rscale>  0 0.30147298E+03</rscale>
<asrwt>0</asrwt>
<pdfrwt beam="1">  1        2 0.82712502E-01 0.30147298E+03</pdfrwt>
<pdfrwt beam="2">  1       -2 0.65018796E-02 0.30147298E+03</pdfrwt>
<totfact> 0.74831946E+03</totfact>
</mgrwt>
</event>
<event>
 6    1  0.9906445E-006  0.3165463E+04  0.7818608E-02  0.8197998E-01
          3   -1    0    0  501    0  0.00000000000E+00  0.00000000000E+00  0.26425586698E+04  0.26425586698E+04  0.00000000000E+00 0. -1.
         -3   -1    0    0    0  501 -0.00000000000E+00 -0.00000000000E+00 -0.94795957069E+03  0.94795957069E+03  0.00000000000E+00 0.  1.
         23    2    1    2    0    0  0.45567121161E+03 -0.60797923295E+03  0.24215785148E+04  0.25389603145E+04  0.70724635371E+02 0.  0.
         11    1    3    3    0    0  0.24126345227E+03 -0.36057752294E+03  0.12920330088E+04  0.13629282810E+04  0.00000000000E+00 0. -1.
        -11    1    3    3    0    0  0.21440775934E+03 -0.24740171001E+03  0.11295455061E+04  0.11760320334E+04  0.00000000000E+00 0.  1.
         22    1    1    2    0    0 -0.45567121161E+03  0.60797923295E+03 -0.72697941577E+03  0.10515579260E+04  0.00000000000E+00 0.  1.
<mgrwt>
<rscale>  0 0.31654629E+04</rscale>
<asrwt>0</asrwt>
<pdfrwt beam="1">  1        3 0.40654748E+00 0.31654629E+04</pdfrwt>
<pdfrwt beam="2">  1       -3 0.14583994E+00 0.31654629E+04</pdfrwt>
<totfact> 0.78014584E-03</totfact>
</mgrwt>
</event>
<event>
 6    1  0.9906445E-006  0.1370966E+04  0.7818608E-02  0.8975107E-01
          1   -1    0    0  501    0  0.00000000000E+00  0.00000000000E+00  0.29537354825E+04  0.29537354825E+04  0.00000000000E+00 0. -1.
         -1   -1    0    0    0  501 -0.00000000000E+00 -0.00000000000E+00 -0.15908229225E+03  0.15908229225E+03  0.00000000000E+00 0.  1.
         23    2    1    2    0    0  0.12672178467E+03  0.37835537579E+03  0.26606156554E+04  0.26918934801E+04  0.90573954110E+02 0.  0.
         13    1    3    3    0    0  0.53468464492E+02  0.16849038543E+03  0.89047683872E+03  0.90785289941E+03  0.00000000000E+00 0. -1.
        -13    1    3    3    0    0  0.73253320177E+02  0.20986499036E+03  0.17701388167E+04  0.17840405807E+04  0.00000000000E+00 0.  1.
         22    1    1    2    0    0 -0.12672178467E+03 -0.37835537579E+03  0.13403753483E+03  0.42092429467E+03  0.00000000000E+00 0.  1.
<mgrwt>
<rscale>  0 0.13709661E+04</rscale>
<asrwt>0</asrwt>
<pdfrwt beam="1">  1        1 0.45442080E+00 0.13709661E+04</pdfrwt>
<pdfrwt beam="2">  1       -1 0.24474201E-01 0.13709661E+04</pdfrwt>
<totfact> 0.92443038E+00</totfact>
</mgrwt>
</event>
<event>
 6    1  0.9906445E-006  0.3295593E+04  0.7818608E-02  0.8164018E-01
          2   -1    0    0  501    0  0.00000000000E+00  0.00000000000E+00  0.20574183417E+04  0.20574183417E+04  0.00000000000E+00 0. -1.
         -2   -1    0    0    0  501 -0.00000000000E+00 -0.00000000000E+00 -0.13197286218E+04  0.13197286218E+04  0.00000000000E+00 0.  1.
         23    2    1    2    0    0 -0.53145953885E+03 -0.94785177459E+03 -0.89844381343E+03  0.14130173427E+04  0.92436447895E+02 0.  0.
         11    1    3    3    0    0 -0.18194483203E+03 -0.37146400747E+03 -0.29227471928E+03  0.50647205478E+03  0.00000000000E+00 0. -1.
        -11    1    3    3    0    0 -0.34951470682E+03 -0.57638776713E+03 -0.60616909415E+03  0.90654528794E+03  0.00000000000E+00 0.  1.
         22    1    1    2    0    0  0.53145953885E+03  0.94785177459E+03  0.16361335334E+04  0.19641296208E+04  0.00000000000E+00 0. -1.
<mgrwt>
<rscale>  0 0.32955933E+04</rscale>
<asrwt>0</asrwt>
<pdfrwt beam="1">  1        2 0.31652590E+00 0.32955933E+04</pdfrwt>
<pdfrwt beam="2">  1       -2 0.20303517E+00 0.32955933E+04</pdfrwt>
<totfact> 0.65888047E-01</totfact>
</mgrwt>
</event>
<event>
 6    1  0.9906445E-006  0.2698335E+04  0.7818608E-02  0.8335545E-01
          1   -1    0    0  501    0  0.00000000000E+00  0.00000000000E+00  0.13950996533E+04  0.13950996533E+04  0.00000000000E+00 0. -1.
         -1   -1    0    0    0  501 -0.00000000000E+00 -0.00000000000E+00 -0.13047480359E+04  0.13047480359E+04  0.00000000000E+00 0.  1.
         23    2    1    2    0    0  0.36599641027E+03  0.10548284965E+04  0.80025443726E+03  0.13767533831E+04  0.91794248876E+02 0.  0.
         11    1    3    3    0    0  0.19511929843E+03  0.44144476519E+03  0.31777038893E+03  0.57786074569E+03  0.00000000000E+00 0. -1.
        -11    1    3    3    0    0  0.17087711184E+03  0.61338373127E+03  0.48248404834E+03  0.79889263737E+03  0.00000000000E+00 0.  1.
         22    1    1    2    0    0 -0.36599641027E+03 -0.10548284965E+04 -0.70990281992E+03  0.13230943062E+04  0.00000000000E+00 0.  1.
<mgrwt>
<rscale>  0 0.26983354E+04</rscale>
<asrwt>0</asrwt>
<pdfrwt beam="1">  1        1 0.21463072E+00 0.26983354E+04</pdfrwt>
<pdfrwt beam="2">  1       -1 0.20073047E+00 0.26983354E+04</pdfrwt>
<totfact> 0.10061221E+00</totfact>
</mgrwt>
</event>
<event>
 6    1  0.9906445E-006  0.1369604E+04  0.7818608E-02  0.8976120E-01
          2   -1    0    0  501    0  0.00000000000E+00  0.00000000000E+00  0.21084783744E+04  0.21084783744E+04  0.00000000000E+00 0. -1.
         -2   -1    0    0    0  501 -0.00000000000E+00 -0.00000000000E+00 -0.22241330326E+03  0.22241330326E+03  0.00000000000E+00 0.  1.
         23    2    1    2    0    0 -0.39545455789E+03  0.16959587581E+03  0.18472489462E+04  0.18988572345E+04  0.90460264401E+02 0.  0.
         13    1    3    3    0    0 -0.14834740839E+03  0.10776009465E+03  0.85438107637E+03  0.87383420351E+03  0.00000000000E+00 0. -1.
        -13    1    3    3    0    0 -0.24710714950E+03  0.61835781166E+02  0.99286786984E+03  0.10250230310E+04  0.00000000000E+00 0.  1.
         22    1    1    2    0    0  0.39545455789E+03 -0.16959587581E+03  0.38816124883E+02  0.43203444308E+03  0.00000000000E+00 0.  1.
<mgrwt>
<rscale>  0 0.13696038E+04</rscale>
<asrwt>0</asrwt>
<pdfrwt beam="1">  1        2 0.32438127E+00 0.13696038E+04</pdfrwt>
<pdfrwt beam="2">  1       -2 0.34217433E-01 0.13696038E+04</pdfrwt>
<totfact> 0.45403765E+01</totfact>
</mgrwt>
</event>
<event>
 6    1  0.9906445E-006  0.8689992E+03  0.7818608E-02  0.9465186E-01
          1   -1    0    0  501    0  0.00000000000E+00  0.00000000000E+00  0.31216004525E+03  0.31216004525E+03  0.00000000000E+00 0. -1.
         -1   -1    0    0    0  501 -0.00000000000E+00 -0.00000000000E+00 -0.60478559271E+03  0.60478559271E+03  0.00000000000E+00 0.  1.
         23    2    1    2    0    0 -0.34450805895E+03  0.42831101585E+02 -0.41501580186E+03  0.54884282581E+03  0.92032742545E+02 0.  0.
         11    1    3    3    0    0 -0.87615023804E+02  0.17580757685E+02 -0.17438493867E+03  0.19594790704E+03  0.00000000000E+00 0. -1.
        -11    1    3    3    0    0 -0.25689303515E+03  0.25250343900E+02 -0.24063086319E+03  0.35289491877E+03  0.00000000000E+00 0.  1.
         22    1    1    2    0    0  0.34450805895E+03 -0.42831101585E+02  0.12239025440E+03  0.36810281216E+03  0.00000000000E+00 0. -1.
<mgrwt>
<rscale>  0 0.86899919E+03</rscale>
<asrwt>0</asrwt>
<pdfrwt beam="1">  1        1 0.48024623E-01 0.86899919E+03</pdfrwt>
<pdfrwt beam="2">  1       -1 0.93043936E-01 0.86899919E+03</pdfrwt>
<totfact> 0.94306254E+01</totfact>
</mgrwt>
</event>
<event>
 6    1  0.9906445E-006  0.2377495E+04  0.7818608E-02  0.8447977E-01
         -1   -1    0    0    0  501 -0.00000000000E+00  0.00000000000E+00  0.22766890408E+04  0.22766890408E+04  0.00000000000E+00 0. -1.
          1   -1    0    0  501    0  0.00000000000E+00 -0.00000000000E+00 -0.62069128146E+03  0.62069128146E+03  0.00000000000E+00 0.  1.
         23    2    1    2    0    0  0.49424921983E+02 -0.77814555136E+03 -0.26136632606E+03  0.82754014534E+03  0.92504128206E+02 0.  0.
         11    1    3    3    0    0  0.66318971678E+02 -0.34876491783E+03 -0.10424459002E+03  0.37000284926E+03  0.00000000000E+00 0. -1.
        -11    1    3    3    0    0 -0.16894049695E+02 -0.42938063353E+03 -0.15712173603E+03  0.45753729607E+03  0.00000000000E+00 0.  1.
         22    1    1    2    0    0 -0.49424921983E+02  0.77814555136E+03  0.19173640854E+04  0.20698401769E+04  0.00000000000E+00 0. -1.
<mgrwt>
<rscale>  0 0.23774954E+04</rscale>
<asrwt>0</asrwt>
<pdfrwt beam="1">  1        1 0.95490967E-01 0.23774954E+04</pdfrwt>
<pdfrwt beam="2">  1       -1 0.35025985E+00 0.23774954E+04</pdfrwt>
<totfact> 0.45321320E-01</totfact>
</mgrwt>
</event>
<event>
 6    1  0.9906445E-006  0.2033754E+04  0.7818608E-02  0.8591000E-01
         -2   -1    0    0    0  501 -0.00000000000E+00  0.00000000000E+00  0.58861439517E+03  0.58861439517E+03  0.00000000000E+00 0.  1.
          2   -1    0    0  501    0  0.00000000000E+00 -0.00000000000E+00 -0.17567341055E+04  0.17567341055E+04  0.00000000000E+00 0. -1.
         23    2    1    2    0    0  0.12137348412E+02 -0.36447932206E+03 -0.16774083783E+04  0.17189561007E+04  0.90103924372E+02 0.  0.
         11    1    3    3    0    0  0.51052459955E+02 -0.23312547999E+03 -0.10642723151E+04  0.10907013357E+04  0.00000000000E+00 0. -1.
        -11    1    3    3    0    0 -0.38915111543E+02 -0.13135384207E+03 -0.61313606317E+03  0.62825476495E+03  0.00000000000E+00 0.  1.
         22    1    1    2    0    0 -0.12137348412E+02  0.36447932206E+03  0.50928866795E+03  0.62639239997E+03  0.00000000000E+00 0.  1.
<mgrwt>
<rscale>  0 0.20337541E+04</rscale>
<asrwt>0</asrwt>
<pdfrwt beam="1">  1        2 0.27026679E+00 0.20337541E+04</pdfrwt>
<pdfrwt beam="2">  1       -2 0.90556060E-01 0.20337541E+04</pdfrwt>
<totfact> 0.88032504E+00</totfact>
</mgrwt>
</event>
<event>
 6    1  0.9906445E-006  0.1600510E+04  0.7818608E-02  0.8820235E-01
         -2   -1    0    0    0  501 -0.00000000000E+00  0.00000000000E+00  0.46734071776E+03  0.46734071776E+03  0.00000000000E+00 0.  1.
          2   -1    0    0  501    0  0.00000000000E+00 -0.00000000000E+00 -0.13703234802E+04  0.13703234802E+04  0.00000000000E+00 0. -1.
         23    2    1    2    0    0 -0.28911069711E+03 -0.18783256654E+03  0.37287009273E+03  0.51604905872E+03  0.91697637472E+02 0.  0.
         13    1    3    3    0    0 -0.21406582680E+03 -0.93749060055E+02  0.27533847865E+03  0.36114310500E+03  0.00000000000E+00 0. -1.
        -13    1    3    3    0    0 -0.75044870303E+02 -0.94083506487E+02  0.97531614081E+02  0.15490595372E+03  0.00000000000E+00 0.  1.
         22    1    1    2    0    0  0.28911069711E+03  0.18783256654E+03 -0.12758528552E+04  0.13216151392E+04  0.00000000000E+00 0. -1.
<mgrwt>
<rscale>  0 0.16005099E+04</rscale>
<asrwt>0</asrwt>
<pdfrwt beam="1">  1        2 0.21081899E+00 0.16005099E+04</pdfrwt>
<pdfrwt beam="2">  1       -2 0.71898573E-01 0.16005099E+04</pdfrwt>
<totfact> 0.25297645E+01</totfact>
</mgrwt>
</event>
<event>
 6    1  0.9906445E-006  0.1315981E+04  0.7818608E-02  0.9016987E-01
          2   -1    0    0  501    0  0.00000000000E+00  0.00000000000E+00  0.34694963620E+04  0.34694963620E+04  0.00000000000E+00 0. -1.
         -2   -1    0    0    0  501 -0.00000000000E+00 -0.00000000000E+00 -0.12478798589E+03  0.12478798589E+03  0.00000000000E+00 0.  1.
         23    2    1    2    0    0 -0.49148555575E+03  0.28180505790E+03  0.78349993058E+03  0.97116390771E+03  0.91186908380E+02 0.  0.
         13    1    3    3    0    0 -0.21432812077E+03  0.14579783015E+03  0.28916927404E+03  0.38834574760E+03  0.00000000000E+00 0.  1.
        -13    1    3    3    0    0 -0.27715743498E+03  0.13600722775E+03  0.49433065654E+03  0.58281816011E+03  0.00000000000E+00 0. -1.
         22    1    1    2    0    0  0.49148555575E+03 -0.28180505790E+03  0.25612084455E+04  0.26231204401E+04  0.00000000000E+00 0.  1.
<mgrwt>
<rscale>  0 0.13159809E+04</rscale>
<asrwt>0</asrwt>
<pdfrwt beam="1">  1        2 0.53376860E+00 0.13159809E+04</pdfrwt>
<pdfrwt beam="2">  1       -2 0.19198154E-01 0.13159809E+04</pdfrwt>
<totfact> 0.19579232E+01</totfact>
</mgrwt>
</event>
<event>
 6    1  0.9906445E-006  0.1846764E+04  0.7818608E-02  0.8681819E-01
          2   -1    0    0  501    0  0.00000000000E+00  0.00000000000E+00  0.43153148744E+03  0.43153148744E+03  0.00000000000E+00 0.  1.
         -2   -1    0    0    0  501 -0.00000000000E+00 -0.00000000000E+00 -0.19758327881E+04  0.19758327881E+04  0.00000000000E+00 0. -1.
         23    2    1    2    0    0  0.30384919358E+03  0.80483395783E+03 -0.12030840135E+04  0.14818853351E+04  0.92146464139E+02 0.  0.
         11    1    3    3    0    0  0.18233917452E+03  0.38180502731E+03 -0.53994575840E+03  0.68597673099E+03  0.00000000000E+00 0. -1.
        -11    1    3    3    0    0  0.12151001906E+03  0.42302893052E+03 -0.66313825506E+03  0.79590860412E+03  0.00000000000E+00 0.  1.
         22    1    1    2    0    0 -0.30384919358E+03 -0.80483395783E+03 -0.34121728720E+03  0.92547894044E+03  0.00000000000E+00 0. -1.
<mgrwt>
<rscale>  0 0.18467637E+04</rscale>
<asrwt>0</asrwt>
<pdfrwt beam="1">  1        2 0.66389459E-01 0.18467637E+04</pdfrwt>
<pdfrwt beam="2">  1       -2 0.30397428E+00 0.18467637E+04</pdfrwt>
<totfact> 0.20655246E+00</totfact>
</mgrwt>
</event>
<event>
 6    1  0.9906445E-006  0.2224058E+04  0.7818608E-02  0.8508481E-01
         -1   -1    0    0    0  501 -0.00000000000E+00  0.00000000000E+00  0.94721641310E+03  0.94721641310E+03  0.00000000000E+00 0.  1.
          1   -1    0    0  501    0  0.00000000000E+00 -0.00000000000E+00 -0.13055186285E+04  0.13055186285E+04  0.00000000000E+00 0. -1.
         23    2    1    2    0    0  0.95840092179E+03  0.18840510210E+03  0.35510992238E+03  0.10431955889E+04  0.90139726596E+02 0.  0.
         13    1    3    3    0    0  0.58969815951E+03  0.71374101334E+02  0.20932328916E+03  0.62980506592E+03  0.00000000000E+00 0. -1.
        -13    1    3    3    0    0  0.36870276228E+03  0.11703100077E+03  0.14578663322E+03  0.41339052297E+03  0.00000000000E+00 0.  1.
         22    1    1    2    0    0 -0.95840092179E+03 -0.18840510210E+03 -0.71341213783E+03  0.12095394528E+04  0.00000000000E+00 0. -1.
<mgrwt>
<rscale>  0 0.22240582E+04</rscale>
<asrwt>0</asrwt>
<pdfrwt beam="1">  1        1 0.20084902E+00 0.22240582E+04</pdfrwt>
<pdfrwt beam="2">  1       -1 0.14572560E+00 0.22240582E+04</pdfrwt>
<totfact> 0.30750948E+00</totfact>
</mgrwt>
</event>
<event>
 6    1  0.9906445E-006  0.2055023E+04  0.7818608E-02  0.8581319E-01
          2   -1    0    0  501    0  0.00000000000E+00  0.00000000000E+00  0.21335835862E+04  0.21335835862E+04  0.00000000000E+00 0. -1.
         -2   -1    0    0    0  501 -0.00000000000E+00 -0.00000000000E+00 -0.49483875351E+03  0.49483875351E+03  0.00000000000E+00 0.  1.
         23    2    1    2    0    0  0.75780741700E+03 -0.51503222719E+03  0.14098819101E+04  0.16840132580E+04  0.92754387716E+02 0.  0.
         11    1    3    3    0    0  0.37641815635E+03 -0.31175749530E+03  0.74518676903E+03  0.89117152392E+03  0.00000000000E+00 0. -1.
        -11    1    3    3    0    0  0.38138926065E+03 -0.20327473189E+03  0.66469514109E+03  0.79284173411E+03  0.00000000000E+00 0.  1.
         22    1    1    2    0    0 -0.75780741700E+03  0.51503222719E+03  0.22886292263E+03  0.94440908173E+03  0.00000000000E+00 0. -1.
<mgrwt>
<rscale>  0 0.20550230E+04</rscale>
<asrwt>0</asrwt>
<pdfrwt beam="1">  1        2 0.32824362E+00 0.20550230E+04</pdfrwt>
<pdfrwt beam="2">  1       -2 0.76129040E-01 0.20550230E+04</pdfrwt>
<totfact> 0.80386000E+00</totfact>
</mgrwt>
</event>
<event>
 6    1  0.9906445E-006  0.3530307E+04  0.7818608E-02  0.8106645E-01
         -1   -1    0    0    0  501 -0.00000000000E+00  0.00000000000E+00  0.26416184590E+04  0.26416184590E+04  0.00000000000E+00 0.  1.
          1   -1    0    0  501    0  0.00000000000E+00 -0.00000000000E+00 -0.11794918842E+04  0.11794918842E+04  0.00000000000E+00 0. -1.
         23    2    1    2    0    0  0.12748011132E+04  0.10333928510E+04  0.14317998916E+04  0.21797882022E+04  0.91689772179E+02 0.  0.
         13    1    3    3    0    0  0.16291621011E+03  0.16063433840E+03  0.23039966621E+03  0.32469845762E+03  0.00000000000E+00 0. -1.
        -13    1    3    3    0    0  0.11118849030E+04  0.87275851259E+03  0.12014002254E+04  0.18550897446E+04  0.00000000000E+00 0.  1.
         22    1    1    2    0    0 -0.12748011132E+04 -0.10333928510E+04  0.30326683210E+02  0.16413221409E+04  0.00000000000E+00 0. -1.
<mgrwt>
<rscale>  0 0.35303074E+04</rscale>
<asrwt>0</asrwt>
<pdfrwt beam="1">  1        1 0.18146029E+00 0.35303074E+04</pdfrwt>
<pdfrwt beam="2">  1       -1 0.40640284E+00 0.35303074E+04</pdfrwt>
<totfact> 0.58164642E-02</totfact>
</mgrwt>
</event>
<event>
 6    1  0.9906445E-006  0.1662505E+04  0.7818608E-02  0.8783043E-01
          2   -1    0    0  501    0  0.00000000000E+00  0.00000000000E+00  0.38551431245E+03  0.38551431245E+03  0.00000000000E+00 0. -1.
         -2   -1    0    0    0  501 -0.00000000000E+00 -0.00000000000E+00 -0.17923602999E+04  0.17923602999E+04  0.00000000000E+00 0.  1.
         23    2    1    2    0    0  0.35866641179E+02  0.15752369106E+03 -0.17702857081E+04  0.17801453580E+04  0.94370960133E+02 0.  0.
         13    1    3    3    0    0 -0.10954603746E+02  0.76869103803E+02 -0.45671593034E+03  0.46326914800E+03  0.00000000000E+00 0. -1.
        -13    1    3    3    0    0  0.46821244924E+02  0.80654587253E+02 -0.13135697778E+04  0.13168762100E+04  0.00000000000E+00 0.  1.
         22    1    1    2    0    0 -0.35866641179E+02 -0.15752369106E+03  0.36343972066E+03  0.39772925433E+03  0.00000000000E+00 0. -1.
<mgrwt>
<rscale>  0 0.16625048E+04</rscale>
<asrwt>0</asrwt>
<pdfrwt beam="1">  1        2 0.59309893E-01 0.16625048E+04</pdfrwt>
<pdfrwt beam="2">  1       -2 0.27574775E+00 0.16625048E+04</pdfrwt>
<totfact> 0.35411198E+00</totfact>
</mgrwt>
</event>
<event>
 6    1  0.9906445E-006  0.1798229E+04  0.7818608E-02  0.8707242E-01
          1   -1    0    0  501    0  0.00000000000E+00  0.00000000000E+00  0.11943316322E+04  0.11943316322E+04  0.00000000000E+00 0. -1.
         -1   -1    0    0    0  501 -0.00000000000E+00 -0.00000000000E+00 -0.67687006350E+03  0.67687006350E+03  0.00000000000E+00 0.  1.
         23    2    1    2    0    0 -0.64204883086E+02  0.77670592955E+03  0.72108642545E+03  0.10656848118E+04  0.91236599415E+02 0.  0.
         11    1    3    3    0    0 -0.81767144956E+02  0.52744555926E+03  0.46507178410E+03  0.70793816704E+03  0.00000000000E+00 0. -1.
        -11    1    3    3    0    0  0.17562261870E+02  0.24926037029E+03  0.25601464135E+03  0.35774664474E+03  0.00000000000E+00 0.  1.
         22    1    1    2    0    0  0.64204883086E+02 -0.77670592955E+03 -0.20362485674E+03  0.80551688393E+03  0.00000000000E+00 0.  1.
<mgrwt>
<rscale>  0 0.17982295E+04</rscale>
<asrwt>0</asrwt>
<pdfrwt beam="1">  1        1 0.18374333E+00 0.17982295E+04</pdfrwt>
<pdfrwt beam="2">  1       -1 0.10413386E+00 0.17982295E+04</pdfrwt>
<totfact> 0.88380299E+00</totfact>
</mgrwt>
</event>
<event>
 6    1  0.9906445E-006  0.1074590E+04  0.7818608E-02  0.9230318E-01
         -1   -1    0    0    0  501 -0.00000000000E+00  0.00000000000E+00  0.26857544090E+03  0.26857544090E+03  0.00000000000E+00 0.  1.
          1   -1    0    0  501    0  0.00000000000E+00 -0.00000000000E+00 -0.10748780568E+04  0.10748780568E+04  0.00000000000E+00 0. -1.
         23    2    1    2    0    0  0.95743821627E+02 -0.15970563392E+03 -0.10310011028E+04  0.10516279010E+04  0.91023071174E+02 0.  0.
         11    1    3    3    0    0  0.91171355192E+02 -0.10514250737E+03 -0.54241174334E+03  0.55998005516E+03  0.00000000000E+00 0. -1.
        -11    1    3    3    0    0  0.45724664350E+01 -0.54563126544E+02 -0.48858935942E+03  0.49164784589E+03  0.00000000000E+00 0.  1.
         22    1    1    2    0    0 -0.95743821627E+02  0.15970563392E+03  0.22469848684E+03  0.29182559667E+03  0.00000000000E+00 0.  1.
<mgrwt>
<rscale>  0 0.10745899E+04</rscale>
<asrwt>0</asrwt>
<pdfrwt beam="1">  1        1 0.16536586E+00 0.10745899E+04</pdfrwt>
<pdfrwt beam="2">  1       -1 0.41319298E-01 0.10745899E+04</pdfrwt>
<totfact> 0.75810624E+01</totfact>
</mgrwt>
</event>
<event>
 6    1  0.9906445E-006  0.3559938E+04  0.7818608E-02  0.8099731E-01
          1   -1    0    0  501    0  0.00000000000E+00  0.00000000000E+00  0.28428512744E+04  0.28428512744E+04  0.00000000000E+00 0. -1.
         -1   -1    0    0    0  501 -0.00000000000E+00 -0.00000000000E+00 -0.11144758621E+04  0.11144758621E+04  0.00000000000E+00 0.  1.
         23    2    1    2    0    0 -0.11294835152E+03  0.76793635993E+03  0.26439391646E+04  0.27570186063E+04  0.90849912216E+02 0.  0.
         13    1    3    3    0    0 -0.12709982244E+03  0.64570545615E+03  0.21964106529E+04  0.22928823906E+04  0.00000000000E+00 0. -1.
        -13    1    3    3    0    0  0.14151470920E+02  0.12223090378E+03  0.44752851168E+03  0.46413621571E+03  0.00000000000E+00 0.  1.
         22    1    1    2    0    0  0.11294835152E+03 -0.76793635993E+03 -0.91556375228E+03  0.12003085301E+04  0.00000000000E+00 0.  1.
<mgrwt>
<rscale>  0 0.35599377E+04</rscale>
<asrwt>0</asrwt>
<pdfrwt beam="1">  1        1 0.43736173E+00 0.35599377E+04</pdfrwt>
<pdfrwt beam="2">  1       -1 0.17145783E+00 0.35599377E+04</pdfrwt>
<totfact> 0.15126854E-01</totfact>
</mgrwt>
</event>
<event>
 6    1  0.9906445E-006  0.3269671E+04  0.7818608E-02  0.8170656E-01
          1   -1    0    0  501    0  0.00000000000E+00  0.00000000000E+00  0.15057854243E+04  0.15057854243E+04  0.00000000000E+00 0. -1.
         -1   -1    0    0    0  501 -0.00000000000E+00 -0.00000000000E+00 -0.17749457128E+04  0.17749457128E+04  0.00000000000E+00 0.  1.
         23    2    1    2    0    0 -0.40052287971E+03 -0.11560666455E+03  0.14495524765E+04  0.15121845454E+04  0.10824157871E+03 0.  0.
         11    1    3    3    0    0 -0.14102518449E+03  0.11163586803E+02  0.44559501746E+03  0.46751219013E+03  0.00000000000E+00 0. -1.
        -11    1    3    3    0    0 -0.25949769521E+03 -0.12677025135E+03  0.10039574590E+04  0.10446723553E+04  0.00000000000E+00 0.  1.
         22    1    1    2    0    0  0.40052287971E+03  0.11560666455E+03 -0.17187127650E+04  0.17685465916E+04  0.00000000000E+00 0.  1.
<mgrwt>
<rscale>  0 0.32696712E+04</rscale>
<asrwt>0</asrwt>
<pdfrwt beam="1">  1        1 0.23165930E+00 0.32696712E+04</pdfrwt>
<pdfrwt beam="2">  1       -1 0.27306857E+00 0.32696712E+04</pdfrwt>
<totfact> 0.26605152E-01</totfact>
</mgrwt>
</event>
<event>
 6    1  0.9906445E-006  0.2448982E+04  0.7818608E-02  0.8421390E-01
          4   -1    0    0  501    0  0.00000000000E+00  0.00000000000E+00  0.10532026442E+04  0.10532026442E+04  0.00000000000E+00 0. -1.
         -4   -1    0    0    0  501 -0.00000000000E+00 -0.00000000000E+00 -0.14236369779E+04  0.14236369779E+04  0.00000000000E+00 0.  1.
         23    2    1    2    0    0 -0.88532560502E+03 -0.50082521793E+03 -0.87182757700E+03  0.13428102970E+04  0.91808736051E+02 0.  0.
         13    1    3    3    0    0 -0.55027002612E+03 -0.27058831474E+03 -0.48760427489E+03  0.78343670236E+03  0.00000000000E+00 0.  1.
        -13    1    3    3    0    0 -0.33505557890E+03 -0.23023690319E+03 -0.38422330211E+03  0.55937359468E+03  0.00000000000E+00 0. -1.
         22    1    1    2    0    0  0.88532560502E+03  0.50082521793E+03  0.50139324329E+03  0.11340293251E+04  0.00000000000E+00 0. -1.
<mgrwt>
<rscale>  0 0.24489820E+04</rscale>
<asrwt>0</asrwt>
<pdfrwt beam="1">  1        4 0.16203118E+00 0.24489820E+04</pdfrwt>
<pdfrwt beam="2">  1       -4 0.21902107E+00 0.24489820E+04</pdfrwt>
<totfact> 0.42743510E-02</totfact>
</mgrwt>
</event>
<event>
 6    1  0.9906445E-006  0.2458243E+04  0.7818608E-02  0.8418015E-01
         -2   -1    0    0    0  501 -0.00000000000E+00  0.00000000000E+00  0.77477032770E+03  0.77477032770E+03  0.00000000000E+00 0.  1.
          2   -1    0    0  501    0  0.00000000000E+00 -0.00000000000E+00 -0.19499187368E+04  0.19499187368E+04  0.00000000000E+00 0. -1.
         23    2    1    2    0    0  0.11080146398E+04  0.11622623745E+02 -0.31954540426E+01  0.11118328228E+04  0.91271504879E+02 0.  0.
         13    1    3    3    0    0  0.63674679159E+03  0.50996737020E+02  0.66572822154E+01  0.63882036848E+03  0.00000000000E+00 0. -1.
        -13    1    3    3    0    0  0.47126784822E+03 -0.39374113275E+02 -0.98527362580E+01  0.47301245435E+03  0.00000000000E+00 0.  1.
         22    1    1    2    0    0 -0.11080146398E+04 -0.11622623745E+02 -0.11719529550E+04  0.16128562417E+04  0.00000000000E+00 0. -1.
<mgrwt>
<rscale>  0 0.24582426E+04</rscale>
<asrwt>0</asrwt>
<pdfrwt beam="1">  1        2 0.29998750E+00 0.24582426E+04</pdfrwt>
<pdfrwt beam="2">  1       -2 0.11919544E+00 0.24582426E+04</pdfrwt>
<totfact> 0.34425049E+00</totfact>
</mgrwt>
</event>
<event>
 6    1  0.9906445E-006  0.5088880E+04  0.7818608E-02  0.7814941E-01
         -1   -1    0    0    0  501 -0.00000000000E+00  0.00000000000E+00  0.14977596325E+04  0.14977596325E+04  0.00000000000E+00 0. -1.
          1   -1    0    0  501    0  0.00000000000E+00 -0.00000000000E+00 -0.43225718855E+04  0.43225718855E+04  0.00000000000E+00 0.  1.
         23    2    1    2    0    0 -0.20126538817E+04 -0.13539477188E+04 -0.53796512308E+03  0.24866218922E+04  0.99658859713E+02 0.  0.
         11    1    3    3    0    0 -0.74241014683E+03 -0.55775842450E+03 -0.20383481511E+03  0.95069233618E+03  0.00000000000E+00 0. -1.
        -11    1    3    3    0    0 -0.12702437349E+04 -0.79618929428E+03 -0.33413030797E+03  0.15359295560E+04  0.00000000000E+00 0.  1.
         22    1    1    2    0    0  0.20126538817E+04  0.13539477188E+04 -0.22868471299E+04  0.33337096257E+04  0.00000000000E+00 0. -1.
<mgrwt>
<rscale>  0 0.50888795E+04</rscale>
<asrwt>0</asrwt>
<pdfrwt beam="1">  1        1 0.66501105E+00 0.50888795E+04</pdfrwt>
<pdfrwt beam="2">  1       -1 0.23042456E+00 0.50888795E+04</pdfrwt>
<totfact> 0.32345053E-03</totfact>
</mgrwt>
</event>
<event>
 6    1  0.9906445E-006  0.1863349E+04  0.7818608E-02  0.8673318E-01
         -2   -1    0    0    0  501 -0.00000000000E+00  0.00000000000E+00  0.86571445031E+03  0.86571445031E+03  0.00000000000E+00 0. -1.
          2   -1    0    0  501    0  0.00000000000E+00 -0.00000000000E+00 -0.10026605332E+04  0.10026605332E+04  0.00000000000E+00 0.  1.
         23    2    1    2    0    0  0.59348394707E+02 -0.88009080678E+03  0.22515640274E+03  0.91485504652E+03  0.90456013163E+02 0.  0.
         11    1    3    3    0    0  0.50288806298E+02 -0.41201256564E+03  0.14627331242E+03  0.44008999104E+03  0.00000000000E+00 0. -1.
        -11    1    3    3    0    0  0.90595884094E+01 -0.46807824114E+03  0.78883090319E+02  0.47476505548E+03  0.00000000000E+00 0.  1.
         22    1    1    2    0    0 -0.59348394707E+02  0.88009080678E+03 -0.36210248561E+03  0.95351993698E+03  0.00000000000E+00 0.  1.
<mgrwt>
<rscale>  0 0.18633494E+04</rscale>
<asrwt>0</asrwt>
<pdfrwt beam="1">  1        2 0.15425547E+00 0.18633494E+04</pdfrwt>
<pdfrwt beam="2">  1       -2 0.13318684E+00 0.18633494E+04</pdfrwt>
<totfact> 0.96238940E+00</totfact>
</mgrwt>
</event>
<event>
 6    1  0.9906445E-006  0.2648538E+04  0.7818608E-02  0.8351898E-01
          1   -1    0    0  501    0  0.00000000000E+00  0.00000000000E+00  0.22666205103E+04  0.22666205103E+04  0.00000000000E+00 0. -1.
         -1   -1    0    0    0  501 -0.00000000000E+00 -0.00000000000E+00 -0.77370187986E+03  0.77370187986E+03  0.00000000000E+00 0.  1.
         23    2    1    2    0    0 -0.71587406833E+02  0.12829004559E+04  0.11082474634E+04  0.16990803377E+04  0.87767975261E+02 0.  0.
         11    1    3    3    0    0 -0.34868858994E+02  0.35621474760E+03  0.35760257102E+03  0.50594899203E+03  0.00000000000E+00 0.  1.
        -11    1    3    3    0    0 -0.36718547840E+02  0.92668570826E+03  0.75064489240E+03  0.11931313457E+04  0.00000000000E+00 0. -1.
         22    1    1    2    0    0  0.71587406833E+02 -0.12829004559E+04  0.38467116703E+03  0.13412420524E+04  0.00000000000E+00 0.  1.
<mgrwt>
<rscale>  0 0.26485381E+04</rscale>
<asrwt>0</asrwt>
<pdfrwt beam="1">  1        1 0.34871085E+00 0.26485381E+04</pdfrwt>
<pdfrwt beam="2">  1       -1 0.11903106E+00 0.26485381E+04</pdfrwt>
<totfact> 0.10861973E+00</totfact>
</mgrwt>
</event>
<event>
 6    1  0.9906445E-006  0.1119200E+04  0.7818608E-02  0.9186678E-01
          1   -1    0    0  501    0  0.00000000000E+00  0.00000000000E+00  0.17209096915E+04  0.17209096915E+04  0.00000000000E+00 0. -1.
         -1   -1    0    0    0  501 -0.00000000000E+00 -0.00000000000E+00 -0.18196891349E+03  0.18196891349E+03  0.00000000000E+00 0.  1.
         23    2    1    2    0    0  0.82176856130E+02  0.52344942038E+03  0.10598811660E+04  0.11885604383E+04  0.92603985043E+02 0.  0.
         13    1    3    3    0    0  0.61570875986E+02  0.22398255650E+03  0.38021067811E+03  0.44555506745E+03  0.00000000000E+00 0. -1.
        -13    1    3    3    0    0  0.20605980144E+02  0.29946686389E+03  0.67967048793E+03  0.74300537087E+03  0.00000000000E+00 0.  1.
         22    1    1    2    0    0 -0.82176856130E+02 -0.52344942038E+03  0.47905961194E+03  0.71431816663E+03  0.00000000000E+00 0.  1.
<mgrwt>
<rscale>  0 0.11191998E+04</rscale>
<asrwt>0</asrwt>
<pdfrwt beam="1">  1        1 0.26475533E+00 0.11191998E+04</pdfrwt>
<pdfrwt beam="2">  1       -1 0.27995219E-01 0.11191998E+04</pdfrwt>
<totfact> 0.52898596E+01</totfact>
</mgrwt>
</event>
<event>
 6    1  0.9906445E-006  0.9816688E+03  0.7818608E-02  0.9328882E-01
          2   -1    0    0  501    0  0.00000000000E+00  0.00000000000E+00  0.63819743536E+03  0.63819743536E+03  0.00000000000E+00 0. -1.
         -2   -1    0    0    0  501 -0.00000000000E+00 -0.00000000000E+00 -0.37749821446E+03  0.37749821446E+03  0.00000000000E+00 0.  1.
         23    2    1    2    0    0  0.37936469810E+03 -0.27810622705E+03  0.26585503383E+03  0.54528388328E+03  0.73450436828E+02 0.  0.
         11    1    3    3    0    0  0.20905345774E+03 -0.10881610065E+03  0.14085985456E+03  0.27456472931E+03  0.00000000000E+00 0.  1.
        -11    1    3    3    0    0  0.17031124036E+03 -0.16929012640E+03  0.12499517926E+03  0.27071915397E+03  0.00000000000E+00 0. -1.
         22    1    1    2    0    0 -0.37936469810E+03  0.27810622705E+03 -0.51558129233E+01  0.47041176654E+03  0.00000000000E+00 0. -1.
<mgrwt>
<rscale>  0 0.98166877E+03</rscale>
<asrwt>0</asrwt>
<pdfrwt beam="1">  1        2 0.98184221E-01 0.98166877E+03</pdfrwt>
<pdfrwt beam="2">  1       -2 0.58076649E-01 0.98166877E+03</pdfrwt>
<totfact> 0.12757761E+02</totfact>
</mgrwt>
</event>
<event>
 6    1  0.9906445E-006  0.4013812E+04  0.7818608E-02  0.8001766E-01
         -2   -1    0    0    0  501 -0.00000000000E+00  0.00000000000E+00  0.15603729673E+04  0.15603729673E+04  0.00000000000E+00 0.  1.
          2   -1    0    0  501    0  0.00000000000E+00 -0.00000000000E+00 -0.25812239287E+04  0.25812239287E+04  0.00000000000E+00 0. -1.
         23    2    1    2    0    0 -0.48929507896E+03 -0.10826661276E+04 -0.21783265483E+04  0.24828849402E+04  0.89640711942E+02 0.  0.
         13    1    3    3    0    0 -0.19756009442E+03 -0.54271972968E+03 -0.10786054717E+04  0.12235049896E+04  0.00000000000E+00 0.  1.
        -13    1    3    3    0    0 -0.29173498454E+03 -0.53994639787E+03 -0.10997210766E+04  0.12593799506E+04  0.00000000000E+00 0. -1.
         22    1    1    2    0    0  0.48929507896E+03  0.10826661276E+04  0.11574755869E+04  0.16587119558E+04  0.00000000000E+00 0.  1.
<mgrwt>
<rscale>  0 0.40138122E+04</rscale>
<asrwt>0</asrwt>
<pdfrwt beam="1">  1        2 0.39711137E+00 0.40138122E+04</pdfrwt>
<pdfrwt beam="2">  1       -2 0.24005738E+00 0.40138122E+04</pdfrwt>
<totfact> 0.18204588E-01</totfact>
</mgrwt>
</event>
<event>
 6    1  0.9906445E-006  0.1609577E+04  0.7818608E-02  0.8814686E-01
          2   -1    0    0  501    0  0.00000000000E+00  0.00000000000E+00  0.34779043986E+04  0.34779043986E+04  0.00000000000E+00 0. -1.
         -2   -1    0    0    0  501 -0.00000000000E+00 -0.00000000000E+00 -0.18622842364E+03  0.18622842364E+03  0.00000000000E+00 0.  1.
         23    2    1    2    0    0  0.67329864505E+03  0.29504309952E+03  0.92171166625E+03  0.11827799008E+04  0.95049472015E+02 0.  0.
         11    1    3    3    0    0  0.47591627774E+03  0.25189198745E+03  0.64667324291E+03  0.84150588818E+03  0.00000000000E+00 0. -1.
        -11    1    3    3    0    0  0.19738236731E+03  0.43151112064E+02  0.27503842335E+03  0.34127401266E+03  0.00000000000E+00 0.  1.
         22    1    1    2    0    0 -0.67329864505E+03 -0.29504309952E+03  0.23699643087E+04  0.24813529214E+04  0.00000000000E+00 0. -1.
<mgrwt>
<rscale>  0 0.16095772E+04</rscale>
<asrwt>0</asrwt>
<pdfrwt beam="1">  1        2 0.53506217E+00 0.16095772E+04</pdfrwt>
<pdfrwt beam="2">  1       -2 0.28650529E-01 0.16095772E+04</pdfrwt>
<totfact> 0.91211966E+00</totfact>
</mgrwt>
</event>
<event>
 6    1  0.9906445E-006  0.2569944E+04  0.7818608E-02  0.8378483E-01
         -2   -1    0    0    0  501 -0.00000000000E+00  0.00000000000E+00  0.97461783784E+03  0.97461783784E+03  0.00000000000E+00 0.  1.
          2   -1    0    0  501    0  0.00000000000E+00 -0.00000000000E+00 -0.16941537853E+04  0.16941537853E+04  0.00000000000E+00 0. -1.
         23    2    1    2    0    0 -0.66319211744E+03  0.78050539509E+03  0.44283199617E+03  0.11195422364E+04  0.90896566683E+02 0.  0.
         13    1    3    3    0    0 -0.43379109970E+03  0.56142910402E+03  0.33409218569E+03  0.78421613447E+03  0.00000000000E+00 0.  1.
        -13    1    3    3    0    0 -0.22940101774E+03  0.21907629107E+03  0.10873981048E+03  0.33532610193E+03  0.00000000000E+00 0. -1.
         22    1    1    2    0    0  0.66319211744E+03 -0.78050539509E+03 -0.11623679437E+04  0.15492293868E+04  0.00000000000E+00 0. -1.
<mgrwt>
<rscale>  0 0.25699436E+04</rscale>
<asrwt>0</asrwt>
<pdfrwt beam="1">  1        2 0.26063904E+00 0.25699436E+04</pdfrwt>
<pdfrwt beam="2">  1       -2 0.14994121E+00 0.25699436E+04</pdfrwt>
<totfact> 0.26283358E+00</totfact>
</mgrwt>
</event>
<event>
 6    1  0.9906445E-006  0.1583311E+04  0.7818608E-02  0.8830867E-01
          2   -1    0    0  501    0  0.00000000000E+00  0.00000000000E+00  0.99075356052E+03  0.99075356052E+03  0.00000000000E+00 0. -1.
         -2   -1    0    0    0  501 -0.00000000000E+00 -0.00000000000E+00 -0.63256744621E+03  0.63256744621E+03  0.00000000000E+00 0.  1.
         23    2    1    2    0    0  0.42604864938E+03 -0.65750246085E+03  0.83496254390E+02  0.79309124528E+03  0.90527129500E+02 0.  0.
         11    1    3    3    0    0  0.12387390064E+03 -0.18129437658E+03 -0.16953064632E+02  0.22022670283E+03  0.00000000000E+00 0.  1.
        -11    1    3    3    0    0  0.30217474874E+03 -0.47620808427E+03  0.10044931902E+03  0.57286454245E+03  0.00000000000E+00 0. -1.
         22    1    1    2    0    0 -0.42604864938E+03  0.65750246085E+03  0.27468985992E+03  0.83022976146E+03  0.00000000000E+00 0.  1.
<mgrwt>
<rscale>  0 0.15833110E+04</rscale>
<asrwt>0</asrwt>
<pdfrwt beam="1">  1        2 0.15242363E+00 0.15833110E+04</pdfrwt>
<pdfrwt beam="2">  1       -2 0.97318068E-01 0.15833110E+04</pdfrwt>
<totfact> 0.21599974E+01</totfact>
</mgrwt>
</event>
<event>
 6    1  0.9906445E-006  0.2463957E+04  0.7818608E-02  0.8415940E-01
          3   -1    0    0  501    0  0.00000000000E+00  0.00000000000E+00  0.22063724474E+04  0.22063724474E+04  0.00000000000E+00 0. -1.
         -3   -1    0    0    0  501 -0.00000000000E+00 -0.00000000000E+00 -0.68790320074E+03  0.68790320074E+03  0.00000000000E+00 0.  1.
         23    2    1    2    0    0 -0.27263228226E+03  0.90073470399E+03 -0.17077822250E+03  0.96057236677E+03  0.88784583232E+02 0.  0.
         13    1    3    3    0    0  0.19798688565E+01  0.46622972289E+02  0.28550751379E+01  0.46752249997E+02  0.00000000000E+00 0.  1.
        -13    1    3    3    0    0 -0.27461215112E+03  0.85411173170E+03 -0.17363329764E+03  0.91382011678E+03  0.00000000000E+00 0. -1.
         22    1    1    2    0    0  0.27263228226E+03 -0.90073470399E+03  0.16892474692E+04  0.19337032814E+04  0.00000000000E+00 0. -1.
<mgrwt>
<rscale>  0 0.24639567E+04</rscale>
<asrwt>0</asrwt>
<pdfrwt beam="1">  1        3 0.33944191E+00 0.24639567E+04</pdfrwt>
<pdfrwt beam="2">  1       -3 0.10583126E+00 0.24639567E+04</pdfrwt>
<totfact> 0.41947637E-02</totfact>
</mgrwt>
</event>
<event>
 6    1  0.9906445E-006  0.3146459E+04  0.7818608E-02  0.8203102E-01
          1   -1    0    0  501    0  0.00000000000E+00  0.00000000000E+00  0.28305988663E+04  0.28305988663E+04  0.00000000000E+00 0. -1.
         -1   -1    0    0    0  501 -0.00000000000E+00 -0.00000000000E+00 -0.87439149626E+03  0.87439149626E+03  0.00000000000E+00 0.  1.
         23    2    1    2    0    0  0.11189156288E+04 -0.57371840332E+03 -0.13176843239E+03  0.12676213010E+04  0.91519682203E+02 0.  0.
         13    1    3    3    0    0  0.43947454215E+03 -0.23634743682E+03 -0.96284861265E+02  0.50820149410E+03  0.00000000000E+00 0. -1.
        -13    1    3    3    0    0  0.67944108667E+03 -0.33737096650E+03 -0.35483571127E+02  0.75941980690E+03  0.00000000000E+00 0.  1.
         22    1    1    2    0    0 -0.11189156288E+04  0.57371840332E+03  0.20879758024E+04  0.24373690616E+04  0.00000000000E+00 0. -1.
<mgrwt>
<rscale>  0 0.31464593E+04</rscale>
<asrwt>0</asrwt>
<pdfrwt beam="1">  1        1 0.43547674E+00 0.31464593E+04</pdfrwt>
<pdfrwt beam="2">  1       -1 0.13452177E+00 0.31464593E+04</pdfrwt>
<totfact> 0.30941337E-01</totfact>
</mgrwt>
</event>
<event>
 6    1  0.1175532E-005  0.2631092E+04  0.7818608E-02  0.8357716E-01
         -2   -1    0    0    0  501 -0.00000000000E+00  0.00000000000E+00  0.87726489619E+03  0.87726489619E+03  0.00000000000E+00 0. -1.
          2   -1    0    0  501    0  0.00000000000E+00 -0.00000000000E+00 -0.19727926023E+04  0.19727926023E+04  0.00000000000E+00 0.  1.
         23    2    1    2    0    0 -0.11854892269E+03 -0.44165294278E+03  0.78588450186E+03  0.91386973249E+03  0.91827385696E+02 0.  0.
         13    1    3    3    0    0 -0.28329083670E+02 -0.25757625718E+03  0.48323077112E+03  0.54832476089E+03  0.00000000000E+00 0.  1.
        -13    1    3    3    0    0 -0.90219839025E+02 -0.18407668560E+03  0.30265373074E+03  0.36554497160E+03  0.00000000000E+00 0. -1.
         22    1    1    2    0    0  0.11854892269E+03  0.44165294278E+03 -0.18814122080E+04  0.19361877660E+04  0.00000000000E+00 0.  1.
<mgrwt>
<rscale>  0 0.26310923E+04</rscale>
<asrwt>0</asrwt>
<pdfrwt beam="1">  1        2 0.30350655E+00 0.26310923E+04</pdfrwt>
<pdfrwt beam="2">  1       -2 0.13496383E+00 0.26310923E+04</pdfrwt>
<totfact> 0.24098510E+00</totfact>
</mgrwt>
</event>
<event>
 6    1  0.9906445E-006  0.2357697E+04  0.7818608E-02  0.8455513E-01
          2   -1    0    0  501    0  0.00000000000E+00  0.00000000000E+00  0.96307261936E+03  0.96307261936E+03  0.00000000000E+00 0. -1.
         -2   -1    0    0    0  501 -0.00000000000E+00 -0.00000000000E+00 -0.14429683536E+04  0.14429683536E+04  0.00000000000E+00 0.  1.
         23    2    1    2    0    0 -0.46875519760E+02  0.99640368101E+03  0.39751302412E+03  0.10775592308E+04  0.89998231796E+02 0.  0.
         11    1    3    3    0    0  0.98980298997E+01  0.40550745263E+03  0.19747239570E+03  0.45114256306E+03  0.00000000000E+00 0. -1.
        -11    1    3    3    0    0 -0.56773549660E+02  0.59089622838E+03  0.20004062842E+03  0.62641666778E+03  0.00000000000E+00 0.  1.
         22    1    1    2    0    0  0.46875519760E+02 -0.99640368101E+03 -0.87740875834E+03  0.13284817421E+04  0.00000000000E+00 0.  1.
<mgrwt>
<rscale>  0 0.23576966E+04</rscale>
<asrwt>0</asrwt>
<pdfrwt beam="1">  1        2 0.14816502E+00 0.23576966E+04</pdfrwt>
<pdfrwt beam="2">  1       -2 0.22199513E+00 0.23576966E+04</pdfrwt>
<totfact> 0.23053365E+00</totfact>
</mgrwt>
</event>
<event>
 6    1  0.9906445E-006  0.4056425E+04  0.7818608E-02  0.7993260E-01
         -2   -1    0    0    0  501 -0.00000000000E+00  0.00000000000E+00  0.15749192970E+04  0.15749192970E+04  0.00000000000E+00 0.  1.
          2   -1    0    0  501    0  0.00000000000E+00 -0.00000000000E+00 -0.26119721891E+04  0.26119721891E+04  0.00000000000E+00 0. -1.
         23    2    1    2    0    0  0.28950788390E+03  0.14698645650E+04  0.89087245850E+03  0.17453319820E+04  0.90627456241E+02 0.  0.
         11    1    3    3    0    0  0.26569493825E+03  0.12209325078E+04  0.76855271939E+03  0.14669503302E+04  0.00000000000E+00 0. -1.
        -11    1    3    3    0    0  0.23812945653E+02  0.24893205725E+03  0.12231973911E+03  0.27838165184E+03  0.00000000000E+00 0.  1.
         22    1    1    2    0    0 -0.28950788390E+03 -0.14698645650E+04 -0.19279253506E+04  0.24415595040E+04  0.00000000000E+00 0. -1.
<mgrwt>
<rscale>  0 0.40564247E+04</rscale>
<asrwt>0</asrwt>
<pdfrwt beam="1">  1        2 0.40184187E+00 0.40564247E+04</pdfrwt>
<pdfrwt beam="2">  1       -2 0.24229528E+00 0.40564247E+04</pdfrwt>
<totfact> 0.16856534E-01</totfact>
</mgrwt>
</event>
<event>
 6    1  0.9906445E-006  0.3155512E+04  0.7818608E-02  0.8200666E-01
         -1   -1    0    0    0  501 -0.00000000000E+00  0.00000000000E+00  0.10137283721E+04  0.10137283721E+04  0.00000000000E+00 0.  1.
          1   -1    0    0  501    0  0.00000000000E+00 -0.00000000000E+00 -0.24556025245E+04  0.24556025245E+04  0.00000000000E+00 0. -1.
         23    2    1    2    0    0 -0.74983215296E+03  0.10810002768E+03 -0.22418349977E+04  0.23675726528E+04  0.75114819663E+02 0.  0.
         13    1    3    3    0    0 -0.20051984237E+03  0.39432717548E+01 -0.52562920740E+03  0.56259205492E+03  0.00000000000E+00 0. -1.
        -13    1    3    3    0    0 -0.54931231058E+03  0.10415675593E+03 -0.17162057903E+04  0.18049805979E+04  0.00000000000E+00 0.  1.
         22    1    1    2    0    0  0.74983215296E+03 -0.10810002768E+03  0.79996084532E+03  0.11017582437E+04  0.00000000000E+00 0.  1.
<mgrwt>
<rscale>  0 0.31555120E+04</rscale>
<asrwt>0</asrwt>
<pdfrwt beam="1">  1        1 0.37778500E+00 0.31555120E+04</pdfrwt>
<pdfrwt beam="2">  1       -1 0.15595821E+00 0.31555120E+04</pdfrwt>
<totfact> 0.38307916E-01</totfact>
</mgrwt>
</event>
<event>
 6    1  0.9906445E-006  0.2300995E+04  0.7818608E-02  0.8477529E-01
         -2   -1    0    0    0  501 -0.00000000000E+00  0.00000000000E+00  0.61512406086E+03  0.61512406086E+03  0.00000000000E+00 0.  1.
          2   -1    0    0  501    0  0.00000000000E+00 -0.00000000000E+00 -0.21518330386E+04  0.21518330386E+04  0.00000000000E+00 0. -1.
         23    2    1    2    0    0 -0.41925496827E+03 -0.10391719112E+04 -0.46592638092E+03  0.12170447280E+04  0.91964602817E+02 0.  0.
         11    1    3    3    0    0 -0.29340740544E+03 -0.82527730140E+03 -0.35185746266E+03  0.94391429897E+03  0.00000000000E+00 0. -1.
        -11    1    3    3    0    0 -0.12584756283E+03 -0.21389460980E+03 -0.11406891826E+03  0.27313042907E+03  0.00000000000E+00 0.  1.
         22    1    1    2    0    0  0.41925496827E+03  0.10391719112E+04 -0.10707825968E+04  0.15499123714E+04  0.00000000000E+00 0. -1.
<mgrwt>
<rscale>  0 0.23009948E+04</rscale>
<asrwt>0</asrwt>
<pdfrwt beam="1">  1        2 0.33105124E+00 0.23009948E+04</pdfrwt>
<pdfrwt beam="2">  1       -2 0.94634471E-01 0.23009948E+04</pdfrwt>
<totfact> 0.46849898E+00</totfact>
</mgrwt>
</event>
<event>
 6    1  0.9906445E-006  0.3336210E+04  0.7818608E-02  0.8153742E-01
          2   -1    0    0  501    0  0.00000000000E+00  0.00000000000E+00  0.24481465102E+04  0.24481465102E+04  0.00000000000E+00 0. -1.
         -2   -1    0    0    0  501 -0.00000000000E+00 -0.00000000000E+00 -0.11366043782E+04  0.11366043782E+04  0.00000000000E+00 0.  1.
         23    2    1    2    0    0 -0.15271297319E+04  0.59044281979E+03  0.32025275994E+03  0.16707491746E+04  0.89961283484E+02 0.  0.
         11    1    3    3    0    0 -0.22531116129E+03  0.61523180405E+02  0.66643345118E+02  0.24288177489E+03  0.00000000000E+00 0.  1.
        -11    1    3    3    0    0 -0.13018185706E+04  0.52891963938E+03  0.25360941482E+03  0.14278673997E+04  0.00000000000E+00 0. -1.
         22    1    1    2    0    0  0.15271297319E+04 -0.59044281979E+03  0.99128937200E+03  0.19140017138E+04  0.00000000000E+00 0. -1.
<mgrwt>
<rscale>  0 0.33362099E+04</rscale>
<asrwt>0</asrwt>
<pdfrwt beam="1">  1        2 0.37663792E+00 0.33362099E+04</pdfrwt>
<pdfrwt beam="2">  1       -2 0.17486221E+00 0.33362099E+04</pdfrwt>
<totfact> 0.61158104E-01</totfact>
</mgrwt>
</event>
<event>
 6    1  0.9906445E-006  0.2328103E+04  0.7818608E-02  0.8466922E-01
          2   -1    0    0  501    0  0.00000000000E+00  0.00000000000E+00  0.20474857614E+04  0.20474857614E+04  0.00000000000E+00 0. -1.
         -2   -1    0    0    0  501 -0.00000000000E+00 -0.00000000000E+00 -0.66179486548E+03  0.66179486548E+03  0.00000000000E+00 0.  1.
         23    2    1    2    0    0 -0.35105328738E+03 -0.80535810356E+03 -0.19156797636E+03  0.90384836958E+03  0.91670606451E+02 0.  0.
         11    1    3    3    0    0 -0.19965098198E+03 -0.53399738021E+03 -0.91517094573E+02  0.57739855843E+03  0.00000000000E+00 0. -1.
        -11    1    3    3    0    0 -0.15140230540E+03 -0.27136072334E+03 -0.10005088179E+03  0.32644981115E+03  0.00000000000E+00 0.  1.
         22    1    1    2    0    0  0.35105328738E+03  0.80535810356E+03  0.15772588723E+04  0.18054322573E+04  0.00000000000E+00 0. -1.
<mgrwt>
<rscale>  0 0.23281027E+04</rscale>
<asrwt>0</asrwt>
<pdfrwt beam="1">  1        2 0.31499781E+00 0.23281027E+04</pdfrwt>
<pdfrwt beam="2">  1       -2 0.10181460E+00 0.23281027E+04</pdfrwt>
<totfact> 0.44995930E+00</totfact>
</mgrwt>
</event>
<event>
 6    1  0.9906445E-006  0.2119477E+04  0.7818608E-02  0.8552712E-01
         -1   -1    0    0    0  501 -0.00000000000E+00  0.00000000000E+00  0.70218404854E+03  0.70218404854E+03  0.00000000000E+00 0.  1.
          1   -1    0    0  501    0  0.00000000000E+00 -0.00000000000E+00 -0.15993610326E+04  0.15993610326E+04  0.00000000000E+00 0. -1.
         23    2    1    2    0    0  0.83073534104E+03  0.40858473561E+03  0.10590846439E+03  0.93653844750E+03  0.93941299709E+02 0.  0.
         13    1    3    3    0    0  0.56555721676E+03  0.31090791574E+03  0.10546213294E+03  0.65394262668E+03  0.00000000000E+00 0.  1.
        -13    1    3    3    0    0  0.26517812427E+03  0.97676819873E+02  0.44633144950E+00  0.28259582082E+03  0.00000000000E+00 0. -1.
         22    1    1    2    0    0 -0.83073534104E+03 -0.40858473561E+03 -0.10030854485E+04  0.13650066337E+04  0.00000000000E+00 0. -1.
<mgrwt>
<rscale>  0 0.21194771E+04</rscale>
<asrwt>0</asrwt>
<pdfrwt beam="1">  1        1 0.24605554E+00 0.21194771E+04</pdfrwt>
<pdfrwt beam="2">  1       -1 0.10802832E+00 0.21194771E+04</pdfrwt>
<totfact> 0.40844413E+00</totfact>
</mgrwt>
</event>
<event>
 6    1  0.9906445E-006  0.5431446E+03  0.7818608E-02  0.1003093E+00
          1   -1    0    0  501    0  0.00000000000E+00  0.00000000000E+00  0.35615381153E+03  0.35615381153E+03  0.00000000000E+00 0. -1.
         -1   -1    0    0    0  501 -0.00000000000E+00 -0.00000000000E+00 -0.20707772898E+03  0.20707772898E+03  0.00000000000E+00 0.  1.
         23    2    1    2    0    0 -0.23975623094E+03 -0.41898470884E+01  0.19102909909E+03  0.31979641427E+03  0.90978155547E+02 0.  0.
         13    1    3    3    0    0 -0.57629806841E+02  0.27500812891E+02  0.86214191795E+02  0.10728642138E+03  0.00000000000E+00 0. -1.
        -13    1    3    3    0    0 -0.18212642410E+03 -0.31690659980E+02  0.10481490729E+03  0.21250999288E+03  0.00000000000E+00 0.  1.
         22    1    1    2    0    0  0.23975623094E+03  0.41898470884E+01 -0.41953016542E+02  0.24343512624E+03  0.00000000000E+00 0.  1.
<mgrwt>
<rscale>  0 0.54314463E+03</rscale>
<asrwt>0</asrwt>
<pdfrwt beam="1">  1        1 0.54792894E-01 0.54314463E+03</pdfrwt>
<pdfrwt beam="2">  1       -1 0.31858112E-01 0.54314463E+03</pdfrwt>
<totfact> 0.64768103E+02</totfact>
</mgrwt>
</event>
<event>
 6    1  0.9906445E-006  0.2334286E+04  0.7818608E-02  0.8464524E-01
         -2   -1    0    0    0  501 -0.00000000000E+00  0.00000000000E+00  0.35797653821E+03  0.35797653821E+03  0.00000000000E+00 0.  1.
          2   -1    0    0  501    0  0.00000000000E+00 -0.00000000000E+00 -0.38053416445E+04  0.38053416445E+04  0.00000000000E+00 0. -1.
         23    2    1    2    0    0  0.11641990551E+04  0.12689566656E+02 -0.18159582425E+04  0.21590704883E+04  0.91436153535E+02 0.  0.
         13    1    3    3    0    0  0.10677750587E+04 -0.13174526115E+02 -0.16503603059E+04  0.19657075783E+04  0.00000000000E+00 0. -1.
        -13    1    3    3    0    0  0.96423996449E+02  0.25864092771E+02 -0.16559793653E+03  0.19336291001E+03  0.00000000000E+00 0.  1.
         22    1    1    2    0    0 -0.11641990551E+04 -0.12689566656E+02 -0.16314068638E+04  0.20042476944E+04  0.00000000000E+00 0.  1.
<mgrwt>
<rscale>  0 0.23342862E+04</rscale>
<asrwt>0</asrwt>
<pdfrwt beam="1">  1        2 0.58543715E+00 0.23342862E+04</pdfrwt>
<pdfrwt beam="2">  1       -2 0.55073316E-01 0.23342862E+04</pdfrwt>
<totfact> 0.13693573E+00</totfact>
</mgrwt>
</event>
<event>
 6    1  0.9906445E-006  0.2031624E+04  0.7818608E-02  0.8591977E-01
          2   -1    0    0  501    0  0.00000000000E+00  0.00000000000E+00  0.23161696356E+04  0.23161696356E+04  0.00000000000E+00 0. -1.
         -2   -1    0    0    0  501 -0.00000000000E+00 -0.00000000000E+00 -0.44550871589E+03  0.44550871589E+03  0.00000000000E+00 0.  1.
         23    2    1    2    0    0  0.32352254160E+03 -0.19783079471E+02  0.22430619217E+04  0.22679773171E+04  0.85651159238E+02 0.  0.
         11    1    3    3    0    0  0.30098087187E+03 -0.75314301679E+01  0.18746276328E+04  0.18986508287E+04  0.00000000000E+00 0.  1.
        -11    1    3    3    0    0  0.22541669732E+02 -0.12251649303E+02  0.36843428893E+03  0.36932648842E+03  0.00000000000E+00 0. -1.
         22    1    1    2    0    0 -0.32352254160E+03  0.19783079471E+02 -0.37240100195E+03  0.49370103444E+03  0.00000000000E+00 0.  1.
<mgrwt>
<rscale>  0 0.20316237E+04</rscale>
<asrwt>0</asrwt>
<pdfrwt beam="1">  1        2 0.35633378E+00 0.20316237E+04</pdfrwt>
<pdfrwt beam="2">  1       -2 0.68539804E-01 0.20316237E+04</pdfrwt>
<totfact> 0.80071805E+00</totfact>
</mgrwt>
</event>
<event>
 6    1  0.9906445E-006  0.2914825E+04  0.7818608E-02  0.8268480E-01
         -2   -1    0    0    0  501 -0.00000000000E+00  0.00000000000E+00  0.81703735174E+03  0.81703735174E+03  0.00000000000E+00 0.  1.
          2   -1    0    0  501    0  0.00000000000E+00 -0.00000000000E+00 -0.25996983096E+04  0.25996983096E+04  0.00000000000E+00 0. -1.
         23    2    1    2    0    0  0.72243342579E+03 -0.10956378129E+04 -0.16310437251E+04  0.20956300422E+04  0.95022989438E+02 0.  0.
         13    1    3    3    0    0  0.45714203946E+03 -0.63532617467E+03 -0.10252848942E+04  0.12898943006E+04  0.00000000000E+00 0.  1.
        -13    1    3    3    0    0  0.26529138632E+03 -0.46031163822E+03 -0.60575883092E+03  0.80573574152E+03  0.00000000000E+00 0. -1.
         22    1    1    2    0    0 -0.72243342579E+03  0.10956378129E+04 -0.15161723270E+03  0.13211056192E+04  0.00000000000E+00 0.  1.
<mgrwt>
<rscale>  0 0.29148246E+04</rscale>
<asrwt>0</asrwt>
<pdfrwt beam="1">  1        2 0.39995359E+00 0.29148246E+04</pdfrwt>
<pdfrwt beam="2">  1       -2 0.12569805E+00 0.29148246E+04</pdfrwt>
<totfact> 0.12404909E+00</totfact>
</mgrwt>
</event>
<event>
 6    1  0.3986790E-005  0.4683269E+04  0.7818608E-02  0.7879314E-01
          1   -1    0    0  501    0  0.00000000000E+00  0.00000000000E+00  0.19866184794E+04  0.19866184794E+04  0.00000000000E+00 0. -1.
         -1   -1    0    0    0  501 -0.00000000000E+00 -0.00000000000E+00 -0.27600931487E+04  0.27600931487E+04  0.00000000000E+00 0.  1.
         23    2    1    2    0    0  0.36735179790E+03 -0.63370409003E+03 -0.26401765932E+04  0.27414424966E+04  0.91903762471E+02 0.  0.
         13    1    3    3    0    0  0.21809740287E+03 -0.28509847760E+03 -0.13008987618E+04  0.13495129520E+04  0.00000000000E+00 0. -1.
        -13    1    3    3    0    0  0.14925439503E+03 -0.34860561243E+03 -0.13392778314E+04  0.13919295446E+04  0.00000000000E+00 0.  1.
         22    1    1    2    0    0 -0.36735179790E+03  0.63370409003E+03  0.18667019239E+04  0.20052691315E+04  0.00000000000E+00 0. -1.
<mgrwt>
<rscale>  0 0.46832690E+04</rscale>
<asrwt>0</asrwt>
<pdfrwt beam="1">  1        1 0.30563361E+00 0.46832690E+04</pdfrwt>
<pdfrwt beam="2">  1       -1 0.42462971E+00 0.46832690E+04</pdfrwt>
<totfact> 0.10918721E-02</totfact>
</mgrwt>
</event>
<event>
 6    1  0.9906445E-006  0.2761612E+04  0.7818608E-02  0.8315286E-01
         -2   -1    0    0    0  501 -0.00000000000E+00  0.00000000000E+00  0.21665964511E+04  0.21665964511E+04  0.00000000000E+00 0.  1.
          2   -1    0    0  501    0  0.00000000000E+00 -0.00000000000E+00 -0.88000946828E+03  0.88000946828E+03  0.00000000000E+00 0. -1.
         23    2    1    2    0    0  0.90856269348E+03 -0.74436356561E+03 -0.15397852519E+03  0.11878987696E+04  0.88491891049E+02 0.  0.
         11    1    3    3    0    0  0.55242953419E+03 -0.39616031260E+03 -0.91189533455E+02  0.68588403869E+03  0.00000000000E+00 0.  1.
        -11    1    3    3    0    0  0.35613315930E+03 -0.34820325301E+03 -0.62788991731E+02  0.50201473090E+03  0.00000000000E+00 0. -1.
         22    1    1    2    0    0 -0.90856269348E+03  0.74436356561E+03  0.14405655080E+04  0.18587071498E+04  0.00000000000E+00 0.  1.
<mgrwt>
<rscale>  0 0.27616121E+04</rscale>
<asrwt>0</asrwt>
<pdfrwt beam="1">  1        2 0.13538607E+00 0.27616121E+04</pdfrwt>
<pdfrwt beam="2">  1       -2 0.33332253E+00 0.27616121E+04</pdfrwt>
<totfact> 0.52276160E-01</totfact>
</mgrwt>
</event>
<event>
 6    1  0.9906445E-006  0.6809688E+04  0.7818608E-02  0.7597387E-01
          2   -1    0    0  501    0  0.00000000000E+00  0.00000000000E+00  0.32789218406E+04  0.32789218406E+04  0.00000000000E+00 0. -1.
         -2   -1    0    0    0  501 -0.00000000000E+00 -0.00000000000E+00 -0.35356019840E+04  0.35356019840E+04  0.00000000000E+00 0.  1.
         23    2    1    2    0    0  0.30574231530E+03  0.32462599778E+04 -0.11077443337E+04  0.34446584768E+04  0.83019911868E+02 0.  0.
         13    1    3    3    0    0  0.18630829490E+02  0.30369757946E+03 -0.80348158976E+02  0.31469851323E+03  0.00000000000E+00 0. -1.
        -13    1    3    3    0    0  0.28711148581E+03  0.29425623984E+04 -0.10273961747E+04  0.31299599635E+04  0.00000000000E+00 0.  1.
         22    1    1    2    0    0 -0.30574231530E+03 -0.32462599778E+04  0.85106419024E+03  0.33698653479E+04  0.00000000000E+00 0.  1.
<mgrwt>
<rscale>  0 0.68096880E+04</rscale>
<asrwt>0</asrwt>
<pdfrwt beam="1">  1        2 0.50444952E+00 0.68096880E+04</pdfrwt>
<pdfrwt beam="2">  1       -2 0.54393877E+00 0.68096880E+04</pdfrwt>
<totfact> 0.68260513E-04</totfact>
</mgrwt>
</event>
<event>
 6    1  0.9906445E-006  0.9069871E+03  0.7818608E-02  0.9416889E-01
         -1   -1    0    0    0  501 -0.00000000000E+00  0.00000000000E+00  0.32174501629E+03  0.32174501629E+03  0.00000000000E+00 0.  1.
          1   -1    0    0  501    0  0.00000000000E+00 -0.00000000000E+00 -0.63919067728E+03  0.63919067728E+03  0.00000000000E+00 0. -1.
         23    2    1    2    0    0 -0.13389103950E+03 -0.17958474785E+03 -0.56896807692E+03  0.62412563162E+03  0.12502255544E+03 0.  0.
         11    1    3    3    0    0 -0.89867687977E+01  0.89884480434E+01 -0.12706512104E+03  0.12769925292E+03  0.00000000000E+00 0.  1.
        -11    1    3    3    0    0 -0.12490427070E+03 -0.18857319589E+03 -0.44190295588E+03  0.49642637870E+03  0.00000000000E+00 0. -1.
         22    1    1    2    0    0  0.13389103950E+03  0.17958474785E+03  0.25152241593E+03  0.33681006195E+03  0.00000000000E+00 0.  1.
<mgrwt>
<rscale>  0 0.90698713E+03</rscale>
<asrwt>0</asrwt>
<pdfrwt beam="1">  1        1 0.98337026E-01 0.90698713E+03</pdfrwt>
<pdfrwt beam="2">  1       -1 0.49499234E-01 0.90698713E+03</pdfrwt>
<totfact> 0.12866382E+02</totfact>
</mgrwt>
</event>
<event>
 6    1  0.1029407E-005  0.3279228E+04  0.7818608E-02  0.8168201E-01
          2   -1    0    0  501    0  0.00000000000E+00  0.00000000000E+00  0.24820726153E+04  0.24820726153E+04  0.00000000000E+00 0. -1.
         -2   -1    0    0    0  501 -0.00000000000E+00 -0.00000000000E+00 -0.10831005387E+04  0.10831005387E+04  0.00000000000E+00 0.  1.
         23    2    1    2    0    0  0.78123417009E+03  0.58773601732E+03 -0.72932441784E+03  0.12230787018E+04  0.90812718575E+02 0.  0.
         13    1    3    3    0    0  0.62144748919E+03  0.44857464192E+03 -0.61256303432E+03  0.98114711548E+03  0.00000000000E+00 0.  1.
        -13    1    3    3    0    0  0.15978668090E+03  0.13916137540E+03 -0.11676138352E+03  0.24193158636E+03  0.00000000000E+00 0. -1.
         22    1    1    2    0    0 -0.78123417009E+03 -0.58773601732E+03  0.21282964944E+04  0.23420944521E+04  0.00000000000E+00 0. -1.
<mgrwt>
<rscale>  0 0.32792281E+04</rscale>
<asrwt>0</asrwt>
<pdfrwt beam="1">  1        2 0.38185732E+00 0.32792281E+04</pdfrwt>
<pdfrwt beam="2">  1       -2 0.16663085E+00 0.32792281E+04</pdfrwt>
<totfact> 0.67198036E-01</totfact>
</mgrwt>
</event>
<event>
 6    1  0.9906445E-006  0.2174098E+04  0.7818608E-02  0.8529287E-01
          1   -1    0    0  501    0  0.00000000000E+00  0.00000000000E+00  0.28343668460E+04  0.28343668460E+04  0.00000000000E+00 0. -1.
         -1   -1    0    0    0  501 -0.00000000000E+00 -0.00000000000E+00 -0.41690982077E+03  0.41690982077E+03  0.00000000000E+00 0.  1.
         23    2    1    2    0    0 -0.29488484242E+03  0.45049041140E+03 -0.19808556503E+03  0.58089060432E+03  0.91089637521E+02 0.  0.
         13    1    3    3    0    0 -0.28995442936E+03  0.42137605133E+03 -0.16713379613E+03  0.53811249154E+03  0.00000000000E+00 0. -1.
        -13    1    3    3    0    0 -0.49304130570E+01  0.29114360071E+02 -0.30951768900E+02  0.42778112783E+02  0.00000000000E+00 0.  1.
         22    1    1    2    0    0  0.29488484242E+03 -0.45049041140E+03  0.26155425903E+04  0.26703860625E+04  0.00000000000E+00 0. -1.
<mgrwt>
<rscale>  0 0.21740979E+04</rscale>
<asrwt>0</asrwt>
<pdfrwt beam="1">  1        1 0.43605643E+00 0.21740979E+04</pdfrwt>
<pdfrwt beam="2">  1       -1 0.64139974E-01 0.21740979E+04</pdfrwt>
<totfact> 0.17750739E+00</totfact>
</mgrwt>
</event>
<event>
 6    1  0.9906445E-006  0.1390872E+04  0.7818608E-02  0.8960452E-01
         -2   -1    0    0    0  501 -0.00000000000E+00  0.00000000000E+00  0.27356433591E+03  0.27356433591E+03  0.00000000000E+00 0.  1.
          2   -1    0    0  501    0  0.00000000000E+00 -0.00000000000E+00 -0.17678895654E+04  0.17678895654E+04  0.00000000000E+00 0. -1.
         23    2    1    2    0    0 -0.65862124696E+03 -0.13313402028E+03 -0.99624386365E+03  0.12050379394E+04  0.90044351656E+02 0.  0.
         13    1    3    3    0    0 -0.37060659612E+03 -0.11771171047E+03 -0.54534441793E+03  0.66978043420E+03  0.00000000000E+00 0.  1.
        -13    1    3    3    0    0 -0.28801465084E+03 -0.15422309810E+02 -0.45089944571E+03  0.53525750521E+03  0.00000000000E+00 0. -1.
         22    1    1    2    0    0  0.65862124696E+03  0.13313402028E+03 -0.49808136581E+03  0.83641596187E+03  0.00000000000E+00 0.  1.
<mgrwt>
<rscale>  0 0.13908724E+04</rscale>
<asrwt>0</asrwt>
<pdfrwt beam="1">  1        2 0.27198301E+00 0.13908724E+04</pdfrwt>
<pdfrwt beam="2">  1       -2 0.42086821E-01 0.13908724E+04</pdfrwt>
<totfact> 0.46849959E+01</totfact>
</mgrwt>
</event>
<event>
 6    1  0.9906445E-006  0.4582505E+04  0.7818608E-02  0.7896350E-01
         -1   -1    0    0    0  501 -0.00000000000E+00  0.00000000000E+00  0.18752017040E+04  0.18752017040E+04  0.00000000000E+00 0.  1.
          1   -1    0    0  501    0  0.00000000000E+00 -0.00000000000E+00 -0.27996129676E+04  0.27996129676E+04  0.00000000000E+00 0. -1.
         23    2    1    2    0    0 -0.20425227704E+04  0.10251160819E+04 -0.61748573551E+03  0.23689600516E+04  0.88999121028E+02 0.  0.
         13    1    3    3    0    0 -0.13474051769E+04  0.65648915297E+03 -0.44460153958E+03  0.15633775128E+04  0.00000000000E+00 0. -1.
        -13    1    3    3    0    0 -0.69511759349E+03  0.36862692898E+03 -0.17288419593E+03  0.80558253876E+03  0.00000000000E+00 0.  1.
         22    1    1    2    0    0  0.20425227704E+04 -0.10251160819E+04 -0.30692552805E+03  0.23058546200E+04  0.00000000000E+00 0. -1.
<mgrwt>
<rscale>  0 0.45825054E+04</rscale>
<asrwt>0</asrwt>
<pdfrwt beam="1">  1        1 0.43070969E+00 0.45825054E+04</pdfrwt>
<pdfrwt beam="2">  1       -1 0.28849257E+00 0.45825054E+04</pdfrwt>
<totfact> 0.24407646E-02</totfact>
</mgrwt>
</event>
<event>
 6    1  0.9906445E-006  0.2667851E+04  0.7818608E-02  0.8345512E-01
         -1   -1    0    0    0  501 -0.00000000000E+00  0.00000000000E+00  0.95055531994E+03  0.95055531994E+03  0.00000000000E+00 0.  1.
          1   -1    0    0  501    0  0.00000000000E+00 -0.00000000000E+00 -0.18719140396E+04  0.18719140396E+04  0.00000000000E+00 0. -1.
         23    2    1    2    0    0  0.85786445858E+03 -0.10696289649E+03  0.61165207348E+03  0.10624993080E+04  0.86104761396E+02 0.  0.
         11    1    3    3    0    0  0.63963811615E+03 -0.70487305751E+02  0.40916407685E+03  0.76257499414E+03  0.00000000000E+00 0. -1.
        -11    1    3    3    0    0  0.21822634243E+03 -0.36475590737E+02  0.20248799663E+03  0.29992431383E+03  0.00000000000E+00 0.  1.
         22    1    1    2    0    0 -0.85786445858E+03  0.10696289649E+03 -0.15330107931E+04  0.17599700516E+04  0.00000000000E+00 0.  1.
<mgrwt>
<rscale>  0 0.26678515E+04</rscale>
<asrwt>0</asrwt>
<pdfrwt beam="1">  1        1 0.28798677E+00 0.26678515E+04</pdfrwt>
<pdfrwt beam="2">  1       -1 0.14623928E+00 0.26678515E+04</pdfrwt>
<totfact> 0.11904978E+00</totfact>
</mgrwt>
</event>
<event>
 6    1  0.9906445E-006  0.1884060E+04  0.7818608E-02  0.8662832E-01
         -1   -1    0    0    0  501 -0.00000000000E+00  0.00000000000E+00  0.50747152560E+03  0.50747152560E+03  0.00000000000E+00 0.  1.
          1   -1    0    0  501    0  0.00000000000E+00 -0.00000000000E+00 -0.17487099871E+04  0.17487099871E+04  0.00000000000E+00 0. -1.
         23    2    1    2    0    0  0.65775362109E+03  0.10543274577E+03 -0.14159452332E+04  0.15675028170E+04  0.91696716695E+02 0.  0.
         11    1    3    3    0    0  0.43828949203E+03  0.36088769959E+02 -0.86368975072E+03  0.96920589331E+03  0.00000000000E+00 0.  1.
        -11    1    3    3    0    0  0.21946412906E+03  0.69343975812E+02 -0.55225548247E+03  0.59829692365E+03  0.00000000000E+00 0. -1.
         22    1    1    2    0    0 -0.65775362109E+03 -0.10543274577E+03  0.17470677166E+03  0.68867869577E+03  0.00000000000E+00 0.  1.
<mgrwt>
<rscale>  0 0.18840600E+04</rscale>
<asrwt>0</asrwt>
<pdfrwt beam="1">  1        1 0.26903231E+00 0.18840600E+04</pdfrwt>
<pdfrwt beam="2">  1       -1 0.78072542E-01 0.18840600E+04</pdfrwt>
<totfact> 0.67950371E+00</totfact>
</mgrwt>
</event>
<event>
 6    1  0.9906445E-006  0.2964662E+04  0.7818608E-02  0.8253894E-01
          2   -1    0    0  501    0  0.00000000000E+00  0.00000000000E+00  0.28106009223E+04  0.28106009223E+04  0.00000000000E+00 0. -1.
         -2   -1    0    0    0  501 -0.00000000000E+00 -0.00000000000E+00 -0.78179197333E+03  0.78179197333E+03  0.00000000000E+00 0.  1.
         23    2    1    2    0    0 -0.10290302467E+04 -0.31168332157E+02 -0.27455282568E+03  0.10694283341E+04  0.91776871623E+02 0.  0.
         11    1    3    3    0    0 -0.97445426452E+03 -0.41708232912E+02 -0.27659175580E+03  0.10138065347E+04  0.00000000000E+00 0. -1.
        -11    1    3    3    0    0 -0.54575982219E+02  0.10539900755E+02  0.20389301225E+01  0.55621799495E+02  0.00000000000E+00 0.  1.
         22    1    1    2    0    0  0.10290302467E+04  0.31168332157E+02  0.23033617747E+04  0.25229645615E+04  0.00000000000E+00 0. -1.
<mgrwt>
<rscale>  0 0.29646620E+04</rscale>
<asrwt>0</asrwt>
<pdfrwt beam="1">  1        2 0.43240014E+00 0.29646620E+04</pdfrwt>
<pdfrwt beam="2">  1       -2 0.12027569E+00 0.29646620E+04</pdfrwt>
<totfact> 0.10322965E+00</totfact>
</mgrwt>
</event>
<event>
 6    1  0.9906445E-006  0.1993670E+04  0.7818608E-02  0.8609586E-01
         -1   -1    0    0    0  501 -0.00000000000E+00  0.00000000000E+00  0.33303319900E+03  0.33303319900E+03  0.00000000000E+00 0.  1.
          1   -1    0    0  501    0  0.00000000000E+00 -0.00000000000E+00 -0.29837254703E+04  0.29837254703E+04  0.00000000000E+00 0. -1.
         23    2    1    2    0    0  0.93020505362E+03  0.33283769521E+03 -0.15228392385E+04  0.18173871888E+04  0.88286320546E+02 0.  0.
         11    1    3    3    0    0  0.73737489836E+03  0.28667063033E+03 -0.11639413426E+04  0.14073596697E+04  0.00000000000E+00 0. -1.
        -11    1    3    3    0    0  0.19283015525E+03  0.46167064872E+02 -0.35889789591E+03  0.41002751901E+03  0.00000000000E+00 0.  1.
         22    1    1    2    0    0 -0.93020505362E+03 -0.33283769521E+03 -0.11278530328E+04  0.14993714806E+04  0.00000000000E+00 0.  1.
<mgrwt>
<rscale>  0 0.19936696E+04</rscale>
<asrwt>0</asrwt>
<pdfrwt beam="1">  1        1 0.45903469E+00 0.19936696E+04</pdfrwt>
<pdfrwt beam="2">  1       -1 0.51235877E-01 0.19936696E+04</pdfrwt>
<totfact> 0.21883468E+00</totfact>
</mgrwt>
</event>
<event>
 6    1  0.9906445E-006  0.1388601E+04  0.7818608E-02  0.8962111E-01
         -1   -1    0    0    0  501 -0.00000000000E+00  0.00000000000E+00  0.13112975615E+03  0.13112975615E+03  0.00000000000E+00 0.  1.
          1   -1    0    0  501    0  0.00000000000E+00 -0.00000000000E+00 -0.36761565375E+04  0.36761565375E+04  0.00000000000E+00 0. -1.
         23    2    1    2    0    0  0.43792377969E+03 -0.19484609271E+03 -0.31459049945E+04  0.31835552319E+04  0.92538875737E+02 0.  0.
         11    1    3    3    0    0  0.36763942588E+03 -0.19843966936E+03 -0.27005128078E+04  0.27326372746E+04  0.00000000000E+00 0. -1.
        -11    1    3    3    0    0  0.70284353813E+02  0.35935766493E+01 -0.44539218670E+03  0.45091795723E+03  0.00000000000E+00 0.  1.
         22    1    1    2    0    0 -0.43792377969E+03  0.19484609271E+03 -0.39912178687E+03  0.62373106177E+03  0.00000000000E+00 0.  1.
<mgrwt>
<rscale>  0 0.13886015E+04</rscale>
<asrwt>0</asrwt>
<pdfrwt beam="1">  1        1 0.56556256E+00 0.13886015E+04</pdfrwt>
<pdfrwt beam="2">  1       -1 0.20173808E-01 0.13886015E+04</pdfrwt>
<totfact> 0.36141379E+00</totfact>
</mgrwt>
</event>
<event>
 6    1  0.9906445E-006  0.2519459E+04  0.7818608E-02  0.8396086E-01
          1   -1    0    0  501    0  0.00000000000E+00  0.00000000000E+00  0.37552635295E+04  0.37552635295E+04  0.00000000000E+00 0. -1.
         -1   -1    0    0    0  501 -0.00000000000E+00 -0.00000000000E+00 -0.42258517618E+03  0.42258517618E+03  0.00000000000E+00 0.  1.
         23    2    1    2    0    0 -0.71419332445E+02 -0.62194193865E+03  0.34780980084E+04  0.35351517536E+04  0.90662388967E+02 0.  0.
         13    1    3    3    0    0 -0.70635083192E+02 -0.39006527951E+03  0.23863674314E+04  0.24190679517E+04  0.00000000000E+00 0. -1.
        -13    1    3    3    0    0 -0.78424925222E+00 -0.23187665914E+03  0.10917305770E+04  0.11160838018E+04  0.00000000000E+00 0.  1.
         22    1    1    2    0    0  0.71419332445E+02  0.62194193865E+03 -0.14541965511E+03  0.64269695206E+03  0.00000000000E+00 0.  1.
<mgrwt>
<rscale>  0 0.25194592E+04</rscale>
<asrwt>0</asrwt>
<pdfrwt beam="1">  1        1 0.57773283E+00 0.25194592E+04</pdfrwt>
<pdfrwt beam="2">  1       -1 0.65013107E-01 0.25194592E+04</pdfrwt>
<totfact> 0.33095596E-01</totfact>
</mgrwt>
</event>
<event>
 6    1  0.9906445E-006  0.1386610E+04  0.7818608E-02  0.8963568E-01
         -1   -1    0    0    0  501 -0.00000000000E+00  0.00000000000E+00  0.26405013110E+03  0.26405013110E+03  0.00000000000E+00 0.  1.
          1   -1    0    0  501    0  0.00000000000E+00 -0.00000000000E+00 -0.18203820530E+04  0.18203820530E+04  0.00000000000E+00 0. -1.
         23    2    1    2    0    0  0.49390435340E+03  0.24308085446E+03 -0.14074371755E+04  0.15141695625E+04  0.93809641676E+02 0.  0.
         11    1    3    3    0    0  0.23317508572E+03  0.65821125101E+02 -0.57043998299E+03  0.61976190210E+03  0.00000000000E+00 0.  1.
        -11    1    3    3    0    0  0.26072926768E+03  0.17725972936E+03 -0.83699719248E+03  0.89440766035E+03  0.00000000000E+00 0. -1.
         22    1    1    2    0    0 -0.49390435340E+03 -0.24308085446E+03 -0.14889474642E+03  0.57026262162E+03  0.00000000000E+00 0.  1.
<mgrwt>
<rscale>  0 0.13866104E+04</rscale>
<asrwt>0</asrwt>
<pdfrwt beam="1">  1        1 0.28005877E+00 0.13866104E+04</pdfrwt>
<pdfrwt beam="2">  1       -1 0.40623099E-01 0.13866104E+04</pdfrwt>
<totfact> 0.22813086E+01</totfact>
</mgrwt>
</event>
<event>
 6    1  0.9906445E-006  0.8853844E+03  0.7818608E-02  0.9444038E-01
          2   -1    0    0  501    0  0.00000000000E+00  0.00000000000E+00  0.30260260251E+03  0.30260260251E+03  0.00000000000E+00 0. -1.
         -2   -1    0    0    0  501 -0.00000000000E+00 -0.00000000000E+00 -0.64763617782E+03  0.64763617782E+03  0.00000000000E+00 0.  1.
         23    2    1    2    0    0  0.13559856404E+03  0.41188607683E+02 -0.61902327850E+03  0.64176863683E+03  0.92702167869E+02 0.  0.
         13    1    3    3    0    0  0.29914724828E+02  0.45035944355E+02 -0.32138353176E+03  0.32589952674E+03  0.00000000000E+00 0. -1.
        -13    1    3    3    0    0  0.10568383921E+03 -0.38473366722E+01 -0.29763974674E+03  0.31586911009E+03  0.00000000000E+00 0.  1.
         22    1    1    2    0    0 -0.13559856404E+03 -0.41188607683E+02  0.27398970319E+03  0.30847014350E+03  0.00000000000E+00 0. -1.
<mgrwt>
<rscale>  0 0.88538442E+03</rscale>
<asrwt>0</asrwt>
<pdfrwt beam="1">  1        2 0.46554248E-01 0.88538442E+03</pdfrwt>
<pdfrwt beam="2">  1       -2 0.99636333E-01 0.88538442E+03</pdfrwt>
<totfact> 0.90960147E+01</totfact>
</mgrwt>
</event>
<event>
 6    1  0.9906445E-006  0.2436894E+04  0.7818608E-02  0.8425819E-01
          1   -1    0    0  501    0  0.00000000000E+00  0.00000000000E+00  0.24310231588E+04  0.24310231588E+04  0.00000000000E+00 0. -1.
         -1   -1    0    0    0  501 -0.00000000000E+00 -0.00000000000E+00 -0.61069453316E+03  0.61069453316E+03  0.00000000000E+00 0.  1.
         23    2    1    2    0    0  0.55619275801E+03  0.64295135581E+03  0.19976015880E+04  0.21732923738E+04  0.10025371615E+03 0.  0.
         13    1    3    3    0    0  0.25685294574E+03  0.36432903324E+03  0.98146232100E+03  0.10779505405E+04  0.00000000000E+00 0.  1.
        -13    1    3    3    0    0  0.29933981227E+03  0.27862232257E+03  0.10161392670E+04  0.10953418333E+04  0.00000000000E+00 0. -1.
         22    1    1    2    0    0 -0.55619275801E+03 -0.64295135581E+03 -0.17727296238E+03  0.86842531814E+03  0.00000000000E+00 0.  1.
<mgrwt>
<rscale>  0 0.24368936E+04</rscale>
<asrwt>0</asrwt>
<pdfrwt beam="1">  1        1 0.37400356E+00 0.24368936E+04</pdfrwt>
<pdfrwt beam="2">  1       -1 0.93953006E-01 0.24368936E+04</pdfrwt>
<totfact> 0.14824847E+00</totfact>
</mgrwt>
</event>
<event>
 6    1  0.9906445E-006  0.1815466E+04  0.7818608E-02  0.8698118E-01
          2   -1    0    0  501    0  0.00000000000E+00  0.00000000000E+00  0.88792248131E+03  0.88792248131E+03  0.00000000000E+00 0. -1.
         -2   -1    0    0    0  501 -0.00000000000E+00 -0.00000000000E+00 -0.92798527636E+03  0.92798527636E+03  0.00000000000E+00 0.  1.
         23    2    1    2    0    0  0.14602243184E+02 -0.84998123746E+03 -0.33158392274E+03  0.91720541683E+03  0.92933036667E+02 0.  0.
         13    1    3    3    0    0 -0.23774811920E+02 -0.68597689519E+02 -0.34360772833E+02  0.80321525128E+02  0.00000000000E+00 0.  1.
        -13    1    3    3    0    0  0.38377055104E+02 -0.78138354794E+03 -0.29722314990E+03  0.83688389170E+03  0.00000000000E+00 0. -1.
         22    1    1    2    0    0 -0.14602243184E+02  0.84998123746E+03  0.29152112768E+03  0.89870234084E+03  0.00000000000E+00 0. -1.
<mgrwt>
<rscale>  0 0.18154658E+04</rscale>
<asrwt>0</asrwt>
<pdfrwt beam="1">  1        2 0.13660346E+00 0.18154658E+04</pdfrwt>
<pdfrwt beam="2">  1       -2 0.14276697E+00 0.18154658E+04</pdfrwt>
<totfact> 0.96138765E+00</totfact>
</mgrwt>
</event>
<event>
 6    1  0.9906445E-006  0.1246004E+04  0.7818608E-02  0.9073516E-01
          1   -1    0    0  501    0  0.00000000000E+00  0.00000000000E+00  0.11562218052E+04  0.11562218052E+04  0.00000000000E+00 0. -1.
         -1   -1    0    0    0  501 -0.00000000000E+00 -0.00000000000E+00 -0.33568925880E+03  0.33568925880E+03  0.00000000000E+00 0.  1.
         23    2    1    2    0    0  0.52441328221E+03 -0.39375787142E+02  0.80504007497E+03  0.96579343474E+03  0.90042729350E+02 0.  0.
         13    1    3    3    0    0  0.45256208916E+03 -0.52128206377E+02  0.64240224906E+03  0.78753440817E+03  0.00000000000E+00 0. -1.
        -13    1    3    3    0    0  0.71851193044E+02  0.12752419235E+02  0.16263782590E+03  0.17825902657E+03  0.00000000000E+00 0.  1.
         22    1    1    2    0    0 -0.52441328221E+03  0.39375787142E+02  0.15492471439E+02  0.52611762928E+03  0.00000000000E+00 0.  1.
<mgrwt>
<rscale>  0 0.12460036E+04</rscale>
<asrwt>0</asrwt>
<pdfrwt beam="1">  1        1 0.17788028E+00 0.12460036E+04</pdfrwt>
<pdfrwt beam="2">  1       -1 0.51644502E-01 0.12460036E+04</pdfrwt>
<totfact> 0.42826060E+01</totfact>
</mgrwt>
</event>
<event>
 6    1  0.9906445E-006  0.1127704E+04  0.7818608E-02  0.9178603E-01
         -2   -1    0    0    0  501 -0.00000000000E+00  0.00000000000E+00  0.32039910577E+03  0.32039910577E+03  0.00000000000E+00 0.  1.
          2   -1    0    0  501    0  0.00000000000E+00 -0.00000000000E+00 -0.99229063992E+03  0.99229063992E+03  0.00000000000E+00 0. -1.
         23    2    1    2    0    0 -0.54114023377E+02  0.51585254265E+03 -0.92187681432E+02  0.53481525059E+03  0.92177059859E+02 0.  0.
         11    1    3    3    0    0 -0.54914696327E+02  0.19419788236E+03 -0.64956632149E+02  0.21200897492E+03  0.00000000000E+00 0.  1.
        -11    1    3    3    0    0  0.80067294990E+00  0.32165466030E+03 -0.27231049283E+02  0.32280627567E+03  0.00000000000E+00 0. -1.
         22    1    1    2    0    0  0.54114023377E+02 -0.51585254265E+03 -0.57970385272E+03  0.77787449511E+03  0.00000000000E+00 0. -1.
<mgrwt>
<rscale>  0 0.11277039E+04</rscale>
<asrwt>0</asrwt>
<pdfrwt beam="1">  1        2 0.15266010E+00 0.11277039E+04</pdfrwt>
<pdfrwt beam="2">  1       -2 0.49292171E-01 0.11277039E+04</pdfrwt>
<totfact> 0.98369702E+01</totfact>
</mgrwt>
</event>
<event>
 6    1  0.9906445E-006  0.6161858E+03  0.7818608E-02  0.9872383E-01
         -1   -1    0    0    0  501 -0.00000000000E+00  0.00000000000E+00  0.66131848243E+03  0.66131848243E+03  0.00000000000E+00 0.  1.
          1   -1    0    0  501    0  0.00000000000E+00 -0.00000000000E+00 -0.14353331394E+03  0.14353331394E+03  0.00000000000E+00 0. -1.
         23    2    1    2    0    0 -0.27039621315E+03 -0.60119960232E+02  0.41944115867E+03  0.51091291502E+03  0.91501909474E+02 0.  0.
         13    1    3    3    0    0 -0.60714537077E+02 -0.53720950518E+02  0.99748467234E+02  0.12853774641E+03  0.00000000000E+00 0. -1.
        -13    1    3    3    0    0 -0.20968167607E+03 -0.63990097143E+01  0.31969269144E+03  0.38237516860E+03  0.00000000000E+00 0.  1.
         22    1    1    2    0    0  0.27039621315E+03  0.60119960232E+02  0.98344009825E+02  0.29393888136E+03  0.00000000000E+00 0. -1.
<mgrwt>
<rscale>  0 0.61618579E+03</rscale>
<asrwt>0</asrwt>
<pdfrwt beam="1">  1        1 0.22082049E-01 0.61618579E+03</pdfrwt>
<pdfrwt beam="2">  1       -1 0.10174130E+00 0.61618579E+03</pdfrwt>
<totfact> 0.21440573E+02</totfact>
</mgrwt>
</event>
<event>
 6    1  0.9906445E-006  0.1688825E+04  0.7818608E-02  0.8767763E-01
          2   -1    0    0  501    0  0.00000000000E+00  0.00000000000E+00  0.28372959738E+04  0.28372959738E+04  0.00000000000E+00 0. -1.
         -2   -1    0    0    0  501 -0.00000000000E+00 -0.00000000000E+00 -0.25130714449E+03  0.25130714449E+03  0.00000000000E+00 0.  1.
         23    2    1    2    0    0 -0.60173591525E+03 -0.29375225487E+03  0.22314605372E+04  0.23309311518E+04  0.73806546865E+02 0.  0.
         13    1    3    3    0    0 -0.48734505714E+03 -0.20423602272E+03  0.17520988724E+04  0.18300459055E+04  0.00000000000E+00 0.  1.
        -13    1    3    3    0    0 -0.11439085811E+03 -0.89516232144E+02  0.47936166481E+03  0.50088524626E+03  0.00000000000E+00 0. -1.
         22    1    1    2    0    0  0.60173591525E+03  0.29375225487E+03  0.35452829212E+03  0.75767196652E+03  0.00000000000E+00 0. -1.
<mgrwt>
<rscale>  0 0.16888253E+04</rscale>
<asrwt>0</asrwt>
<pdfrwt beam="1">  1        2 0.43650705E+00 0.16888253E+04</pdfrwt>
<pdfrwt beam="2">  1       -2 0.38662640E-01 0.16888253E+04</pdfrwt>
<totfact> 0.13261562E+01</totfact>
</mgrwt>
</event>
<event>
 6    1  0.9906445E-006  0.1138234E+04  0.7818608E-02  0.9168707E-01
          2   -1    0    0  501    0  0.00000000000E+00  0.00000000000E+00  0.79353078822E+03  0.79353078822E+03  0.00000000000E+00 0. -1.
         -2   -1    0    0    0  501 -0.00000000000E+00 -0.00000000000E+00 -0.40816841461E+03  0.40816841461E+03  0.00000000000E+00 0.  1.
         23    2    1    2    0    0 -0.16466116868E+03  0.47982956108E+03  0.45861082757E+03  0.68914184588E+03  0.85105137427E+02 0.  0.
         13    1    3    3    0    0 -0.32438028043E+02  0.62124329407E+02  0.30032346449E+02  0.76246965847E+02  0.00000000000E+00 0. -1.
        -13    1    3    3    0    0 -0.13222314064E+03  0.41770523167E+03  0.42857848112E+03  0.61289488003E+03  0.00000000000E+00 0.  1.
         22    1    1    2    0    0  0.16466116868E+03 -0.47982956108E+03 -0.73248453966E+02  0.51255735695E+03  0.00000000000E+00 0.  1.
<mgrwt>
<rscale>  0 0.11382341E+04</rscale>
<asrwt>0</asrwt>
<pdfrwt beam="1">  1        2 0.12208166E+00 0.11382341E+04</pdfrwt>
<pdfrwt beam="2">  1       -2 0.62795141E-01 0.11382341E+04</pdfrwt>
<totfact> 0.81119480E+01</totfact>
</mgrwt>
</event>
<event>
 6    1  0.9906445E-006  0.2727509E+04  0.7818608E-02  0.8326134E-01
          2   -1    0    0  501    0  0.00000000000E+00  0.00000000000E+00  0.28652756599E+04  0.28652756599E+04  0.00000000000E+00 0. -1.
         -2   -1    0    0    0  501 -0.00000000000E+00 -0.00000000000E+00 -0.64909165199E+03  0.64909165199E+03  0.00000000000E+00 0.  1.
         23    2    1    2    0    0  0.93971355233E+03  0.41421419668E+03  0.22625816470E+04  0.24863655112E+04  0.90015469654E+02 0.  0.
         11    1    3    3    0    0  0.30204249883E+03  0.16217264301E+03  0.83573660542E+03  0.90331905265E+03  0.00000000000E+00 0. -1.
        -11    1    3    3    0    0  0.63767105350E+03  0.25204155367E+03  0.14268450416E+04  0.15830464586E+04  0.00000000000E+00 0.  1.
         22    1    1    2    0    0 -0.93971355233E+03 -0.41421419668E+03 -0.46397639165E+02  0.10280018006E+04  0.00000000000E+00 0.  1.
<mgrwt>
<rscale>  0 0.27275091E+04</rscale>
<asrwt>0</asrwt>
<pdfrwt beam="1">  1        2 0.44081163E+00 0.27275091E+04</pdfrwt>
<pdfrwt beam="2">  1       -2 0.99860256E-01 0.27275091E+04</pdfrwt>
<totfact> 0.15302849E+00</totfact>
</mgrwt>
</event>
<event>
 6    1  0.9906445E-006  0.3944101E+04  0.7818608E-02  0.8015919E-01
          1   -1    0    0  501    0  0.00000000000E+00  0.00000000000E+00  0.25108432843E+04  0.25108432843E+04  0.00000000000E+00 0. -1.
         -1   -1    0    0    0  501 -0.00000000000E+00 -0.00000000000E+00 -0.15488754998E+04  0.15488754998E+04  0.00000000000E+00 0.  1.
         23    2    1    2    0    0  0.83880180514E+03  0.84322528705E+03 -0.11364575215E+04  0.16476644485E+04  0.92978940971E+02 0.  0.
         11    1    3    3    0    0  0.60909632634E+03  0.61952001357E+03 -0.88512654424E+03  0.12402630291E+04  0.00000000000E+00 0.  1.
        -11    1    3    3    0    0  0.22970547880E+03  0.22370527348E+03 -0.25133097728E+03  0.40740141938E+03  0.00000000000E+00 0. -1.
         22    1    1    2    0    0 -0.83880180514E+03 -0.84322528705E+03  0.20984253061E+04  0.24120543356E+04  0.00000000000E+00 0. -1.
<mgrwt>
<rscale>  0 0.39441012E+04</rscale>
<asrwt>0</asrwt>
<pdfrwt beam="1">  1        1 0.38628358E+00 0.39441012E+04</pdfrwt>
<pdfrwt beam="2">  1       -1 0.23828854E+00 0.39441012E+04</pdfrwt>
<totfact> 0.87098801E-02</totfact>
</mgrwt>
</event>
<event>
 6    1  0.9906445E-006  0.3272826E+04  0.7818608E-02  0.8169845E-01
          1   -1    0    0  501    0  0.00000000000E+00  0.00000000000E+00  0.13894050828E+04  0.13894050828E+04  0.00000000000E+00 0. -1.
         -1   -1    0    0    0  501 -0.00000000000E+00 -0.00000000000E+00 -0.19273333572E+04  0.19273333572E+04  0.00000000000E+00 0.  1.
         23    2    1    2    0    0 -0.43278026708E+02  0.46532512412E+03  0.13188781830E+04  0.14020241848E+04  0.88496860254E+02 0.  0.
         11    1    3    3    0    0 -0.56906565518E+02  0.27963124526E+03  0.70611563084E+03  0.76159784311E+03  0.00000000000E+00 0. -1.
        -11    1    3    3    0    0  0.13628538811E+02  0.18569387886E+03  0.61276255220E+03  0.64042634166E+03  0.00000000000E+00 0.  1.
         22    1    1    2    0    0  0.43278026708E+02 -0.46532512412E+03 -0.18568064574E+04  0.19147142552E+04  0.00000000000E+00 0.  1.
<mgrwt>
<rscale>  0 0.32728255E+04</rscale>
<asrwt>0</asrwt>
<pdfrwt beam="1">  1        1 0.21375463E+00 0.32728255E+04</pdfrwt>
<pdfrwt beam="2">  1       -1 0.29651282E+00 0.32728255E+04</pdfrwt>
<totfact> 0.22606866E-01</totfact>
</mgrwt>
</event>
<event>
 6    1  0.9906445E-006  0.4239037E+04  0.7818608E-02  0.7957988E-01
         -2   -1    0    0    0  501 -0.00000000000E+00  0.00000000000E+00  0.24795427936E+04  0.24795427936E+04  0.00000000000E+00 0.  1.
          2   -1    0    0  501    0  0.00000000000E+00 -0.00000000000E+00 -0.18117689536E+04  0.18117689536E+04  0.00000000000E+00 0. -1.
         23    2    1    2    0    0  0.16936914366E+03  0.20605575812E+04 -0.13478451423E+03  0.20735012584E+04  0.81591366522E+02 0.  0.
         11    1    3    3    0    0  0.85206668675E+02  0.12217386321E+04 -0.42619320151E+02  0.12254476194E+04  0.00000000000E+00 0. -1.
        -11    1    3    3    0    0  0.84162474988E+02  0.83881894911E+03 -0.92165194075E+02  0.84805363897E+03  0.00000000000E+00 0.  1.
         22    1    1    2    0    0 -0.16936914366E+03 -0.20605575812E+04  0.80255835430E+03  0.22178104888E+04  0.00000000000E+00 0.  1.
<mgrwt>
<rscale>  0 0.42390370E+04</rscale>
<asrwt>0</asrwt>
<pdfrwt beam="1">  1        2 0.27873368E+00 0.42390370E+04</pdfrwt>
<pdfrwt beam="2">  1       -2 0.38146812E+00 0.42390370E+04</pdfrwt>
<totfact> 0.64418120E-02</totfact>
</mgrwt>
</event>
<event>
 6    1  0.9906445E-006  0.1816625E+04  0.7818608E-02  0.8697508E-01
          1   -1    0    0  501    0  0.00000000000E+00  0.00000000000E+00  0.14057666447E+04  0.14057666447E+04  0.00000000000E+00 0. -1.
         -1   -1    0    0    0  501 -0.00000000000E+00 -0.00000000000E+00 -0.58689097955E+03  0.58689097955E+03  0.00000000000E+00 0.  1.
         23    2    1    2    0    0  0.70802098929E+03  0.43565582976E+03  0.80479566737E+03  0.11612203328E+04  0.98218490697E+02 0.  0.
         11    1    3    3    0    0  0.27993206760E+03  0.11690614315E+03  0.29478769955E+03  0.42299975955E+03  0.00000000000E+00 0. -1.
        -11    1    3    3    0    0  0.42808892169E+03  0.31874968661E+03  0.51000796782E+03  0.73822057329E+03  0.00000000000E+00 0.  1.
         22    1    1    2    0    0 -0.70802098929E+03 -0.43565582976E+03  0.14079997823E+02  0.83143729145E+03  0.00000000000E+00 0. -1.
<mgrwt>
<rscale>  0 0.18166252E+04</rscale>
<asrwt>0</asrwt>
<pdfrwt beam="1">  1        1 0.21627179E+00 0.18166252E+04</pdfrwt>
<pdfrwt beam="2">  1       -1 0.90290920E-01 0.18166252E+04</pdfrwt>
<totfact> 0.86018288E+00</totfact>
</mgrwt>
</event>
<event>
 6    1  0.9906445E-006  0.7489481E+03  0.7818608E-02  0.9637002E-01
          1   -1    0    0  501    0  0.00000000000E+00  0.00000000000E+00  0.13940180749E+04  0.13940180749E+04  0.00000000000E+00 0. -1.
         -1   -1    0    0    0  501 -0.00000000000E+00 -0.00000000000E+00 -0.10059467735E+03  0.10059467735E+03  0.00000000000E+00 0.  1.
         23    2    1    2    0    0  0.14368111243E+03 -0.12379779197E+03  0.12870101103E+04  0.13048463548E+04  0.10128588397E+03 0.  0.
         11    1    3    3    0    0  0.12988352092E+02 -0.53239928622E+02  0.18731104508E+03  0.19516304696E+03  0.00000000000E+00 0. -1.
        -11    1    3    3    0    0  0.13069276034E+03 -0.70557863346E+02  0.10996990652E+04  0.11096833078E+04  0.00000000000E+00 0.  1.
         22    1    1    2    0    0 -0.14368111243E+03  0.12379779197E+03  0.64132873074E+01  0.18976639750E+03  0.00000000000E+00 0.  1.
<mgrwt>
<rscale>  0 0.74894806E+03</rscale>
<asrwt>0</asrwt>
<pdfrwt beam="1">  1        1 0.21446431E+00 0.74894806E+03</pdfrwt>
<pdfrwt beam="2">  1       -1 0.15476105E-01 0.74894806E+03</pdfrwt>
<totfact> 0.24649808E+02</totfact>
</mgrwt>
</event>
<event>
 6    1  0.9906445E-006  0.3070707E+04  0.7818608E-02  0.8223823E-01
          2   -1    0    0  501    0  0.00000000000E+00  0.00000000000E+00  0.24479723413E+04  0.24479723413E+04  0.00000000000E+00 0. -1.
         -2   -1    0    0    0  501 -0.00000000000E+00 -0.00000000000E+00 -0.96296464438E+03  0.96296464438E+03  0.00000000000E+00 0.  1.
         23    2    1    2    0    0  0.32273273643E+02  0.10694919612E+04 -0.47788467547E+03  0.11753607546E+04  0.90799345967E+02 0.  0.
         13    1    3    3    0    0  0.19218619042E+02  0.68663316749E+03 -0.25867158405E+03  0.73399281359E+03  0.00000000000E+00 0.  1.
        -13    1    3    3    0    0  0.13054654601E+02  0.38285879370E+03 -0.21921309143E+03  0.44136794104E+03  0.00000000000E+00 0. -1.
         22    1    1    2    0    0 -0.32273273643E+02 -0.10694919612E+04  0.19628923724E+04  0.22355762311E+04  0.00000000000E+00 0. -1.
<mgrwt>
<rscale>  0 0.30707073E+04</rscale>
<asrwt>0</asrwt>
<pdfrwt beam="1">  1        2 0.37661113E+00 0.30707073E+04</pdfrwt>
<pdfrwt beam="2">  1       -2 0.14814841E+00 0.30707073E+04</pdfrwt>
<totfact> 0.98299654E-01</totfact>
</mgrwt>
</event>
<event>
 6    1  0.9906445E-006  0.1275512E+04  0.7818608E-02  0.9049213E-01
         -4   -1    0    0    0  501 -0.00000000000E+00  0.00000000000E+00  0.63451446583E+03  0.63451446583E+03  0.00000000000E+00 0.  1.
          4   -1    0    0  501    0  0.00000000000E+00 -0.00000000000E+00 -0.64101447674E+03  0.64101447674E+03  0.00000000000E+00 0. -1.
         23    2    1    2    0    0 -0.32040685593E+03  0.14575985327E+03 -0.53126467898E+03  0.64363935965E+03  0.90127565173E+02 0.  0.
         11    1    3    3    0    0 -0.10269455622E+03  0.44821201802E+01 -0.12950546144E+03  0.16534184534E+03  0.00000000000E+00 0.  1.
        -11    1    3    3    0    0 -0.21771229971E+03  0.14127773309E+03 -0.40175921754E+03  0.47829751431E+03  0.00000000000E+00 0. -1.
         22    1    1    2    0    0  0.32040685593E+03 -0.14575985327E+03  0.52476466807E+03  0.63188958292E+03  0.00000000000E+00 0.  1.
<mgrwt>
<rscale>  0 0.12755124E+04</rscale>
<asrwt>0</asrwt>
<pdfrwt beam="1">  1        4 0.98617611E-01 0.12755124E+04</pdfrwt>
<pdfrwt beam="2">  1       -4 0.97617610E-01 0.12755124E+04</pdfrwt>
<totfact> 0.14626571E+00</totfact>
</mgrwt>
</event>
<event>
 6    1  0.9906445E-006  0.1248648E+04  0.7818608E-02  0.9071309E-01
         -1   -1    0    0    0  501 -0.00000000000E+00  0.00000000000E+00  0.52493880526E+03  0.52493880526E+03  0.00000000000E+00 0.  1.
          1   -1    0    0  501    0  0.00000000000E+00 -0.00000000000E+00 -0.74252555834E+03  0.74252555834E+03  0.00000000000E+00 0. -1.
         23    2    1    2    0    0  0.14160414391E+02  0.17095043645E+03 -0.71505555957E+03  0.74125168560E+03  0.93407917615E+02 0.  0.
         13    1    3    3    0    0  0.23463632045E+02  0.11641364659E+03 -0.30203957503E+03  0.32454673628E+03  0.00000000000E+00 0. -1.
        -13    1    3    3    0    0 -0.93032176541E+01  0.54536789860E+02 -0.41301598454E+03  0.41670494932E+03  0.00000000000E+00 0.  1.
         22    1    1    2    0    0 -0.14160414391E+02 -0.17095043645E+03  0.49746880649E+03  0.52621267800E+03  0.00000000000E+00 0.  1.
<mgrwt>
<rscale>  0 0.12486480E+04</rscale>
<asrwt>0</asrwt>
<pdfrwt beam="1">  1        1 0.11423470E+00 0.12486480E+04</pdfrwt>
<pdfrwt beam="2">  1       -1 0.80759816E-01 0.12486480E+04</pdfrwt>
<totfact> 0.37526577E+01</totfact>
</mgrwt>
</event>
<event>
 6    1  0.9906445E-006  0.6376537E+03  0.7818608E-02  0.9830226E-01
          1   -1    0    0  501    0  0.00000000000E+00  0.00000000000E+00  0.82117142042E+03  0.82117142042E+03  0.00000000000E+00 0. -1.
         -1   -1    0    0    0  501 -0.00000000000E+00 -0.00000000000E+00 -0.12378725341E+03  0.12378725341E+03  0.00000000000E+00 0.  1.
         23    2    1    2    0    0 -0.23297302172E+03 -0.16022610970E+03  0.55202967648E+03  0.62703295452E+03  0.92112579266E+02 0.  0.
         11    1    3    3    0    0 -0.73371921716E+02 -0.10131057322E+03  0.27180491408E+03  0.29920759091E+03  0.00000000000E+00 0. -1.
        -11    1    3    3    0    0 -0.15960110000E+03 -0.58915536484E+02  0.28022476240E+03  0.32782536361E+03  0.00000000000E+00 0.  1.
         22    1    1    2    0    0  0.23297302172E+03  0.16022610970E+03  0.14535449053E+03  0.31792571930E+03  0.00000000000E+00 0.  1.
<mgrwt>
<rscale>  0 0.63765368E+03</rscale>
<asrwt>0</asrwt>
<pdfrwt beam="1">  1        1 0.12633406E+00 0.63765368E+03</pdfrwt>
<pdfrwt beam="2">  1       -1 0.19044193E-01 0.63765368E+03</pdfrwt>
<totfact> 0.47585596E+02</totfact>
</mgrwt>
</event>
<event>
 6    1  0.9906445E-006  0.5878077E+03  0.7818608E-02  0.9931029E-01
          1   -1    0    0  501    0  0.00000000000E+00  0.00000000000E+00  0.23782813531E+03  0.23782813531E+03  0.00000000000E+00 0. -1.
         -1   -1    0    0    0  501 -0.00000000000E+00 -0.00000000000E+00 -0.36320122200E+03  0.36320122200E+03  0.00000000000E+00 0.  1.
         23    2    1    2    0    0 -0.77128701780E+02 -0.17362389082E+03  0.15552781302E+03  0.26191373167E+03  0.91191063773E+02 0.  0.
         13    1    3    3    0    0 -0.27805389300E+02 -0.95276647668E+00  0.65445303446E+01  0.28581083176E+02  0.00000000000E+00 0. -1.
        -13    1    3    3    0    0 -0.49323312480E+02 -0.17267112434E+03  0.14898328267E+03  0.23333264849E+03  0.00000000000E+00 0.  1.
         22    1    1    2    0    0  0.77128701780E+02  0.17362389082E+03 -0.28090089971E+03  0.33911562565E+03  0.00000000000E+00 0.  1.
<mgrwt>
<rscale>  0 0.58780769E+03</rscale>
<asrwt>0</asrwt>
<pdfrwt beam="1">  1        1 0.36588944E-01 0.58780769E+03</pdfrwt>
<pdfrwt beam="2">  1       -1 0.55877111E-01 0.58780769E+03</pdfrwt>
<totfact> 0.38959603E+02</totfact>
</mgrwt>
</event>
<event>
 6    1  0.9906445E-006  0.2577176E+04  0.7818608E-02  0.8375996E-01
          2   -1    0    0  501    0  0.00000000000E+00  0.00000000000E+00  0.22804469019E+04  0.22804469019E+04  0.00000000000E+00 0. -1.
         -2   -1    0    0    0  501 -0.00000000000E+00 -0.00000000000E+00 -0.72812851050E+03  0.72812851050E+03  0.00000000000E+00 0.  1.
         23    2    1    2    0    0 -0.95734565339E+02 -0.45403923956E+03 -0.62435943762E+03  0.78298715098E+03  0.89036134126E+02 0.  0.
         13    1    3    3    0    0 -0.46930375868E+02 -0.19739849767E+03 -0.34701579430E+03  0.40198083108E+03  0.00000000000E+00 0. -1.
        -13    1    3    3    0    0 -0.48804189471E+02 -0.25664074189E+03 -0.27734364333E+03  0.38100631990E+03  0.00000000000E+00 0.  1.
         22    1    1    2    0    0  0.95734565339E+02  0.45403923956E+03  0.21766778290E+04  0.22255882614E+04  0.00000000000E+00 0. -1.
<mgrwt>
<rscale>  0 0.25771755E+04</rscale>
<asrwt>0</asrwt>
<pdfrwt beam="1">  1        2 0.35083798E+00 0.25771755E+04</pdfrwt>
<pdfrwt beam="2">  1       -2 0.11201977E+00 0.25771755E+04</pdfrwt>
<totfact> 0.25906548E+00</totfact>
</mgrwt>
</event>
<event>
 6    1  0.9906445E-006  0.2062175E+04  0.7818608E-02  0.8578091E-01
          1   -1    0    0  501    0  0.00000000000E+00  0.00000000000E+00  0.17513754197E+04  0.17513754197E+04  0.00000000000E+00 0. -1.
         -1   -1    0    0    0  501 -0.00000000000E+00 -0.00000000000E+00 -0.60703234330E+03  0.60703234330E+03  0.00000000000E+00 0.  1.
         23    2    1    2    0    0 -0.12068751620E+03  0.10210869562E+04  0.51455945137E+03  0.11526667199E+04  0.81762396902E+02 0.  0.
         11    1    3    3    0    0 -0.32611381423E+02  0.60400377163E+03  0.31493566375E+03  0.68195933211E+03  0.00000000000E+00 0. -1.
        -11    1    3    3    0    0 -0.88076134781E+02  0.41708318455E+03  0.19962378762E+03  0.47070738780E+03  0.00000000000E+00 0.  1.
         22    1    1    2    0    0  0.12068751620E+03 -0.10210869562E+04  0.62978362501E+03  0.12057410431E+04  0.00000000000E+00 0.  1.
<mgrwt>
<rscale>  0 0.20621751E+04</rscale>
<asrwt>0</asrwt>
<pdfrwt beam="1">  1        1 0.26944237E+00 0.20621751E+04</pdfrwt>
<pdfrwt beam="2">  1       -1 0.93389592E-01 0.20621751E+04</pdfrwt>
<totfact> 0.45130643E+00</totfact>
</mgrwt>
</event>
<event>
 6    1  0.9906445E-006  0.1149116E+04  0.7818608E-02  0.9158600E-01
          1   -1    0    0  501    0  0.00000000000E+00  0.00000000000E+00  0.84466005456E+03  0.84466005456E+03  0.00000000000E+00 0.  1.
         -1   -1    0    0    0  501 -0.00000000000E+00 -0.00000000000E+00 -0.39082780088E+03  0.39082780088E+03  0.00000000000E+00 0. -1.
         23    2    1    2    0    0 -0.27232629978E+03  0.49545152373E+03  0.31552903859E+03  0.65345554945E+03  0.88384133192E+02 0.  0.
         13    1    3    3    0    0 -0.17359611348E+03  0.26747729764E+03  0.13458485558E+03  0.34611096301E+03  0.00000000000E+00 0. -1.
        -13    1    3    3    0    0 -0.98730186301E+02  0.22797422609E+03  0.18094418301E+03  0.30734458644E+03  0.00000000000E+00 0.  1.
         22    1    1    2    0    0  0.27232629978E+03 -0.49545152373E+03  0.13830321509E+03  0.58203230599E+03  0.00000000000E+00 0.  1.
<mgrwt>
<rscale>  0 0.11491155E+04</rscale>
<asrwt>0</asrwt>
<pdfrwt beam="1">  1        1 0.12994770E+00 0.11491155E+04</pdfrwt>
<pdfrwt beam="2">  1       -1 0.60127354E-01 0.11491155E+04</pdfrwt>
<totfact> 0.56379096E+01</totfact>
</mgrwt>
</event>
<event>
 6    1  0.9906445E-006  0.4505395E+04  0.7818608E-02  0.7909693E-01
         -1   -1    0    0    0  501 -0.00000000000E+00  0.00000000000E+00  0.37260740850E+04  0.37260740850E+04  0.00000000000E+00 0.  1.
          1   -1    0    0  501    0  0.00000000000E+00 -0.00000000000E+00 -0.13619281291E+04  0.13619281291E+04  0.00000000000E+00 0. -1.
         23    2    1    2    0    0 -0.48833617133E+02  0.21671049281E+04  0.49400943273E+03  0.22251122220E+04  0.91381558468E+02 0.  0.
         13    1    3    3    0    0 -0.34527706859E+02  0.12175391813E+04  0.32345862980E+03  0.12602457322E+04  0.00000000000E+00 0.  1.
        -13    1    3    3    0    0 -0.14305910274E+02  0.94956574689E+03  0.17055080294E+03  0.96486648979E+03  0.00000000000E+00 0. -1.
         22    1    1    2    0    0  0.48833617133E+02 -0.21671049281E+04  0.18701365231E+04  0.28628899921E+04  0.00000000000E+00 0.  1.
<mgrwt>
<rscale>  0 0.45053946E+04</rscale>
<asrwt>0</asrwt>
<pdfrwt beam="1">  1        1 0.20952741E+00 0.45053946E+04</pdfrwt>
<pdfrwt beam="2">  1       -1 0.57324216E+00 0.45053946E+04</pdfrwt>
<totfact> 0.35485904E-03</totfact>
</mgrwt>
</event>
<event>
 6    1  0.9906445E-006  0.2243133E+04  0.7818608E-02  0.8500687E-01
         -2   -1    0    0    0  501 -0.00000000000E+00  0.00000000000E+00  0.10816576386E+04  0.10816576386E+04  0.00000000000E+00 0.  1.
          2   -1    0    0  501    0  0.00000000000E+00 -0.00000000000E+00 -0.11629481899E+04  0.11629481899E+04  0.00000000000E+00 0. -1.
         23    2    1    2    0    0 -0.87103184750E+02  0.10492292921E+04  0.34037989522E+03  0.11104651681E+04  0.93836795827E+02 0.  0.
         11    1    3    3    0    0 -0.83056525534E+02  0.97550454322E+03  0.34072197236E+03  0.10366286523E+04  0.00000000000E+00 0. -1.
        -11    1    3    3    0    0 -0.40466592160E+01  0.73724748900E+02 -0.34207714542E+00  0.73836515816E+02  0.00000000000E+00 0.  1.
         22    1    1    2    0    0  0.87103184750E+02 -0.10492292921E+04 -0.42167044653E+03  0.11341406605E+04  0.00000000000E+00 0. -1.
<mgrwt>
<rscale>  0 0.22431333E+04</rscale>
<asrwt>0</asrwt>
<pdfrwt beam="1">  1        2 0.17891511E+00 0.22431333E+04</pdfrwt>
<pdfrwt beam="2">  1       -2 0.16640887E+00 0.22431333E+04</pdfrwt>
<totfact> 0.41070078E+00</totfact>
</mgrwt>
</event>
<event>
 6    1  0.9906445E-006  0.2089205E+04  0.7818608E-02  0.8566014E-01
          2   -1    0    0  501    0  0.00000000000E+00  0.00000000000E+00  0.14452928272E+04  0.14452928272E+04  0.00000000000E+00 0. -1.
         -2   -1    0    0    0  501 -0.00000000000E+00 -0.00000000000E+00 -0.75499882058E+03  0.75499882058E+03  0.00000000000E+00 0.  1.
         23    2    1    2    0    0 -0.54751693338E+03  0.51581809057E+03 -0.41442126088E+03  0.86378915353E+03  0.92431733735E+02 0.  0.
         11    1    3    3    0    0 -0.25210754245E+03  0.20902566901E+03 -0.22703979960E+03  0.39849343015E+03  0.00000000000E+00 0. -1.
        -11    1    3    3    0    0 -0.29540939092E+03  0.30679242156E+03 -0.18738146128E+03  0.46529572339E+03  0.00000000000E+00 0.  1.
         22    1    1    2    0    0  0.54751693338E+03 -0.51581809057E+03  0.11047152675E+04  0.13365024943E+04  0.00000000000E+00 0. -1.
<mgrwt>
<rscale>  0 0.20892050E+04</rscale>
<asrwt>0</asrwt>
<pdfrwt beam="1">  1        2 0.22235274E+00 0.20892050E+04</pdfrwt>
<pdfrwt beam="2">  1       -2 0.11615366E+00 0.20892050E+04</pdfrwt>
<totfact> 0.72374199E+00</totfact>
</mgrwt>
</event>
<event>
 6    1  0.9906445E-006  0.1358060E+04  0.7818608E-02  0.8984749E-01
         -1   -1    0    0    0  501 -0.00000000000E+00  0.00000000000E+00  0.83802317695E+03  0.83802317695E+03  0.00000000000E+00 0.  1.
          1   -1    0    0  501    0  0.00000000000E+00 -0.00000000000E+00 -0.55020135592E+03  0.55020135592E+03  0.00000000000E+00 0. -1.
         23    2    1    2    0    0 -0.45741028810E+03 -0.39101790000E+03  0.45846605341E+03  0.76273382645E+03  0.97224472728E+02 0.  0.
         13    1    3    3    0    0 -0.35678815558E+02 -0.63845648438E+02  0.80119556138E+02  0.10848220121E+03  0.00000000000E+00 0. -1.
        -13    1    3    3    0    0 -0.42173147254E+03 -0.32717225156E+03  0.37834649728E+03  0.65425162524E+03  0.00000000000E+00 0.  1.
         22    1    1    2    0    0  0.45741028810E+03  0.39101790000E+03 -0.17064423239E+03  0.62549070643E+03  0.00000000000E+00 0. -1.
<mgrwt>
<rscale>  0 0.13580596E+04</rscale>
<asrwt>0</asrwt>
<pdfrwt beam="1">  1        1 0.84646362E-01 0.13580596E+04</pdfrwt>
<pdfrwt beam="2">  1       -1 0.12892664E+00 0.13580596E+04</pdfrwt>
<totfact> 0.19646951E+01</totfact>
</mgrwt>
</event>
<event>
 6    1  0.9906445E-006  0.2822757E+04  0.7818608E-02  0.8296238E-01
          1   -1    0    0  501    0  0.00000000000E+00  0.00000000000E+00  0.15787749643E+04  0.15787749643E+04  0.00000000000E+00 0. -1.
         -1   -1    0    0    0  501 -0.00000000000E+00 -0.00000000000E+00 -0.12617308138E+04  0.12617308138E+04  0.00000000000E+00 0.  1.
         23    2    1    2    0    0 -0.42488094710E+03  0.73704665241E+03  0.12901198405E+04  0.15479741980E+04  0.89740334731E+02 0.  0.
         13    1    3    3    0    0 -0.20201637263E+03  0.43414191365E+03  0.75034280104E+03  0.89011467524E+03  0.00000000000E+00 0.  1.
        -13    1    3    3    0    0 -0.22286457448E+03  0.30290473876E+03  0.53977703949E+03  0.65785952276E+03  0.00000000000E+00 0. -1.
         22    1    1    2    0    0  0.42488094710E+03 -0.73704665241E+03 -0.97307569000E+03  0.12925315801E+04  0.00000000000E+00 0.  1.
<mgrwt>
<rscale>  0 0.28227568E+04</rscale>
<asrwt>0</asrwt>
<pdfrwt beam="1">  1        1 0.24288846E+00 0.28227568E+04</pdfrwt>
<pdfrwt beam="2">  1       -1 0.19411243E+00 0.28227568E+04</pdfrwt>
<totfact> 0.82457731E-01</totfact>
</mgrwt>
</event>
<event>
 6    1  0.9906445E-006  0.2218809E+04  0.7818608E-02  0.8510640E-01
         -1   -1    0    0    0  501 -0.00000000000E+00  0.00000000000E+00  0.94194947701E+03  0.94194947701E+03  0.00000000000E+00 0.  1.
          1   -1    0    0  501    0  0.00000000000E+00 -0.00000000000E+00 -0.13066285103E+04  0.13066285103E+04  0.00000000000E+00 0. -1.
         23    2    1    2    0    0 -0.40721549850E+03  0.41941949909E+03  0.77109419489E+03  0.97119080863E+03  0.82994885127E+02 0.  0.
         11    1    3    3    0    0 -0.26629424375E+03  0.21590618822E+03  0.43984485749E+03  0.55766621292E+03  0.00000000000E+00 0. -1.
        -11    1    3    3    0    0 -0.14092125474E+03  0.20351331086E+03  0.33124933740E+03  0.41352459572E+03  0.00000000000E+00 0.  1.
         22    1    1    2    0    0  0.40721549850E+03 -0.41941949909E+03 -0.11357732282E+04  0.12773871787E+04  0.00000000000E+00 0. -1.
<mgrwt>
<rscale>  0 0.22188087E+04</rscale>
<asrwt>0</asrwt>
<pdfrwt beam="1">  1        1 0.20101977E+00 0.22188087E+04</pdfrwt>
<pdfrwt beam="2">  1       -1 0.14491530E+00 0.22188087E+04</pdfrwt>
<totfact> 0.31168086E+00</totfact>
</mgrwt>
</event>
<event>
 6    1  0.9906445E-006  0.2122724E+04  0.7818608E-02  0.8551299E-01
         -2   -1    0    0    0  501 -0.00000000000E+00  0.00000000000E+00  0.50207691544E+03  0.50207691544E+03  0.00000000000E+00 0.  1.
          2   -1    0    0  501    0  0.00000000000E+00 -0.00000000000E+00 -0.22436591790E+04  0.22436591790E+04  0.00000000000E+00 0. -1.
         23    2    1    2    0    0  0.57428644084E+03 -0.46370554162E+03 -0.18553037962E+04  0.19989025571E+04  0.92905926855E+02 0.  0.
         11    1    3    3    0    0  0.13198766809E+03 -0.15979377109E+03 -0.52686046630E+03  0.56615964600E+03  0.00000000000E+00 0.  1.
        -11    1    3    3    0    0  0.44229877274E+03 -0.30391177053E+03 -0.13284433299E+04  0.14327429111E+04  0.00000000000E+00 0. -1.
         22    1    1    2    0    0 -0.57428644084E+03  0.46370554162E+03  0.11372153264E+03  0.74683353730E+03  0.00000000000E+00 0.  1.
<mgrwt>
<rscale>  0 0.21227242E+04</rscale>
<asrwt>0</asrwt>
<pdfrwt beam="1">  1        2 0.34517834E+00 0.21227242E+04</pdfrwt>
<pdfrwt beam="2">  1       -2 0.77242602E-01 0.21227242E+04</pdfrwt>
<totfact> 0.67112615E+00</totfact>
</mgrwt>
</event>
<event>
 6    1  0.9906445E-006  0.1593621E+04  0.7818608E-02  0.8824476E-01
          2   -1    0    0  501    0  0.00000000000E+00  0.00000000000E+00  0.10863762314E+04  0.10863762314E+04  0.00000000000E+00 0. -1.
         -2   -1    0    0    0  501 -0.00000000000E+00 -0.00000000000E+00 -0.58442646799E+03  0.58442646799E+03  0.00000000000E+00 0.  1.
         23    2    1    2    0    0  0.53696255175E+03 -0.55883269614E+03  0.69573885595E+02  0.78335035479E+03  0.90412878157E+02 0.  0.
         13    1    3    3    0    0  0.44145535775E+03 -0.41122658836E+03  0.36202981680E+02  0.60440118774E+03  0.00000000000E+00 0.  1.
        -13    1    3    3    0    0  0.95507194004E+02 -0.14760610778E+03  0.33370903914E+02  0.17894916705E+03  0.00000000000E+00 0. -1.
         22    1    1    2    0    0 -0.53696255175E+03  0.55883269614E+03  0.43237587786E+03  0.88745234464E+03  0.00000000000E+00 0.  1.
<mgrwt>
<rscale>  0 0.15936211E+04</rscale>
<asrwt>0</asrwt>
<pdfrwt beam="1">  1        2 0.16713480E+00 0.15936211E+04</pdfrwt>
<pdfrwt beam="2">  1       -2 0.89911765E-01 0.15936211E+04</pdfrwt>
<totfact> 0.22578122E+01</totfact>
</mgrwt>
</event>
<event>
 6    1  0.9906445E-006  0.1426279E+04  0.7818608E-02  0.8935013E-01
         -1   -1    0    0    0  501 -0.00000000000E+00  0.00000000000E+00  0.68327953914E+03  0.68327953914E+03  0.00000000000E+00 0.  1.
          1   -1    0    0  501    0  0.00000000000E+00 -0.00000000000E+00 -0.74430467370E+03  0.74430467370E+03  0.00000000000E+00 0. -1.
         23    2    1    2    0    0 -0.46016620274E+03  0.49068878307E+03  0.19717570991E+03  0.70703158321E+03  0.92124823428E+02 0.  0.
         11    1    3    3    0    0 -0.19515845417E+03  0.23978744343E+03  0.48408728754E+02  0.31293488984E+03  0.00000000000E+00 0. -1.
        -11    1    3    3    0    0 -0.26500774857E+03  0.25090133964E+03  0.14876698116E+03  0.39409669336E+03  0.00000000000E+00 0.  1.
         22    1    1    2    0    0  0.46016620274E+03 -0.49068878307E+03 -0.25820084448E+03  0.72055262963E+03  0.00000000000E+00 0. -1.
<mgrwt>
<rscale>  0 0.14262793E+04</rscale>
<asrwt>0</asrwt>
<pdfrwt beam="1">  1        1 0.11450841E+00 0.14262793E+04</pdfrwt>
<pdfrwt beam="2">  1       -1 0.10511993E+00 0.14262793E+04</pdfrwt>
<totfact> 0.20486929E+01</totfact>
</mgrwt>
</event>
<event>
 6    1  0.9906445E-006  0.2778314E+04  0.7818608E-02  0.8310033E-01
         -1   -1    0    0    0  501 -0.00000000000E+00  0.00000000000E+00  0.18119074629E+04  0.18119074629E+04  0.00000000000E+00 0.  1.
          1   -1    0    0  501    0  0.00000000000E+00 -0.00000000000E+00 -0.10650420746E+04  0.10650420746E+04  0.00000000000E+00 0. -1.
         23    2    1    2    0    0 -0.10917558634E+03 -0.10463329048E+04 -0.56324792046E+03  0.11967326651E+04  0.90493068880E+02 0.  0.
         11    1    3    3    0    0 -0.30837406096E+02 -0.13063867407E+03 -0.44587937857E+02  0.14144077552E+03  0.00000000000E+00 0.  1.
        -11    1    3    3    0    0 -0.78338180239E+02 -0.91569423070E+03 -0.51865998261E+03  0.10552918896E+04  0.00000000000E+00 0. -1.
         22    1    1    2    0    0  0.10917558634E+03  0.10463329048E+04  0.13101133088E+04  0.16802168723E+04  0.00000000000E+00 0.  1.
<mgrwt>
<rscale>  0 0.27783144E+04</rscale>
<asrwt>0</asrwt>
<pdfrwt beam="1">  1        1 0.16385263E+00 0.27783144E+04</pdfrwt>
<pdfrwt beam="2">  1       -1 0.27875499E+00 0.27783144E+04</pdfrwt>
<totfact> 0.52996043E-01</totfact>
</mgrwt>
</event>
<event>
 6    1  0.9906445E-006  0.3226352E+04  0.7818608E-02  0.8181892E-01
         -1   -1    0    0    0  501 -0.00000000000E+00  0.00000000000E+00  0.14435076805E+04  0.14435076805E+04  0.00000000000E+00 0.  1.
          1   -1    0    0  501    0  0.00000000000E+00 -0.00000000000E+00 -0.18027868154E+04  0.18027868154E+04  0.00000000000E+00 0. -1.
         23    2    1    2    0    0 -0.78426366599E+03  0.10140758233E+04  0.80302703211E+03  0.15158682770E+04  0.97902735316E+02 0.  0.
         11    1    3    3    0    0 -0.32347298443E+03  0.34132884856E+03  0.29049428921E+03  0.55274504663E+03  0.00000000000E+00 0.  1.
        -11    1    3    3    0    0 -0.46079068156E+03  0.67274697477E+03  0.51253274290E+03  0.96312323034E+03  0.00000000000E+00 0. -1.
         22    1    1    2    0    0  0.78426366599E+03 -0.10140758233E+04 -0.11623061671E+04  0.17304262190E+04  0.00000000000E+00 0. -1.
<mgrwt>
<rscale>  0 0.32263519E+04</rscale>
<asrwt>0</asrwt>
<pdfrwt beam="1">  1        1 0.27735182E+00 0.32263519E+04</pdfrwt>
<pdfrwt beam="2">  1       -1 0.22207811E+00 0.32263519E+04</pdfrwt>
<totfact> 0.36091357E-01</totfact>
</mgrwt>
</event>
<event>
 6    1  0.9906445E-006  0.3750149E+04  0.7818608E-02  0.8056938E-01
          1   -1    0    0  501    0  0.00000000000E+00  0.00000000000E+00  0.30495954725E+04  0.30495954725E+04  0.00000000000E+00 0. -1.
         -1   -1    0    0    0  501 -0.00000000000E+00 -0.00000000000E+00 -0.11529083879E+04  0.11529083879E+04  0.00000000000E+00 0.  1.
         23    2    1    2    0    0 -0.11450498407E+04 -0.12829609690E+04  0.11416912129E+03  0.17257119283E+04  0.88989243247E+02 0.  0.
         13    1    3    3    0    0 -0.84890377330E+03 -0.89257612400E+03  0.72145604158E+02  0.12339103459E+04  0.00000000000E+00 0. -1.
        -13    1    3    3    0    0 -0.29614606741E+03 -0.39038484503E+03  0.42023517132E+02  0.49180158241E+03  0.00000000000E+00 0.  1.
         22    1    1    2    0    0  0.11450498407E+04  0.12829609690E+04  0.17825179632E+04  0.24767919321E+04  0.00000000000E+00 0. -1.
<mgrwt>
<rscale>  0 0.37501489E+04</rscale>
<asrwt>0</asrwt>
<pdfrwt beam="1">  1        1 0.46916853E+00 0.37501489E+04</pdfrwt>
<pdfrwt beam="2">  1       -1 0.17737052E+00 0.37501489E+04</pdfrwt>
<totfact> 0.95424560E-02</totfact>
</mgrwt>
</event>
<event>
 6    1  0.9906445E-006  0.3115255E+04  0.7818608E-02  0.8211564E-01
         -2   -1    0    0    0  501 -0.00000000000E+00  0.00000000000E+00  0.66891238625E+03  0.66891238625E+03  0.00000000000E+00 0.  1.
          2   -1    0    0  501    0  0.00000000000E+00 -0.00000000000E+00 -0.36270866515E+04  0.36270866515E+04  0.00000000000E+00 0. -1.
         23    2    1    2    0    0  0.86243896926E+03  0.12305873131E+04 -0.20386517311E+04  0.25342760739E+04  0.91149475643E+02 0.  0.
         13    1    3    3    0    0  0.50452606396E+03  0.79372886000E+03 -0.12944222970E+04  0.16000253546E+04  0.00000000000E+00 0.  1.
        -13    1    3    3    0    0  0.35791290530E+03  0.43685845308E+03 -0.74422943408E+03  0.93425071922E+03  0.00000000000E+00 0. -1.
         22    1    1    2    0    0 -0.86243896926E+03 -0.12305873131E+04 -0.91952253418E+03  0.17617229639E+04  0.00000000000E+00 0.  1.
<mgrwt>
<rscale>  0 0.31152548E+04</rscale>
<asrwt>0</asrwt>
<pdfrwt beam="1">  1        2 0.55801334E+00 0.31152548E+04</pdfrwt>
<pdfrwt beam="2">  1       -2 0.10290960E+00 0.31152548E+04</pdfrwt>
<totfact> 0.43121420E-01</totfact>
</mgrwt>
</event>
<event>
 6    1  0.9906445E-006  0.6876631E+03  0.7818608E-02  0.9738566E-01
         -2   -1    0    0    0  501 -0.00000000000E+00  0.00000000000E+00  0.30973613506E+03  0.30973613506E+03  0.00000000000E+00 0.  1.
          2   -1    0    0  501    0  0.00000000000E+00 -0.00000000000E+00 -0.38168015255E+03  0.38168015255E+03  0.00000000000E+00 0. -1.
         23    2    1    2    0    0  0.26879507512E+03 -0.12358606397E+02 -0.24176983321E+03  0.37322713750E+03  0.91882078528E+02 0.  0.
         11    1    3    3    0    0  0.15746640602E+03 -0.45603066221E+02 -0.10934274345E+03  0.19705619559E+03  0.00000000000E+00 0. -1.
        -11    1    3    3    0    0  0.11132866910E+03  0.33244459824E+02 -0.13242708976E+03  0.17617094191E+03  0.00000000000E+00 0.  1.
         22    1    1    2    0    0 -0.26879507512E+03  0.12358606397E+02  0.16982581572E+03  0.31818915011E+03  0.00000000000E+00 0.  1.
<mgrwt>
<rscale>  0 0.68766310E+03</rscale>
<asrwt>0</asrwt>
<pdfrwt beam="1">  1        2 0.58720023E-01 0.68766310E+03</pdfrwt>
<pdfrwt beam="2">  1       -2 0.47651713E-01 0.68766310E+03</pdfrwt>
<totfact> 0.35304408E+02</totfact>
</mgrwt>
</event>
<event>
 6    1  0.9906445E-006  0.1006067E+04  0.7818608E-02  0.9301915E-01
         -1   -1    0    0    0  501 -0.00000000000E+00  0.00000000000E+00  0.80178914054E+02  0.80178914054E+02  0.00000000000E+00 0.  1.
          1   -1    0    0  501    0  0.00000000000E+00 -0.00000000000E+00 -0.31559762766E+04  0.31559762766E+04  0.00000000000E+00 0. -1.
         23    2    1    2    0    0 -0.39453650064E+03 -0.17909028431E+03 -0.23464945369E+04  0.23878539518E+04  0.89874932129E+02 0.  0.
         11    1    3    3    0    0 -0.15196850471E+03 -0.40919767328E+02 -0.10425138019E+04  0.10543262688E+04  0.00000000000E+00 0. -1.
        -11    1    3    3    0    0 -0.24256799593E+03 -0.13817051699E+03 -0.13039807349E+04  0.13335276830E+04  0.00000000000E+00 0.  1.
         22    1    1    2    0    0  0.39453650064E+03  0.17909028431E+03 -0.72930282572E+03  0.84830123887E+03  0.00000000000E+00 0.  1.
<mgrwt>
<rscale>  0 0.10060671E+04</rscale>
<asrwt>0</asrwt>
<pdfrwt beam="1">  1        1 0.48553481E+00 0.10060671E+04</pdfrwt>
<pdfrwt beam="2">  1       -1 0.12335218E-01 0.10060671E+04</pdfrwt>
<totfact> 0.21301050E+01</totfact>
</mgrwt>
</event>
<event>
 6    1  0.9906445E-006  0.5474058E+03  0.7818608E-02  0.1002096E+00
         -1   -1    0    0    0  501 -0.00000000000E+00  0.00000000000E+00  0.10368776547E+03  0.10368776547E+03  0.00000000000E+00 0.  1.
          1   -1    0    0  501    0  0.00000000000E+00 -0.00000000000E+00 -0.72248905721E+03  0.72248905721E+03  0.00000000000E+00 0. -1.
         23    2    1    2    0    0 -0.14902505405E+03 -0.12176784050E+03 -0.59513226909E+03  0.63227969443E+03  0.92516596109E+02 0.  0.
         11    1    3    3    0    0  0.97775524067E+01  0.82941077435E+00 -0.11438058557E+02  0.15070422584E+02  0.00000000000E+00 0. -1.
        -11    1    3    3    0    0 -0.15880260646E+03 -0.12259725127E+03 -0.58369421053E+03  0.61720927184E+03  0.00000000000E+00 0.  1.
         22    1    1    2    0    0  0.14902505405E+03  0.12176784050E+03 -0.23669022650E+02  0.19389712826E+03  0.00000000000E+00 0.  1.
<mgrwt>
<rscale>  0 0.54740579E+03</rscale>
<asrwt>0</asrwt>
<pdfrwt beam="1">  1        1 0.11115216E+00 0.54740579E+03</pdfrwt>
<pdfrwt beam="2">  1       -1 0.15951964E-01 0.54740579E+03</pdfrwt>
<totfact> 0.77920600E+02</totfact>
</mgrwt>
</event>
<event>
 6    1  0.9906445E-006  0.2742995E+04  0.7818608E-02  0.8321188E-01
         -2   -1    0    0    0  501 -0.00000000000E+00  0.00000000000E+00  0.94482346596E+03  0.94482346596E+03  0.00000000000E+00 0.  1.
          2   -1    0    0  501    0  0.00000000000E+00 -0.00000000000E+00 -0.19908538817E+04  0.19908538817E+04  0.00000000000E+00 0. -1.
         23    2    1    2    0    0 -0.85348260716E+03  0.10718224464E+04 -0.51394594880E+03  0.14658645033E+04  0.85920814810E+02 0.  0.
         13    1    3    3    0    0 -0.66793425150E+03  0.82281074195E+03 -0.36003555932E+03  0.11192762328E+04  0.00000000000E+00 0. -1.
        -13    1    3    3    0    0 -0.18554835567E+03  0.24901170448E+03 -0.15391038948E+03  0.34658827050E+03  0.00000000000E+00 0.  1.
         22    1    1    2    0    0  0.85348260716E+03 -0.10718224464E+04 -0.53208446696E+03  0.14698128443E+04  0.00000000000E+00 0.  1.
<mgrwt>
<rscale>  0 0.27429951E+04</rscale>
<asrwt>0</asrwt>
<pdfrwt beam="1">  1        2 0.30628521E+00 0.27429951E+04</pdfrwt>
<pdfrwt beam="2">  1       -2 0.14535746E+00 0.27429951E+04</pdfrwt>
<totfact> 0.19241192E+00</totfact>
</mgrwt>
</event>
<event>
 6    1  0.9906445E-006  0.1840584E+04  0.7818608E-02  0.8685010E-01
          2   -1    0    0  501    0  0.00000000000E+00  0.00000000000E+00  0.22818675902E+04  0.22818675902E+04  0.00000000000E+00 0. -1.
         -2   -1    0    0    0  501 -0.00000000000E+00 -0.00000000000E+00 -0.37115978764E+03  0.37115978764E+03  0.00000000000E+00 0.  1.
         23    2    1    2    0    0 -0.77248611253E+03  0.47563929077E+03  0.75511803806E+03  0.11838931999E+04  0.91827710338E+02 0.  0.
         13    1    3    3    0    0 -0.50383037119E+03  0.29964533466E+03  0.43093999043E+03  0.72755868826E+03  0.00000000000E+00 0.  1.
        -13    1    3    3    0    0 -0.26865574134E+03  0.17599395611E+03  0.32417804764E+03  0.45633451164E+03  0.00000000000E+00 0. -1.
         22    1    1    2    0    0  0.77248611253E+03 -0.47563929077E+03  0.11555897645E+04  0.14691341780E+04  0.00000000000E+00 0.  1.
<mgrwt>
<rscale>  0 0.18405841E+04</rscale>
<asrwt>0</asrwt>
<pdfrwt beam="1">  1        2 0.35105654E+00 0.18405841E+04</pdfrwt>
<pdfrwt beam="2">  1       -2 0.57101507E-01 0.18405841E+04</pdfrwt>
<totfact> 0.12562624E+01</totfact>
</mgrwt>
</event>
<event>
 6    1  0.9906445E-006  0.2335875E+04  0.7818608E-02  0.8463909E-01
          2   -1    0    0  501    0  0.00000000000E+00  0.00000000000E+00  0.82381139416E+03  0.82381139416E+03  0.00000000000E+00 0. -1.
         -2   -1    0    0    0  501 -0.00000000000E+00 -0.00000000000E+00 -0.16558131690E+04  0.16558131690E+04  0.00000000000E+00 0.  1.
         23    2    1    2    0    0 -0.75420124052E+03 -0.78675773321E+03 -0.85633963807E+03  0.13894871528E+04  0.97722719787E+02 0.  0.
         11    1    3    3    0    0 -0.37079816171E+03 -0.33536328764E+03 -0.43430176215E+03  0.66225209100E+03  0.00000000000E+00 0. -1.
        -11    1    3    3    0    0 -0.38340307881E+03 -0.45139444557E+03 -0.42203787592E+03  0.72723506176E+03  0.00000000000E+00 0.  1.
         22    1    1    2    0    0  0.75420124052E+03  0.78675773321E+03  0.24337863222E+02  0.10901374104E+04  0.00000000000E+00 0. -1.
<mgrwt>
<rscale>  0 0.23358748E+04</rscale>
<asrwt>0</asrwt>
<pdfrwt beam="1">  1        2 0.12674021E+00 0.23358748E+04</pdfrwt>
<pdfrwt beam="2">  1       -2 0.25474049E+00 0.23358748E+04</pdfrwt>
<totfact> 0.17987034E+00</totfact>
</mgrwt>
</event>
<event>
 6    1  0.9906445E-006  0.1599061E+04  0.7818608E-02  0.8821125E-01
          2   -1    0    0  501    0  0.00000000000E+00  0.00000000000E+00  0.16485400283E+04  0.16485400283E+04  0.00000000000E+00 0. -1.
         -2   -1    0    0    0  501 -0.00000000000E+00 -0.00000000000E+00 -0.38776683768E+03  0.38776683768E+03  0.00000000000E+00 0.  1.
         23    2    1    2    0    0 -0.34316210900E+03 -0.57806316954E+03  0.11774705463E+04  0.13589173240E+04  0.91116107707E+02 0.  0.
         13    1    3    3    0    0 -0.18862501982E+01 -0.44331819971E+02  0.64780944123E+02  0.78520308986E+02  0.00000000000E+00 0. -1.
        -13    1    3    3    0    0 -0.34127585880E+03 -0.53373134957E+03  0.11126896022E+04  0.12803970150E+04  0.00000000000E+00 0.  1.
         22    1    1    2    0    0  0.34316210900E+03  0.57806316954E+03  0.83302644333E+02  0.67738954198E+03  0.00000000000E+00 0.  1.
<mgrwt>
<rscale>  0 0.15990612E+04</rscale>
<asrwt>0</asrwt>
<pdfrwt beam="1">  1        2 0.25362154E+00 0.15990612E+04</pdfrwt>
<pdfrwt beam="2">  1       -2 0.59656437E-01 0.15990612E+04</pdfrwt>
<totfact> 0.26335773E+01</totfact>
</mgrwt>
</event>
<event>
 6    1  0.9906445E-006  0.3131246E+04  0.7818608E-02  0.8207215E-01
         -2   -1    0    0    0  501 -0.00000000000E+00  0.00000000000E+00  0.92614823010E+03  0.92614823010E+03  0.00000000000E+00 0.  1.
          2   -1    0    0  501    0  0.00000000000E+00 -0.00000000000E+00 -0.26466336876E+04  0.26466336876E+04  0.00000000000E+00 0. -1.
         23    2    1    2    0    0 -0.56998863340E+03  0.10376260504E+04  0.30569368100E+03  0.12260913194E+04  0.91084764517E+02 0.  0.
         13    1    3    3    0    0 -0.44879969487E+03  0.88637380772E+03  0.25214249474E+03  0.10250148930E+04  0.00000000000E+00 0. -1.
        -13    1    3    3    0    0 -0.12118893853E+03  0.15125224268E+03  0.53551186258E+02  0.20107642648E+03  0.00000000000E+00 0.  1.
         22    1    1    2    0    0  0.56998863340E+03 -0.10376260504E+04 -0.20261791385E+04  0.23466905983E+04  0.00000000000E+00 0. -1.
<mgrwt>
<rscale>  0 0.31312458E+04</rscale>
<asrwt>0</asrwt>
<pdfrwt beam="1">  1        2 0.40717441E+00 0.31312458E+04</pdfrwt>
<pdfrwt beam="2">  1       -2 0.14248435E+00 0.31312458E+04</pdfrwt>
<totfact> 0.82959445E-01</totfact>
</mgrwt>
</event>
<event>
 6    1  0.9906445E-006  0.1963877E+04  0.7818608E-02  0.8623698E-01
          2   -1    0    0  501    0  0.00000000000E+00  0.00000000000E+00  0.39588969769E+04  0.39588969769E+04  0.00000000000E+00 0. -1.
         -2   -1    0    0    0  501 -0.00000000000E+00 -0.00000000000E+00 -0.24355342338E+03  0.24355342338E+03  0.00000000000E+00 0.  1.
         23    2    1    2    0    0 -0.74966240191E+03  0.54195612587E+03  0.25541233177E+04  0.27178148910E+04  0.85215614251E+02 0.  0.
         13    1    3    3    0    0 -0.39816437086E+03  0.32154226543E+03  0.15047362184E+04  0.15893883671E+04  0.00000000000E+00 0.  1.
        -13    1    3    3    0    0 -0.35149803104E+03  0.22041386043E+03  0.10493870993E+04  0.11284265239E+04  0.00000000000E+00 0. -1.
         22    1    1    2    0    0  0.74966240191E+03 -0.54195612587E+03  0.11612202359E+04  0.14846355093E+04  0.00000000000E+00 0.  1.
<mgrwt>
<rscale>  0 0.19638767E+04</rscale>
<asrwt>0</asrwt>
<pdfrwt beam="1">  1        2 0.60906102E+00 0.19638767E+04</pdfrwt>
<pdfrwt beam="2">  1       -2 0.37469761E-01 0.19638767E+04</pdfrwt>
<totfact> 0.23359034E+00</totfact>
</mgrwt>
</event>
<event>
 6    1  0.9906445E-006  0.2768118E+04  0.7818608E-02  0.8313235E-01
         -2   -1    0    0    0  501 -0.00000000000E+00  0.00000000000E+00  0.64798676931E+03  0.64798676931E+03  0.00000000000E+00 0.  1.
          2   -1    0    0  501    0  0.00000000000E+00 -0.00000000000E+00 -0.29562635417E+04  0.29562635417E+04  0.00000000000E+00 0. -1.
         23    2    1    2    0    0  0.56276487624E+03  0.11797753816E+04 -0.56899258133E+03  0.14285472627E+04  0.91763104246E+02 0.  0.
         13    1    3    3    0    0  0.42981417153E+03  0.85735561725E+03 -0.45596447912E+03  0.10619333702E+04  0.00000000000E+00 0. -1.
        -13    1    3    3    0    0  0.13295070471E+03  0.32241976436E+03 -0.11302810221E+03  0.36661389256E+03  0.00000000000E+00 0.  1.
         22    1    1    2    0    0 -0.56276487624E+03 -0.11797753816E+04 -0.17392841911E+04  0.21757030483E+04  0.00000000000E+00 0. -1.
<mgrwt>
<rscale>  0 0.27681183E+04</rscale>
<asrwt>0</asrwt>
<pdfrwt beam="1">  1        2 0.45480978E+00 0.27681183E+04</pdfrwt>
<pdfrwt beam="2">  1       -2 0.99690272E-01 0.27681183E+04</pdfrwt>
<totfact> 0.13455764E+00</totfact>
</mgrwt>
</event>
<event>
 6    1  0.9906445E-006  0.3972485E+04  0.7818608E-02  0.8010120E-01
         -1   -1    0    0    0  501 -0.00000000000E+00  0.00000000000E+00  0.24552727556E+04  0.24552727556E+04  0.00000000000E+00 0.  1.
          1   -1    0    0  501    0  0.00000000000E+00 -0.00000000000E+00 -0.16068107862E+04  0.16068107862E+04  0.00000000000E+00 0. -1.
         23    2    1    2    0    0  0.69394427237E+03 -0.69039276203E+03 -0.13416258851E+04  0.16631909578E+04  0.89684599562E+02 0.  0.
         11    1    3    3    0    0  0.68171639727E+03 -0.65566580747E+03 -0.12830380826E+04  0.15939954889E+04  0.00000000000E+00 0. -1.
        -11    1    3    3    0    0  0.12227875107E+02 -0.34726954562E+02 -0.58587802550E+02  0.69195468857E+02  0.00000000000E+00 0.  1.
         22    1    1    2    0    0 -0.69394427237E+03  0.69039276203E+03  0.21900878545E+04  0.23988925840E+04  0.00000000000E+00 0.  1.
<mgrwt>
<rscale>  0 0.39724847E+04</rscale>
<asrwt>0</asrwt>
<pdfrwt beam="1">  1        1 0.24720166E+00 0.39724847E+04</pdfrwt>
<pdfrwt beam="2">  1       -1 0.37773427E+00 0.39724847E+04</pdfrwt>
<totfact> 0.43860733E-02</totfact>
</mgrwt>
</event>
<event>
 6    1  0.9906445E-006  0.2756009E+04  0.7818608E-02  0.8317057E-01
          2   -1    0    0  501    0  0.00000000000E+00  0.00000000000E+00  0.20823936860E+04  0.20823936860E+04  0.00000000000E+00 0. -1.
         -2   -1    0    0    0  501 -0.00000000000E+00 -0.00000000000E+00 -0.91188166181E+03  0.91188166181E+03  0.00000000000E+00 0.  1.
         23    2    1    2    0    0  0.98445759070E+03 -0.78874759035E+03  0.11843761268E+04  0.17327398855E+04  0.91439554120E+02 0.  0.
         11    1    3    3    0    0  0.82383122915E+03 -0.69748235834E+03  0.99219014477E+03  0.14661585241E+04  0.00000000000E+00 0.  1.
        -11    1    3    3    0    0  0.16062636155E+03 -0.91265232014E+02  0.19218598204E+03  0.26658136149E+03  0.00000000000E+00 0. -1.
         22    1    1    2    0    0 -0.98445759070E+03  0.78874759035E+03 -0.13864102625E+02  0.12615354622E+04  0.00000000000E+00 0.  1.
<mgrwt>
<rscale>  0 0.27560092E+04</rscale>
<asrwt>0</asrwt>
<pdfrwt beam="1">  1        2 0.32036826E+00 0.27560092E+04</pdfrwt>
<pdfrwt beam="2">  1       -2 0.14028949E+00 0.27560092E+04</pdfrwt>
<totfact> 0.18751436E+00</totfact>
</mgrwt>
</event>
<event>
 6    1  0.9906445E-006  0.2056973E+04  0.7818608E-02  0.8580438E-01
          2   -1    0    0  501    0  0.00000000000E+00  0.00000000000E+00  0.75905114406E+03  0.75905114406E+03  0.00000000000E+00 0. -1.
         -2   -1    0    0    0  501 -0.00000000000E+00 -0.00000000000E+00 -0.13935609280E+04  0.13935609280E+04  0.00000000000E+00 0.  1.
         23    2    1    2    0    0 -0.38552701694E+03  0.11492827077E+03  0.67040507218E+03  0.78709298763E+03  0.90734900448E+02 0.  0.
         11    1    3    3    0    0 -0.19834169418E+03  0.34863383830E+02  0.40778879065E+03  0.45480389286E+03  0.00000000000E+00 0. -1.
        -11    1    3    3    0    0 -0.18718532276E+03  0.80064886944E+02  0.26261628153E+03  0.33228909477E+03  0.00000000000E+00 0.  1.
         22    1    1    2    0    0  0.38552701694E+03 -0.11492827077E+03 -0.13049148561E+04  0.13655190844E+04  0.00000000000E+00 0.  1.
<mgrwt>
<rscale>  0 0.20569725E+04</rscale>
<asrwt>0</asrwt>
<pdfrwt beam="1">  1        2 0.11677710E+00 0.20569725E+04</pdfrwt>
<pdfrwt beam="2">  1       -2 0.21439399E+00 0.20569725E+04</pdfrwt>
<totfact> 0.36617007E+00</totfact>
</mgrwt>
</event>
<event>
 6    1  0.9906445E-006  0.2182084E+04  0.7818608E-02  0.8525922E-01
          2   -1    0    0  501    0  0.00000000000E+00  0.00000000000E+00  0.50240210342E+04  0.50240210342E+04  0.00000000000E+00 0.  1.
         -2   -1    0    0    0  501 -0.00000000000E+00 -0.00000000000E+00 -0.23693627054E+03  0.23693627054E+03  0.00000000000E+00 0. -1.
         23    2    1    2    0    0  0.34534750265E+03 -0.70522506399E+03  0.57819599382E+03  0.97944449204E+03  0.91616686463E+02 0.  0.
         11    1    3    3    0    0  0.22623111518E+03 -0.43934420746E+03  0.30934676942E+03  0.58300881113E+03  0.00000000000E+00 0. -1.
        -11    1    3    3    0    0  0.11911638747E+03 -0.26588085653E+03  0.26884922440E+03  0.39643568090E+03  0.00000000000E+00 0.  1.
         22    1    1    2    0    0 -0.34534750265E+03  0.70522506399E+03  0.42088887698E+04  0.42815128127E+04  0.00000000000E+00 0.  1.
<mgrwt>
<rscale>  0 0.21820841E+04</rscale>
<asrwt>0</asrwt>
<pdfrwt beam="1">  1        2 0.77292624E+00 0.21820841E+04</pdfrwt>
<pdfrwt beam="2">  1       -2 0.36451738E-01 0.21820841E+04</pdfrwt>
<totfact> 0.21150286E-01</totfact>
</mgrwt>
</event>
<event>
 6    1  0.9906445E-006  0.2996057E+04  0.7818608E-02  0.8244858E-01
         -2   -1    0    0    0  501 -0.00000000000E+00  0.00000000000E+00  0.10458146233E+04  0.10458146233E+04  0.00000000000E+00 0.  1.
          2   -1    0    0  501    0  0.00000000000E+00 -0.00000000000E+00 -0.21457818499E+04  0.21457818499E+04  0.00000000000E+00 0. -1.
         23    2    1    2    0    0 -0.13058216040E+04  0.64372408983E+03 -0.92011838285E+03  0.17246621285E+04  0.91054124557E+02 0.  0.
         11    1    3    3    0    0 -0.50414434810E+03  0.28240040758E+03 -0.32656327995E+03  0.66374324082E+03  0.00000000000E+00 0.  1.
        -11    1    3    3    0    0 -0.80167725589E+03  0.36132368225E+03 -0.59355510290E+03  0.10609188876E+04  0.00000000000E+00 0. -1.
         22    1    1    2    0    0  0.13058216040E+04 -0.64372408983E+03 -0.17984884379E+03  0.14669343448E+04  0.00000000000E+00 0.  1.
<mgrwt>
<rscale>  0 0.29960574E+04</rscale>
<asrwt>0</asrwt>
<pdfrwt beam="1">  1        2 0.33012028E+00 0.29960574E+04</pdfrwt>
<pdfrwt beam="2">  1       -2 0.16089456E+00 0.29960574E+04</pdfrwt>
<totfact> 0.11767125E+00</totfact>
</mgrwt>
</event>
<event>
 6    1  0.9906445E-006  0.2369403E+04  0.7818608E-02  0.8451048E-01
          1   -1    0    0  501    0  0.00000000000E+00  0.00000000000E+00  0.11801556721E+04  0.11801556721E+04  0.00000000000E+00 0. -1.
         -1   -1    0    0    0  501 -0.00000000000E+00 -0.00000000000E+00 -0.11892643676E+04  0.11892643676E+04  0.00000000000E+00 0.  1.
         23    2    1    2    0    0 -0.16711785358E+03  0.38939201631E+03  0.10999108414E+04  0.11822052939E+04  0.90834897232E+02 0.  0.
         11    1    3    3    0    0 -0.77713510368E+02  0.18705178897E+03  0.40318611987E+03  0.45120594933E+03  0.00000000000E+00 0. -1.
        -11    1    3    3    0    0 -0.89404343208E+02  0.20234022734E+03  0.69672472152E+03  0.73099934457E+03  0.00000000000E+00 0.  1.
         22    1    1    2    0    0  0.16711785358E+03 -0.38939201631E+03 -0.11090195369E+04  0.11872147458E+04  0.00000000000E+00 0.  1.
<mgrwt>
<rscale>  0 0.23694025E+04</rscale>
<asrwt>0</asrwt>
<pdfrwt beam="1">  1        1 0.18156241E+00 0.23694025E+04</pdfrwt>
<pdfrwt beam="2">  1       -1 0.18296375E+00 0.23694025E+04</pdfrwt>
<totfact> 0.19677292E+00</totfact>
</mgrwt>
</event>
<event>
 6    1  0.9906445E-006  0.1408811E+04  0.7818608E-02  0.8947465E-01
          1   -1    0    0  501    0  0.00000000000E+00  0.00000000000E+00  0.19869229317E+04  0.19869229317E+04  0.00000000000E+00 0. -1.
         -1   -1    0    0    0  501 -0.00000000000E+00 -0.00000000000E+00 -0.24972645323E+03  0.24972645323E+03  0.00000000000E+00 0.  1.
         23    2    1    2    0    0  0.34676478119E+03  0.49025142996E+03  0.29519826927E+03  0.67461509805E+03  0.85855892594E+02 0.  0.
         13    1    3    3    0    0  0.18266737010E+03  0.18680833559E+03  0.13863796970E+03  0.29577898672E+03  0.00000000000E+00 0. -1.
        -13    1    3    3    0    0  0.16409741109E+03  0.30344309437E+03  0.15656029957E+03  0.37883611133E+03  0.00000000000E+00 0.  1.
         22    1    1    2    0    0 -0.34676478119E+03 -0.49025142996E+03  0.14419982092E+04  0.15620342869E+04  0.00000000000E+00 0. -1.
<mgrwt>
<rscale>  0 0.14088112E+04</rscale>
<asrwt>0</asrwt>
<pdfrwt beam="1">  1        1 0.30568044E+00 0.14088112E+04</pdfrwt>
<pdfrwt beam="2">  1       -1 0.38419456E-01 0.14088112E+04</pdfrwt>
<totfact> 0.19447419E+01</totfact>
</mgrwt>
</event>
<event>
 6    1  0.9906445E-006  0.1521567E+04  0.7818608E-02  0.8870236E-01
          1   -1    0    0  501    0  0.00000000000E+00  0.00000000000E+00  0.25846676323E+04  0.25846676323E+04  0.00000000000E+00 0. -1.
         -1   -1    0    0    0  501 -0.00000000000E+00 -0.00000000000E+00 -0.22393280492E+03  0.22393280492E+03  0.00000000000E+00 0.  1.
         23    2    1    2    0    0 -0.46913176290E+03 -0.46269342195E+02  0.88747289078E+02  0.48822270133E+03  0.90883781787E+02 0.  0.
         11    1    3    3    0    0 -0.16192378972E+03 -0.51164347800E+02  0.57974989705E+02  0.17943857889E+03  0.00000000000E+00 0. -1.
        -11    1    3    3    0    0 -0.30720797318E+03  0.48950056050E+01  0.30772299373E+02  0.30878412244E+03  0.00000000000E+00 0.  1.
         22    1    1    2    0    0  0.46913176290E+03  0.46269342195E+02  0.22719875383E+04  0.23203777359E+04  0.00000000000E+00 0. -1.
<mgrwt>
<rscale>  0 0.15215674E+04</rscale>
<asrwt>0</asrwt>
<pdfrwt beam="1">  1        1 0.39764115E+00 0.15215674E+04</pdfrwt>
<pdfrwt beam="2">  1       -1 0.34451203E-01 0.15215674E+04</pdfrwt>
<totfact> 0.91440122E+00</totfact>
</mgrwt>
</event>
<event>
 6    1  0.9906445E-006  0.7834054E+04  0.7818608E-02  0.7497045E-01
         -2   -1    0    0    0  501 -0.00000000000E+00  0.00000000000E+00  0.39525564025E+04  0.39525564025E+04  0.00000000000E+00 0.  1.
          2   -1    0    0  501    0  0.00000000000E+00 -0.00000000000E+00 -0.38818173259E+04  0.38818173259E+04  0.00000000000E+00 0. -1.
         23    2    1    2    0    0  0.36360628692E+03 -0.36106497949E+04  0.15084487411E+04  0.39310404666E+04  0.93059509251E+02 0.  0.
         13    1    3    3    0    0  0.20255720897E+03 -0.24457672755E+04  0.10181248577E+04  0.26569503598E+04  0.00000000000E+00 0. -1.
        -13    1    3    3    0    0  0.16104907795E+03 -0.11648825194E+04  0.49032388347E+03  0.12740901068E+04  0.00000000000E+00 0.  1.
         22    1    1    2    0    0 -0.36360628692E+03  0.36106497949E+04 -0.14377096646E+04  0.39033332618E+04  0.00000000000E+00 0.  1.
<mgrwt>
<rscale>  0 0.78340544E+04</rscale>
<asrwt>0</asrwt>
<pdfrwt beam="1">  1        2 0.59720267E+00 0.78340544E+04</pdfrwt>
<pdfrwt beam="2">  1       -2 0.60808560E+00 0.78340544E+04</pdfrwt>
<totfact> 0.12124199E-04</totfact>
</mgrwt>
</event>
<event>
 6    1  0.9906445E-006  0.8335755E+03  0.7818608E-02  0.9512650E-01
          3   -1    0    0  501    0  0.00000000000E+00  0.00000000000E+00  0.19375676714E+03  0.19375676714E+03  0.00000000000E+00 0. -1.
         -3   -1    0    0    0  501 -0.00000000000E+00 -0.00000000000E+00 -0.89654681428E+03  0.89654681428E+03  0.00000000000E+00 0.  1.
         23    2    1    2    0    0 -0.14893936954E+03 -0.28526697909E+03 -0.19414616984E+02  0.33494792765E+03  0.90846033089E+02 0.  0.
         11    1    3    3    0    0 -0.81652431938E+01 -0.98593825844E+02 -0.21014562513E+02  0.10113864508E+03  0.00000000000E+00 0.  1.
        -11    1    3    3    0    0 -0.14077412635E+03 -0.18667315324E+03  0.15999455289E+01  0.23380928257E+03  0.00000000000E+00 0. -1.
         22    1    1    2    0    0  0.14893936954E+03  0.28526697909E+03 -0.68337543015E+03  0.75535565377E+03  0.00000000000E+00 0.  1.
<mgrwt>
<rscale>  0 0.83357546E+03</rscale>
<asrwt>0</asrwt>
<pdfrwt beam="1">  1        3 0.29808733E-01 0.83357546E+03</pdfrwt>
<pdfrwt beam="2">  1       -3 0.13793028E+00 0.83357546E+03</pdfrwt>
<totfact> 0.11566074E+01</totfact>
</mgrwt>
</event>
<event>
 6    1  0.9906445E-006  0.9276709E+03  0.7818608E-02  0.9391637E-01
          2   -1    0    0  501    0  0.00000000000E+00  0.00000000000E+00  0.12197682741E+04  0.12197682741E+04  0.00000000000E+00 0. -1.
         -2   -1    0    0    0  501 -0.00000000000E+00 -0.00000000000E+00 -0.17638049904E+03  0.17638049904E+03  0.00000000000E+00 0.  1.
         23    2    1    2    0    0 -0.14496032374E+03 -0.42723592881E+03  0.65517702222E+03  0.80095836415E+03  0.93452321222E+02 0.  0.
         13    1    3    3    0    0  0.11830541482E+01 -0.53441076198E+02  0.12541883248E+03  0.13633499838E+03  0.00000000000E+00 0. -1.
        -13    1    3    3    0    0 -0.14614337789E+03 -0.37379485261E+03  0.52975818973E+03  0.66462336577E+03  0.00000000000E+00 0.  1.
         22    1    1    2    0    0  0.14496032374E+03  0.42723592881E+03  0.38821075288E+03  0.59519040901E+03  0.00000000000E+00 0.  1.
<mgrwt>
<rscale>  0 0.92767093E+03</rscale>
<asrwt>0</asrwt>
<pdfrwt beam="1">  1        2 0.18765665E+00 0.92767093E+03</pdfrwt>
<pdfrwt beam="2">  1       -2 0.27135462E-01 0.92767093E+03</pdfrwt>
<totfact> 0.22767818E+02</totfact>
</mgrwt>
</event>
<event>
 6    1  0.9906445E-006  0.5361791E+04  0.7818608E-02  0.7774998E-01
         -3   -1    0    0    0  501 -0.00000000000E+00  0.00000000000E+00  0.31700754482E+04  0.31700754482E+04  0.00000000000E+00 0.  1.
          3   -1    0    0  501    0  0.00000000000E+00 -0.00000000000E+00 -0.22672019598E+04  0.22672019598E+04  0.00000000000E+00 0. -1.
         23    2    1    2    0    0  0.75341402637E+03  0.11633829777E+04  0.27777620076E+04  0.31056900502E+04  0.90864015980E+02 0.  0.
         11    1    3    3    0    0  0.60973851723E+03  0.87575301342E+03  0.21034734878E+04  0.23586702003E+04  0.00000000000E+00 0. -1.
        -11    1    3    3    0    0  0.14367550913E+03  0.28762996429E+03  0.67428851980E+03  0.74701984995E+03  0.00000000000E+00 0.  1.
         22    1    1    2    0    0 -0.75341402637E+03 -0.11633829777E+04 -0.18748885192E+04  0.23315873579E+04  0.00000000000E+00 0. -1.
<mgrwt>
<rscale>  0 0.53617912E+04</rscale>
<asrwt>0</asrwt>
<pdfrwt beam="1">  1        3 0.34880030E+00 0.53617912E+04</pdfrwt>
<pdfrwt beam="2">  1       -3 0.48770392E+00 0.53617912E+04</pdfrwt>
<totfact> 0.13387705E-04</totfact>
</mgrwt>
</event>
<event>
 6    1  0.9906445E-006  0.3118130E+03  0.7818608E-02  0.1079480E+00
          2   -1    0    0  501    0  0.00000000000E+00  0.00000000000E+00  0.25690975200E+04  0.25690975200E+04  0.00000000000E+00 0. -1.
         -2   -1    0    0    0  501 -0.00000000000E+00 -0.00000000000E+00 -0.94612349853E+01  0.94612349853E+01  0.00000000000E+00 0.  1.
         23    2    1    2    0    0  0.77172572822E+02  0.37061099573E+02  0.23329491078E+04  0.23362444810E+04  0.89764157613E+02 0.  0.
         11    1    3    3    0    0 -0.17941680135E+02 -0.43604249409E+01  0.52186351016E+03  0.52219004245E+03  0.00000000000E+00 0. -1.
        -11    1    3    3    0    0  0.95114252957E+02  0.41421524514E+02  0.18110855977E+04  0.18140544385E+04  0.00000000000E+00 0.  1.
         22    1    1    2    0    0 -0.77172572822E+02 -0.37061099573E+02  0.22668717721E+03  0.24231427405E+03  0.00000000000E+00 0.  1.
<mgrwt>
<rscale>  0 0.31181299E+03</rscale>
<asrwt>0</asrwt>
<pdfrwt beam="1">  1        2 0.39524522E+00 0.31181299E+03</pdfrwt>
<pdfrwt beam="2">  1       -2 0.14555767E-02 0.31181299E+03</pdfrwt>
<totfact> 0.45233702E+03</totfact>
</mgrwt>
</event>
<event>
 6    1  0.9906445E-006  0.4744200E+04  0.7818608E-02  0.7869226E-01
         -1   -1    0    0    0  501 -0.00000000000E+00  0.00000000000E+00  0.22075128247E+04  0.22075128247E+04  0.00000000000E+00 0.  1.
          1   -1    0    0  501    0  0.00000000000E+00 -0.00000000000E+00 -0.25489588294E+04  0.25489588294E+04  0.00000000000E+00 0. -1.
         23    2    1    2    0    0 -0.13425536277E+04 -0.33651725206E+03 -0.21002691173E+04  0.25183579739E+04  0.12370293211E+03 0.  0.
         11    1    3    3    0    0 -0.51856075289E+03 -0.12351625818E+03 -0.70223117441E+03  0.88164059728E+03  0.00000000000E+00 0.  1.
        -11    1    3    3    0    0 -0.82399287482E+03 -0.21300099388E+03 -0.13980379429E+04  0.16367173766E+04  0.00000000000E+00 0. -1.
         22    1    1    2    0    0  0.13425536277E+04  0.33651725206E+03  0.17588231125E+04  0.22381136802E+04  0.00000000000E+00 0.  1.
<mgrwt>
<rscale>  0 0.47442004E+04</rscale>
<asrwt>0</asrwt>
<pdfrwt beam="1">  1        1 0.39214751E+00 0.47442004E+04</pdfrwt>
<pdfrwt beam="2">  1       -1 0.33961736E+00 0.47442004E+04</pdfrwt>
<totfact> 0.16795725E-02</totfact>
</mgrwt>
</event>
<event>
 6    1  0.9906445E-006  0.2888358E+04  0.7818608E-02  0.8276350E-01
          1   -1    0    0  501    0  0.00000000000E+00  0.00000000000E+00  0.27042039084E+04  0.27042039084E+04  0.00000000000E+00 0. -1.
         -1   -1    0    0    0  501 -0.00000000000E+00 -0.00000000000E+00 -0.77126298811E+03  0.77126298811E+03  0.00000000000E+00 0.  1.
         23    2    1    2    0    0  0.11384989820E+04 -0.10170077981E+03  0.20266484466E+04  0.23285998244E+04  0.92467483343E+02 0.  0.
         11    1    3    3    0    0  0.66552628777E+03 -0.55342524133E+02  0.12751230723E+04  0.14394189398E+04  0.00000000000E+00 0.  1.
        -11    1    3    3    0    0  0.47297269426E+03 -0.46358255681E+02  0.75152537427E+03  0.88918088461E+03  0.00000000000E+00 0. -1.
         22    1    1    2    0    0 -0.11384989820E+04  0.10170077981E+03 -0.93707526238E+02  0.11468670721E+04  0.00000000000E+00 0.  1.
<mgrwt>
<rscale>  0 0.28883576E+04</rscale>
<asrwt>0</asrwt>
<pdfrwt beam="1">  1        1 0.41603137E+00 0.28883576E+04</pdfrwt>
<pdfrwt beam="2">  1       -1 0.11865585E+00 0.28883576E+04</pdfrwt>
<totfact> 0.53267329E-01</totfact>
</mgrwt>
</event>
<event>
 6    1  0.9906445E-006  0.2589124E+04  0.7818608E-02  0.8371905E-01
          2   -1    0    0  501    0  0.00000000000E+00  0.00000000000E+00  0.14801301344E+04  0.14801301344E+04  0.00000000000E+00 0. -1.
         -2   -1    0    0    0  501 -0.00000000000E+00 -0.00000000000E+00 -0.11322590063E+04  0.11322590063E+04  0.00000000000E+00 0.  1.
         23    2    1    2    0    0 -0.10906786646E+04 -0.10529240263E+03  0.86727713870E+03  0.13997684071E+04  0.80718764287E+02 0.  0.
         13    1    3    3    0    0 -0.40876324412E+03 -0.26362746343E+02  0.27772901892E+03  0.49488967668E+03  0.00000000000E+00 0. -1.
        -13    1    3    3    0    0 -0.68191542045E+03 -0.78929656291E+02  0.58954811979E+03  0.90487873045E+03  0.00000000000E+00 0.  1.
         22    1    1    2    0    0  0.10906786646E+04  0.10529240263E+03 -0.51940601062E+03  0.12126207335E+04  0.00000000000E+00 0.  1.
<mgrwt>
<rscale>  0 0.25891239E+04</rscale>
<asrwt>0</asrwt>
<pdfrwt beam="1">  1        2 0.22771233E+00 0.25891239E+04</pdfrwt>
<pdfrwt beam="2">  1       -2 0.17419369E+00 0.25891239E+04</pdfrwt>
<totfact> 0.22961763E+00</totfact>
</mgrwt>
</event>
<event>
 6    1  0.1627718E-005  0.3187192E+04  0.7818608E-02  0.8192208E-01
          2   -1    0    0  501    0  0.00000000000E+00  0.00000000000E+00  0.23656809033E+04  0.23656809033E+04  0.00000000000E+00 0. -1.
         -2   -1    0    0    0  501 -0.00000000000E+00 -0.00000000000E+00 -0.10734954912E+04  0.10734954912E+04  0.00000000000E+00 0.  1.
         23    2    1    2    0    0 -0.64771223755E+03 -0.47769486164E+03 -0.83605706257E+03  0.11638435498E+04  0.88413081417E+02 0.  0.
         13    1    3    3    0    0 -0.36320256570E+03 -0.29358883198E+03 -0.42864615739E+03  0.63391484778E+03  0.00000000000E+00 0. -1.
        -13    1    3    3    0    0 -0.28450967185E+03 -0.18410602966E+03 -0.40741090518E+03  0.52992870199E+03  0.00000000000E+00 0.  1.
         22    1    1    2    0    0  0.64771223755E+03  0.47769486164E+03  0.21282424746E+04  0.22753328447E+04  0.00000000000E+00 0. -1.
<mgrwt>
<rscale>  0 0.31871917E+04</rscale>
<asrwt>0</asrwt>
<pdfrwt beam="1">  1        2 0.36395091E+00 0.31871917E+04</pdfrwt>
<pdfrwt beam="2">  1       -2 0.16515315E+00 0.31871917E+04</pdfrwt>
<totfact> 0.80960014E-01</totfact>
</mgrwt>
</event>
<event>
 6    1  0.9906445E-006  0.2010151E+04  0.7818608E-02  0.8601889E-01
         -2   -1    0    0    0  501 -0.00000000000E+00  0.00000000000E+00  0.61752935884E+03  0.61752935884E+03  0.00000000000E+00 0.  1.
          2   -1    0    0  501    0  0.00000000000E+00 -0.00000000000E+00 -0.16358356988E+04  0.16358356988E+04  0.00000000000E+00 0. -1.
         23    2    1    2    0    0  0.49329967033E+03  0.17034148228E+03 -0.14703582218E+04  0.15629219469E+04  0.91711103708E+02 0.  0.
         13    1    3    3    0    0  0.38463694689E+02 -0.73264725789E+01 -0.75281383715E+02  0.84855287069E+02  0.00000000000E+00 0.  1.
        -13    1    3    3    0    0  0.45483597564E+03  0.17766795486E+03 -0.13950768381E+04  0.14780666599E+04  0.00000000000E+00 0. -1.
         22    1    1    2    0    0 -0.49329967033E+03 -0.17034148228E+03  0.45205188179E+03  0.69044311073E+03  0.00000000000E+00 0.  1.
<mgrwt>
<rscale>  0 0.20101508E+04</rscale>
<asrwt>0</asrwt>
<pdfrwt beam="1">  1        2 0.25166703E+00 0.20101508E+04</pdfrwt>
<pdfrwt beam="2">  1       -2 0.95004517E-01 0.20101508E+04</pdfrwt>
<totfact> 0.92126573E+00</totfact>
</mgrwt>
</event>
<event>
 6    1  0.9906445E-006  0.1368085E+04  0.7818608E-02  0.8977250E-01
          2   -1    0    0  501    0  0.00000000000E+00  0.00000000000E+00  0.21798044436E+04  0.21798044436E+04  0.00000000000E+00 0. -1.
         -2   -1    0    0    0  501 -0.00000000000E+00 -0.00000000000E+00 -0.21465881262E+03  0.21465881262E+03  0.00000000000E+00 0.  1.
         23    2    1    2    0    0 -0.15621566120E+03 -0.29477534980E+03  0.20260989160E+04  0.20553303286E+04  0.89499176858E+02 0.  0.
         13    1    3    3    0    0 -0.15809917098E+03 -0.23777640806E+03  0.15791757037E+04  0.16047831228E+04  0.00000000000E+00 0. -1.
        -13    1    3    3    0    0  0.18835097767E+01 -0.56998941742E+02  0.44692321230E+03  0.45054720581E+03  0.00000000000E+00 0.  1.
         22    1    1    2    0    0  0.15621566120E+03  0.29477534980E+03 -0.60953284985E+02  0.33913292764E+03  0.00000000000E+00 0.  1.
<mgrwt>
<rscale>  0 0.13680851E+04</rscale>
<asrwt>0</asrwt>
<pdfrwt beam="1">  1        2 0.33535451E+00 0.13680851E+04</pdfrwt>
<pdfrwt beam="2">  1       -2 0.33024434E-01 0.13680851E+04</pdfrwt>
<totfact> 0.44324325E+01</totfact>
</mgrwt>
</event>
<event>
 6    1  0.9906445E-006  0.2690993E+04  0.7818608E-02  0.8337933E-01
         -1   -1    0    0    0  501 -0.00000000000E+00  0.00000000000E+00  0.10087819820E+04  0.10087819820E+04  0.00000000000E+00 0.  1.
          1   -1    0    0  501    0  0.00000000000E+00 -0.00000000000E+00 -0.17946009873E+04  0.17946009873E+04  0.00000000000E+00 0. -1.
         23    2    1    2    0    0  0.78447111809E+03 -0.32060377814E+03 -0.14800378684E+04  0.17078823771E+04  0.90379225858E+02 0.  0.
         11    1    3    3    0    0  0.51875050641E+02 -0.47731905956E+02 -0.12109500121E+03  0.14011907452E+03  0.00000000000E+00 0.  1.
        -11    1    3    3    0    0  0.73259606744E+03 -0.27287187218E+03 -0.13589428672E+04  0.15677633026E+04  0.00000000000E+00 0. -1.
         22    1    1    2    0    0 -0.78447111809E+03  0.32060377814E+03  0.69421886310E+03  0.10955005922E+04  0.00000000000E+00 0.  1.
<mgrwt>
<rscale>  0 0.26909932E+04</rscale>
<asrwt>0</asrwt>
<pdfrwt beam="1">  1        1 0.27609246E+00 0.26909932E+04</pdfrwt>
<pdfrwt beam="2">  1       -1 0.15519723E+00 0.26909932E+04</pdfrwt>
<totfact> 0.11417169E+00</totfact>
</mgrwt>
</event>
<event>
 6    1  0.9906445E-006  0.3220926E+04  0.7818608E-02  0.8183312E-01
          1   -1    0    0  501    0  0.00000000000E+00  0.00000000000E+00  0.17776068258E+04  0.17776068258E+04  0.00000000000E+00 0. -1.
         -1   -1    0    0    0  501 -0.00000000000E+00 -0.00000000000E+00 -0.14590356451E+04  0.14590356451E+04  0.00000000000E+00 0.  1.
         23    2    1    2    0    0 -0.11131071572E+04  0.11237315301E+04  0.45706645621E+03  0.16488890150E+04  0.90250447583E+02 0.  0.
         13    1    3    3    0    0 -0.57500386758E+03  0.51678414921E+03  0.21784066734E+03  0.80321221415E+03  0.00000000000E+00 0.  1.
        -13    1    3    3    0    0 -0.53810328966E+03  0.60694738086E+03  0.23922578887E+03  0.84567680088E+03  0.00000000000E+00 0. -1.
         22    1    1    2    0    0  0.11131071572E+04 -0.11237315301E+04 -0.13849527553E+03  0.15877534558E+04  0.00000000000E+00 0.  1.
<mgrwt>
<rscale>  0 0.32209264E+04</rscale>
<asrwt>0</asrwt>
<pdfrwt beam="1">  1        1 0.27347797E+00 0.32209264E+04</pdfrwt>
<pdfrwt beam="2">  1       -1 0.22446702E+00 0.32209264E+04</pdfrwt>
<totfact> 0.36206075E-01</totfact>
</mgrwt>
</event>
<event>
 6    1  0.9906445E-006  0.3527848E+04  0.7818608E-02  0.8107222E-01
          1   -1    0    0  501    0  0.00000000000E+00  0.00000000000E+00  0.19729787681E+04  0.19729787681E+04  0.00000000000E+00 0. -1.
         -1   -1    0    0    0  501 -0.00000000000E+00 -0.00000000000E+00 -0.15770203509E+04  0.15770203509E+04  0.00000000000E+00 0.  1.
         23    2    1    2    0    0 -0.10820039210E+03  0.10970310045E+04  0.15826490662E+04  0.19303019109E+04  0.78122024562E+02 0.  0.
         13    1    3    3    0    0 -0.94474003538E+02  0.63643570756E+03  0.88336532356E+03  0.10928449305E+04  0.00000000000E+00 0. -1.
        -13    1    3    3    0    0 -0.13726388562E+02  0.46059529694E+03  0.69928374262E+03  0.83745698039E+03  0.00000000000E+00 0.  1.
         22    1    1    2    0    0  0.10820039210E+03 -0.10970310045E+04 -0.11866906490E+04  0.16196972082E+04  0.00000000000E+00 0.  1.
<mgrwt>
<rscale>  0 0.35278479E+04</rscale>
<asrwt>0</asrwt>
<pdfrwt beam="1">  1        1 0.30353520E+00 0.35278479E+04</pdfrwt>
<pdfrwt beam="2">  1       -1 0.24261851E+00 0.35278479E+04</pdfrwt>
<totfact> 0.19718203E-01</totfact>
</mgrwt>
</event>
<event>
 6    1  0.9906445E-006  0.1056376E+04  0.7818608E-02  0.9248786E-01
          2   -1    0    0  501    0  0.00000000000E+00  0.00000000000E+00  0.50973918386E+03  0.50973918386E+03  0.00000000000E+00 0. -1.
         -2   -1    0    0    0  501 -0.00000000000E+00 -0.00000000000E+00 -0.54730448580E+03  0.54730448580E+03  0.00000000000E+00 0.  1.
         23    2    1    2    0    0 -0.94295573301E+02 -0.50994185614E+03  0.58314731867E+02  0.52966777651E+03  0.90636602639E+02 0.  0.
         13    1    3    3    0    0 -0.35605740738E+01 -0.11155215253E+03  0.46491566555E+02  0.12090502960E+03  0.00000000000E+00 0.  1.
        -13    1    3    3    0    0 -0.90734999227E+02 -0.39838970361E+03  0.11823165312E+02  0.40876274692E+03  0.00000000000E+00 0. -1.
         22    1    1    2    0    0  0.94295573301E+02  0.50994185614E+03 -0.95880033805E+02  0.52737589314E+03  0.00000000000E+00 0. -1.
<mgrwt>
<rscale>  0 0.10563760E+04</rscale>
<asrwt>0</asrwt>
<pdfrwt beam="1">  1        2 0.78421413E-01 0.10563760E+04</pdfrwt>
<pdfrwt beam="2">  1       -2 0.84200690E-01 0.10563760E+04</pdfrwt>
<totfact> 0.73825887E+01</totfact>
</mgrwt>
</event>
<event>
 6    1  0.9906445E-006  0.3271870E+04  0.7818608E-02  0.8170090E-01
          2   -1    0    0  501    0  0.00000000000E+00  0.00000000000E+00  0.22208190151E+04  0.22208190151E+04  0.00000000000E+00 0. -1.
         -2   -1    0    0    0  501 -0.00000000000E+00 -0.00000000000E+00 -0.12050884877E+04  0.12050884877E+04  0.00000000000E+00 0.  1.
         23    2    1    2    0    0  0.11545501844E+04 -0.11385577613E+04  0.29152163460E+03  0.16500194363E+04  0.90991058528E+02 0.  0.
         13    1    3    3    0    0  0.60889343773E+03 -0.62090381948E+03  0.19995687577E+03  0.89233150999E+03  0.00000000000E+00 0. -1.
        -13    1    3    3    0    0  0.54565674667E+03 -0.51765394179E+03  0.91564758826E+02  0.75768792632E+03  0.00000000000E+00 0.  1.
         22    1    1    2    0    0 -0.11545501844E+04  0.11385577613E+04  0.72420889282E+03  0.17758880664E+04  0.00000000000E+00 0.  1.
<mgrwt>
<rscale>  0 0.32718701E+04</rscale>
<asrwt>0</asrwt>
<pdfrwt beam="1">  1        2 0.34166446E+00 0.32718701E+04</pdfrwt>
<pdfrwt beam="2">  1       -2 0.18539823E+00 0.32718701E+04</pdfrwt>
<totfact> 0.70059650E-01</totfact>
</mgrwt>
</event>
<event>
 6    1  0.9906445E-006  0.4465626E+03  0.7818608E-02  0.1028752E+00
          2   -1    0    0  501    0  0.00000000000E+00  0.00000000000E+00  0.25542227305E+04  0.25542227305E+04  0.00000000000E+00 0. -1.
         -2   -1    0    0    0  501 -0.00000000000E+00 -0.00000000000E+00 -0.19518474119E+02  0.19518474119E+02  0.00000000000E+00 0.  1.
         23    2    1    2    0    0  0.52561654359E+02  0.16982759073E+01  0.25160520519E+04  0.25179423123E+04  0.82158070933E+02 0.  0.
         11    1    3    3    0    0 -0.65338738662E+01  0.33296178023E+00  0.15860958025E+04  0.15861092954E+04  0.00000000000E+00 0. -1.
        -11    1    3    3    0    0  0.59095528225E+02  0.13653141271E+01  0.92995624940E+03  0.93183301687E+03  0.00000000000E+00 0.  1.
         22    1    1    2    0    0 -0.52561654359E+02 -0.16982759073E+01  0.18652204476E+02  0.55798892299E+02  0.00000000000E+00 0.  1.
<mgrwt>
<rscale>  0 0.44656256E+03</rscale>
<asrwt>0</asrwt>
<pdfrwt beam="1">  1        2 0.39295708E+00 0.44656256E+03</pdfrwt>
<pdfrwt beam="2">  1       -2 0.30028442E-02 0.44656256E+03</pdfrwt>
<totfact> 0.15556207E+03</totfact>
</mgrwt>
</event>
<event>
 6    1  0.9906445E-006  0.3556707E+04  0.7818608E-02  0.8100481E-01
         -2   -1    0    0    0  501 -0.00000000000E+00  0.00000000000E+00  0.17283310962E+04  0.17283310962E+04  0.00000000000E+00 0.  1.
          2   -1    0    0  501    0  0.00000000000E+00 -0.00000000000E+00 -0.18298239958E+04  0.18298239958E+04  0.00000000000E+00 0. -1.
         23    2    1    2    0    0 -0.14175906201E+03  0.78028147241E+03  0.15402619169E+04  0.17348905239E+04  0.92214692805E+02 0.  0.
         13    1    3    3    0    0 -0.67049904062E+00  0.23743578118E+03  0.44696329309E+03  0.50611499200E+03  0.00000000000E+00 0. -1.
        -13    1    3    3    0    0 -0.14108856297E+03  0.54284569123E+03  0.10932986238E+04  0.12287755319E+04  0.00000000000E+00 0.  1.
         22    1    1    2    0    0  0.14175906201E+03 -0.78028147241E+03 -0.16417548164E+04  0.18232645681E+04  0.00000000000E+00 0. -1.
<mgrwt>
<rscale>  0 0.35567073E+04</rscale>
<asrwt>0</asrwt>
<pdfrwt beam="1">  1        2 0.28151138E+00 0.35567073E+04</pdfrwt>
<pdfrwt beam="2">  1       -2 0.26589709E+00 0.35567073E+04</pdfrwt>
<totfact> 0.34885172E-01</totfact>
</mgrwt>
</event>
<event>
 6    1  0.9906445E-006  0.1843142E+04  0.7818608E-02  0.8683688E-01
         -2   -1    0    0    0  501 -0.00000000000E+00  0.00000000000E+00  0.22428269696E+03  0.22428269696E+03  0.00000000000E+00 0.  1.
          2   -1    0    0  501    0  0.00000000000E+00 -0.00000000000E+00 -0.37867082655E+04  0.37867082655E+04  0.00000000000E+00 0. -1.
         23    2    1    2    0    0 -0.46735291119E+03 -0.78614968580E+03 -0.15829263478E+04  0.18304251558E+04  0.91380285182E+02 0.  0.
         11    1    3    3    0    0 -0.27608593914E+03 -0.37501001432E+03 -0.80152736506E+03  0.92698547646E+03  0.00000000000E+00 0.  1.
        -11    1    3    3    0    0 -0.19126697205E+03 -0.41113967148E+03 -0.78139898271E+03  0.90343967936E+03  0.00000000000E+00 0. -1.
         22    1    1    2    0    0  0.46735291119E+03  0.78614968580E+03 -0.19794992208E+04  0.21805658067E+04  0.00000000000E+00 0.  1.
<mgrwt>
<rscale>  0 0.18431420E+04</rscale>
<asrwt>0</asrwt>
<pdfrwt beam="1">  1        2 0.58257051E+00 0.18431420E+04</pdfrwt>
<pdfrwt beam="2">  1       -2 0.34505030E-01 0.18431420E+04</pdfrwt>
<totfact> 0.37634547E+00</totfact>
</mgrwt>
</event>
<event>
 6    1  0.9906445E-006  0.3736940E+03  0.7818608E-02  0.1053289E+00
         -2   -1    0    0    0  501 -0.00000000000E+00  0.00000000000E+00  0.66507753788E+02  0.66507753788E+02  0.00000000000E+00 0.  1.
          2   -1    0    0  501    0  0.00000000000E+00 -0.00000000000E+00 -0.52492840342E+03  0.52492840342E+03  0.00000000000E+00 0. -1.
         23    2    1    2    0    0  0.46791267068E+02  0.15258959173E+03 -0.12992663971E+03  0.22622208199E+03  0.93928124105E+02 0.  0.
         13    1    3    3    0    0  0.53765767637E+02  0.82834995965E+02 -0.12001572978E+03  0.15542255216E+03  0.00000000000E+00 0. -1.
        -13    1    3    3    0    0 -0.69745005698E+01  0.69754595766E+02 -0.99109099256E+01  0.70799529830E+02  0.00000000000E+00 0.  1.
         22    1    1    2    0    0 -0.46791267068E+02 -0.15258959173E+03 -0.32849400993E+03  0.36521407522E+03  0.00000000000E+00 0. -1.
<mgrwt>
<rscale>  0 0.37369404E+03</rscale>
<asrwt>0</asrwt>
<pdfrwt beam="1">  1        2 0.80758217E-01 0.37369404E+03</pdfrwt>
<pdfrwt beam="2">  1       -2 0.10231962E-01 0.37369404E+03</pdfrwt>
<totfact> 0.37864864E+03</totfact>
</mgrwt>
</event>
<event>
 6    1  0.9906445E-006  0.3664619E+04  0.7818608E-02  0.8075848E-01
          2   -1    0    0  501    0  0.00000000000E+00  0.00000000000E+00  0.28665883475E+04  0.28665883475E+04  0.00000000000E+00 0. -1.
         -2   -1    0    0    0  501 -0.00000000000E+00 -0.00000000000E+00 -0.11712035135E+04  0.11712035135E+04  0.00000000000E+00 0.  1.
         23    2    1    2    0    0 -0.87322797288E+02 -0.17566658644E+04  0.14097961031E+04  0.22559217329E+04  0.90319334330E+02 0.  0.
         13    1    3    3    0    0 -0.76635997822E+02 -0.14501966118E+04  0.12063644758E+04  0.18879243993E+04  0.00000000000E+00 0.  1.
        -13    1    3    3    0    0 -0.10686799466E+02 -0.30646925268E+03  0.20343162733E+03  0.36799733358E+03  0.00000000000E+00 0. -1.
         22    1    1    2    0    0  0.87322797288E+02  0.17566658644E+04  0.28558873093E+03  0.17818701281E+04  0.00000000000E+00 0.  1.
<mgrwt>
<rscale>  0 0.36646191E+04</rscale>
<asrwt>0</asrwt>
<pdfrwt beam="1">  1        2 0.44101359E+00 0.36646191E+04</pdfrwt>
<pdfrwt beam="2">  1       -2 0.18018516E+00 0.36646191E+04</pdfrwt>
<totfact> 0.30858705E-01</totfact>
</mgrwt>
</event>
<event>
 6    1  0.9906445E-006  0.1556997E+04  0.7818608E-02  0.8847411E-01
         -1   -1    0    0    0  501 -0.00000000000E+00  0.00000000000E+00  0.25381921320E+04  0.25381921320E+04  0.00000000000E+00 0.  1.
          1   -1    0    0  501    0  0.00000000000E+00 -0.00000000000E+00 -0.23877620756E+03  0.23877620756E+03  0.00000000000E+00 0. -1.
         23    2    1    2    0    0  0.75757102539E+03  0.20322040482E+02  0.14497412962E+04  0.16384281261E+04  0.91488002165E+02 0.  0.
         13    1    3    3    0    0  0.37589607138E+03  0.48955561985E+02  0.66958249720E+03  0.76943825229E+03  0.00000000000E+00 0.  1.
        -13    1    3    3    0    0  0.38167495401E+03 -0.28633521503E+02  0.78015879902E+03  0.86898987379E+03  0.00000000000E+00 0. -1.
         22    1    1    2    0    0 -0.75757102539E+03 -0.20322040482E+02  0.84967462821E+03  0.11385402135E+04  0.00000000000E+00 0. -1.
<mgrwt>
<rscale>  0 0.15569970E+04</rscale>
<asrwt>0</asrwt>
<pdfrwt beam="1">  1        1 0.36734803E-01 0.15569970E+04</pdfrwt>
<pdfrwt beam="2">  1       -1 0.39049108E+00 0.15569970E+04</pdfrwt>
<totfact> 0.94973804E-01</totfact>
</mgrwt>
</event>
<event>
 6    1  0.9906445E-006  0.2765562E+04  0.7818608E-02  0.8314040E-01
         -1   -1    0    0    0  501 -0.00000000000E+00  0.00000000000E+00  0.14481902751E+04  0.14481902751E+04  0.00000000000E+00 0.  1.
          1   -1    0    0  501    0  0.00000000000E+00 -0.00000000000E+00 -0.13203259439E+04  0.13203259439E+04  0.00000000000E+00 0. -1.
         23    2    1    2    0    0 -0.99758128854E+03  0.59846391364E+03  0.80962383010E+03  0.14201381202E+04  0.89297542219E+02 0.  0.
         13    1    3    3    0    0 -0.93382958656E+02  0.28334018726E+02  0.75604575653E+02  0.12344733875E+03  0.00000000000E+00 0. -1.
        -13    1    3    3    0    0 -0.90419832989E+03  0.57012989491E+03  0.73401925445E+03  0.12966907815E+04  0.00000000000E+00 0.  1.
         22    1    1    2    0    0  0.99758128854E+03 -0.59846391364E+03 -0.68175949889E+03  0.13483780989E+04  0.00000000000E+00 0. -1.
<mgrwt>
<rscale>  0 0.27655619E+04</rscale>
<asrwt>0</asrwt>
<pdfrwt beam="1">  1        1 0.20312707E+00 0.27655619E+04</pdfrwt>
<pdfrwt beam="2">  1       -1 0.22279850E+00 0.27655619E+04</pdfrwt>
<totfact> 0.80065666E-01</totfact>
</mgrwt>
</event>
<event>
 6    1  0.9906445E-006  0.1882646E+04  0.7818608E-02  0.8663543E-01
         -1   -1    0    0    0  501 -0.00000000000E+00  0.00000000000E+00  0.64148528961E+03  0.64148528961E+03  0.00000000000E+00 0.  1.
          1   -1    0    0  501    0  0.00000000000E+00 -0.00000000000E+00 -0.13813076467E+04  0.13813076467E+04  0.00000000000E+00 0. -1.
         23    2    1    2    0    0 -0.23451793832E+03 -0.33678316869E+03  0.53669627872E+03  0.68192702442E+03  0.92520294696E+02 0.  0.
         11    1    3    3    0    0 -0.27445691403E+02 -0.10087549902E+03  0.16608311787E+03  0.19624661607E+03  0.00000000000E+00 0. -1.
        -11    1    3    3    0    0 -0.20707224692E+03 -0.23590766966E+03  0.37061316086E+03  0.48568040835E+03  0.00000000000E+00 0.  1.
         22    1    1    2    0    0  0.23451793832E+03  0.33678316869E+03 -0.12765186359E+04  0.13408659119E+04  0.00000000000E+00 0. -1.
<mgrwt>
<rscale>  0 0.18826455E+04</rscale>
<asrwt>0</asrwt>
<pdfrwt beam="1">  1        1 0.21250887E+00 0.18826455E+04</pdfrwt>
<pdfrwt beam="2">  1       -1 0.98690046E-01 0.18826455E+04</pdfrwt>
<totfact> 0.72888560E+00</totfact>
</mgrwt>
</event>
<event>
 6    1  0.9906445E-006  0.3173099E+04  0.7818608E-02  0.8195958E-01
         -2   -1    0    0    0  501 -0.00000000000E+00  0.00000000000E+00  0.14236106290E+04  0.14236106290E+04  0.00000000000E+00 0.  1.
          2   -1    0    0  501    0  0.00000000000E+00 -0.00000000000E+00 -0.17681376393E+04  0.17681376393E+04  0.00000000000E+00 0. -1.
         23    2    1    2    0    0 -0.14349614789E+04  0.27247735353E+03 -0.79214068342E+03  0.16640976687E+04  0.91519586329E+02 0.  0.
         13    1    3    3    0    0 -0.30088307511E+03  0.37377489980E+02 -0.20099469738E+03  0.36376719206E+03  0.00000000000E+00 0. -1.
        -13    1    3    3    0    0 -0.11340784038E+04  0.23509986355E+03 -0.59114598604E+03  0.13003304767E+04  0.00000000000E+00 0.  1.
         22    1    1    2    0    0  0.14349614789E+04 -0.27247735353E+03  0.44761367313E+03  0.15276505996E+04  0.00000000000E+00 0. -1.
<mgrwt>
<rscale>  0 0.31730991E+04</rscale>
<asrwt>0</asrwt>
<pdfrwt beam="1">  1        2 0.27202118E+00 0.31730991E+04</pdfrwt>
<pdfrwt beam="2">  1       -2 0.21901702E+00 0.31730991E+04</pdfrwt>
<totfact> 0.76056536E-01</totfact>
</mgrwt>
</event>
<event>
 6    1  0.9906445E-006  0.2027786E+04  0.7818608E-02  0.8593739E-01
         -1   -1    0    0    0  501 -0.00000000000E+00  0.00000000000E+00  0.87406554095E+03  0.87406554095E+03  0.00000000000E+00 0.  1.
          1   -1    0    0  501    0  0.00000000000E+00 -0.00000000000E+00 -0.11760893856E+04  0.11760893856E+04  0.00000000000E+00 0. -1.
         23    2    1    2    0    0  0.56488696679E+03  0.76891486102E+03  0.18945018821E+03  0.97690096141E+03  0.90093095453E+02 0.  0.
         13    1    3    3    0    0  0.43800160248E+03  0.65395045303E+03  0.15167305464E+03  0.80156179693E+03  0.00000000000E+00 0. -1.
        -13    1    3    3    0    0  0.12688536431E+03  0.11496440799E+03  0.37777133567E+02  0.17533916448E+03  0.00000000000E+00 0.  1.
         22    1    1    2    0    0 -0.56488696679E+03 -0.76891486102E+03 -0.49147403288E+03  0.10732539652E+04  0.00000000000E+00 0. -1.
<mgrwt>
<rscale>  0 0.20277862E+04</rscale>
<asrwt>0</asrwt>
<pdfrwt beam="1">  1        1 0.18093683E+00 0.20277862E+04</pdfrwt>
<pdfrwt beam="2">  1       -1 0.13447162E+00 0.20277862E+04</pdfrwt>
<totfact> 0.47916617E+00</totfact>
</mgrwt>
</event>
<event>
 6    1  0.9906445E-006  0.2275845E+04  0.7818608E-02  0.8487506E-01
         -2   -1    0    0    0  501 -0.00000000000E+00  0.00000000000E+00  0.20679068933E+04  0.20679068933E+04  0.00000000000E+00 0.  1.
          2   -1    0    0  501    0  0.00000000000E+00 -0.00000000000E+00 -0.62617328849E+03  0.62617328849E+03  0.00000000000E+00 0. -1.
         23    2    1    2    0    0  0.37089637322E+03 -0.41409800198E+03 -0.45092624062E+03  0.72146705059E+03  0.90216160866E+02 0.  0.
         11    1    3    3    0    0  0.16201151765E+03 -0.13612111586E+03 -0.21231403127E+03  0.29975646434E+03  0.00000000000E+00 0. -1.
        -11    1    3    3    0    0  0.20888485557E+03 -0.27797688612E+03 -0.23861220935E+03  0.42171058625E+03  0.00000000000E+00 0.  1.
         22    1    1    2    0    0 -0.37089637322E+03  0.41409800198E+03  0.18926598455E+04  0.19726131312E+04  0.00000000000E+00 0.  1.
<mgrwt>
<rscale>  0 0.22758454E+04</rscale>
<asrwt>0</asrwt>
<pdfrwt beam="1">  1        2 0.96334353E-01 0.22758454E+04</pdfrwt>
<pdfrwt beam="2">  1       -2 0.31813952E+00 0.22758454E+04</pdfrwt>
<totfact> 0.10522505E+00</totfact>
</mgrwt>
</event>
<event>
 6    1  0.9906445E-006  0.4226305E+04  0.7818608E-02  0.7960387E-01
          2   -1    0    0  501    0  0.00000000000E+00  0.00000000000E+00  0.24635010993E+04  0.24635010993E+04  0.00000000000E+00 0. -1.
         -2   -1    0    0    0  501 -0.00000000000E+00 -0.00000000000E+00 -0.18126287091E+04  0.18126287091E+04  0.00000000000E+00 0.  1.
         23    2    1    2    0    0 -0.11603326160E+04 -0.95388537625E+03 -0.11768533320E+04  0.19103634620E+04  0.90750763625E+02 0.  0.
         13    1    3    3    0    0 -0.24802402145E+03 -0.21189505141E+03 -0.30363444257E+03  0.44565603635E+03  0.00000000000E+00 0.  1.
        -13    1    3    3    0    0 -0.91230859455E+03 -0.74199032485E+03 -0.87321888940E+03  0.14647074256E+04  0.00000000000E+00 0. -1.
         22    1    1    2    0    0  0.11603326160E+04  0.95388537625E+03  0.18277257222E+04  0.23657663465E+04  0.00000000000E+00 0. -1.
<mgrwt>
<rscale>  0 0.42263047E+04</rscale>
<asrwt>0</asrwt>
<pdfrwt beam="1">  1        2 0.37900017E+00 0.42263047E+04</pdfrwt>
<pdfrwt beam="2">  1       -2 0.27886596E+00 0.42263047E+04</pdfrwt>
<totfact> 0.12113647E-01</totfact>
</mgrwt>
</event>
<event>
 6    1  0.9906445E-006  0.8315302E+03  0.7818608E-02  0.9515467E-01
         -3   -1    0    0    0  501 -0.00000000000E+00  0.00000000000E+00  0.35580279532E+03  0.35580279532E+03  0.00000000000E+00 0.  1.
          3   -1    0    0  501    0  0.00000000000E+00 -0.00000000000E+00 -0.48583263414E+03  0.48583263414E+03  0.00000000000E+00 0. -1.
         23    2    1    2    0    0 -0.71274927901E+02  0.27778345365E+03  0.23202548629E+03  0.37976118152E+03  0.90216219330E+02 0.  0.
         13    1    3    3    0    0 -0.40222100456E+02  0.13989103376E+03  0.60836479220E+02  0.15776056509E+03  0.00000000000E+00 0.  1.
        -13    1    3    3    0    0 -0.31052827445E+02  0.13789241989E+03  0.17118900707E+03  0.22200061643E+03  0.00000000000E+00 0. -1.
         22    1    1    2    0    0  0.71274927901E+02 -0.27778345365E+03 -0.36205532511E+03  0.46187424794E+03  0.00000000000E+00 0. -1.
<mgrwt>
<rscale>  0 0.83153018E+03</rscale>
<asrwt>0</asrwt>
<pdfrwt beam="1">  1        3 0.74743482E-01 0.83153018E+03</pdfrwt>
<pdfrwt beam="2">  1       -3 0.54738892E-01 0.83153018E+03</pdfrwt>
<totfact> 0.14657208E+01</totfact>
</mgrwt>
</event>
<event>
 6    1  0.9906445E-006  0.1929531E+04  0.7818608E-02  0.8640295E-01
         -2   -1    0    0    0  501 -0.00000000000E+00  0.00000000000E+00  0.10491585538E+04  0.10491585538E+04  0.00000000000E+00 0. -1.
          2   -1    0    0  501    0  0.00000000000E+00 -0.00000000000E+00 -0.88716055795E+03  0.88716055795E+03  0.00000000000E+00 0.  1.
         23    2    1    2    0    0 -0.61832322964E+02 -0.31259752743E+03  0.99271494349E+03  0.10465825793E+04  0.91168447742E+02 0.  0.
         11    1    3    3    0    0 -0.55481597762E+02 -0.74691785122E+02  0.30282807215E+03  0.31679948190E+03  0.00000000000E+00 0.  1.
        -11    1    3    3    0    0 -0.63507252021E+01 -0.23790574231E+03  0.68988687134E+03  0.72978309735E+03  0.00000000000E+00 0. -1.
         22    1    1    2    0    0  0.61832322964E+02  0.31259752743E+03 -0.83071694759E+03  0.88973653254E+03  0.00000000000E+00 0.  1.
<mgrwt>
<rscale>  0 0.19295306E+04</rscale>
<asrwt>0</asrwt>
<pdfrwt beam="1">  1        2 0.13648624E+00 0.19295306E+04</pdfrwt>
<pdfrwt beam="2">  1       -2 0.16140901E+00 0.19295306E+04</pdfrwt>
<totfact> 0.68724659E+00</totfact>
</mgrwt>
</event>
<event>
 6    1  0.9906445E-006  0.2924041E+04  0.7818608E-02  0.8265760E-01
         -1   -1    0    0    0  501 -0.00000000000E+00  0.00000000000E+00  0.71190297566E+03  0.71190297566E+03  0.00000000000E+00 0.  1.
          1   -1    0    0  501    0  0.00000000000E+00 -0.00000000000E+00 -0.30025211388E+04  0.30025211388E+04  0.00000000000E+00 0. -1.
         23    2    1    2    0    0 -0.17935969726E+03  0.14169921215E+04 -0.75851564672E+03  0.16198180192E+04  0.91803352264E+02 0.  0.
         11    1    3    3    0    0 -0.28650010689E+01  0.30099828371E+03 -0.14467195567E+03  0.33397327706E+03  0.00000000000E+00 0. -1.
        -11    1    3    3    0    0 -0.17649469619E+03  0.11159938378E+04 -0.61384369105E+03  0.12858447421E+04  0.00000000000E+00 0.  1.
         22    1    1    2    0    0  0.17935969726E+03 -0.14169921215E+04 -0.15321025164E+04  0.20946060953E+04  0.00000000000E+00 0.  1.
<mgrwt>
<rscale>  0 0.29240409E+04</rscale>
<asrwt>0</asrwt>
<pdfrwt beam="1">  1        1 0.46192633E+00 0.29240409E+04</pdfrwt>
<pdfrwt beam="2">  1       -1 0.10952353E+00 0.29240409E+04</pdfrwt>
<totfact> 0.39285188E-01</totfact>
</mgrwt>
</event>
<event>
 6    1  0.9906445E-006  0.1213923E+04  0.7818608E-02  0.9100757E-01
         -2   -1    0    0    0  501 -0.00000000000E+00  0.00000000000E+00  0.13160199228E+04  0.13160199228E+04  0.00000000000E+00 0.  1.
          2   -1    0    0  501    0  0.00000000000E+00 -0.00000000000E+00 -0.27993654478E+03  0.27993654478E+03  0.00000000000E+00 0. -1.
         23    2    1    2    0    0  0.45339104672E+03  0.17290238961E+03  0.49335568281E+02  0.49635203069E+03  0.92047066752E+02 0.  0.
         11    1    3    3    0    0  0.29759758574E+03  0.71781722703E+02  0.52446637895E+02  0.31059231893E+03  0.00000000000E+00 0.  1.
        -11    1    3    3    0    0  0.15579346098E+03  0.10112066691E+03 -0.31110696138E+01  0.18575971176E+03  0.00000000000E+00 0. -1.
         22    1    1    2    0    0 -0.45339104672E+03 -0.17290238961E+03  0.98674780972E+03  0.10996044369E+04  0.00000000000E+00 0.  1.
<mgrwt>
<rscale>  0 0.12139227E+04</rscale>
<asrwt>0</asrwt>
<pdfrwt beam="1">  1        2 0.43067162E-01 0.12139227E+04</pdfrwt>
<pdfrwt beam="2">  1       -2 0.20246460E+00 0.12139227E+04</pdfrwt>
<totfact> 0.14976287E+01</totfact>
</mgrwt>
</event>
<event>
 6    1  0.9906445E-006  0.6390809E+03  0.7818608E-02  0.9827487E-01
         -1   -1    0    0    0  501 -0.00000000000E+00  0.00000000000E+00  0.27278310881E+03  0.27278310881E+03  0.00000000000E+00 0.  1.
          1   -1    0    0  501    0  0.00000000000E+00 -0.00000000000E+00 -0.37431239393E+03  0.37431239393E+03  0.00000000000E+00 0. -1.
         23    2    1    2    0    0 -0.65637724981E+01 -0.25934325305E+03  0.12552889777E+03  0.30233845143E+03  0.91373021325E+02 0.  0.
         11    1    3    3    0    0 -0.47618965958E+02 -0.13146537487E+03  0.51689200888E+02  0.14907207719E+03  0.00000000000E+00 0.  1.
        -11    1    3    3    0    0  0.41055193460E+02 -0.12787787818E+03  0.73839696884E+02  0.15326637424E+03  0.00000000000E+00 0. -1.
         22    1    1    2    0    0  0.65637724981E+01  0.25934325305E+03 -0.22705818289E+03  0.34475705131E+03  0.00000000000E+00 0. -1.
<mgrwt>
<rscale>  0 0.63908090E+03</rscale>
<asrwt>0</asrwt>
<pdfrwt beam="1">  1        1 0.57586522E-01 0.63908090E+03</pdfrwt>
<pdfrwt beam="2">  1       -1 0.41966632E-01 0.63908090E+03</pdfrwt>
<totfact> 0.37010281E+02</totfact>
</mgrwt>
</event>
<event>
 6    1  0.9906445E-006  0.2165570E+04  0.7818608E-02  0.8532897E-01
          2   -1    0    0  501    0  0.00000000000E+00  0.00000000000E+00  0.11183700237E+04  0.11183700237E+04  0.00000000000E+00 0. -1.
         -2   -1    0    0    0  501 -0.00000000000E+00 -0.00000000000E+00 -0.10483322621E+04  0.10483322621E+04  0.00000000000E+00 0.  1.
         23    2    1    2    0    0  0.91434870248E+03  0.34910976753E+03  0.49233258393E+03  0.11007547746E+04  0.10657636313E+03 0.  0.
         13    1    3    3    0    0  0.51370525507E+03  0.18946254534E+03  0.21631432258E+03  0.58871133107E+03  0.00000000000E+00 0.  1.
        -13    1    3    3    0    0  0.40064344741E+03  0.15964722219E+03  0.27601826135E+03  0.51204344357E+03  0.00000000000E+00 0. -1.
         22    1    1    2    0    0 -0.91434870248E+03 -0.34910976753E+03 -0.42229482238E+03  0.10659475111E+04  0.00000000000E+00 0.  1.
<mgrwt>
<rscale>  0 0.21655700E+04</rscale>
<asrwt>0</asrwt>
<pdfrwt beam="1">  1        2 0.17205693E+00 0.21655700E+04</pdfrwt>
<pdfrwt beam="2">  1       -2 0.16128189E+00 0.21655700E+04</pdfrwt>
<totfact> 0.47951551E+00</totfact>
</mgrwt>
</event>
<event>
 6    1  0.1069004E-005  0.2456581E+04  0.7818608E-02  0.8418619E-01
          2   -1    0    0  501    0  0.00000000000E+00  0.00000000000E+00  0.25747124552E+04  0.25747124552E+04  0.00000000000E+00 0. -1.
         -2   -1    0    0    0  501 -0.00000000000E+00 -0.00000000000E+00 -0.58596739017E+03  0.58596739017E+03  0.00000000000E+00 0.  1.
         23    2    1    2    0    0  0.62411489202E+03  0.11025287674E+03 -0.35547733452E+03  0.73229483598E+03  0.90644890481E+02 0.  0.
         11    1    3    3    0    0  0.28792763611E+03  0.49366051177E+02 -0.21578441788E+03  0.36318348757E+03  0.00000000000E+00 0.  1.
        -11    1    3    3    0    0  0.33618725591E+03  0.60886825562E+02 -0.13969291665E+03  0.36911134841E+03  0.00000000000E+00 0. -1.
         22    1    1    2    0    0 -0.62411489202E+03 -0.11025287674E+03  0.23442223996E+04  0.24283850094E+04  0.00000000000E+00 0. -1.
<mgrwt>
<rscale>  0 0.24565810E+04</rscale>
<asrwt>0</asrwt>
<pdfrwt beam="1">  1        2 0.39610960E+00 0.24565810E+04</pdfrwt>
<pdfrwt beam="2">  1       -2 0.90148831E-01 0.24565810E+04</pdfrwt>
<totfact> 0.29669547E+00</totfact>
</mgrwt>
</event>
<event>
 6    1  0.9906445E-006  0.1936488E+04  0.7818608E-02  0.8636904E-01
         -1   -1    0    0    0  501 -0.00000000000E+00  0.00000000000E+00  0.53901984411E+03  0.53901984411E+03  0.00000000000E+00 0.  1.
          1   -1    0    0  501    0  0.00000000000E+00 -0.00000000000E+00 -0.17392612840E+04  0.17392612840E+04  0.00000000000E+00 0. -1.
         23    2    1    2    0    0 -0.11362613295E+03 -0.37431137661E+03 -0.16406720484E+04  0.16892148961E+04  0.92856286368E+02 0.  0.
         11    1    3    3    0    0 -0.80748972519E+02 -0.17566313368E+03 -0.96515073510E+03  0.98432406989E+03  0.00000000000E+00 0. -1.
        -11    1    3    3    0    0 -0.32877160434E+02 -0.19864824294E+03 -0.67552131334E+03  0.70489082621E+03  0.00000000000E+00 0.  1.
         22    1    1    2    0    0  0.11362613295E+03  0.37431137661E+03  0.44043060855E+03  0.58906623202E+03  0.00000000000E+00 0.  1.
<mgrwt>
<rscale>  0 0.19364879E+04</rscale>
<asrwt>0</asrwt>
<pdfrwt beam="1">  1        1 0.26757866E+00 0.19364879E+04</pdfrwt>
<pdfrwt beam="2">  1       -1 0.82926130E-01 0.19364879E+04</pdfrwt>
<totfact> 0.60355949E+00</totfact>
</mgrwt>
</event>
<event>
 6    1  0.9906445E-006  0.5367827E+04  0.7818608E-02  0.7774143E-01
          2   -1    0    0  501    0  0.00000000000E+00  0.00000000000E+00  0.37964950316E+04  0.37964950316E+04  0.00000000000E+00 0. -1.
         -2   -1    0    0    0  501 -0.00000000000E+00 -0.00000000000E+00 -0.18973794421E+04  0.18973794421E+04  0.00000000000E+00 0.  1.
         23    2    1    2    0    0  0.26491027418E+03 -0.17714763905E+04  0.30688579469E+04  0.35545747663E+04  0.93843568738E+02 0.  0.
         13    1    3    3    0    0  0.14476760754E+03 -0.72868023357E+03  0.13310462102E+04  0.15243413518E+04  0.00000000000E+00 0. -1.
        -13    1    3    3    0    0  0.12014266665E+03 -0.10427961569E+04  0.17378117367E+04  0.20302334146E+04  0.00000000000E+00 0.  1.
         22    1    1    2    0    0 -0.26491027418E+03  0.17714763905E+04 -0.11697423574E+04  0.21392997074E+04  0.00000000000E+00 0.  1.
<mgrwt>
<rscale>  0 0.53678270E+04</rscale>
<asrwt>0</asrwt>
<pdfrwt beam="1">  1        2 0.58407616E+00 0.53678270E+04</pdfrwt>
<pdfrwt beam="2">  1       -2 0.29190453E+00 0.53678270E+04</pdfrwt>
<totfact> 0.12402952E-02</totfact>
</mgrwt>
</event>
<event>
 6    1  0.9906445E-006  0.4143036E+04  0.7818608E-02  0.7976297E-01
          2   -1    0    0  501    0  0.00000000000E+00  0.00000000000E+00  0.28684948552E+04  0.28684948552E+04  0.00000000000E+00 0. -1.
         -2   -1    0    0    0  501 -0.00000000000E+00 -0.00000000000E+00 -0.14959713392E+04  0.14959713392E+04  0.00000000000E+00 0.  1.
         23    2    1    2    0    0  0.18721252012E+04  0.88093698572E+03  0.76835708760E+03  0.22090266069E+04  0.92321146617E+02 0.  0.
         13    1    3    3    0    0  0.11227640769E+04  0.50310645909E+03  0.49845110733E+03  0.13274670572E+04  0.00000000000E+00 0. -1.
        -13    1    3    3    0    0  0.74936112435E+03  0.37783052663E+03  0.26990598027E+03  0.88155954973E+03  0.00000000000E+00 0.  1.
         22    1    1    2    0    0 -0.18721252012E+04 -0.88093698572E+03  0.60416642843E+03  0.21554395875E+04  0.00000000000E+00 0. -1.
<mgrwt>
<rscale>  0 0.41430356E+04</rscale>
<asrwt>0</asrwt>
<pdfrwt beam="1">  1        2 0.44130690E+00 0.41430356E+04</pdfrwt>
<pdfrwt beam="2">  1       -2 0.23014944E+00 0.41430356E+04</pdfrwt>
<totfact> 0.13970839E-01</totfact>
</mgrwt>
</event>
<event>
 6    1  0.9906445E-006  0.1927733E+04  0.7818608E-02  0.8641174E-01
          2   -1    0    0  501    0  0.00000000000E+00  0.00000000000E+00  0.72708697660E+03  0.72708697660E+03  0.00000000000E+00 0. -1.
         -2   -1    0    0    0  501 -0.00000000000E+00 -0.00000000000E+00 -0.12777544172E+04  0.12777544172E+04  0.00000000000E+00 0.  1.
         23    2    1    2    0    0 -0.47057167237E+03  0.81857750062E+03 -0.85842601839E+02  0.95243037426E+03  0.90817631353E+02 0.  0.
         11    1    3    3    0    0 -0.23482932589E+03  0.35650850253E+03 -0.15964060708E+01  0.42690241647E+03  0.00000000000E+00 0.  1.
        -11    1    3    3    0    0 -0.23574234648E+03  0.46206899809E+03 -0.84246195769E+02  0.52552795779E+03  0.00000000000E+00 0. -1.
         22    1    1    2    0    0  0.47057167237E+03 -0.81857750062E+03 -0.46482483879E+03  0.10524110196E+04  0.00000000000E+00 0.  1.
<mgrwt>
<rscale>  0 0.19277330E+04</rscale>
<asrwt>0</asrwt>
<pdfrwt beam="1">  1        2 0.11185954E+00 0.19277330E+04</pdfrwt>
<pdfrwt beam="2">  1       -2 0.19657760E+00 0.19277330E+04</pdfrwt>
<totfact> 0.51070783E+00</totfact>
</mgrwt>
</event>
<event>
 6    1  0.9906445E-006  0.7975896E+03  0.7818608E-02  0.9563513E-01
         -1   -1    0    0    0  501 -0.00000000000E+00  0.00000000000E+00  0.37634852047E+03  0.37634852047E+03  0.00000000000E+00 0.  1.
          1   -1    0    0  501    0  0.00000000000E+00 -0.00000000000E+00 -0.42257987025E+03  0.42257987025E+03  0.00000000000E+00 0. -1.
         23    2    1    2    0    0 -0.12866700212E+03  0.27400114471E+03  0.22820275108E+03  0.39033825323E+03  0.93035646884E+02 0.  0.
         11    1    3    3    0    0 -0.89926370980E+02  0.94778410607E+02  0.12020178030E+03  0.17753356669E+03  0.00000000000E+00 0. -1.
        -11    1    3    3    0    0 -0.38740631142E+02  0.17922273411E+03  0.10800097079E+03  0.21280468654E+03  0.00000000000E+00 0.  1.
         22    1    1    2    0    0  0.12866700212E+03 -0.27400114471E+03 -0.27443410087E+03  0.40859013749E+03  0.00000000000E+00 0. -1.
<mgrwt>
<rscale>  0 0.79758964E+03</rscale>
<asrwt>0</asrwt>
<pdfrwt beam="1">  1        1 0.65012288E-01 0.79758964E+03</pdfrwt>
<pdfrwt beam="2">  1       -1 0.57899772E-01 0.79758964E+03</pdfrwt>
<totfact> 0.17047697E+02</totfact>
</mgrwt>
</event>
<event>
 6    1  0.9906445E-006  0.2679997E+04  0.7818608E-02  0.8341525E-01
         -1   -1    0    0    0  501 -0.00000000000E+00  0.00000000000E+00  0.12659622546E+04  0.12659622546E+04  0.00000000000E+00 0. -1.
          1   -1    0    0  501    0  0.00000000000E+00 -0.00000000000E+00 -0.14183643934E+04  0.14183643934E+04  0.00000000000E+00 0.  1.
         23    2    1    2    0    0 -0.47692585147E+03  0.88456680913E+03 -0.96182300443E+03  0.13939473064E+04  0.89827020222E+02 0.  0.
         13    1    3    3    0    0 -0.45508509220E+03  0.87198962310E+03 -0.94141152508E+03  0.13615153335E+04  0.00000000000E+00 0. -1.
        -13    1    3    3    0    0 -0.21840759274E+02  0.12577186034E+02 -0.20411479357E+02  0.32431972862E+02  0.00000000000E+00 0.  1.
         22    1    1    2    0    0  0.47692585147E+03 -0.88456680913E+03  0.80942086562E+03  0.12903793416E+04  0.00000000000E+00 0. -1.
<mgrwt>
<rscale>  0 0.26799969E+04</rscale>
<asrwt>0</asrwt>
<pdfrwt beam="1">  1        1 0.21820991E+00 0.26799969E+04</pdfrwt>
<pdfrwt beam="2">  1       -1 0.19476342E+00 0.26799969E+04</pdfrwt>
<totfact> 0.10675024E+00</totfact>
</mgrwt>
</event>
<event>
 6    1  0.9906445E-006  0.3175433E+04  0.7818608E-02  0.8195335E-01
          2   -1    0    0  501    0  0.00000000000E+00  0.00000000000E+00  0.22318128511E+04  0.22318128511E+04  0.00000000000E+00 0. -1.
         -2   -1    0    0    0  501 -0.00000000000E+00 -0.00000000000E+00 -0.11295052727E+04  0.11295052727E+04  0.00000000000E+00 0.  1.
         23    2    1    2    0    0  0.12496605033E+04 -0.88931427949E+03  0.12292142514E+03  0.15415026116E+04  0.92678819533E+02 0.  0.
         11    1    3    3    0    0  0.39829217477E+03 -0.23139519347E+03  0.34969784073E+02  0.46195592630E+03  0.00000000000E+00 0. -1.
        -11    1    3    3    0    0  0.85136832855E+03 -0.65791908602E+03  0.87951641067E+02  0.10795466853E+04  0.00000000000E+00 0.  1.
         22    1    1    2    0    0 -0.12496605033E+04  0.88931427949E+03  0.97938615328E+03  0.18198155122E+04  0.00000000000E+00 0. -1.
<mgrwt>
<rscale>  0 0.31754334E+04</rscale>
<asrwt>0</asrwt>
<pdfrwt beam="1">  1        2 0.34335582E+00 0.31754334E+04</pdfrwt>
<pdfrwt beam="2">  1       -2 0.17377004E+00 0.31754334E+04</pdfrwt>
<totfact> 0.83797194E-01</totfact>
</mgrwt>
</event>
<event>
 6    1  0.9906445E-006  0.2663824E+04  0.7818608E-02  0.8346839E-01
          2   -1    0    0  501    0  0.00000000000E+00  0.00000000000E+00  0.17022882135E+04  0.17022882135E+04  0.00000000000E+00 0. -1.
         -2   -1    0    0    0  501 -0.00000000000E+00 -0.00000000000E+00 -0.10421207177E+04  0.10421207177E+04  0.00000000000E+00 0.  1.
         23    2    1    2    0    0 -0.94212213485E+03 -0.44929168293E+03 -0.51939106119E+03  0.11693484490E+04  0.90286141348E+02 0.  0.
         11    1    3    3    0    0 -0.62133745851E+03 -0.25252922391E+03 -0.31283206601E+03  0.74006428626E+03  0.00000000000E+00 0.  1.
        -11    1    3    3    0    0 -0.32078467634E+03 -0.19676245902E+03 -0.20655899518E+03  0.42928416270E+03  0.00000000000E+00 0. -1.
         22    1    1    2    0    0  0.94212213485E+03  0.44929168293E+03  0.11795585570E+04  0.15750604823E+04  0.00000000000E+00 0. -1.
<mgrwt>
<rscale>  0 0.26638242E+04</rscale>
<asrwt>0</asrwt>
<pdfrwt beam="1">  1        2 0.26189049E+00 0.26638242E+04</pdfrwt>
<pdfrwt beam="2">  1       -2 0.16032626E+00 0.26638242E+04</pdfrwt>
<totfact> 0.21556061E+00</totfact>
</mgrwt>
</event>
<event>
 6    1  0.9906445E-006  0.4158108E+04  0.7818608E-02  0.7973389E-01
         -2   -1    0    0    0  501 -0.00000000000E+00  0.00000000000E+00  0.85960433065E+03  0.85960433065E+03  0.00000000000E+00 0.  1.
          2   -1    0    0  501    0  0.00000000000E+00 -0.00000000000E+00 -0.50284366239E+04  0.50284366239E+04  0.00000000000E+00 0. -1.
         23    2    1    2    0    0 -0.61579182713E+03  0.19104728790E+04 -0.28472059439E+04  0.34847510421E+04  0.88328609011E+02 0.  0.
         11    1    3    3    0    0 -0.35166907855E+03  0.10495010641E+04 -0.16425477479E+04  0.19806783505E+04  0.00000000000E+00 0.  1.
        -11    1    3    3    0    0 -0.26412274858E+03  0.86097181493E+03 -0.12046581960E+04  0.15040726916E+04  0.00000000000E+00 0. -1.
         22    1    1    2    0    0  0.61579182713E+03 -0.19104728790E+04 -0.13216263494E+04  0.24032899124E+04  0.00000000000E+00 0.  1.
<mgrwt>
<rscale>  0 0.41581082E+04</rscale>
<asrwt>0</asrwt>
<pdfrwt beam="1">  1        2 0.77360563E+00 0.41581082E+04</pdfrwt>
<pdfrwt beam="2">  1       -2 0.13224682E+00 0.41581082E+04</pdfrwt>
<totfact> 0.10092605E-02</totfact>
</mgrwt>
</event>
<event>
 6    1  0.9906445E-006  0.2359343E+04  0.7818608E-02  0.8454884E-01
         -1   -1    0    0    0  501 -0.00000000000E+00  0.00000000000E+00  0.61412840471E+03  0.61412840471E+03  0.00000000000E+00 0.  1.
          1   -1    0    0  501    0  0.00000000000E+00 -0.00000000000E+00 -0.22660164579E+04  0.22660164579E+04  0.00000000000E+00 0. -1.
         23    2    1    2    0    0 -0.83084366622E+03  0.51979502604E+03 -0.16248116879E+04  0.18997259744E+04  0.91965698131E+02 0.  0.
         13    1    3    3    0    0 -0.16279327908E+03  0.60785734043E+02 -0.29301773063E+03  0.34066985138E+03  0.00000000000E+00 0. -1.
        -13    1    3    3    0    0 -0.66805038714E+03  0.45900929200E+03 -0.13317939573E+04  0.15590561230E+04  0.00000000000E+00 0.  1.
         22    1    1    2    0    0  0.83084366622E+03 -0.51979502604E+03 -0.27076365202E+02  0.98041888820E+03  0.00000000000E+00 0.  1.
<mgrwt>
<rscale>  0 0.23593432E+04</rscale>
<asrwt>0</asrwt>
<pdfrwt beam="1">  1        1 0.34861792E+00 0.23593432E+04</pdfrwt>
<pdfrwt beam="2">  1       -1 0.94481293E-01 0.23593432E+04</pdfrwt>
<totfact> 0.19137377E+00</totfact>
</mgrwt>
</event>
<event>
 6    1  0.9906445E-006  0.2414576E+04  0.7818608E-02  0.8434067E-01
         -2   -1    0    0    0  501 -0.00000000000E+00  0.00000000000E+00  0.65975565206E+03  0.65975565206E+03  0.00000000000E+00 0.  1.
          2   -1    0    0  501    0  0.00000000000E+00 -0.00000000000E+00 -0.22092176655E+04  0.22092176655E+04  0.00000000000E+00 0. -1.
         23    2    1    2    0    0 -0.88736775087E+03 -0.78225451164E+03 -0.10526553624E+04  0.15859454555E+04  0.88295127917E+02 0.  0.
         13    1    3    3    0    0 -0.58984061968E+03 -0.53625281945E+03 -0.65537512291E+03  0.10319862377E+04  0.00000000000E+00 0.  1.
        -13    1    3    3    0    0 -0.29752713119E+03 -0.24600169219E+03 -0.39728023952E+03  0.55395921787E+03  0.00000000000E+00 0. -1.
         22    1    1    2    0    0  0.88736775087E+03  0.78225451164E+03 -0.49680665102E+03  0.12830278620E+04  0.00000000000E+00 0. -1.
<mgrwt>
<rscale>  0 0.24145756E+04</rscale>
<asrwt>0</asrwt>
<pdfrwt beam="1">  1        2 0.33987964E+00 0.24145756E+04</pdfrwt>
<pdfrwt beam="2">  1       -2 0.10150087E+00 0.24145756E+04</pdfrwt>
<totfact> 0.36530581E+00</totfact>
</mgrwt>
</event>
<event>
 6    1  0.9906445E-006  0.9259696E+03  0.7818608E-02  0.9393688E-01
         -1   -1    0    0    0  501 -0.00000000000E+00  0.00000000000E+00  0.13480182191E+03  0.13480182191E+03  0.00000000000E+00 0.  1.
          1   -1    0    0  501    0  0.00000000000E+00 -0.00000000000E+00 -0.15901486731E+04  0.15901486731E+04  0.00000000000E+00 0. -1.
         23    2    1    2    0    0 -0.10379677550E+03  0.40848927791E+03 -0.10713140727E+04  0.11547589169E+04  0.90094689547E+02 0.  0.
         13    1    3    3    0    0 -0.47363320989E+02  0.33389485877E+03 -0.85354573092E+03  0.91775234985E+03  0.00000000000E+00 0.  1.
        -13    1    3    3    0    0 -0.56433454507E+02  0.74594419148E+02 -0.21776834174E+03  0.23700656704E+03  0.00000000000E+00 0. -1.
         22    1    1    2    0    0  0.10379677550E+03 -0.40848927791E+03 -0.38403277853E+03  0.57019157812E+03  0.00000000000E+00 0.  1.
<mgrwt>
<rscale>  0 0.92596963E+03</rscale>
<asrwt>0</asrwt>
<pdfrwt beam="1">  1        1 0.24463825E+00 0.92596963E+03</pdfrwt>
<pdfrwt beam="2">  1       -1 0.20738742E-01 0.92596963E+03</pdfrwt>
<totfact> 0.10995930E+02</totfact>
</mgrwt>
</event>
<event>
 6    1  0.9906445E-006  0.2094731E+04  0.7818608E-02  0.8563568E-01
          1   -1    0    0  501    0  0.00000000000E+00  0.00000000000E+00  0.23010383345E+04  0.23010383345E+04  0.00000000000E+00 0. -1.
         -1   -1    0    0    0  501 -0.00000000000E+00 -0.00000000000E+00 -0.47673006079E+03  0.47673006079E+03  0.00000000000E+00 0.  1.
         23    2    1    2    0    0 -0.50278380676E+03 -0.16841172960E+03 -0.28056978979E+03  0.60713122403E+03  0.93460415395E+02 0.  0.
         13    1    3    3    0    0 -0.36000500916E+03 -0.11652759285E+03 -0.24601359161E+03  0.45133687394E+03  0.00000000000E+00 0.  1.
        -13    1    3    3    0    0 -0.14277879759E+03 -0.51884136747E+02 -0.34556198182E+02  0.15579435009E+03  0.00000000000E+00 0. -1.
         22    1    1    2    0    0  0.50278380676E+03  0.16841172960E+03  0.21048780635E+04  0.21706371712E+04  0.00000000000E+00 0. -1.
<mgrwt>
<rscale>  0 0.20947307E+04</rscale>
<asrwt>0</asrwt>
<pdfrwt beam="1">  1        1 0.35400589E+00 0.20947307E+04</pdfrwt>
<pdfrwt beam="2">  1       -1 0.73343088E-01 0.20947307E+04</pdfrwt>
<totfact> 0.32027737E+00</totfact>
</mgrwt>
</event>
<event>
 6    1  0.9906445E-006  0.9852355E+03  0.7818608E-02  0.9324888E-01
         -1   -1    0    0    0  501 -0.00000000000E+00  0.00000000000E+00  0.28630764913E+03  0.28630764913E+03  0.00000000000E+00 0.  1.
          1   -1    0    0  501    0  0.00000000000E+00 -0.00000000000E+00 -0.84759254463E+03  0.84759254463E+03  0.00000000000E+00 0. -1.
         23    2    1    2    0    0  0.40605637049E+03 -0.22806495966E+03 -0.45244278900E+03  0.65563038917E+03  0.90836821027E+02 0.  0.
         13    1    3    3    0    0  0.10205548703E+03 -0.76448905558E+02 -0.75471142124E+02  0.14817439349E+03  0.00000000000E+00 0. -1.
        -13    1    3    3    0    0  0.30400088346E+03 -0.15161605410E+03 -0.37697164687E+03  0.50745599568E+03  0.00000000000E+00 0.  1.
         22    1    1    2    0    0 -0.40605637049E+03  0.22806495966E+03 -0.10884210650E+03  0.47826980459E+03  0.00000000000E+00 0.  1.
<mgrwt>
<rscale>  0 0.98523546E+03</rscale>
<asrwt>0</asrwt>
<pdfrwt beam="1">  1        1 0.13039885E+00 0.98523546E+03</pdfrwt>
<pdfrwt beam="2">  1       -1 0.44047330E-01 0.98523546E+03</pdfrwt>
<totfact> 0.10284152E+02</totfact>
</mgrwt>
</event>
<event>
 6    1  0.9906445E-006  0.3660771E+04  0.7818608E-02  0.8076712E-01
         -2   -1    0    0    0  501 -0.00000000000E+00  0.00000000000E+00  0.10581049159E+04  0.10581049159E+04  0.00000000000E+00 0.  1.
          2   -1    0    0  501    0  0.00000000000E+00 -0.00000000000E+00 -0.31663310329E+04  0.31663310329E+04  0.00000000000E+00 0. -1.
         23    2    1    2    0    0  0.36432377652E+03  0.76468022402E+03 -0.29258051755E+04  0.30471920591E+04  0.87039421806E+02 0.  0.
         11    1    3    3    0    0  0.18724322891E+03  0.39249165501E+03 -0.13460142637E+04  0.14145190433E+04  0.00000000000E+00 0. -1.
        -11    1    3    3    0    0  0.17708054761E+03  0.37218856901E+03 -0.15797909118E+04  0.16326730157E+04  0.00000000000E+00 0.  1.
         22    1    1    2    0    0 -0.36432377652E+03 -0.76468022402E+03  0.81757905849E+03  0.11772438898E+04  0.00000000000E+00 0.  1.
<mgrwt>
<rscale>  0 0.36607706E+04</rscale>
<asrwt>0</asrwt>
<pdfrwt beam="1">  1        2 0.48712785E+00 0.36607706E+04</pdfrwt>
<pdfrwt beam="2">  1       -2 0.16278537E+00 0.36607706E+04</pdfrwt>
<totfact> 0.26551215E-01</totfact>
</mgrwt>
</event>
<event>
 6    1  0.9906445E-006  0.2984226E+04  0.7818608E-02  0.8248250E-01
         -2   -1    0    0    0  501 -0.00000000000E+00  0.00000000000E+00  0.99033388277E+03  0.99033388277E+03  0.00000000000E+00 0.  1.
          2   -1    0    0  501    0  0.00000000000E+00 -0.00000000000E+00 -0.22481325573E+04  0.22481325573E+04  0.00000000000E+00 0. -1.
         23    2    1    2    0    0 -0.20103482041E+03 -0.14558835259E+04 -0.90007406133E+03  0.17258598359E+04  0.91907656499E+02 0.  0.
         11    1    3    3    0    0 -0.35011521759E+02 -0.42012306164E+03 -0.21780720344E+03  0.47451993788E+03  0.00000000000E+00 0.  1.
        -11    1    3    3    0    0 -0.16602329865E+03 -0.10357604643E+04 -0.68226685789E+03  0.12513398980E+04  0.00000000000E+00 0. -1.
         22    1    1    2    0    0  0.20103482041E+03  0.14558835259E+04 -0.35772461320E+03  0.15126066042E+04  0.00000000000E+00 0.  1.
<mgrwt>
<rscale>  0 0.29842264E+04</rscale>
<asrwt>0</asrwt>
<pdfrwt beam="1">  1        2 0.34586654E+00 0.29842264E+04</pdfrwt>
<pdfrwt beam="2">  1       -2 0.15235906E+00 0.29842264E+04</pdfrwt>
<totfact> 0.11950485E+00</totfact>
</mgrwt>
</event>
<event>
 6    1  0.9906445E-006  0.9182812E+03  0.7818608E-02  0.9403013E-01
         -2   -1    0    0    0  501 -0.00000000000E+00  0.00000000000E+00  0.14798371150E+03  0.14798371150E+03  0.00000000000E+00 0. -1.
          2   -1    0    0  501    0  0.00000000000E+00 -0.00000000000E+00 -0.14245493152E+04  0.14245493152E+04  0.00000000000E+00 0.  1.
         23    2    1    2    0    0 -0.28347435012E+03 -0.12080566154E+03 -0.73232243623E+02  0.33037245313E+03  0.93974896903E+02 0.  0.
         13    1    3    3    0    0 -0.77016004752E+02 -0.75481550345E+01  0.15141850151E+02  0.78852490502E+02  0.00000000000E+00 0. -1.
        -13    1    3    3    0    0 -0.20645834537E+03 -0.11325750651E+03 -0.88374093774E+02  0.25151996263E+03  0.00000000000E+00 0.  1.
         22    1    1    2    0    0  0.28347435012E+03  0.12080566154E+03 -0.12033333601E+04  0.12421605736E+04  0.00000000000E+00 0.  1.
<mgrwt>
<rscale>  0 0.91828121E+03</rscale>
<asrwt>0</asrwt>
<pdfrwt beam="1">  1        2 0.21916143E+00 0.91828121E+03</pdfrwt>
<pdfrwt beam="2">  1       -2 0.22766725E-01 0.91828121E+03</pdfrwt>
<totfact> 0.23822537E+02</totfact>
</mgrwt>
</event>
<event>
 6    1  0.9906445E-006  0.9859476E+03  0.7818608E-02  0.9324093E-01
         -3   -1    0    0    0  501 -0.00000000000E+00  0.00000000000E+00  0.15603343555E+04  0.15603343555E+04  0.00000000000E+00 0. -1.
          3   -1    0    0  501    0  0.00000000000E+00 -0.00000000000E+00 -0.15575068397E+03  0.15575068397E+03  0.00000000000E+00 0.  1.
         23    2    1    2    0    0 -0.25388306855E+03  0.28741457849E+03  0.12355802137E+04  0.12970075750E+04  0.92230324913E+02 0.  0.
         13    1    3    3    0    0 -0.98620019219E+02  0.17042245243E+03  0.70303723153E+03  0.73008976804E+03  0.00000000000E+00 0.  1.
        -13    1    3    3    0    0 -0.15526304933E+03  0.11699212606E+03  0.53254298216E+03  0.56691780701E+03  0.00000000000E+00 0. -1.
         22    1    1    2    0    0  0.25388306855E+03 -0.28741457849E+03  0.16900345783E+03  0.41907746442E+03  0.00000000000E+00 0.  1.
<mgrwt>
<rscale>  0 0.98594755E+03</rscale>
<asrwt>0</asrwt>
<pdfrwt beam="1">  1        3 0.23961645E-01 0.98594755E+03</pdfrwt>
<pdfrwt beam="2">  1       -3 0.24005143E+00 0.98594755E+03</pdfrwt>
<totfact> 0.36401552E+00</totfact>
</mgrwt>
</event>
<event>
 6    1  0.9906445E-006  0.2701994E+04  0.7818608E-02  0.8334358E-01
          3   -1    0    0  501    0  0.00000000000E+00  0.00000000000E+00  0.11121089525E+04  0.11121089525E+04  0.00000000000E+00 0. -1.
         -3   -1    0    0    0  501 -0.00000000000E+00 -0.00000000000E+00 -0.16412002939E+04  0.16412002939E+04  0.00000000000E+00 0.  1.
         23    2    1    2    0    0 -0.32521270003E+03  0.11836983029E+04 -0.83597926880E+03  0.14879693029E+04  0.91029313185E+02 0.  0.
         11    1    3    3    0    0 -0.17365859214E+03  0.58585003019E+03 -0.46904397479E+03  0.77031150503E+03  0.00000000000E+00 0.  1.
        -11    1    3    3    0    0 -0.15155410789E+03  0.59784827274E+03 -0.36693529401E+03  0.71765779785E+03  0.00000000000E+00 0. -1.
         22    1    1    2    0    0  0.32521270003E+03 -0.11836983029E+04  0.30688792734E+03  0.12653399435E+04  0.00000000000E+00 0. -1.
<mgrwt>
<rscale>  0 0.27019945E+04</rscale>
<asrwt>0</asrwt>
<pdfrwt beam="1">  1        3 0.17109369E+00 0.27019945E+04</pdfrwt>
<pdfrwt beam="2">  1       -3 0.25249235E+00 0.27019945E+04</pdfrwt>
<totfact> 0.36818351E-02</totfact>
</mgrwt>
</event>
<event>
 6    1  0.9906445E-006  0.3973982E+04  0.7818608E-02  0.8009816E-01
         -1   -1    0    0    0  501 -0.00000000000E+00  0.00000000000E+00  0.15242521083E+04  0.15242521083E+04  0.00000000000E+00 0.  1.
          1   -1    0    0  501    0  0.00000000000E+00 -0.00000000000E+00 -0.25902097409E+04  0.25902097409E+04  0.00000000000E+00 0. -1.
         23    2    1    2    0    0 -0.27177583566E+03  0.18650362940E+04 -0.11805022928E+04  0.22262502717E+04  0.10189271885E+03 0.  0.
         13    1    3    3    0    0 -0.98202699747E+02  0.62250499080E+03 -0.33924132820E+03  0.71571007578E+03  0.00000000000E+00 0.  1.
        -13    1    3    3    0    0 -0.17357313591E+03  0.12425313032E+04 -0.84126096459E+03  0.15105401959E+04  0.00000000000E+00 0. -1.
         22    1    1    2    0    0  0.27177583566E+03 -0.18650362940E+04  0.11454466020E+03  0.18882115776E+04  0.00000000000E+00 0.  1.
<mgrwt>
<rscale>  0 0.39739817E+04</rscale>
<asrwt>0</asrwt>
<pdfrwt beam="1">  1        1 0.39849380E+00 0.39739817E+04</pdfrwt>
<pdfrwt beam="2">  1       -1 0.23450033E+00 0.39739817E+04</pdfrwt>
<totfact> 0.81020767E-02</totfact>
</mgrwt>
</event>
<event>
 6    1  0.9906445E-006  0.1008270E+04  0.7818608E-02  0.9299520E-01
          2   -1    0    0  501    0  0.00000000000E+00  0.00000000000E+00  0.83051093251E+03  0.83051093251E+03  0.00000000000E+00 0. -1.
         -2   -1    0    0    0  501 -0.00000000000E+00 -0.00000000000E+00 -0.30601922110E+03  0.30601922110E+03  0.00000000000E+00 0.  1.
         23    2    1    2    0    0  0.70305336875E+02  0.42923167446E+03 -0.17299063571E+02  0.44174967416E+03  0.75238595594E+02 0.  0.
         11    1    3    3    0    0 -0.16085412787E+02  0.76587392312E+02 -0.62896259847E+01  0.78510690741E+02  0.00000000000E+00 0.  1.
        -11    1    3    3    0    0  0.86390749661E+02  0.35264428215E+03 -0.11009437586E+02  0.36323898342E+03  0.00000000000E+00 0. -1.
         22    1    1    2    0    0 -0.70305336875E+02 -0.42923167446E+03  0.54179077498E+03  0.69478047944E+03  0.00000000000E+00 0. -1.
<mgrwt>
<rscale>  0 0.10082704E+04</rscale>
<asrwt>0</asrwt>
<pdfrwt beam="1">  1        2 0.12777091E+00 0.10082704E+04</pdfrwt>
<pdfrwt beam="2">  1       -2 0.47079880E-01 0.10082704E+04</pdfrwt>
<totfact> 0.13976181E+02</totfact>
</mgrwt>
</event>
<event>
 6    1  0.9906445E-006  0.1677049E+04  0.7818608E-02  0.8774563E-01
         -2   -1    0    0    0  501 -0.00000000000E+00  0.00000000000E+00  0.19922173257E+03  0.19922173257E+03  0.00000000000E+00 0.  1.
          2   -1    0    0  501    0  0.00000000000E+00 -0.00000000000E+00 -0.35293524789E+04  0.35293524789E+04  0.00000000000E+00 0. -1.
         23    2    1    2    0    0  0.41904798036E+03 -0.68616532053E+03 -0.21779984568E+04  0.23236425870E+04  0.95987171768E+02 0.  0.
         11    1    3    3    0    0  0.24492827503E+03 -0.45957279546E+03 -0.13053219075E+04  0.14053690962E+04  0.00000000000E+00 0. -1.
        -11    1    3    3    0    0  0.17411970533E+03 -0.22659252507E+03 -0.87267654931E+03  0.91827349081E+03  0.00000000000E+00 0.  1.
         22    1    1    2    0    0 -0.41904798036E+03  0.68616532053E+03 -0.11521322895E+04  0.14049316245E+04  0.00000000000E+00 0.  1.
<mgrwt>
<rscale>  0 0.16770495E+04</rscale>
<asrwt>0</asrwt>
<pdfrwt beam="1">  1        2 0.54297731E+00 0.16770495E+04</pdfrwt>
<pdfrwt beam="2">  1       -2 0.30649497E-01 0.16770495E+04</pdfrwt>
<totfact> 0.73589967E+00</totfact>
</mgrwt>
</event>
<event>
 6    1  0.9906445E-006  0.1435298E+04  0.7818608E-02  0.8928657E-01
         -2   -1    0    0    0  501 -0.00000000000E+00  0.00000000000E+00  0.26004728443E+03  0.26004728443E+03  0.00000000000E+00 0.  1.
          2   -1    0    0  501    0  0.00000000000E+00 -0.00000000000E+00 -0.19804866088E+04  0.19804866088E+04  0.00000000000E+00 0. -1.
         23    2    1    2    0    0 -0.44977049780E+03  0.10364251318E+03 -0.17156574787E+04  0.17789516825E+04  0.90295255470E+02 0.  0.
         13    1    3    3    0    0 -0.18951279268E+03  0.21795829734E+01 -0.76291202887E+03  0.78610089235E+03  0.00000000000E+00 0. -1.
        -13    1    3    3    0    0 -0.26025770512E+03  0.10146293021E+03 -0.95274544985E+03  0.99285079015E+03  0.00000000000E+00 0.  1.
         22    1    1    2    0    0  0.44977049780E+03 -0.10364251318E+03 -0.47818456667E+01  0.46158221075E+03  0.00000000000E+00 0.  1.
<mgrwt>
<rscale>  0 0.14352981E+04</rscale>
<asrwt>0</asrwt>
<pdfrwt beam="1">  1        2 0.30469024E+00 0.14352981E+04</pdfrwt>
<pdfrwt beam="2">  1       -2 0.40007275E-01 0.14352981E+04</pdfrwt>
<totfact> 0.39336749E+01</totfact>
</mgrwt>
</event>
<event>
 6    1  0.9906445E-006  0.2524501E+04  0.7818608E-02  0.8394309E-01
          2   -1    0    0  501    0  0.00000000000E+00  0.00000000000E+00  0.17921428949E+04  0.17921428949E+04  0.00000000000E+00 0. -1.
         -2   -1    0    0    0  501 -0.00000000000E+00 -0.00000000000E+00 -0.88903389913E+03  0.88903389913E+03  0.00000000000E+00 0.  1.
         23    2    1    2    0    0 -0.12430314229E+04  0.10939052161E+03  0.63690910460E+03  0.14052630875E+04  0.10962542086E+03 0.  0.
         13    1    3    3    0    0 -0.98933243553E+03  0.11421381943E+03  0.46757135667E+03  0.11002029077E+04  0.00000000000E+00 0. -1.
        -13    1    3    3    0    0 -0.25369898738E+03 -0.48232978171E+01  0.16933774794E+03  0.30506017976E+03  0.00000000000E+00 0.  1.
         22    1    1    2    0    0  0.12430314229E+04 -0.10939052161E+03  0.26619989116E+03  0.12759137066E+04  0.00000000000E+00 0.  1.
<mgrwt>
<rscale>  0 0.25245006E+04</rscale>
<asrwt>0</asrwt>
<pdfrwt beam="1">  1        2 0.27571429E+00 0.25245006E+04</pdfrwt>
<pdfrwt beam="2">  1       -2 0.13677445E+00 0.25245006E+04</pdfrwt>
<totfact> 0.29602425E+00</totfact>
</mgrwt>
</event>
<event>
 6    1  0.9906445E-006  0.5264254E+04  0.7818608E-02  0.7788988E-01
          2   -1    0    0  501    0  0.00000000000E+00  0.00000000000E+00  0.34182975869E+04  0.34182975869E+04  0.00000000000E+00 0.  1.
         -2   -1    0    0    0  501 -0.00000000000E+00 -0.00000000000E+00 -0.20267668602E+04  0.20267668602E+04  0.00000000000E+00 0. -1.
         23    2    1    2    0    0  0.20780963601E+04 -0.39912700409E+03  0.23137011433E+04  0.31367782593E+04  0.91531527001E+02 0.  0.
         11    1    3    3    0    0  0.95897767183E+03 -0.15137523212E+03  0.10133099859E+04  0.14033352285E+04  0.00000000000E+00 0. -1.
        -11    1    3    3    0    0  0.11191186882E+04 -0.24775177196E+03  0.13003911575E+04  0.17334430309E+04  0.00000000000E+00 0.  1.
         22    1    1    2    0    0 -0.20780963601E+04  0.39912700409E+03 -0.92217041671E+03  0.23082861878E+04  0.00000000000E+00 0. -1.
<mgrwt>
<rscale>  0 0.52642539E+04</rscale>
<asrwt>0</asrwt>
<pdfrwt beam="1">  1        2 0.52589194E+00 0.52642539E+04</pdfrwt>
<pdfrwt beam="2">  1       -2 0.31181029E+00 0.52642539E+04</pdfrwt>
<totfact> 0.17732297E-02</totfact>
</mgrwt>
</event>
<event>
 6    1  0.9906445E-006  0.1087199E+04  0.7818608E-02  0.9217759E-01
          2   -1    0    0  501    0  0.00000000000E+00  0.00000000000E+00  0.41416866254E+03  0.41416866254E+03  0.00000000000E+00 0. -1.
         -2   -1    0    0    0  501 -0.00000000000E+00 -0.00000000000E+00 -0.71347826578E+03  0.71347826578E+03  0.00000000000E+00 0.  1.
         23    2    1    2    0    0 -0.33221780958E+03  0.33618979125E+03 -0.42085591166E+03  0.63962464007E+03  0.92777869482E+02 0.  0.
         13    1    3    3    0    0 -0.15473151494E+03  0.14680737253E+03 -0.25122353658E+03  0.32955653791E+03  0.00000000000E+00 0.  1.
        -13    1    3    3    0    0 -0.17748629464E+03  0.18938241872E+03 -0.16963237507E+03  0.31006810216E+03  0.00000000000E+00 0. -1.
         22    1    1    2    0    0  0.33221780958E+03 -0.33618979125E+03  0.12154630843E+03  0.48802228825E+03  0.00000000000E+00 0. -1.
<mgrwt>
<rscale>  0 0.10871989E+04</rscale>
<asrwt>0</asrwt>
<pdfrwt beam="1">  1        2 0.63718256E-01 0.10871989E+04</pdfrwt>
<pdfrwt beam="2">  1       -2 0.10976589E+00 0.10871989E+04</pdfrwt>
<totfact> 0.50161690E+01</totfact>
</mgrwt>
</event>
<event>
 6    1  0.9906445E-006  0.3098647E+04  0.7818608E-02  0.8216109E-01
          2   -1    0    0  501    0  0.00000000000E+00  0.00000000000E+00  0.47257878149E+04  0.47257878149E+04  0.00000000000E+00 0.  1.
         -2   -1    0    0    0  501 -0.00000000000E+00 -0.00000000000E+00 -0.50793721447E+03  0.50793721447E+03  0.00000000000E+00 0. -1.
         23    2    1    2    0    0 -0.14454623418E+04  0.28267881715E+03  0.29159112130E+04  0.32679389617E+04  0.87282070073E+02 0.  0.
         13    1    3    3    0    0 -0.17177308878E+03  0.52035369329E+01  0.33531195053E+03  0.37678531685E+03  0.00000000000E+00 0. -1.
        -13    1    3    3    0    0 -0.12736892531E+04  0.27747528022E+03  0.25805992625E+04  0.28911536448E+04  0.00000000000E+00 0.  1.
         22    1    1    2    0    0  0.14454623418E+04 -0.28267881715E+03  0.13019393874E+04  0.19657860677E+04  0.00000000000E+00 0. -1.
<mgrwt>
<rscale>  0 0.30986471E+04</rscale>
<asrwt>0</asrwt>
<pdfrwt beam="1">  1        2 0.72704425E+00 0.30986471E+04</pdfrwt>
<pdfrwt beam="2">  1       -2 0.78144190E-01 0.30986471E+04</pdfrwt>
<totfact> 0.88855425E-02</totfact>
</mgrwt>
</event>
<event>
 6    1  0.9906445E-006  0.1606938E+04  0.7818608E-02  0.8816297E-01
          2   -1    0    0  501    0  0.00000000000E+00  0.00000000000E+00  0.21494219767E+04  0.21494219767E+04  0.00000000000E+00 0. -1.
         -2   -1    0    0    0  501 -0.00000000000E+00 -0.00000000000E+00 -0.30034219421E+03  0.30034219421E+03  0.00000000000E+00 0.  1.
         23    2    1    2    0    0  0.68970425060E+03 -0.16737055644E+03  0.14938354949E+04  0.16560996572E+04  0.86120452854E+02 0.  0.
         11    1    3    3    0    0  0.29758337945E+03 -0.36927431078E+02  0.68695876863E+03  0.74955443611E+03  0.00000000000E+00 0. -1.
        -11    1    3    3    0    0  0.39212087115E+03 -0.13044312536E+03  0.80687672625E+03  0.90654522110E+03  0.00000000000E+00 0.  1.
         22    1    1    2    0    0 -0.68970425060E+03  0.16737055644E+03  0.35524428764E+03  0.79366451374E+03  0.00000000000E+00 0.  1.
<mgrwt>
<rscale>  0 0.16069376E+04</rscale>
<asrwt>0</asrwt>
<pdfrwt beam="1">  1        2 0.33068029E+00 0.16069376E+04</pdfrwt>
<pdfrwt beam="2">  1       -2 0.46206493E-01 0.16069376E+04</pdfrwt>
<totfact> 0.23478818E+01</totfact>
</mgrwt>
</event>
<event>
 6    1  0.9906445E-006  0.2034621E+04  0.7818608E-02  0.8590603E-01
         -2   -1    0    0    0  501 -0.00000000000E+00  0.00000000000E+00  0.71565212697E+03  0.71565212697E+03  0.00000000000E+00 0.  1.
          2   -1    0    0  501    0  0.00000000000E+00 -0.00000000000E+00 -0.14461229385E+04  0.14461229385E+04  0.00000000000E+00 0. -1.
         23    2    1    2    0    0  0.67614916549E+03 -0.22508194397E+03  0.40272910540E+03  0.82312588543E+03  0.86636686363E+02 0.  0.
         11    1    3    3    0    0  0.32438008690E+03 -0.14756358880E+03  0.17553594731E+03  0.39725347364E+03  0.00000000000E+00 0. -1.
        -11    1    3    3    0    0  0.35176907859E+03 -0.77518355169E+02  0.22719315809E+03  0.42587241179E+03  0.00000000000E+00 0.  1.
         22    1    1    2    0    0 -0.67614916549E+03  0.22508194397E+03 -0.11331999169E+04  0.13386491800E+04  0.00000000000E+00 0. -1.
<mgrwt>
<rscale>  0 0.20346213E+04</rscale>
<asrwt>0</asrwt>
<pdfrwt beam="1">  1        2 0.22248045E+00 0.20346213E+04</pdfrwt>
<pdfrwt beam="2">  1       -2 0.11010033E+00 0.20346213E+04</pdfrwt>
<totfact> 0.82729668E+00</totfact>
</mgrwt>
</event>
<event>
 6    1  0.9906445E-006  0.3073557E+04  0.7818608E-02  0.8223033E-01
         -2   -1    0    0    0  501 -0.00000000000E+00  0.00000000000E+00  0.11667366929E+04  0.11667366929E+04  0.00000000000E+00 0.  1.
          2   -1    0    0  501    0  0.00000000000E+00 -0.00000000000E+00 -0.20241824525E+04  0.20241824525E+04  0.00000000000E+00 0. -1.
         23    2    1    2    0    0 -0.13614867932E+04  0.57387735721E+03  0.46607418424E+01  0.14803025522E+04  0.91062694488E+02 0.  0.
         11    1    3    3    0    0 -0.10919019424E+04  0.49146247638E+03 -0.17459212547E+02  0.11975349855E+04  0.00000000000E+00 0. -1.
        -11    1    3    3    0    0 -0.26958485078E+03  0.82414880833E+02  0.22119954390E+02  0.28276756662E+03  0.00000000000E+00 0.  1.
         22    1    1    2    0    0  0.13614867932E+04 -0.57387735721E+03 -0.86210650147E+03  0.17106165932E+04  0.00000000000E+00 0. -1.
<mgrwt>
<rscale>  0 0.30735569E+04</rscale>
<asrwt>0</asrwt>
<pdfrwt beam="1">  1        2 0.31141269E+00 0.30735569E+04</pdfrwt>
<pdfrwt beam="2">  1       -2 0.17949795E+00 0.30735569E+04</pdfrwt>
<totfact> 0.10074412E+00</totfact>
</mgrwt>
</event>
<event>
 6    1  0.9906445E-006  0.2147348E+04  0.7818608E-02  0.8540668E-01
         -2   -1    0    0    0  501 -0.00000000000E+00  0.00000000000E+00  0.11846773620E+04  0.11846773620E+04  0.00000000000E+00 0.  1.
          2   -1    0    0  501    0  0.00000000000E+00 -0.00000000000E+00 -0.97307172571E+03  0.97307172571E+03  0.00000000000E+00 0. -1.
         23    2    1    2    0    0 -0.55637230125E+03 -0.55057056868E+03 -0.62971945533E+03  0.10086163719E+04  0.89901638561E+02 0.  0.
         11    1    3    3    0    0 -0.40647527452E+03 -0.38248650862E+03 -0.49609089954E+03  0.74674243128E+03  0.00000000000E+00 0. -1.
        -11    1    3    3    0    0 -0.14989702673E+03 -0.16808406007E+03 -0.13362855579E+03  0.26187394065E+03  0.00000000000E+00 0.  1.
         22    1    1    2    0    0  0.55637230125E+03  0.55057056868E+03  0.84132509164E+03  0.11491327158E+04  0.00000000000E+00 0.  1.
<mgrwt>
<rscale>  0 0.21473482E+04</rscale>
<asrwt>0</asrwt>
<pdfrwt beam="1">  1        2 0.14970334E+00 0.21473482E+04</pdfrwt>
<pdfrwt beam="2">  1       -2 0.18225805E+00 0.21473482E+04</pdfrwt>
<totfact> 0.42099491E+00</totfact>
</mgrwt>
</event>
<event>
 6    1  0.9906445E-006  0.1763306E+04  0.7818608E-02  0.8726060E-01
         -2   -1    0    0    0  501 -0.00000000000E+00  0.00000000000E+00  0.33479298452E+03  0.33479298452E+03  0.00000000000E+00 0.  1.
          2   -1    0    0  501    0  0.00000000000E+00 -0.00000000000E+00 -0.23217696945E+04  0.23217696945E+04  0.00000000000E+00 0. -1.
         23    2    1    2    0    0  0.77920820092E+03  0.28023719491E+03 -0.55101529072E+03  0.99894888099E+03  0.92642918993E+02 0.  0.
         11    1    3    3    0    0  0.28475507591E+03  0.88360610176E+02 -0.14823452476E+03  0.33296625207E+03  0.00000000000E+00 0.  1.
        -11    1    3    3    0    0  0.49445312501E+03  0.19187658473E+03 -0.40278076595E+03  0.66598262892E+03  0.00000000000E+00 0. -1.
         22    1    1    2    0    0 -0.77920820092E+03 -0.28023719491E+03 -0.14359614193E+04  0.16576137981E+04  0.00000000000E+00 0.  1.
<mgrwt>
<rscale>  0 0.17633062E+04</rscale>
<asrwt>0</asrwt>
<pdfrwt beam="1">  1        2 0.35719533E+00 0.17633062E+04</pdfrwt>
<pdfrwt beam="2">  1       -2 0.51506615E-01 0.17633062E+04</pdfrwt>
<totfact> 0.14866352E+01</totfact>
</mgrwt>
</event>
<event>
 6    1  0.9906445E-006  0.2245364E+04  0.7818608E-02  0.8499780E-01
         -2   -1    0    0    0  501 -0.00000000000E+00  0.00000000000E+00  0.94405166314E+03  0.94405166314E+03  0.00000000000E+00 0.  1.
          2   -1    0    0  501    0  0.00000000000E+00 -0.00000000000E+00 -0.13351124148E+04  0.13351124148E+04  0.00000000000E+00 0. -1.
         23    2    1    2    0    0 -0.67521975436E+02  0.34588581628E+03 -0.12758833036E+04  0.13267423418E+04  0.90392598975E+02 0.  0.
         11    1    3    3    0    0 -0.31096101165E+02  0.83161002036E+02 -0.20313396351E+03  0.22168925752E+03  0.00000000000E+00 0.  1.
        -11    1    3    3    0    0 -0.36425874271E+02  0.26272481424E+03 -0.10727493401E+04  0.11050530842E+04  0.00000000000E+00 0. -1.
         22    1    1    2    0    0  0.67521975436E+02 -0.34588581628E+03  0.88482255196E+03  0.95242173617E+03  0.00000000000E+00 0.  1.
<mgrwt>
<rscale>  0 0.22453642E+04</rscale>
<asrwt>0</asrwt>
<pdfrwt beam="1">  1        2 0.20540191E+00 0.22453642E+04</pdfrwt>
<pdfrwt beam="2">  1       -2 0.14523872E+00 0.22453642E+04</pdfrwt>
<totfact> 0.46867670E+00</totfact>
</mgrwt>
</event>
<event>
 6    1  0.9906445E-006  0.4706501E+04  0.7818608E-02  0.7875449E-01
          2   -1    0    0  501    0  0.00000000000E+00  0.00000000000E+00  0.32377205108E+04  0.32377205108E+04  0.00000000000E+00 0. -1.
         -2   -1    0    0    0  501 -0.00000000000E+00 -0.00000000000E+00 -0.17103970232E+04  0.17103970232E+04  0.00000000000E+00 0.  1.
         23    2    1    2    0    0  0.66997419223E+03  0.78728178852E+03 -0.14574070116E+04  0.17894320185E+04  0.96714624075E+02 0.  0.
         13    1    3    3    0    0  0.28247971051E+03  0.34128468157E+03 -0.54359056895E+03  0.70125653464E+03  0.00000000000E+00 0. -1.
        -13    1    3    3    0    0  0.38749448172E+03  0.44599710695E+03 -0.91381644264E+03  0.10881754838E+04  0.00000000000E+00 0.  1.
         22    1    1    2    0    0 -0.66997419223E+03 -0.78728178852E+03  0.29847304993E+04  0.31586855155E+04  0.00000000000E+00 0. -1.
<mgrwt>
<rscale>  0 0.47065008E+04</rscale>
<asrwt>0</asrwt>
<pdfrwt beam="1">  1        2 0.49811085E+00 0.47065008E+04</pdfrwt>
<pdfrwt beam="2">  1       -2 0.26313800E+00 0.47065008E+04</pdfrwt>
<totfact> 0.48674716E-02</totfact>
</mgrwt>
</event>
<event>
 6    1  0.9906445E-006  0.3282970E+04  0.7818608E-02  0.8167242E-01
         -1   -1    0    0    0  501 -0.00000000000E+00  0.00000000000E+00  0.10181093874E+04  0.10181093874E+04  0.00000000000E+00 0.  1.
          1   -1    0    0  501    0  0.00000000000E+00 -0.00000000000E+00 -0.26465458131E+04  0.26465458131E+04  0.00000000000E+00 0. -1.
         23    2    1    2    0    0 -0.35926344143E+03 -0.12031266477E+04 -0.19928525448E+04  0.23572214322E+04  0.91911177690E+02 0.  0.
         13    1    3    3    0    0 -0.10293862898E+03 -0.31394500906E+03 -0.60071847420E+03  0.68558042219E+03  0.00000000000E+00 0.  1.
        -13    1    3    3    0    0 -0.25632481244E+03 -0.88918163865E+03 -0.13921340706E+04  0.16716410100E+04  0.00000000000E+00 0. -1.
         22    1    1    2    0    0  0.35926344143E+03  0.12031266477E+04  0.36441611910E+03  0.13074337683E+04  0.00000000000E+00 0.  1.
<mgrwt>
<rscale>  0 0.32829701E+04</rscale>
<asrwt>0</asrwt>
<pdfrwt beam="1">  1        1 0.40716089E+00 0.32829701E+04</pdfrwt>
<pdfrwt beam="2">  1       -1 0.15663221E+00 0.32829701E+04</pdfrwt>
<totfact> 0.27557012E-01</totfact>
</mgrwt>
</event>
<event>
 6    1  0.9906445E-006  0.2294961E+04  0.7818608E-02  0.8479911E-01
         -1   -1    0    0    0  501 -0.00000000000E+00  0.00000000000E+00  0.81497132310E+03  0.81497132310E+03  0.00000000000E+00 0.  1.
          1   -1    0    0  501    0  0.00000000000E+00 -0.00000000000E+00 -0.16156534618E+04  0.16156534618E+04  0.00000000000E+00 0. -1.
         23    2    1    2    0    0 -0.51031828801E+03 -0.84057906450E+03  0.22167609311E+03  0.10120993981E+04  0.90592398750E+02 0.  0.
         11    1    3    3    0    0 -0.20194289662E+03 -0.25348331254E+03  0.61529348778E+02  0.32987965077E+03  0.00000000000E+00 0. -1.
        -11    1    3    3    0    0 -0.30837539139E+03 -0.58709575195E+03  0.16014674433E+03  0.68221974736E+03  0.00000000000E+00 0.  1.
         22    1    1    2    0    0  0.51031828801E+03  0.84057906450E+03 -0.10223582318E+04  0.14185253867E+04  0.00000000000E+00 0.  1.
<mgrwt>
<rscale>  0 0.22949608E+04</rscale>
<asrwt>0</asrwt>
<pdfrwt beam="1">  1        1 0.24856207E+00 0.22949608E+04</pdfrwt>
<pdfrwt beam="2">  1       -1 0.12538020E+00 0.22949608E+04</pdfrwt>
<totfact> 0.27339481E+00</totfact>
</mgrwt>
</event>
<event>
 6    1  0.9906445E-006  0.2558882E+04  0.7818608E-02  0.8382304E-01
         -2   -1    0    0    0  501 -0.00000000000E+00  0.00000000000E+00  0.16113283870E+04  0.16113283870E+04  0.00000000000E+00 0.  1.
          2   -1    0    0  501    0  0.00000000000E+00 -0.00000000000E+00 -0.10159126877E+04  0.10159126877E+04  0.00000000000E+00 0. -1.
         23    2    1    2    0    0 -0.73734148496E+03  0.89023924001E+03 -0.26114855160E+03  0.11885261322E+04  0.90539665431E+02 0.  0.
         11    1    3    3    0    0 -0.78530136202E+02  0.65895839604E+02 -0.41804092853E+02  0.11071055121E+03  0.00000000000E+00 0. -1.
        -11    1    3    3    0    0 -0.65881134876E+03  0.82434340041E+03 -0.21934445875E+03  0.10778155810E+04  0.00000000000E+00 0.  1.
         22    1    1    2    0    0  0.73734148496E+03 -0.89023924001E+03  0.85656425083E+03  0.14387149425E+04  0.00000000000E+00 0.  1.
<mgrwt>
<rscale>  0 0.25588817E+04</rscale>
<asrwt>0</asrwt>
<pdfrwt beam="1">  1        2 0.15629426E+00 0.25588817E+04</pdfrwt>
<pdfrwt beam="2">  1       -2 0.24789667E+00 0.25588817E+04</pdfrwt>
<totfact> 0.14456418E+00</totfact>
</mgrwt>
</event>
<event>
 6    1  0.9906445E-006  0.1447823E+04  0.7818608E-02  0.8919911E-01
         -1   -1    0    0    0  501 -0.00000000000E+00  0.00000000000E+00  0.43937327176E+03  0.43937327176E+03  0.00000000000E+00 0.  1.
          1   -1    0    0  501    0  0.00000000000E+00 -0.00000000000E+00 -0.11927165468E+04  0.11927165468E+04  0.00000000000E+00 0. -1.
         23    2    1    2    0    0  0.18624396342E+03 -0.24044059293E+03 -0.11150931763E+04  0.11594784732E+04  0.91973067871E+02 0.  0.
         13    1    3    3    0    0  0.13873273966E+03 -0.22626837942E+03 -0.87719983630E+03  0.91647351592E+03  0.00000000000E+00 0. -1.
        -13    1    3    3    0    0  0.47511223756E+02 -0.14172213515E+02 -0.23789334002E+03  0.24300495725E+03  0.00000000000E+00 0.  1.
         22    1    1    2    0    0 -0.18624396342E+03  0.24044059293E+03  0.36174990133E+03  0.47261134535E+03  0.00000000000E+00 0.  1.
<mgrwt>
<rscale>  0 0.14478229E+04</rscale>
<asrwt>0</asrwt>
<pdfrwt beam="1">  1        1 0.18349485E+00 0.14478229E+04</pdfrwt>
<pdfrwt beam="2">  1       -1 0.67595888E-01 0.14478229E+04</pdfrwt>
<totfact> 0.23291239E+01</totfact>
</mgrwt>
</event>
<event>
 6    1  0.9906445E-006  0.3013703E+04  0.7818608E-02  0.8239829E-01
          1   -1    0    0  501    0  0.00000000000E+00  0.00000000000E+00  0.18117843651E+04  0.18117843651E+04  0.00000000000E+00 0. -1.
         -1   -1    0    0    0  501 -0.00000000000E+00 -0.00000000000E+00 -0.12532401022E+04  0.12532401022E+04  0.00000000000E+00 0.  1.
         23    2    1    2    0    0  0.80341092315E+03 -0.84834641590E+01  0.15743477720E+04  0.17698805179E+04  0.91460701619E+02 0.  0.
         11    1    3    3    0    0  0.54168370523E+03 -0.45981553971E+02  0.10911186526E+04  0.12190469449E+04  0.00000000000E+00 0. -1.
        -11    1    3    3    0    0  0.26172721792E+03  0.37498089812E+02  0.48322911940E+03  0.55083357303E+03  0.00000000000E+00 0.  1.
         22    1    1    2    0    0 -0.80341092315E+03  0.84834641590E+01 -0.10158035090E+04  0.12951439494E+04  0.00000000000E+00 0.  1.
<mgrwt>
<rscale>  0 0.30137026E+04</rscale>
<asrwt>0</asrwt>
<pdfrwt beam="1">  1        1 0.27873606E+00 0.30137026E+04</pdfrwt>
<pdfrwt beam="2">  1       -1 0.19280617E+00 0.30137026E+04</pdfrwt>
<totfact> 0.57417484E-01</totfact>
</mgrwt>
</event>
<event>
 6    1  0.9906445E-006  0.1933876E+04  0.7818608E-02  0.8638176E-01
          2   -1    0    0  501    0  0.00000000000E+00  0.00000000000E+00  0.25506614399E+04  0.25506614399E+04  0.00000000000E+00 0. -1.
         -2   -1    0    0    0  501 -0.00000000000E+00 -0.00000000000E+00 -0.36655944354E+03  0.36655944354E+03  0.00000000000E+00 0.  1.
         23    2    1    2    0    0  0.32898842757E+03  0.28202131106E+03 -0.20574598886E+03  0.48840578182E+03  0.91866154917E+02 0.  0.
         11    1    3    3    0    0  0.20799225611E+03  0.13205910241E+03 -0.83168975004E+02  0.26003358155E+03  0.00000000000E+00 0. -1.
        -11    1    3    3    0    0  0.12099617146E+03  0.14996220865E+03 -0.12257701386E+03  0.22837220027E+03  0.00000000000E+00 0.  1.
         22    1    1    2    0    0 -0.32898842757E+03 -0.28202131106E+03  0.23898479853E+04  0.24288151017E+04  0.00000000000E+00 0. -1.
<mgrwt>
<rscale>  0 0.19338759E+04</rscale>
<asrwt>0</asrwt>
<pdfrwt beam="1">  1        2 0.39240944E+00 0.19338759E+04</pdfrwt>
<pdfrwt beam="2">  1       -2 0.56393762E-01 0.19338759E+04</pdfrwt>
<totfact> 0.89725141E+00</totfact>
</mgrwt>
</event>
<event>
 6    1  0.9906445E-006  0.1768948E+04  0.7818608E-02  0.8722989E-01
         -2   -1    0    0    0  501 -0.00000000000E+00  0.00000000000E+00  0.40152461570E+03  0.40152461570E+03  0.00000000000E+00 0.  1.
          2   -1    0    0  501    0  0.00000000000E+00 -0.00000000000E+00 -0.19483104773E+04  0.19483104773E+04  0.00000000000E+00 0. -1.
         23    2    1    2    0    0 -0.30584128353E+02  0.72468652276E+03 -0.14423938103E+04  0.16170297672E+04  0.90440139184E+02 0.  0.
         11    1    3    3    0    0 -0.19269349356E+02  0.35851446215E+02 -0.60341761349E+02  0.72785727880E+02  0.00000000000E+00 0.  1.
        -11    1    3    3    0    0 -0.11314778997E+02  0.68883507655E+03 -0.13820520489E+04  0.15442440393E+04  0.00000000000E+00 0. -1.
         22    1    1    2    0    0  0.30584128353E+02 -0.72468652276E+03 -0.10439205130E+03  0.73280532582E+03  0.00000000000E+00 0.  1.
<mgrwt>
<rscale>  0 0.17689484E+04</rscale>
<asrwt>0</asrwt>
<pdfrwt beam="1">  1        2 0.29974007E+00 0.17689484E+04</pdfrwt>
<pdfrwt beam="2">  1       -2 0.61773018E-01 0.17689484E+04</pdfrwt>
<totfact> 0.16447554E+01</totfact>
</mgrwt>
</event>
<event>
 6    1  0.9906445E-006  0.1605135E+04  0.7818608E-02  0.8817400E-01
          1   -1    0    0  501    0  0.00000000000E+00  0.00000000000E+00  0.15285751955E+04  0.15285751955E+04  0.00000000000E+00 0. -1.
         -1   -1    0    0    0  501 -0.00000000000E+00 -0.00000000000E+00 -0.42138229708E+03  0.42138229708E+03  0.00000000000E+00 0.  1.
         23    2    1    2    0    0 -0.56462484736E+03  0.34850347926E+03  0.10982506112E+04  0.12863794205E+04  0.91442414554E+02 0.  0.
         13    1    3    3    0    0 -0.49202550442E+03  0.29815075033E+03  0.88511443770E+03  0.10556564473E+04  0.00000000000E+00 0.  1.
        -13    1    3    3    0    0 -0.72599342939E+02  0.50352728926E+02  0.21313617345E+03  0.23072297315E+03  0.00000000000E+00 0. -1.
         22    1    1    2    0    0  0.56462484736E+03 -0.34850347926E+03  0.89422872897E+01  0.66357807213E+03  0.00000000000E+00 0.  1.
<mgrwt>
<rscale>  0 0.16051349E+04</rscale>
<asrwt>0</asrwt>
<pdfrwt beam="1">  1        1 0.23516541E+00 0.16051349E+04</pdfrwt>
<pdfrwt beam="2">  1       -1 0.64828046E-01 0.16051349E+04</pdfrwt>
<totfact> 0.14461830E+01</totfact>
</mgrwt>
</event>
<event>
 6    1  0.9906445E-006  0.6122629E+03  0.7818608E-02  0.9880286E-01
         -2   -1    0    0    0  501 -0.00000000000E+00  0.00000000000E+00  0.21052843583E+03  0.21052843583E+03  0.00000000000E+00 0.  1.
          2   -1    0    0  501    0  0.00000000000E+00 -0.00000000000E+00 -0.44514867338E+03  0.44514867338E+03  0.00000000000E+00 0. -1.
         23    2    1    2    0    0 -0.19689613172E+03  0.19714040007E+03 -0.36895781601E+01  0.29379122462E+03  0.93098048588E+02 0.  0.
         13    1    3    3    0    0 -0.10336754483E+03  0.13748575425E+03 -0.40860294812E+02  0.17679577381E+03  0.00000000000E+00 0. -1.
        -13    1    3    3    0    0 -0.93528586888E+02  0.59654645825E+02  0.37170716652E+02  0.11699545081E+03  0.00000000000E+00 0.  1.
         22    1    1    2    0    0  0.19689613172E+03 -0.19714040007E+03 -0.23093065938E+03  0.36188588459E+03  0.00000000000E+00 0. -1.
<mgrwt>
<rscale>  0 0.61226286E+03</rscale>
<asrwt>0</asrwt>
<pdfrwt beam="1">  1        2 0.68484411E-01 0.61226286E+03</pdfrwt>
<pdfrwt beam="2">  1       -2 0.32388990E-01 0.61226286E+03</pdfrwt>
<totfact> 0.62908563E+02</totfact>
</mgrwt>
</event>
<event>
 6    1  0.9906445E-006  0.2142146E+04  0.7818608E-02  0.8542901E-01
         -2   -1    0    0    0  501 -0.00000000000E+00  0.00000000000E+00  0.10275825201E+04  0.10275825201E+04  0.00000000000E+00 0.  1.
          2   -1    0    0  501    0  0.00000000000E+00 -0.00000000000E+00 -0.11164044699E+04  0.11164044699E+04  0.00000000000E+00 0. -1.
         23    2    1    2    0    0  0.68360074294E+03  0.69752466623E+03 -0.47963494735E+03  0.10920433437E+04  0.93050234325E+02 0.  0.
         11    1    3    3    0    0  0.49991558535E+03  0.46912794991E+03 -0.30041616560E+03  0.74849615792E+03  0.00000000000E+00 0. -1.
        -11    1    3    3    0    0  0.18368515759E+03  0.22839671632E+03 -0.17921878175E+03  0.34354718581E+03  0.00000000000E+00 0.  1.
         22    1    1    2    0    0 -0.68360074294E+03 -0.69752466623E+03  0.39081299756E+03  0.10519436462E+04  0.00000000000E+00 0.  1.
<mgrwt>
<rscale>  0 0.21421463E+04</rscale>
<asrwt>0</asrwt>
<pdfrwt beam="1">  1        2 0.17175454E+00 0.21421463E+04</pdfrwt>
<pdfrwt beam="2">  1       -2 0.15808962E+00 0.21421463E+04</pdfrwt>
<totfact> 0.50873821E+00</totfact>
</mgrwt>
</event>
<event>
 6    1  0.9906445E-006  0.1708031E+04  0.7818608E-02  0.8756797E-01
          2   -1    0    0  501    0  0.00000000000E+00  0.00000000000E+00  0.22280964468E+04  0.22280964468E+04  0.00000000000E+00 0. -1.
         -2   -1    0    0    0  501 -0.00000000000E+00 -0.00000000000E+00 -0.32733864826E+03  0.32733864826E+03  0.00000000000E+00 0.  1.
         23    2    1    2    0    0 -0.70347025051E+03 -0.18886142006E+03  0.29251255886E+03  0.78993466167E+03  0.88848991463E+02 0.  0.
         13    1    3    3    0    0 -0.25606213794E+03 -0.99053023531E+02  0.14412088366E+03  0.31008087504E+03  0.00000000000E+00 0.  1.
        -13    1    3    3    0    0 -0.44740811257E+03 -0.89808396532E+02  0.14839167519E+03  0.47985378664E+03  0.00000000000E+00 0. -1.
         22    1    1    2    0    0  0.70347025051E+03  0.18886142006E+03  0.16082452397E+04  0.17655004334E+04  0.00000000000E+00 0. -1.
<mgrwt>
<rscale>  0 0.17080305E+04</rscale>
<asrwt>0</asrwt>
<pdfrwt beam="1">  1        2 0.34278406E+00 0.17080305E+04</pdfrwt>
<pdfrwt beam="2">  1       -2 0.50359794E-01 0.17080305E+04</pdfrwt>
<totfact> 0.17666807E+01</totfact>
</mgrwt>
</event>
<event>
 6    1  0.9906445E-006  0.1763417E+04  0.7818608E-02  0.8726000E-01
         -2   -1    0    0    0  501 -0.00000000000E+00  0.00000000000E+00  0.71021302964E+03  0.71021302964E+03  0.00000000000E+00 0.  1.
          2   -1    0    0  501    0  0.00000000000E+00 -0.00000000000E+00 -0.10946146679E+04  0.10946146679E+04  0.00000000000E+00 0. -1.
         23    2    1    2    0    0 -0.33861060908E+03 -0.81089888901E+03 -0.15663490295E+03  0.89703265539E+03  0.88988421916E+02 0.  0.
         11    1    3    3    0    0 -0.86363671453E+02 -0.30098109264E+03 -0.78290510090E+02  0.32276571355E+03  0.00000000000E+00 0.  1.
        -11    1    3    3    0    0 -0.25224693763E+03 -0.50991779636E+03 -0.78344392863E+02  0.57426694184E+03  0.00000000000E+00 0. -1.
         22    1    1    2    0    0  0.33861060908E+03  0.81089888901E+03 -0.22776673527E+03  0.90779504211E+03  0.00000000000E+00 0. -1.
<mgrwt>
<rscale>  0 0.17634167E+04</rscale>
<asrwt>0</asrwt>
<pdfrwt beam="1">  1        2 0.16840226E+00 0.17634167E+04</pdfrwt>
<pdfrwt beam="2">  1       -2 0.10926354E+00 0.17634167E+04</pdfrwt>
<totfact> 0.13883260E+01</totfact>
</mgrwt>
</event>
<event>
 6    1  0.9906445E-006  0.4666660E+04  0.7818608E-02  0.7882092E-01
          1   -1    0    0  501    0  0.00000000000E+00  0.00000000000E+00  0.51422210355E+04  0.51422210355E+04  0.00000000000E+00 0. -1.
         -1   -1    0    0    0  501 -0.00000000000E+00 -0.00000000000E+00 -0.10587697731E+04  0.10587697731E+04  0.00000000000E+00 0.  1.
         23    2    1    2    0    0  0.82539531144E+03 -0.95648992607E+03  0.46477239241E+04  0.48173167011E+04  0.95142656850E+02 0.  0.
         13    1    3    3    0    0  0.28220852101E+03 -0.38256209294E+03  0.18550094889E+04  0.19149557719E+04  0.00000000000E+00 0.  1.
        -13    1    3    3    0    0  0.54318679043E+03 -0.57392783312E+03  0.27927144352E+04  0.29023609293E+04  0.00000000000E+00 0. -1.
         22    1    1    2    0    0 -0.82539531144E+03  0.95648992607E+03 -0.56427266171E+03  0.13836741074E+04  0.00000000000E+00 0.  1.
<mgrwt>
<rscale>  0 0.46666597E+04</rscale>
<asrwt>0</asrwt>
<pdfrwt beam="1">  1        1 0.79111092E+00 0.46666597E+04</pdfrwt>
<pdfrwt beam="2">  1       -1 0.16288766E+00 0.46666597E+04</pdfrwt>
<totfact> 0.11329018E-03</totfact>
</mgrwt>
</event>
<event>
 6    1  0.9906445E-006  0.3754481E+04  0.7818608E-02  0.8055994E-01
         -1   -1    0    0    0  501 -0.00000000000E+00  0.00000000000E+00  0.15243092336E+04  0.15243092336E+04  0.00000000000E+00 0.  1.
          1   -1    0    0  501    0  0.00000000000E+00 -0.00000000000E+00 -0.23118881255E+04  0.23118881255E+04  0.00000000000E+00 0. -1.
         23    2    1    2    0    0 -0.11735229008E+03  0.15580139366E+04  0.66712734146E+03  0.17014024715E+04  0.92371498674E+02 0.  0.
         11    1    3    3    0    0 -0.41528350847E+02  0.17757427139E+03  0.87961148770E+02  0.20247071264E+03  0.00000000000E+00 0.  1.
        -11    1    3    3    0    0 -0.75823939229E+02  0.13804396652E+04  0.57916619269E+03  0.14989317589E+04  0.00000000000E+00 0. -1.
         22    1    1    2    0    0  0.11735229008E+03 -0.15580139366E+04 -0.14547062334E+04  0.21347948876E+04  0.00000000000E+00 0.  1.
<mgrwt>
<rscale>  0 0.37544813E+04</rscale>
<asrwt>0</asrwt>
<pdfrwt beam="1">  1        1 0.35567510E+00 0.37544813E+04</pdfrwt>
<pdfrwt beam="2">  1       -1 0.23450911E+00 0.37544813E+04</pdfrwt>
<totfact> 0.12856038E-01</totfact>
</mgrwt>
</event>
<event>
 6    1  0.9906445E-006  0.1421239E+04  0.7818608E-02  0.8938587E-01
          1   -1    0    0  501    0  0.00000000000E+00  0.00000000000E+00  0.35581898357E+03  0.35581898357E+03  0.00000000000E+00 0. -1.
         -1   -1    0    0    0  501 -0.00000000000E+00 -0.00000000000E+00 -0.14192039988E+04  0.14192039988E+04  0.00000000000E+00 0.  1.
         23    2    1    2    0    0  0.66701803752E+03 -0.22775039513E+03 -0.61308125523E+03  0.93862787171E+03  0.91489623294E+02 0.  0.
         13    1    3    3    0    0  0.18073590567E+03 -0.20012149953E+02 -0.14988491415E+03  0.23565110064E+03  0.00000000000E+00 0.  1.
        -13    1    3    3    0    0  0.48628213185E+03 -0.20773824518E+03 -0.46319634108E+03  0.70297677106E+03  0.00000000000E+00 0. -1.
         22    1    1    2    0    0 -0.66701803752E+03  0.22775039513E+03 -0.45030375999E+03  0.83639511065E+03  0.00000000000E+00 0. -1.
<mgrwt>
<rscale>  0 0.14212385E+04</rscale>
<asrwt>0</asrwt>
<pdfrwt beam="1">  1        1 0.54741381E-01 0.14212385E+04</pdfrwt>
<pdfrwt beam="2">  1       -1 0.21833908E+00 0.14212385E+04</pdfrwt>
<totfact> 0.77033973E+00</totfact>
</mgrwt>
</event>
<event>
 6    1  0.9906445E-006  0.5701607E+04  0.7818608E-02  0.7728541E-01
         -2   -1    0    0    0  501 -0.00000000000E+00  0.00000000000E+00  0.29946855357E+04  0.29946855357E+04  0.00000000000E+00 0.  1.
          2   -1    0    0  501    0  0.00000000000E+00 -0.00000000000E+00 -0.27138343262E+04  0.27138343262E+04  0.00000000000E+00 0. -1.
         23    2    1    2    0    0 -0.13655158314E+04  0.21632147410E+04  0.13985389283E+04  0.29168613337E+04  0.89651575778E+02 0.  0.
         11    1    3    3    0    0 -0.12740235159E+04  0.20371878477E+04  0.13344025085E+04  0.27484359735E+04  0.00000000000E+00 0.  1.
        -11    1    3    3    0    0 -0.91492315509E+02  0.12602689326E+03  0.64136419774E+02  0.16842536021E+03  0.00000000000E+00 0. -1.
         22    1    1    2    0    0  0.13655158314E+04 -0.21632147410E+04 -0.11176877188E+04  0.27916585282E+04  0.00000000000E+00 0. -1.
<mgrwt>
<rscale>  0 0.57016069E+04</rscale>
<asrwt>0</asrwt>
<pdfrwt beam="1">  1        2 0.41751297E+00 0.57016069E+04</pdfrwt>
<pdfrwt beam="2">  1       -2 0.46072085E+00 0.57016069E+04</pdfrwt>
<totfact> 0.53208805E-03</totfact>
</mgrwt>
</event>
<event>
 6    1  0.9906445E-006  0.3187665E+04  0.7818608E-02  0.8192082E-01
         -2   -1    0    0    0  501 -0.00000000000E+00  0.00000000000E+00  0.10166968005E+04  0.10166968005E+04  0.00000000000E+00 0.  1.
          2   -1    0    0  501    0  0.00000000000E+00 -0.00000000000E+00 -0.24985839589E+04  0.24985839589E+04  0.00000000000E+00 0. -1.
         23    2    1    2    0    0  0.13061248512E+04 -0.30289043741E+03  0.20604437222E+03  0.13596329227E+04  0.91883934003E+02 0.  0.
         13    1    3    3    0    0  0.30150100883E+03 -0.62770717788E+02  0.86070981184E+02  0.31976747042E+03  0.00000000000E+00 0. -1.
        -13    1    3    3    0    0  0.10046238423E+04 -0.24011971962E+03  0.11997339104E+03  0.10398654523E+04  0.00000000000E+00 0.  1.
         22    1    1    2    0    0 -0.13061248512E+04  0.30289043741E+03 -0.16879315306E+04  0.21556478367E+04  0.00000000000E+00 0. -1.
<mgrwt>
<rscale>  0 0.31876652E+04</rscale>
<asrwt>0</asrwt>
<pdfrwt beam="1">  1        2 0.38439753E+00 0.31876652E+04</pdfrwt>
<pdfrwt beam="2">  1       -2 0.15641489E+00 0.31876652E+04</pdfrwt>
<totfact> 0.78736182E-01</totfact>
</mgrwt>
</event>
<event>
 6    1  0.9906445E-006  0.3039122E+04  0.7818608E-02  0.8232647E-01
         -2   -1    0    0    0  501 -0.00000000000E+00  0.00000000000E+00  0.15121858052E+04  0.15121858052E+04  0.00000000000E+00 0.  1.
          2   -1    0    0  501    0  0.00000000000E+00 -0.00000000000E+00 -0.15269717474E+04  0.15269717474E+04  0.00000000000E+00 0. -1.
         23    2    1    2    0    0 -0.37595334365E+03 -0.14688759014E+04  0.69853091582E+02  0.15205723241E+04  0.91232714096E+02 0.  0.
         13    1    3    3    0    0 -0.26699734975E+03 -0.95625047834E+03  0.79947309867E+01  0.99285773292E+03  0.00000000000E+00 0. -1.
        -13    1    3    3    0    0 -0.10895599390E+03 -0.51262542304E+03  0.61858360596E+02  0.52771459116E+03  0.00000000000E+00 0.  1.
         22    1    1    2    0    0  0.37595334365E+03  0.14688759014E+04 -0.84639033751E+02  0.15185852285E+04  0.00000000000E+00 0.  1.
<mgrwt>
<rscale>  0 0.30391216E+04</rscale>
<asrwt>0</asrwt>
<pdfrwt beam="1">  1        2 0.23491873E+00 0.30391216E+04</pdfrwt>
<pdfrwt beam="2">  1       -2 0.23264397E+00 0.30391216E+04</pdfrwt>
<totfact> 0.86080684E-01</totfact>
</mgrwt>
</event>
<event>
 6    1  0.9906445E-006  0.3333323E+04  0.7818608E-02  0.8154468E-01
         -1   -1    0    0    0  501 -0.00000000000E+00  0.00000000000E+00  0.93369809604E+03  0.93369809604E+03  0.00000000000E+00 0. -1.
          1   -1    0    0  501    0  0.00000000000E+00 -0.00000000000E+00 -0.29750088644E+04  0.29750088644E+04  0.00000000000E+00 0.  1.
         23    2    1    2    0    0  0.38228062071E+03  0.16176753724E+04 -0.11424221522E+04  0.20189945940E+04  0.90546746145E+02 0.  0.
         13    1    3    3    0    0  0.27821210786E+03  0.13183746740E+04 -0.90717802108E+03  0.16243416266E+04  0.00000000000E+00 0.  1.
        -13    1    3    3    0    0  0.10406851284E+03  0.29930069845E+03 -0.23524413111E+03  0.39465296740E+03  0.00000000000E+00 0. -1.
         22    1    1    2    0    0 -0.38228062071E+03 -0.16176753724E+04 -0.89888861618E+03  0.18897123664E+04  0.00000000000E+00 0.  1.
<mgrwt>
<rscale>  0 0.33333227E+04</rscale>
<asrwt>0</asrwt>
<pdfrwt beam="1">  1        1 0.45769368E+00 0.33333227E+04</pdfrwt>
<pdfrwt beam="2">  1       -1 0.14364586E+00 0.33333227E+04</pdfrwt>
<totfact> 0.20185132E-01</totfact>
</mgrwt>
</event>
<event>
 6    1  0.9906445E-006  0.2457424E+04  0.7818608E-02  0.8418312E-01
          2   -1    0    0  501    0  0.00000000000E+00  0.00000000000E+00  0.25069858142E+04  0.25069858142E+04  0.00000000000E+00 0. -1.
         -2   -1    0    0    0  501 -0.00000000000E+00 -0.00000000000E+00 -0.60221069839E+03  0.60221069839E+03  0.00000000000E+00 0.  1.
         23    2    1    2    0    0  0.75742370390E+03 -0.38087937736E+03 -0.16871737697E+03  0.86907801463E+03  0.89840274280E+02 0.  0.
         11    1    3    3    0    0  0.23440833242E+03 -0.80403233915E+02 -0.25486258567E+02  0.24912144771E+03  0.00000000000E+00 0.  1.
        -11    1    3    3    0    0  0.52301537148E+03 -0.30047614345E+03 -0.14323111840E+03  0.61995656692E+03  0.00000000000E+00 0. -1.
         22    1    1    2    0    0 -0.75742370390E+03  0.38087937736E+03  0.20734924928E+04  0.22401184980E+04  0.00000000000E+00 0. -1.
<mgrwt>
<rscale>  0 0.24574244E+04</rscale>
<asrwt>0</asrwt>
<pdfrwt beam="1">  1        2 0.38569012E+00 0.24574244E+04</pdfrwt>
<pdfrwt beam="2">  1       -2 0.92647801E-01 0.24574244E+04</pdfrwt>
<totfact> 0.30495802E+00</totfact>
</mgrwt>
</event>
<event>
 6    1  0.9906445E-006  0.2829937E+04  0.7818608E-02  0.8294034E-01
         -1   -1    0    0    0  501 -0.00000000000E+00  0.00000000000E+00  0.12740371285E+04  0.12740371285E+04  0.00000000000E+00 0.  1.
          1   -1    0    0  501    0  0.00000000000E+00 -0.00000000000E+00 -0.15714894215E+04  0.15714894215E+04  0.00000000000E+00 0. -1.
         23    2    1    2    0    0 -0.65954710602E+03 -0.21594053924E+03 -0.13870888683E+04  0.15536517233E+04  0.90473460353E+02 0.  0.
         13    1    3    3    0    0 -0.75716490998E+02 -0.91565626581E+01 -0.21241527445E+03  0.22569244220E+03  0.00000000000E+00 0. -1.
        -13    1    3    3    0    0 -0.58383061502E+03 -0.20678397658E+03 -0.11746735939E+04  0.13279592811E+04  0.00000000000E+00 0.  1.
         22    1    1    2    0    0  0.65954710602E+03  0.21594053924E+03  0.10896365754E+04  0.12918748267E+04  0.00000000000E+00 0.  1.
<mgrwt>
<rscale>  0 0.28299370E+04</rscale>
<asrwt>0</asrwt>
<pdfrwt beam="1">  1        1 0.24176760E+00 0.28299370E+04</pdfrwt>
<pdfrwt beam="2">  1       -1 0.19600571E+00 0.28299370E+04</pdfrwt>
<totfact> 0.80869869E-01</totfact>
</mgrwt>
</event>
<event>
 6    1  0.9906445E-006  0.1476115E+04  0.7818608E-02  0.8900493E-01
          1   -1    0    0  501    0  0.00000000000E+00  0.00000000000E+00  0.13870564643E+04  0.13870564643E+04  0.00000000000E+00 0. -1.
         -1   -1    0    0    0  501 -0.00000000000E+00 -0.00000000000E+00 -0.39272293899E+03  0.39272293899E+03  0.00000000000E+00 0.  1.
         23    2    1    2    0    0 -0.38874140651E+03  0.49867559544E+03  0.46850114932E+02  0.64069115229E+03  0.92157412777E+02 0.  0.
         11    1    3    3    0    0 -0.20678164173E+03  0.24034648891E+03  0.67039512240E+02  0.32406693489E+03  0.00000000000E+00 0.  1.
        -11    1    3    3    0    0 -0.18195976477E+03  0.25832910653E+03 -0.20189397308E+02  0.31662421740E+03  0.00000000000E+00 0. -1.
         22    1    1    2    0    0  0.38874140651E+03 -0.49867559544E+03  0.94748341040E+03  0.11390882510E+04  0.00000000000E+00 0. -1.
<mgrwt>
<rscale>  0 0.14761150E+04</rscale>
<asrwt>0</asrwt>
<pdfrwt beam="1">  1        1 0.21339330E+00 0.14761150E+04</pdfrwt>
<pdfrwt beam="2">  1       -1 0.60418915E-01 0.14761150E+04</pdfrwt>
<totfact> 0.21122489E+01</totfact>
</mgrwt>
</event>
<event>
 6    1  0.9906445E-006  0.6281715E+03  0.7818608E-02  0.9848623E-01
         -2   -1    0    0    0  501 -0.00000000000E+00  0.00000000000E+00  0.90767271425E+02  0.90767271425E+02  0.00000000000E+00 0.  1.
          2   -1    0    0  501    0  0.00000000000E+00 -0.00000000000E+00 -0.10868440602E+04  0.10868440602E+04  0.00000000000E+00 0. -1.
         23    2    1    2    0    0  0.29439442780E+03 -0.89514643124E+02 -0.49834133909E+03  0.59244338281E+03  0.89241924757E+02 0.  0.
         13    1    3    3    0    0  0.39998160595E+02 -0.46416154414E+02 -0.77413916455E+02  0.98728044154E+02  0.00000000000E+00 0.  1.
        -13    1    3    3    0    0  0.25439626721E+03 -0.43098488710E+02 -0.42092742263E+03  0.49371533865E+03  0.00000000000E+00 0. -1.
         22    1    1    2    0    0 -0.29439442780E+03  0.89514643124E+02 -0.49773544972E+03  0.58516794885E+03  0.00000000000E+00 0. -1.
<mgrwt>
<rscale>  0 0.62817154E+03</rscale>
<asrwt>0</asrwt>
<pdfrwt beam="1">  1        2 0.16720678E+00 0.62817154E+03</pdfrwt>
<pdfrwt beam="2">  1       -2 0.13964195E-01 0.62817154E+03</pdfrwt>
<totfact> 0.88563025E+02</totfact>
</mgrwt>
</event>
<event>
 6    1  0.9906445E-006  0.3480409E+04  0.7818608E-02  0.8118449E-01
          2   -1    0    0  501    0  0.00000000000E+00  0.00000000000E+00  0.18883555667E+04  0.18883555667E+04  0.00000000000E+00 0. -1.
         -2   -1    0    0    0  501 -0.00000000000E+00 -0.00000000000E+00 -0.16036762463E+04  0.16036762463E+04  0.00000000000E+00 0.  1.
         23    2    1    2    0    0 -0.60971088534E+03  0.10091615328E+04 -0.11401189515E+04  0.16426523282E+04  0.91000464925E+02 0.  0.
         13    1    3    3    0    0 -0.40358532062E+03  0.71796713209E+03 -0.74907153926E+03  0.11133131117E+04  0.00000000000E+00 0. -1.
        -13    1    3    3    0    0 -0.20612556472E+03  0.29119440070E+03 -0.39104741226E+03  0.52933921645E+03  0.00000000000E+00 0.  1.
         22    1    1    2    0    0  0.60971088534E+03 -0.10091615328E+04  0.14247982720E+04  0.18493794848E+04  0.00000000000E+00 0. -1.
<mgrwt>
<rscale>  0 0.34804086E+04</rscale>
<asrwt>0</asrwt>
<pdfrwt beam="1">  1        2 0.29051624E+00 0.34804086E+04</pdfrwt>
<pdfrwt beam="2">  1       -2 0.24671942E+00 0.34804086E+04</pdfrwt>
<totfact> 0.42708189E-01</totfact>
</mgrwt>
</event>
<event>
 6    1  0.9906445E-006  0.1687640E+04  0.7818608E-02  0.8768445E-01
         -2   -1    0    0    0  501 -0.00000000000E+00  0.00000000000E+00  0.46313096634E+03  0.46313096634E+03  0.00000000000E+00 0.  1.
          2   -1    0    0  501    0  0.00000000000E+00 -0.00000000000E+00 -0.15374309162E+04  0.15374309162E+04  0.00000000000E+00 0. -1.
         23    2    1    2    0    0 -0.50172108093E+03 -0.58873619525E+03 -0.93068885119E+03  0.12138227273E+04  0.94071914139E+02 0.  0.
         13    1    3    3    0    0 -0.17176706915E+03 -0.13816626265E+03 -0.24800938627E+03  0.33181696439E+03  0.00000000000E+00 0. -1.
        -13    1    3    3    0    0 -0.32995401178E+03 -0.45056993260E+03 -0.68267946492E+03  0.88200576295E+03  0.00000000000E+00 0.  1.
         22    1    1    2    0    0  0.50172108093E+03  0.58873619525E+03 -0.14361109866E+03  0.78673915519E+03  0.00000000000E+00 0. -1.
<mgrwt>
<rscale>  0 0.16876396E+04</rscale>
<asrwt>0</asrwt>
<pdfrwt beam="1">  1        2 0.23652783E+00 0.16876396E+04</pdfrwt>
<pdfrwt beam="2">  1       -2 0.71250918E-01 0.16876396E+04</pdfrwt>
<totfact> 0.20592333E+01</totfact>
</mgrwt>
</event>
<event>
 6    1  0.9906445E-006  0.2576154E+04  0.7818608E-02  0.8376346E-01
          1   -1    0    0  501    0  0.00000000000E+00  0.00000000000E+00  0.11294474451E+04  0.11294474451E+04  0.00000000000E+00 0. -1.
         -1   -1    0    0    0  501 -0.00000000000E+00 -0.00000000000E+00 -0.14689863802E+04  0.14689863802E+04  0.00000000000E+00 0.  1.
         23    2    1    2    0    0  0.39618069784E+03 -0.93222922136E+03 -0.96993697184E+03  0.14053654487E+04  0.90905712684E+02 0.  0.
         11    1    3    3    0    0  0.32405678877E+03 -0.68670970716E+03 -0.68863472663E+03  0.10250857579E+04  0.00000000000E+00 0.  1.
        -11    1    3    3    0    0  0.72123909071E+02 -0.24551951420E+03 -0.28130224521E+03  0.38027969085E+03  0.00000000000E+00 0. -1.
         22    1    1    2    0    0 -0.39618069784E+03  0.93222922136E+03  0.63039803673E+03  0.11930683766E+04  0.00000000000E+00 0. -1.
<mgrwt>
<rscale>  0 0.25761544E+04</rscale>
<asrwt>0</asrwt>
<pdfrwt beam="1">  1        1 0.17376115E+00 0.25761544E+04</pdfrwt>
<pdfrwt beam="2">  1       -1 0.22599790E+00 0.25761544E+04</pdfrwt>
<totfact> 0.10671856E+00</totfact>
</mgrwt>
</event>
<event>
 6    1  0.9906445E-006  0.2250255E+04  0.7818608E-02  0.8497797E-01
         -1   -1    0    0    0  501 -0.00000000000E+00  0.00000000000E+00  0.12175633452E+04  0.12175633452E+04  0.00000000000E+00 0.  1.
          1   -1    0    0  501    0  0.00000000000E+00 -0.00000000000E+00 -0.10397092689E+04  0.10397092689E+04  0.00000000000E+00 0. -1.
         23    2    1    2    0    0 -0.33557233321E+03  0.47366659572E+03 -0.87571146069E+03  0.10543722959E+04  0.88665333133E+02 0.  0.
         11    1    3    3    0    0 -0.19166174552E+03  0.30925595573E+03 -0.47951481309E+03  0.60192019971E+03  0.00000000000E+00 0. -1.
        -11    1    3    3    0    0 -0.14391058769E+03  0.16441063999E+03 -0.39619664760E+03  0.45245209621E+03  0.00000000000E+00 0.  1.
         22    1    1    2    0    0  0.33557233321E+03 -0.47366659572E+03  0.10535655370E+04  0.12029003182E+04  0.00000000000E+00 0.  1.
<mgrwt>
<rscale>  0 0.22502550E+04</rscale>
<asrwt>0</asrwt>
<pdfrwt beam="1">  1        1 0.15995527E+00 0.22502550E+04</pdfrwt>
<pdfrwt beam="2">  1       -1 0.18731744E+00 0.22502550E+04</pdfrwt>
<totfact> 0.23612451E+00</totfact>
</mgrwt>
</event>
<event>
 6    1  0.9906445E-006  0.1624132E+04  0.7818608E-02  0.8805859E-01
          1   -1    0    0  501    0  0.00000000000E+00  0.00000000000E+00  0.19734325930E+04  0.19734325930E+04  0.00000000000E+00 0.  1.
         -1   -1    0    0    0  501 -0.00000000000E+00 -0.00000000000E+00 -0.33416444386E+03  0.33416444386E+03  0.00000000000E+00 0. -1.
         23    2    1    2    0    0  0.46646132419E+03 -0.26075167322E+03 -0.41725021254E+02  0.54370485168E+03  0.91084500779E+02 0.  0.
         13    1    3    3    0    0  0.36634342875E+03 -0.17641476930E+03 -0.61772183937E+02  0.41127300096E+03  0.00000000000E+00 0. -1.
        -13    1    3    3    0    0  0.10011789545E+03 -0.84336903921E+02  0.20047162683E+02  0.13243185071E+03  0.00000000000E+00 0.  1.
         22    1    1    2    0    0 -0.46646132419E+03  0.26075167322E+03  0.16809931704E+04  0.17638921852E+04  0.00000000000E+00 0.  1.
<mgrwt>
<rscale>  0 0.16241318E+04</rscale>
<asrwt>0</asrwt>
<pdfrwt beam="1">  1        1 0.30360501E+00 0.16241318E+04</pdfrwt>
<pdfrwt beam="2">  1       -1 0.51409916E-01 0.16241318E+04</pdfrwt>
<totfact> 0.11325795E+01</totfact>
</mgrwt>
</event>
<event>
 6    1  0.9906445E-006  0.1735474E+04  0.7818608E-02  0.8741387E-01
          2   -1    0    0  501    0  0.00000000000E+00  0.00000000000E+00  0.15978920868E+04  0.15978920868E+04  0.00000000000E+00 0.  1.
         -2   -1    0    0    0  501 -0.00000000000E+00 -0.00000000000E+00 -0.47122535595E+03  0.47122535595E+03  0.00000000000E+00 0. -1.
         23    2    1    2    0    0 -0.52063197744E+03 -0.20958554112E+03 -0.22031272937E+03  0.60989250421E+03  0.91909808938E+02 0.  0.
         13    1    3    3    0    0 -0.31196226169E+03 -0.13159817988E+03 -0.84422059392E+02  0.34894930546E+03  0.00000000000E+00 0.  1.
        -13    1    3    3    0    0 -0.20866971575E+03 -0.77987361241E+02 -0.13589066998E+03  0.26094319875E+03  0.00000000000E+00 0. -1.
         22    1    1    2    0    0  0.52063197744E+03  0.20958554112E+03  0.13469794602E+04  0.14592249385E+04  0.00000000000E+00 0.  1.
<mgrwt>
<rscale>  0 0.17354737E+04</rscale>
<asrwt>0</asrwt>
<pdfrwt beam="1">  1        2 0.24582955E+00 0.17354737E+04</pdfrwt>
<pdfrwt beam="2">  1       -2 0.72496209E-01 0.17354737E+04</pdfrwt>
<totfact> 0.18263278E+01</totfact>
</mgrwt>
</event>
<event>
 6    1  0.9906445E-006  0.2266999E+04  0.7818608E-02  0.8491048E-01
         -1   -1    0    0    0  501 -0.00000000000E+00  0.00000000000E+00  0.69106181951E+03  0.69106181951E+03  0.00000000000E+00 0.  1.
          1   -1    0    0  501    0  0.00000000000E+00 -0.00000000000E+00 -0.18591978103E+04  0.18591978103E+04  0.00000000000E+00 0. -1.
         23    2    1    2    0    0 -0.76087927996E+03 -0.31122771339E+03  0.29003074689E+03  0.87632707348E+03  0.89617728775E+02 0.  0.
         11    1    3    3    0    0 -0.53789262114E+03 -0.25859164518E+03  0.19009837802E+03  0.62636690858E+03  0.00000000000E+00 0. -1.
        -11    1    3    3    0    0 -0.22298665883E+03 -0.52636068211E+02  0.99932368873E+02  0.24996016491E+03  0.00000000000E+00 0.  1.
         22    1    1    2    0    0  0.76087927996E+03  0.31122771339E+03 -0.14581667377E+04  0.16739325564E+04  0.00000000000E+00 0. -1.
<mgrwt>
<rscale>  0 0.22669986E+04</rscale>
<asrwt>0</asrwt>
<pdfrwt beam="1">  1        1 0.28603043E+00 0.22669986E+04</pdfrwt>
<pdfrwt beam="2">  1       -1 0.10631721E+00 0.22669986E+04</pdfrwt>
<totfact> 0.27831383E+00</totfact>
</mgrwt>
</event>
<event>
 6    1  0.9906445E-006  0.1465734E+04  0.7818608E-02  0.8907564E-01
         -1   -1    0    0    0  501 -0.00000000000E+00  0.00000000000E+00  0.21296226196E+03  0.21296226196E+03  0.00000000000E+00 0.  1.
          1   -1    0    0  501    0  0.00000000000E+00 -0.00000000000E+00 -0.25220161623E+04  0.25220161623E+04  0.00000000000E+00 0. -1.
         23    2    1    2    0    0  0.13299851112E+03  0.56606215586E+03 -0.19824804779E+04  0.20680712579E+04  0.92600834103E+02 0.  0.
         11    1    3    3    0    0  0.42733647523E+01  0.20997259439E+03 -0.68541040416E+03  0.71686412533E+03  0.00000000000E+00 0. -1.
        -11    1    3    3    0    0  0.12872514636E+03  0.35608956147E+03 -0.12970700737E+04  0.13512071326E+04  0.00000000000E+00 0.  1.
         22    1    1    2    0    0 -0.13299851112E+03 -0.56606215586E+03 -0.32657342248E+03  0.66690716635E+03  0.00000000000E+00 0.  1.
<mgrwt>
<rscale>  0 0.14657343E+04</rscale>
<asrwt>0</asrwt>
<pdfrwt beam="1">  1        1 0.38800249E+00 0.14657343E+04</pdfrwt>
<pdfrwt beam="2">  1       -1 0.32763425E-01 0.14657343E+04</pdfrwt>
<totfact> 0.11111189E+01</totfact>
</mgrwt>
</event>
<event>
 6    1  0.9906445E-006  0.7308976E+03  0.7818608E-02  0.9665805E-01
         -4   -1    0    0    0  501 -0.00000000000E+00  0.00000000000E+00  0.40994657617E+03  0.40994657617E+03  0.00000000000E+00 0.  1.
          4   -1    0    0  501    0  0.00000000000E+00 -0.00000000000E+00 -0.32578102114E+03  0.32578102114E+03  0.00000000000E+00 0. -1.
         23    2    1    2    0    0 -0.15426844986E+01  0.20856439923E+03  0.33832911188E+03  0.40694103717E+03  0.87366648582E+02 0.  0.
         13    1    3    3    0    0 -0.19492815766E+02  0.15844941636E+03  0.18354563466E+03  0.24325950632E+03  0.00000000000E+00 0.  1.
        -13    1    3    3    0    0  0.17950131268E+02  0.50114982866E+02  0.15478347722E+03  0.16368153085E+03  0.00000000000E+00 0. -1.
         22    1    1    2    0    0  0.15426844986E+01 -0.20856439923E+03 -0.25416355685E+03  0.32878656015E+03  0.00000000000E+00 0. -1.
<mgrwt>
<rscale>  0 0.73089757E+03</rscale>
<asrwt>0</asrwt>
<pdfrwt beam="1">  1        4 0.50120158E-01 0.73089757E+03</pdfrwt>
<pdfrwt beam="2">  1       -4 0.63068703E-01 0.73089757E+03</pdfrwt>
<totfact> 0.17944805E+01</totfact>
</mgrwt>
</event>
<event>
 6    1  0.9906445E-006  0.1481882E+04  0.7818608E-02  0.8896591E-01
         -2   -1    0    0    0  501 -0.00000000000E+00  0.00000000000E+00  0.44633508149E+03  0.44633508149E+03  0.00000000000E+00 0.  1.
          2   -1    0    0  501    0  0.00000000000E+00 -0.00000000000E+00 -0.12300037893E+04  0.12300037893E+04  0.00000000000E+00 0. -1.
         23    2    1    2    0    0  0.31130400878E+03 -0.29547250871E+03 -0.10726364770E+04  0.11589255341E+04  0.91352024940E+02 0.  0.
         13    1    3    3    0    0  0.93404655376E+02 -0.13738106983E+03 -0.48213971341E+03  0.50995753867E+03  0.00000000000E+00 0. -1.
        -13    1    3    3    0    0  0.21789935341E+03 -0.15809143888E+03 -0.59049676362E+03  0.64896799544E+03  0.00000000000E+00 0.  1.
         22    1    1    2    0    0 -0.31130400878E+03  0.29547250871E+03  0.28896776924E+03  0.51741333666E+03  0.00000000000E+00 0.  1.
<mgrwt>
<rscale>  0 0.14818824E+04</rscale>
<asrwt>0</asrwt>
<pdfrwt beam="1">  1        2 0.18923135E+00 0.14818824E+04</pdfrwt>
<pdfrwt beam="2">  1       -2 0.68666936E-01 0.14818824E+04</pdfrwt>
<totfact> 0.34093425E+01</totfact>
</mgrwt>
</event>
<event>
 6    1  0.9906445E-006  0.5915670E+04  0.7818608E-02  0.7700946E-01
         -2   -1    0    0    0  501 -0.00000000000E+00  0.00000000000E+00  0.33691542648E+04  0.33691542648E+04  0.00000000000E+00 0.  1.
          2   -1    0    0  501    0  0.00000000000E+00 -0.00000000000E+00 -0.25967314126E+04  0.25967314126E+04  0.00000000000E+00 0. -1.
         23    2    1    2    0    0  0.56113129108E+03 -0.72651890805E+03 -0.24485531074E+04  0.26166493193E+04  0.93505565634E+02 0.  0.
         11    1    3    3    0    0  0.49124398202E+03 -0.62992399951E+03 -0.22104342082E+04  0.23503498216E+04  0.00000000000E+00 0.  1.
        -11    1    3    3    0    0  0.69887309066E+02 -0.96594908533E+02 -0.23811889918E+03  0.26629949769E+03  0.00000000000E+00 0. -1.
         22    1    1    2    0    0 -0.56113129108E+03  0.72651890805E+03  0.32209759596E+04  0.33492363580E+04  0.00000000000E+00 0.  1.
<mgrwt>
<rscale>  0 0.59156703E+04</rscale>
<asrwt>0</asrwt>
<pdfrwt beam="1">  1        2 0.39949714E+00 0.59156703E+04</pdfrwt>
<pdfrwt beam="2">  1       -2 0.51833142E+00 0.59156703E+04</pdfrwt>
<totfact> 0.26827685E-03</totfact>
</mgrwt>
</event>
<event>
 6    1  0.9906445E-006  0.2397510E+04  0.7818608E-02  0.8440436E-01
          1   -1    0    0  501    0  0.00000000000E+00  0.00000000000E+00  0.15498726084E+04  0.15498726084E+04  0.00000000000E+00 0. -1.
         -1   -1    0    0    0  501 -0.00000000000E+00 -0.00000000000E+00 -0.92718169515E+03  0.92718169515E+03  0.00000000000E+00 0.  1.
         23    2    1    2    0    0 -0.34068355009E+02  0.35571383795E+03  0.14920257036E+04  0.15371415603E+04  0.94712664175E+02 0.  0.
         13    1    3    3    0    0 -0.57404020303E+02  0.14006392183E+03  0.68003878394E+03  0.69668204470E+03  0.00000000000E+00 0. -1.
        -13    1    3    3    0    0  0.23335665295E+02  0.21564991611E+03  0.81198691970E+03  0.84045951560E+03  0.00000000000E+00 0.  1.
         22    1    1    2    0    0  0.34068355009E+02 -0.35571383795E+03 -0.86933479035E+03  0.93991274330E+03  0.00000000000E+00 0.  1.
<mgrwt>
<rscale>  0 0.23975100E+04</rscale>
<asrwt>0</asrwt>
<pdfrwt beam="1">  1        1 0.23844194E+00 0.23975100E+04</pdfrwt>
<pdfrwt beam="2">  1       -1 0.14264334E+00 0.23975100E+04</pdfrwt>
<totfact> 0.21609967E+00</totfact>
</mgrwt>
</event>
<event>
 6    1  0.9906445E-006  0.3854152E+04  0.7818608E-02  0.8034633E-01
         -1   -1    0    0    0  501 -0.00000000000E+00  0.00000000000E+00  0.34082511474E+04  0.34082511474E+04  0.00000000000E+00 0.  1.
          1   -1    0    0  501    0  0.00000000000E+00 -0.00000000000E+00 -0.10895975362E+04  0.10895975362E+04  0.00000000000E+00 0. -1.
         23    2    1    2    0    0 -0.12549256972E+04 -0.70330722402E+03 -0.33443546989E+03  0.14798425158E+04  0.92775164775E+02 0.  0.
         11    1    3    3    0    0 -0.72259914837E+03 -0.45386499617E+03 -0.18146676023E+03  0.87239506478E+03  0.00000000000E+00 0. -1.
        -11    1    3    3    0    0 -0.53232654884E+03 -0.24944222785E+03 -0.15296870966E+03  0.60744745104E+03  0.00000000000E+00 0.  1.
         22    1    1    2    0    0  0.12549256972E+04  0.70330722402E+03  0.26530890811E+04  0.30180061678E+04  0.00000000000E+00 0.  1.
<mgrwt>
<rscale>  0 0.38541521E+04</rscale>
<asrwt>0</asrwt>
<pdfrwt beam="1">  1        1 0.16763039E+00 0.38541521E+04</pdfrwt>
<pdfrwt beam="2">  1       -1 0.52434633E+00 0.38541521E+04</pdfrwt>
<totfact> 0.10743522E-02</totfact>
</mgrwt>
</event>
<event>
 6    1  0.9906445E-006  0.9525917E+03  0.7818608E-02  0.9362126E-01
          2   -1    0    0  501    0  0.00000000000E+00  0.00000000000E+00  0.23132640400E+04  0.23132640400E+04  0.00000000000E+00 0. -1.
         -2   -1    0    0    0  501 -0.00000000000E+00 -0.00000000000E+00 -0.98068235481E+02  0.98068235481E+02  0.00000000000E+00 0.  1.
         23    2    1    2    0    0 -0.33337275947E+03 -0.32263124343E+03  0.13366841686E+04  0.14178479976E+04  0.91323938091E+02 0.  0.
         13    1    3    3    0    0 -0.69169728783E+02 -0.22264655692E+02  0.19346819254E+03  0.20666423928E+03  0.00000000000E+00 0.  1.
        -13    1    3    3    0    0 -0.26420303069E+03 -0.30036658774E+03  0.11432159761E+04  0.12111837583E+04  0.00000000000E+00 0. -1.
         22    1    1    2    0    0  0.33337275947E+03  0.32263124343E+03  0.87851163592E+03  0.99348427790E+03  0.00000000000E+00 0.  1.
<mgrwt>
<rscale>  0 0.95259167E+03</rscale>
<asrwt>0</asrwt>
<pdfrwt beam="1">  1        2 0.35588673E+00 0.95259167E+03</pdfrwt>
<pdfrwt beam="2">  1       -2 0.15087423E-01 0.95259167E+03</pdfrwt>
<totfact> 0.15667320E+02</totfact>
</mgrwt>
</event>
<event>
 6    1  0.9906445E-006  0.4294514E+04  0.7818608E-02  0.7947633E-01
         -2   -1    0    0    0  501 -0.00000000000E+00  0.00000000000E+00  0.14695275804E+04  0.14695275804E+04  0.00000000000E+00 0.  1.
          2   -1    0    0  501    0  0.00000000000E+00 -0.00000000000E+00 -0.31375474748E+04  0.31375474748E+04  0.00000000000E+00 0. -1.
         23    2    1    2    0    0 -0.19661139843E+04 -0.75395649864E+03 -0.38767741159E+03  0.21426620472E+04  0.81561460541E+02 0.  0.
         11    1    3    3    0    0 -0.15922703478E+04 -0.58913358659E+03 -0.28667457300E+03  0.17217971873E+04  0.00000000000E+00 0. -1.
        -11    1    3    3    0    0 -0.37384363650E+03 -0.16482291205E+03 -0.10100283860E+03  0.42086485989E+03  0.00000000000E+00 0.  1.
         22    1    1    2    0    0  0.19661139843E+04  0.75395649864E+03 -0.12803424829E+04  0.24644130081E+04  0.00000000000E+00 0.  1.
<mgrwt>
<rscale>  0 0.42945140E+04</rscale>
<asrwt>0</asrwt>
<pdfrwt beam="1">  1        2 0.48269960E+00 0.42945140E+04</pdfrwt>
<pdfrwt beam="2">  1       -2 0.22608117E+00 0.42945140E+04</pdfrwt>
<totfact> 0.99141244E-02</totfact>
</mgrwt>
</event>
<event>
 6    1  0.9906445E-006  0.9789272E+03  0.7818608E-02  0.9331964E-01
          2   -1    0    0  501    0  0.00000000000E+00  0.00000000000E+00  0.47747582566E+03  0.47747582566E+03  0.00000000000E+00 0. -1.
         -2   -1    0    0    0  501 -0.00000000000E+00 -0.00000000000E+00 -0.50175238015E+03  0.50175238015E+03  0.00000000000E+00 0.  1.
         23    2    1    2    0    0 -0.21653077452E+03 -0.43156008030E+03 -0.61613139372E+02  0.49495173539E+03  0.89729383163E+02 0.  0.
         13    1    3    3    0    0 -0.66309587433E+02 -0.57971843937E+02 -0.18410159943E+02  0.89981276186E+02  0.00000000000E+00 0. -1.
        -13    1    3    3    0    0 -0.15022118709E+03 -0.37358823637E+03 -0.43202979429E+02  0.40497045921E+03  0.00000000000E+00 0.  1.
         22    1    1    2    0    0  0.21653077452E+03  0.43156008030E+03  0.37336584878E+02  0.48427647041E+03  0.00000000000E+00 0. -1.
<mgrwt>
<rscale>  0 0.97892723E+03</rscale>
<asrwt>0</asrwt>
<pdfrwt beam="1">  1        2 0.73457820E-01 0.97892723E+03</pdfrwt>
<pdfrwt beam="2">  1       -2 0.77192673E-01 0.97892723E+03</pdfrwt>
<totfact> 0.97312045E+01</totfact>
</mgrwt>
</event>
<event>
 6    1  0.9906445E-006  0.1406981E+04  0.7818608E-02  0.8948781E-01
         -1   -1    0    0    0  501 -0.00000000000E+00  0.00000000000E+00  0.20872979721E+03  0.20872979721E+03  0.00000000000E+00 0.  1.
          1   -1    0    0  501    0  0.00000000000E+00 -0.00000000000E+00 -0.23710037116E+04  0.23710037116E+04  0.00000000000E+00 0. -1.
         23    2    1    2    0    0 -0.62635042349E+03  0.17379816361E+02 -0.50371892290E+03  0.80676380494E+03  0.67217353792E+02 0.  0.
         13    1    3    3    0    0 -0.44432533466E+03  0.23618661289E+02 -0.32004921890E+03  0.54810067205E+03  0.00000000000E+00 0. -1.
        -13    1    3    3    0    0 -0.18202508882E+03 -0.62388449277E+01 -0.18366970400E+03  0.25866313288E+03  0.00000000000E+00 0.  1.
         22    1    1    2    0    0  0.62635042349E+03 -0.17379816361E+02 -0.16585549915E+04  0.17729697039E+04  0.00000000000E+00 0. -1.
<mgrwt>
<rscale>  0 0.14069813E+04</rscale>
<asrwt>0</asrwt>
<pdfrwt beam="1">  1        1 0.36476981E+00 0.14069813E+04</pdfrwt>
<pdfrwt beam="2">  1       -1 0.32112276E-01 0.14069813E+04</pdfrwt>
<totfact> 0.14707464E+01</totfact>
</mgrwt>
</event>
<event>
 6    1  0.9906445E-006  0.4741059E+04  0.7818608E-02  0.7869742E-01
         -2   -1    0    0    0  501 -0.00000000000E+00  0.00000000000E+00  0.29856599963E+04  0.29856599963E+04  0.00000000000E+00 0. -1.
          2   -1    0    0  501    0  0.00000000000E+00 -0.00000000000E+00 -0.18821334266E+04  0.18821334266E+04  0.00000000000E+00 0.  1.
         23    2    1    2    0    0  0.22960205600E+04 -0.38303867216E+03  0.10075707040E+04  0.25380645622E+04  0.90243904998E+02 0.  0.
         13    1    3    3    0    0  0.12151580230E+04 -0.17356433099E+03  0.56892168168E+03  0.13529247864E+04  0.00000000000E+00 0. -1.
        -13    1    3    3    0    0  0.10808625370E+04 -0.20947434116E+03  0.43864902232E+03  0.11851397758E+04  0.00000000000E+00 0.  1.
         22    1    1    2    0    0 -0.22960205600E+04  0.38303867216E+03  0.95955865741E+02  0.23297288607E+04  0.00000000000E+00 0. -1.
<mgrwt>
<rscale>  0 0.47410592E+04</rscale>
<asrwt>0</asrwt>
<pdfrwt beam="1">  1        2 0.28955899E+00 0.47410592E+04</pdfrwt>
<pdfrwt beam="2">  1       -2 0.45933231E+00 0.47410592E+04</pdfrwt>
<totfact> 0.17432876E-02</totfact>
</mgrwt>
</event>
<event>
 6    1  0.9906445E-006  0.1133959E+04  0.7818608E-02  0.9172711E-01
          1   -1    0    0  501    0  0.00000000000E+00  0.00000000000E+00  0.11055498189E+04  0.11055498189E+04  0.00000000000E+00 0. -1.
         -1   -1    0    0    0  501 -0.00000000000E+00 -0.00000000000E+00 -0.29077453840E+03  0.29077453840E+03  0.00000000000E+00 0.  1.
         23    2    1    2    0    0  0.15115008452E+03 -0.71491594982E+02  0.10723208765E+04  0.10892622621E+04  0.93074256701E+02 0.  0.
         13    1    3    3    0    0  0.22032089748E+02 -0.50318937968E+02  0.44964965930E+03  0.45299252158E+03  0.00000000000E+00 0.  1.
        -13    1    3    3    0    0  0.12911799477E+03 -0.21172657014E+02  0.62267121723E+03  0.63626974056E+03  0.00000000000E+00 0. -1.
         22    1    1    2    0    0 -0.15115008452E+03  0.71491594982E+02 -0.25754559607E+03  0.30706209512E+03  0.00000000000E+00 0.  1.
<mgrwt>
<rscale>  0 0.11339590E+04</rscale>
<asrwt>0</asrwt>
<pdfrwt beam="1">  1        1 0.17008459E+00 0.11339590E+04</pdfrwt>
<pdfrwt beam="2">  1       -1 0.44734545E-01 0.11339590E+04</pdfrwt>
<totfact> 0.61792183E+01</totfact>
</mgrwt>
</event>
<event>
 6    1  0.9906445E-006  0.1185328E+04  0.7818608E-02  0.9125796E-01
          1   -1    0    0  501    0  0.00000000000E+00  0.00000000000E+00  0.26659127447E+04  0.26659127447E+04  0.00000000000E+00 0. -1.
         -1   -1    0    0    0  501 -0.00000000000E+00 -0.00000000000E+00 -0.13175628371E+03  0.13175628371E+03  0.00000000000E+00 0.  1.
         23    2    1    2    0    0 -0.35642429779E+03 -0.19635245225E+03  0.22802589178E+04  0.23180269452E+04  0.89864458307E+02 0.  0.
         11    1    3    3    0    0 -0.19590754310E+03 -0.57169266821E+02  0.10812862517E+04  0.11003763214E+04  0.00000000000E+00 0. -1.
        -11    1    3    3    0    0 -0.16051675469E+03 -0.13918318543E+03  0.11989726661E+04  0.12176506238E+04  0.00000000000E+00 0.  1.
         22    1    1    2    0    0  0.35642429779E+03  0.19635245225E+03  0.25389754320E+03  0.47964208323E+03  0.00000000000E+00 0.  1.
<mgrwt>
<rscale>  0 0.11853282E+04</rscale>
<asrwt>0</asrwt>
<pdfrwt beam="1">  1        1 0.41014038E+00 0.11853282E+04</pdfrwt>
<pdfrwt beam="2">  1       -1 0.20270199E-01 0.11853282E+04</pdfrwt>
<totfact> 0.20732431E+01</totfact>
</mgrwt>
</event>
<event>
 6    1  0.9906445E-006  0.9345794E+03  0.7818608E-02  0.9383359E-01
         -2   -1    0    0    0  501 -0.00000000000E+00  0.00000000000E+00  0.13668935159E+04  0.13668935159E+04  0.00000000000E+00 0. -1.
          2   -1    0    0  501    0  0.00000000000E+00 -0.00000000000E+00 -0.15974885818E+03  0.15974885818E+03  0.00000000000E+00 0.  1.
         23    2    1    2    0    0 -0.30320795398E+03 -0.17237014060E+03  0.11299364077E+03  0.37824654658E+03  0.93039552940E+02 0.  0.
         11    1    3    3    0    0 -0.95405078904E+02 -0.29775203302E+02 -0.47916776106E+01  0.10005824297E+03  0.00000000000E+00 0.  1.
        -11    1    3    3    0    0 -0.20780287508E+03 -0.14259493730E+03  0.11778531839E+03  0.27818830360E+03  0.00000000000E+00 0. -1.
         22    1    1    2    0    0  0.30320795398E+03  0.17237014060E+03  0.10941510169E+04  0.11483958275E+04  0.00000000000E+00 0. -1.
<mgrwt>
<rscale>  0 0.93457943E+03</rscale>
<asrwt>0</asrwt>
<pdfrwt beam="1">  1        2 0.24576748E-01 0.93457943E+03</pdfrwt>
<pdfrwt beam="2">  1       -2 0.21029130E+00 0.93457943E+03</pdfrwt>
<totfact> 0.25631909E+01</totfact>
</mgrwt>
</event>
<event>
 6    1  0.9906445E-006  0.2555903E+04  0.7818608E-02  0.8383336E-01
         -2   -1    0    0    0  501 -0.00000000000E+00  0.00000000000E+00  0.39576561705E+03  0.39576561705E+03  0.00000000000E+00 0.  1.
          2   -1    0    0  501    0  0.00000000000E+00 -0.00000000000E+00 -0.41265838064E+04  0.41265838064E+04  0.00000000000E+00 0. -1.
         23    2    1    2    0    0 -0.81498707136E+03  0.20158282257E+03 -0.16664729559E+03  0.86063483588E+03  0.89896822807E+02 0.  0.
         11    1    3    3    0    0 -0.10890577473E+03  0.57447857087E+02 -0.13179382781E+02  0.12383222595E+03  0.00000000000E+00 0.  1.
        -11    1    3    3    0    0 -0.70608129664E+03  0.14413496548E+03 -0.15346791280E+03  0.73680260993E+03  0.00000000000E+00 0. -1.
         22    1    1    2    0    0  0.81498707136E+03 -0.20158282257E+03 -0.35641708938E+04  0.36617145876E+04  0.00000000000E+00 0. -1.
<mgrwt>
<rscale>  0 0.25559030E+04</rscale>
<asrwt>0</asrwt>
<pdfrwt beam="1">  1        2 0.63485905E+00 0.25559030E+04</pdfrwt>
<pdfrwt beam="2">  1       -2 0.60887018E-01 0.25559030E+04</pdfrwt>
<totfact> 0.60111431E-01</totfact>
</mgrwt>
</event>
<event>
 6    1  0.9906445E-006  0.2444723E+04  0.7818608E-02  0.8422947E-01
         -2   -1    0    0    0  501 -0.00000000000E+00  0.00000000000E+00  0.66420846150E+03  0.66420846150E+03  0.00000000000E+00 0.  1.
          2   -1    0    0  501    0  0.00000000000E+00 -0.00000000000E+00 -0.22495470901E+04  0.22495470901E+04  0.00000000000E+00 0. -1.
         23    2    1    2    0    0  0.42080886076E+03 -0.10512803725E+04 -0.25066001388E+03  0.11634305751E+04  0.92031199544E+02 0.  0.
         13    1    3    3    0    0  0.23815194092E+03 -0.64939359648E+03 -0.11183184364E+03  0.70066736143E+03  0.00000000000E+00 0.  1.
        -13    1    3    3    0    0  0.18265691984E+03 -0.40188677597E+03 -0.13882817024E+03  0.46276321366E+03  0.00000000000E+00 0. -1.
         22    1    1    2    0    0 -0.42080886076E+03  0.10512803725E+04 -0.13346786147E+04  0.17503249765E+04  0.00000000000E+00 0. -1.
<mgrwt>
<rscale>  0 0.24447235E+04</rscale>
<asrwt>0</asrwt>
<pdfrwt beam="1">  1        2 0.34608417E+00 0.24447235E+04</pdfrwt>
<pdfrwt beam="2">  1       -2 0.10218592E+00 0.24447235E+04</pdfrwt>
<totfact> 0.34028807E+00</totfact>
</mgrwt>
</event>
<event>
 6    1  0.9906445E-006  0.2090525E+04  0.7818608E-02  0.8565429E-01
         -1   -1    0    0    0  501 -0.00000000000E+00  0.00000000000E+00  0.85839530889E+03  0.85839530889E+03  0.00000000000E+00 0.  1.
          1   -1    0    0  501    0  0.00000000000E+00 -0.00000000000E+00 -0.12728093496E+04  0.12728093496E+04  0.00000000000E+00 0. -1.
         23    2    1    2    0    0 -0.15913388672E+03 -0.90098919011E+03  0.30353844127E+03  0.96820814907E+03  0.90478284706E+02 0.  0.
         13    1    3    3    0    0 -0.75339228108E+02 -0.62962318316E+03  0.23303776905E+03  0.67557971689E+03  0.00000000000E+00 0. -1.
        -13    1    3    3    0    0 -0.83794658608E+02 -0.27136600695E+03  0.70500672212E+02  0.29262843218E+03  0.00000000000E+00 0.  1.
         22    1    1    2    0    0  0.15913388672E+03  0.90098919011E+03 -0.71795248201E+03  0.11629965095E+04  0.00000000000E+00 0. -1.
<mgrwt>
<rscale>  0 0.20905249E+04</rscale>
<asrwt>0</asrwt>
<pdfrwt beam="1">  1        1 0.19581682E+00 0.20905249E+04</pdfrwt>
<pdfrwt beam="2">  1       -1 0.13206082E+00 0.20905249E+04</pdfrwt>
<totfact> 0.42440343E+00</totfact>
</mgrwt>
</event>
<event>
 6    1  0.9906445E-006  0.2140830E+04  0.7818608E-02  0.8543468E-01
         -2   -1    0    0    0  501 -0.00000000000E+00  0.00000000000E+00  0.51140873205E+03  0.51140873205E+03  0.00000000000E+00 0.  1.
          2   -1    0    0  501    0  0.00000000000E+00 -0.00000000000E+00 -0.22404558356E+04  0.22404558356E+04  0.00000000000E+00 0. -1.
         23    2    1    2    0    0  0.40418119664E+02  0.72908254142E+03 -0.18687788277E+04  0.20084132032E+04  0.90522435585E+02 0.  0.
         11    1    3    3    0    0  0.14172737171E+02  0.33198905403E+03 -0.72911427423E+03  0.80126476483E+03  0.00000000000E+00 0. -1.
        -11    1    3    3    0    0  0.26245382493E+02  0.39709348739E+03 -0.11396645535E+04  0.12071484384E+04  0.00000000000E+00 0.  1.
         22    1    1    2    0    0 -0.40418119664E+02 -0.72908254142E+03  0.13973172413E+03  0.74345136446E+03  0.00000000000E+00 0.  1.
<mgrwt>
<rscale>  0 0.21408304E+04</rscale>
<asrwt>0</asrwt>
<pdfrwt beam="1">  1        2 0.34468551E+00 0.21408304E+04</pdfrwt>
<pdfrwt beam="2">  1       -2 0.78678267E-01 0.21408304E+04</pdfrwt>
<totfact> 0.64574606E+00</totfact>
</mgrwt>
</event>
<event>
 6    1  0.9906445E-006  0.3270895E+04  0.7818608E-02  0.8170341E-01
         -1   -1    0    0    0  501 -0.00000000000E+00  0.00000000000E+00  0.10739183664E+04  0.10739183664E+04  0.00000000000E+00 0.  1.
          1   -1    0    0  501    0  0.00000000000E+00 -0.00000000000E+00 -0.24905884823E+04  0.24905884823E+04  0.00000000000E+00 0. -1.
         23    2    1    2    0    0 -0.14540039903E+04  0.51867964832E+03 -0.12481299584E+03  0.15515361584E+04  0.92357921438E+02 0.  0.
         11    1    3    3    0    0 -0.91329950243E+03  0.35948413986E+03 -0.48010233723E+02  0.98267482439E+03  0.00000000000E+00 0.  1.
        -11    1    3    3    0    0 -0.54070448783E+03  0.15919550846E+03 -0.76802762122E+02  0.56886133402E+03  0.00000000000E+00 0. -1.
         22    1    1    2    0    0  0.14540039903E+04 -0.51867964832E+03 -0.12918571201E+04  0.20129706903E+04  0.00000000000E+00 0. -1.
<mgrwt>
<rscale>  0 0.32708951E+04</rscale>
<asrwt>0</asrwt>
<pdfrwt beam="1">  1        1 0.38316746E+00 0.32708951E+04</pdfrwt>
<pdfrwt beam="2">  1       -1 0.16521821E+00 0.32708951E+04</pdfrwt>
<totfact> 0.30527290E-01</totfact>
</mgrwt>
</event>
<event>
 6    1  0.9906445E-006  0.1926826E+04  0.7818608E-02  0.8641618E-01
         -1   -1    0    0    0  501 -0.00000000000E+00  0.00000000000E+00  0.46179970065E+03  0.46179970065E+03  0.00000000000E+00 0.  1.
          1   -1    0    0  501    0  0.00000000000E+00 -0.00000000000E+00 -0.20098852594E+04  0.20098852594E+04  0.00000000000E+00 0. -1.
         23    2    1    2    0    0 -0.40005830087E+03 -0.41336828236E+03  0.21212443691E+03  0.61985904766E+03  0.91150870956E+02 0.  0.
         13    1    3    3    0    0 -0.72095085304E+02 -0.56523201306E+02  0.68417554423E+02  0.11433956168E+03  0.00000000000E+00 0.  1.
        -13    1    3    3    0    0 -0.32796321556E+03 -0.35684508105E+03  0.14370688249E+03  0.50551948598E+03  0.00000000000E+00 0. -1.
         22    1    1    2    0    0  0.40005830087E+03  0.41336828236E+03 -0.17602099957E+04  0.18518259124E+04  0.00000000000E+00 0. -1.
<mgrwt>
<rscale>  0 0.19268258E+04</rscale>
<asrwt>0</asrwt>
<pdfrwt beam="1">  1        1 0.30921312E+00 0.19268258E+04</pdfrwt>
<pdfrwt beam="2">  1       -1 0.71046107E-01 0.19268258E+04</pdfrwt>
<totfact> 0.54811791E+00</totfact>
</mgrwt>
</event>
<event>
 6    1  0.9906445E-006  0.2867267E+04  0.7818608E-02  0.8282684E-01
          2   -1    0    0  501    0  0.00000000000E+00  0.00000000000E+00  0.14243679893E+04  0.14243679893E+04  0.00000000000E+00 0. -1.
         -2   -1    0    0    0  501 -0.00000000000E+00 -0.00000000000E+00 -0.14429596944E+04  0.14429596944E+04  0.00000000000E+00 0.  1.
         23    2    1    2    0    0  0.10148901267E+03 -0.11838859234E+04  0.79033730805E+03  0.14298813203E+04  0.89675137091E+02 0.  0.
         13    1    3    3    0    0  0.83093187829E+00 -0.23625756419E+03  0.12182060575E+03  0.26581682992E+03  0.00000000000E+00 0. -1.
        -13    1    3    3    0    0  0.10065808080E+03 -0.94762835924E+03  0.66851670230E+03  0.11640644904E+04  0.00000000000E+00 0.  1.
         22    1    1    2    0    0 -0.10148901267E+03  0.11838859234E+04 -0.80892901319E+03  0.14374463634E+04  0.00000000000E+00 0.  1.
<mgrwt>
<rscale>  0 0.28672674E+04</rscale>
<asrwt>0</asrwt>
<pdfrwt beam="1">  1        2 0.21913354E+00 0.28672674E+04</pdfrwt>
<pdfrwt beam="2">  1       -2 0.22199380E+00 0.28672674E+04</pdfrwt>
<totfact> 0.11643185E+00</totfact>
</mgrwt>
</event>
<event>
 6    1  0.9906445E-006  0.9327754E+03  0.7818608E-02  0.9385513E-01
         -1   -1    0    0    0  501 -0.00000000000E+00  0.00000000000E+00  0.30801799188E+03  0.30801799188E+03  0.00000000000E+00 0.  1.
          1   -1    0    0  501    0  0.00000000000E+00 -0.00000000000E+00 -0.70618432008E+03  0.70618432008E+03  0.00000000000E+00 0. -1.
         23    2    1    2    0    0 -0.25653633184E+03 -0.10318056641E+03 -0.60349245781E+03  0.66979566518E+03  0.89252269539E+02 0.  0.
         11    1    3    3    0    0 -0.18463032357E+03 -0.84133675544E+02 -0.33935832193E+03  0.39538702862E+03  0.00000000000E+00 0. -1.
        -11    1    3    3    0    0 -0.71906008275E+02 -0.19046890864E+02 -0.26413413589E+03  0.27440863656E+03  0.00000000000E+00 0.  1.
         22    1    1    2    0    0  0.25653633184E+03  0.10318056641E+03  0.20532612962E+03  0.34440664678E+03  0.00000000000E+00 0.  1.
<mgrwt>
<rscale>  0 0.93277538E+03</rscale>
<asrwt>0</asrwt>
<pdfrwt beam="1">  1        1 0.10864374E+00 0.93277538E+03</pdfrwt>
<pdfrwt beam="2">  1       -1 0.47387384E-01 0.93277538E+03</pdfrwt>
<totfact> 0.12014833E+02</totfact>
</mgrwt>
</event>
<event>
 6    1  0.9906445E-006  0.1960279E+04  0.7818608E-02  0.8625420E-01
         -1   -1    0    0    0  501 -0.00000000000E+00  0.00000000000E+00  0.40818900721E+03  0.40818900721E+03  0.00000000000E+00 0.  1.
          1   -1    0    0  501    0  0.00000000000E+00 -0.00000000000E+00 -0.23535018763E+04  0.23535018763E+04  0.00000000000E+00 0. -1.
         23    2    1    2    0    0  0.60178477474E+03  0.17808188961E+03  0.81996338156E+02  0.63946547223E+03  0.91294119120E+02 0.  0.
         13    1    3    3    0    0  0.37550010712E+03  0.11797206356E+03  0.71500103516E+01  0.39366084499E+03  0.00000000000E+00 0.  1.
        -13    1    3    3    0    0  0.22628466761E+03  0.60109826054E+02  0.74846327805E+02  0.24580462723E+03  0.00000000000E+00 0. -1.
         22    1    1    2    0    0 -0.60178477474E+03 -0.17808188961E+03 -0.20273092073E+04  0.21222254113E+04  0.00000000000E+00 0. -1.
<mgrwt>
<rscale>  0 0.19602792E+04</rscale>
<asrwt>0</asrwt>
<pdfrwt beam="1">  1        1 0.36207722E+00 0.19602792E+04</pdfrwt>
<pdfrwt beam="2">  1       -1 0.62798308E-01 0.19602792E+04</pdfrwt>
<totfact> 0.40956028E+00</totfact>
</mgrwt>
</event>
<event>
 6    1  0.9906445E-006  0.2975911E+04  0.7818608E-02  0.8250643E-01
         -1   -1    0    0    0  501 -0.00000000000E+00  0.00000000000E+00  0.12675640787E+04  0.12675640787E+04  0.00000000000E+00 0.  1.
          1   -1    0    0  501    0  0.00000000000E+00 -0.00000000000E+00 -0.17466662868E+04  0.17466662868E+04  0.00000000000E+00 0. -1.
         23    2    1    2    0    0 -0.87359820684E+03 -0.27557461454E+02 -0.14577325737E+04  0.17021135134E+04  0.90955568593E+02 0.  0.
         11    1    3    3    0    0 -0.86016278331E+03 -0.23350770573E+02 -0.14052203947E+04  0.16477468343E+04  0.00000000000E+00 0. -1.
        -11    1    3    3    0    0 -0.13435423528E+02 -0.42066908810E+01 -0.52512179075E+02  0.54366679177E+02  0.00000000000E+00 0.  1.
         22    1    1    2    0    0  0.87359820684E+03  0.27557461454E+02  0.97863036563E+03  0.13121168520E+04  0.00000000000E+00 0.  1.
<mgrwt>
<rscale>  0 0.29759109E+04</rscale>
<asrwt>0</asrwt>
<pdfrwt beam="1">  1        1 0.26871789E+00 0.29759109E+04</pdfrwt>
<pdfrwt beam="2">  1       -1 0.19500986E+00 0.29759109E+04</pdfrwt>
<totfact> 0.61569846E-01</totfact>
</mgrwt>
</event>
<event>
 6    1  0.9906445E-006  0.2994098E+04  0.7818608E-02  0.8245418E-01
          1   -1    0    0  501    0  0.00000000000E+00  0.00000000000E+00  0.47770661625E+04  0.47770661625E+04  0.00000000000E+00 0. -1.
         -1   -1    0    0    0  501 -0.00000000000E+00 -0.00000000000E+00 -0.46914906983E+03  0.46914906983E+03  0.00000000000E+00 0.  1.
         23    2    1    2    0    0 -0.12680796737E+04 -0.64010738509E+03  0.13355935997E+04  0.19519064322E+04  0.91460010884E+02 0.  0.
         11    1    3    3    0    0 -0.81722918351E+03 -0.42372828506E+03  0.80635126567E+03  0.12237694070E+04  0.00000000000E+00 0. -1.
        -11    1    3    3    0    0 -0.45085049015E+03 -0.21637910002E+03  0.52924233399E+03  0.72813702521E+03  0.00000000000E+00 0.  1.
         22    1    1    2    0    0  0.12680796737E+04  0.64010738509E+03  0.29723234930E+04  0.32943088001E+04  0.00000000000E+00 0. -1.
<mgrwt>
<rscale>  0 0.29940983E+04</rscale>
<asrwt>0</asrwt>
<pdfrwt beam="1">  1        1 0.73493323E+00 0.29940983E+04</pdfrwt>
<pdfrwt beam="2">  1       -1 0.72176783E-01 0.29940983E+04</pdfrwt>
<totfact> 0.26568349E-02</totfact>
</mgrwt>
</event>
<event>
 6    1  0.9906445E-006  0.4369471E+04  0.7818608E-02  0.7933896E-01
         -2   -1    0    0    0  501 -0.00000000000E+00  0.00000000000E+00  0.19289500771E+04  0.19289500771E+04  0.00000000000E+00 0.  1.
          2   -1    0    0  501    0  0.00000000000E+00 -0.00000000000E+00 -0.24744393445E+04  0.24744393445E+04  0.00000000000E+00 0. -1.
         23    2    1    2    0    0  0.11067212022E+04  0.73624604877E+03 -0.20189309385E+04  0.24189700048E+04  0.91889532014E+02 0.  0.
         13    1    3    3    0    0  0.50553338435E+03  0.29382762062E+03 -0.93933467360E+03  0.11064575466E+04  0.00000000000E+00 0. -1.
        -13    1    3    3    0    0  0.60118781787E+03  0.44241842815E+03 -0.10795962649E+04  0.13125124582E+04  0.00000000000E+00 0.  1.
         22    1    1    2    0    0 -0.11067212022E+04 -0.73624604877E+03  0.14734416711E+04  0.19844194168E+04  0.00000000000E+00 0.  1.
<mgrwt>
<rscale>  0 0.43694713E+04</rscale>
<asrwt>0</asrwt>
<pdfrwt beam="1">  1        2 0.38068298E+00 0.43694713E+04</pdfrwt>
<pdfrwt beam="2">  1       -2 0.29676155E+00 0.43694713E+04</pdfrwt>
<totfact> 0.91754903E-02</totfact>
</mgrwt>
</event>
<event>
 6    1  0.9906445E-006  0.1325316E+04  0.7818608E-02  0.9009727E-01
         -1   -1    0    0    0  501 -0.00000000000E+00  0.00000000000E+00  0.27759873728E+03  0.27759873728E+03  0.00000000000E+00 0.  1.
          1   -1    0    0  501    0  0.00000000000E+00 -0.00000000000E+00 -0.15818366946E+04  0.15818366946E+04  0.00000000000E+00 0. -1.
         23    2    1    2    0    0 -0.30132128264E+03  0.14853683852E+03  0.14152783893E+03  0.37515228997E+03  0.88608146964E+02 0.  0.
         11    1    3    3    0    0 -0.97779196396E+02  0.46354021206E+01  0.46611861001E+02  0.10842012630E+03  0.00000000000E+00 0.  1.
        -11    1    3    3    0    0 -0.20354208624E+03  0.14390143640E+03  0.94915977927E+02  0.26673216367E+03  0.00000000000E+00 0. -1.
         22    1    1    2    0    0  0.30132128264E+03 -0.14853683852E+03 -0.14457657963E+04  0.14842831419E+04  0.00000000000E+00 0. -1.
<mgrwt>
<rscale>  0 0.13253164E+04</rscale>
<asrwt>0</asrwt>
<pdfrwt beam="1">  1        1 0.24335950E+00 0.13253164E+04</pdfrwt>
<pdfrwt beam="2">  1       -1 0.42707497E-01 0.13253164E+04</pdfrwt>
<totfact> 0.30401145E+01</totfact>
</mgrwt>
</event>
<event>
 6    1  0.9906445E-006  0.1720215E+04  0.7818608E-02  0.8749919E-01
         -2   -1    0    0    0  501 -0.00000000000E+00  0.00000000000E+00  0.74139289195E+03  0.74139289195E+03  0.00000000000E+00 0.  1.
          2   -1    0    0  501    0  0.00000000000E+00 -0.00000000000E+00 -0.99783061989E+03  0.99783061989E+03  0.00000000000E+00 0. -1.
         23    2    1    2    0    0 -0.38659769547E+03  0.75560000196E+03 -0.37599695456E+01  0.85365296655E+03  0.91214630480E+02 0.  0.
         11    1    3    3    0    0 -0.33722885119E+03  0.57714936879E+03  0.52354209521E+00  0.66844967355E+03  0.00000000000E+00 0.  1.
        -11    1    3    3    0    0 -0.49368844277E+02  0.17845063317E+03 -0.42835116408E+01  0.18520329300E+03  0.00000000000E+00 0. -1.
         22    1    1    2    0    0  0.38659769547E+03 -0.75560000196E+03 -0.25267775839E+03  0.88557054530E+03  0.00000000000E+00 0. -1.
<mgrwt>
<rscale>  0 0.17202146E+04</rscale>
<asrwt>0</asrwt>
<pdfrwt beam="1">  1        2 0.15351240E+00 0.17202146E+04</pdfrwt>
<pdfrwt beam="2">  1       -2 0.11406045E+00 0.17202146E+04</pdfrwt>
<totfact> 0.14443806E+01</totfact>
</mgrwt>
</event>
<event>
 6    1  0.9906445E-006  0.3025626E+04  0.7818608E-02  0.8236451E-01
          2   -1    0    0  501    0  0.00000000000E+00  0.00000000000E+00  0.13220147127E+04  0.13220147127E+04  0.00000000000E+00 0.  1.
         -2   -1    0    0    0  501 -0.00000000000E+00 -0.00000000000E+00 -0.17311475236E+04  0.17311475236E+04  0.00000000000E+00 0. -1.
         23    2    1    2    0    0  0.13523781203E+04 -0.11737363174E+02  0.47619586395E+03  0.14367244218E+04  0.91379523296E+02 0.  0.
         11    1    3    3    0    0  0.94155605257E+03 -0.25720061574E+02  0.37165536752E+03  0.10125793963E+04  0.00000000000E+00 0.  1.
        -11    1    3    3    0    0  0.41082206774E+03  0.13982698399E+02  0.10454049642E+03  0.42414502542E+03  0.00000000000E+00 0. -1.
         22    1    1    2    0    0 -0.13523781203E+04  0.11737363174E+02 -0.88532867481E+03  0.16164378146E+04  0.00000000000E+00 0. -1.
<mgrwt>
<rscale>  0 0.30256256E+04</rscale>
<asrwt>0</asrwt>
<pdfrwt beam="1">  1        2 0.20338688E+00 0.30256256E+04</pdfrwt>
<pdfrwt beam="2">  1       -2 0.26633039E+00 0.30256256E+04</pdfrwt>
<totfact> 0.69971294E-01</totfact>
</mgrwt>
</event>
<event>
 6    1  0.9906445E-006  0.1382827E+04  0.7818608E-02  0.8966344E-01
          2   -1    0    0  501    0  0.00000000000E+00  0.00000000000E+00  0.15796214310E+04  0.15796214310E+04  0.00000000000E+00 0. -1.
         -2   -1    0    0    0  501 -0.00000000000E+00 -0.00000000000E+00 -0.30263753019E+03  0.30263753019E+03  0.00000000000E+00 0.  1.
         23    2    1    2    0    0 -0.21305568035E+02  0.29545571552E+03 -0.20290409208E+03  0.37301528353E+03  0.10110550971E+03 0.  0.
         11    1    3    3    0    0 -0.34422144348E+02  0.67369734259E+02 -0.91836204651E+02  0.11898509823E+03  0.00000000000E+00 0.  1.
        -11    1    3    3    0    0  0.13116576313E+02  0.22808598126E+03 -0.11106788743E+03  0.25403018530E+03  0.00000000000E+00 0. -1.
         22    1    1    2    0    0  0.21305568035E+02 -0.29545571552E+03  0.14798879929E+04  0.15092436777E+04  0.00000000000E+00 0. -1.
<mgrwt>
<rscale>  0 0.13828271E+04</rscale>
<asrwt>0</asrwt>
<pdfrwt beam="1">  1        2 0.24301868E+00 0.13828271E+04</pdfrwt>
<pdfrwt beam="2">  1       -2 0.46559621E-01 0.13828271E+04</pdfrwt>
<totfact> 0.48782281E+01</totfact>
</mgrwt>
</event>
<event>
 6    1  0.1577872E-005  0.2435447E+04  0.7818608E-02  0.8426351E-01
         -1   -1    0    0    0  501 -0.00000000000E+00  0.00000000000E+00  0.83650740143E+03  0.83650740143E+03  0.00000000000E+00 0.  1.
          1   -1    0    0  501    0  0.00000000000E+00 -0.00000000000E+00 -0.17726683666E+04  0.17726683666E+04  0.00000000000E+00 0. -1.
         23    2    1    2    0    0 -0.18624621270E+03  0.36032703459E+03  0.75923589481E+03  0.86593346232E+03  0.94225227992E+02 0.  0.
         11    1    3    3    0    0 -0.11290904100E+03  0.16840017086E+03  0.46271936508E+03  0.50518935055E+03  0.00000000000E+00 0. -1.
        -11    1    3    3    0    0 -0.73337171698E+02  0.19192686373E+03  0.29651652973E+03  0.36074411177E+03  0.00000000000E+00 0.  1.
         22    1    1    2    0    0  0.18624621270E+03 -0.36032703459E+03 -0.16953968600E+04  0.17432423058E+04  0.00000000000E+00 0. -1.
<mgrwt>
<rscale>  0 0.24354467E+04</rscale>
<asrwt>0</asrwt>
<pdfrwt beam="1">  1        1 0.27271821E+00 0.24354467E+04</pdfrwt>
<pdfrwt beam="2">  1       -1 0.12869345E+00 0.24354467E+04</pdfrwt>
<totfact> 0.19761907E+00</totfact>
</mgrwt>
</event>
<event>
 6    1  0.9906445E-006  0.1024964E+04  0.7818608E-02  0.9281580E-01
         -2   -1    0    0    0  501 -0.00000000000E+00  0.00000000000E+00  0.13345032444E+03  0.13345032444E+03  0.00000000000E+00 0.  1.
          2   -1    0    0  501    0  0.00000000000E+00 -0.00000000000E+00 -0.19680577960E+04  0.19680577960E+04  0.00000000000E+00 0. -1.
         23    2    1    2    0    0 -0.47527036510E+02  0.15681217297E+03 -0.19114015344E+04  0.19205489956E+04  0.90574509205E+02 0.  0.
         13    1    3    3    0    0 -0.35345883395E+02  0.12782679465E+03 -0.10190666548E+04  0.10276603855E+04  0.00000000000E+00 0.  1.
        -13    1    3    3    0    0 -0.12181153115E+02  0.28985378321E+02 -0.89233487963E+03  0.89288861010E+03  0.00000000000E+00 0. -1.
         22    1    1    2    0    0  0.47527036510E+02 -0.15681217297E+03  0.76794062857E+02  0.18095912489E+03  0.00000000000E+00 0.  1.
<mgrwt>
<rscale>  0 0.10249643E+04</rscale>
<asrwt>0</asrwt>
<pdfrwt beam="1">  1        2 0.30277810E+00 0.10249643E+04</pdfrwt>
<pdfrwt beam="2">  1       -2 0.20530821E-01 0.10249643E+04</pdfrwt>
<totfact> 0.14205022E+02</totfact>
</mgrwt>
</event>
<event>
 6    1  0.9906445E-006  0.4198330E+04  0.7818608E-02  0.7965690E-01
         -1   -1    0    0    0  501 -0.00000000000E+00  0.00000000000E+00  0.95301072276E+03  0.95301072276E+03  0.00000000000E+00 0.  1.
          1   -1    0    0  501    0  0.00000000000E+00 -0.00000000000E+00 -0.46237603665E+04  0.46237603665E+04  0.00000000000E+00 0. -1.
         23    2    1    2    0    0  0.10545608349E+04 -0.11965538605E+04 -0.36470684520E+04  0.39816533837E+04  0.92820681273E+02 0.  0.
         13    1    3    3    0    0  0.25713854212E+03 -0.34124731365E+03 -0.10389780868E+04  0.11234079507E+04  0.00000000000E+00 0. -1.
        -13    1    3    3    0    0  0.79742229276E+03 -0.85530654686E+03 -0.26080903652E+04  0.28582454330E+04  0.00000000000E+00 0.  1.
         22    1    1    2    0    0 -0.10545608349E+04  0.11965538605E+04 -0.23681191700E+02  0.15951177055E+04  0.00000000000E+00 0.  1.
<mgrwt>
<rscale>  0 0.41983298E+04</rscale>
<asrwt>0</asrwt>
<pdfrwt beam="1">  1        1 0.71134776E+00 0.41983298E+04</pdfrwt>
<pdfrwt beam="2">  1       -1 0.14661703E+00 0.41983298E+04</pdfrwt>
<totfact> 0.67683066E-03</totfact>
</mgrwt>
</event>
<event>
 6    1  0.9906445E-006  0.1184095E+04  0.7818608E-02  0.9126893E-01
         -1   -1    0    0    0  501 -0.00000000000E+00  0.00000000000E+00  0.59087809056E+03  0.59087809056E+03  0.00000000000E+00 0.  1.
          1   -1    0    0  501    0  0.00000000000E+00 -0.00000000000E+00 -0.59321909383E+03  0.59321909383E+03  0.00000000000E+00 0. -1.
         23    2    1    2    0    0 -0.53782787439E+03 -0.23899985539E+03  0.23283279541E+02  0.59499926620E+03  0.84274921111E+02 0.  0.
         11    1    3    3    0    0 -0.22353522197E+03 -0.70679792052E+02  0.41139422273E+02  0.23802537791E+03  0.00000000000E+00 0. -1.
        -11    1    3    3    0    0 -0.31429265242E+03 -0.16832006334E+03 -0.17856142733E+02  0.35697388829E+03  0.00000000000E+00 0.  1.
         22    1    1    2    0    0  0.53782787439E+03  0.23899985539E+03 -0.25624282816E+02  0.58909791819E+03  0.00000000000E+00 0. -1.
<mgrwt>
<rscale>  0 0.11840949E+04</rscale>
<asrwt>0</asrwt>
<pdfrwt beam="1">  1        1 0.91264476E-01 0.11840949E+04</pdfrwt>
<pdfrwt beam="2">  1       -1 0.90904322E-01 0.11840949E+04</pdfrwt>
<totfact> 0.40781241E+01</totfact>
</mgrwt>
</event>
<event>
 6    1  0.9906445E-006  0.4042975E+04  0.7818608E-02  0.7995933E-01
          1   -1    0    0  501    0  0.00000000000E+00  0.00000000000E+00  0.26407155057E+04  0.26407155057E+04  0.00000000000E+00 0. -1.
         -1   -1    0    0    0  501 -0.00000000000E+00 -0.00000000000E+00 -0.15474637042E+04  0.15474637042E+04  0.00000000000E+00 0.  1.
         23    2    1    2    0    0  0.50118754965E+03 -0.19465864759E+04  0.75874473139E+03  0.21504641052E+04  0.91730214687E+02 0.  0.
         13    1    3    3    0    0  0.34019692159E+03 -0.11972772723E+04  0.43522462959E+03  0.13185701690E+04  0.00000000000E+00 0.  1.
        -13    1    3    3    0    0  0.16099062806E+03 -0.74930920358E+03  0.32352010179E+03  0.83189393624E+03  0.00000000000E+00 0. -1.
         22    1    1    2    0    0 -0.50118754965E+03  0.19465864759E+04  0.33450707017E+03  0.20377151047E+04  0.00000000000E+00 0.  1.
<mgrwt>
<rscale>  0 0.40429748E+04</rscale>
<asrwt>0</asrwt>
<pdfrwt beam="1">  1        1 0.40626392E+00 0.40429748E+04</pdfrwt>
<pdfrwt beam="2">  1       -1 0.23807134E+00 0.40429748E+04</pdfrwt>
<totfact> 0.70337101E-02</totfact>
</mgrwt>
</event>
<event>
 6    1  0.9906445E-006  0.1428049E+04  0.7818608E-02  0.8933762E-01
         -1   -1    0    0    0  501 -0.00000000000E+00  0.00000000000E+00  0.15153334555E+04  0.15153334555E+04  0.00000000000E+00 0.  1.
          1   -1    0    0  501    0  0.00000000000E+00 -0.00000000000E+00 -0.33644814717E+03  0.33644814717E+03  0.00000000000E+00 0. -1.
         23    2    1    2    0    0 -0.35627585653E+03 -0.30666166800E+03  0.12838049279E+04  0.13701365143E+04  0.90250266133E+02 0.  0.
         13    1    3    3    0    0 -0.21318627497E+03 -0.12805306467E+03  0.62168103606E+03  0.66957694539E+03  0.00000000000E+00 0.  1.
        -13    1    3    3    0    0 -0.14308958156E+03 -0.17860860334E+03  0.66212389181E+03  0.70055956895E+03  0.00000000000E+00 0. -1.
         22    1    1    2    0    0  0.35627585653E+03  0.30666166800E+03 -0.10491961951E+03  0.48164508835E+03  0.00000000000E+00 0. -1.
<mgrwt>
<rscale>  0 0.14280492E+04</rscale>
<asrwt>0</asrwt>
<pdfrwt beam="1">  1        1 0.51761254E-01 0.14280492E+04</pdfrwt>
<pdfrwt beam="2">  1       -1 0.23312822E+00 0.14280492E+04</pdfrwt>
<totfact> 0.66079649E+00</totfact>
</mgrwt>
</event>
<event>
 6    1  0.9906445E-006  0.1903071E+04  0.7818608E-02  0.8653329E-01
         -4   -1    0    0    0  501 -0.00000000000E+00  0.00000000000E+00  0.35710138801E+03  0.35710138801E+03  0.00000000000E+00 0.  1.
          4   -1    0    0  501    0  0.00000000000E+00 -0.00000000000E+00 -0.25354705263E+04  0.25354705263E+04  0.00000000000E+00 0. -1.
         23    2    1    2    0    0 -0.49683053010E+03 -0.17639632172E+03  0.10864882844E+03  0.54557225132E+03  0.88815964408E+02 0.  0.
         11    1    3    3    0    0 -0.44329180946E+03 -0.16544609976E+03  0.69243262393E+02  0.47819940364E+03  0.00000000000E+00 0. -1.
        -11    1    3    3    0    0 -0.53538720648E+02 -0.10950221962E+02  0.39405566043E+02  0.67372847682E+02  0.00000000000E+00 0.  1.
         22    1    1    2    0    0  0.49683053010E+03  0.17639632172E+03 -0.22870179668E+04  0.23469996630E+04  0.00000000000E+00 0. -1.
<mgrwt>
<rscale>  0 0.19030712E+04</rscale>
<asrwt>0</asrwt>
<pdfrwt beam="1">  1        4 0.39007239E+00 0.19030712E+04</pdfrwt>
<pdfrwt beam="2">  1       -4 0.54938674E-01 0.19030712E+04</pdfrwt>
<totfact> 0.47662541E-02</totfact>
</mgrwt>
</event>
<event>
 6    1  0.9906445E-006  0.1862965E+04  0.7818608E-02  0.8673514E-01
          1   -1    0    0  501    0  0.00000000000E+00  0.00000000000E+00  0.24047138940E+04  0.24047138940E+04  0.00000000000E+00 0. -1.
         -1   -1    0    0    0  501 -0.00000000000E+00 -0.00000000000E+00 -0.36081598652E+03  0.36081598652E+03  0.00000000000E+00 0.  1.
         23    2    1    2    0    0 -0.25378983166E+03 -0.26346583218E+03  0.22925541395E+04  0.23232025752E+04  0.87419674101E+02 0.  0.
         13    1    3    3    0    0 -0.18920864266E+03 -0.19531075744E+03  0.19117935695E+04  0.19310362127E+04  0.00000000000E+00 0.  1.
        -13    1    3    3    0    0 -0.64581189005E+02 -0.68155074744E+02  0.38076056998E+03  0.39216636245E+03  0.00000000000E+00 0. -1.
         22    1    1    2    0    0  0.25378983166E+03  0.26346583218E+03 -0.24865623198E+03  0.44232730538E+03  0.00000000000E+00 0.  1.
<mgrwt>
<rscale>  0 0.18629645E+04</rscale>
<asrwt>0</asrwt>
<pdfrwt beam="1">  1        1 0.36995597E+00 0.18629645E+04</pdfrwt>
<pdfrwt beam="2">  1       -1 0.55510153E-01 0.18629645E+04</pdfrwt>
<totfact> 0.48597876E+00</totfact>
</mgrwt>
</event>
<event>
 6    1  0.9906445E-006  0.1828367E+04  0.7818608E-02  0.8691358E-01
          2   -1    0    0  501    0  0.00000000000E+00  0.00000000000E+00  0.99243856051E+03  0.99243856051E+03  0.00000000000E+00 0. -1.
         -2   -1    0    0    0  501 -0.00000000000E+00 -0.00000000000E+00 -0.84209853239E+03  0.84209853239E+03  0.00000000000E+00 0.  1.
         23    2    1    2    0    0 -0.56411852181E+03 -0.75790025001E+02 -0.63939510456E+03  0.86106114850E+03  0.92878238487E+02 0.  0.
         11    1    3    3    0    0 -0.21522053849E+03 -0.11982281374E+02 -0.18099730706E+03  0.28146665951E+03  0.00000000000E+00 0. -1.
        -11    1    3    3    0    0 -0.34889798332E+03 -0.63807743627E+02 -0.45839779750E+03  0.57959448899E+03  0.00000000000E+00 0.  1.
         22    1    1    2    0    0  0.56411852181E+03  0.75790025001E+02  0.78973513268E+03  0.97347594440E+03  0.00000000000E+00 0. -1.
<mgrwt>
<rscale>  0 0.18283665E+04</rscale>
<asrwt>0</asrwt>
<pdfrwt beam="1">  1        2 0.15268286E+00 0.18283665E+04</pdfrwt>
<pdfrwt beam="2">  1       -2 0.12955362E+00 0.18283665E+04</pdfrwt>
<totfact> 0.10511732E+01</totfact>
</mgrwt>
</event>
<event>
 6    1  0.9906445E-006  0.3838356E+04  0.7818608E-02  0.8037974E-01
          1   -1    0    0  501    0  0.00000000000E+00  0.00000000000E+00  0.16671344380E+04  0.16671344380E+04  0.00000000000E+00 0. -1.
         -1   -1    0    0    0  501 -0.00000000000E+00 -0.00000000000E+00 -0.22093263928E+04  0.22093263928E+04  0.00000000000E+00 0.  1.
         23    2    1    2    0    0  0.10702724587E+04  0.14418685441E+04 -0.95169655421E+03  0.20346785279E+04  0.98601958437E+02 0.  0.
         11    1    3    3    0    0  0.80561017678E+03  0.11530702381E+04 -0.74985370066E+03  0.15940073097E+04  0.00000000000E+00 0.  1.
        -11    1    3    3    0    0  0.26466228191E+03  0.28879830598E+03 -0.20184285355E+03  0.44067121818E+03  0.00000000000E+00 0. -1.
         22    1    1    2    0    0 -0.10702724587E+04 -0.14418685441E+04  0.40950459937E+03  0.18417823029E+04  0.00000000000E+00 0.  1.
<mgrwt>
<rscale>  0 0.38383560E+04</rscale>
<asrwt>0</asrwt>
<pdfrwt beam="1">  1        1 0.25648222E+00 0.38383560E+04</pdfrwt>
<pdfrwt beam="2">  1       -1 0.33989637E+00 0.38383560E+04</pdfrwt>
<totfact> 0.72115898E-02</totfact>
</mgrwt>
</event>
<event>
 6    1  0.9906445E-006  0.9744543E+03  0.7818608E-02  0.9337015E-01
          2   -1    0    0  501    0  0.00000000000E+00  0.00000000000E+00  0.12184155686E+04  0.12184155686E+04  0.00000000000E+00 0. -1.
         -2   -1    0    0    0  501 -0.00000000000E+00 -0.00000000000E+00 -0.19483523605E+03  0.19483523605E+03  0.00000000000E+00 0.  1.
         23    2    1    2    0    0  0.20355929311E+03  0.38061850023E+03  0.20038308828E+03  0.48375603247E+03  0.86946468343E+02 0.  0.
         13    1    3    3    0    0  0.94603382252E+02  0.11519494969E+03  0.37017128732E+02  0.15359018259E+03  0.00000000000E+00 0.  1.
        -13    1    3    3    0    0  0.10895591086E+03  0.26542355054E+03  0.16336595955E+03  0.33016584989E+03  0.00000000000E+00 0. -1.
         22    1    1    2    0    0 -0.20355929311E+03 -0.38061850023E+03  0.82319724424E+03  0.92949477215E+03  0.00000000000E+00 0. -1.
<mgrwt>
<rscale>  0 0.97445428E+03</rscale>
<asrwt>0</asrwt>
<pdfrwt beam="1">  1        2 0.18744854E+00 0.97445428E+03</pdfrwt>
<pdfrwt beam="2">  1       -2 0.29974652E-01 0.97445428E+03</pdfrwt>
<totfact> 0.18931288E+02</totfact>
</mgrwt>
</event>
<event>
 6    1  0.9906445E-006  0.1175831E+04  0.7818608E-02  0.9134278E-01
         -2   -1    0    0    0  501 -0.00000000000E+00  0.00000000000E+00  0.67062833641E+03  0.67062833641E+03  0.00000000000E+00 0.  1.
          2   -1    0    0  501    0  0.00000000000E+00 -0.00000000000E+00 -0.51540433534E+03  0.51540433534E+03  0.00000000000E+00 0. -1.
         23    2    1    2    0    0  0.41782463353E+03  0.11479272563E+03 -0.31740450854E+03  0.54483652209E+03  0.91358740802E+02 0.  0.
         11    1    3    3    0    0  0.16293921397E+03  0.29619899663E+02 -0.17406045743E+03  0.24025729697E+03  0.00000000000E+00 0.  1.
        -11    1    3    3    0    0  0.25488541956E+03  0.85172825971E+02 -0.14334405111E+03  0.30457922512E+03  0.00000000000E+00 0. -1.
         22    1    1    2    0    0 -0.41782463353E+03 -0.11479272563E+03  0.47262850961E+03  0.64119614966E+03  0.00000000000E+00 0.  1.
<mgrwt>
<rscale>  0 0.11758312E+04</rscale>
<asrwt>0</asrwt>
<pdfrwt beam="1">  1        2 0.79292975E-01 0.11758312E+04</pdfrwt>
<pdfrwt beam="2">  1       -2 0.10317359E+00 0.11758312E+04</pdfrwt>
<totfact> 0.45040426E+01</totfact>
</mgrwt>
</event>
<event>
 6    1  0.9906445E-006  0.2147857E+04  0.7818608E-02  0.8540450E-01
         -2   -1    0    0    0  501 -0.00000000000E+00  0.00000000000E+00  0.54876992786E+03  0.54876992786E+03  0.00000000000E+00 0.  1.
          2   -1    0    0  501    0  0.00000000000E+00 -0.00000000000E+00 -0.21016501841E+04  0.21016501841E+04  0.00000000000E+00 0. -1.
         23    2    1    2    0    0 -0.45015090424E+03  0.73843415953E+03 -0.15595051035E+04  0.17855705683E+04  0.91023306257E+02 0.  0.
         13    1    3    3    0    0 -0.27159190134E+03  0.52511818608E+03 -0.10791317695E+04  0.12304619645E+04  0.00000000000E+00 0. -1.
        -13    1    3    3    0    0 -0.17855900290E+03  0.21331597344E+03 -0.48037333395E+03  0.55510860380E+03  0.00000000000E+00 0.  1.
         22    1    1    2    0    0  0.45015090424E+03 -0.73843415953E+03  0.66248471908E+01  0.86484954364E+03  0.00000000000E+00 0.  1.
<mgrwt>
<rscale>  0 0.21478570E+04</rscale>
<asrwt>0</asrwt>
<pdfrwt beam="1">  1        2 0.32333079E+00 0.21478570E+04</pdfrwt>
<pdfrwt beam="2">  1       -2 0.84426144E-01 0.21478570E+04</pdfrwt>
<totfact> 0.65853765E+00</totfact>
</mgrwt>
</event>
<event>
 6    1  0.9906445E-006  0.4012315E+04  0.7818608E-02  0.8002067E-01
         -1   -1    0    0    0  501 -0.00000000000E+00  0.00000000000E+00  0.19007828781E+04  0.19007828781E+04  0.00000000000E+00 0.  1.
          1   -1    0    0  501    0  0.00000000000E+00 -0.00000000000E+00 -0.21173736829E+04  0.21173736829E+04  0.00000000000E+00 0. -1.
         23    2    1    2    0    0 -0.30031013957E+03 -0.12346938592E+04  0.14449476653E+04  0.19264191986E+04  0.92531441127E+02 0.  0.
         11    1    3    3    0    0 -0.21025468753E+03 -0.67048284051E+03  0.80307010260E+03  0.10670875610E+04  0.00000000000E+00 0.  1.
        -11    1    3    3    0    0 -0.90055452034E+02 -0.56421101864E+03  0.64187756270E+03  0.85933163767E+03  0.00000000000E+00 0. -1.
         22    1    1    2    0    0  0.30031013957E+03  0.12346938592E+04 -0.16615384701E+04  0.20917373624E+04  0.00000000000E+00 0. -1.
<mgrwt>
<rscale>  0 0.40123149E+04</rscale>
<asrwt>0</asrwt>
<pdfrwt beam="1">  1        1 0.32574980E+00 0.40123149E+04</pdfrwt>
<pdfrwt beam="2">  1       -1 0.29242814E+00 0.40123149E+04</pdfrwt>
<totfact> 0.71700114E-02</totfact>
</mgrwt>
</event>
<event>
 6    1  0.9906445E-006  0.1350899E+04  0.7818608E-02  0.8990148E-01
          2   -1    0    0  501    0  0.00000000000E+00  0.00000000000E+00  0.22618092616E+04  0.22618092616E+04  0.00000000000E+00 0. -1.
         -2   -1    0    0    0  501 -0.00000000000E+00 -0.00000000000E+00 -0.20171105630E+03  0.20171105630E+03  0.00000000000E+00 0.  1.
         23    2    1    2    0    0 -0.33493928500E+02  0.65217923316E+03  0.74385704162E+03  0.99418359803E+03  0.92833899050E+02 0.  0.
         13    1    3    3    0    0 -0.44919967778E+02  0.49341662920E+03  0.61253504952E+03  0.78783054038E+03  0.00000000000E+00 0.  1.
        -13    1    3    3    0    0  0.11426039277E+02  0.15876260396E+03  0.13132199210E+03  0.20635305765E+03  0.00000000000E+00 0. -1.
         22    1    1    2    0    0  0.33493928500E+02 -0.65217923316E+03  0.13162411637E+04  0.14693367199E+04  0.00000000000E+00 0. -1.
<mgrwt>
<rscale>  0 0.13508989E+04</rscale>
<asrwt>0</asrwt>
<pdfrwt beam="1">  1        2 0.34797064E+00 0.13508989E+04</pdfrwt>
<pdfrwt beam="2">  1       -2 0.31032472E-01 0.13508989E+04</pdfrwt>
<totfact> 0.44895778E+01</totfact>
</mgrwt>
</event>
<event>
 6    1  0.9906445E-006  0.1108649E+04  0.7818608E-02  0.9196803E-01
          1   -1    0    0  501    0  0.00000000000E+00  0.00000000000E+00  0.12779773929E+04  0.12779773929E+04  0.00000000000E+00 0. -1.
         -1   -1    0    0    0  501 -0.00000000000E+00 -0.00000000000E+00 -0.24043911543E+03  0.24043911543E+03  0.00000000000E+00 0.  1.
         23    2    1    2    0    0  0.22812128845E+03  0.51548564801E+02 -0.16020933558E+03  0.29804938270E+03  0.92031660546E+02 0.  0.
         11    1    3    3    0    0  0.21476894609E+03  0.28114958920E+02 -0.16279038430E+03  0.27095545822E+03  0.00000000000E+00 0.  1.
        -11    1    3    3    0    0  0.13352342358E+02  0.23433605881E+02  0.25810487182E+01  0.27093924476E+02  0.00000000000E+00 0. -1.
         22    1    1    2    0    0 -0.22812128845E+03 -0.51548564801E+02  0.11977476131E+04  0.12203671257E+04  0.00000000000E+00 0. -1.
<mgrwt>
<rscale>  0 0.11086492E+04</rscale>
<asrwt>0</asrwt>
<pdfrwt beam="1">  1        1 0.19661190E+00 0.11086492E+04</pdfrwt>
<pdfrwt beam="2">  1       -1 0.36990634E-01 0.11086492E+04</pdfrwt>
<totfact> 0.65571281E+01</totfact>
</mgrwt>
</event>
<event>
 6    1  0.9906445E-006  0.3174574E+04  0.7818608E-02  0.8195565E-01
          2   -1    0    0  501    0  0.00000000000E+00  0.00000000000E+00  0.15744423761E+04  0.15744423761E+04  0.00000000000E+00 0. -1.
         -2   -1    0    0    0  501 -0.00000000000E+00 -0.00000000000E+00 -0.16002364993E+04  0.16002364993E+04  0.00000000000E+00 0.  1.
         23    2    1    2    0    0  0.46392611629E+03 -0.14044938708E+04  0.55947015084E+03  0.15839668509E+04  0.90075859725E+02 0.  0.
         11    1    3    3    0    0  0.11185018207E+03 -0.24218601325E+03  0.11885493325E+03  0.29204626928E+03  0.00000000000E+00 0.  1.
        -11    1    3    3    0    0  0.35207593422E+03 -0.11623078576E+04  0.44061521759E+03  0.12919205816E+04  0.00000000000E+00 0. -1.
         22    1    1    2    0    0 -0.46392611629E+03  0.14044938708E+04 -0.58526427400E+03  0.15907120245E+04  0.00000000000E+00 0.  1.
<mgrwt>
<rscale>  0 0.31745741E+04</rscale>
<asrwt>0</asrwt>
<pdfrwt beam="1">  1        2 0.24222190E+00 0.31745741E+04</pdfrwt>
<pdfrwt beam="2">  1       -2 0.24619023E+00 0.31745741E+04</pdfrwt>
<totfact> 0.65973887E-01</totfact>
</mgrwt>
</event>
<event>
 6    1  0.9906445E-006  0.2851515E+04  0.7818608E-02  0.8287451E-01
         -1   -1    0    0    0  501 -0.00000000000E+00  0.00000000000E+00  0.15727667207E+04  0.15727667207E+04  0.00000000000E+00 0.  1.
          1   -1    0    0  501    0  0.00000000000E+00 -0.00000000000E+00 -0.12924894613E+04  0.12924894613E+04  0.00000000000E+00 0. -1.
         23    2    1    2    0    0 -0.96839778027E+03  0.87176820801E+03 -0.43780940832E+03  0.13774986307E+04  0.89729204837E+02 0.  0.
         11    1    3    3    0    0 -0.78125697979E+03  0.65334313695E+03 -0.34247706519E+03  0.10744813927E+04  0.00000000000E+00 0.  1.
        -11    1    3    3    0    0 -0.18714080047E+03  0.21842507106E+03 -0.95332343125E+02  0.30301723798E+03  0.00000000000E+00 0. -1.
         22    1    1    2    0    0  0.96839778027E+03 -0.87176820801E+03  0.71808666765E+03  0.14877575513E+04  0.00000000000E+00 0.  1.
<mgrwt>
<rscale>  0 0.28515150E+04</rscale>
<asrwt>0</asrwt>
<pdfrwt beam="1">  1        1 0.19884453E+00 0.28515150E+04</pdfrwt>
<pdfrwt beam="2">  1       -1 0.24196411E+00 0.28515150E+04</pdfrwt>
<totfact> 0.62123704E-01</totfact>
</mgrwt>
</event>
<event>
 6    1  0.9906445E-006  0.1678065E+04  0.7818608E-02  0.8773975E-01
          1   -1    0    0  501    0  0.00000000000E+00  0.00000000000E+00  0.79873058547E+03  0.79873058547E+03  0.00000000000E+00 0. -1.
         -1   -1    0    0    0  501 -0.00000000000E+00 -0.00000000000E+00 -0.88136792259E+03  0.88136792259E+03  0.00000000000E+00 0.  1.
         23    2    1    2    0    0 -0.24050841345E+03 -0.46421936108E+03  0.61239421908E+03  0.81037856678E+03  0.91339092308E+02 0.  0.
         13    1    3    3    0    0 -0.50039894710E+02 -0.18130609824E+03  0.18808482959E+03  0.26599209658E+03  0.00000000000E+00 0. -1.
        -13    1    3    3    0    0 -0.19046851875E+03 -0.28291326285E+03  0.42430938948E+03  0.54438647020E+03  0.00000000000E+00 0.  1.
         22    1    1    2    0    0  0.24050841345E+03  0.46421936108E+03 -0.69503155620E+03  0.86971994128E+03  0.00000000000E+00 0.  1.
<mgrwt>
<rscale>  0 0.16780650E+04</rscale>
<asrwt>0</asrwt>
<pdfrwt beam="1">  1        1 0.12288163E+00 0.16780650E+04</pdfrwt>
<pdfrwt beam="2">  1       -1 0.13559507E+00 0.16780650E+04</pdfrwt>
<totfact> 0.96265426E+00</totfact>
</mgrwt>
</event>
<event>
 6    1  0.9906445E-006  0.3942216E+04  0.7818608E-02  0.8016306E-01
          2   -1    0    0  501    0  0.00000000000E+00  0.00000000000E+00  0.34788733247E+04  0.34788733247E+04  0.00000000000E+00 0. -1.
         -2   -1    0    0    0  501 -0.00000000000E+00 -0.00000000000E+00 -0.11168173793E+04  0.11168173793E+04  0.00000000000E+00 0.  1.
         23    2    1    2    0    0 -0.29320189388E+03 -0.13101787123E+04  0.28625294914E+04  0.31628580623E+04  0.84026332858E+02 0.  0.
         13    1    3    3    0    0 -0.66647935661E+02 -0.38508143412E+03  0.91235106523E+03  0.99252915547E+03  0.00000000000E+00 0. -1.
        -13    1    3    3    0    0 -0.22655395821E+03 -0.92509727818E+03  0.19501784261E+04  0.21703289068E+04  0.00000000000E+00 0.  1.
         22    1    1    2    0    0  0.29320189388E+03  0.13101787123E+04 -0.50047354598E+03  0.14328326416E+04  0.00000000000E+00 0.  1.
<mgrwt>
<rscale>  0 0.39422157E+04</rscale>
<asrwt>0</asrwt>
<pdfrwt beam="1">  1        2 0.53521128E+00 0.39422157E+04</pdfrwt>
<pdfrwt beam="2">  1       -2 0.17181806E+00 0.39422157E+04</pdfrwt>
<totfact> 0.13767716E-01</totfact>
</mgrwt>
</event>
<event>
 6    1  0.9906445E-006  0.5499172E+03  0.7818608E-02  0.1001513E+00
         -2   -1    0    0    0  501 -0.00000000000E+00  0.00000000000E+00  0.86151663137E+02  0.86151663137E+02  0.00000000000E+00 0.  1.
          2   -1    0    0  501    0  0.00000000000E+00 -0.00000000000E+00 -0.87754823397E+03  0.87754823397E+03  0.00000000000E+00 0. -1.
         23    2    1    2    0    0  0.19556054379E+03 -0.62826251233E+01 -0.88178941800E+02  0.23376946792E+03  0.92678156479E+02 0.  0.
         11    1    3    3    0    0  0.15571140150E+03 -0.21175304712E+02 -0.10393280940E+03  0.18840505024E+03  0.00000000000E+00 0.  1.
        -11    1    3    3    0    0  0.39849142296E+02  0.14892679589E+02  0.15753867603E+02  0.45364417681E+02  0.00000000000E+00 0. -1.
         22    1    1    2    0    0 -0.19556054379E+03  0.62826251233E+01 -0.70321762903E+03  0.72993042919E+03  0.00000000000E+00 0. -1.
<mgrwt>
<rscale>  0 0.54991723E+03</rscale>
<asrwt>0</asrwt>
<pdfrwt beam="1">  1        2 0.13500741E+00 0.54991723E+03</pdfrwt>
<pdfrwt beam="2">  1       -2 0.13254103E-01 0.54991723E+03</pdfrwt>
<totfact> 0.13175825E+03</totfact>
</mgrwt>
</event>
<event>
 6    1  0.9906445E-006  0.3613610E+04  0.7818608E-02  0.8087381E-01
          1   -1    0    0  501    0  0.00000000000E+00  0.00000000000E+00  0.22967948334E+04  0.22967948334E+04  0.00000000000E+00 0. -1.
         -1   -1    0    0    0  501 -0.00000000000E+00 -0.00000000000E+00 -0.14213480010E+04  0.14213480010E+04  0.00000000000E+00 0.  1.
         23    2    1    2    0    0  0.59926861519E+03 -0.15133547859E+03  0.21836737977E+04  0.22712554536E+04  0.90248437265E+02 0.  0.
         11    1    3    3    0    0  0.55055256887E+03 -0.12017107558E+03  0.19027688884E+04  0.19844592869E+04  0.00000000000E+00 0.  1.
        -11    1    3    3    0    0  0.48716046314E+02 -0.31164403005E+02  0.28090490926E+03  0.28679616669E+03  0.00000000000E+00 0. -1.
         22    1    1    2    0    0 -0.59926861519E+03  0.15133547859E+03 -0.13082269653E+04  0.14468873809E+04  0.00000000000E+00 0.  1.
<mgrwt>
<rscale>  0 0.36136102E+04</rscale>
<asrwt>0</asrwt>
<pdfrwt beam="1">  1        1 0.35335305E+00 0.36136102E+04</pdfrwt>
<pdfrwt beam="2">  1       -1 0.21866892E+00 0.36136102E+04</pdfrwt>
<totfact> 0.16982392E-01</totfact>
</mgrwt>
</event>
<event>
 6    1  0.9906445E-006  0.1461452E+04  0.7818608E-02  0.8910499E-01
         -1   -1    0    0    0  501 -0.00000000000E+00  0.00000000000E+00  0.42773584723E+03  0.42773584723E+03  0.00000000000E+00 0.  1.
          1   -1    0    0  501    0  0.00000000000E+00 -0.00000000000E+00 -0.12483420100E+04  0.12483420100E+04  0.00000000000E+00 0. -1.
         23    2    1    2    0    0 -0.60418205860E+03  0.33577057581E+03 -0.15052395673E+03  0.71337956474E+03  0.92060318905E+02 0.  0.
         11    1    3    3    0    0 -0.35066382239E+03  0.22615578466E+03 -0.53743319575E+02  0.42071356012E+03  0.00000000000E+00 0.  1.
        -11    1    3    3    0    0 -0.25351823621E+03  0.10961479115E+03 -0.96780637159E+02  0.29266600462E+03  0.00000000000E+00 0. -1.
         22    1    1    2    0    0  0.60418205860E+03 -0.33577057581E+03 -0.67008220604E+03  0.96269829249E+03  0.00000000000E+00 0. -1.
<mgrwt>
<rscale>  0 0.14614522E+04</rscale>
<asrwt>0</asrwt>
<pdfrwt beam="1">  1        1 0.19205261E+00 0.14614522E+04</pdfrwt>
<pdfrwt beam="2">  1       -1 0.65805516E-01 0.14614522E+04</pdfrwt>
<totfact> 0.22380780E+01</totfact>
</mgrwt>
</event>
<event>
 6    1  0.9906445E-006  0.1418177E+04  0.7818608E-02  0.8940765E-01
         -2   -1    0    0    0  501 -0.00000000000E+00  0.00000000000E+00  0.15181099756E+03  0.15181099756E+03  0.00000000000E+00 0. -1.
          2   -1    0    0  501    0  0.00000000000E+00 -0.00000000000E+00 -0.33120550136E+04  0.33120550136E+04  0.00000000000E+00 0.  1.
         23    2    1    2    0    0 -0.52401587738E+03  0.13380183110E+01 -0.42975453955E+03  0.68354818559E+03  0.89189280283E+02 0.  0.
         13    1    3    3    0    0 -0.33250260702E+03 -0.41753475467E+02 -0.26345166148E+03  0.42627234760E+03  0.00000000000E+00 0. -1.
        -13    1    3    3    0    0 -0.19151327036E+03  0.43091493778E+02 -0.16630287807E+03  0.25727583799E+03  0.00000000000E+00 0.  1.
         22    1    1    2    0    0  0.52401587738E+03 -0.13380183110E+01 -0.27304894765E+04  0.27803178256E+04  0.00000000000E+00 0.  1.
<mgrwt>
<rscale>  0 0.14181768E+04</rscale>
<asrwt>0</asrwt>
<pdfrwt beam="1">  1        2 0.50954696E+00 0.14181768E+04</pdfrwt>
<pdfrwt beam="2">  1       -2 0.23355537E-01 0.14181768E+04</pdfrwt>
<totfact> 0.17473517E+01</totfact>
</mgrwt>
</event>
<event>
 6    1  0.9906445E-006  0.1631960E+04  0.7818608E-02  0.8801151E-01
          2   -1    0    0  501    0  0.00000000000E+00  0.00000000000E+00  0.80440192536E+03  0.80440192536E+03  0.00000000000E+00 0. -1.
         -2   -1    0    0    0  501 -0.00000000000E+00 -0.00000000000E+00 -0.82772479652E+03  0.82772479652E+03  0.00000000000E+00 0.  1.
         23    2    1    2    0    0 -0.73967402075E+03  0.31356468123E+03  0.11704106712E+03  0.81656403180E+03  0.87394166543E+02 0.  0.
         11    1    3    3    0    0 -0.29436769665E+02  0.16541482494E+02 -0.12287959912E+02  0.35932408911E+02  0.00000000000E+00 0.  1.
        -11    1    3    3    0    0 -0.71023725109E+03  0.29702319873E+03  0.12932902703E+03  0.78063162289E+03  0.00000000000E+00 0. -1.
         22    1    1    2    0    0  0.73967402075E+03 -0.31356468123E+03 -0.14036393828E+03  0.81556269008E+03  0.00000000000E+00 0.  1.
<mgrwt>
<rscale>  0 0.16319601E+04</rscale>
<asrwt>0</asrwt>
<pdfrwt beam="1">  1        2 0.12375414E+00 0.16319601E+04</pdfrwt>
<pdfrwt beam="2">  1       -2 0.12734228E+00 0.16319601E+04</pdfrwt>
<totfact> 0.14965589E+01</totfact>
</mgrwt>
</event>
<event>
 6    1  0.9906445E-006  0.3007237E+04  0.7818608E-02  0.8241667E-01
         -1   -1    0    0    0  501 -0.00000000000E+00  0.00000000000E+00  0.29609429005E+04  0.29609429005E+04  0.00000000000E+00 0.  1.
          1   -1    0    0  501    0  0.00000000000E+00 -0.00000000000E+00 -0.76356358554E+03  0.76356358554E+03  0.00000000000E+00 0. -1.
         23    2    1    2    0    0 -0.36148240607E+03 -0.10631631166E+04 -0.13591877757E+03  0.11350537773E+04  0.94275239179E+02 0.  0.
         13    1    3    3    0    0 -0.13164448568E+03 -0.26384057673E+03 -0.23762981959E+02  0.29581548277E+03  0.00000000000E+00 0. -1.
        -13    1    3    3    0    0 -0.22983792039E+03 -0.79932253990E+03 -0.11215579561E+03  0.83923829449E+03  0.00000000000E+00 0.  1.
         22    1    1    2    0    0  0.36148240607E+03  0.10631631166E+04  0.23332980926E+04  0.25894527088E+04  0.00000000000E+00 0.  1.
<mgrwt>
<rscale>  0 0.30072367E+04</rscale>
<asrwt>0</asrwt>
<pdfrwt beam="1">  1        1 0.11747132E+00 0.30072367E+04</pdfrwt>
<pdfrwt beam="2">  1       -1 0.45552967E+00 0.30072367E+04</pdfrwt>
<totfact> 0.59959812E-02</totfact>
</mgrwt>
</event>
<event>
 6    1  0.9906445E-006  0.2867161E+04  0.7818608E-02  0.8282716E-01
         -2   -1    0    0    0  501 -0.00000000000E+00  0.00000000000E+00  0.11562143365E+04  0.11562143365E+04  0.00000000000E+00 0.  1.
          2   -1    0    0  501    0  0.00000000000E+00 -0.00000000000E+00 -0.17774842761E+04  0.17774842761E+04  0.00000000000E+00 0. -1.
         23    2    1    2    0    0 -0.42120828318E+03 -0.27074679809E+03  0.10619710197E+04  0.11775606984E+04  0.90257992089E+02 0.  0.
         11    1    3    3    0    0 -0.27155329512E+03 -0.12803945961E+03  0.57986369360E+03  0.65297564921E+03  0.00000000000E+00 0.  1.
        -11    1    3    3    0    0 -0.14965498806E+03 -0.14270733847E+03  0.48210732614E+03  0.52458504918E+03  0.00000000000E+00 0. -1.
         22    1    1    2    0    0  0.42120828318E+03  0.27074679809E+03 -0.16832409593E+04  0.17561379142E+04  0.00000000000E+00 0. -1.
<mgrwt>
<rscale>  0 0.28671608E+04</rscale>
<asrwt>0</asrwt>
<pdfrwt beam="1">  1        2 0.27345912E+00 0.28671608E+04</pdfrwt>
<pdfrwt beam="2">  1       -2 0.17787913E+00 0.28671608E+04</pdfrwt>
<totfact> 0.14417975E+00</totfact>
</mgrwt>
</event>
<event>
 6    1  0.9906445E-006  0.1430528E+04  0.7818608E-02  0.8932012E-01
         -1   -1    0    0    0  501 -0.00000000000E+00  0.00000000000E+00  0.21424786098E+03  0.21424786098E+03  0.00000000000E+00 0.  1.
          1   -1    0    0  501    0  0.00000000000E+00 -0.00000000000E+00 -0.23879019548E+04  0.23879019548E+04  0.00000000000E+00 0. -1.
         23    2    1    2    0    0 -0.14057775862E+03 -0.44647110670E+03 -0.11286168407E+03  0.48886708236E+03  0.84585513802E+02 0.  0.
         13    1    3    3    0    0  0.42554936006E+01 -0.47390520666E+02 -0.30169149715E+02  0.56339579953E+02  0.00000000000E+00 0.  1.
        -13    1    3    3    0    0 -0.14483325222E+03 -0.39908058603E+03 -0.82692534356E+02  0.43252750240E+03  0.00000000000E+00 0. -1.
         22    1    1    2    0    0  0.14057775862E+03  0.44647110670E+03 -0.20607924098E+04  0.21132827334E+04  0.00000000000E+00 0. -1.
<mgrwt>
<rscale>  0 0.14305284E+04</rscale>
<asrwt>0</asrwt>
<pdfrwt beam="1">  1        1 0.36736952E+00 0.14305284E+04</pdfrwt>
<pdfrwt beam="2">  1       -1 0.32961210E-01 0.14305284E+04</pdfrwt>
<totfact> 0.13643508E+01</totfact>
</mgrwt>
</event>
<event>
 6    1  0.9906445E-006  0.4209482E+04  0.7818608E-02  0.7963571E-01
          1   -1    0    0  501    0  0.00000000000E+00  0.00000000000E+00  0.28990254094E+04  0.28990254094E+04  0.00000000000E+00 0. -1.
         -1   -1    0    0    0  501 -0.00000000000E+00 -0.00000000000E+00 -0.15280772343E+04  0.15280772343E+04  0.00000000000E+00 0.  1.
         23    2    1    2    0    0  0.85549382420E+03 -0.19438946374E+03 -0.13251213607E+04  0.15918869749E+04  0.92198553467E+02 0.  0.
         11    1    3    3    0    0  0.28942428750E+03 -0.90894983417E+02 -0.39335784690E+03  0.49674813731E+03  0.00000000000E+00 0. -1.
        -11    1    3    3    0    0  0.56606953670E+03 -0.10349448032E+03 -0.93176351384E+03  0.10951388376E+04  0.00000000000E+00 0.  1.
         22    1    1    2    0    0 -0.85549382420E+03  0.19438946374E+03  0.26960695359E+04  0.28352156689E+04  0.00000000000E+00 0. -1.
<mgrwt>
<rscale>  0 0.42094820E+04</rscale>
<asrwt>0</asrwt>
<pdfrwt beam="1">  1        1 0.44600391E+00 0.42094820E+04</pdfrwt>
<pdfrwt beam="2">  1       -1 0.23508881E+00 0.42094820E+04</pdfrwt>
<totfact> 0.47542794E-02</totfact>
</mgrwt>
</event>
<event>
 6    1  0.9906445E-006  0.4135081E+04  0.7818608E-02  0.7977837E-01
         -1   -1    0    0    0  501 -0.00000000000E+00  0.00000000000E+00  0.12679706805E+04  0.12679706805E+04  0.00000000000E+00 0.  1.
          1   -1    0    0  501    0  0.00000000000E+00 -0.00000000000E+00 -0.33713114465E+04  0.33713114465E+04  0.00000000000E+00 0. -1.
         23    2    1    2    0    0  0.12886238557E+04 -0.70762108406E+03 -0.26816162318E+04  0.30595094996E+04  0.90850003935E+02 0.  0.
         11    1    3    3    0    0  0.43937663100E+03 -0.19668613556E+03 -0.84171083707E+03  0.96964652994E+03  0.00000000000E+00 0. -1.
        -11    1    3    3    0    0  0.84924722475E+03 -0.51093494850E+03 -0.18399053947E+04  0.20898629696E+04  0.00000000000E+00 0.  1.
         22    1    1    2    0    0 -0.12886238557E+04  0.70762108406E+03  0.57827546573E+03  0.15797726275E+04  0.00000000000E+00 0.  1.
<mgrwt>
<rscale>  0 0.41350812E+04</rscale>
<asrwt>0</asrwt>
<pdfrwt beam="1">  1        1 0.51866330E+00 0.41350812E+04</pdfrwt>
<pdfrwt beam="2">  1       -1 0.19507241E+00 0.41350812E+04</pdfrwt>
<totfact> 0.39640044E-02</totfact>
</mgrwt>
</event>
<event>
 6    1  0.9906445E-006  0.9833305E+03  0.7818608E-02  0.9327019E-01
         -2   -1    0    0    0  501 -0.00000000000E+00  0.00000000000E+00  0.57798136145E+03  0.57798136145E+03  0.00000000000E+00 0.  1.
          2   -1    0    0  501    0  0.00000000000E+00 -0.00000000000E+00 -0.41823961331E+03  0.41823961331E+03  0.00000000000E+00 0. -1.
         23    2    1    2    0    0 -0.92228497240E+02 -0.28751705737E+03  0.46846771237E+03  0.56438318695E+03  0.88849480561E+02 0.  0.
         13    1    3    3    0    0  0.15267296850E+02 -0.16359261458E+02  0.43868674665E+02  0.49246080102E+02  0.00000000000E+00 0. -1.
        -13    1    3    3    0    0 -0.10749579409E+03 -0.27115779591E+03  0.42459903771E+03  0.51513710685E+03  0.00000000000E+00 0.  1.
         22    1    1    2    0    0  0.92228497240E+02  0.28751705737E+03 -0.30872596424E+03  0.43183778780E+03  0.00000000000E+00 0. -1.
<mgrwt>
<rscale>  0 0.98333047E+03</rscale>
<asrwt>0</asrwt>
<pdfrwt beam="1">  1        2 0.64344556E-01 0.98333047E+03</pdfrwt>
<pdfrwt beam="2">  1       -2 0.88920209E-01 0.98333047E+03</pdfrwt>
<totfact> 0.82137829E+01</totfact>
</mgrwt>
</event>
<event>
 6    1  0.9906445E-006  0.2166645E+04  0.7818608E-02  0.8532441E-01
          1   -1    0    0  501    0  0.00000000000E+00  0.00000000000E+00  0.26597044912E+04  0.26597044912E+04  0.00000000000E+00 0. -1.
         -1   -1    0    0    0  501 -0.00000000000E+00 -0.00000000000E+00 -0.44124725191E+03  0.44124725191E+03  0.00000000000E+00 0.  1.
         23    2    1    2    0    0 -0.90307271487E+03 -0.54167755513E+03  0.14623834008E+04  0.18045711850E+04  0.94641686850E+02 0.  0.
         11    1    3    3    0    0 -0.14870720536E+03 -0.52284755422E+02  0.19928713942E+03  0.25409229133E+03  0.00000000000E+00 0. -1.
        -11    1    3    3    0    0 -0.75436550951E+03 -0.48939279971E+03  0.12630962614E+04  0.15504788937E+04  0.00000000000E+00 0.  1.
         22    1    1    2    0    0  0.90307271487E+03  0.54167755513E+03  0.75607383849E+03  0.12963805581E+04  0.00000000000E+00 0.  1.
<mgrwt>
<rscale>  0 0.21666447E+04</rscale>
<asrwt>0</asrwt>
<pdfrwt beam="1">  1        1 0.40918530E+00 0.21666447E+04</pdfrwt>
<pdfrwt beam="2">  1       -1 0.67884194E-01 0.21666447E+04</pdfrwt>
<totfact> 0.21055980E+00</totfact>
</mgrwt>
</event>
<event>
 6    1  0.9906445E-006  0.1786811E+04  0.7818608E-02  0.8713345E-01
         -2   -1    0    0    0  501 -0.00000000000E+00  0.00000000000E+00  0.11247900858E+04  0.11247900858E+04  0.00000000000E+00 0.  1.
          2   -1    0    0  501    0  0.00000000000E+00 -0.00000000000E+00 -0.70961980750E+03  0.70961980750E+03  0.00000000000E+00 0. -1.
         23    2    1    2    0    0  0.90788725984E+02 -0.23591951555E+03 -0.66907560430E+03  0.72108615579E+03  0.91664983591E+02 0.  0.
         11    1    3    3    0    0  0.42838633894E+02 -0.20128109291E+03 -0.56590626790E+03  0.60216204710E+03  0.00000000000E+00 0.  1.
        -11    1    3    3    0    0  0.47950092089E+02 -0.34638422636E+02 -0.10316933640E+03  0.11892410869E+03  0.00000000000E+00 0. -1.
         22    1    1    2    0    0 -0.90788725984E+02  0.23591951555E+03  0.10842458826E+04  0.11133237375E+04  0.00000000000E+00 0.  1.
<mgrwt>
<rscale>  0 0.17868109E+04</rscale>
<asrwt>0</asrwt>
<pdfrwt beam="1">  1        2 0.10917228E+00 0.17868109E+04</pdfrwt>
<pdfrwt beam="2">  1       -2 0.17304463E+00 0.17868109E+04</pdfrwt>
<totfact> 0.77127336E+00</totfact>
</mgrwt>
</event>
<event>
 6    1  0.9906445E-006  0.7893066E+03  0.7818608E-02  0.9575626E-01
         -1   -1    0    0    0  501 -0.00000000000E+00  0.00000000000E+00  0.22594482363E+03  0.22594482363E+03  0.00000000000E+00 0.  1.
          1   -1    0    0  501    0  0.00000000000E+00 -0.00000000000E+00 -0.68933297676E+03  0.68933297676E+03  0.00000000000E+00 0. -1.
         23    2    1    2    0    0  0.22143625324E+02 -0.26614113024E+03  0.92818232191E+02  0.29827943376E+03  0.95047120059E+02 0.  0.
         13    1    3    3    0    0 -0.16157859946E+02 -0.26810953634E+02  0.38985159306E+02  0.49997463125E+02  0.00000000000E+00 0. -1.
        -13    1    3    3    0    0  0.38301485270E+02 -0.23933017661E+03  0.53833072885E+02  0.24828197064E+03  0.00000000000E+00 0.  1.
         22    1    1    2    0    0 -0.22143625324E+02  0.26614113024E+03 -0.55620638533E+03  0.61699836663E+03  0.00000000000E+00 0. -1.
<mgrwt>
<rscale>  0 0.78930658E+03</rscale>
<asrwt>0</asrwt>
<pdfrwt beam="1">  1        1 0.10605123E+00 0.78930658E+03</pdfrwt>
<pdfrwt beam="2">  1       -1 0.34760742E-01 0.78930658E+03</pdfrwt>
<totfact> 0.22135218E+02</totfact>
</mgrwt>
</event>
<event>
 6    1  0.9906445E-006  0.2530108E+04  0.7818608E-02  0.8392337E-01
         -1   -1    0    0    0  501 -0.00000000000E+00  0.00000000000E+00  0.12919207056E+04  0.12919207056E+04  0.00000000000E+00 0.  1.
          1   -1    0    0  501    0  0.00000000000E+00 -0.00000000000E+00 -0.12387457625E+04  0.12387457625E+04  0.00000000000E+00 0. -1.
         23    2    1    2    0    0 -0.55836232511E+03  0.17744068139E+03 -0.10931519489E+04  0.12432974359E+04  0.86911733120E+02 0.  0.
         11    1    3    3    0    0 -0.42305232825E+03  0.16237673394E+03 -0.78484049282E+03  0.90626380008E+03  0.00000000000E+00 0. -1.
        -11    1    3    3    0    0 -0.13530999686E+03  0.15063947456E+02 -0.30831145605E+03  0.33703363585E+03  0.00000000000E+00 0.  1.
         22    1    1    2    0    0  0.55836232511E+03 -0.17744068139E+03  0.11463268920E+04  0.12873690321E+04  0.00000000000E+00 0.  1.
<mgrwt>
<rscale>  0 0.25301077E+04</rscale>
<asrwt>0</asrwt>
<pdfrwt beam="1">  1        1 0.19057627E+00 0.25301077E+04</pdfrwt>
<pdfrwt beam="2">  1       -1 0.19875703E+00 0.25301077E+04</pdfrwt>
<totfact> 0.13620657E+00</totfact>
</mgrwt>
</event>
<event>
 6    1  0.9906445E-006  0.1221837E+04  0.7818608E-02  0.9093954E-01
         -1   -1    0    0    0  501 -0.00000000000E+00  0.00000000000E+00  0.83623744154E+03  0.83623744154E+03  0.00000000000E+00 0.  1.
          1   -1    0    0  501    0  0.00000000000E+00 -0.00000000000E+00 -0.44631038066E+03  0.44631038066E+03  0.00000000000E+00 0. -1.
         23    2    1    2    0    0 -0.60265860040E+02 -0.58922128728E+03  0.33780412999E+03  0.68796351430E+03  0.91479328258E+02 0.  0.
         13    1    3    3    0    0 -0.25923611622E+01 -0.77881603451E+02  0.82661583067E+02  0.11360106429E+03  0.00000000000E+00 0.  1.
        -13    1    3    3    0    0 -0.57673498878E+02 -0.51133968383E+03  0.25514254692E+03  0.57436245001E+03  0.00000000000E+00 0. -1.
         22    1    1    2    0    0  0.60265860040E+02  0.58922128728E+03  0.52122930886E+02  0.59458430790E+03  0.00000000000E+00 0.  1.
<mgrwt>
<rscale>  0 0.12218371E+04</rscale>
<asrwt>0</asrwt>
<pdfrwt beam="1">  1        1 0.68663136E-01 0.12218371E+04</pdfrwt>
<pdfrwt beam="2">  1       -1 0.12865191E+00 0.12218371E+04</pdfrwt>
<totfact> 0.26648821E+01</totfact>
</mgrwt>
</event>
<event>
 6    1  0.9906445E-006  0.4248858E+04  0.7818608E-02  0.7956143E-01
          2   -1    0    0  501    0  0.00000000000E+00  0.00000000000E+00  0.38475264125E+04  0.38475264125E+04  0.00000000000E+00 0.  1.
         -2   -1    0    0    0  501 -0.00000000000E+00 -0.00000000000E+00 -0.11730129622E+04  0.11730129622E+04  0.00000000000E+00 0. -1.
         23    2    1    2    0    0 -0.11098197267E+04 -0.35553174708E+03  0.34353521714E+04  0.36287857297E+04  0.91316383004E+02 0.  0.
         13    1    3    3    0    0 -0.71374356616E+03 -0.25637174249E+03  0.21235658817E+04  0.22549253651E+04  0.00000000000E+00 0.  1.
        -13    1    3    3    0    0 -0.39607616055E+03 -0.99160004594E+02  0.13117862897E+04  0.13738603646E+04  0.00000000000E+00 0. -1.
         22    1    1    2    0    0  0.11098197267E+04  0.35553174708E+03 -0.76083872102E+03  0.13917536450E+04  0.00000000000E+00 0. -1.
<mgrwt>
<rscale>  0 0.42488579E+04</rscale>
<asrwt>0</asrwt>
<pdfrwt beam="1">  1        2 0.59192714E+00 0.42488579E+04</pdfrwt>
<pdfrwt beam="2">  1       -2 0.18046353E+00 0.42488579E+04</pdfrwt>
<totfact> 0.62650444E-02</totfact>
</mgrwt>
</event>
<event>
 6    1  0.9906445E-006  0.1879357E+04  0.7818608E-02  0.8665200E-01
          2   -1    0    0  501    0  0.00000000000E+00  0.00000000000E+00  0.64189629911E+03  0.64189629911E+03  0.00000000000E+00 0. -1.
         -2   -1    0    0    0  501 -0.00000000000E+00 -0.00000000000E+00 -0.13756048217E+04  0.13756048217E+04  0.00000000000E+00 0.  1.
         23    2    1    2    0    0  0.63195278171E+02  0.72936697533E+03  0.26054913851E+03  0.78278733836E+03  0.94341590120E+02 0.  0.
         11    1    3    3    0    0  0.26500649087E+02  0.53697321978E+03  0.22914969912E+03  0.58442459545E+03  0.00000000000E+00 0.  1.
        -11    1    3    3    0    0  0.36694629083E+02  0.19239375555E+03  0.31399439392E+02  0.19836274291E+03  0.00000000000E+00 0. -1.
         22    1    1    2    0    0 -0.63195278171E+02 -0.72936697533E+03 -0.99425766107E+03  0.12347137824E+04  0.00000000000E+00 0.  1.
<mgrwt>
<rscale>  0 0.18793570E+04</rscale>
<asrwt>0</asrwt>
<pdfrwt beam="1">  1        2 0.98753278E-01 0.18793570E+04</pdfrwt>
<pdfrwt beam="2">  1       -2 0.21163151E+00 0.18793570E+04</pdfrwt>
<totfact> 0.47849881E+00</totfact>
</mgrwt>
</event>
<event>
 6    1  0.1199760E-005  0.3877005E+04  0.7818608E-02  0.8029829E-01
          1   -1    0    0  501    0  0.00000000000E+00  0.00000000000E+00  0.26013219609E+04  0.26013219609E+04  0.00000000000E+00 0. -1.
         -1   -1    0    0    0  501 -0.00000000000E+00 -0.00000000000E+00 -0.14445697656E+04  0.14445697656E+04  0.00000000000E+00 0.  1.
         23    2    1    2    0    0  0.76483408917E+03  0.16732011540E+03 -0.12706682974E+04  0.14953354238E+04  0.91994036301E+02 0.  0.
         13    1    3    3    0    0  0.46036358548E+03  0.55331623434E+02 -0.73021019531E+03  0.86498736911E+03  0.00000000000E+00 0. -1.
        -13    1    3    3    0    0  0.30447050369E+03  0.11198849196E+03 -0.54045810208E+03  0.63034805469E+03  0.00000000000E+00 0.  1.
         22    1    1    2    0    0 -0.76483408917E+03 -0.16732011540E+03  0.24274204926E+04  0.25505563027E+04  0.00000000000E+00 0. -1.
<mgrwt>
<rscale>  0 0.38770045E+04</rscale>
<asrwt>0</asrwt>
<pdfrwt beam="1">  1        1 0.40020338E+00 0.38770045E+04</pdfrwt>
<pdfrwt beam="2">  1       -1 0.22224150E+00 0.38770045E+04</pdfrwt>
<totfact> 0.96764556E-02</totfact>
</mgrwt>
</event>
<event>
 6    1  0.9906445E-006  0.1144956E+04  0.7818608E-02  0.9162449E-01
          1   -1    0    0  501    0  0.00000000000E+00  0.00000000000E+00  0.53566179088E+03  0.53566179088E+03  0.00000000000E+00 0. -1.
         -1   -1    0    0    0  501 -0.00000000000E+00 -0.00000000000E+00 -0.61182485266E+03  0.61182485266E+03  0.00000000000E+00 0.  1.
         23    2    1    2    0    0 -0.22452613293E+03  0.31954437234E+03 -0.45288349507E+03  0.60486442217E+03  0.90757472631E+02 0.  0.
         11    1    3    3    0    0 -0.37495607626E+02  0.90826752005E+02 -0.67296917307E+02  0.11909783604E+03  0.00000000000E+00 0. -1.
        -11    1    3    3    0    0 -0.18703052530E+03  0.22871762033E+03 -0.38558657777E+03  0.48576658613E+03  0.00000000000E+00 0.  1.
         22    1    1    2    0    0  0.22452613293E+03 -0.31954437234E+03  0.37672043330E+03  0.54262222137E+03  0.00000000000E+00 0. -1.
<mgrwt>
<rscale>  0 0.11449562E+04</rscale>
<asrwt>0</asrwt>
<pdfrwt beam="1">  1        1 0.82409506E-01 0.11449562E+04</pdfrwt>
<pdfrwt beam="2">  1       -1 0.94126900E-01 0.11449562E+04</pdfrwt>
<totfact> 0.43755506E+01</totfact>
</mgrwt>
</event>
<event>
 6    1  0.9906445E-006  0.1105984E+04  0.7818608E-02  0.9199379E-01
         -1   -1    0    0    0  501 -0.00000000000E+00  0.00000000000E+00  0.89094336577E+03  0.89094336577E+03  0.00000000000E+00 0.  1.
          1   -1    0    0  501    0  0.00000000000E+00 -0.00000000000E+00 -0.34323211413E+03  0.34323211413E+03  0.00000000000E+00 0. -1.
         23    2    1    2    0    0  0.70802868894E+02  0.39192345741E+03 -0.14636511923E+03  0.43395110430E+03  0.90960266524E+02 0.  0.
         11    1    3    3    0    0  0.81541586980E+02  0.33061966085E+03 -0.95755009594E+02  0.35373353306E+03  0.00000000000E+00 0.  1.
        -11    1    3    3    0    0 -0.10738718087E+02  0.61303796559E+02 -0.50610109637E+02  0.80217571243E+02  0.00000000000E+00 0. -1.
         22    1    1    2    0    0 -0.70802868894E+02 -0.39192345741E+03  0.69407637087E+03  0.80022437560E+03  0.00000000000E+00 0.  1.
<mgrwt>
<rscale>  0 0.11059844E+04</rscale>
<asrwt>0</asrwt>
<pdfrwt beam="1">  1        1 0.52804941E-01 0.11059844E+04</pdfrwt>
<pdfrwt beam="2">  1       -1 0.13706821E+00 0.11059844E+04</pdfrwt>
<totfact> 0.32428660E+01</totfact>
</mgrwt>
</event>
<event>
 6    1  0.9906445E-006  0.2918968E+04  0.7818608E-02  0.8267256E-01
          2   -1    0    0  501    0  0.00000000000E+00  0.00000000000E+00  0.32871367402E+04  0.32871367402E+04  0.00000000000E+00 0. -1.
         -2   -1    0    0    0  501 -0.00000000000E+00 -0.00000000000E+00 -0.64800892671E+03  0.64800892671E+03  0.00000000000E+00 0.  1.
         23    2    1    2    0    0  0.12118052260E+04 -0.21160535997E+03  0.26585172971E+03  0.12620036759E+04  0.93420563047E+02 0.  0.
         11    1    3    3    0    0  0.66418621733E+03 -0.15466008884E+03  0.11990469693E+03  0.69241621206E+03  0.00000000000E+00 0. -1.
        -11    1    3    3    0    0  0.54761900870E+03 -0.56945271124E+02  0.14594703278E+03  0.56958746385E+03  0.00000000000E+00 0.  1.
         22    1    1    2    0    0 -0.12118052260E+04  0.21160535997E+03  0.23732760838E+04  0.26731419910E+04  0.00000000000E+00 0. -1.
<mgrwt>
<rscale>  0 0.29189683E+04</rscale>
<asrwt>0</asrwt>
<pdfrwt beam="1">  1        2 0.50571334E+00 0.29189683E+04</pdfrwt>
<pdfrwt beam="2">  1       -2 0.99693683E-01 0.29189683E+04</pdfrwt>
<totfact> 0.81406150E-01</totfact>
</mgrwt>
</event>
<event>
 6    1  0.9906445E-006  0.1288822E+04  0.7818608E-02  0.9038477E-01
         -1   -1    0    0    0  501 -0.00000000000E+00  0.00000000000E+00  0.30885382710E+03  0.30885382710E+03  0.00000000000E+00 0. -1.
          1   -1    0    0  501    0  0.00000000000E+00 -0.00000000000E+00 -0.13445372440E+04  0.13445372440E+04  0.00000000000E+00 0.  1.
         23    2    1    2    0    0  0.62492353468E+03 -0.10143068075E+03 -0.38999871444E+03  0.74910884625E+03  0.90815522183E+02 0.  0.
         11    1    3    3    0    0  0.20204168842E+03 -0.47121238327E+02 -0.17600268726E+03  0.27206286200E+03  0.00000000000E+00 0.  1.
        -11    1    3    3    0    0  0.42288184626E+03 -0.54309442425E+02 -0.21399602719E+03  0.47704598425E+03  0.00000000000E+00 0. -1.
         22    1    1    2    0    0 -0.62492353468E+03  0.10143068075E+03 -0.64568470243E+03  0.90428222483E+03  0.00000000000E+00 0.  1.
<mgrwt>
<rscale>  0 0.12888219E+04</rscale>
<asrwt>0</asrwt>
<pdfrwt beam="1">  1        1 0.20685189E+00 0.12888219E+04</pdfrwt>
<pdfrwt beam="2">  1       -1 0.47515973E-01 0.12888219E+04</pdfrwt>
<totfact> 0.36548016E+01</totfact>
</mgrwt>
</event>
<event>
 6    1  0.9906445E-006  0.1066207E+04  0.7818608E-02  0.9238769E-01
         -4   -1    0    0    0  501 -0.00000000000E+00  0.00000000000E+00  0.67612499851E+03  0.67612499851E+03  0.00000000000E+00 0.  1.
          4   -1    0    0  501    0  0.00000000000E+00 -0.00000000000E+00 -0.42033564750E+03  0.42033564750E+03  0.00000000000E+00 0. -1.
         23    2    1    2    0    0  0.22091898703E+03  0.43333536634E+03  0.34342516556E+03  0.60222914707E+03  0.90301509921E+02 0.  0.
         13    1    3    3    0    0  0.15541993868E+03  0.28741691037E+03  0.17783622103E+03  0.37200747199E+03  0.00000000000E+00 0. -1.
        -13    1    3    3    0    0  0.65499048345E+02  0.14591845597E+03  0.16558894453E+03  0.23022167508E+03  0.00000000000E+00 0.  1.
         22    1    1    2    0    0 -0.22091898703E+03 -0.43333536634E+03 -0.87635814551E+02  0.49423149894E+03  0.00000000000E+00 0. -1.
<mgrwt>
<rscale>  0 0.10662072E+04</rscale>
<asrwt>0</asrwt>
<pdfrwt beam="1">  1        4 0.64667023E-01 0.10662072E+04</pdfrwt>
<pdfrwt beam="2">  1       -4 0.10401923E+00 0.10662072E+04</pdfrwt>
<totfact> 0.33136820E+00</totfact>
</mgrwt>
</event>
<event>
 6    1  0.9906445E-006  0.2867237E+04  0.7818608E-02  0.8282693E-01
         -2   -1    0    0    0  501 -0.00000000000E+00  0.00000000000E+00  0.87345609509E+03  0.87345609509E+03  0.00000000000E+00 0.  1.
          2   -1    0    0  501    0  0.00000000000E+00 -0.00000000000E+00 -0.23530220752E+04  0.23530220752E+04  0.00000000000E+00 0. -1.
         23    2    1    2    0    0  0.11515853132E+04 -0.60191815663E+03 -0.62738929377E+02  0.13040180036E+04  0.89847534792E+02 0.  0.
         11    1    3    3    0    0  0.80157905395E+03 -0.37165762439E+03 -0.43854754547E+02  0.88463642758E+03  0.00000000000E+00 0. -1.
        -11    1    3    3    0    0  0.35000625926E+03 -0.23026053224E+03 -0.18884174830E+02  0.41938157600E+03  0.00000000000E+00 0.  1.
         22    1    1    2    0    0 -0.11515853132E+04  0.60191815663E+03 -0.14168270507E+04  0.19224601667E+04  0.00000000000E+00 0. -1.
<mgrwt>
<rscale>  0 0.28672366E+04</rscale>
<asrwt>0</asrwt>
<pdfrwt beam="1">  1        2 0.36200339E+00 0.28672366E+04</pdfrwt>
<pdfrwt beam="2">  1       -2 0.13437786E+00 0.28672366E+04</pdfrwt>
<totfact> 0.14608518E+00</totfact>
</mgrwt>
</event>
<event>
 6    1  0.2201359E-005  0.4863287E+04  0.7818608E-02  0.7849950E-01
         -2   -1    0    0    0  501 -0.00000000000E+00  0.00000000000E+00  0.23390642780E+04  0.23390642780E+04  0.00000000000E+00 0.  1.
          2   -1    0    0  501    0  0.00000000000E+00 -0.00000000000E+00 -0.25278867830E+04  0.25278867830E+04  0.00000000000E+00 0. -1.
         23    2    1    2    0    0  0.27187455257E+03  0.38440701141E+03  0.22920891184E+04  0.23417566119E+04  0.92016192552E+02 0.  0.
         11    1    3    3    0    0  0.75153886180E+02  0.13975010103E+03  0.97092942393E+03  0.98381001397E+03  0.00000000000E+00 0. -1.
        -11    1    3    3    0    0  0.19672066639E+03  0.24465691038E+03  0.13211596945E+04  0.13579465979E+04  0.00000000000E+00 0.  1.
         22    1    1    2    0    0 -0.27187455257E+03 -0.38440701141E+03 -0.24809116235E+04  0.25251944492E+04  0.00000000000E+00 0. -1.
<mgrwt>
<rscale>  0 0.48632868E+04</rscale>
<asrwt>0</asrwt>
<pdfrwt beam="1">  1        2 0.38890566E+00 0.48632868E+04</pdfrwt>
<pdfrwt beam="2">  1       -2 0.35985604E+00 0.48632868E+04</pdfrwt>
<totfact> 0.33263861E-02</totfact>
</mgrwt>
</event>
<event>
 6    1  0.9906445E-006  0.1131165E+04  0.7818608E-02  0.9175337E-01
          2   -1    0    0  501    0  0.00000000000E+00  0.00000000000E+00  0.14453168361E+04  0.14453168361E+04  0.00000000000E+00 0. -1.
         -2   -1    0    0    0  501 -0.00000000000E+00 -0.00000000000E+00 -0.22132424654E+03  0.22132424654E+03  0.00000000000E+00 0.  1.
         23    2    1    2    0    0  0.10580340433E+03  0.42268978974E+03  0.93216218256E+02  0.45481757213E+03  0.91152300319E+02 0.  0.
         11    1    3    3    0    0  0.66602233141E+02  0.26806969330E+03  0.13635213610E+02  0.27655584784E+03  0.00000000000E+00 0. -1.
        -11    1    3    3    0    0  0.39201171190E+02  0.15462009644E+03  0.79581004645E+02  0.17826172429E+03  0.00000000000E+00 0.  1.
         22    1    1    2    0    0 -0.10580340433E+03 -0.42268978974E+03  0.11307763713E+04  0.12118235105E+04  0.00000000000E+00 0. -1.
<mgrwt>
<rscale>  0 0.11311652E+04</rscale>
<asrwt>0</asrwt>
<pdfrwt beam="1">  1        2 0.22235643E+00 0.11311652E+04</pdfrwt>
<pdfrwt beam="2">  1       -2 0.34049885E-01 0.11311652E+04</pdfrwt>
<totfact> 0.10900995E+02</totfact>
</mgrwt>
</event>
<event>
 6    1  0.9906445E-006  0.2750036E+04  0.7818608E-02  0.8318950E-01
          1   -1    0    0  501    0  0.00000000000E+00  0.00000000000E+00  0.99051371121E+03  0.99051371121E+03  0.00000000000E+00 0. -1.
         -1   -1    0    0    0  501 -0.00000000000E+00 -0.00000000000E+00 -0.19087818265E+04  0.19087818265E+04  0.00000000000E+00 0.  1.
         23    2    1    2    0    0  0.43716443377E+03  0.11994760124E+04 -0.99205768724E+03  0.16205069127E+04  0.10958445431E+03 0.  0.
         11    1    3    3    0    0  0.17618482785E+03  0.63702731130E+03 -0.53111925800E+03  0.84789890620E+03  0.00000000000E+00 0.  1.
        -11    1    3    3    0    0  0.26097960592E+03  0.56244870114E+03 -0.46093842924E+03  0.77260800648E+03  0.00000000000E+00 0. -1.
         22    1    1    2    0    0 -0.43716443377E+03 -0.11994760124E+04  0.73789571960E+02  0.12787886250E+04  0.00000000000E+00 0. -1.
<mgrwt>
<rscale>  0 0.27500361E+04</rscale>
<asrwt>0</asrwt>
<pdfrwt beam="1">  1        1 0.15238673E+00 0.27500361E+04</pdfrwt>
<pdfrwt beam="2">  1       -1 0.29365874E+00 0.27500361E+04</pdfrwt>
<totfact> 0.48581231E-01</totfact>
</mgrwt>
</event>
<event>
 6    1  0.9906445E-006  0.3093831E+04  0.7818608E-02  0.8217433E-01
         -1   -1    0    0    0  501 -0.00000000000E+00  0.00000000000E+00  0.14156976717E+04  0.14156976717E+04  0.00000000000E+00 0.  1.
          1   -1    0    0  501    0  0.00000000000E+00 -0.00000000000E+00 -0.16902954566E+04  0.16902954566E+04  0.00000000000E+00 0. -1.
         23    2    1    2    0    0  0.14368334259E+04 -0.44958115397E+02  0.43245732561E+03  0.15039823745E+04  0.91826566554E+02 0.  0.
         13    1    3    3    0    0  0.10032780433E+04  0.51895876349E+01  0.32326705108E+03  0.10540850773E+04  0.00000000000E+00 0.  1.
        -13    1    3    3    0    0  0.43355538266E+03 -0.50147703031E+02  0.10919027452E+03  0.44989729717E+03  0.00000000000E+00 0. -1.
         22    1    1    2    0    0 -0.14368334259E+04  0.44958115397E+02 -0.70705511046E+03  0.16020107538E+04  0.00000000000E+00 0. -1.
<mgrwt>
<rscale>  0 0.30938309E+04</rscale>
<asrwt>0</asrwt>
<pdfrwt beam="1">  1        1 0.26004545E+00 0.30938309E+04</pdfrwt>
<pdfrwt beam="2">  1       -1 0.21779964E+00 0.30938309E+04</pdfrwt>
<totfact> 0.46521507E-01</totfact>
</mgrwt>
</event>
<event>
 6    1  0.9906445E-006  0.2929073E+04  0.7818608E-02  0.8264280E-01
          3   -1    0    0  501    0  0.00000000000E+00  0.00000000000E+00  0.12039001744E+04  0.12039001744E+04  0.00000000000E+00 0. -1.
         -3   -1    0    0    0  501 -0.00000000000E+00 -0.00000000000E+00 -0.17815990040E+04  0.17815990040E+04  0.00000000000E+00 0.  1.
         23    2    1    2    0    0 -0.12428911906E+04 -0.25002914229E+03  0.45511526748E+03  0.13502627909E+04  0.93736941681E+02 0.  0.
         13    1    3    3    0    0 -0.10055891592E+04 -0.18034716561E+03  0.39808197987E+03  0.10964506008E+04  0.00000000000E+00 0. -1.
        -13    1    3    3    0    0 -0.23730203136E+03 -0.69681976671E+02  0.57033287609E+02  0.25381219013E+03  0.00000000000E+00 0.  1.
         22    1    1    2    0    0  0.12428911906E+04  0.25002914229E+03 -0.10328140971E+04  0.16352363874E+04  0.00000000000E+00 0.  1.
<mgrwt>
<rscale>  0 0.29290731E+04</rscale>
<asrwt>0</asrwt>
<pdfrwt beam="1">  1        3 0.18521541E+00 0.29290731E+04</pdfrwt>
<pdfrwt beam="2">  1       -3 0.27409215E+00 0.29290731E+04</pdfrwt>
<totfact> 0.21794613E-02</totfact>
</mgrwt>
</event>
<event>
 6    1  0.9906445E-006  0.2256114E+04  0.7818608E-02  0.8495429E-01
          2   -1    0    0  501    0  0.00000000000E+00  0.00000000000E+00  0.12103946789E+04  0.12103946789E+04  0.00000000000E+00 0. -1.
         -2   -1    0    0    0  501 -0.00000000000E+00 -0.00000000000E+00 -0.10513202310E+04  0.10513202310E+04  0.00000000000E+00 0.  1.
         23    2    1    2    0    0 -0.61650031071E+03 -0.49148708918E+03  0.88572934625E+03  0.11894931357E+04  0.93516057747E+02 0.  0.
         11    1    3    3    0    0 -0.34107461615E+03 -0.27840666982E+03  0.56301653933E+03  0.71472357673E+03  0.00000000000E+00 0.  1.
        -11    1    3    3    0    0 -0.27542569457E+03 -0.21308041936E+03  0.32271280692E+03  0.47476955894E+03  0.00000000000E+00 0. -1.
         22    1    1    2    0    0  0.61650031071E+03  0.49148708918E+03 -0.72665489835E+03  0.10722217743E+04  0.00000000000E+00 0.  1.
<mgrwt>
<rscale>  0 0.22561138E+04</rscale>
<asrwt>0</asrwt>
<pdfrwt beam="1">  1        2 0.18621457E+00 0.22561138E+04</pdfrwt>
<pdfrwt beam="2">  1       -2 0.16174157E+00 0.22561138E+04</pdfrwt>
<totfact> 0.41548926E+00</totfact>
</mgrwt>
</event>
<event>
 6    1  0.9906445E-006  0.3140476E+04  0.7818608E-02  0.8204717E-01
          1   -1    0    0  501    0  0.00000000000E+00  0.00000000000E+00  0.19292415358E+04  0.19292415358E+04  0.00000000000E+00 0. -1.
         -1   -1    0    0    0  501 -0.00000000000E+00 -0.00000000000E+00 -0.12780395308E+04  0.12780395308E+04  0.00000000000E+00 0.  1.
         23    2    1    2    0    0  0.32846863781E+03  0.44540727330E+03  0.18251671517E+04  0.19094084030E+04  0.91247095927E+02 0.  0.
         11    1    3    3    0    0  0.77543439069E+02  0.89526591977E+02  0.52738154559E+03  0.54051761326E+03  0.00000000000E+00 0. -1.
        -11    1    3    3    0    0  0.25092519874E+03  0.35588068132E+03  0.12977856061E+04  0.13688907897E+04  0.00000000000E+00 0.  1.
         22    1    1    2    0    0 -0.32846863781E+03 -0.44540727330E+03 -0.11739651467E+04  0.12978726636E+04  0.00000000000E+00 0.  1.
<mgrwt>
<rscale>  0 0.31404757E+04</rscale>
<asrwt>0</asrwt>
<pdfrwt beam="1">  1        1 0.29680639E+00 0.31404757E+04</pdfrwt>
<pdfrwt beam="2">  1       -1 0.19662147E+00 0.31404757E+04</pdfrwt>
<totfact> 0.44459432E-01</totfact>
</mgrwt>
</event>
<event>
 6    1  0.9906445E-006  0.1641924E+04  0.7818608E-02  0.8795198E-01
         -1   -1    0    0    0  501 -0.00000000000E+00  0.00000000000E+00  0.78766678201E+03  0.78766678201E+03  0.00000000000E+00 0.  1.
          1   -1    0    0  501    0  0.00000000000E+00 -0.00000000000E+00 -0.85566488013E+03  0.85566488013E+03  0.00000000000E+00 0. -1.
         23    2    1    2    0    0  0.38862749225E+03 -0.71983756989E+03 -0.56835346269E+02  0.82521060644E+03  0.92438269393E+02 0.  0.
         11    1    3    3    0    0  0.24094568244E+03 -0.49991511698E+03 -0.33632157902E+01  0.55496059076E+03  0.00000000000E+00 0.  1.
        -11    1    3    3    0    0  0.14768180981E+03 -0.21992245291E+03 -0.53472130479E+02  0.27025001569E+03  0.00000000000E+00 0. -1.
         22    1    1    2    0    0 -0.38862749225E+03  0.71983756989E+03 -0.11162751849E+02  0.81812105570E+03  0.00000000000E+00 0. -1.
<mgrwt>
<rscale>  0 0.16419242E+04</rscale>
<asrwt>0</asrwt>
<pdfrwt beam="1">  1        1 0.13164075E+00 0.16419242E+04</pdfrwt>
<pdfrwt beam="2">  1       -1 0.12117950E+00 0.16419242E+04</pdfrwt>
<totfact> 0.11450390E+01</totfact>
</mgrwt>
</event>
<event>
 6    1  0.9906445E-006  0.4207518E+04  0.7818608E-02  0.7963944E-01
          2   -1    0    0  501    0  0.00000000000E+00  0.00000000000E+00  0.16276766284E+04  0.16276766284E+04  0.00000000000E+00 0. -1.
         -2   -1    0    0    0  501 -0.00000000000E+00 -0.00000000000E+00 -0.27190918814E+04  0.27190918814E+04  0.00000000000E+00 0.  1.
         23    2    1    2    0    0 -0.19876094390E+04  0.57070314686E+03 -0.94043999717E+03  0.22733445561E+04  0.85876183323E+02 0.  0.
         11    1    3    3    0    0 -0.91807788326E+03  0.30660001918E+03 -0.45228620094E+03  0.10683788556E+04  0.00000000000E+00 0. -1.
        -11    1    3    3    0    0 -0.10695315557E+04  0.26410312768E+03 -0.48815379623E+03  0.12049657005E+04  0.00000000000E+00 0.  1.
         22    1    1    2    0    0  0.19876094390E+04 -0.57070314686E+03 -0.15097525580E+03  0.20734239536E+04  0.00000000000E+00 0. -1.
<mgrwt>
<rscale>  0 0.42075182E+04</rscale>
<asrwt>0</asrwt>
<pdfrwt beam="1">  1        2 0.25041179E+00 0.42075182E+04</pdfrwt>
<pdfrwt beam="2">  1       -2 0.41832182E+00 0.42075182E+04</pdfrwt>
<totfact> 0.46953674E-02</totfact>
</mgrwt>
</event>
<event>
 6    1  0.9906445E-006  0.4901917E+03  0.7818608E-02  0.1016371E+00
          1   -1    0    0  501    0  0.00000000000E+00  0.00000000000E+00  0.67657915843E+03  0.67657915843E+03  0.00000000000E+00 0. -1.
         -1   -1    0    0    0  501 -0.00000000000E+00 -0.00000000000E+00 -0.88787782911E+02  0.88787782911E+02  0.00000000000E+00 0.  1.
         23    2    1    2    0    0 -0.17306322087E+02 -0.22073258669E+03  0.43449420084E+03  0.49606709475E+03  0.90966852830E+02 0.  0.
         11    1    3    3    0    0  0.37271419412E+02 -0.10481305758E+03  0.20129999233E+03  0.22999265783E+03  0.00000000000E+00 0. -1.
        -11    1    3    3    0    0 -0.54577741499E+02 -0.11591952912E+03  0.23319420852E+03  0.26607443692E+03  0.00000000000E+00 0.  1.
         22    1    1    2    0    0  0.17306322087E+02  0.22073258669E+03  0.15329717467E+03  0.26929984659E+03  0.00000000000E+00 0.  1.
<mgrwt>
<rscale>  0 0.49019165E+03</rscale>
<asrwt>0</asrwt>
<pdfrwt beam="1">  1        1 0.10408910E+00 0.49019165E+03</pdfrwt>
<pdfrwt beam="2">  1       -1 0.13659659E-01 0.49019165E+03</pdfrwt>
<totfact> 0.11052859E+03</totfact>
</mgrwt>
</event>
<event>
 6    1  0.9906445E-006  0.9128622E+03  0.7818608E-02  0.9409644E-01
          1   -1    0    0  501    0  0.00000000000E+00  0.00000000000E+00  0.25512129064E+03  0.25512129064E+03  0.00000000000E+00 0. -1.
         -1   -1    0    0    0  501 -0.00000000000E+00 -0.00000000000E+00 -0.81658941469E+03  0.81658941469E+03  0.00000000000E+00 0.  1.
         23    2    1    2    0    0 -0.79876040611E+02 -0.16795896429E+02 -0.80532893477E+03  0.81455242915E+03  0.90987266442E+02 0.  0.
         13    1    3    3    0    0  0.10099381138E+02  0.16723246922E+02 -0.26808801218E+03  0.26879889650E+03  0.00000000000E+00 0.  1.
        -13    1    3    3    0    0 -0.89975421749E+02 -0.33519143351E+02 -0.53724092260E+03  0.54575353265E+03  0.00000000000E+00 0. -1.
         22    1    1    2    0    0  0.79876040611E+02  0.16795896429E+02  0.24386081073E+03  0.25715827618E+03  0.00000000000E+00 0. -1.
<mgrwt>
<rscale>  0 0.91286219E+03</rscale>
<asrwt>0</asrwt>
<pdfrwt beam="1">  1        1 0.39249429E-01 0.91286219E+03</pdfrwt>
<pdfrwt beam="2">  1       -1 0.12562914E+00 0.91286219E+03</pdfrwt>
<totfact> 0.60324790E+01</totfact>
</mgrwt>
</event>
<event>
 6    1  0.9906445E-006  0.3535822E+04  0.7818608E-02  0.8105353E-01
          1   -1    0    0  501    0  0.00000000000E+00  0.00000000000E+00  0.22854259084E+04  0.22854259084E+04  0.00000000000E+00 0. -1.
         -1   -1    0    0    0  501 -0.00000000000E+00 -0.00000000000E+00 -0.13675829367E+04  0.13675829367E+04  0.00000000000E+00 0.  1.
         23    2    1    2    0    0 -0.71650099156E+03  0.15841576914E+04  0.13466179031E+03  0.17460998214E+04  0.88326249557E+02 0.  0.
         13    1    3    3    0    0 -0.35505293057E+03  0.69086272024E+03  0.39486283657E+02  0.77776156264E+03  0.00000000000E+00 0. -1.
        -13    1    3    3    0    0 -0.36144806099E+03  0.89329497112E+03  0.95175506648E+02  0.96833825871E+03  0.00000000000E+00 0.  1.
         22    1    1    2    0    0  0.71650099156E+03 -0.15841576914E+04  0.78318118142E+03  0.19069090238E+04  0.00000000000E+00 0. -1.
<mgrwt>
<rscale>  0 0.35358221E+04</rscale>
<asrwt>0</asrwt>
<pdfrwt beam="1">  1        1 0.35160399E+00 0.35358221E+04</pdfrwt>
<pdfrwt beam="2">  1       -1 0.21039737E+00 0.35358221E+04</pdfrwt>
<totfact> 0.19791832E-01</totfact>
</mgrwt>
</event>
<event>
 6    1  0.9906445E-006  0.2114859E+04  0.7818608E-02  0.8554726E-01
         -2   -1    0    0    0  501 -0.00000000000E+00  0.00000000000E+00  0.63044400346E+03  0.63044400346E+03  0.00000000000E+00 0.  1.
          2   -1    0    0  501    0  0.00000000000E+00 -0.00000000000E+00 -0.17736018702E+04  0.17736018702E+04  0.00000000000E+00 0. -1.
         23    2    1    2    0    0  0.65463034645E+03 -0.80266683872E+03 -0.80205259483E+03  0.13135561896E+04  0.96574084769E+02 0.  0.
         13    1    3    3    0    0  0.34535514675E+03 -0.34744058916E+03 -0.38272011555E+03  0.62165893159E+03  0.00000000000E+00 0.  1.
        -13    1    3    3    0    0  0.30927519971E+03 -0.45522624956E+03 -0.41933247928E+03  0.69189725800E+03  0.00000000000E+00 0. -1.
         22    1    1    2    0    0 -0.65463034645E+03  0.80266683872E+03 -0.34110527187E+03  0.10904896840E+04  0.00000000000E+00 0.  1.
<mgrwt>
<rscale>  0 0.21148585E+04</rscale>
<asrwt>0</asrwt>
<pdfrwt beam="1">  1        2 0.27286183E+00 0.21148585E+04</pdfrwt>
<pdfrwt beam="2">  1       -2 0.96991384E-01 0.21148585E+04</pdfrwt>
<totfact> 0.72928316E+00</totfact>
</mgrwt>
</event>
<event>
 6    1  0.9906445E-006  0.2019558E+04  0.7818608E-02  0.8597531E-01
         -2   -1    0    0    0  501 -0.00000000000E+00  0.00000000000E+00  0.14903792879E+04  0.14903792879E+04  0.00000000000E+00 0.  1.
          2   -1    0    0  501    0  0.00000000000E+00 -0.00000000000E+00 -0.68415744121E+03  0.68415744121E+03  0.00000000000E+00 0. -1.
         23    2    1    2    0    0 -0.52511116829E+03  0.20105047154E+03 -0.49650028430E+03  0.75564702877E+03  0.91251677282E+02 0.  0.
         11    1    3    3    0    0 -0.27835810267E+03  0.13892956205E+03 -0.22781654035E+03  0.38559698208E+03  0.00000000000E+00 0. -1.
        -11    1    3    3    0    0 -0.24675306562E+03  0.62120909485E+02 -0.26868374395E+03  0.37005004669E+03  0.00000000000E+00 0.  1.
         22    1    1    2    0    0  0.52511116829E+03 -0.20105047154E+03  0.13027221310E+04  0.14188897004E+04  0.00000000000E+00 0.  1.
<mgrwt>
<rscale>  0 0.20195584E+04</rscale>
<asrwt>0</asrwt>
<pdfrwt beam="1">  1        2 0.10525499E+00 0.20195584E+04</pdfrwt>
<pdfrwt beam="2">  1       -2 0.22928912E+00 0.20195584E+04</pdfrwt>
<totfact> 0.33778214E+00</totfact>
</mgrwt>
</event>
<event>
 6    1  0.9906445E-006  0.2718851E+04  0.7818608E-02  0.8328914E-01
         -2   -1    0    0    0  501 -0.00000000000E+00  0.00000000000E+00  0.10362884496E+04  0.10362884496E+04  0.00000000000E+00 0.  1.
          2   -1    0    0  501    0  0.00000000000E+00 -0.00000000000E+00 -0.17833230248E+04  0.17833230248E+04  0.00000000000E+00 0. -1.
         23    2    1    2    0    0  0.79805109157E+03 -0.54426859437E+02  0.76360327640E+03  0.11102623157E+04  0.98714832729E+02 0.  0.
         13    1    3    3    0    0  0.13023086810E+03 -0.22320013385E+02  0.17654518579E+03  0.22051409168E+03  0.00000000000E+00 0. -1.
        -13    1    3    3    0    0  0.66782022347E+03 -0.32106846052E+02  0.58705809062E+03  0.88974822405E+03  0.00000000000E+00 0.  1.
         22    1    1    2    0    0 -0.79805109157E+03  0.54426859437E+02 -0.15106378516E+04  0.17093491587E+04  0.00000000000E+00 0. -1.
<mgrwt>
<rscale>  0 0.27188505E+04</rscale>
<asrwt>0</asrwt>
<pdfrwt beam="1">  1        2 0.27435739E+00 0.27188505E+04</pdfrwt>
<pdfrwt beam="2">  1       -2 0.15942899E+00 0.27188505E+04</pdfrwt>
<totfact> 0.19642519E+00</totfact>
</mgrwt>
</event>
<event>
 6    1  0.9906445E-006  0.1960899E+04  0.7818608E-02  0.8625123E-01
         -2   -1    0    0    0  501 -0.00000000000E+00  0.00000000000E+00  0.31763470557E+03  0.31763470557E+03  0.00000000000E+00 0.  1.
          2   -1    0    0  501    0  0.00000000000E+00 -0.00000000000E+00 -0.30263729181E+04  0.30263729181E+04  0.00000000000E+00 0. -1.
         23    2    1    2    0    0  0.95171759609E+03  0.11623293787E+03 -0.16901017549E+04  0.19451163801E+04  0.88075601588E+02 0.  0.
         13    1    3    3    0    0  0.47135241706E+03  0.35413046572E+02 -0.75535161363E+03  0.89105737478E+03  0.00000000000E+00 0.  1.
        -13    1    3    3    0    0  0.48036517903E+03  0.80819891303E+02 -0.93475014129E+03  0.10540590053E+04  0.00000000000E+00 0. -1.
         22    1    1    2    0    0 -0.95171759609E+03 -0.11623293787E+03 -0.10186364576E+04  0.13988912436E+04  0.00000000000E+00 0. -1.
<mgrwt>
<rscale>  0 0.19608988E+04</rscale>
<asrwt>0</asrwt>
<pdfrwt beam="1">  1        2 0.46559585E+00 0.19608988E+04</pdfrwt>
<pdfrwt beam="2">  1       -2 0.48866876E-01 0.19608988E+04</pdfrwt>
<totfact> 0.62108945E+00</totfact>
</mgrwt>
</event>
<event>
 6    1  0.9906445E-006  0.9826470E+03  0.7818608E-02  0.9327785E-01
          2   -1    0    0  501    0  0.00000000000E+00  0.00000000000E+00  0.11260883136E+04  0.11260883136E+04  0.00000000000E+00 0. -1.
         -2   -1    0    0    0  501 -0.00000000000E+00 -0.00000000000E+00 -0.21436931979E+03  0.21436931979E+03  0.00000000000E+00 0.  1.
         23    2    1    2    0    0 -0.35591129438E+03  0.32591248638E+03  0.55223343428E+03  0.73869217596E+03  0.88388724670E+02 0.  0.
         11    1    3    3    0    0 -0.30902186023E+03  0.24295233539E+03  0.47091496166E+03  0.61341767865E+03  0.00000000000E+00 0. -1.
        -11    1    3    3    0    0 -0.46889434147E+02  0.82960150985E+02  0.81318472625E+02  0.12527449731E+03  0.00000000000E+00 0.  1.
         22    1    1    2    0    0  0.35591129438E+03 -0.32591248638E+03  0.35948555950E+03  0.60176545741E+03  0.00000000000E+00 0. -1.
<mgrwt>
<rscale>  0 0.98264701E+03</rscale>
<asrwt>0</asrwt>
<pdfrwt beam="1">  1        2 0.17324435E+00 0.98264701E+03</pdfrwt>
<pdfrwt beam="2">  1       -2 0.32979896E-01 0.98264701E+03</pdfrwt>
<totfact> 0.17975298E+02</totfact>
</mgrwt>
</event>
<event>
 6    1  0.9906445E-006  0.9418388E+03  0.7818608E-02  0.9374741E-01
         -2   -1    0    0    0  501 -0.00000000000E+00  0.00000000000E+00  0.13009003364E+03  0.13009003364E+03  0.00000000000E+00 0.  1.
          2   -1    0    0  501    0  0.00000000000E+00 -0.00000000000E+00 -0.17047047348E+04  0.17047047348E+04  0.00000000000E+00 0. -1.
         23    2    1    2    0    0 -0.18563084164E+03 -0.22515341045E+03 -0.84026195285E+02  0.31591130962E+03  0.87101586927E+02 0.  0.
         13    1    3    3    0    0 -0.18323028223E+03 -0.18787406054E+03 -0.53872523982E+02  0.26790342997E+03  0.00000000000E+00 0. -1.
        -13    1    3    3    0    0 -0.24005594108E+01 -0.37279349917E+02 -0.30153671303E+02  0.48007879653E+02  0.00000000000E+00 0.  1.
         22    1    1    2    0    0  0.18563084164E+03  0.22515341045E+03 -0.14905885059E+04  0.15188834588E+04  0.00000000000E+00 0. -1.
<mgrwt>
<rscale>  0 0.94183883E+03</rscale>
<asrwt>0</asrwt>
<pdfrwt beam="1">  1        2 0.26226226E+00 0.94183883E+03</pdfrwt>
<pdfrwt beam="2">  1       -2 0.20013852E-01 0.94183883E+03</pdfrwt>
<totfact> 0.20859319E+02</totfact>
</mgrwt>
</event>
<event>
 6    1  0.9906445E-006  0.1920715E+04  0.7818608E-02  0.8644614E-01
         -1   -1    0    0    0  501 -0.00000000000E+00  0.00000000000E+00  0.48432130862E+03  0.48432130862E+03  0.00000000000E+00 0.  1.
          1   -1    0    0  501    0  0.00000000000E+00 -0.00000000000E+00 -0.19042856926E+04  0.19042856926E+04  0.00000000000E+00 0. -1.
         23    2    1    2    0    0  0.58732862697E+03  0.16385385431E+03  0.20763207316E+03  0.65054105629E+03  0.91047166305E+02 0.  0.
         13    1    3    3    0    0  0.37826905528E+03  0.12862894622E+03  0.17440284216E+03  0.43594636751E+03  0.00000000000E+00 0. -1.
        -13    1    3    3    0    0  0.20905957168E+03  0.35224908088E+02  0.33229231006E+02  0.21459468879E+03  0.00000000000E+00 0.  1.
         22    1    1    2    0    0 -0.58732862697E+03 -0.16385385431E+03 -0.16275964571E+04  0.17380659449E+04  0.00000000000E+00 0. -1.
<mgrwt>
<rscale>  0 0.19207146E+04</rscale>
<asrwt>0</asrwt>
<pdfrwt beam="1">  1        1 0.29296703E+00 0.19207146E+04</pdfrwt>
<pdfrwt beam="2">  1       -1 0.74510970E-01 0.19207146E+04</pdfrwt>
<totfact> 0.58583793E+00</totfact>
</mgrwt>
</event>
<event>
 6    1  0.9906445E-006  0.3283863E+04  0.7818608E-02  0.8167014E-01
          2   -1    0    0  501    0  0.00000000000E+00  0.00000000000E+00  0.20721297872E+04  0.20721297872E+04  0.00000000000E+00 0. -1.
         -2   -1    0    0    0  501 -0.00000000000E+00 -0.00000000000E+00 -0.13010473916E+04  0.13010473916E+04  0.00000000000E+00 0.  1.
         23    2    1    2    0    0  0.15492894161E+04 -0.96443082102E+02  0.93170901661E+03  0.18126004026E+04  0.88541316385E+02 0.  0.
         11    1    3    3    0    0  0.14004307657E+04 -0.10764234246E+03  0.82283681293E+03  0.16278371000E+04  0.00000000000E+00 0.  1.
        -11    1    3    3    0    0  0.14885865046E+03  0.11199260360E+02  0.10887220369E+03  0.18476330260E+03  0.00000000000E+00 0. -1.
         22    1    1    2    0    0 -0.15492894161E+04  0.96443082102E+02 -0.16062662104E+03  0.15605767762E+04  0.00000000000E+00 0.  1.
<mgrwt>
<rscale>  0 0.32838630E+04</rscale>
<asrwt>0</asrwt>
<pdfrwt beam="1">  1        2 0.31878920E+00 0.32838630E+04</pdfrwt>
<pdfrwt beam="2">  1       -2 0.20016114E+00 0.32838630E+04</pdfrwt>
<totfact> 0.67581504E-01</totfact>
</mgrwt>
</event>
<event>
 6    1  0.9906445E-006  0.5217417E+04  0.7818608E-02  0.7795817E-01
         -2   -1    0    0    0  501 -0.00000000000E+00  0.00000000000E+00  0.19726514641E+04  0.19726514641E+04  0.00000000000E+00 0.  1.
          2   -1    0    0  501    0  0.00000000000E+00 -0.00000000000E+00 -0.34498546714E+04  0.34498546714E+04  0.00000000000E+00 0. -1.
         23    2    1    2    0    0 -0.13114145196E+04  0.21907728329E+04 -0.12914369159E+04  0.28624665337E+04  0.81312366903E+02 0.  0.
         11    1    3    3    0    0 -0.37118768572E+03  0.56328158532E+03 -0.36452690025E+03  0.76677656681E+03  0.00000000000E+00 0.  1.
        -11    1    3    3    0    0 -0.94022683387E+03  0.16274912476E+04 -0.92691001566E+03  0.20956899669E+04  0.00000000000E+00 0. -1.
         22    1    1    2    0    0  0.13114145196E+04 -0.21907728329E+04 -0.18576629141E+03  0.25600396018E+04  0.00000000000E+00 0.  1.
<mgrwt>
<rscale>  0 0.52174173E+04</rscale>
<asrwt>0</asrwt>
<pdfrwt beam="1">  1        2 0.53074686E+00 0.52174173E+04</pdfrwt>
<pdfrwt beam="2">  1       -2 0.30348485E+00 0.52174173E+04</pdfrwt>
<totfact> 0.19042478E-02</totfact>
</mgrwt>
</event>
<event>
 6    1  0.9906445E-006  0.2144529E+04  0.7818608E-02  0.8541878E-01
         -2   -1    0    0    0  501 -0.00000000000E+00  0.00000000000E+00  0.92524668800E+03  0.92524668800E+03  0.00000000000E+00 0.  1.
          2   -1    0    0  501    0  0.00000000000E+00 -0.00000000000E+00 -0.12426422857E+04  0.12426422857E+04  0.00000000000E+00 0. -1.
         23    2    1    2    0    0  0.17328036137E+03 -0.83519834700E+03  0.49429721864E+03  0.99042237520E+03  0.94996728799E+02 0.  0.
         13    1    3    3    0    0  0.13583970823E+03 -0.57457889555E+03  0.38790411640E+03  0.70644386688E+03  0.00000000000E+00 0. -1.
        -13    1    3    3    0    0  0.37440653149E+02 -0.26061945145E+03  0.10639310224E+03  0.28397850832E+03  0.00000000000E+00 0.  1.
         22    1    1    2    0    0 -0.17328036137E+03  0.83519834700E+03 -0.81169281629E+03  0.11774665985E+04  0.00000000000E+00 0. -1.
<mgrwt>
<rscale>  0 0.21445285E+04</rscale>
<asrwt>0</asrwt>
<pdfrwt beam="1">  1        2 0.19117574E+00 0.21445285E+04</pdfrwt>
<pdfrwt beam="2">  1       -2 0.14234564E+00 0.21445285E+04</pdfrwt>
<totfact> 0.56427376E+00</totfact>
</mgrwt>
</event>
<event>
 6    1  0.9906445E-006  0.3482590E+04  0.7818608E-02  0.8117928E-01
          2   -1    0    0  501    0  0.00000000000E+00  0.00000000000E+00  0.30324265507E+04  0.30324265507E+04  0.00000000000E+00 0. -1.
         -2   -1    0    0    0  501 -0.00000000000E+00 -0.00000000000E+00 -0.99989522231E+03  0.99989522231E+03  0.00000000000E+00 0.  1.
         23    2    1    2    0    0 -0.25754058134E+03  0.68976819699E+03  0.28424463234E+04  0.29377581085E+04  0.93884428941E+02 0.  0.
         13    1    3    3    0    0 -0.21095150912E+03  0.50866375146E+03  0.22551321376E+04  0.23213918905E+04  0.00000000000E+00 0. -1.
        -13    1    3    3    0    0 -0.46589072221E+02  0.18110444553E+03  0.58731418580E+03  0.61636621799E+03  0.00000000000E+00 0.  1.
         22    1    1    2    0    0  0.25754058134E+03 -0.68976819699E+03 -0.80991499499E+03  0.10945636645E+04  0.00000000000E+00 0.  1.
<mgrwt>
<rscale>  0 0.34825903E+04</rscale>
<asrwt>0</asrwt>
<pdfrwt beam="1">  1        2 0.46652716E+00 0.34825903E+04</pdfrwt>
<pdfrwt beam="2">  1       -2 0.15383004E+00 0.34825903E+04</pdfrwt>
<totfact> 0.38267514E-01</totfact>
</mgrwt>
</event>
<event>
 6    1  0.9906445E-006  0.1172709E+04  0.7818608E-02  0.9137085E-01
          2   -1    0    0  501    0  0.00000000000E+00  0.00000000000E+00  0.18877843245E+04  0.18877843245E+04  0.00000000000E+00 0. -1.
         -2   -1    0    0    0  501 -0.00000000000E+00 -0.00000000000E+00 -0.18212448934E+03  0.18212448934E+03  0.00000000000E+00 0.  1.
         23    2    1    2    0    0 -0.41900750389E+02 -0.47021735279E+03  0.14616238545E+04  0.15384828156E+04  0.87892263789E+02 0.  0.
         11    1    3    3    0    0 -0.41521224374E+02 -0.26127435226E+03  0.68710820334E+03  0.73627846792E+03  0.00000000000E+00 0. -1.
        -11    1    3    3    0    0 -0.37952601531E+00 -0.20894300053E+03  0.77451565118E+03  0.80220434768E+03  0.00000000000E+00 0.  1.
         22    1    1    2    0    0  0.41900750389E+02  0.47021735279E+03  0.24403598063E+03  0.53142599823E+03  0.00000000000E+00 0.  1.
<mgrwt>
<rscale>  0 0.11727093E+04</rscale>
<asrwt>0</asrwt>
<pdfrwt beam="1">  1        2 0.29042834E+00 0.11727093E+04</pdfrwt>
<pdfrwt beam="2">  1       -2 0.28019154E-01 0.11727093E+04</pdfrwt>
<totfact> 0.88830349E+01</totfact>
</mgrwt>
</event>
<event>
 6    1  0.9906445E-006  0.3636338E+04  0.7818608E-02  0.8082218E-01
          1   -1    0    0  501    0  0.00000000000E+00  0.00000000000E+00  0.18320082210E+04  0.18320082210E+04  0.00000000000E+00 0. -1.
         -1   -1    0    0    0  501 -0.00000000000E+00 -0.00000000000E+00 -0.18044347748E+04  0.18044347748E+04  0.00000000000E+00 0.  1.
         23    2    1    2    0    0 -0.11480107271E+04  0.52953162919E+03 -0.12913624311E+04  0.18094443027E+04  0.90218512850E+02 0.  0.
         11    1    3    3    0    0 -0.77763473705E+03  0.40178996990E+03 -0.91240297098E+03  0.12643694656E+04  0.00000000000E+00 0. -1.
        -11    1    3    3    0    0 -0.37037599006E+03  0.12774165929E+03 -0.37895946016E+03  0.54507483704E+03  0.00000000000E+00 0.  1.
         22    1    1    2    0    0  0.11480107271E+04 -0.52953162919E+03  0.13189358773E+04  0.18269986930E+04  0.00000000000E+00 0. -1.
<mgrwt>
<rscale>  0 0.36363385E+04</rscale>
<asrwt>0</asrwt>
<pdfrwt beam="1">  1        1 0.28184742E+00 0.36363385E+04</pdfrwt>
<pdfrwt beam="2">  1       -1 0.27760535E+00 0.36363385E+04</pdfrwt>
<totfact> 0.14416464E-01</totfact>
</mgrwt>
</event>
<event>
 6    1  0.9906445E-006  0.1987332E+04  0.7818608E-02  0.8612567E-01
          2   -1    0    0  501    0  0.00000000000E+00  0.00000000000E+00  0.13903629427E+04  0.13903629427E+04  0.00000000000E+00 0. -1.
         -2   -1    0    0    0  501 -0.00000000000E+00 -0.00000000000E+00 -0.71015390856E+03  0.71015390856E+03  0.00000000000E+00 0.  1.
         23    2    1    2    0    0  0.25163826591E+03 -0.59217486786E+03 -0.45649928166E+03  0.79433972461E+03  0.92688256760E+02 0.  0.
         11    1    3    3    0    0  0.15762049812E+03 -0.46530286939E+03 -0.36286602335E+03  0.61075586988E+03  0.00000000000E+00 0. -1.
        -11    1    3    3    0    0  0.94017767785E+02 -0.12687199847E+03 -0.93633258304E+02  0.18358385472E+03  0.00000000000E+00 0.  1.
         22    1    1    2    0    0 -0.25163826591E+03  0.59217486786E+03  0.11367083158E+04  0.13061771266E+04  0.00000000000E+00 0. -1.
<mgrwt>
<rscale>  0 0.19873316E+04</rscale>
<asrwt>0</asrwt>
<pdfrwt beam="1">  1        2 0.21390199E+00 0.19873316E+04</pdfrwt>
<pdfrwt beam="2">  1       -2 0.10925445E+00 0.19873316E+04</pdfrwt>
<totfact> 0.91055670E+00</totfact>
</mgrwt>
</event>
<event>
 6    1  0.9906445E-006  0.8432948E+03  0.7818608E-02  0.9499381E-01
          1   -1    0    0  501    0  0.00000000000E+00  0.00000000000E+00  0.64742967133E+03  0.64742967133E+03  0.00000000000E+00 0. -1.
         -1   -1    0    0    0  501 -0.00000000000E+00 -0.00000000000E+00 -0.27460359575E+03  0.27460359575E+03  0.00000000000E+00 0.  1.
         23    2    1    2    0    0  0.19305539771E+03  0.13417372293E+03  0.56490100412E+03  0.61844513706E+03  0.89934801845E+02 0.  0.
         11    1    3    3    0    0  0.25015501499E+02  0.36722734329E+02  0.20195404195E+03  0.20678435529E+03  0.00000000000E+00 0.  1.
        -11    1    3    3    0    0  0.16803989621E+03  0.97450988599E+02  0.36294696218E+03  0.41166078177E+03  0.00000000000E+00 0. -1.
         22    1    1    2    0    0 -0.19305539771E+03 -0.13417372293E+03 -0.19207492855E+03  0.30358813002E+03  0.00000000000E+00 0.  1.
<mgrwt>
<rscale>  0 0.84329477E+03</rscale>
<asrwt>0</asrwt>
<pdfrwt beam="1">  1        1 0.99604564E-01 0.84329477E+03</pdfrwt>
<pdfrwt beam="2">  1       -1 0.42246707E-01 0.84329477E+03</pdfrwt>
<totfact> 0.17031132E+02</totfact>
</mgrwt>
</event>
<event>
 6    1  0.9906445E-006  0.2286190E+04  0.7818608E-02  0.8483386E-01
          2   -1    0    0  501    0  0.00000000000E+00  0.00000000000E+00  0.15396224545E+04  0.15396224545E+04  0.00000000000E+00 0. -1.
         -2   -1    0    0    0  501 -0.00000000000E+00 -0.00000000000E+00 -0.84869289065E+03  0.84869289065E+03  0.00000000000E+00 0.  1.
         23    2    1    2    0    0  0.51916629326E+03  0.91145487959E+03  0.81579865254E+03  0.13319650590E+04  0.91213153735E+02 0.  0.
         11    1    3    3    0    0  0.19570197742E+03  0.33109514186E+03  0.24483284541E+03  0.45592365492E+03  0.00000000000E+00 0.  1.
        -11    1    3    3    0    0  0.32346431584E+03  0.58035973773E+03  0.57096580713E+03  0.87604140411E+03  0.00000000000E+00 0. -1.
         22    1    1    2    0    0 -0.51916629326E+03 -0.91145487959E+03 -0.12486908873E+03  0.10563502861E+04  0.00000000000E+00 0.  1.
<mgrwt>
<rscale>  0 0.22861904E+04</rscale>
<asrwt>0</asrwt>
<pdfrwt beam="1">  1        2 0.23686499E+00 0.22861904E+04</pdfrwt>
<pdfrwt beam="2">  1       -2 0.13056814E+00 0.22861904E+04</pdfrwt>
<totfact> 0.47012967E+00</totfact>
</mgrwt>
</event>
<event>
 6    1  0.9906445E-006  0.1310169E+04  0.7818608E-02  0.9021540E-01
         -2   -1    0    0    0  501 -0.00000000000E+00  0.00000000000E+00  0.97414276107E+03  0.97414276107E+03  0.00000000000E+00 0.  1.
          2   -1    0    0  501    0  0.00000000000E+00 -0.00000000000E+00 -0.44052637876E+03  0.44052637876E+03  0.00000000000E+00 0. -1.
         23    2    1    2    0    0  0.26438716427E+03  0.34908170015E+03  0.78976018146E+03  0.90735439349E+03  0.88386906096E+02 0.  0.
         13    1    3    3    0    0  0.16383213705E+03  0.27618014612E+03  0.60077236377E+03  0.68120765946E+03  0.00000000000E+00 0. -1.
        -13    1    3    3    0    0  0.10055502722E+03  0.72901554035E+02  0.18898781768E+03  0.22614673403E+03  0.00000000000E+00 0.  1.
         22    1    1    2    0    0 -0.26438716427E+03 -0.34908170015E+03 -0.25614379915E+03  0.50731474634E+03  0.00000000000E+00 0. -1.
<mgrwt>
<rscale>  0 0.13101688E+04</rscale>
<asrwt>0</asrwt>
<pdfrwt beam="1">  1        2 0.67773289E-01 0.13101688E+04</pdfrwt>
<pdfrwt beam="2">  1       -2 0.14986812E+00 0.13101688E+04</pdfrwt>
<totfact> 0.20941760E+01</totfact>
</mgrwt>
</event>
<event>
 6    1  0.9906445E-006  0.4452680E+04  0.7818608E-02  0.7918974E-01
         -2   -1    0    0    0  501 -0.00000000000E+00  0.00000000000E+00  0.17099551339E+04  0.17099551339E+04  0.00000000000E+00 0.  1.
          2   -1    0    0  501    0  0.00000000000E+00 -0.00000000000E+00 -0.28986671266E+04  0.28986671266E+04  0.00000000000E+00 0. -1.
         23    2    1    2    0    0 -0.21523303856E+04  0.32675232626E+03 -0.11662340214E+03  0.21819646585E+04  0.89864239853E+02 0.  0.
         11    1    3    3    0    0 -0.76226838562E+03  0.14420804618E+03 -0.74147632628E+02  0.77932465874E+03  0.00000000000E+00 0. -1.
        -11    1    3    3    0    0 -0.13900619999E+04  0.18254428007E+03 -0.42475769516E+02  0.14026399997E+04  0.00000000000E+00 0.  1.
         22    1    1    2    0    0  0.21523303856E+04 -0.32675232626E+03 -0.10720885906E+04  0.24266576020E+04  0.00000000000E+00 0. -1.
<mgrwt>
<rscale>  0 0.44526804E+04</rscale>
<asrwt>0</asrwt>
<pdfrwt beam="1">  1        2 0.44594878E+00 0.44526804E+04</pdfrwt>
<pdfrwt beam="2">  1       -2 0.26307003E+00 0.44526804E+04</pdfrwt>
<totfact> 0.81774244E-02</totfact>
</mgrwt>
</event>
<event>
 6    1  0.9906445E-006  0.1498854E+04  0.7818608E-02  0.8885215E-01
         -2   -1    0    0    0  501 -0.00000000000E+00  0.00000000000E+00  0.24174248826E+03  0.24174248826E+03  0.00000000000E+00 0.  1.
          2   -1    0    0  501    0  0.00000000000E+00 -0.00000000000E+00 -0.23233023354E+04  0.23233023354E+04  0.00000000000E+00 0. -1.
         23    2    1    2    0    0 -0.58244369107E+03 -0.73927997876E+02 -0.25556461001E+03  0.64698210098E+03  0.92555750519E+02 0.  0.
         11    1    3    3    0    0 -0.24903642955E+03  0.13491170742E+02 -0.11725436471E+03  0.27558980564E+03  0.00000000000E+00 0. -1.
        -11    1    3    3    0    0 -0.33340726152E+03 -0.87419168618E+02 -0.13831024530E+03  0.37139229534E+03  0.00000000000E+00 0.  1.
         22    1    1    2    0    0  0.58244369107E+03  0.73927997876E+02 -0.18259952371E+04  0.19180627226E+04  0.00000000000E+00 0. -1.
<mgrwt>
<rscale>  0 0.14988541E+04</rscale>
<asrwt>0</asrwt>
<pdfrwt beam="1">  1        2 0.35743112E+00 0.14988541E+04</pdfrwt>
<pdfrwt beam="2">  1       -2 0.37191153E-01 0.14988541E+04</pdfrwt>
<totfact> 0.29009062E+01</totfact>
</mgrwt>
</event>
<event>
 6    1  0.9906445E-006  0.2277654E+04  0.7818608E-02  0.8486784E-01
          2   -1    0    0  501    0  0.00000000000E+00  0.00000000000E+00  0.15704722582E+04  0.15704722582E+04  0.00000000000E+00 0. -1.
         -2   -1    0    0    0  501 -0.00000000000E+00 -0.00000000000E+00 -0.82581954379E+03  0.82581954379E+03  0.00000000000E+00 0.  1.
         23    2    1    2    0    0  0.43979396670E+03 -0.93961961179E+03  0.85932804107E+03  0.13525225849E+04  0.12070175055E+03 0.  0.
         13    1    3    3    0    0  0.33834005812E+03 -0.59713635369E+03  0.53791465907E+03  0.87200802764E+03  0.00000000000E+00 0.  1.
        -13    1    3    3    0    0  0.10145390858E+03 -0.34248325810E+03  0.32141338200E+03  0.48051455730E+03  0.00000000000E+00 0. -1.
         22    1    1    2    0    0 -0.43979396670E+03  0.93961961179E+03 -0.11467532664E+03  0.10437692171E+04  0.00000000000E+00 0.  1.
<mgrwt>
<rscale>  0 0.22776538E+04</rscale>
<asrwt>0</asrwt>
<pdfrwt beam="1">  1        2 0.24161112E+00 0.22776538E+04</pdfrwt>
<pdfrwt beam="2">  1       -2 0.12704916E+00 0.22776538E+04</pdfrwt>
<totfact> 0.48437980E+00</totfact>
</mgrwt>
</event>
<event>
 6    1  0.9906445E-006  0.1690382E+04  0.7818608E-02  0.8766869E-01
         -2   -1    0    0    0  501 -0.00000000000E+00  0.00000000000E+00  0.41625596627E+03  0.41625596627E+03  0.00000000000E+00 0.  1.
          2   -1    0    0  501    0  0.00000000000E+00 -0.00000000000E+00 -0.17161268859E+04  0.17161268859E+04  0.00000000000E+00 0. -1.
         23    2    1    2    0    0 -0.20577786139E+03 -0.69833912595E+03 -0.11643675609E+03  0.74294466263E+03  0.91581605671E+02 0.  0.
         13    1    3    3    0    0 -0.49780601877E+02 -0.31171608703E+03 -0.29257999915E+02  0.31701901804E+03  0.00000000000E+00 0.  1.
        -13    1    3    3    0    0 -0.15599725952E+03 -0.38662303892E+03 -0.87178756173E+02  0.42592564460E+03  0.00000000000E+00 0. -1.
         22    1    1    2    0    0  0.20577786139E+03  0.69833912595E+03 -0.11834341635E+04  0.13894381895E+04  0.00000000000E+00 0. -1.
<mgrwt>
<rscale>  0 0.16903823E+04</rscale>
<asrwt>0</asrwt>
<pdfrwt beam="1">  1        2 0.26401953E+00 0.16903823E+04</pdfrwt>
<pdfrwt beam="2">  1       -2 0.64039378E-01 0.16903823E+04</pdfrwt>
<totfact> 0.20618042E+01</totfact>
</mgrwt>
</event>
<event>
 6    1  0.9906445E-006  0.5852332E+03  0.7818608E-02  0.9936525E-01
          1   -1    0    0  501    0  0.00000000000E+00  0.00000000000E+00  0.11886084975E+04  0.11886084975E+04  0.00000000000E+00 0. -1.
         -1   -1    0    0    0  501 -0.00000000000E+00 -0.00000000000E+00 -0.72037586976E+02  0.72037586976E+02  0.00000000000E+00 0.  1.
         23    2    1    2    0    0 -0.13983487134E+03  0.24739138837E+03  0.49068085169E+03  0.57326361741E+03  0.84304131290E+02 0.  0.
         13    1    3    3    0    0 -0.10529821356E+03  0.19507396004E+03  0.30331093674E+03  0.37568482536E+03  0.00000000000E+00 0.  1.
        -13    1    3    3    0    0 -0.34536657778E+02  0.52317428326E+02  0.18736991496E+03  0.19757879205E+03  0.00000000000E+00 0. -1.
         22    1    1    2    0    0  0.13983487134E+03 -0.24739138837E+03  0.62589005881E+03  0.68738246704E+03  0.00000000000E+00 0.  1.
<mgrwt>
<rscale>  0 0.58523325E+03</rscale>
<asrwt>0</asrwt>
<pdfrwt beam="1">  1        1 0.18286283E+00 0.58523325E+03</pdfrwt>
<pdfrwt beam="2">  1       -1 0.11082707E-01 0.58523325E+03</pdfrwt>
<totfact> 0.59477691E+02</totfact>
</mgrwt>
</event>
<event>
 6    1  0.9906445E-006  0.4087184E+04  0.7818608E-02  0.7987186E-01
         -2   -1    0    0    0  501 -0.00000000000E+00  0.00000000000E+00  0.10121939807E+04  0.10121939807E+04  0.00000000000E+00 0. -1.
          2   -1    0    0  501    0  0.00000000000E+00 -0.00000000000E+00 -0.41259566773E+04  0.41259566773E+04  0.00000000000E+00 0.  1.
         23    2    1    2    0    0  0.28335074635E+02 -0.12143657456E+04  0.50690447990E+03  0.13191563083E+04  0.87944150334E+02 0.  0.
         13    1    3    3    0    0  0.21906101820E+02 -0.69622736701E+03  0.24376787440E+03  0.73799403822E+03  0.00000000000E+00 0. -1.
        -13    1    3    3    0    0  0.64289728150E+01 -0.51813837857E+03  0.26313660550E+03  0.58116227010E+03  0.00000000000E+00 0.  1.
         22    1    1    2    0    0 -0.28335074635E+02  0.12143657456E+04 -0.36206671764E+04  0.38189943497E+04  0.00000000000E+00 0.  1.
<mgrwt>
<rscale>  0 0.40871841E+04</rscale>
<asrwt>0</asrwt>
<pdfrwt beam="1">  1        2 0.63476257E+00 0.40871841E+04</pdfrwt>
<pdfrwt beam="2">  1       -2 0.15572215E+00 0.40871841E+04</pdfrwt>
<totfact> 0.56895588E-02</totfact>
</mgrwt>
</event>
<event>
 6    1  0.9906445E-006  0.3766639E+04  0.7818608E-02  0.8053352E-01
         -2   -1    0    0    0  501 -0.00000000000E+00  0.00000000000E+00  0.14577335033E+04  0.14577335033E+04  0.00000000000E+00 0.  1.
          2   -1    0    0  501    0  0.00000000000E+00 -0.00000000000E+00 -0.24331560654E+04  0.24331560654E+04  0.00000000000E+00 0. -1.
         23    2    1    2    0    0 -0.78540708811E+03 -0.14870195769E+04  0.38515097814E+03  0.17277317209E+04  0.92866070209E+02 0.  0.
         11    1    3    3    0    0 -0.53378810526E+03 -0.10423598135E+04  0.22686083094E+03  0.11928577278E+04  0.00000000000E+00 0. -1.
        -11    1    3    3    0    0 -0.25161898285E+03 -0.44465976343E+03  0.15829014720E+03  0.53487399305E+03  0.00000000000E+00 0.  1.
         22    1    1    2    0    0  0.78540708811E+03  0.14870195769E+04 -0.13605735403E+04  0.21631578479E+04  0.00000000000E+00 0.  1.
<mgrwt>
<rscale>  0 0.37666394E+04</rscale>
<asrwt>0</asrwt>
<pdfrwt beam="1">  1        2 0.37433170E+00 0.37666394E+04</pdfrwt>
<pdfrwt beam="2">  1       -2 0.22426669E+00 0.37666394E+04</pdfrwt>
<totfact> 0.28415092E-01</totfact>
</mgrwt>
</event>
<event>
 6    1  0.9906445E-006  0.2805933E+04  0.7818608E-02  0.8301429E-01
         -2   -1    0    0    0  501 -0.00000000000E+00  0.00000000000E+00  0.62681322367E+03  0.62681322367E+03  0.00000000000E+00 0.  1.
          2   -1    0    0  501    0  0.00000000000E+00 -0.00000000000E+00 -0.31401944665E+04  0.31401944665E+04  0.00000000000E+00 0. -1.
         23    2    1    2    0    0  0.49563294490E+02 -0.13905040320E+04 -0.14834697762E+04  0.20359168166E+04  0.91196075955E+02 0.  0.
         13    1    3    3    0    0 -0.23740290049E+02 -0.30669842004E+03 -0.30562794683E+03  0.43363113831E+03  0.00000000000E+00 0.  1.
        -13    1    3    3    0    0  0.73303584539E+02 -0.10838056120E+04 -0.11778418293E+04  0.16022856783E+04  0.00000000000E+00 0. -1.
         22    1    1    2    0    0 -0.49563294490E+02  0.13905040320E+04 -0.10299114667E+04  0.17310908735E+04  0.00000000000E+00 0. -1.
<mgrwt>
<rscale>  0 0.28059333E+04</rscale>
<asrwt>0</asrwt>
<pdfrwt beam="1">  1        2 0.48310684E+00 0.28059333E+04</pdfrwt>
<pdfrwt beam="2">  1       -2 0.96432803E-01 0.28059333E+04</pdfrwt>
<totfact> 0.11093570E+00</totfact>
</mgrwt>
</event>
<event>
 6    1  0.9906445E-006  0.7068341E+03  0.7818608E-02  0.9705616E-01
         -4   -1    0    0    0  501 -0.00000000000E+00  0.00000000000E+00  0.40819123921E+03  0.40819123921E+03  0.00000000000E+00 0.  1.
          4   -1    0    0  501    0  0.00000000000E+00 -0.00000000000E+00 -0.30599283821E+03  0.30599283821E+03  0.00000000000E+00 0. -1.
         23    2    1    2    0    0 -0.52297211074E+01 -0.32662868331E+03  0.17250595975E+03  0.38003321394E+03  0.89181224503E+02 0.  0.
         13    1    3    3    0    0 -0.22589507840E+02 -0.16390530400E+03  0.41953096424E+02  0.17069064662E+03  0.00000000000E+00 0.  1.
        -13    1    3    3    0    0  0.17359786733E+02 -0.16272337931E+03  0.13055286332E+03  0.20934256732E+03  0.00000000000E+00 0. -1.
         22    1    1    2    0    0  0.52297211074E+01  0.32662868331E+03 -0.70307558746E+02  0.33415086348E+03  0.00000000000E+00 0. -1.
<mgrwt>
<rscale>  0 0.70683406E+03</rscale>
<asrwt>0</asrwt>
<pdfrwt beam="1">  1        4 0.47075821E-01 0.70683406E+03</pdfrwt>
<pdfrwt beam="2">  1       -4 0.62798652E-01 0.70683406E+03</pdfrwt>
<totfact> 0.20613593E+01</totfact>
</mgrwt>
</event>
<event>
 6    1  0.9906445E-006  0.7655530E+03  0.7818608E-02  0.9611261E-01
         -2   -1    0    0    0  501 -0.00000000000E+00  0.00000000000E+00  0.15545004163E+03  0.15545004163E+03  0.00000000000E+00 0.  1.
          2   -1    0    0  501    0  0.00000000000E+00 -0.00000000000E+00 -0.94253977747E+03  0.94253977747E+03  0.00000000000E+00 0. -1.
         23    2    1    2    0    0  0.94111470518E+02  0.88383441557E+02 -0.90769388643E+03  0.92131508190E+03  0.90800259054E+02 0.  0.
         13    1    3    3    0    0  0.12751050262E+02  0.65042974753E+02 -0.53731791239E+03  0.54139054002E+03  0.00000000000E+00 0. -1.
        -13    1    3    3    0    0  0.81360420256E+02  0.23340466804E+02 -0.37037597404E+03  0.37992454188E+03  0.00000000000E+00 0.  1.
         22    1    1    2    0    0 -0.94111470518E+02 -0.88383441557E+02  0.12060415060E+03  0.17667473720E+03  0.00000000000E+00 0.  1.
<mgrwt>
<rscale>  0 0.76555300E+03</rscale>
<asrwt>0</asrwt>
<pdfrwt beam="1">  1        2 0.14500612E+00 0.76555300E+03</pdfrwt>
<pdfrwt beam="2">  1       -2 0.23915391E-01 0.76555300E+03</pdfrwt>
<totfact> 0.42871884E+02</totfact>
</mgrwt>
</event>
<event>
 6    1  0.9906445E-006  0.8144711E+03  0.7818608E-02  0.9539304E-01
         -2   -1    0    0    0  501 -0.00000000000E+00  0.00000000000E+00  0.56553291342E+03  0.56553291342E+03  0.00000000000E+00 0.  1.
          2   -1    0    0  501    0  0.00000000000E+00 -0.00000000000E+00 -0.29324691077E+03  0.29324691077E+03  0.00000000000E+00 0. -1.
         23    2    1    2    0    0  0.10232751353E+03  0.34198032575E+03 -0.57071728117E+02  0.37308652792E+03  0.92276280449E+02 0.  0.
         11    1    3    3    0    0  0.54013679371E+02  0.52907919427E+02 -0.10965634629E+02  0.76400069634E+02  0.00000000000E+00 0. -1.
        -11    1    3    3    0    0  0.48313834162E+02  0.28907240633E+03 -0.46106093488E+02  0.29668645828E+03  0.00000000000E+00 0.  1.
         22    1    1    2    0    0 -0.10232751353E+03 -0.34198032575E+03  0.32935773076E+03  0.48569329627E+03  0.00000000000E+00 0.  1.
<mgrwt>
<rscale>  0 0.81447107E+03</rscale>
<asrwt>0</asrwt>
<pdfrwt beam="1">  1        2 0.45114909E-01 0.81447107E+03</pdfrwt>
<pdfrwt beam="2">  1       -2 0.87005064E-01 0.81447107E+03</pdfrwt>
<totfact> 0.12954945E+02</totfact>
</mgrwt>
</event>
<event>
 6    1  0.9906445E-006  0.3812106E+04  0.7818608E-02  0.8043562E-01
          1   -1    0    0  501    0  0.00000000000E+00  0.00000000000E+00  0.13500913593E+04  0.13500913593E+04  0.00000000000E+00 0. -1.
         -1   -1    0    0    0  501 -0.00000000000E+00 -0.00000000000E+00 -0.26909572734E+04  0.26909572734E+04  0.00000000000E+00 0.  1.
         23    2    1    2    0    0 -0.15812840536E+04 -0.10049175451E+04 -0.30586887538E+03  0.19005960168E+04  0.91601961771E+02 0.  0.
         13    1    3    3    0    0 -0.69224483784E+03 -0.39132259965E+03 -0.14909691930E+03  0.80905264591E+03  0.00000000000E+00 0.  1.
        -13    1    3    3    0    0 -0.88903921576E+03 -0.61359494546E+03 -0.15677195608E+03  0.10915433709E+04  0.00000000000E+00 0. -1.
         22    1    1    2    0    0  0.15812840536E+04  0.10049175451E+04 -0.10349970388E+04  0.21404526159E+04  0.00000000000E+00 0.  1.
<mgrwt>
<rscale>  0 0.38121061E+04</rscale>
<asrwt>0</asrwt>
<pdfrwt beam="1">  1        1 0.20770637E+00 0.38121061E+04</pdfrwt>
<pdfrwt beam="2">  1       -1 0.41399342E+00 0.38121061E+04</pdfrwt>
<totfact> 0.37953627E-02</totfact>
</mgrwt>
</event>
<event>
 6    1  0.9906445E-006  0.1072859E+04  0.7818608E-02  0.9232057E-01
         -2   -1    0    0    0  501 -0.00000000000E+00  0.00000000000E+00  0.25500684960E+03  0.25500684960E+03  0.00000000000E+00 0.  1.
          2   -1    0    0  501    0  0.00000000000E+00 -0.00000000000E+00 -0.11284266977E+04  0.11284266977E+04  0.00000000000E+00 0. -1.
         23    2    1    2    0    0  0.43377632395E+03 -0.27212374938E+03 -0.25164740497E+03  0.57794350687E+03  0.92081738200E+02 0.  0.
         13    1    3    3    0    0  0.10626885198E+02  0.18220776549E+01  0.54494299166E+01  0.12080850235E+02  0.00000000000E+00 0.  1.
        -13    1    3    3    0    0  0.42314943876E+03 -0.27394582704E+03 -0.25709683489E+03  0.56586265664E+03  0.00000000000E+00 0. -1.
         22    1    1    2    0    0 -0.43377632395E+03  0.27212374938E+03 -0.62177244315E+03  0.80549004045E+03  0.00000000000E+00 0. -1.
<mgrwt>
<rscale>  0 0.10728589E+04</rscale>
<asrwt>0</asrwt>
<pdfrwt beam="1">  1        2 0.17360411E+00 0.10728589E+04</pdfrwt>
<pdfrwt beam="2">  1       -2 0.39231822E-01 0.10728589E+04</pdfrwt>
<totfact> 0.12772597E+02</totfact>
</mgrwt>
</event>
<event>
 6    1  0.9906445E-006  0.4072347E+04  0.7818608E-02  0.7990109E-01
         -1   -1    0    0    0  501 -0.00000000000E+00  0.00000000000E+00  0.23705268080E+04  0.23705268080E+04  0.00000000000E+00 0.  1.
          1   -1    0    0  501    0  0.00000000000E+00 -0.00000000000E+00 -0.17489790299E+04  0.17489790299E+04  0.00000000000E+00 0. -1.
         23    2    1    2    0    0  0.40603370982E+03 -0.19904900782E+04  0.19067250835E+03  0.20428335906E+04  0.99493460763E+02 0.  0.
         11    1    3    3    0    0  0.26735172629E+03 -0.10984791918E+04  0.13153151798E+03  0.11381713494E+04  0.00000000000E+00 0. -1.
        -11    1    3    3    0    0  0.13868198353E+03 -0.89201088635E+03  0.59140990378E+02  0.90466224121E+03  0.00000000000E+00 0.  1.
         22    1    1    2    0    0 -0.40603370982E+03  0.19904900782E+04  0.43087526978E+03  0.20766722473E+04  0.00000000000E+00 0.  1.
<mgrwt>
<rscale>  0 0.40723466E+04</rscale>
<asrwt>0</asrwt>
<pdfrwt beam="1">  1        1 0.26907370E+00 0.40723466E+04</pdfrwt>
<pdfrwt beam="2">  1       -1 0.36469643E+00 0.40723466E+04</pdfrwt>
<totfact> 0.42561751E-02</totfact>
</mgrwt>
</event>
<event>
 6    1  0.9906445E-006  0.1493494E+04  0.7818608E-02  0.8888791E-01
          2   -1    0    0  501    0  0.00000000000E+00  0.00000000000E+00  0.14889674619E+04  0.14889674619E+04  0.00000000000E+00 0.  1.
         -2   -1    0    0    0  501 -0.00000000000E+00 -0.00000000000E+00 -0.37450835079E+03  0.37450835079E+03  0.00000000000E+00 0. -1.
         23    2    1    2    0    0 -0.46968990216E+03 -0.35343694734E+03 -0.98995402496E+01  0.59473286914E+03  0.89904976516E+02 0.  0.
         11    1    3    3    0    0 -0.25219155743E+02 -0.30443185967E+02  0.20355681084E+02  0.44465122744E+02  0.00000000000E+00 0.  1.
        -11    1    3    3    0    0 -0.44447074641E+03 -0.32299376137E+03 -0.30255221334E+02  0.55026774640E+03  0.00000000000E+00 0. -1.
         22    1    1    2    0    0  0.46968990216E+03  0.35343694734E+03  0.11243586514E+04  0.12687429436E+04  0.00000000000E+00 0.  1.
<mgrwt>
<rscale>  0 0.14934936E+04</rscale>
<asrwt>0</asrwt>
<pdfrwt beam="1">  1        2 0.22907191E+00 0.14934936E+04</pdfrwt>
<pdfrwt beam="2">  1       -2 0.57616670E-01 0.14934936E+04</pdfrwt>
<totfact> 0.35111490E+01</totfact>
</mgrwt>
</event>
<event>
 6    1  0.9906445E-006  0.2632158E+04  0.7818608E-02  0.8357359E-01
          1   -1    0    0  501    0  0.00000000000E+00  0.00000000000E+00  0.11291345047E+04  0.11291345047E+04  0.00000000000E+00 0. -1.
         -1   -1    0    0    0  501 -0.00000000000E+00 -0.00000000000E+00 -0.15339746935E+04  0.15339746935E+04  0.00000000000E+00 0.  1.
         23    2    1    2    0    0 -0.96340287204E+03 -0.20008846735E+03 -0.10845058648E+04  0.14672304754E+04  0.91824879359E+02 0.  0.
         13    1    3    3    0    0 -0.15166948056E+03 -0.25598934725E+02 -0.22157240703E+03  0.26972813785E+03  0.00000000000E+00 0. -1.
        -13    1    3    3    0    0 -0.81173339147E+03 -0.17448953262E+03 -0.86293345776E+03  0.11975023375E+04  0.00000000000E+00 0.  1.
         22    1    1    2    0    0  0.96340287204E+03  0.20008846735E+03  0.67966567598E+03  0.11958787228E+04  0.00000000000E+00 0. -1.
<mgrwt>
<rscale>  0 0.26321579E+04</rscale>
<asrwt>0</asrwt>
<pdfrwt beam="1">  1        1 0.17371300E+00 0.26321579E+04</pdfrwt>
<pdfrwt beam="2">  1       -1 0.23599610E+00 0.26321579E+04</pdfrwt>
<totfact> 0.91219412E-01</totfact>
</mgrwt>
</event>
<event>
 6    1  0.9906445E-006  0.6740297E+04  0.7818608E-02  0.7604828E-01
          2   -1    0    0  501    0  0.00000000000E+00  0.00000000000E+00  0.39283635014E+04  0.39283635014E+04  0.00000000000E+00 0. -1.
         -2   -1    0    0    0  501 -0.00000000000E+00 -0.00000000000E+00 -0.28912546936E+04  0.28912546936E+04  0.00000000000E+00 0.  1.
         23    2    1    2    0    0  0.12402476944E+04  0.25537610557E+04 -0.13175881161E+04  0.31311893321E+04  0.91642329695E+02 0.  0.
         11    1    3    3    0    0  0.32047740009E+03  0.58026631833E+03 -0.28873863911E+03  0.72303856458E+03  0.00000000000E+00 0. -1.
        -11    1    3    3    0    0  0.91977029435E+03  0.19734947373E+04 -0.10288494770E+04  0.24081507675E+04  0.00000000000E+00 0.  1.
         22    1    1    2    0    0 -0.12402476944E+04 -0.25537610557E+04  0.23546969239E+04  0.36884288629E+04  0.00000000000E+00 0.  1.
<mgrwt>
<rscale>  0 0.67402966E+04</rscale>
<asrwt>0</asrwt>
<pdfrwt beam="1">  1        2 0.60436361E+00 0.67402966E+04</pdfrwt>
<pdfrwt beam="2">  1       -2 0.44480842E+00 0.67402966E+04</pdfrwt>
<totfact> 0.93286372E-04</totfact>
</mgrwt>
</event>
<event>
 6    1  0.9906445E-006  0.1336395E+04  0.7818608E-02  0.9001191E-01
          3   -1    0    0  501    0  0.00000000000E+00  0.00000000000E+00  0.43509943344E+03  0.43509943344E+03  0.00000000000E+00 0. -1.
         -3   -1    0    0    0  501 -0.00000000000E+00 -0.00000000000E+00 -0.10261747321E+04  0.10261747321E+04  0.00000000000E+00 0.  1.
         23    2    1    2    0    0  0.13901565313E+02 -0.43079304850E+03 -0.85071450972E+03  0.95809584313E+03  0.91959574882E+02 0.  0.
         11    1    3    3    0    0  0.27891447479E+02 -0.30022063980E+03 -0.66989356018E+03  0.73462081878E+03  0.00000000000E+00 0.  1.
        -11    1    3    3    0    0 -0.13989882166E+02 -0.13057240870E+03 -0.18082094954E+03  0.22347502435E+03  0.00000000000E+00 0. -1.
         22    1    1    2    0    0 -0.13901565313E+02  0.43079304850E+03  0.25963921111E+03  0.50317832236E+03  0.00000000000E+00 0. -1.
<mgrwt>
<rscale>  0 0.13363952E+04</rscale>
<asrwt>0</asrwt>
<pdfrwt beam="1">  1        3 0.66938374E-01 0.13363952E+04</pdfrwt>
<pdfrwt beam="2">  1       -3 0.15787304E+00 0.13363952E+04</pdfrwt>
<totfact> 0.15537922E+00</totfact>
</mgrwt>
</event>
<event>
 6    1  0.9906445E-006  0.8369458E+03  0.7818608E-02  0.9508027E-01
          2   -1    0    0  501    0  0.00000000000E+00  0.00000000000E+00  0.10804450760E+04  0.10804450760E+04  0.00000000000E+00 0. -1.
         -2   -1    0    0    0  501 -0.00000000000E+00 -0.00000000000E+00 -0.16208095761E+03  0.16208095761E+03  0.00000000000E+00 0.  1.
         23    2    1    2    0    0  0.29861133124E+03 -0.16694967435E+03  0.80938977550E+03  0.88347683323E+03  0.91534612356E+02 0.  0.
         11    1    3    3    0    0  0.10063695655E+03 -0.19801125563E+02  0.30925558157E+03  0.32582034364E+03  0.00000000000E+00 0. -1.
        -11    1    3    3    0    0  0.19797437469E+03 -0.14714854879E+03  0.50013419393E+03  0.55765648959E+03  0.00000000000E+00 0.  1.
         22    1    1    2    0    0 -0.29861133124E+03  0.16694967435E+03  0.10897434293E+03  0.35904920042E+03  0.00000000000E+00 0.  1.
<mgrwt>
<rscale>  0 0.83694581E+03</rscale>
<asrwt>0</asrwt>
<pdfrwt beam="1">  1        2 0.16622232E+00 0.83694581E+03</pdfrwt>
<pdfrwt beam="2">  1       -2 0.24935533E-01 0.83694581E+03</pdfrwt>
<totfact> 0.32385979E+02</totfact>
</mgrwt>
</event>
<event>
 6    1  0.9906445E-006  0.1602102E+04  0.7818608E-02  0.8819258E-01
         -1   -1    0    0    0  501 -0.00000000000E+00  0.00000000000E+00  0.42812688927E+03  0.42812688927E+03  0.00000000000E+00 0.  1.
          1   -1    0    0  501    0  0.00000000000E+00 -0.00000000000E+00 -0.14988147008E+04  0.14988147008E+04  0.00000000000E+00 0. -1.
         23    2    1    2    0    0 -0.25766413284E+03 -0.64348166087E+03 -0.10104556308E+04  0.12311777157E+04  0.11966007151E+03 0.  0.
         13    1    3    3    0    0 -0.18924963696E+03 -0.45703483558E+03 -0.80926265053E+03  0.94847367047E+03  0.00000000000E+00 0.  1.
        -13    1    3    3    0    0 -0.68414495889E+02 -0.18644682529E+03 -0.20119298023E+03  0.28270404525E+03  0.00000000000E+00 0. -1.
         22    1    1    2    0    0  0.25766413284E+03  0.64348166087E+03 -0.60232180750E+02  0.69576387433E+03  0.00000000000E+00 0.  1.
<mgrwt>
<rscale>  0 0.16021022E+04</rscale>
<asrwt>0</asrwt>
<pdfrwt beam="1">  1        1 0.23058688E+00 0.16021022E+04</pdfrwt>
<pdfrwt beam="2">  1       -1 0.65865674E-01 0.16021022E+04</pdfrwt>
<totfact> 0.14689429E+01</totfact>
</mgrwt>
</event>
<event>
 6    1  0.1727175E-005  0.3211308E+04  0.7818608E-02  0.8185837E-01
         -1   -1    0    0    0  501 -0.00000000000E+00  0.00000000000E+00  0.10571276079E+04  0.10571276079E+04  0.00000000000E+00 0.  1.
          1   -1    0    0  501    0  0.00000000000E+00 -0.00000000000E+00 -0.24388013498E+04  0.24388013498E+04  0.00000000000E+00 0. -1.
         23    2    1    2    0    0 -0.37439234287E+03  0.15564751676E+03  0.99814592911E+03  0.10818168141E+04  0.98165918200E+02 0.  0.
         11    1    3    3    0    0 -0.58413238118E+02  0.65603936670E+00  0.22281658710E+03  0.23034706046E+03  0.00000000000E+00 0.  1.
        -11    1    3    3    0    0 -0.31597910476E+03  0.15499147740E+03  0.77532934201E+03  0.85146975360E+03  0.00000000000E+00 0. -1.
         22    1    1    2    0    0  0.37439234287E+03 -0.15564751676E+03 -0.23798196709E+04  0.24141121436E+04  0.00000000000E+00 0. -1.
<mgrwt>
<rscale>  0 0.32113077E+04</rscale>
<asrwt>0</asrwt>
<pdfrwt beam="1">  1        1 0.37520021E+00 0.32113077E+04</pdfrwt>
<pdfrwt beam="2">  1       -1 0.16263502E+00 0.32113077E+04</pdfrwt>
<totfact> 0.34842039E-01</totfact>
</mgrwt>
</event>
<event>
 6    1  0.1009729E-005  0.2751673E+04  0.7818608E-02  0.8318431E-01
         -2   -1    0    0    0  501 -0.00000000000E+00  0.00000000000E+00  0.10962276059E+04  0.10962276059E+04  0.00000000000E+00 0.  1.
          2   -1    0    0  501    0  0.00000000000E+00 -0.00000000000E+00 -0.17267634969E+04  0.17267634969E+04  0.00000000000E+00 0. -1.
         23    2    1    2    0    0  0.32026766411E+03  0.66066352785E+03  0.87623706704E+03  0.11468609108E+04  0.91928653905E+02 0.  0.
         11    1    3    3    0    0  0.18996486909E+03  0.41136436839E+03  0.60711800581E+03  0.75756159357E+03  0.00000000000E+00 0.  1.
        -11    1    3    3    0    0  0.13030279501E+03  0.24929915945E+03  0.26911906123E+03  0.38929931725E+03  0.00000000000E+00 0. -1.
         22    1    1    2    0    0 -0.32026766411E+03 -0.66066352785E+03 -0.15067729580E+04  0.16761301921E+04  0.00000000000E+00 0. -1.
<mgrwt>
<rscale>  0 0.27516728E+04</rscale>
<asrwt>0</asrwt>
<pdfrwt beam="1">  1        2 0.26565592E+00 0.27516728E+04</pdfrwt>
<pdfrwt beam="2">  1       -2 0.16865040E+00 0.27516728E+04</pdfrwt>
<totfact> 0.18042894E+00</totfact>
</mgrwt>
</event>
<event>
 6    1  0.9906445E-006  0.1201051E+04  0.7818608E-02  0.9111937E-01
          2   -1    0    0  501    0  0.00000000000E+00  0.00000000000E+00  0.69173253334E+03  0.69173253334E+03  0.00000000000E+00 0. -1.
         -2   -1    0    0    0  501 -0.00000000000E+00 -0.00000000000E+00 -0.52134407043E+03  0.52134407043E+03  0.00000000000E+00 0.  1.
         23    2    1    2    0    0  0.30737708635E+03  0.16459112196E+03  0.57475471957E+03  0.67914497879E+03  0.96560881853E+02 0.  0.
         13    1    3    3    0    0  0.22019206813E+03  0.65760439828E+02  0.37609343984E+03  0.44074398215E+03  0.00000000000E+00 0. -1.
        -13    1    3    3    0    0  0.87185018221E+02  0.98830682129E+02  0.19866127973E+03  0.23840099664E+03  0.00000000000E+00 0.  1.
         22    1    1    2    0    0 -0.30737708635E+03 -0.16459112196E+03 -0.40436625666E+03  0.53393162499E+03  0.00000000000E+00 0.  1.
<mgrwt>
<rscale>  0 0.12010506E+04</rscale>
<asrwt>0</asrwt>
<pdfrwt beam="1">  1        2 0.10642039E+00 0.12010506E+04</pdfrwt>
<pdfrwt beam="2">  1       -2 0.80206780E-01 0.12010506E+04</pdfrwt>
<totfact> 0.56429505E+01</totfact>
</mgrwt>
</event>
<event>
 6    1  0.9906445E-006  0.1311046E+04  0.7818608E-02  0.9020852E-01
          1   -1    0    0  501    0  0.00000000000E+00  0.00000000000E+00  0.62799939123E+03  0.62799939123E+03  0.00000000000E+00 0. -1.
         -1   -1    0    0    0  501 -0.00000000000E+00 -0.00000000000E+00 -0.68425239834E+03  0.68425239834E+03  0.00000000000E+00 0.  1.
         23    2    1    2    0    0  0.13085118403E+03 -0.34040135921E+03  0.51287841426E+03  0.63630379415E+03  0.94037933368E+02 0.  0.
         13    1    3    3    0    0  0.10989538260E+03 -0.17723662979E+03  0.32952550847E+03  0.38997035630E+03  0.00000000000E+00 0. -1.
        -13    1    3    3    0    0  0.20955801432E+02 -0.16316472942E+03  0.18335290579E+03  0.24633343785E+03  0.00000000000E+00 0.  1.
         22    1    1    2    0    0 -0.13085118403E+03  0.34040135921E+03 -0.56913142138E+03  0.67594799542E+03  0.00000000000E+00 0.  1.
<mgrwt>
<rscale>  0 0.13110455E+04</rscale>
<asrwt>0</asrwt>
<pdfrwt beam="1">  1        1 0.96615292E-01 0.13110455E+04</pdfrwt>
<pdfrwt beam="2">  1       -1 0.10526960E+00 0.13110455E+04</pdfrwt>
<totfact> 0.26636172E+01</totfact>
</mgrwt>
</event>
<event>
 6    1  0.9906445E-006  0.2768997E+04  0.7818608E-02  0.8312959E-01
          2   -1    0    0  501    0  0.00000000000E+00  0.00000000000E+00  0.27201582581E+04  0.27201582581E+04  0.00000000000E+00 0. -1.
         -2   -1    0    0    0  501 -0.00000000000E+00 -0.00000000000E+00 -0.70467812492E+03  0.70467812492E+03  0.00000000000E+00 0.  1.
         23    2    1    2    0    0 -0.61236927447E+03  0.86366526157E+03 -0.91689428337E+02  0.10666427156E+04  0.91683799074E+02 0.  0.
         11    1    3    3    0    0 -0.55530403527E+03  0.79153207551E+03 -0.57797398451E+02  0.96862073972E+03  0.00000000000E+00 0.  1.
        -11    1    3    3    0    0 -0.57065239197E+02  0.72133186062E+02 -0.33892029886E+02  0.98021975831E+02  0.00000000000E+00 0. -1.
         22    1    1    2    0    0  0.61236927447E+03 -0.86366526157E+03  0.21071695616E+04  0.23581936675E+04  0.00000000000E+00 0. -1.
<mgrwt>
<rscale>  0 0.27689969E+04</rscale>
<asrwt>0</asrwt>
<pdfrwt beam="1">  1        2 0.41848588E+00 0.27689969E+04</pdfrwt>
<pdfrwt beam="2">  1       -2 0.10841202E+00 0.27689969E+04</pdfrwt>
<totfact> 0.15329468E+00</totfact>
</mgrwt>
</event>
<event>
 6    1  0.9906445E-006  0.7670365E+03  0.7818608E-02  0.9608996E-01
          1   -1    0    0  501    0  0.00000000000E+00  0.00000000000E+00  0.66320654627E+03  0.66320654627E+03  0.00000000000E+00 0.  1.
         -1   -1    0    0    0  501 -0.00000000000E+00 -0.00000000000E+00 -0.22178043363E+03  0.22178043363E+03  0.00000000000E+00 0. -1.
         23    2    1    2    0    0  0.26049999365E+03  0.90302053812E+02  0.52236820193E+03  0.59764340606E+03  0.91073568093E+02 0.  0.
         13    1    3    3    0    0  0.14782114335E+03  0.97957292883E+02  0.32632228175E+03  0.37139325952E+03  0.00000000000E+00 0.  1.
        -13    1    3    3    0    0  0.11267885030E+03 -0.76552390705E+01  0.19604592018E+03  0.22625014654E+03  0.00000000000E+00 0. -1.
         22    1    1    2    0    0 -0.26049999365E+03 -0.90302053812E+02 -0.80942089290E+02  0.28734357385E+03  0.00000000000E+00 0. -1.
<mgrwt>
<rscale>  0 0.76703647E+03</rscale>
<asrwt>0</asrwt>
<pdfrwt beam="1">  1        1 0.10203178E+00 0.76703647E+03</pdfrwt>
<pdfrwt beam="2">  1       -1 0.34120067E-01 0.76703647E+03</pdfrwt>
<totfact> 0.24267393E+02</totfact>
</mgrwt>
</event>
<event>
 6    1  0.9906445E-006  0.2540068E+04  0.7818608E-02  0.8388849E-01
         -2   -1    0    0    0  501 -0.00000000000E+00  0.00000000000E+00  0.88900634213E+03  0.88900634213E+03  0.00000000000E+00 0.  1.
          2   -1    0    0  501    0  0.00000000000E+00 -0.00000000000E+00 -0.18143698674E+04  0.18143698674E+04  0.00000000000E+00 0. -1.
         23    2    1    2    0    0  0.72144061531E+03  0.10047732108E+04 -0.76182577841E+03  0.14556621553E+04  0.92347317476E+02 0.  0.
         11    1    3    3    0    0  0.57666069369E+03  0.76581977551E+03 -0.62655453388E+03  0.11452458549E+04  0.00000000000E+00 0. -1.
        -11    1    3    3    0    0  0.14477992162E+03  0.23895343528E+03 -0.13527124453E+03  0.31041630036E+03  0.00000000000E+00 0.  1.
         22    1    1    2    0    0 -0.72144061531E+03 -0.10047732108E+04 -0.16353774683E+03  0.12477140543E+04  0.00000000000E+00 0.  1.
<mgrwt>
<rscale>  0 0.25400680E+04</rscale>
<asrwt>0</asrwt>
<pdfrwt beam="1">  1        2 0.27913382E+00 0.25400680E+04</pdfrwt>
<pdfrwt beam="2">  1       -2 0.13677021E+00 0.25400680E+04</pdfrwt>
<totfact> 0.28738366E+00</totfact>
</mgrwt>
</event>
<event>
 6    1  0.9906445E-006  0.3194947E+04  0.7818608E-02  0.8190153E-01
          1   -1    0    0  501    0  0.00000000000E+00  0.00000000000E+00  0.23844466189E+04  0.23844466189E+04  0.00000000000E+00 0. -1.
         -1   -1    0    0    0  501 -0.00000000000E+00 -0.00000000000E+00 -0.10702366611E+04  0.10702366611E+04  0.00000000000E+00 0.  1.
         23    2    1    2    0    0  0.57040514719E+03 -0.10066044349E+04  0.18466322772E+04  0.21810710759E+04  0.91682881642E+02 0.  0.
         11    1    3    3    0    0  0.18463832330E+03 -0.41575917709E+03  0.73534876020E+03  0.86468769096E+03  0.00000000000E+00 0. -1.
        -11    1    3    3    0    0  0.38576682389E+03 -0.59084525778E+03  0.11112835170E+04  0.13163833849E+04  0.00000000000E+00 0.  1.
         22    1    1    2    0    0 -0.57040514719E+03  0.10066044349E+04 -0.53242231937E+03  0.12736122041E+04  0.00000000000E+00 0.  1.
<mgrwt>
<rscale>  0 0.31949474E+04</rscale>
<asrwt>0</asrwt>
<pdfrwt beam="1">  1        1 0.36683794E+00 0.31949474E+04</pdfrwt>
<pdfrwt beam="2">  1       -1 0.16465179E+00 0.31949474E+04</pdfrwt>
<totfact> 0.36737604E-01</totfact>
</mgrwt>
</event>
<event>
 6    1  0.9906445E-006  0.5320799E+04  0.7818608E-02  0.7780840E-01
         -2   -1    0    0    0  501 -0.00000000000E+00  0.00000000000E+00  0.23367451080E+04  0.23367451080E+04  0.00000000000E+00 0.  1.
          2   -1    0    0  501    0  0.00000000000E+00 -0.00000000000E+00 -0.30288816388E+04  0.30288816388E+04  0.00000000000E+00 0. -1.
         23    2    1    2    0    0  0.13976274743E+04  0.19568771822E+04 -0.14918881244E+04  0.28313944223E+04  0.91287108676E+02 0.  0.
         13    1    3    3    0    0  0.67142899107E+03  0.10174531696E+04 -0.76498550943E+03  0.14391770815E+04  0.00000000000E+00 0.  1.
        -13    1    3    3    0    0  0.72619848319E+03  0.93942401261E+03 -0.72690261492E+03  0.13922173408E+04  0.00000000000E+00 0. -1.
         22    1    1    2    0    0 -0.13976274743E+04 -0.19568771822E+04  0.79975159358E+03  0.25342323245E+04  0.00000000000E+00 0.  1.
<mgrwt>
<rscale>  0 0.53207986E+04</rscale>
<asrwt>0</asrwt>
<pdfrwt beam="1">  1        2 0.46598179E+00 0.53207986E+04</pdfrwt>
<pdfrwt beam="2">  1       -2 0.35949925E+00 0.53207986E+04</pdfrwt>
<totfact> 0.16049778E-02</totfact>
</mgrwt>
</event>
<event>
 6    1  0.9906445E-006  0.1866439E+04  0.7818608E-02  0.8671744E-01
          1   -1    0    0  501    0  0.00000000000E+00  0.00000000000E+00  0.37144207465E+04  0.37144207465E+04  0.00000000000E+00 0. -1.
         -1   -1    0    0    0  501 -0.00000000000E+00 -0.00000000000E+00 -0.23446423038E+03  0.23446423038E+03  0.00000000000E+00 0.  1.
         23    2    1    2    0    0 -0.48536367276E+03 -0.33490547639E+03  0.21921513583E+03  0.63525042821E+03  0.88024188792E+02 0.  0.
         11    1    3    3    0    0 -0.63364257915E+02 -0.82471357049E+02  0.48137878554E+02  0.11460283271E+03  0.00000000000E+00 0.  1.
        -11    1    3    3    0    0 -0.42199941485E+03 -0.25243411934E+03  0.17107725728E+03  0.52064759550E+03  0.00000000000E+00 0. -1.
         22    1    1    2    0    0  0.48536367276E+03  0.33490547639E+03  0.32607413803E+04  0.33136345486E+04  0.00000000000E+00 0. -1.
<mgrwt>
<rscale>  0 0.18664392E+04</rscale>
<asrwt>0</asrwt>
<pdfrwt beam="1">  1        1 0.57144930E+00 0.18664392E+04</pdfrwt>
<pdfrwt beam="2">  1       -1 0.36071423E-01 0.18664392E+04</pdfrwt>
<totfact> 0.11665543E+00</totfact>
</mgrwt>
</event>
<event>
 6    1  0.9906445E-006  0.2465089E+04  0.7818608E-02  0.8415529E-01
          2   -1    0    0  501    0  0.00000000000E+00  0.00000000000E+00  0.68634017811E+03  0.68634017811E+03  0.00000000000E+00 0. -1.
         -2   -1    0    0    0  501 -0.00000000000E+00 -0.00000000000E+00 -0.22134302260E+04  0.22134302260E+04  0.00000000000E+00 0.  1.
         23    2    1    2    0    0 -0.42921577302E+02 -0.22573169209E+03 -0.21871150064E+04  0.22008927293E+04  0.87519689739E+02 0.  0.
         11    1    3    3    0    0 -0.57695319376E+02 -0.76215986526E+02 -0.87100846306E+03  0.87623819205E+03  0.00000000000E+00 0. -1.
        -11    1    3    3    0    0  0.14773742074E+02 -0.14951570556E+03 -0.13161065433E+04  0.13246545372E+04  0.00000000000E+00 0.  1.
         22    1    1    2    0    0  0.42921577302E+02  0.22573169209E+03  0.66002495846E+03  0.69887767485E+03  0.00000000000E+00 0. -1.
<mgrwt>
<rscale>  0 0.24650891E+04</rscale>
<asrwt>0</asrwt>
<pdfrwt beam="1">  1        2 0.10559080E+00 0.24650891E+04</pdfrwt>
<pdfrwt beam="2">  1       -2 0.34052773E+00 0.24650891E+04</pdfrwt>
<totfact> 0.67082679E-01</totfact>
</mgrwt>
</event>
<event>
 6    1  0.9906445E-006  0.3032845E+04  0.7818608E-02  0.8234413E-01
          1   -1    0    0  501    0  0.00000000000E+00  0.00000000000E+00  0.26929869812E+04  0.26929869812E+04  0.00000000000E+00 0. -1.
         -1   -1    0    0    0  501 -0.00000000000E+00 -0.00000000000E+00 -0.85389855556E+03  0.85389855556E+03  0.00000000000E+00 0.  1.
         23    2    1    2    0    0  0.65988186500E+03  0.94296545297E+03 -0.23178033046E+03  0.11776820153E+04  0.92654661192E+02 0.  0.
         11    1    3    3    0    0  0.61763795118E+03  0.83453730925E+03 -0.21164444347E+03  0.10595860181E+04  0.00000000000E+00 0.  1.
        -11    1    3    3    0    0  0.42243913820E+02  0.10842814372E+03 -0.20135886990E+02  0.11809599718E+03  0.00000000000E+00 0. -1.
         22    1    1    2    0    0 -0.65988186500E+03 -0.94296545297E+03  0.20708687561E+04  0.23692035215E+04  0.00000000000E+00 0. -1.
<mgrwt>
<rscale>  0 0.30328453E+04</rscale>
<asrwt>0</asrwt>
<pdfrwt beam="1">  1        1 0.41430568E+00 0.30328453E+04</pdfrwt>
<pdfrwt beam="2">  1       -1 0.13136901E+00 0.30328453E+04</pdfrwt>
<totfact> 0.41580726E-01</totfact>
</mgrwt>
</event>
<event>
 6    1  0.1050405E-005  0.1480882E+04  0.7818608E-02  0.8897267E-01
         -1   -1    0    0    0  501 -0.00000000000E+00  0.00000000000E+00  0.37841082603E+03  0.37841082603E+03  0.00000000000E+00 0.  1.
          1   -1    0    0  501    0  0.00000000000E+00 -0.00000000000E+00 -0.14488290813E+04  0.14488290813E+04  0.00000000000E+00 0. -1.
         23    2    1    2    0    0  0.35129620993E+03  0.64825859191E+03 -0.58873474820E+03  0.94652018456E+03  0.75124077023E+02 0.  0.
         13    1    3    3    0    0  0.10976052113E+03  0.24805066533E+03 -0.17964997507E+03  0.32534691962E+03  0.00000000000E+00 0. -1.
        -13    1    3    3    0    0  0.24153568879E+03  0.40020792659E+03 -0.40908477313E+03  0.62117326494E+03  0.00000000000E+00 0.  1.
         22    1    1    2    0    0 -0.35129620993E+03 -0.64825859191E+03 -0.48168350708E+03  0.88071972278E+03  0.00000000000E+00 0. -1.
<mgrwt>
<rscale>  0 0.14808816E+04</rscale>
<asrwt>0</asrwt>
<pdfrwt beam="1">  1        1 0.22289678E+00 0.14808816E+04</pdfrwt>
<pdfrwt beam="2">  1       -1 0.58217051E-01 0.14808816E+04</pdfrwt>
<totfact> 0.20565153E+01</totfact>
</mgrwt>
</event>
<event>
 6    1  0.9906445E-006  0.1979239E+04  0.7818608E-02  0.8616389E-01
          2   -1    0    0  501    0  0.00000000000E+00  0.00000000000E+00  0.14663443578E+04  0.14663443578E+04  0.00000000000E+00 0. -1.
         -2   -1    0    0    0  501 -0.00000000000E+00 -0.00000000000E+00 -0.66788343476E+03  0.66788343476E+03  0.00000000000E+00 0.  1.
         23    2    1    2    0    0 -0.14918327901E+03 -0.86599725128E+03 -0.85046925188E+02  0.88811663867E+03  0.96495048785E+02 0.  0.
         11    1    3    3    0    0 -0.15460288357E+03 -0.80744467605E+03 -0.97913109590E+02  0.82792266156E+03  0.00000000000E+00 0.  1.
        -11    1    3    3    0    0  0.54196045644E+01 -0.58552575231E+02  0.12866184402E+02  0.60193977115E+02  0.00000000000E+00 0. -1.
         22    1    1    2    0    0  0.14918327901E+03  0.86599725128E+03  0.88350784821E+03  0.12461111539E+04  0.00000000000E+00 0.  1.
<mgrwt>
<rscale>  0 0.19792394E+04</rscale>
<asrwt>0</asrwt>
<pdfrwt beam="1">  1        2 0.22559144E+00 0.19792394E+04</pdfrwt>
<pdfrwt beam="2">  1       -2 0.10275130E+00 0.19792394E+04</pdfrwt>
<totfact> 0.95578585E+00</totfact>
</mgrwt>
</event>
<event>
 6    1  0.9906445E-006  0.1241003E+04  0.7818608E-02  0.9077705E-01
          1   -1    0    0  501    0  0.00000000000E+00  0.00000000000E+00  0.13705962949E+04  0.13705962949E+04  0.00000000000E+00 0. -1.
         -1   -1    0    0    0  501 -0.00000000000E+00 -0.00000000000E+00 -0.28091580875E+03  0.28091580875E+03  0.00000000000E+00 0.  1.
         23    2    1    2    0    0 -0.15328264878E+03  0.57478883825E+03  0.76667577955E+03  0.97460013041E+03  0.90420596386E+02 0.  0.
         13    1    3    3    0    0 -0.70342433958E+02  0.25637046281E+03  0.27077487311E+03  0.37946396947E+03  0.00000000000E+00 0.  1.
        -13    1    3    3    0    0 -0.82940214822E+02  0.31841837544E+03  0.49590090643E+03  0.59513616093E+03  0.00000000000E+00 0. -1.
         22    1    1    2    0    0  0.15328264878E+03 -0.57478883825E+03  0.32300470656E+03  0.67691197319E+03  0.00000000000E+00 0. -1.
<mgrwt>
<rscale>  0 0.12410031E+04</rscale>
<asrwt>0</asrwt>
<pdfrwt beam="1">  1        1 0.21086096E+00 0.12410031E+04</pdfrwt>
<pdfrwt beam="2">  1       -1 0.43217818E-01 0.12410031E+04</pdfrwt>
<totfact> 0.41977725E+01</totfact>
</mgrwt>
</event>
<event>
 6    1  0.1788381E-005  0.2923170E+04  0.7818608E-02  0.8266017E-01
          1   -1    0    0  501    0  0.00000000000E+00  0.00000000000E+00  0.14935880188E+04  0.14935880188E+04  0.00000000000E+00 0. -1.
         -1   -1    0    0    0  501 -0.00000000000E+00 -0.00000000000E+00 -0.14302678406E+04  0.14302678406E+04  0.00000000000E+00 0.  1.
         23    2    1    2    0    0  0.14254470886E+04 -0.23016177464E+03 -0.18621825839E+03  0.14585424880E+04  0.88289889884E+02 0.  0.
         11    1    3    3    0    0  0.58003509633E+03 -0.62816884035E+02 -0.10627730973E+03  0.59302743651E+03  0.00000000000E+00 0. -1.
        -11    1    3    3    0    0  0.84541199228E+03 -0.16734489061E+03 -0.79940948654E+02  0.86551505150E+03  0.00000000000E+00 0.  1.
         22    1    1    2    0    0 -0.14254470886E+04  0.23016177464E+03  0.24953843656E+03  0.14653133713E+04  0.00000000000E+00 0.  1.
<mgrwt>
<rscale>  0 0.29231701E+04</rscale>
<asrwt>0</asrwt>
<pdfrwt beam="1">  1        1 0.22978277E+00 0.29231701E+04</pdfrwt>
<pdfrwt beam="2">  1       -1 0.22004121E+00 0.29231701E+04</pdfrwt>
<totfact> 0.62270251E-01</totfact>
</mgrwt>
</event>
<event>
 6    1  0.9906445E-006  0.5035018E+04  0.7818608E-02  0.7823128E-01
          1   -1    0    0  501    0  0.00000000000E+00  0.00000000000E+00  0.28766462189E+04  0.28766462189E+04  0.00000000000E+00 0.  1.
         -1   -1    0    0    0  501 -0.00000000000E+00 -0.00000000000E+00 -0.22032088193E+04  0.22032088193E+04  0.00000000000E+00 0. -1.
         23    2    1    2    0    0  0.14967331569E+04  0.13423099328E+04  0.18640934566E+04  0.27432618034E+04  0.92923668283E+02 0.  0.
         13    1    3    3    0    0  0.62824989290E+03  0.60535425656E+03  0.85482066642E+03  0.12214213342E+04  0.00000000000E+00 0.  1.
        -13    1    3    3    0    0  0.86848326405E+03  0.73695567619E+03  0.10092727902E+04  0.15218404692E+04  0.00000000000E+00 0. -1.
         22    1    1    2    0    0 -0.14967331569E+04 -0.13423099328E+04 -0.11906560570E+04  0.23365932348E+04  0.00000000000E+00 0. -1.
<mgrwt>
<rscale>  0 0.50350183E+04</rscale>
<asrwt>0</asrwt>
<pdfrwt beam="1">  1        1 0.44256096E+00 0.50350183E+04</pdfrwt>
<pdfrwt beam="2">  1       -1 0.33895520E+00 0.50350183E+04</pdfrwt>
<totfact> 0.97202912E-03</totfact>
</mgrwt>
</event>
<event>
 6    1  0.9906445E-006  0.1760103E+04  0.7818608E-02  0.8727809E-01
         -1   -1    0    0    0  501 -0.00000000000E+00  0.00000000000E+00  0.50685269420E+03  0.50685269420E+03  0.00000000000E+00 0.  1.
          1   -1    0    0  501    0  0.00000000000E+00 -0.00000000000E+00 -0.15280394260E+04  0.15280394260E+04  0.00000000000E+00 0. -1.
         23    2    1    2    0    0 -0.77155800603E+03  0.14182994611E+03 -0.96710711005E+03  0.12485448078E+04  0.90280033914E+02 0.  0.
         11    1    3    3    0    0 -0.43186807135E+03  0.34378014434E+02 -0.51858407560E+03  0.67573761357E+03  0.00000000000E+00 0. -1.
        -11    1    3    3    0    0 -0.33968993469E+03  0.10745193167E+03 -0.44852303444E+03  0.57280719424E+03  0.00000000000E+00 0.  1.
         22    1    1    2    0    0  0.77155800603E+03 -0.14182994611E+03 -0.54079621803E+02  0.78634731244E+03  0.00000000000E+00 0.  1.
<mgrwt>
<rscale>  0 0.17601033E+04</rscale>
<asrwt>0</asrwt>
<pdfrwt beam="1">  1        1 0.23508299E+00 0.17601033E+04</pdfrwt>
<pdfrwt beam="2">  1       -1 0.77977338E-01 0.17601033E+04</pdfrwt>
<totfact> 0.97551576E+00</totfact>
</mgrwt>
</event>
<event>
 6    1  0.9906445E-006  0.3829545E+04  0.7818608E-02  0.8039844E-01
          2   -1    0    0  501    0  0.00000000000E+00  0.00000000000E+00  0.51879161445E+04  0.51879161445E+04  0.00000000000E+00 0. -1.
         -2   -1    0    0    0  501 -0.00000000000E+00 -0.00000000000E+00 -0.70671028077E+03  0.70671028077E+03  0.00000000000E+00 0.  1.
         23    2    1    2    0    0  0.16340232515E+04 -0.43133934698E+03  0.85969535379E+03  0.18982000225E+04  0.89451693903E+02 0.  0.
         13    1    3    3    0    0  0.65766147565E+03 -0.18843792809E+03  0.39471282883E+03  0.78982636481E+03  0.00000000000E+00 0. -1.
        -13    1    3    3    0    0  0.97636177586E+03 -0.24290141889E+03  0.46498252495E+03  0.11083736577E+04  0.00000000000E+00 0.  1.
         22    1    1    2    0    0 -0.16340232515E+04  0.43133934698E+03  0.36215105099E+04  0.39964264027E+04  0.00000000000E+00 0. -1.
<mgrwt>
<rscale>  0 0.38295450E+04</rscale>
<asrwt>0</asrwt>
<pdfrwt beam="1">  1        2 0.79814092E+00 0.38295450E+04</pdfrwt>
<pdfrwt beam="2">  1       -2 0.10872466E+00 0.38295450E+04</pdfrwt>
<totfact> 0.10244887E-02</totfact>
</mgrwt>
</event>
<event>
 6    1  0.9906445E-006  0.4791571E+04  0.7818608E-02  0.7861489E-01
          2   -1    0    0  501    0  0.00000000000E+00  0.00000000000E+00  0.47838938871E+04  0.47838938871E+04  0.00000000000E+00 0. -1.
         -2   -1    0    0    0  501 -0.00000000000E+00 -0.00000000000E+00 -0.11998150681E+04  0.11998150681E+04  0.00000000000E+00 0.  1.
         23    2    1    2    0    0 -0.92626625346E+03  0.64523163802E+03 -0.84536960694E+03  0.14126799247E+04  0.81986329702E+02 0.  0.
         13    1    3    3    0    0 -0.78258954158E+03  0.51005433278E+03 -0.71231264027E+03  0.11747302288E+04  0.00000000000E+00 0. -1.
        -13    1    3    3    0    0 -0.14367671188E+03  0.13517730524E+03 -0.13305696668E+03  0.23794969588E+03  0.00000000000E+00 0.  1.
         22    1    1    2    0    0  0.92626625346E+03 -0.64523163802E+03  0.44294484260E+04  0.45710290305E+04  0.00000000000E+00 0. -1.
<mgrwt>
<rscale>  0 0.47915709E+04</rscale>
<asrwt>0</asrwt>
<pdfrwt beam="1">  1        2 0.73598366E+00 0.47915709E+04</pdfrwt>
<pdfrwt beam="2">  1       -2 0.18458694E+00 0.47915709E+04</pdfrwt>
<totfact> 0.76465707E-03</totfact>
</mgrwt>
</event>
<event>
 6    1  0.9906445E-006  0.1433132E+04  0.7818608E-02  0.8930179E-01
          2   -1    0    0  501    0  0.00000000000E+00  0.00000000000E+00  0.10597552149E+04  0.10597552149E+04  0.00000000000E+00 0. -1.
         -2   -1    0    0    0  501 -0.00000000000E+00 -0.00000000000E+00 -0.48451431406E+03  0.48451431406E+03  0.00000000000E+00 0.  1.
         23    2    1    2    0    0  0.53093611829E+03  0.24169405046E+03 -0.15666370947E+03  0.60832426649E+03  0.72150672961E+02 0.  0.
         11    1    3    3    0    0  0.19787868543E+03  0.60827580683E+02 -0.78162539057E+02  0.22128115878E+03  0.00000000000E+00 0.  1.
        -11    1    3    3    0    0  0.33305743286E+03  0.18086646978E+03 -0.78501170410E+02  0.38704310771E+03  0.00000000000E+00 0. -1.
         22    1    1    2    0    0 -0.53093611829E+03 -0.24169405046E+03  0.73190461030E+03  0.93594526246E+03  0.00000000000E+00 0. -1.
<mgrwt>
<rscale>  0 0.14331316E+04</rscale>
<asrwt>0</asrwt>
<pdfrwt beam="1">  1        2 0.16303926E+00 0.14331316E+04</pdfrwt>
<pdfrwt beam="2">  1       -2 0.74540664E-01 0.14331316E+04</pdfrwt>
<totfact> 0.36283302E+01</totfact>
</mgrwt>
</event>
<event>
 6    1  0.9906445E-006  0.3409090E+04  0.7818608E-02  0.8135679E-01
          1   -1    0    0  501    0  0.00000000000E+00  0.00000000000E+00  0.24581077632E+04  0.24581077632E+04  0.00000000000E+00 0. -1.
         -1   -1    0    0    0  501 -0.00000000000E+00 -0.00000000000E+00 -0.11819960801E+04  0.11819960801E+04  0.00000000000E+00 0.  1.
         23    2    1    2    0    0 -0.41868037548E+03 -0.15881921559E+04  0.15664282595E+03  0.16524272843E+04  0.91276359685E+02 0.  0.
         11    1    3    3    0    0 -0.74344755476E+02 -0.16957578951E+03  0.14990367895E+02  0.18576275780E+03  0.00000000000E+00 0. -1.
        -11    1    3    3    0    0 -0.34433562000E+03 -0.14186163664E+04  0.14165245806E+03  0.14666645265E+04  0.00000000000E+00 0.  1.
         22    1    1    2    0    0  0.41868037548E+03  0.15881921559E+04  0.11194688572E+04  0.19876765590E+04  0.00000000000E+00 0.  1.
<mgrwt>
<rscale>  0 0.34090900E+04</rscale>
<asrwt>0</asrwt>
<pdfrwt beam="1">  1        1 0.37817042E+00 0.34090900E+04</pdfrwt>
<pdfrwt beam="2">  1       -1 0.18184555E+00 0.34090900E+04</pdfrwt>
<totfact> 0.24031768E-01</totfact>
</mgrwt>
</event>
<event>
 6    1  0.9906445E-006  0.5102779E+04  0.7818608E-02  0.7812845E-01
         -1   -1    0    0    0  501 -0.00000000000E+00  0.00000000000E+00  0.20922757471E+04  0.20922757471E+04  0.00000000000E+00 0.  1.
          1   -1    0    0  501    0  0.00000000000E+00 -0.00000000000E+00 -0.31112476442E+04  0.31112476442E+04  0.00000000000E+00 0. -1.
         23    2    1    2    0    0 -0.55060284100E+03  0.11189398788E+03 -0.30466758562E+04  0.30994161937E+04  0.91995739258E+02 0.  0.
         13    1    3    3    0    0 -0.37530975827E+03  0.11929542331E+03 -0.21309991600E+04  0.21670824240E+04  0.00000000000E+00 0. -1.
        -13    1    3    3    0    0 -0.17529308273E+03 -0.74014354226E+01 -0.91567669623E+03  0.93233376970E+03  0.00000000000E+00 0.  1.
         22    1    1    2    0    0  0.55060284100E+03 -0.11189398788E+03  0.20277039591E+04  0.21041071976E+04  0.00000000000E+00 0.  1.
<mgrwt>
<rscale>  0 0.51027788E+04</rscale>
<asrwt>0</asrwt>
<pdfrwt beam="1">  1        1 0.47865348E+00 0.51027788E+04</pdfrwt>
<pdfrwt beam="2">  1       -1 0.32188858E+00 0.51027788E+04</pdfrwt>
<totfact> 0.84325275E-03</totfact>
</mgrwt>
</event>
<event>
 6    1  0.9906445E-006  0.5724122E+03  0.7818608E-02  0.9964355E-01
         -2   -1    0    0    0  501 -0.00000000000E+00  0.00000000000E+00  0.29262845588E+03  0.29262845588E+03  0.00000000000E+00 0.  1.
          2   -1    0    0  501    0  0.00000000000E+00 -0.00000000000E+00 -0.27992471323E+03  0.27992471323E+03  0.00000000000E+00 0. -1.
         23    2    1    2    0    0  0.17047613753E+03  0.66183438389E+02 -0.20365147986E+03  0.28926542970E+03  0.93585269070E+02 0.  0.
         11    1    3    3    0    0  0.44602504348E+02  0.40746552459E+02 -0.12458195079E+03  0.13845695141E+03  0.00000000000E+00 0.  1.
        -11    1    3    3    0    0  0.12587363319E+03  0.25436885930E+02 -0.79069529068E+02  0.15080847829E+03  0.00000000000E+00 0. -1.
         22    1    1    2    0    0 -0.17047613753E+03 -0.66183438389E+02  0.21635522251E+03  0.28328773940E+03  0.00000000000E+00 0.  1.
<mgrwt>
<rscale>  0 0.57241222E+03</rscale>
<asrwt>0</asrwt>
<pdfrwt beam="1">  1        2 0.43065340E-01 0.57241222E+03</pdfrwt>
<pdfrwt beam="2">  1       -2 0.45019763E-01 0.57241222E+03</pdfrwt>
<totfact> 0.55921110E+02</totfact>
</mgrwt>
</event>
<event>
 6    1  0.9906445E-006  0.2499026E+04  0.7818608E-02  0.8403333E-01
          2   -1    0    0  501    0  0.00000000000E+00  0.00000000000E+00  0.36014444153E+04  0.36014444153E+04  0.00000000000E+00 0. -1.
         -2   -1    0    0    0  501 -0.00000000000E+00 -0.00000000000E+00 -0.43351570854E+03  0.43351570854E+03  0.00000000000E+00 0.  1.
         23    2    1    2    0    0  0.61685021141E+03  0.10469263170E+04  0.11282627036E+04  0.16607663026E+04  0.92785164913E+02 0.  0.
         11    1    3    3    0    0  0.31465522921E+03  0.58175770933E+03  0.55978148833E+03  0.86649019632E+03  0.00000000000E+00 0.  1.
        -11    1    3    3    0    0  0.30219498220E+03  0.46516860767E+03  0.56848121530E+03  0.79427610627E+03  0.00000000000E+00 0. -1.
         22    1    1    2    0    0 -0.61685021141E+03 -0.10469263170E+04  0.20396660031E+04  0.23741938212E+04  0.00000000000E+00 0.  1.
<mgrwt>
<rscale>  0 0.24990260E+04</rscale>
<asrwt>0</asrwt>
<pdfrwt beam="1">  1        2 0.55406835E+00 0.24990260E+04</pdfrwt>
<pdfrwt beam="2">  1       -2 0.66694727E-01 0.24990260E+04</pdfrwt>
<totfact> 0.12708067E+00</totfact>
</mgrwt>
</event>
<event>
 6    1  0.9906445E-006  0.1891877E+04  0.7818608E-02  0.8658910E-01
          2   -1    0    0  501    0  0.00000000000E+00  0.00000000000E+00  0.26184423748E+04  0.26184423748E+04  0.00000000000E+00 0. -1.
         -2   -1    0    0    0  501 -0.00000000000E+00 -0.00000000000E+00 -0.34172986456E+03  0.34172986456E+03  0.00000000000E+00 0.  1.
         23    2    1    2    0    0 -0.37543948653E+03  0.85305099844E+03  0.91991835957E+03  0.13141038382E+04  0.10939970438E+03 0.  0.
         11    1    3    3    0    0 -0.10986464230E+03  0.26507218329E+03  0.21529221441E+03  0.35872585573E+03  0.00000000000E+00 0.  1.
        -11    1    3    3    0    0 -0.26557484424E+03  0.58797881515E+03  0.70462614516E+03  0.95537798247E+03  0.00000000000E+00 0. -1.
         22    1    1    2    0    0  0.37543948653E+03 -0.85305099844E+03  0.13567941507E+04  0.16460684011E+04  0.00000000000E+00 0. -1.
<mgrwt>
<rscale>  0 0.18918773E+04</rscale>
<asrwt>0</asrwt>
<pdfrwt beam="1">  1        2 0.40283728E+00 0.18918773E+04</pdfrwt>
<pdfrwt beam="2">  1       -2 0.52573827E-01 0.18918773E+04</pdfrwt>
<totfact> 0.95076657E+00</totfact>
</mgrwt>
</event>
<event>
 6    1  0.9906445E-006  0.1988202E+04  0.7818608E-02  0.8612157E-01
          2   -1    0    0  501    0  0.00000000000E+00  0.00000000000E+00  0.14344186145E+04  0.14344186145E+04  0.00000000000E+00 0.  1.
         -2   -1    0    0    0  501 -0.00000000000E+00 -0.00000000000E+00 -0.68894590037E+03  0.68894590037E+03  0.00000000000E+00 0. -1.
         23    2    1    2    0    0  0.11481273069E+03 -0.59743526569E+03 -0.46334270099E+03  0.77009234430E+03  0.90801433747E+02 0.  0.
         13    1    3    3    0    0  0.56461060905E+02 -0.20091188622E+03 -0.20930474907E+03  0.29557049143E+03  0.00000000000E+00 0. -1.
        -13    1    3    3    0    0  0.58351669786E+02 -0.39652337947E+03 -0.25403795192E+03  0.47452185286E+03  0.00000000000E+00 0.  1.
         22    1    1    2    0    0 -0.11481273069E+03  0.59743526569E+03  0.12088154151E+04  0.13532721706E+04  0.00000000000E+00 0.  1.
<mgrwt>
<rscale>  0 0.19882020E+04</rscale>
<asrwt>0</asrwt>
<pdfrwt beam="1">  1        2 0.22067979E+00 0.19882020E+04</pdfrwt>
<pdfrwt beam="2">  1       -2 0.10599168E+00 0.19882020E+04</pdfrwt>
<totfact> 0.92439290E+00</totfact>
</mgrwt>
</event>
<event>
 6    1  0.9906445E-006  0.1887009E+04  0.7818608E-02  0.8661350E-01
         -2   -1    0    0    0  501 -0.00000000000E+00  0.00000000000E+00  0.32409414860E+03  0.32409414860E+03  0.00000000000E+00 0.  1.
          2   -1    0    0  501    0  0.00000000000E+00 -0.00000000000E+00 -0.27467364547E+04  0.27467364547E+04  0.00000000000E+00 0. -1.
         23    2    1    2    0    0  0.28511109982E+03  0.49923135796E+03 -0.24270096652E+04  0.24959050761E+04  0.92983579046E+02 0.  0.
         13    1    3    3    0    0  0.19158373954E+03  0.38421394010E+03 -0.16542614957E+04  0.17090657616E+04  0.00000000000E+00 0.  1.
        -13    1    3    3    0    0  0.93527360279E+02  0.11501741786E+03 -0.77274816942E+03  0.78683931452E+03  0.00000000000E+00 0. -1.
         22    1    1    2    0    0 -0.28511109982E+03 -0.49923135796E+03  0.43673590703E+01  0.57492552721E+03  0.00000000000E+00 0.  1.
<mgrwt>
<rscale>  0 0.18870095E+04</rscale>
<asrwt>0</asrwt>
<pdfrwt beam="1">  1        2 0.42257483E+00 0.18870095E+04</pdfrwt>
<pdfrwt beam="2">  1       -2 0.49860639E-01 0.18870095E+04</pdfrwt>
<totfact> 0.89006025E+00</totfact>
</mgrwt>
</event>
<event>
 6    1  0.9906445E-006  0.4969586E+04  0.7818608E-02  0.7833216E-01
          2   -1    0    0  501    0  0.00000000000E+00  0.00000000000E+00  0.28772889504E+04  0.28772889504E+04  0.00000000000E+00 0. -1.
         -2   -1    0    0    0  501 -0.00000000000E+00 -0.00000000000E+00 -0.21458381597E+04  0.21458381597E+04  0.00000000000E+00 0.  1.
         23    2    1    2    0    0 -0.15988026304E+04  0.19008492861E+04  0.39149781670E+03  0.25161436871E+04  0.91162790272E+02 0.  0.
         11    1    3    3    0    0 -0.41281604139E+03  0.46786129095E+03  0.13558307925E+03  0.63850923484E+03  0.00000000000E+00 0.  1.
        -11    1    3    3    0    0 -0.11859865890E+04  0.14329879951E+04  0.25591473745E+03  0.18776344522E+04  0.00000000000E+00 0. -1.
         22    1    1    2    0    0  0.15988026304E+04 -0.19008492861E+04  0.33995297400E+03  0.25069834231E+04  0.00000000000E+00 0.  1.
<mgrwt>
<rscale>  0 0.49695861E+04</rscale>
<asrwt>0</asrwt>
<pdfrwt beam="1">  1        2 0.44265984E+00 0.49695861E+04</pdfrwt>
<pdfrwt beam="2">  1       -2 0.33012895E+00 0.49695861E+04</pdfrwt>
<totfact> 0.31363870E-02</totfact>
</mgrwt>
</event>
<event>
 6    1  0.9906445E-006  0.1566077E+04  0.7818608E-02  0.8841664E-01
         -1   -1    0    0    0  501 -0.00000000000E+00  0.00000000000E+00  0.29309697031E+03  0.29309697031E+03  0.00000000000E+00 0.  1.
          1   -1    0    0  501    0  0.00000000000E+00 -0.00000000000E+00 -0.20919660273E+04  0.20919660273E+04  0.00000000000E+00 0. -1.
         23    2    1    2    0    0 -0.33858678647E+03 -0.49067419342E+03 -0.16694873460E+04  0.17750287336E+04  0.90204383605E+02 0.  0.
         13    1    3    3    0    0 -0.26554122982E+03 -0.33066244093E+03 -0.10966324807E+04  0.11757774417E+04  0.00000000000E+00 0. -1.
        -13    1    3    3    0    0 -0.73045556655E+02 -0.16001175249E+03 -0.57285486522E+03  0.59925129193E+03  0.00000000000E+00 0.  1.
         22    1    1    2    0    0  0.33858678647E+03  0.49067419342E+03 -0.12938171100E+03  0.61003426396E+03  0.00000000000E+00 0.  1.
<mgrwt>
<rscale>  0 0.15660765E+04</rscale>
<asrwt>0</asrwt>
<pdfrwt beam="1">  1        1 0.32184092E+00 0.15660765E+04</pdfrwt>
<pdfrwt beam="2">  1       -1 0.45091842E-01 0.15660765E+04</pdfrwt>
<totfact> 0.12123325E+01</totfact>
</mgrwt>
</event>
<event>
 6    1  0.9906445E-006  0.3545027E+04  0.7818608E-02  0.8103201E-01
         -1   -1    0    0    0  501 -0.00000000000E+00  0.00000000000E+00  0.17453244214E+04  0.17453244214E+04  0.00000000000E+00 0.  1.
          1   -1    0    0  501    0  0.00000000000E+00 -0.00000000000E+00 -0.18001262581E+04  0.18001262581E+04  0.00000000000E+00 0. -1.
         23    2    1    2    0    0  0.41538790775E+03 -0.80532131889E+03 -0.15496144180E+04  0.17974363221E+04  0.91558433782E+02 0.  0.
         13    1    3    3    0    0  0.19587381040E+03 -0.29560372910E+03 -0.56018347482E+03  0.66298841597E+03  0.00000000000E+00 0. -1.
        -13    1    3    3    0    0  0.21951409735E+03 -0.50971758980E+03 -0.98943094321E+03  0.11344479061E+04  0.00000000000E+00 0.  1.
         22    1    1    2    0    0 -0.41538790775E+03  0.80532131889E+03  0.14948125813E+04  0.17480143574E+04  0.00000000000E+00 0.  1.
<mgrwt>
<rscale>  0 0.35450271E+04</rscale>
<asrwt>0</asrwt>
<pdfrwt beam="1">  1        1 0.27694250E+00 0.35450271E+04</pdfrwt>
<pdfrwt beam="2">  1       -1 0.26851145E+00 0.35450271E+04</pdfrwt>
<totfact> 0.17490554E-01</totfact>
</mgrwt>
</event>
<event>
 6    1  0.9906445E-006  0.2195025E+04  0.7818608E-02  0.8520502E-01
         -2   -1    0    0    0  501 -0.00000000000E+00  0.00000000000E+00  0.62159716499E+03  0.62159716499E+03  0.00000000000E+00 0.  1.
          2   -1    0    0  501    0  0.00000000000E+00 -0.00000000000E+00 -0.19378046607E+04  0.19378046607E+04  0.00000000000E+00 0. -1.
         23    2    1    2    0    0 -0.54657012470E+03 -0.91748710364E+03 -0.37369081683E+03  0.11350215476E+04  0.90042214828E+02 0.  0.
         11    1    3    3    0    0 -0.31905738112E+03 -0.61356550223E+03 -0.22408536713E+03  0.72696250916E+03  0.00000000000E+00 0.  1.
        -11    1    3    3    0    0 -0.22751274358E+03 -0.30392160142E+03 -0.14960544969E+03  0.40805903847E+03  0.00000000000E+00 0. -1.
         22    1    1    2    0    0  0.54657012470E+03  0.91748710364E+03 -0.94251667894E+03  0.14243802781E+04  0.00000000000E+00 0.  1.
<mgrwt>
<rscale>  0 0.21950252E+04</rscale>
<asrwt>0</asrwt>
<pdfrwt beam="1">  1        2 0.29812379E+00 0.21950252E+04</pdfrwt>
<pdfrwt beam="2">  1       -2 0.95630334E-01 0.21950252E+04</pdfrwt>
<totfact> 0.60709233E+00</totfact>
</mgrwt>
</event>
<event>
 6    1  0.1005272E-005  0.2095779E+04  0.7818608E-02  0.8563105E-01
         -1   -1    0    0    0  501 -0.00000000000E+00  0.00000000000E+00  0.64908701918E+03  0.64908701918E+03  0.00000000000E+00 0.  1.
          1   -1    0    0  501    0  0.00000000000E+00 -0.00000000000E+00 -0.16917184286E+04  0.16917184286E+04  0.00000000000E+00 0. -1.
         23    2    1    2    0    0  0.10294977564E+04 -0.12455859973E+03 -0.67458290358E+03  0.12404236150E+04  0.90598983735E+02 0.  0.
         11    1    3    3    0    0  0.55471567995E+03 -0.21595932617E+02 -0.36081395465E+03  0.66208955569E+03  0.00000000000E+00 0. -1.
        -11    1    3    3    0    0  0.47478207640E+03 -0.10296266711E+03 -0.31376894893E+03  0.57833405935E+03  0.00000000000E+00 0.  1.
         22    1    1    2    0    0 -0.10294977564E+04  0.12455859973E+03 -0.36804850580E+03  0.11003818327E+04  0.00000000000E+00 0. -1.
<mgrwt>
<rscale>  0 0.20957791E+04</rscale>
<asrwt>0</asrwt>
<pdfrwt beam="1">  1        1 0.26026437E+00 0.20957791E+04</pdfrwt>
<pdfrwt beam="2">  1       -1 0.99859542E-01 0.20957791E+04</pdfrwt>
<totfact> 0.42472797E+00</totfact>
</mgrwt>
</event>
<event>
 6    1  0.9906445E-006  0.1651877E+04  0.7818608E-02  0.8789297E-01
         -2   -1    0    0    0  501 -0.00000000000E+00  0.00000000000E+00  0.45882319625E+03  0.45882319625E+03  0.00000000000E+00 0.  1.
          2   -1    0    0  501    0  0.00000000000E+00 -0.00000000000E+00 -0.14867921078E+04  0.14867921078E+04  0.00000000000E+00 0. -1.
         23    2    1    2    0    0  0.26696747667E+03 -0.42537710106E+03  0.25302051219E+03  0.56969698691E+03  0.91202881540E+02 0.  0.
         13    1    3    3    0    0  0.21544721045E+03 -0.32097254763E+03  0.23357003976E+03  0.45165898673E+03  0.00000000000E+00 0. -1.
        -13    1    3    3    0    0  0.51520266222E+02 -0.10440455343E+03  0.19450472429E+02  0.11803800018E+03  0.00000000000E+00 0.  1.
         22    1    1    2    0    0 -0.26696747667E+03  0.42537710106E+03 -0.12809894237E+04  0.13759183171E+04  0.00000000000E+00 0. -1.
<mgrwt>
<rscale>  0 0.16518774E+04</rscale>
<asrwt>0</asrwt>
<pdfrwt beam="1">  1        2 0.22873725E+00 0.16518774E+04</pdfrwt>
<pdfrwt beam="2">  1       -2 0.70588184E-01 0.16518774E+04</pdfrwt>
<totfact> 0.22511394E+01</totfact>
</mgrwt>
</event>
<event>
 6    1  0.9906445E-006  0.1899604E+04  0.7818608E-02  0.8655053E-01
         -2   -1    0    0    0  501 -0.00000000000E+00  0.00000000000E+00  0.40677117527E+03  0.40677117527E+03  0.00000000000E+00 0.  1.
          2   -1    0    0  501    0  0.00000000000E+00 -0.00000000000E+00 -0.22177685041E+04  0.22177685041E+04  0.00000000000E+00 0. -1.
         23    2    1    2    0    0 -0.31998960932E+02 -0.55916485424E+03  0.14980472700E+03  0.58531581479E+03  0.80398253050E+02 0.  0.
         11    1    3    3    0    0 -0.19251162038E+02 -0.40814067520E+02 -0.16014465690E+01  0.45154844462E+02  0.00000000000E+00 0. -1.
        -11    1    3    3    0    0 -0.12747798894E+02 -0.51835078672E+03  0.15140617357E+03  0.54016097033E+03  0.00000000000E+00 0.  1.
         22    1    1    2    0    0  0.31998960932E+02  0.55916485424E+03 -0.19608020558E+04  0.20392238646E+04  0.00000000000E+00 0. -1.
<mgrwt>
<rscale>  0 0.18996045E+04</rscale>
<asrwt>0</asrwt>
<pdfrwt beam="1">  1        2 0.34119515E+00 0.18996045E+04</pdfrwt>
<pdfrwt beam="2">  1       -2 0.62580181E-01 0.18996045E+04</pdfrwt>
<totfact> 0.11194181E+01</totfact>
</mgrwt>
</event>
<event>
 6    1  0.9906445E-006  0.4974223E+03  0.7818608E-02  0.1014454E+00
          2   -1    0    0  501    0  0.00000000000E+00  0.00000000000E+00  0.59183629390E+03  0.59183629390E+03  0.00000000000E+00 0.  1.
         -2   -1    0    0    0  501 -0.00000000000E+00 -0.00000000000E+00 -0.10451747355E+03  0.10451747355E+03  0.00000000000E+00 0. -1.
         23    2    1    2    0    0 -0.49061997851E+02  0.17839368346E+03  0.36762758175E+02  0.20928893492E+03  0.90658545973E+02 0.  0.
         11    1    3    3    0    0 -0.35570814227E+02  0.60776894847E+02 -0.26276198856E+02  0.75163504431E+02  0.00000000000E+00 0. -1.
        -11    1    3    3    0    0 -0.13491183623E+02  0.11761678861E+03  0.63038957030E+02  0.13412543048E+03  0.00000000000E+00 0.  1.
         22    1    1    2    0    0  0.49061997851E+02 -0.17839368346E+03  0.45055606218E+03  0.48706483254E+03  0.00000000000E+00 0.  1.
<mgrwt>
<rscale>  0 0.49742229E+03</rscale>
<asrwt>0</asrwt>
<pdfrwt beam="1">  1        2 0.91051735E-01 0.49742229E+03</pdfrwt>
<pdfrwt beam="2">  1       -2 0.16079612E-01 0.49742229E+03</pdfrwt>
<totfact> 0.15691117E+03</totfact>
</mgrwt>
</event>
<event>
 6    1  0.9906445E-006  0.2884428E+04  0.7818608E-02  0.8277526E-01
          1   -1    0    0  501    0  0.00000000000E+00  0.00000000000E+00  0.34175867045E+04  0.34175867045E+04  0.00000000000E+00 0. -1.
         -1   -1    0    0    0  501 -0.00000000000E+00 -0.00000000000E+00 -0.60861111998E+03  0.60861111998E+03  0.00000000000E+00 0.  1.
         23    2    1    2    0    0  0.43756396783E+03 -0.41711643567E+03 -0.41978853830E+03  0.74132855650E+03  0.88866557016E+02 0.  0.
         13    1    3    3    0    0  0.20709121132E+03 -0.24581837935E+03 -0.18860219588E+03  0.37267175064E+03  0.00000000000E+00 0.  1.
        -13    1    3    3    0    0  0.23047275651E+03 -0.17129805631E+03 -0.23118634241E+03  0.36865680586E+03  0.00000000000E+00 0. -1.
         22    1    1    2    0    0 -0.43756396783E+03  0.41711643567E+03  0.32287641228E+04  0.32848692680E+04  0.00000000000E+00 0. -1.
<mgrwt>
<rscale>  0 0.28844280E+04</rscale>
<asrwt>0</asrwt>
<pdfrwt beam="1">  1        1 0.52578256E+00 0.28844280E+04</pdfrwt>
<pdfrwt beam="2">  1       -1 0.93632481E-01 0.28844280E+04</pdfrwt>
<totfact> 0.27549033E-01</totfact>
</mgrwt>
</event>
<event>
 6    1  0.9906445E-006  0.1849575E+04  0.7818608E-02  0.8680372E-01
          1   -1    0    0  501    0  0.00000000000E+00  0.00000000000E+00  0.10971057599E+04  0.10971057599E+04  0.00000000000E+00 0. -1.
         -1   -1    0    0    0  501 -0.00000000000E+00 -0.00000000000E+00 -0.77953433496E+03  0.77953433496E+03  0.00000000000E+00 0.  1.
         23    2    1    2    0    0  0.10415620213E+03 -0.41275934789E+03  0.98962387491E+03  0.10811067585E+04  0.90651066362E+02 0.  0.
         13    1    3    3    0    0  0.73096155157E+02 -0.17304049518E+03  0.34802727415E+03  0.39548583340E+03  0.00000000000E+00 0. -1.
        -13    1    3    3    0    0  0.31060046977E+02 -0.23971885270E+03  0.64159660076E+03  0.68562092513E+03  0.00000000000E+00 0.  1.
         22    1    1    2    0    0 -0.10415620213E+03  0.41275934789E+03 -0.67205244997E+03  0.79553333634E+03  0.00000000000E+00 0.  1.
<mgrwt>
<rscale>  0 0.18495747E+04</rscale>
<asrwt>0</asrwt>
<pdfrwt beam="1">  1        1 0.16878550E+00 0.18495747E+04</pdfrwt>
<pdfrwt beam="2">  1       -1 0.11992836E+00 0.18495747E+04</pdfrwt>
<totfact> 0.74243929E+00</totfact>
</mgrwt>
</event>
<event>
 6    1  0.9906445E-006  0.2503448E+04  0.7818608E-02  0.8401758E-01
          2   -1    0    0  501    0  0.00000000000E+00  0.00000000000E+00  0.66366690954E+03  0.66366690954E+03  0.00000000000E+00 0. -1.
         -2   -1    0    0    0  501 -0.00000000000E+00 -0.00000000000E+00 -0.23608426368E+04  0.23608426368E+04  0.00000000000E+00 0.  1.
         23    2    1    2    0    0  0.40847329298E+03 -0.27806427668E+03 -0.22369150490E+04  0.22927386064E+04  0.93226647820E+02 0.  0.
         13    1    3    3    0    0  0.18881613802E+03 -0.15921218400E+03 -0.12906989895E+04  0.13141171694E+04  0.00000000000E+00 0. -1.
        -13    1    3    3    0    0  0.21965715497E+03 -0.11885209268E+03 -0.94621605951E+03  0.97862143699E+03  0.00000000000E+00 0.  1.
         22    1    1    2    0    0 -0.40847329298E+03  0.27806427668E+03  0.53973932175E+03  0.73177093991E+03  0.00000000000E+00 0. -1.
<mgrwt>
<rscale>  0 0.25034481E+04</rscale>
<asrwt>0</asrwt>
<pdfrwt beam="1">  1        2 0.10210260E+00 0.25034481E+04</pdfrwt>
<pdfrwt beam="2">  1       -2 0.36320655E+00 0.25034481E+04</pdfrwt>
<totfact> 0.50147709E-01</totfact>
</mgrwt>
</event>
<event>
 6    1  0.9906445E-006  0.2449326E+04  0.7818608E-02  0.8421264E-01
         -2   -1    0    0    0  501 -0.00000000000E+00  0.00000000000E+00  0.12113551599E+04  0.12113551599E+04  0.00000000000E+00 0. -1.
          2   -1    0    0  501    0  0.00000000000E+00 -0.00000000000E+00 -0.12381174418E+04  0.12381174418E+04  0.00000000000E+00 0.  1.
         23    2    1    2    0    0 -0.47372972197E+03 -0.74035279241E+03  0.83698317891E+03  0.12171583853E+04  0.91605603002E+02 0.  0.
         11    1    3    3    0    0 -0.45872964338E+03 -0.68391542743E+03  0.76068784460E+03  0.11210794773E+04  0.00000000000E+00 0. -1.
        -11    1    3    3    0    0 -0.15000078591E+02 -0.56437364981E+02  0.76295334310E+02  0.96078907993E+02  0.00000000000E+00 0.  1.
         22    1    1    2    0    0  0.47372972197E+03  0.74035279241E+03 -0.86374546088E+03  0.12323142164E+04  0.00000000000E+00 0.  1.
<mgrwt>
<rscale>  0 0.24493264E+04</rscale>
<asrwt>0</asrwt>
<pdfrwt beam="1">  1        2 0.19047961E+00 0.24493264E+04</pdfrwt>
<pdfrwt beam="2">  1       -2 0.18636233E+00 0.24493264E+04</pdfrwt>
<totfact> 0.26406506E+00</totfact>
</mgrwt>
</event>
<event>
 6    1  0.9906445E-006  0.2153348E+04  0.7818608E-02  0.8538101E-01
          2   -1    0    0  501    0  0.00000000000E+00  0.00000000000E+00  0.24267375742E+04  0.24267375742E+04  0.00000000000E+00 0.  1.
         -2   -1    0    0    0  501 -0.00000000000E+00 -0.00000000000E+00 -0.47768943614E+03  0.47768943614E+03  0.00000000000E+00 0. -1.
         23    2    1    2    0    0 -0.17880613278E+03 -0.92804353721E+03  0.16663626563E+04  0.19179446122E+04  0.92252877315E+02 0.  0.
         11    1    3    3    0    0 -0.30160603964E+02 -0.28732768321E+03  0.44081104295E+03  0.52704955665E+03  0.00000000000E+00 0.  1.
        -11    1    3    3    0    0 -0.14864552882E+03 -0.64071585399E+03  0.12255516133E+04  0.13908950556E+04  0.00000000000E+00 0. -1.
         22    1    1    2    0    0  0.17880613278E+03  0.92804353721E+03  0.28268548176E+03  0.98648239805E+03  0.00000000000E+00 0. -1.
<mgrwt>
<rscale>  0 0.21533480E+04</rscale>
<asrwt>0</asrwt>
<pdfrwt beam="1">  1        2 0.37334424E+00 0.21533480E+04</pdfrwt>
<pdfrwt beam="2">  1       -2 0.73490684E-01 0.21533480E+04</pdfrwt>
<totfact> 0.58817344E+00</totfact>
</mgrwt>
</event>
<event>
 6    1  0.9906445E-006  0.1619020E+04  0.7818608E-02  0.8808948E-01
         -1   -1    0    0    0  501 -0.00000000000E+00  0.00000000000E+00  0.40189461612E+03  0.40189461612E+03  0.00000000000E+00 0.  1.
          1   -1    0    0  501    0  0.00000000000E+00 -0.00000000000E+00 -0.16305435950E+04  0.16305435950E+04  0.00000000000E+00 0. -1.
         23    2    1    2    0    0  0.45688136833E+03  0.56649746575E+03 -0.17844102444E+03  0.75470713182E+03  0.89898232383E+02 0.  0.
         11    1    3    3    0    0  0.20508610909E+03  0.18498257667E+03 -0.68810219045E+02  0.28462907802E+03  0.00000000000E+00 0. -1.
        -11    1    3    3    0    0  0.25179525925E+03  0.38151488908E+03 -0.10963080540E+03  0.47007805380E+03  0.00000000000E+00 0.  1.
         22    1    1    2    0    0 -0.45688136833E+03 -0.56649746575E+03 -0.10502079544E+04  0.12777310793E+04  0.00000000000E+00 0. -1.
<mgrwt>
<rscale>  0 0.16190203E+04</rscale>
<asrwt>0</asrwt>
<pdfrwt beam="1">  1        1 0.25085286E+00 0.16190203E+04</pdfrwt>
<pdfrwt beam="2">  1       -1 0.61829941E-01 0.16190203E+04</pdfrwt>
<totfact> 0.13514568E+01</totfact>
</mgrwt>
</event>
<event>
 6    1  0.9906445E-006  0.1082190E+04  0.7818608E-02  0.9222727E-01
          1   -1    0    0  501    0  0.00000000000E+00  0.00000000000E+00  0.25152240474E+03  0.25152240474E+03  0.00000000000E+00 0. -1.
         -1   -1    0    0    0  501 -0.00000000000E+00 -0.00000000000E+00 -0.11640465291E+04  0.11640465291E+04  0.00000000000E+00 0.  1.
         23    2    1    2    0    0  0.61961210281E+02  0.41679927584E+03 -0.89529401735E+03  0.99383714172E+03  0.92736502146E+02 0.  0.
         11    1    3    3    0    0 -0.24212672822E+02  0.11499058546E+03 -0.25256260800E+03  0.27856230762E+03  0.00000000000E+00 0.  1.
        -11    1    3    3    0    0  0.86173883103E+02  0.30180869039E+03 -0.64273140935E+03  0.71527483409E+03  0.00000000000E+00 0. -1.
         22    1    1    2    0    0 -0.61961210281E+02 -0.41679927584E+03 -0.17230107049E+02  0.42173179215E+03  0.00000000000E+00 0. -1.
<mgrwt>
<rscale>  0 0.10821900E+04</rscale>
<asrwt>0</asrwt>
<pdfrwt beam="1">  1        1 0.38695754E-01 0.10821900E+04</pdfrwt>
<pdfrwt beam="2">  1       -1 0.17908409E+00 0.10821900E+04</pdfrwt>
<totfact> 0.23266001E+01</totfact>
</mgrwt>
</event>
<event>
 6    1  0.9906445E-006  0.1503353E+04  0.7818608E-02  0.8882226E-01
          1   -1    0    0  501    0  0.00000000000E+00  0.00000000000E+00  0.70683340374E+03  0.70683340374E+03  0.00000000000E+00 0. -1.
         -1   -1    0    0    0  501 -0.00000000000E+00 -0.00000000000E+00 -0.79936465655E+03  0.79936465655E+03  0.00000000000E+00 0.  1.
         23    2    1    2    0    0  0.12126032121E+03  0.25002159141E+03 -0.74320894816E+03  0.79866973938E+03  0.91098574665E+02 0.  0.
         11    1    3    3    0    0  0.10535910844E+03  0.15314238180E+03 -0.38939626989E+03  0.43148880152E+03  0.00000000000E+00 0. -1.
        -11    1    3    3    0    0  0.15901212769E+02  0.96879209618E+02 -0.35381267827E+03  0.36718093786E+03  0.00000000000E+00 0.  1.
         22    1    1    2    0    0 -0.12126032121E+03 -0.25002159141E+03  0.65067769534E+03  0.70752832091E+03  0.00000000000E+00 0. -1.
<mgrwt>
<rscale>  0 0.15033531E+04</rscale>
<asrwt>0</asrwt>
<pdfrwt beam="1">  1        1 0.10874360E+00 0.15033531E+04</pdfrwt>
<pdfrwt beam="2">  1       -1 0.12297918E+00 0.15033531E+04</pdfrwt>
<totfact> 0.15132728E+01</totfact>
</mgrwt>
</event>
<event>
 6    1  0.1035103E-005  0.3727282E+04  0.7818608E-02  0.8061943E-01
         -1   -1    0    0    0  501 -0.00000000000E+00  0.00000000000E+00  0.13594873269E+04  0.13594873269E+04  0.00000000000E+00 0.  1.
          1   -1    0    0  501    0  0.00000000000E+00 -0.00000000000E+00 -0.25547555675E+04  0.25547555675E+04  0.00000000000E+00 0. -1.
         23    2    1    2    0    0 -0.12228096783E+04 -0.13538776730E+04 -0.20318776066E+03  0.18375936844E+04  0.84953045886E+02 0.  0.
         11    1    3    3    0    0 -0.82310631817E+03 -0.96959851139E+03 -0.14150960168E+03  0.12797070960E+04  0.00000000000E+00 0. -1.
        -11    1    3    3    0    0 -0.39970336017E+03 -0.38427916158E+03 -0.61678158977E+02  0.55788658834E+03  0.00000000000E+00 0.  1.
         22    1    1    2    0    0  0.12228096783E+04  0.13538776730E+04 -0.99208047990E+03  0.20766492100E+04  0.00000000000E+00 0.  1.
<mgrwt>
<rscale>  0 0.37272820E+04</rscale>
<asrwt>0</asrwt>
<pdfrwt beam="1">  1        1 0.39303932E+00 0.37272820E+04</pdfrwt>
<pdfrwt beam="2">  1       -1 0.20915190E+00 0.37272820E+04</pdfrwt>
<totfact> 0.12940220E-01</totfact>
</mgrwt>
</event>
<event>
 6    1  0.9906445E-006  0.1038980E+04  0.7818608E-02  0.9266796E-01
          1   -1    0    0  501    0  0.00000000000E+00  0.00000000000E+00  0.46171438028E+03  0.46171438028E+03  0.00000000000E+00 0. -1.
         -1   -1    0    0    0  501 -0.00000000000E+00 -0.00000000000E+00 -0.58449559598E+03  0.58449559598E+03  0.00000000000E+00 0.  1.
         23    2    1    2    0    0 -0.46955863934E+03 -0.35360195365E+01 -0.27615625295E+03  0.55222442862E+03  0.90508144989E+02 0.  0.
         11    1    3    3    0    0 -0.30252793202E+03 -0.31811951979E+01 -0.22660371192E+03  0.37799803163E+03  0.00000000000E+00 0.  1.
        -11    1    3    3    0    0 -0.16703070732E+03 -0.35482433864E+00 -0.49552541030E+02  0.17422639700E+03  0.00000000000E+00 0. -1.
         22    1    1    2    0    0  0.46955863934E+03  0.35360195365E+01  0.15337503725E+03  0.49398554763E+03  0.00000000000E+00 0. -1.
<mgrwt>
<rscale>  0 0.10389803E+04</rscale>
<asrwt>0</asrwt>
<pdfrwt beam="1">  1        1 0.71032982E-01 0.10389803E+04</pdfrwt>
<pdfrwt beam="2">  1       -1 0.89922399E-01 0.10389803E+04</pdfrwt>
<totfact> 0.59896884E+01</totfact>
</mgrwt>
</event>
<event>
 6    1  0.9906445E-006  0.3389150E+04  0.7818608E-02  0.8140574E-01
          2   -1    0    0  501    0  0.00000000000E+00  0.00000000000E+00  0.24692161176E+04  0.24692161176E+04  0.00000000000E+00 0. -1.
         -2   -1    0    0    0  501 -0.00000000000E+00 -0.00000000000E+00 -0.11629539173E+04  0.11629539173E+04  0.00000000000E+00 0.  1.
         23    2    1    2    0    0 -0.42643481488E+03 -0.16312104941E+04  0.48462929208E+03  0.17565967990E+04  0.89846737896E+02 0.  0.
         13    1    3    3    0    0 -0.20277112077E+02 -0.17586253443E+03  0.38727764011E+02  0.18121432613E+03  0.00000000000E+00 0.  1.
        -13    1    3    3    0    0 -0.40615770280E+03 -0.14553479596E+04  0.44590152807E+03  0.15753824729E+04  0.00000000000E+00 0. -1.
         22    1    1    2    0    0  0.42643481488E+03  0.16312104941E+04  0.82163290821E+03  0.18755732359E+04  0.00000000000E+00 0. -1.
<mgrwt>
<rscale>  0 0.33891501E+04</rscale>
<asrwt>0</asrwt>
<pdfrwt beam="1">  1        2 0.37987940E+00 0.33891501E+04</pdfrwt>
<pdfrwt beam="2">  1       -2 0.17891599E+00 0.33891501E+04</pdfrwt>
<totfact> 0.55476304E-01</totfact>
</mgrwt>
</event>
<event>
 6    1  0.9906445E-006  0.1325092E+04  0.7818608E-02  0.9009900E-01
          1   -1    0    0  501    0  0.00000000000E+00  0.00000000000E+00  0.55796755217E+03  0.55796755217E+03  0.00000000000E+00 0. -1.
         -1   -1    0    0    0  501 -0.00000000000E+00 -0.00000000000E+00 -0.78672581874E+03  0.78672581874E+03  0.00000000000E+00 0.  1.
         23    2    1    2    0    0  0.65372936163E+03 -0.25140174607E+02 -0.31290224106E+02  0.66132836271E+03  0.91553364610E+02 0.  0.
         11    1    3    3    0    0  0.24537680335E+03  0.32194707818E+02 -0.26997259914E+02  0.24894804052E+03  0.00000000000E+00 0. -1.
        -11    1    3    3    0    0  0.40835255827E+03 -0.57334882425E+02 -0.42929641919E+01  0.41238032219E+03  0.00000000000E+00 0.  1.
         22    1    1    2    0    0 -0.65372936163E+03  0.25140174607E+02 -0.19746804247E+03  0.68336500820E+03  0.00000000000E+00 0.  1.
<mgrwt>
<rscale>  0 0.13250924E+04</rscale>
<asrwt>0</asrwt>
<pdfrwt beam="1">  1        1 0.85841163E-01 0.13250924E+04</pdfrwt>
<pdfrwt beam="2">  1       -1 0.12103474E+00 0.13250924E+04</pdfrwt>
<totfact> 0.22601846E+01</totfact>
</mgrwt>
</event>
<event>
 6    1  0.1103278E-005  0.1898354E+04  0.7818608E-02  0.8655676E-01
         -1   -1    0    0    0  501 -0.00000000000E+00  0.00000000000E+00  0.49502679617E+03  0.49502679617E+03  0.00000000000E+00 0.  1.
          1   -1    0    0  501    0  0.00000000000E+00 -0.00000000000E+00 -0.18199761596E+04  0.18199761596E+04  0.00000000000E+00 0. -1.
         23    2    1    2    0    0 -0.29876603219E+03  0.20908502631E+01  0.43189649764E+03  0.53293312178E+03  0.90651056070E+02 0.  0.
         11    1    3    3    0    0 -0.20725380172E+03  0.42303248871E+02  0.27582896752E+03  0.34759937071E+03  0.00000000000E+00 0.  1.
        -11    1    3    3    0    0 -0.91512230464E+02 -0.40212398608E+02  0.15606753013E+03  0.18533375107E+03  0.00000000000E+00 0. -1.
         22    1    1    2    0    0  0.29876603219E+03 -0.20908502631E+01 -0.17568458611E+04  0.17820698340E+04  0.00000000000E+00 0. -1.
<mgrwt>
<rscale>  0 0.18983540E+04</rscale>
<asrwt>0</asrwt>
<pdfrwt beam="1">  1        1 0.27999633E+00 0.18983540E+04</pdfrwt>
<pdfrwt beam="2">  1       -1 0.76157970E-01 0.18983540E+04</pdfrwt>
<totfact> 0.63964702E+00</totfact>
</mgrwt>
</event>
<event>
 6    1  0.9906445E-006  0.2883259E+04  0.7818608E-02  0.8277876E-01
         -2   -1    0    0    0  501 -0.00000000000E+00  0.00000000000E+00  0.66645903018E+03  0.66645903018E+03  0.00000000000E+00 0.  1.
          2   -1    0    0  501    0  0.00000000000E+00 -0.00000000000E+00 -0.31184144521E+04  0.31184144521E+04  0.00000000000E+00 0. -1.
         23    2    1    2    0    0  0.76898942114E+03  0.39305569796E+03 -0.27401171022E+04  0.28744479414E+04  0.91497116264E+02 0.  0.
         13    1    3    3    0    0  0.60480581944E+03  0.26976159991E+03 -0.20348529494E+04  0.21399037188E+04  0.00000000000E+00 0.  1.
        -13    1    3    3    0    0  0.16418360170E+03  0.12329409805E+03 -0.70526415282E+03  0.73454422258E+03  0.00000000000E+00 0. -1.
         22    1    1    2    0    0 -0.76898942114E+03 -0.39305569796E+03  0.28816168030E+03  0.91042554090E+03  0.00000000000E+00 0.  1.
<mgrwt>
<rscale>  0 0.28832589E+04</rscale>
<asrwt>0</asrwt>
<pdfrwt beam="1">  1        2 0.47975606E+00 0.28832589E+04</pdfrwt>
<pdfrwt beam="2">  1       -2 0.10253216E+00 0.28832589E+04</pdfrwt>
<totfact> 0.98445312E-01</totfact>
</mgrwt>
</event>
<event>
 6    1  0.9906445E-006  0.3785647E+04  0.7818608E-02  0.8049242E-01
          2   -1    0    0  501    0  0.00000000000E+00  0.00000000000E+00  0.34079485638E+04  0.34079485638E+04  0.00000000000E+00 0. -1.
         -2   -1    0    0    0  501 -0.00000000000E+00 -0.00000000000E+00 -0.10513014405E+04  0.10513014405E+04  0.00000000000E+00 0.  1.
         23    2    1    2    0    0 -0.37021917162E+03 -0.17755611056E+04  0.18123506809E+04  0.25655926720E+04  0.89282099044E+02 0.  0.
         11    1    3    3    0    0 -0.30092590636E+02 -0.16386854355E+03  0.13214300368E+03  0.21265050434E+03  0.00000000000E+00 0.  1.
        -11    1    3    3    0    0 -0.34012658099E+03 -0.16116925621E+04  0.16802076772E+04  0.23529421677E+04  0.00000000000E+00 0. -1.
         22    1    1    2    0    0  0.37021917162E+03  0.17755611056E+04  0.54429644235E+03  0.18936573323E+04  0.00000000000E+00 0. -1.
<mgrwt>
<rscale>  0 0.37856472E+04</rscale>
<asrwt>0</asrwt>
<pdfrwt beam="1">  1        2 0.52429977E+00 0.37856472E+04</pdfrwt>
<pdfrwt beam="2">  1       -2 0.16173869E+00 0.37856472E+04</pdfrwt>
<totfact> 0.18456581E-01</totfact>
</mgrwt>
</event>
<event>
 6    1  0.9906445E-006  0.1187454E+04  0.7818608E-02  0.9123910E-01
         -2   -1    0    0    0  501 -0.00000000000E+00  0.00000000000E+00  0.15164586353E+04  0.15164586353E+04  0.00000000000E+00 0.  1.
          2   -1    0    0  501    0  0.00000000000E+00 -0.00000000000E+00 -0.23245705442E+03  0.23245705442E+03  0.00000000000E+00 0. -1.
         23    2    1    2    0    0  0.46724701413E+03  0.18090991838E+03  0.11053765137E+04  0.12169804630E+04  0.90199997603E+02 0.  0.
         13    1    3    3    0    0  0.19439663449E+03  0.35909227048E+02  0.49037595746E+03  0.52872308796E+03  0.00000000000E+00 0.  1.
        -13    1    3    3    0    0  0.27285037964E+03  0.14500069133E+03  0.61500055623E+03  0.68825737506E+03  0.00000000000E+00 0. -1.
         22    1    1    2    0    0 -0.46724701413E+03 -0.18090991838E+03  0.17862506720E+03  0.53193522671E+03  0.00000000000E+00 0. -1.
<mgrwt>
<rscale>  0 0.11874536E+04</rscale>
<asrwt>0</asrwt>
<pdfrwt beam="1">  1        2 0.35762625E-01 0.11874536E+04</pdfrwt>
<pdfrwt beam="2">  1       -2 0.23330132E+00 0.11874536E+04</pdfrwt>
<totfact> 0.11776314E+01</totfact>
</mgrwt>
</event>
<event>
 6    1  0.9906445E-006  0.1568137E+04  0.7818608E-02  0.8840366E-01
          1   -1    0    0  501    0  0.00000000000E+00  0.00000000000E+00  0.22643496582E+04  0.22643496582E+04  0.00000000000E+00 0. -1.
         -1   -1    0    0    0  501 -0.00000000000E+00 -0.00000000000E+00 -0.27149655823E+03  0.27149655823E+03  0.00000000000E+00 0.  1.
         23    2    1    2    0    0 -0.57121265274E+03  0.21054091323E+03  0.17916326751E+04  0.18946746090E+04  0.96087775291E+02 0.  0.
         11    1    3    3    0    0 -0.39200185442E+03  0.15271672186E+03  0.13643022025E+04  0.14276933672E+04  0.00000000000E+00 0. -1.
        -11    1    3    3    0    0 -0.17921079832E+03  0.57824191365E+02  0.42733047260E+03  0.46698124176E+03  0.00000000000E+00 0.  1.
         22    1    1    2    0    0  0.57121265274E+03 -0.21054091323E+03  0.20122042482E+03  0.64117160742E+03  0.00000000000E+00 0.  1.
<mgrwt>
<rscale>  0 0.15681367E+04</rscale>
<asrwt>0</asrwt>
<pdfrwt beam="1">  1        1 0.34836147E+00 0.15681367E+04</pdfrwt>
<pdfrwt beam="2">  1       -1 0.41768703E-01 0.15681367E+04</pdfrwt>
<totfact> 0.10666668E+01</totfact>
</mgrwt>
</event>
<event>
 6    1  0.9906445E-006  0.8828233E+03  0.7818608E-02  0.9447312E-01
         -1   -1    0    0    0  501 -0.00000000000E+00  0.00000000000E+00  0.96658406937E+02  0.96658406937E+02  0.00000000000E+00 0.  1.
          1   -1    0    0  501    0  0.00000000000E+00 -0.00000000000E+00 -0.20158023453E+04  0.20158023453E+04  0.00000000000E+00 0. -1.
         23    2    1    2    0    0  0.17252458911E+03  0.24573479471E+03 -0.17281291074E+04  0.17565998401E+04  0.95196969219E+02 0.  0.
         11    1    3    3    0    0  0.11384360948E+03  0.20193013227E+03 -0.10962042683E+04  0.11204463145E+04  0.00000000000E+00 0. -1.
        -11    1    3    3    0    0  0.58680979627E+02  0.43804662448E+02 -0.63192483910E+03  0.63615352557E+03  0.00000000000E+00 0.  1.
         22    1    1    2    0    0 -0.17252458911E+03 -0.24573479471E+03 -0.19101483092E+03  0.35586091217E+03  0.00000000000E+00 0.  1.
<mgrwt>
<rscale>  0 0.88282330E+03</rscale>
<asrwt>0</asrwt>
<pdfrwt beam="1">  1        1 0.31012343E+00 0.88282330E+03</pdfrwt>
<pdfrwt beam="2">  1       -1 0.14870525E-01 0.88282330E+03</pdfrwt>
<totfact> 0.98742266E+01</totfact>
</mgrwt>
</event>
<event>
 6    1  0.9906445E-006  0.2137955E+04  0.7818608E-02  0.8544706E-01
         -1   -1    0    0    0  501 -0.00000000000E+00  0.00000000000E+00  0.12366849464E+04  0.12366849464E+04  0.00000000000E+00 0.  1.
          1   -1    0    0  501    0  0.00000000000E+00 -0.00000000000E+00 -0.92401266570E+03  0.92401266570E+03  0.00000000000E+00 0. -1.
         23    2    1    2    0    0 -0.98077729005E+03 -0.92761015485E+02  0.57109033301E+03  0.11422141373E+04  0.89332347342E+02 0.  0.
         13    1    3    3    0    0 -0.79166645069E+03 -0.39447905413E+02  0.45238497900E+03  0.91265769904E+03  0.00000000000E+00 0.  1.
        -13    1    3    3    0    0 -0.18911083936E+03 -0.53313110073E+02  0.11870535402E+03  0.22955643825E+03  0.00000000000E+00 0. -1.
         22    1    1    2    0    0  0.98077729005E+03  0.92761015485E+02 -0.25841805232E+03  0.10184834748E+04  0.00000000000E+00 0. -1.
<mgrwt>
<rscale>  0 0.21379547E+04</rscale>
<asrwt>0</asrwt>
<pdfrwt beam="1">  1        1 0.14215579E+00 0.21379547E+04</pdfrwt>
<pdfrwt beam="2">  1       -1 0.19025922E+00 0.21379547E+04</pdfrwt>
<totfact> 0.28053945E+00</totfact>
</mgrwt>
</event>
<event>
 6    1  0.9906445E-006  0.8292704E+03  0.7818608E-02  0.9518590E-01
          2   -1    0    0  501    0  0.00000000000E+00  0.00000000000E+00  0.10081806072E+04  0.10081806072E+04  0.00000000000E+00 0. -1.
         -2   -1    0    0    0  501 -0.00000000000E+00 -0.00000000000E+00 -0.17052734855E+03  0.17052734855E+03  0.00000000000E+00 0.  1.
         23    2    1    2    0    0 -0.31417945501E+03  0.24277303072E+03  0.56713626005E+03  0.69826345228E+03  0.90999103991E+02 0.  0.
         11    1    3    3    0    0 -0.39466132277E+02  0.89541078307E+01  0.26688925184E+02  0.48477318113E+02  0.00000000000E+00 0.  1.
        -11    1    3    3    0    0 -0.27471332273E+03  0.23381892289E+03  0.54044733486E+03  0.64978613416E+03  0.00000000000E+00 0. -1.
         22    1    1    2    0    0  0.31417945501E+03 -0.24277303072E+03  0.27051699862E+03  0.48044450350E+03  0.00000000000E+00 0.  1.
<mgrwt>
<rscale>  0 0.82927044E+03</rscale>
<asrwt>0</asrwt>
<pdfrwt beam="1">  1        2 0.15510470E+00 0.82927044E+03</pdfrwt>
<pdfrwt beam="2">  1       -2 0.26234977E-01 0.82927044E+03</pdfrwt>
<totfact> 0.32800563E+02</totfact>
</mgrwt>
</event>
<event>
 6    1  0.9906445E-006  0.1703372E+04  0.7818608E-02  0.8759443E-01
          2   -1    0    0  501    0  0.00000000000E+00  0.00000000000E+00  0.10321151605E+04  0.10321151605E+04  0.00000000000E+00 0. -1.
         -2   -1    0    0    0  501 -0.00000000000E+00 -0.00000000000E+00 -0.70279861329E+03  0.70279861329E+03  0.00000000000E+00 0.  1.
         23    2    1    2    0    0 -0.65569121014E+03 -0.50020343783E+03  0.37144097001E+03  0.90913601363E+03  0.91790276261E+02 0.  0.
         13    1    3    3    0    0 -0.43448016700E+03 -0.33161870699E+03  0.19785498571E+03  0.58128356050E+03  0.00000000000E+00 0. -1.
        -13    1    3    3    0    0 -0.22121104314E+03 -0.16858473084E+03  0.17358598430E+03  0.32785245313E+03  0.00000000000E+00 0.  1.
         22    1    1    2    0    0  0.65569121014E+03  0.50020343783E+03 -0.42124422758E+02  0.82577776021E+03  0.00000000000E+00 0.  1.
<mgrwt>
<rscale>  0 0.17033721E+04</rscale>
<asrwt>0</asrwt>
<pdfrwt beam="1">  1        2 0.15878695E+00 0.17033721E+04</pdfrwt>
<pdfrwt beam="2">  1       -2 0.10812286E+00 0.17033721E+04</pdfrwt>
<totfact> 0.15657757E+01</totfact>
</mgrwt>
</event>
<event>
 6    1  0.9906445E-006  0.1336063E+04  0.7818608E-02  0.9001446E-01
          2   -1    0    0  501    0  0.00000000000E+00  0.00000000000E+00  0.11898216092E+04  0.11898216092E+04  0.00000000000E+00 0. -1.
         -2   -1    0    0    0  501 -0.00000000000E+00 -0.00000000000E+00 -0.37506968614E+03  0.37506968614E+03  0.00000000000E+00 0.  1.
         23    2    1    2    0    0  0.33236368863E+03 -0.56847809503E+03  0.30082159605E+03  0.72957258548E+03  0.90274906713E+02 0.  0.
         11    1    3    3    0    0  0.31054870204E+03 -0.47928767128E+03  0.27689225293E+03  0.63468613338E+03  0.00000000000E+00 0.  1.
        -11    1    3    3    0    0  0.21814986594E+02 -0.89190423750E+02  0.23929343121E+02  0.94886452094E+02  0.00000000000E+00 0. -1.
         22    1    1    2    0    0 -0.33236368863E+03  0.56847809503E+03  0.51393032704E+03  0.83531870990E+03  0.00000000000E+00 0. -1.
<mgrwt>
<rscale>  0 0.13360629E+04</rscale>
<asrwt>0</asrwt>
<pdfrwt beam="1">  1        2 0.18304948E+00 0.13360629E+04</pdfrwt>
<pdfrwt beam="2">  1       -2 0.57703029E-01 0.13360629E+04</pdfrwt>
<totfact> 0.52812735E+01</totfact>
</mgrwt>
</event>
<event>
 6    1  0.9906445E-006  0.1451015E+04  0.7818608E-02  0.8917697E-01
         -1   -1    0    0    0  501 -0.00000000000E+00  0.00000000000E+00  0.77476754194E+03  0.77476754194E+03  0.00000000000E+00 0.  1.
          1   -1    0    0  501    0  0.00000000000E+00 -0.00000000000E+00 -0.67937900343E+03  0.67937900343E+03  0.00000000000E+00 0. -1.
         23    2    1    2    0    0  0.51973811442E+03  0.16549736398E+03  0.52305812053E+03  0.76102436535E+03  0.89728491220E+02 0.  0.
         13    1    3    3    0    0  0.38985755604E+03  0.16384473029E+03  0.40130356031E+03  0.58299104381E+03  0.00000000000E+00 0.  1.
        -13    1    3    3    0    0  0.12988055839E+03  0.16526336858E+01  0.12175456022E+03  0.17803332154E+03  0.00000000000E+00 0. -1.
         22    1    1    2    0    0 -0.51973811442E+03 -0.16549736398E+03 -0.42766958202E+03  0.69312218003E+03  0.00000000000E+00 0. -1.
<mgrwt>
<rscale>  0 0.14510145E+04</rscale>
<asrwt>0</asrwt>
<pdfrwt beam="1">  1        1 0.10451985E+00 0.14510145E+04</pdfrwt>
<pdfrwt beam="2">  1       -1 0.11919501E+00 0.14510145E+04</pdfrwt>
<totfact> 0.17430142E+01</totfact>
</mgrwt>
</event>
<event>
 6    1  0.9906445E-006  0.3695825E+04  0.7818608E-02  0.8068888E-01
         -1   -1    0    0    0  501 -0.00000000000E+00  0.00000000000E+00  0.77682434914E+03  0.77682434914E+03  0.00000000000E+00 0.  1.
          1   -1    0    0  501    0  0.00000000000E+00 -0.00000000000E+00 -0.43958217697E+04  0.43958217697E+04  0.00000000000E+00 0. -1.
         23    2    1    2    0    0  0.31754278583E+03  0.17737578446E+04 -0.23764568182E+04  0.29838205295E+04  0.92669471688E+02 0.  0.
         11    1    3    3    0    0  0.12373334604E+03  0.48668461659E+03 -0.62781009506E+03  0.80393866209E+03  0.00000000000E+00 0. -1.
        -11    1    3    3    0    0  0.19380943979E+03  0.12870732280E+04 -0.17486467232E+04  0.21798818674E+04  0.00000000000E+00 0.  1.
         22    1    1    2    0    0 -0.31754278583E+03 -0.17737578446E+04 -0.12425406023E+04  0.21888255894E+04  0.00000000000E+00 0. -1.
<mgrwt>
<rscale>  0 0.36958254E+04</rscale>
<asrwt>0</asrwt>
<pdfrwt beam="1">  1        1 0.67628029E+00 0.36958254E+04</pdfrwt>
<pdfrwt beam="2">  1       -1 0.11951144E+00 0.36958254E+04</pdfrwt>
<totfact> 0.20504084E-02</totfact>
</mgrwt>
</event>
<event>
 6    1  0.9906445E-006  0.6751191E+03  0.7818608E-02  0.9760754E-01
         -1   -1    0    0    0  501 -0.00000000000E+00  0.00000000000E+00  0.14312575122E+03  0.14312575122E+03  0.00000000000E+00 0.  1.
          1   -1    0    0  501    0  0.00000000000E+00 -0.00000000000E+00 -0.79612814205E+03  0.79612814205E+03  0.00000000000E+00 0. -1.
         23    2    1    2    0    0 -0.30906258793E+03  0.31950523911E+02 -0.49257559736E+03  0.58957221618E+03  0.91783221475E+02 0.  0.
         11    1    3    3    0    0 -0.15415404748E+03  0.46836721091E+02 -0.31236478701E+03  0.35146679638E+03  0.00000000000E+00 0.  1.
        -11    1    3    3    0    0 -0.15490854045E+03 -0.14886197180E+02 -0.18021081035E+03  0.23810541980E+03  0.00000000000E+00 0. -1.
         22    1    1    2    0    0  0.30906258793E+03 -0.31950523911E+02 -0.16042679347E+03  0.34968167710E+03  0.00000000000E+00 0.  1.
<mgrwt>
<rscale>  0 0.67511907E+03</rscale>
<asrwt>0</asrwt>
<pdfrwt beam="1">  1        1 0.12248125E+00 0.67511907E+03</pdfrwt>
<pdfrwt beam="2">  1       -1 0.22019346E-01 0.67511907E+03</pdfrwt>
<totfact> 0.39191396E+02</totfact>
</mgrwt>
</event>
<event>
 6    1  0.9906445E-006  0.2471659E+04  0.7818608E-02  0.8413152E-01
         -2   -1    0    0    0  501 -0.00000000000E+00  0.00000000000E+00  0.73027638907E+03  0.73027638907E+03  0.00000000000E+00 0.  1.
          2   -1    0    0  501    0  0.00000000000E+00 -0.00000000000E+00 -0.20913656678E+04  0.20913656678E+04  0.00000000000E+00 0. -1.
         23    2    1    2    0    0  0.93851561131E+03  0.24285293724E+03 -0.15533921320E+04  0.18333255644E+04  0.90919787072E+02 0.  0.
         13    1    3    3    0    0  0.43730922060E+03  0.14396317477E+03 -0.80098568628E+03  0.92387381159E+03  0.00000000000E+00 0. -1.
        -13    1    3    3    0    0  0.50120639071E+03  0.98889762473E+02 -0.75240644570E+03  0.90945175284E+03  0.00000000000E+00 0.  1.
         22    1    1    2    0    0 -0.93851561131E+03 -0.24285293724E+03  0.19230285327E+03  0.98831649242E+03  0.00000000000E+00 0.  1.
<mgrwt>
<rscale>  0 0.24716593E+04</rscale>
<asrwt>0</asrwt>
<pdfrwt beam="1">  1        2 0.32174857E+00 0.24716593E+04</pdfrwt>
<pdfrwt beam="2">  1       -2 0.11235021E+00 0.24716593E+04</pdfrwt>
<totfact> 0.33148895E+00</totfact>
</mgrwt>
</event>
<event>
 6    1  0.9906445E-006  0.6845158E+03  0.7818608E-02  0.9744085E-01
          2   -1    0    0  501    0  0.00000000000E+00  0.00000000000E+00  0.64585135946E+03  0.64585135946E+03  0.00000000000E+00 0. -1.
         -2   -1    0    0    0  501 -0.00000000000E+00 -0.00000000000E+00 -0.18137370734E+03  0.18137370734E+03  0.00000000000E+00 0.  1.
         23    2    1    2    0    0  0.55177916879E+02  0.12707446821E+03  0.60659785924E+03  0.62875422196E+03  0.90434428266E+02 0.  0.
         13    1    3    3    0    0  0.45196121514E+02  0.71862744845E+02  0.51022056280E+03  0.51723492361E+03  0.00000000000E+00 0.  1.
        -13    1    3    3    0    0  0.99817953648E+01  0.55211723365E+02  0.96377296439E+02  0.11151929835E+03  0.00000000000E+00 0. -1.
         22    1    1    2    0    0 -0.55177916879E+02 -0.12707446821E+03 -0.14212020712E+03  0.19847084484E+03  0.00000000000E+00 0.  1.
<mgrwt>
<rscale>  0 0.68451576E+03</rscale>
<asrwt>0</asrwt>
<pdfrwt beam="1">  1        2 0.99361746E-01 0.68451576E+03</pdfrwt>
<pdfrwt beam="2">  1       -2 0.27903648E-01 0.68451576E+03</pdfrwt>
<totfact> 0.53464736E+02</totfact>
</mgrwt>
</event>
<event>
 6    1  0.9906445E-006  0.3472509E+04  0.7818608E-02  0.8120336E-01
         -1   -1    0    0    0  501 -0.00000000000E+00  0.00000000000E+00  0.17037503905E+04  0.17037503905E+04  0.00000000000E+00 0.  1.
          1   -1    0    0  501    0  0.00000000000E+00 -0.00000000000E+00 -0.17693791561E+04  0.17693791561E+04  0.00000000000E+00 0. -1.
         23    2    1    2    0    0  0.13305340563E+04  0.10158323082E+03 -0.11419281272E+04  0.17587607579E+04  0.92733640535E+02 0.  0.
         11    1    3    3    0    0  0.96428255131E+03  0.55137821397E+02 -0.77628133516E+03  0.12391504063E+04  0.00000000000E+00 0.  1.
        -11    1    3    3    0    0  0.36625150498E+03  0.46445409420E+02 -0.36564679206E+03  0.51961035161E+03  0.00000000000E+00 0. -1.
         22    1    1    2    0    0 -0.13305340563E+04 -0.10158323082E+03  0.10762993616E+04  0.17143687886E+04  0.00000000000E+00 0.  1.
<mgrwt>
<rscale>  0 0.34725094E+04</rscale>
<asrwt>0</asrwt>
<pdfrwt beam="1">  1        1 0.27221218E+00 0.34725094E+04</pdfrwt>
<pdfrwt beam="2">  1       -1 0.26211544E+00 0.34725094E+04</pdfrwt>
<totfact> 0.20318227E-01</totfact>
</mgrwt>
</event>
<event>
 6    1  0.9906445E-006  0.4575432E+04  0.7818608E-02  0.7897562E-01
         -1   -1    0    0    0  501 -0.00000000000E+00  0.00000000000E+00  0.12528445296E+04  0.12528445296E+04  0.00000000000E+00 0.  1.
          1   -1    0    0  501    0  0.00000000000E+00 -0.00000000000E+00 -0.41774100752E+04  0.41774100752E+04  0.00000000000E+00 0. -1.
         23    2    1    2    0    0  0.17000190219E+04  0.61520885303E+03  0.19922171415E+03  0.18210173652E+04  0.88703694598E+02 0.  0.
         11    1    3    3    0    0  0.45380563705E+03  0.15998294003E+03  0.13886287521E+02  0.48138023048E+03  0.00000000000E+00 0.  1.
        -11    1    3    3    0    0  0.12462133848E+04  0.45522591299E+03  0.18533542663E+03  0.13396371347E+04  0.00000000000E+00 0. -1.
         22    1    1    2    0    0 -0.17000190219E+04 -0.61520885303E+03 -0.31237872597E+04  0.36092372396E+04  0.00000000000E+00 0. -1.
<mgrwt>
<rscale>  0 0.45754324E+04</rscale>
<asrwt>0</asrwt>
<pdfrwt beam="1">  1        1 0.64267847E+00 0.45754324E+04</pdfrwt>
<pdfrwt beam="2">  1       -1 0.19274531E+00 0.45754324E+04</pdfrwt>
<totfact> 0.83413093E-03</totfact>
</mgrwt>
</event>
<event>
 6    1  0.9906445E-006  0.1919176E+04  0.7818608E-02  0.8645370E-01
         -1   -1    0    0    0  501 -0.00000000000E+00  0.00000000000E+00  0.85804440872E+03  0.85804440872E+03  0.00000000000E+00 0.  1.
          1   -1    0    0  501    0  0.00000000000E+00 -0.00000000000E+00 -0.10731481215E+04  0.10731481215E+04  0.00000000000E+00 0. -1.
         23    2    1    2    0    0 -0.23642536080E+03 -0.10033121411E+03 -0.10359820454E+04  0.10710736194E+04  0.89311790882E+02 0.  0.
         13    1    3    3    0    0 -0.59494691600E+02 -0.48545785349E+02 -0.45831071911E+03  0.46469885610E+03  0.00000000000E+00 0.  1.
        -13    1    3    3    0    0 -0.17693066920E+03 -0.51785428765E+02 -0.57767132631E+03  0.60637476330E+03  0.00000000000E+00 0. -1.
         22    1    1    2    0    0  0.23642536080E+03  0.10033121411E+03  0.82087833264E+03  0.86011891082E+03  0.00000000000E+00 0.  1.
<mgrwt>
<rscale>  0 0.19191756E+04</rscale>
<asrwt>0</asrwt>
<pdfrwt beam="1">  1        1 0.16509971E+00 0.19191756E+04</pdfrwt>
<pdfrwt beam="2">  1       -1 0.13200683E+00 0.19191756E+04</pdfrwt>
<totfact> 0.60549650E+00</totfact>
</mgrwt>
</event>
<event>
 6    1  0.9906445E-006  0.1364582E+04  0.7818608E-02  0.8979862E-01
         -2   -1    0    0    0  501 -0.00000000000E+00  0.00000000000E+00  0.11333449899E+04  0.11333449899E+04  0.00000000000E+00 0. -1.
          2   -1    0    0  501    0  0.00000000000E+00 -0.00000000000E+00 -0.41074972358E+03  0.41074972358E+03  0.00000000000E+00 0.  1.
         23    2    1    2    0    0 -0.20042398883E+03  0.49107420873E+03 -0.11719524774E+03  0.55083152515E+03  0.91416569765E+02 0.  0.
         11    1    3    3    0    0 -0.12292186350E+03  0.38476509520E+03 -0.11202158865E+03  0.41916917747E+03  0.00000000000E+00 0. -1.
        -11    1    3    3    0    0 -0.77502125329E+02  0.10630911353E+03 -0.51736590881E+01  0.13166234769E+03  0.00000000000E+00 0.  1.
         22    1    1    2    0    0  0.20042398883E+03 -0.49107420873E+03  0.83979051410E+03  0.99326318836E+03  0.00000000000E+00 0. -1.
<mgrwt>
<rscale>  0 0.13645822E+04</rscale>
<asrwt>0</asrwt>
<pdfrwt beam="1">  1        2 0.63192266E-01 0.13645822E+04</pdfrwt>
<pdfrwt beam="2">  1       -2 0.17436077E+00 0.13645822E+04</pdfrwt>
<totfact> 0.14930700E+01</totfact>
</mgrwt>
</event>
<event>
 6    1  0.9906445E-006  0.1770961E+04  0.7818608E-02  0.8721896E-01
          2   -1    0    0  501    0  0.00000000000E+00  0.00000000000E+00  0.23942064557E+04  0.23942064557E+04  0.00000000000E+00 0. -1.
         -2   -1    0    0    0  501 -0.00000000000E+00 -0.00000000000E+00 -0.32748866645E+03  0.32748866645E+03  0.00000000000E+00 0.  1.
         23    2    1    2    0    0 -0.37701968984E+02 -0.78124936557E+03  0.16662519717E+04  0.18429773741E+04  0.91640376602E+02 0.  0.
         13    1    3    3    0    0 -0.65169203502E+02 -0.44412166091E+03  0.92153497501E+03  0.10250452599E+04  0.00000000000E+00 0. -1.
        -13    1    3    3    0    0  0.27467234517E+02 -0.33712770466E+03  0.74471699671E+03  0.81793211418E+03  0.00000000000E+00 0.  1.
         22    1    1    2    0    0  0.37701968984E+02  0.78124936557E+03  0.40046581751E+03  0.87871774801E+03  0.00000000000E+00 0.  1.
<mgrwt>
<rscale>  0 0.17709607E+04</rscale>
<asrwt>0</asrwt>
<pdfrwt beam="1">  1        2 0.36833944E+00 0.17709607E+04</pdfrwt>
<pdfrwt beam="2">  1       -2 0.50382873E-01 0.17709607E+04</pdfrwt>
<totfact> 0.14135748E+01</totfact>
</mgrwt>
</event>
<event>
 6    1  0.9906445E-006  0.5767464E+03  0.7818608E-02  0.9954860E-01
         -1   -1    0    0    0  501 -0.00000000000E+00  0.00000000000E+00  0.38906494678E+02  0.38906494678E+02  0.00000000000E+00 0.  1.
          1   -1    0    0  501    0  0.00000000000E+00 -0.00000000000E+00 -0.21374089143E+04  0.21374089143E+04  0.00000000000E+00 0. -1.
         23    2    1    2    0    0  0.15256585926E+03  0.23625737761E+03 -0.10540297773E+04  0.10946421725E+04  0.90381549928E+02 0.  0.
         13    1    3    3    0    0  0.11713425936E+03  0.17618201650E+03 -0.62145142113E+03  0.65647727034E+03  0.00000000000E+00 0.  1.
        -13    1    3    3    0    0  0.35431599900E+02  0.60075361109E+02 -0.43257835618E+03  0.43816490220E+03  0.00000000000E+00 0. -1.
         22    1    1    2    0    0 -0.15256585926E+03 -0.23625737761E+03 -0.10444726423E+04  0.10816732364E+04  0.00000000000E+00 0. -1.
<mgrwt>
<rscale>  0 0.57674635E+03</rscale>
<asrwt>0</asrwt>
<pdfrwt beam="1">  1        1 0.32883225E+00 0.57674635E+03</pdfrwt>
<pdfrwt beam="2">  1       -1 0.59856127E-02 0.57674635E+03</pdfrwt>
<totfact> 0.35442069E+02</totfact>
</mgrwt>
</event>
<event>
 6    1  0.9906445E-006  0.6459506E+04  0.7818608E-02  0.7635900E-01
         -1   -1    0    0    0  501 -0.00000000000E+00  0.00000000000E+00  0.35202789850E+04  0.35202789850E+04  0.00000000000E+00 0.  1.
          1   -1    0    0  501    0  0.00000000000E+00 -0.00000000000E+00 -0.29632043497E+04  0.29632043497E+04  0.00000000000E+00 0. -1.
         23    2    1    2    0    0 -0.22810489964E+02  0.82160470279E+03 -0.28557495580E+04  0.29730811384E+04  0.91385508254E+02 0.  0.
         11    1    3    3    0    0 -0.25366701760E+02  0.16006003104E+03 -0.67596240946E+03  0.69511715711E+03  0.00000000000E+00 0. -1.
        -11    1    3    3    0    0  0.25562117960E+01  0.66154467175E+03 -0.21797871486E+04  0.22779639813E+04  0.00000000000E+00 0.  1.
         22    1    1    2    0    0  0.22810489964E+02 -0.82160470279E+03  0.34128241932E+04  0.35104021963E+04  0.00000000000E+00 0.  1.
<mgrwt>
<rscale>  0 0.64595065E+04</rscale>
<asrwt>0</asrwt>
<pdfrwt beam="1">  1        1 0.45587759E+00 0.64595065E+04</pdfrwt>
<pdfrwt beam="2">  1       -1 0.54158138E+00 0.64595065E+04</pdfrwt>
<totfact> 0.34890881E-04</totfact>
</mgrwt>
</event>
<event>
 6    1  0.9906445E-006  0.1732783E+04  0.7818608E-02  0.8742885E-01
          1   -1    0    0  501    0  0.00000000000E+00  0.00000000000E+00  0.40079896371E+03  0.40079896371E+03  0.00000000000E+00 0. -1.
         -1   -1    0    0    0  501 -0.00000000000E+00 -0.00000000000E+00 -0.18728448468E+04  0.18728448468E+04  0.00000000000E+00 0.  1.
         23    2    1    2    0    0 -0.70717110110E+03  0.10877891281E+02 -0.13893952268E+04  0.15615760990E+04  0.88834237999E+02 0.  0.
         11    1    3    3    0    0 -0.41376608211E+03 -0.32320383727E+02 -0.85492763958E+03  0.95034112130E+03  0.00000000000E+00 0.  1.
        -11    1    3    3    0    0 -0.29340501899E+03  0.43198275008E+02 -0.53446758726E+03  0.61123497770E+03  0.00000000000E+00 0. -1.
         22    1    1    2    0    0  0.70717110110E+03 -0.10877891281E+02 -0.82650656201E+02  0.71206771147E+03  0.00000000000E+00 0.  1.
<mgrwt>
<rscale>  0 0.17327830E+04</rscale>
<asrwt>0</asrwt>
<pdfrwt beam="1">  1        1 0.61661380E-01 0.17327830E+04</pdfrwt>
<pdfrwt beam="2">  1       -1 0.28812997E+00 0.17327830E+04</pdfrwt>
<totfact> 0.22411182E+00</totfact>
</mgrwt>
</event>
<event>
 6    1  0.9906445E-006  0.2057779E+04  0.7818608E-02  0.8580074E-01
          2   -1    0    0  501    0  0.00000000000E+00  0.00000000000E+00  0.20282669713E+04  0.20282669713E+04  0.00000000000E+00 0. -1.
         -2   -1    0    0    0  501 -0.00000000000E+00 -0.00000000000E+00 -0.52193005502E+03  0.52193005502E+03  0.00000000000E+00 0.  1.
         23    2    1    2    0    0 -0.82143675278E+03  0.58904749412E+02 -0.55358979319E+01  0.82857351502E+03  0.90968760030E+02 0.  0.
         13    1    3    3    0    0 -0.66501382439E+03  0.29507641530E+02 -0.35508903708E+02  0.66661455864E+03  0.00000000000E+00 0. -1.
        -13    1    3    3    0    0 -0.15642292839E+03  0.29397107882E+02  0.29973005776E+02  0.16195895638E+03  0.00000000000E+00 0.  1.
         22    1    1    2    0    0  0.82143675278E+03 -0.58904749412E+02  0.15118728142E+04  0.17216235113E+04  0.00000000000E+00 0. -1.
<mgrwt>
<rscale>  0 0.20577789E+04</rscale>
<asrwt>0</asrwt>
<pdfrwt beam="1">  1        2 0.31204107E+00 0.20577789E+04</pdfrwt>
<pdfrwt beam="2">  1       -2 0.80296933E-01 0.20577789E+04</pdfrwt>
<totfact> 0.81670149E+00</totfact>
</mgrwt>
</event>
<event>
 6    1  0.9906445E-006  0.1805040E+04  0.7818608E-02  0.8703624E-01
          2   -1    0    0  501    0  0.00000000000E+00  0.00000000000E+00  0.19694556364E+04  0.19694556364E+04  0.00000000000E+00 0. -1.
         -2   -1    0    0    0  501 -0.00000000000E+00 -0.00000000000E+00 -0.41358750354E+03  0.41358750354E+03  0.00000000000E+00 0.  1.
         23    2    1    2    0    0  0.71390707711E+03 -0.50474240444E+03  0.49653212519E+03  0.10094999165E+04  0.90098392993E+02 0.  0.
         11    1    3    3    0    0  0.65952074684E+03 -0.43610719883E+03  0.45884259732E+03  0.91416280471E+03  0.00000000000E+00 0.  1.
        -11    1    3    3    0    0  0.54386330267E+02 -0.68635205610E+02  0.37689527873E+02  0.95337111768E+02  0.00000000000E+00 0. -1.
         22    1    1    2    0    0 -0.71390707711E+03  0.50474240444E+03  0.10593360077E+04  0.13735432235E+04  0.00000000000E+00 0.  1.
<mgrwt>
<rscale>  0 0.18050399E+04</rscale>
<asrwt>0</asrwt>
<pdfrwt beam="1">  1        2 0.30299317E+00 0.18050399E+04</pdfrwt>
<pdfrwt beam="2">  1       -2 0.63628848E-01 0.18050399E+04</pdfrwt>
<totfact> 0.14984155E+01</totfact>
</mgrwt>
</event>
<event>
 6    1  0.9906445E-006  0.2881585E+04  0.7818608E-02  0.8278378E-01
         -2   -1    0    0    0  501 -0.00000000000E+00  0.00000000000E+00  0.74795702491E+03  0.74795702491E+03  0.00000000000E+00 0. -1.
          2   -1    0    0  501    0  0.00000000000E+00 -0.00000000000E+00 -0.27754037748E+04  0.27754037748E+04  0.00000000000E+00 0.  1.
         23    2    1    2    0    0 -0.53410307992E+03  0.56292535732E+03  0.46751851810E+03  0.91050742717E+03  0.91099683134E+02 0.  0.
         11    1    3    3    0    0 -0.82053053907E+02  0.65269616735E+02  0.32673357443E+02  0.10981973780E+03  0.00000000000E+00 0. -1.
        -11    1    3    3    0    0 -0.45205002601E+03  0.49765574059E+03  0.43484516066E+03  0.80068768937E+03  0.00000000000E+00 0.  1.
         22    1    1    2    0    0  0.53410307992E+03 -0.56292535732E+03 -0.24949652680E+04  0.26128533725E+04  0.00000000000E+00 0.  1.
<mgrwt>
<rscale>  0 0.28815848E+04</rscale>
<asrwt>0</asrwt>
<pdfrwt beam="1">  1        2 0.42698519E+00 0.28815848E+04</pdfrwt>
<pdfrwt beam="2">  1       -2 0.11507031E+00 0.28815848E+04</pdfrwt>
<totfact> 0.12173100E+00</totfact>
</mgrwt>
</event>
<event>
 6    1  0.9906445E-006  0.3119258E+04  0.7818608E-02  0.8210472E-01
         -1   -1    0    0    0  501 -0.00000000000E+00  0.00000000000E+00  0.16670693970E+04  0.16670693970E+04  0.00000000000E+00 0.  1.
          1   -1    0    0  501    0  0.00000000000E+00 -0.00000000000E+00 -0.14591131206E+04  0.14591131206E+04  0.00000000000E+00 0. -1.
         23    2    1    2    0    0  0.96646460286E+02 -0.15510021663E+04  0.21910060893E+03  0.15721321793E+04  0.92985236568E+02 0.  0.
         13    1    3    3    0    0  0.74881764071E+01 -0.58706552293E+03  0.11759079602E+03  0.59877340983E+03  0.00000000000E+00 0.  1.
        -13    1    3    3    0    0  0.89158283879E+02 -0.96393664333E+03  0.10150981291E+03  0.97335876944E+03  0.00000000000E+00 0. -1.
         22    1    1    2    0    0 -0.96646460286E+02  0.15510021663E+04 -0.11144332538E+02  0.15540503384E+04  0.00000000000E+00 0. -1.
<mgrwt>
<rscale>  0 0.31192581E+04</rscale>
<asrwt>0</asrwt>
<pdfrwt beam="1">  1        1 0.22447894E+00 0.31192581E+04</pdfrwt>
<pdfrwt beam="2">  1       -1 0.25647221E+00 0.31192581E+04</pdfrwt>
<totfact> 0.37220311E-01</totfact>
</mgrwt>
</event>
<event>
 6    1  0.9906445E-006  0.5229865E+03  0.7818608E-02  0.1007947E+00
          1   -1    0    0  501    0  0.00000000000E+00  0.00000000000E+00  0.37354589344E+03  0.37354589344E+03  0.00000000000E+00 0. -1.
         -1   -1    0    0    0  501 -0.00000000000E+00 -0.00000000000E+00 -0.18305305074E+03  0.18305305074E+03  0.00000000000E+00 0.  1.
         23    2    1    2    0    0  0.92647871104E+02 -0.59839434009E+02  0.33982688276E+03  0.37095131721E+03  0.99790699047E+02 0.  0.
         13    1    3    3    0    0  0.38629991542E+02  0.18824701133E+02  0.50579836785E+02  0.66369914182E+02  0.00000000000E+00 0.  1.
        -13    1    3    3    0    0  0.54017879561E+02 -0.78664135141E+02  0.28924704597E+03  0.30458140303E+03  0.00000000000E+00 0. -1.
         22    1    1    2    0    0 -0.92647871104E+02  0.59839434009E+02 -0.14933404006E+03  0.18564762698E+03  0.00000000000E+00 0.  1.
<mgrwt>
<rscale>  0 0.52298648E+03</rscale>
<asrwt>0</asrwt>
<pdfrwt beam="1">  1        1 0.57468599E-01 0.52298648E+03</pdfrwt>
<pdfrwt beam="2">  1       -1 0.28162008E-01 0.52298648E+03</pdfrwt>
<totfact> 0.75385249E+02</totfact>
</mgrwt>
</event>
<event>
 6    1  0.9906445E-006  0.1755120E+04  0.7818608E-02  0.8730537E-01
         -2   -1    0    0    0  501 -0.00000000000E+00  0.00000000000E+00  0.83595609521E+03  0.83595609521E+03  0.00000000000E+00 0.  1.
          2   -1    0    0  501    0  0.00000000000E+00 -0.00000000000E+00 -0.92123431780E+03  0.92123431780E+03  0.00000000000E+00 0. -1.
         23    2    1    2    0    0  0.42101033313E+03 -0.71185077674E+03 -0.32914437931E+03  0.89495382637E+03  0.92871416279E+02 0.  0.
         13    1    3    3    0    0  0.22178117476E+03 -0.35682224397E+03 -0.21606034464E+03  0.47243102756E+03  0.00000000000E+00 0.  1.
        -13    1    3    3    0    0  0.19922915837E+03 -0.35502853277E+03 -0.11308403467E+03  0.42252279882E+03  0.00000000000E+00 0. -1.
         22    1    1    2    0    0 -0.42101033313E+03  0.71185077674E+03  0.24386615672E+03  0.86223658664E+03  0.00000000000E+00 0. -1.
<mgrwt>
<rscale>  0 0.17551199E+04</rscale>
<asrwt>0</asrwt>
<pdfrwt beam="1">  1        2 0.14172836E+00 0.17551199E+04</pdfrwt>
<pdfrwt beam="2">  1       -2 0.12860863E+00 0.17551199E+04</pdfrwt>
<totfact> 0.11995833E+01</totfact>
</mgrwt>
</event>
<event>
 6    1  0.9906445E-006  0.2388937E+04  0.7818608E-02  0.8443657E-01
         -1   -1    0    0    0  501 -0.00000000000E+00  0.00000000000E+00  0.15361361505E+04  0.15361361505E+04  0.00000000000E+00 0.  1.
          1   -1    0    0  501    0  0.00000000000E+00 -0.00000000000E+00 -0.92879471115E+03  0.92879471115E+03  0.00000000000E+00 0. -1.
         23    2    1    2    0    0 -0.23037094282E+03 -0.97370179149E+03  0.97416308950E+03  0.13992273039E+04  0.87620619789E+02 0.  0.
         11    1    3    3    0    0 -0.16406337661E+03 -0.79587068516E+03  0.82326219366E+03  0.11567573551E+04  0.00000000000E+00 0. -1.
        -11    1    3    3    0    0 -0.66307566216E+02 -0.17783110633E+03  0.15090089584E+03  0.24246994882E+03  0.00000000000E+00 0.  1.
         22    1    1    2    0    0  0.23037094282E+03  0.97370179149E+03 -0.36682165012E+03  0.10657035578E+04  0.00000000000E+00 0. -1.
<mgrwt>
<rscale>  0 0.23889371E+04</rscale>
<asrwt>0</asrwt>
<pdfrwt beam="1">  1        1 0.14289149E+00 0.23889371E+04</pdfrwt>
<pdfrwt beam="2">  1       -1 0.23632864E+00 0.23889371E+04</pdfrwt>
<totfact> 0.13253553E+00</totfact>
</mgrwt>
</event>
<event>
 6    1  0.9906445E-006  0.7867616E+03  0.7818608E-02  0.9579379E-01
         -2   -1    0    0    0  501 -0.00000000000E+00  0.00000000000E+00  0.52636469517E+02  0.52636469517E+02  0.00000000000E+00 0.  1.
          2   -1    0    0  501    0  0.00000000000E+00 -0.00000000000E+00 -0.29399474366E+04  0.29399474366E+04  0.00000000000E+00 0. -1.
         23    2    1    2    0    0 -0.31846860611E+03 -0.10822901271E+03 -0.21994376102E+04  0.22268780047E+04  0.91236366975E+02 0.  0.
         11    1    3    3    0    0 -0.15676624694E+03 -0.73961288180E+01 -0.90979948597E+03  0.92323640719E+03  0.00000000000E+00 0.  1.
        -11    1    3    3    0    0 -0.16170235917E+03 -0.10083288389E+03 -0.12896381242E+04  0.13036415975E+04  0.00000000000E+00 0. -1.
         22    1    1    2    0    0  0.31846860611E+03  0.10822901271E+03 -0.68787335692E+03  0.76570590139E+03  0.00000000000E+00 0.  1.
<mgrwt>
<rscale>  0 0.78676160E+03</rscale>
<asrwt>0</asrwt>
<pdfrwt beam="1">  1        2 0.45229964E+00 0.78676160E+03</pdfrwt>
<pdfrwt beam="2">  1       -2 0.80979178E-02 0.78676160E+03</pdfrwt>
<totfact> 0.19209399E+02</totfact>
</mgrwt>
</event>
<event>
 6    1  0.9906445E-006  0.1176664E+04  0.7818608E-02  0.9133531E-01
         -1   -1    0    0    0  501 -0.00000000000E+00  0.00000000000E+00  0.31554224346E+03  0.31554224346E+03  0.00000000000E+00 0.  1.
          1   -1    0    0  501    0  0.00000000000E+00 -0.00000000000E+00 -0.10969510840E+04  0.10969510840E+04  0.00000000000E+00 0. -1.
         23    2    1    2    0    0  0.10070352635E+03 -0.15151538747E+03  0.27387367559E+03  0.34164352394E+03  0.92819148956E+02 0.  0.
         13    1    3    3    0    0  0.15549278764E+02 -0.10403861317E+03  0.16304742828E+03  0.19403679282E+03  0.00000000000E+00 0.  1.
        -13    1    3    3    0    0  0.85154247583E+02 -0.47476774296E+02  0.11082624731E+03  0.14760673112E+03  0.00000000000E+00 0. -1.
         22    1    1    2    0    0 -0.10070352635E+03  0.15151538747E+03 -0.10552825161E+04  0.10708498035E+04  0.00000000000E+00 0. -1.
<mgrwt>
<rscale>  0 0.11766638E+04</rscale>
<asrwt>0</asrwt>
<pdfrwt beam="1">  1        1 0.16876170E+00 0.11766638E+04</pdfrwt>
<pdfrwt beam="2">  1       -1 0.48544961E-01 0.11766638E+04</pdfrwt>
<totfact> 0.53629218E+01</totfact>
</mgrwt>
</event>
<event>
 6    1  0.9906445E-006  0.1526925E+04  0.7818608E-02  0.8866743E-01
          1   -1    0    0  501    0  0.00000000000E+00  0.00000000000E+00  0.76582777999E+03  0.76582777999E+03  0.00000000000E+00 0. -1.
         -1   -1    0    0    0  501 -0.00000000000E+00 -0.00000000000E+00 -0.76110411550E+03  0.76110411550E+03  0.00000000000E+00 0.  1.
         23    2    1    2    0    0  0.61081681965E+02  0.53878810652E+03  0.53594645892E+03  0.76783950789E+03  0.91188307638E+02 0.  0.
         13    1    3    3    0    0  0.65235609170E+02  0.53428067442E+03  0.51110583650E+03  0.74225379748E+03  0.00000000000E+00 0. -1.
        -13    1    3    3    0    0 -0.41539272053E+01  0.45074321023E+01  0.24840622416E+02  0.25585710414E+02  0.00000000000E+00 0.  1.
         22    1    1    2    0    0 -0.61081681965E+02 -0.53878810652E+03 -0.53122279442E+03  0.75909238760E+03  0.00000000000E+00 0.  1.
<mgrwt>
<rscale>  0 0.15269246E+04</rscale>
<asrwt>0</asrwt>
<pdfrwt beam="1">  1        1 0.11781966E+00 0.15269246E+04</pdfrwt>
<pdfrwt beam="2">  1       -1 0.11709294E+00 0.15269246E+04</pdfrwt>
<totfact> 0.15040503E+01</totfact>
</mgrwt>
</event>
<event>
 6    1  0.9906445E-006  0.4305791E+04  0.7818608E-02  0.7945548E-01
         -2   -1    0    0    0  501 -0.00000000000E+00  0.00000000000E+00  0.14165621090E+04  0.14165621090E+04  0.00000000000E+00 0.  1.
          2   -1    0    0  501    0  0.00000000000E+00 -0.00000000000E+00 -0.32719774743E+04  0.32719774743E+04  0.00000000000E+00 0. -1.
         23    2    1    2    0    0  0.69367337958E+03  0.56912386119E+03 -0.30579574221E+04  0.31881422608E+04  0.89792833551E+02 0.  0.
         13    1    3    3    0    0  0.64683943188E+03  0.51194918235E+03 -0.27273170938E+04  0.28493423357E+04  0.00000000000E+00 0. -1.
        -13    1    3    3    0    0  0.46833947703E+02  0.57174678846E+02 -0.33064032830E+03  0.33879992511E+03  0.00000000000E+00 0.  1.
         22    1    1    2    0    0 -0.69367337958E+03 -0.56912386119E+03  0.12025420568E+04  0.15003973225E+04  0.00000000000E+00 0.  1.
<mgrwt>
<rscale>  0 0.43057911E+04</rscale>
<asrwt>0</asrwt>
<pdfrwt beam="1">  1        2 0.50338115E+00 0.43057911E+04</pdfrwt>
<pdfrwt beam="2">  1       -2 0.21793263E+00 0.43057911E+04</pdfrwt>
<totfact> 0.91057574E-02</totfact>
</mgrwt>
</event>
<event>
 6    1  0.9906445E-006  0.2946373E+04  0.7818608E-02  0.8259212E-01
         -2   -1    0    0    0  501 -0.00000000000E+00  0.00000000000E+00  0.44759785152E+03  0.44759785152E+03  0.00000000000E+00 0.  1.
          2   -1    0    0  501    0  0.00000000000E+00 -0.00000000000E+00 -0.48487237974E+04  0.48487237974E+04  0.00000000000E+00 0. -1.
         23    2    1    2    0    0  0.88428630750E+03  0.48903373416E+03 -0.41261820137E+04  0.42490822147E+04  0.90583609922E+02 0.  0.
         13    1    3    3    0    0  0.17581439364E+03  0.10672761941E+03 -0.69987628449E+03  0.72947124642E+03  0.00000000000E+00 0. -1.
        -13    1    3    3    0    0  0.70847191386E+03  0.38230611475E+03 -0.34263057292E+04  0.35196109683E+04  0.00000000000E+00 0.  1.
         22    1    1    2    0    0 -0.88428630750E+03 -0.48903373416E+03 -0.27494393220E+03  0.10472394342E+04  0.00000000000E+00 0.  1.
<mgrwt>
<rscale>  0 0.29463729E+04</rscale>
<asrwt>0</asrwt>
<pdfrwt beam="1">  1        2 0.74595754E+00 0.29463729E+04</pdfrwt>
<pdfrwt beam="2">  1       -2 0.68861205E-01 0.29463729E+04</pdfrwt>
<totfact> 0.86719380E-02</totfact>
</mgrwt>
</event>
<event>
 6    1  0.9906445E-006  0.3347983E+04  0.7818608E-02  0.8150792E-01
         -2   -1    0    0    0  501 -0.00000000000E+00  0.00000000000E+00  0.92328546098E+03  0.92328546098E+03  0.00000000000E+00 0.  1.
          2   -1    0    0  501    0  0.00000000000E+00 -0.00000000000E+00 -0.30350831584E+04  0.30350831584E+04  0.00000000000E+00 0. -1.
         23    2    1    2    0    0 -0.82251631835E+03  0.10634156302E+04 -0.22335959605E+04  0.26084720629E+04  0.88259228381E+02 0.  0.
         13    1    3    3    0    0 -0.15303413361E+03  0.15705953020E+03 -0.32465178933E+03  0.39177279945E+03  0.00000000000E+00 0. -1.
        -13    1    3    3    0    0 -0.66948218474E+03  0.90635610000E+03 -0.19089441712E+04  0.22166992634E+04  0.00000000000E+00 0.  1.
         22    1    1    2    0    0  0.82251631835E+03 -0.10634156302E+04  0.12179826307E+03  0.13498965565E+04  0.00000000000E+00 0.  1.
<mgrwt>
<rscale>  0 0.33479834E+04</rscale>
<asrwt>0</asrwt>
<pdfrwt beam="1">  1        2 0.46693587E+00 0.33479834E+04</pdfrwt>
<pdfrwt beam="2">  1       -2 0.14204392E+00 0.33479834E+04</pdfrwt>
<totfact> 0.47577006E-01</totfact>
</mgrwt>
</event>
<event>
 6    1  0.9906445E-006  0.4530304E+03  0.7818608E-02  0.1026822E+00
         -4   -1    0    0    0  501 -0.00000000000E+00  0.00000000000E+00  0.82985248588E+03  0.82985248588E+03  0.00000000000E+00 0.  1.
          4   -1    0    0  501    0  0.00000000000E+00 -0.00000000000E+00 -0.61829217670E+02  0.61829217670E+02  0.00000000000E+00 0. -1.
         23    2    1    2    0    0  0.58587529958E+02 -0.19248145095E+03  0.56145649045E+03  0.60332178730E+03  0.91006487309E+02 0.  0.
         11    1    3    3    0    0  0.36732640221E+02 -0.11140704534E+03  0.19668489078E+03  0.22901039905E+03  0.00000000000E+00 0. -1.
        -11    1    3    3    0    0  0.21854889737E+02 -0.81074405610E+02  0.36477159967E+03  0.37431138825E+03  0.00000000000E+00 0.  1.
         22    1    1    2    0    0 -0.58587529958E+02  0.19248145095E+03  0.20656677776E+03  0.28835991625E+03  0.00000000000E+00 0. -1.
<mgrwt>
<rscale>  0 0.45303037E+03</rscale>
<asrwt>0</asrwt>
<pdfrwt beam="1">  1        4 0.95121880E-02 0.45303037E+03</pdfrwt>
<pdfrwt beam="2">  1       -4 0.12766960E+00 0.45303037E+03</pdfrwt>
<totfact> 0.76051495E+01</totfact>
</mgrwt>
</event>
<event>
 6    1  0.9906445E-006  0.1249870E+04  0.7818608E-02  0.9070292E-01
         -2   -1    0    0    0  501 -0.00000000000E+00  0.00000000000E+00  0.21595585526E+03  0.21595585526E+03  0.00000000000E+00 0.  1.
          2   -1    0    0  501    0  0.00000000000E+00 -0.00000000000E+00 -0.18084414802E+04  0.18084414802E+04  0.00000000000E+00 0. -1.
         23    2    1    2    0    0 -0.57208481925E+03 -0.48246802227E+02 -0.41453530363E+03  0.71398680673E+03  0.91262521812E+02 0.  0.
         13    1    3    3    0    0 -0.46497969411E+03 -0.26207185195E+02 -0.29169021715E+03  0.54952353478E+03  0.00000000000E+00 0. -1.
        -13    1    3    3    0    0 -0.10710512514E+03 -0.22039617031E+02 -0.12284508647E+03  0.16446327195E+03  0.00000000000E+00 0.  1.
         22    1    1    2    0    0  0.57208481925E+03  0.48246802227E+02 -0.11779503213E+04  0.13104105287E+04  0.00000000000E+00 0. -1.
<mgrwt>
<rscale>  0 0.12498696E+04</rscale>
<asrwt>0</asrwt>
<pdfrwt beam="1">  1        2 0.27822176E+00 0.12498696E+04</pdfrwt>
<pdfrwt beam="2">  1       -2 0.33223978E-01 0.12498696E+04</pdfrwt>
<totfact> 0.71044294E+01</totfact>
</mgrwt>
</event>
<event>
 6    1  0.9906445E-006  0.7151594E+03  0.7818608E-02  0.9691653E-01
          2   -1    0    0  501    0  0.00000000000E+00  0.00000000000E+00  0.23644509541E+04  0.23644509541E+04  0.00000000000E+00 0. -1.
         -2   -1    0    0    0  501 -0.00000000000E+00 -0.00000000000E+00 -0.54077353979E+02  0.54077353979E+02  0.00000000000E+00 0.  1.
         23    2    1    2    0    0  0.13201493994E+03 -0.10727013036E+03  0.22152056227E+04  0.22236135340E+04  0.91577139462E+02 0.  0.
         13    1    3    3    0    0  0.77929954881E+02 -0.72409283773E+02  0.81269066487E+03  0.81962326652E+03  0.00000000000E+00 0. -1.
        -13    1    3    3    0    0  0.54084985057E+02 -0.34860846591E+02  0.14025149579E+04  0.14039902675E+04  0.00000000000E+00 0.  1.
         22    1    1    2    0    0 -0.13201493994E+03  0.10727013036E+03  0.95167977440E+02  0.19491477411E+03  0.00000000000E+00 0.  1.
<mgrwt>
<rscale>  0 0.71515943E+03</rscale>
<asrwt>0</asrwt>
<pdfrwt beam="1">  1        2 0.36376160E+00 0.71515943E+03</pdfrwt>
<pdfrwt beam="2">  1       -2 0.83195948E-02 0.71515943E+03</pdfrwt>
<totfact> 0.39915368E+02</totfact>
</mgrwt>
</event>
<event>
 6    1  0.9906445E-006  0.4241940E+04  0.7818608E-02  0.7957442E-01
          2   -1    0    0  501    0  0.00000000000E+00  0.00000000000E+00  0.22119975176E+04  0.22119975176E+04  0.00000000000E+00 0. -1.
         -2   -1    0    0    0  501 -0.00000000000E+00 -0.00000000000E+00 -0.20336886740E+04  0.20336886740E+04  0.00000000000E+00 0.  1.
         23    2    1    2    0    0 -0.86057213679E+03 -0.13439563299E+04  0.14857018977E+04  0.21826593819E+04  0.99442592863E+02 0.  0.
         13    1    3    3    0    0 -0.78650619960E+02 -0.10418126440E+03  0.15827022656E+03  0.20515633182E+03  0.00000000000E+00 0.  1.
        -13    1    3    3    0    0 -0.78192151683E+03 -0.12397750655E+04  0.13274316712E+04  0.19775030501E+04  0.00000000000E+00 0. -1.
         22    1    1    2    0    0  0.86057213679E+03  0.13439563299E+04 -0.13073930541E+04  0.20630268097E+04  0.00000000000E+00 0.  1.
<mgrwt>
<rscale>  0 0.42419403E+04</rscale>
<asrwt>0</asrwt>
<pdfrwt beam="1">  1        2 0.34030731E+00 0.42419403E+04</pdfrwt>
<pdfrwt beam="2">  1       -2 0.31287518E+00 0.42419403E+04</pdfrwt>
<totfact> 0.10420801E-01</totfact>
</mgrwt>
</event>
<event>
 6    1  0.9906445E-006  0.1682658E+04  0.7818608E-02  0.8771317E-01
          2   -1    0    0  501    0  0.00000000000E+00  0.00000000000E+00  0.13165462631E+04  0.13165462631E+04  0.00000000000E+00 0. -1.
         -2   -1    0    0    0  501 -0.00000000000E+00 -0.00000000000E+00 -0.53764502684E+03  0.53764502684E+03  0.00000000000E+00 0.  1.
         23    2    1    2    0    0  0.44432912453E+03  0.71143727041E+03  0.37267982231E+03  0.92221103384E+03  0.89507431819E+02 0.  0.
         13    1    3    3    0    0  0.27873557024E+03  0.43347192192E+03  0.27553809830E+03  0.58439085278E+03  0.00000000000E+00 0.  1.
        -13    1    3    3    0    0  0.16559355430E+03  0.27796534849E+03  0.97141724017E+02  0.33782018106E+03  0.00000000000E+00 0. -1.
         22    1    1    2    0    0 -0.44432912453E+03 -0.71143727041E+03  0.40622141398E+03  0.93198025612E+03  0.00000000000E+00 0. -1.
<mgrwt>
<rscale>  0 0.16826581E+04</rscale>
<asrwt>0</asrwt>
<pdfrwt beam="1">  1        2 0.20254558E+00 0.16826581E+04</pdfrwt>
<pdfrwt beam="2">  1       -2 0.82714620E-01 0.16826581E+04</pdfrwt>
<totfact> 0.19750480E+01</totfact>
</mgrwt>
</event>
<event>
 6    1  0.9906445E-006  0.6664913E+03  0.7818608E-02  0.9776317E-01
          3   -1    0    0  501    0  0.00000000000E+00  0.00000000000E+00  0.63713377538E+03  0.63713377538E+03  0.00000000000E+00 0. -1.
         -3   -1    0    0    0  501 -0.00000000000E+00 -0.00000000000E+00 -0.17430040876E+03  0.17430040876E+03  0.00000000000E+00 0.  1.
         23    2    1    2    0    0  0.30360218177E+03  0.25090394874E+01  0.87900804912E+02  0.32898728978E+03  0.91244206826E+02 0.  0.
         13    1    3    3    0    0  0.19550553638E+03 -0.39728661387E+02  0.40200734740E+02  0.20351137650E+03  0.00000000000E+00 0. -1.
        -13    1    3    3    0    0  0.10809664539E+03  0.42237700875E+02  0.47700070172E+02  0.12547591328E+03  0.00000000000E+00 0.  1.
         22    1    1    2    0    0 -0.30360218177E+03 -0.25090394874E+01  0.37493256170E+03  0.48244689436E+03  0.00000000000E+00 0. -1.
<mgrwt>
<rscale>  0 0.66649134E+03</rscale>
<asrwt>0</asrwt>
<pdfrwt beam="1">  1        3 0.98020579E-01 0.66649134E+03</pdfrwt>
<pdfrwt beam="2">  1       -3 0.26815448E-01 0.66649134E+03</pdfrwt>
<totfact> 0.32370166E+01</totfact>
</mgrwt>
</event>
<event>
 6    1  0.9906445E-006  0.1024227E+04  0.7818608E-02  0.9282365E-01
         -2   -1    0    0    0  501 -0.00000000000E+00  0.00000000000E+00  0.15180282640E+03  0.15180282640E+03  0.00000000000E+00 0. -1.
          2   -1    0    0  501    0  0.00000000000E+00 -0.00000000000E+00 -0.17276383351E+04  0.17276383351E+04  0.00000000000E+00 0.  1.
         23    2    1    2    0    0  0.23746227653E+03 -0.35085861734E+03 -0.27868869919E+03  0.51486065909E+03  0.89016880889E+02 0.  0.
         13    1    3    3    0    0  0.17987955446E+03 -0.18830836213E+03 -0.17144837057E+03  0.31178716639E+03  0.00000000000E+00 0.  1.
        -13    1    3    3    0    0  0.57582722072E+02 -0.16255025521E+03 -0.10724032863E+03  0.20307349269E+03  0.00000000000E+00 0. -1.
         22    1    1    2    0    0 -0.23746227653E+03  0.35085861734E+03 -0.12971468095E+04  0.13645805024E+04  0.00000000000E+00 0.  1.
<mgrwt>
<rscale>  0 0.10242273E+04</rscale>
<asrwt>0</asrwt>
<pdfrwt beam="1">  1        2 0.26579049E+00 0.10242273E+04</pdfrwt>
<pdfrwt beam="2">  1       -2 0.23354283E-01 0.10242273E+04</pdfrwt>
<totfact> 0.15320487E+02</totfact>
</mgrwt>
</event>
<event>
 6    1  0.9906445E-006  0.2642581E+04  0.7818608E-02  0.8353880E-01
         -2   -1    0    0    0  501 -0.00000000000E+00  0.00000000000E+00  0.10388017171E+04  0.10388017171E+04  0.00000000000E+00 0. -1.
          2   -1    0    0  501    0  0.00000000000E+00 -0.00000000000E+00 -0.16805986830E+04  0.16805986830E+04  0.00000000000E+00 0.  1.
         23    2    1    2    0    0  0.68853889965E+03 -0.48392779322E+03 -0.13674025223E+04  0.16081959415E+04  0.90733692743E+02 0.  0.
         13    1    3    3    0    0  0.41537998887E+03 -0.23797340356E+03 -0.78965042506E+03  0.92342821581E+03  0.00000000000E+00 0.  1.
        -13    1    3    3    0    0  0.27315891078E+03 -0.24595438966E+03 -0.57775209724E+03  0.68476772573E+03  0.00000000000E+00 0. -1.
         22    1    1    2    0    0 -0.68853889965E+03  0.48392779322E+03  0.72560555636E+03  0.11112044586E+04  0.00000000000E+00 0. -1.
<mgrwt>
<rscale>  0 0.26425812E+04</rscale>
<asrwt>0</asrwt>
<pdfrwt beam="1">  1        2 0.25855364E+00 0.26425812E+04</pdfrwt>
<pdfrwt beam="2">  1       -2 0.15981565E+00 0.26425812E+04</pdfrwt>
<totfact> 0.22396956E+00</totfact>
</mgrwt>
</event>
<event>
 6    1  0.9906445E-006  0.9636864E+03  0.7818608E-02  0.9349295E-01
         -2   -1    0    0    0  501 -0.00000000000E+00  0.00000000000E+00  0.94954530415E+03  0.94954530415E+03  0.00000000000E+00 0.  1.
          2   -1    0    0  501    0  0.00000000000E+00 -0.00000000000E+00 -0.24450954642E+03  0.24450954642E+03  0.00000000000E+00 0. -1.
         23    2    1    2    0    0  0.34753690530E+03  0.16560434784E+03  0.70589187048E+03  0.80907766488E+03  0.90092366140E+02 0.  0.
         11    1    3    3    0    0  0.23789945193E+03  0.11708833356E+03  0.56468205263E+03  0.62383623464E+03  0.00000000000E+00 0.  1.
        -11    1    3    3    0    0  0.10963745336E+03  0.48516014279E+02  0.14120981784E+03  0.18524143024E+03  0.00000000000E+00 0. -1.
         22    1    1    2    0    0 -0.34753690530E+03 -0.16560434784E+03 -0.85611274609E+00  0.38497718568E+03  0.00000000000E+00 0. -1.
<mgrwt>
<rscale>  0 0.96368645E+03</rscale>
<asrwt>0</asrwt>
<pdfrwt beam="1">  1        2 0.37616854E-01 0.96368645E+03</pdfrwt>
<pdfrwt beam="2">  1       -2 0.14608389E+00 0.96368645E+03</pdfrwt>
<totfact> 0.44309721E+01</totfact>
</mgrwt>
</event>
<event>
 6    1  0.9906445E-006  0.1505821E+04  0.7818608E-02  0.8880591E-01
          2   -1    0    0  501    0  0.00000000000E+00  0.00000000000E+00  0.17024349422E+04  0.17024349422E+04  0.00000000000E+00 0. -1.
         -2   -1    0    0    0  501 -0.00000000000E+00 -0.00000000000E+00 -0.33297831971E+03  0.33297831971E+03  0.00000000000E+00 0.  1.
         23    2    1    2    0    0 -0.10715085624E+03 -0.51873129891E+03 -0.30423853382E+02  0.53867386803E+03  0.93168979709E+02 0.  0.
         11    1    3    3    0    0 -0.86621042930E+02 -0.42975665567E+03  0.10696344604E+02  0.43852981650E+03  0.00000000000E+00 0. -1.
        -11    1    3    3    0    0 -0.20529813307E+02 -0.88974643239E+02 -0.41120197986E+02  0.10014405153E+03  0.00000000000E+00 0.  1.
         22    1    1    2    0    0  0.10715085624E+03  0.51873129891E+03  0.13998804759E+04  0.14967393939E+04  0.00000000000E+00 0. -1.
<mgrwt>
<rscale>  0 0.15058206E+04</rscale>
<asrwt>0</asrwt>
<pdfrwt beam="1">  1        2 0.26191306E+00 0.15058206E+04</pdfrwt>
<pdfrwt beam="2">  1       -2 0.51227435E-01 0.15058206E+04</pdfrwt>
<totfact> 0.33994356E+01</totfact>
</mgrwt>
</event>
<event>
 6    1  0.9906445E-006  0.2164380E+04  0.7818608E-02  0.8533402E-01
          1   -1    0    0  501    0  0.00000000000E+00  0.00000000000E+00  0.89616295675E+03  0.89616295675E+03  0.00000000000E+00 0.  1.
         -1   -1    0    0    0  501 -0.00000000000E+00 -0.00000000000E+00 -0.13068325875E+04  0.13068325875E+04  0.00000000000E+00 0. -1.
         23    2    1    2    0    0 -0.95539783068E+03 -0.33499478177E+03 -0.59006052506E+03  0.11747992538E+04  0.83518530332E+02 0.  0.
         13    1    3    3    0    0 -0.50918009843E+03 -0.21813355564E+03 -0.30082547449E+03  0.63035116152E+03  0.00000000000E+00 0.  1.
        -13    1    3    3    0    0 -0.44621773225E+03 -0.11686122612E+03 -0.28923505057E+03  0.54444809232E+03  0.00000000000E+00 0. -1.
         22    1    1    2    0    0  0.95539783068E+03  0.33499478177E+03  0.17939089430E+03  0.10281962904E+04  0.00000000000E+00 0.  1.
<mgrwt>
<rscale>  0 0.21643798E+04</rscale>
<asrwt>0</asrwt>
<pdfrwt beam="1">  1        1 0.13787122E+00 0.21643798E+04</pdfrwt>
<pdfrwt beam="2">  1       -1 0.20105117E+00 0.21643798E+04</pdfrwt>
<totfact> 0.24809884E+00</totfact>
</mgrwt>
</event>
<event>
 6    1  0.9906445E-006  0.1772445E+04  0.7818608E-02  0.8721092E-01
         -1   -1    0    0    0  501 -0.00000000000E+00  0.00000000000E+00  0.13472031042E+04  0.13472031042E+04  0.00000000000E+00 0.  1.
          1   -1    0    0  501    0  0.00000000000E+00 -0.00000000000E+00 -0.58297823645E+03  0.58297823645E+03  0.00000000000E+00 0. -1.
         23    2    1    2    0    0 -0.73767730591E+03  0.35381859625E+03  0.74808631342E+03  0.11118807482E+04  0.85383013975E+02 0.  0.
         13    1    3    3    0    0 -0.27114944092E+03  0.16870155414E+03  0.32191908329E+03  0.45344694272E+03  0.00000000000E+00 0.  1.
        -13    1    3    3    0    0 -0.46652786499E+03  0.18511704211E+03  0.42616723014E+03  0.65843380543E+03  0.00000000000E+00 0. -1.
         22    1    1    2    0    0  0.73767730591E+03 -0.35381859625E+03  0.16138554304E+02  0.81830059248E+03  0.00000000000E+00 0. -1.
<mgrwt>
<rscale>  0 0.17724447E+04</rscale>
<asrwt>0</asrwt>
<pdfrwt beam="1">  1        1 0.89688960E-01 0.17724447E+04</pdfrwt>
<pdfrwt beam="2">  1       -1 0.20726202E+00 0.17724447E+04</pdfrwt>
<totfact> 0.45303505E+00</totfact>
</mgrwt>
</event>
<event>
 6    1  0.9906445E-006  0.1416961E+04  0.7818608E-02  0.8941632E-01
         -2   -1    0    0    0  501 -0.00000000000E+00  0.00000000000E+00  0.11578216570E+04  0.11578216570E+04  0.00000000000E+00 0.  1.
          2   -1    0    0  501    0  0.00000000000E+00 -0.00000000000E+00 -0.43352516246E+03  0.43352516246E+03  0.00000000000E+00 0. -1.
         23    2    1    2    0    0 -0.56006292516E+03  0.17834998591E+03  0.80196440395E+03  0.99846276527E+03  0.91114163602E+02 0.  0.
         13    1    3    3    0    0 -0.37882109266E+03  0.10248770611E+03  0.59788090386E+03  0.71517181526E+03  0.00000000000E+00 0. -1.
        -13    1    3    3    0    0 -0.18124183250E+03  0.75862279798E+02  0.20408350009E+03  0.28329095000E+03  0.00000000000E+00 0.  1.
         22    1    1    2    0    0  0.56006292516E+03 -0.17834998591E+03 -0.77667909371E+02  0.59288405423E+03  0.00000000000E+00 0. -1.
<mgrwt>
<rscale>  0 0.14169613E+04</rscale>
<asrwt>0</asrwt>
<pdfrwt beam="1">  1        2 0.66696179E-01 0.14169613E+04</pdfrwt>
<pdfrwt beam="2">  1       -2 0.17812641E+00 0.14169613E+04</pdfrwt>
<totfact> 0.13166482E+01</totfact>
</mgrwt>
</event>
<event>
 6    1  0.9906445E-006  0.3366261E+04  0.7818608E-02  0.8146237E-01
         -2   -1    0    0    0  501 -0.00000000000E+00  0.00000000000E+00  0.11599311936E+04  0.11599311936E+04  0.00000000000E+00 0.  1.
          2   -1    0    0  501    0  0.00000000000E+00 -0.00000000000E+00 -0.24423238902E+04  0.24423238902E+04  0.00000000000E+00 0. -1.
         23    2    1    2    0    0 -0.13636732739E+04  0.86126349463E+03 -0.11521971685E+04  0.19841294766E+04  0.88497795024E+02 0.  0.
         13    1    3    3    0    0 -0.12360872521E+04  0.76648992635E+03 -0.10086889193E+04  0.17699920446E+04  0.00000000000E+00 0.  1.
        -13    1    3    3    0    0 -0.12758602178E+03  0.94773568274E+02 -0.14350824918E+03  0.21413743199E+03  0.00000000000E+00 0. -1.
         22    1    1    2    0    0  0.13636732739E+04 -0.86126349463E+03 -0.13019552808E+03  0.16181256072E+04  0.00000000000E+00 0.  1.
<mgrwt>
<rscale>  0 0.33662606E+04</rscale>
<asrwt>0</asrwt>
<pdfrwt beam="1">  1        2 0.37574214E+00 0.33662606E+04</pdfrwt>
<pdfrwt beam="2">  1       -2 0.17845095E+00 0.33662606E+04</pdfrwt>
<totfact> 0.58032396E-01</totfact>
</mgrwt>
</event>
<event>
 6    1  0.9906445E-006  0.2721855E+04  0.7818608E-02  0.8327949E-01
          1   -1    0    0  501    0  0.00000000000E+00  0.00000000000E+00  0.28656439078E+04  0.28656439078E+04  0.00000000000E+00 0. -1.
         -1   -1    0    0    0  501 -0.00000000000E+00 -0.00000000000E+00 -0.64632007759E+03  0.64632007759E+03  0.00000000000E+00 0.  1.
         23    2    1    2    0    0 -0.53684482079E+03 -0.98927402898E+03  0.20952830215E+04  0.23795985018E+04  0.73570536593E+02 0.  0.
         11    1    3    3    0    0 -0.26363304987E+03 -0.55600279751E+03  0.11747464990E+04  0.13261488727E+04  0.00000000000E+00 0. -1.
        -11    1    3    3    0    0 -0.27321177093E+03 -0.43327123147E+03  0.92053652252E+03  0.10534496291E+04  0.00000000000E+00 0.  1.
         22    1    1    2    0    0  0.53684482079E+03  0.98927402898E+03  0.12404080871E+03  0.11323654835E+04  0.00000000000E+00 0.  1.
<mgrwt>
<rscale>  0 0.27218547E+04</rscale>
<asrwt>0</asrwt>
<pdfrwt beam="1">  1        1 0.44086829E+00 0.27218547E+04</pdfrwt>
<pdfrwt beam="2">  1       -1 0.99433860E-01 0.27218547E+04</pdfrwt>
<totfact> 0.62905569E-01</totfact>
</mgrwt>
</event>
<event>
 6    1  0.9906445E-006  0.2903005E+04  0.7818608E-02  0.8271984E-01
          2   -1    0    0  501    0  0.00000000000E+00  0.00000000000E+00  0.30903681852E+04  0.30903681852E+04  0.00000000000E+00 0. -1.
         -2   -1    0    0    0  501 -0.00000000000E+00 -0.00000000000E+00 -0.68175028846E+03  0.68175028846E+03  0.00000000000E+00 0.  1.
         23    2    1    2    0    0  0.86281284609E+03 -0.80482216580E+03  0.11008705938E+03  0.11884333659E+04  0.89833059206E+02 0.  0.
         13    1    3    3    0    0  0.31571631895E+03 -0.29127218490E+03  0.83519933119E+02  0.43759782790E+03  0.00000000000E+00 0. -1.
        -13    1    3    3    0    0  0.54709652713E+03 -0.51354998089E+03  0.26567126262E+02  0.75083553797E+03  0.00000000000E+00 0.  1.
         22    1    1    2    0    0 -0.86281284609E+03  0.80482216580E+03  0.22985308374E+04  0.25836851078E+04  0.00000000000E+00 0. -1.
<mgrwt>
<rscale>  0 0.29030049E+04</rscale>
<asrwt>0</asrwt>
<pdfrwt beam="1">  1        2 0.47544125E+00 0.29030049E+04</pdfrwt>
<pdfrwt beam="2">  1       -2 0.10488466E+00 0.29030049E+04</pdfrwt>
<totfact> 0.97012626E-01</totfact>
</mgrwt>
</event>
<event>
 6    1  0.9906445E-006  0.1179487E+04  0.7818608E-02  0.9131003E-01
          2   -1    0    0  501    0  0.00000000000E+00  0.00000000000E+00  0.16920505893E+04  0.16920505893E+04  0.00000000000E+00 0. -1.
         -2   -1    0    0    0  501 -0.00000000000E+00 -0.00000000000E+00 -0.20554789718E+03  0.20554789718E+03  0.00000000000E+00 0.  1.
         23    2    1    2    0    0  0.34660655274E+03  0.14913151607E+03  0.29181029055E+02  0.39222054686E+03  0.10300055063E+03 0.  0.
         11    1    3    3    0    0  0.28707392668E+03  0.10679264835E+03  0.61384442776E+02  0.31238463301E+03  0.00000000000E+00 0. -1.
        -11    1    3    3    0    0  0.59532626060E+02  0.42338867715E+02 -0.32203413721E+02  0.79835913850E+02  0.00000000000E+00 0.  1.
         22    1    1    2    0    0 -0.34660655274E+03 -0.14913151607E+03  0.14573216631E+04  0.15053779397E+04  0.00000000000E+00 0. -1.
<mgrwt>
<rscale>  0 0.11794871E+04</rscale>
<asrwt>0</asrwt>
<pdfrwt beam="1">  1        2 0.26031547E+00 0.11794871E+04</pdfrwt>
<pdfrwt beam="2">  1       -2 0.31622754E-01 0.11794871E+04</pdfrwt>
<totfact> 0.90918618E+01</totfact>
</mgrwt>
</event>
<event>
 6    1  0.9906445E-006  0.1871373E+04  0.7818608E-02  0.8669239E-01
          2   -1    0    0  501    0  0.00000000000E+00  0.00000000000E+00  0.14091545663E+04  0.14091545663E+04  0.00000000000E+00 0. -1.
         -2   -1    0    0    0  501 -0.00000000000E+00 -0.00000000000E+00 -0.62130079244E+03  0.62130079244E+03  0.00000000000E+00 0.  1.
         23    2    1    2    0    0 -0.53811557402E+03 -0.57168193092E+03 -0.15272845786E+03  0.80526821558E+03  0.93500353174E+02 0.  0.
         11    1    3    3    0    0 -0.27939134864E+03 -0.26464574505E+03 -0.32789933913E+02  0.38622801016E+03  0.00000000000E+00 0.  1.
        -11    1    3    3    0    0 -0.25872422538E+03 -0.30703618587E+03 -0.11993852394E+03  0.41904020542E+03  0.00000000000E+00 0. -1.
         22    1    1    2    0    0  0.53811557402E+03  0.57168193092E+03  0.94058223173E+03  0.12251871432E+04  0.00000000000E+00 0. -1.
<mgrwt>
<rscale>  0 0.18713726E+04</rscale>
<asrwt>0</asrwt>
<pdfrwt beam="1">  1        2 0.21679301E+00 0.18713726E+04</pdfrwt>
<pdfrwt beam="2">  1       -2 0.95584738E-01 0.18713726E+04</pdfrwt>
<totfact> 0.12331209E+01</totfact>
</mgrwt>
</event>
<event>
 6    1  0.9906445E-006  0.1081383E+04  0.7818608E-02  0.9223529E-01
         -1   -1    0    0    0  501 -0.00000000000E+00  0.00000000000E+00  0.78756595256E+03  0.78756595256E+03  0.00000000000E+00 0.  1.
          1   -1    0    0  501    0  0.00000000000E+00 -0.00000000000E+00 -0.37120389823E+03  0.37120389823E+03  0.00000000000E+00 0. -1.
         23    2    1    2    0    0 -0.16827859726E+03 -0.47519355645E+03  0.40764477973E+03  0.65458477240E+03  0.90445317343E+02 0.  0.
         11    1    3    3    0    0 -0.12297996325E+03 -0.22869016949E+03  0.23532795734E+03  0.35043189422E+03  0.00000000000E+00 0. -1.
        -11    1    3    3    0    0 -0.45298634014E+02 -0.24650338696E+03  0.17231682239E+03  0.30415287818E+03  0.00000000000E+00 0.  1.
         22    1    1    2    0    0  0.16827859726E+03  0.47519355645E+03  0.87172746011E+01  0.50418507839E+03  0.00000000000E+00 0. -1.
<mgrwt>
<rscale>  0 0.10813835E+04</rscale>
<asrwt>0</asrwt>
<pdfrwt beam="1">  1        1 0.57108292E-01 0.10813835E+04</pdfrwt>
<pdfrwt beam="2">  1       -1 0.12116399E+00 0.10813835E+04</pdfrwt>
<totfact> 0.39981016E+01</totfact>
</mgrwt>
</event>
<event>
 6    1  0.9906445E-006  0.2844083E+04  0.7818608E-02  0.8289712E-01
          1   -1    0    0  501    0  0.00000000000E+00  0.00000000000E+00  0.35288170116E+04  0.35288170116E+04  0.00000000000E+00 0. -1.
         -1   -1    0    0    0  501 -0.00000000000E+00 -0.00000000000E+00 -0.57305384923E+03  0.57305384923E+03  0.00000000000E+00 0.  1.
         23    2    1    2    0    0 -0.38071921659E+03 -0.88025071462E+02  0.34491602329E+04  0.34724773398E+04  0.93257860449E+02 0.  0.
         11    1    3    3    0    0 -0.14520177542E+03 -0.45502195542E+02  0.17403201728E+04  0.17469597331E+04  0.00000000000E+00 0.  1.
        -11    1    3    3    0    0 -0.23551744117E+03 -0.42522875920E+02  0.17088400601E+04  0.17255176067E+04  0.00000000000E+00 0. -1.
         22    1    1    2    0    0  0.38071921659E+03  0.88025071462E+02 -0.49339707051E+03  0.62939352100E+03  0.00000000000E+00 0.  1.
<mgrwt>
<rscale>  0 0.28440831E+04</rscale>
<asrwt>0</asrwt>
<pdfrwt beam="1">  1        1 0.54289491E+00 0.28440831E+04</pdfrwt>
<pdfrwt beam="2">  1       -1 0.88162133E-01 0.28440831E+04</pdfrwt>
<totfact> 0.25840662E-01</totfact>
</mgrwt>
</event>
<event>
 6    1  0.9906445E-006  0.2278533E+04  0.7818608E-02  0.8486434E-01
          1   -1    0    0  501    0  0.00000000000E+00  0.00000000000E+00  0.27470228655E+04  0.27470228655E+04  0.00000000000E+00 0. -1.
         -1   -1    0    0    0  501 -0.00000000000E+00 -0.00000000000E+00 -0.47248550281E+03  0.47248550281E+03  0.00000000000E+00 0.  1.
         23    2    1    2    0    0  0.60080822964E+03  0.30666191966E+03 -0.15486433903E+03  0.69819825447E+03  0.92118278673E+02 0.  0.
         13    1    3    3    0    0  0.27751376052E+02  0.62009629372E+01 -0.25817249278E+02  0.38407306263E+02  0.00000000000E+00 0. -1.
        -13    1    3    3    0    0  0.57305685359E+03  0.30046095673E+03 -0.12904708976E+03  0.65979094821E+03  0.00000000000E+00 0.  1.
         22    1    1    2    0    0 -0.60080822964E+03 -0.30666191966E+03  0.24294017017E+04  0.25213101138E+04  0.00000000000E+00 0. -1.
<mgrwt>
<rscale>  0 0.22785333E+04</rscale>
<asrwt>0</asrwt>
<pdfrwt beam="1">  1        1 0.42261889E+00 0.22785333E+04</pdfrwt>
<pdfrwt beam="2">  1       -1 0.72690079E-01 0.22785333E+04</pdfrwt>
<totfact> 0.15711898E+00</totfact>
</mgrwt>
</event>
<event>
 6    1  0.9906445E-006  0.2413988E+04  0.7818608E-02  0.8434285E-01
         -2   -1    0    0    0  501 -0.00000000000E+00  0.00000000000E+00  0.47103449362E+03  0.47103449362E+03  0.00000000000E+00 0.  1.
          2   -1    0    0  501    0  0.00000000000E+00 -0.00000000000E+00 -0.30928410571E+04  0.30928410571E+04  0.00000000000E+00 0. -1.
         23    2    1    2    0    0 -0.30618909658E+03  0.57146486703E+03  0.18723228410E+03  0.68099103962E+03  0.91482297279E+02 0.  0.
         11    1    3    3    0    0 -0.14168088380E+03  0.19132547577E+03  0.96952986528E+02  0.25705795477E+03  0.00000000000E+00 0.  1.
        -11    1    3    3    0    0 -0.16450821277E+03  0.38013939126E+03  0.90279297577E+02  0.42393308484E+03  0.00000000000E+00 0. -1.
         22    1    1    2    0    0  0.30618909658E+03 -0.57146486703E+03 -0.28090388476E+04  0.28828845111E+04  0.00000000000E+00 0. -1.
<mgrwt>
<rscale>  0 0.24139883E+04</rscale>
<asrwt>0</asrwt>
<pdfrwt beam="1">  1        2 0.47582168E+00 0.24139883E+04</pdfrwt>
<pdfrwt beam="2">  1       -2 0.72466849E-01 0.24139883E+04</pdfrwt>
<totfact> 0.23548208E+00</totfact>
</mgrwt>
</event>
<event>
 6    1  0.9906445E-006  0.1180050E+04  0.7818608E-02  0.9130500E-01
          1   -1    0    0  501    0  0.00000000000E+00  0.00000000000E+00  0.17557203271E+03  0.17557203271E+03  0.00000000000E+00 0. -1.
         -1   -1    0    0    0  501 -0.00000000000E+00 -0.00000000000E+00 -0.19828316910E+04  0.19828316910E+04  0.00000000000E+00 0.  1.
         23    2    1    2    0    0  0.51246230781E+03  0.12767175509E+03 -0.13758888116E+04  0.14764957377E+04  0.89732645782E+02 0.  0.
         13    1    3    3    0    0  0.33320058447E+03  0.96103596444E+02 -0.78449174193E+03  0.85772129733E+03  0.00000000000E+00 0.  1.
        -13    1    3    3    0    0  0.17926172334E+03  0.31568158645E+02 -0.59139706964E+03  0.61877444039E+03  0.00000000000E+00 0. -1.
         22    1    1    2    0    0 -0.51246230781E+03 -0.12767175509E+03 -0.43137084675E+03  0.68190798602E+03  0.00000000000E+00 0. -1.
<mgrwt>
<rscale>  0 0.11800505E+04</rscale>
<asrwt>0</asrwt>
<pdfrwt beam="1">  1        1 0.27011084E-01 0.11800505E+04</pdfrwt>
<pdfrwt beam="2">  1       -1 0.30505101E+00 0.11800505E+04</pdfrwt>
<totfact> 0.53953301E+00</totfact>
</mgrwt>
</event>
<event>
 6    1  0.9906445E-006  0.1227216E+04  0.7818608E-02  0.9089363E-01
          1   -1    0    0  501    0  0.00000000000E+00  0.00000000000E+00  0.11929036409E+04  0.11929036409E+04  0.00000000000E+00 0. -1.
         -1   -1    0    0    0  501 -0.00000000000E+00 -0.00000000000E+00 -0.31562858865E+03  0.31562858865E+03  0.00000000000E+00 0.  1.
         23    2    1    2    0    0  0.25919038929E+03  0.55101340134E+03  0.48809417123E+03  0.78585859334E+03  0.92425009555E+02 0.  0.
         11    1    3    3    0    0  0.15642741071E+03  0.30878549991E+03  0.21960751697E+03  0.40993350838E+03  0.00000000000E+00 0.  1.
        -11    1    3    3    0    0  0.10276297858E+03  0.24222790142E+03  0.26848665425E+03  0.37592508497E+03  0.00000000000E+00 0. -1.
         22    1    1    2    0    0 -0.25919038929E+03 -0.55101340134E+03  0.38918088107E+03  0.72267363626E+03  0.00000000000E+00 0. -1.
<mgrwt>
<rscale>  0 0.12272155E+04</rscale>
<asrwt>0</asrwt>
<pdfrwt beam="1">  1        1 0.18352363E+00 0.12272155E+04</pdfrwt>
<pdfrwt beam="2">  1       -1 0.48558245E-01 0.12272155E+04</pdfrwt>
<totfact> 0.45317460E+01</totfact>
</mgrwt>
</event>
<event>
 6    1  0.9906445E-006  0.4436284E+04  0.7818608E-02  0.7921887E-01
         -1   -1    0    0    0  501 -0.00000000000E+00  0.00000000000E+00  0.17337556491E+04  0.17337556491E+04  0.00000000000E+00 0. -1.
          1   -1    0    0  501    0  0.00000000000E+00 -0.00000000000E+00 -0.28378588457E+04  0.28378588457E+04  0.00000000000E+00 0.  1.
         23    2    1    2    0    0  0.17226043690E+04  0.61316035765E+03  0.74001402834E+03  0.19746740303E+04  0.91571434966E+02 0.  0.
         13    1    3    3    0    0  0.42443456405E+03  0.13020379576E+03  0.21663786280E+03  0.49399361452E+03  0.00000000000E+00 0.  1.
        -13    1    3    3    0    0  0.12981698049E+04  0.48295656189E+03  0.52337616555E+03  0.14806804158E+04  0.00000000000E+00 0. -1.
         22    1    1    2    0    0 -0.17226043690E+04 -0.61316035765E+03 -0.18441172250E+04  0.25969404645E+04  0.00000000000E+00 0.  1.
<mgrwt>
<rscale>  0 0.44362839E+04</rscale>
<asrwt>0</asrwt>
<pdfrwt beam="1">  1        1 0.43659367E+00 0.44362839E+04</pdfrwt>
<pdfrwt beam="2">  1       -1 0.26673164E+00 0.44362839E+04</pdfrwt>
<totfact> 0.32086111E-02</totfact>
</mgrwt>
</event>
<event>
 6    1  0.9906445E-006  0.2497736E+04  0.7818608E-02  0.8403793E-01
         -1   -1    0    0    0  501 -0.00000000000E+00  0.00000000000E+00  0.53028359384E+03  0.53028359384E+03  0.00000000000E+00 0.  1.
          1   -1    0    0  501    0  0.00000000000E+00 -0.00000000000E+00 -0.29412021011E+04  0.29412021011E+04  0.00000000000E+00 0. -1.
         23    2    1    2    0    0 -0.11328775511E+04 -0.50414764794E+03 -0.10213128219E+04  0.16090731849E+04  0.91979548451E+02 0.  0.
         13    1    3    3    0    0 -0.55948986870E+03 -0.19886181637E+03 -0.48288671025E+03  0.76534600680E+03  0.00000000000E+00 0. -1.
        -13    1    3    3    0    0 -0.57338768245E+03 -0.30528583157E+03 -0.53842611160E+03  0.84372717805E+03  0.00000000000E+00 0.  1.
         22    1    1    2    0    0  0.11328775511E+04  0.50414764794E+03 -0.13896056854E+04  0.18624125101E+04  0.00000000000E+00 0. -1.
<mgrwt>
<rscale>  0 0.24977360E+04</rscale>
<asrwt>0</asrwt>
<pdfrwt beam="1">  1        1 0.45249263E+00 0.24977360E+04</pdfrwt>
<pdfrwt beam="2">  1       -1 0.81582091E-01 0.24977360E+04</pdfrwt>
<totfact> 0.87673097E-01</totfact>
</mgrwt>
</event>
<event>
 6    1  0.9906445E-006  0.3803422E+04  0.7818608E-02  0.8045421E-01
          2   -1    0    0  501    0  0.00000000000E+00  0.00000000000E+00  0.30366039134E+04  0.30366039134E+04  0.00000000000E+00 0. -1.
         -2   -1    0    0    0  501 -0.00000000000E+00 -0.00000000000E+00 -0.11909703881E+04  0.11909703881E+04  0.00000000000E+00 0.  1.
         23    2    1    2    0    0  0.16220781557E+03  0.18787670595E+04  0.11871735431E+04  0.22301643318E+04  0.90415077730E+02 0.  0.
         11    1    3    3    0    0  0.28257755113E+02  0.28523803541E+03  0.14323640727E+03  0.32043081303E+03  0.00000000000E+00 0. -1.
        -11    1    3    3    0    0  0.13395006046E+03  0.15935290240E+04  0.10439371359E+04  0.19097335188E+04  0.00000000000E+00 0.  1.
         22    1    1    2    0    0 -0.16220781557E+03 -0.18787670595E+04  0.65845998214E+03  0.19974099697E+04  0.00000000000E+00 0.  1.
<mgrwt>
<rscale>  0 0.38034223E+04</rscale>
<asrwt>0</asrwt>
<pdfrwt beam="1">  1        2 0.46716983E+00 0.38034223E+04</pdfrwt>
<pdfrwt beam="2">  1       -2 0.18322621E+00 0.38034223E+04</pdfrwt>
<totfact> 0.22787631E-01</totfact>
</mgrwt>
</event>
<event>
 6    1  0.9906445E-006  0.4254194E+04  0.7818608E-02  0.7955143E-01
          2   -1    0    0  501    0  0.00000000000E+00  0.00000000000E+00  0.28020560487E+04  0.28020560487E+04  0.00000000000E+00 0. -1.
         -2   -1    0    0    0  501 -0.00000000000E+00 -0.00000000000E+00 -0.16147216875E+04  0.16147216875E+04  0.00000000000E+00 0.  1.
         23    2    1    2    0    0 -0.78102749866E+03  0.13428738858E+04  0.21010249509E+04  0.26145167338E+04  0.89875914180E+02 0.  0.
         13    1    3    3    0    0 -0.28673291686E+03  0.50946358586E+03  0.86327983322E+03  0.10426029836E+04  0.00000000000E+00 0. -1.
        -13    1    3    3    0    0 -0.49429458180E+03  0.83341029997E+03  0.12377451177E+04  0.15719137502E+04  0.00000000000E+00 0.  1.
         22    1    1    2    0    0  0.78102749866E+03 -0.13428738858E+04 -0.91369058979E+03  0.18022610024E+04  0.00000000000E+00 0.  1.
<mgrwt>
<rscale>  0 0.42541935E+04</rscale>
<asrwt>0</asrwt>
<pdfrwt beam="1">  1        2 0.43108554E+00 0.42541935E+04</pdfrwt>
<pdfrwt beam="2">  1       -2 0.24841872E+00 0.42541935E+04</pdfrwt>
<totfact> 0.11708922E-01</totfact>
</mgrwt>
</event>
<event>
 6    1  0.9906445E-006  0.2757229E+04  0.7818608E-02  0.8316671E-01
          2   -1    0    0  501    0  0.00000000000E+00  0.00000000000E+00  0.22459090194E+04  0.22459090194E+04  0.00000000000E+00 0. -1.
         -2   -1    0    0    0  501 -0.00000000000E+00 -0.00000000000E+00 -0.84623985175E+03  0.84623985175E+03  0.00000000000E+00 0.  1.
         23    2    1    2    0    0  0.60825272609E+03 -0.73983805892E+03  0.18103059888E+04  0.20500575454E+04  0.90534161185E+02 0.  0.
         11    1    3    3    0    0  0.48135221487E+03 -0.54298312947E+03  0.14260960942E+04  0.16000877175E+04  0.00000000000E+00 0.  1.
        -11    1    3    3    0    0  0.12690051122E+03 -0.19685492945E+03  0.38420989456E+03  0.44996982796E+03  0.00000000000E+00 0. -1.
         22    1    1    2    0    0 -0.60825272609E+03  0.73983805892E+03 -0.41063682115E+03  0.10420913257E+04  0.00000000000E+00 0.  1.
<mgrwt>
<rscale>  0 0.27572288E+04</rscale>
<asrwt>0</asrwt>
<pdfrwt beam="1">  1        2 0.34552446E+00 0.27572288E+04</pdfrwt>
<pdfrwt beam="2">  1       -2 0.13019075E+00 0.27572288E+04</pdfrwt>
<totfact> 0.18379494E+00</totfact>
</mgrwt>
</event>
<event>
 6    1  0.9906445E-006  0.1509098E+04  0.7818608E-02  0.8878426E-01
         -2   -1    0    0    0  501 -0.00000000000E+00  0.00000000000E+00  0.26026094899E+03  0.26026094899E+03  0.00000000000E+00 0.  1.
          2   -1    0    0  501    0  0.00000000000E+00 -0.00000000000E+00 -0.21875887320E+04  0.21875887320E+04  0.00000000000E+00 0. -1.
         23    2    1    2    0    0  0.25146293467E+02 -0.72212037273E+03 -0.63043019660E+03  0.96325090742E+03  0.91213535636E+02 0.  0.
         11    1    3    3    0    0  0.15688426425E+02 -0.24058319651E+03 -0.15579613833E+03  0.28705197767E+03  0.00000000000E+00 0.  1.
        -11    1    3    3    0    0  0.94578670420E+01 -0.48153717622E+03 -0.47463405827E+03  0.67619892975E+03  0.00000000000E+00 0. -1.
         22    1    1    2    0    0 -0.25146293467E+02  0.72212037273E+03 -0.12968975864E+04  0.14845987735E+04  0.00000000000E+00 0.  1.
<mgrwt>
<rscale>  0 0.15090976E+04</rscale>
<asrwt>0</asrwt>
<pdfrwt beam="1">  1        2 0.33655211E+00 0.15090976E+04</pdfrwt>
<pdfrwt beam="2">  1       -2 0.40040146E-01 0.15090976E+04</pdfrwt>
<totfact> 0.29936628E+01</totfact>
</mgrwt>
</event>
<event>
 6    1  0.9906445E-006  0.1324168E+04  0.7818608E-02  0.9010616E-01
         -1   -1    0    0    0  501 -0.00000000000E+00  0.00000000000E+00  0.24014555761E+03  0.24014555761E+03  0.00000000000E+00 0.  1.
          1   -1    0    0  501    0  0.00000000000E+00 -0.00000000000E+00 -0.18253741582E+04  0.18253741582E+04  0.00000000000E+00 0. -1.
         23    2    1    2    0    0  0.38992961207E+03  0.97313149534E+02 -0.16109882695E+04  0.16628057826E+04  0.90138307682E+02 0.  0.
         13    1    3    3    0    0  0.14712984055E+03  0.29320381914E+02 -0.43662864825E+03  0.46168328023E+03  0.00000000000E+00 0. -1.
        -13    1    3    3    0    0  0.24279977152E+03  0.67992767619E+02 -0.11743596213E+04  0.12011225023E+04  0.00000000000E+00 0.  1.
         22    1    1    2    0    0 -0.38992961207E+03 -0.97313149534E+02  0.25759669001E+02  0.40271393320E+03  0.00000000000E+00 0.  1.
<mgrwt>
<rscale>  0 0.13241684E+04</rscale>
<asrwt>0</asrwt>
<pdfrwt beam="1">  1        1 0.28082679E+00 0.13241684E+04</pdfrwt>
<pdfrwt beam="2">  1       -1 0.36945470E-01 0.13241684E+04</pdfrwt>
<totfact> 0.27043538E+01</totfact>
</mgrwt>
</event>
<event>
 6    1  0.9906445E-006  0.3878799E+04  0.7818608E-02  0.8029453E-01
         -2   -1    0    0    0  501 -0.00000000000E+00  0.00000000000E+00  0.20709768006E+04  0.20709768006E+04  0.00000000000E+00 0.  1.
          2   -1    0    0  501    0  0.00000000000E+00 -0.00000000000E+00 -0.18161821406E+04  0.18161821406E+04  0.00000000000E+00 0. -1.
         23    2    1    2    0    0  0.99235641107E+02  0.11200428404E+04 -0.14548049301E+04  0.18409247329E+04  0.90569371606E+02 0.  0.
         11    1    3    3    0    0  0.74630486669E+01  0.77013180769E+02 -0.66400687765E+02  0.10195969029E+03  0.00000000000E+00 0. -1.
        -11    1    3    3    0    0  0.91772592440E+02  0.10430296596E+04 -0.13884042423E+04  0.17389650426E+04  0.00000000000E+00 0.  1.
         22    1    1    2    0    0 -0.99235641107E+02 -0.11200428404E+04  0.17095995901E+04  0.20462342083E+04  0.00000000000E+00 0.  1.
<mgrwt>
<rscale>  0 0.38787993E+04</rscale>
<asrwt>0</asrwt>
<pdfrwt beam="1">  1        2 0.27941264E+00 0.38787993E+04</pdfrwt>
<pdfrwt beam="2">  1       -2 0.31861182E+00 0.38787993E+04</pdfrwt>
<totfact> 0.16442609E-01</totfact>
</mgrwt>
</event>
<event>
 6    1  0.9906445E-006  0.2294590E+04  0.7818608E-02  0.8480057E-01
          1   -1    0    0  501    0  0.00000000000E+00  0.00000000000E+00  0.30696748994E+03  0.30696748994E+03  0.00000000000E+00 0. -1.
         -1   -1    0    0    0  501 -0.00000000000E+00 -0.00000000000E+00 -0.42880294668E+04  0.42880294668E+04  0.00000000000E+00 0.  1.
         23    2    1    2    0    0 -0.83632414076E+03  0.42480574994E+03 -0.33101483132E+04  0.34417306658E+04  0.92358688474E+02 0.  0.
         13    1    3    3    0    0 -0.42626493920E+03  0.26157413866E+03 -0.16756456718E+04  0.17486884359E+04  0.00000000000E+00 0. -1.
        -13    1    3    3    0    0 -0.41005920156E+03  0.16323161128E+03 -0.16345026413E+04  0.16930422299E+04  0.00000000000E+00 0.  1.
         22    1    1    2    0    0  0.83632414076E+03 -0.42480574994E+03 -0.67091366366E+03  0.11532662909E+04  0.00000000000E+00 0. -1.
<mgrwt>
<rscale>  0 0.22945898E+04</rscale>
<asrwt>0</asrwt>
<pdfrwt beam="1">  1        1 0.47225768E-01 0.22945898E+04</pdfrwt>
<pdfrwt beam="2">  1       -1 0.65969684E+00 0.22945898E+04</pdfrwt>
<totfact> 0.20568253E-02</totfact>
</mgrwt>
</event>
<event>
 6    1  0.9906445E-006  0.1969366E+04  0.7818608E-02  0.8621078E-01
          1   -1    0    0  501    0  0.00000000000E+00  0.00000000000E+00  0.82112113497E+03  0.82112113497E+03  0.00000000000E+00 0. -1.
         -1   -1    0    0    0  501 -0.00000000000E+00 -0.00000000000E+00 -0.11808254432E+04  0.11808254432E+04  0.00000000000E+00 0.  1.
         23    2    1    2    0    0 -0.25072151092E+03 -0.51626955306E+03 -0.99084521894E+03  0.11488730897E+04  0.93485832603E+02 0.  0.
         11    1    3    3    0    0 -0.95324030969E+02 -0.22733410536E+03 -0.33933743280E+03  0.41942503459E+03  0.00000000000E+00 0.  1.
        -11    1    3    3    0    0 -0.15539747995E+03 -0.28893544770E+03 -0.65150778615E+03  0.72944805512E+03  0.00000000000E+00 0. -1.
         22    1    1    2    0    0  0.25072151092E+03  0.51626955306E+03  0.63114091074E+03  0.85307348843E+03  0.00000000000E+00 0. -1.
<mgrwt>
<rscale>  0 0.19693661E+04</rscale>
<asrwt>0</asrwt>
<pdfrwt beam="1">  1        1 0.12632633E+00 0.19693661E+04</pdfrwt>
<pdfrwt beam="2">  1       -1 0.18166545E+00 0.19693661E+04</pdfrwt>
<totfact> 0.39912430E+00</totfact>
</mgrwt>
</event>
<event>
 6    1  0.9906445E-006  0.2914968E+04  0.7818608E-02  0.8268438E-01
         -2   -1    0    0    0  501 -0.00000000000E+00  0.00000000000E+00  0.73242223179E+03  0.73242223179E+03  0.00000000000E+00 0.  1.
          2   -1    0    0  501    0  0.00000000000E+00 -0.00000000000E+00 -0.29003205150E+04  0.29003205150E+04  0.00000000000E+00 0. -1.
         23    2    1    2    0    0 -0.11495453891E+04 -0.84274157052E+03 -0.71483720338E+03  0.15972932982E+04  0.93197085634E+02 0.  0.
         13    1    3    3    0    0 -0.41648995041E+03 -0.25532127985E+03 -0.26488213972E+03  0.55571160027E+03  0.00000000000E+00 0. -1.
        -13    1    3    3    0    0 -0.73305543867E+03 -0.58742029068E+03 -0.44995506367E+03  0.10415816979E+04  0.00000000000E+00 0.  1.
         22    1    1    2    0    0  0.11495453891E+04  0.84274157052E+03 -0.14530610799E+04  0.20354494487E+04  0.00000000000E+00 0. -1.
<mgrwt>
<rscale>  0 0.29149677E+04</rscale>
<asrwt>0</asrwt>
<pdfrwt beam="1">  1        2 0.44620316E+00 0.29149677E+04</pdfrwt>
<pdfrwt beam="2">  1       -2 0.11268034E+00 0.29149677E+04</pdfrwt>
<totfact> 0.10721968E+00</totfact>
</mgrwt>
</event>
<event>
 6    1  0.9906445E-006  0.2290489E+04  0.7818608E-02  0.8481681E-01
         -2   -1    0    0    0  501 -0.00000000000E+00  0.00000000000E+00  0.55463433888E+03  0.55463433888E+03  0.00000000000E+00 0.  1.
          2   -1    0    0  501    0  0.00000000000E+00 -0.00000000000E+00 -0.23647733388E+04  0.23647733388E+04  0.00000000000E+00 0. -1.
         23    2    1    2    0    0 -0.74893306015E+03 -0.74923805376E+03 -0.14549274253E+04  0.18020744004E+04  0.91651196385E+02 0.  0.
         11    1    3    3    0    0 -0.18775641827E+03 -0.13587540279E+03 -0.33234855420E+03  0.40517916921E+03  0.00000000000E+00 0. -1.
        -11    1    3    3    0    0 -0.56117664188E+03 -0.61336265097E+03 -0.11225788711E+04  0.13968952312E+04  0.00000000000E+00 0.  1.
         22    1    1    2    0    0  0.74893306015E+03  0.74923805376E+03 -0.35521157458E+03  0.11173332773E+04  0.00000000000E+00 0. -1.
<mgrwt>
<rscale>  0 0.22904886E+04</rscale>
<asrwt>0</asrwt>
<pdfrwt beam="1">  1        2 0.36381128E+00 0.22904886E+04</pdfrwt>
<pdfrwt beam="2">  1       -2 0.85328359E-01 0.22904886E+04</pdfrwt>
<totfact> 0.45123733E+00</totfact>
</mgrwt>
</event>
<event>
 6    1  0.9906445E-006  0.2403002E+04  0.7818608E-02  0.8438381E-01
          2   -1    0    0  501    0  0.00000000000E+00  0.00000000000E+00  0.23673029612E+04  0.23673029612E+04  0.00000000000E+00 0. -1.
         -2   -1    0    0    0  501 -0.00000000000E+00 -0.00000000000E+00 -0.60980978032E+03  0.60980978032E+03  0.00000000000E+00 0.  1.
         23    2    1    2    0    0 -0.60110687728E+02 -0.63913242486E+03 -0.37565318692E+03  0.74946443496E+03  0.92076441813E+02 0.  0.
         11    1    3    3    0    0 -0.25491284104E+02 -0.57540462573E+03 -0.33137145120E+03  0.66449027649E+03  0.00000000000E+00 0.  1.
        -11    1    3    3    0    0 -0.34619403623E+02 -0.63727799125E+02 -0.44281735719E+02  0.84974158465E+02  0.00000000000E+00 0. -1.
         22    1    1    2    0    0  0.60110687728E+02  0.63913242486E+03  0.21331463678E+04  0.22276483066E+04  0.00000000000E+00 0. -1.
<mgrwt>
<rscale>  0 0.24030019E+04</rscale>
<asrwt>0</asrwt>
<pdfrwt beam="1">  1        2 0.36420045E+00 0.24030019E+04</pdfrwt>
<pdfrwt beam="2">  1       -2 0.93816890E-01 0.24030019E+04</pdfrwt>
<totfact> 0.35804881E+00</totfact>
</mgrwt>
</event>
<event>
 6    1  0.9906445E-006  0.1252576E+04  0.7818608E-02  0.9068042E-01
         -1   -1    0    0    0  501 -0.00000000000E+00  0.00000000000E+00  0.39141719059E+03  0.39141719059E+03  0.00000000000E+00 0.  1.
          1   -1    0    0  501    0  0.00000000000E+00 -0.00000000000E+00 -0.10020941755E+04  0.10020941755E+04  0.00000000000E+00 0. -1.
         23    2    1    2    0    0 -0.56795772079E+03 -0.16577945610E+03 -0.89084870767E+02  0.60476734283E+03  0.88026269312E+02 0.  0.
         13    1    3    3    0    0 -0.49630805057E+03 -0.17390853438E+03 -0.82957117189E+02  0.53239810544E+03  0.00000000000E+00 0.  1.
        -13    1    3    3    0    0 -0.71649670218E+02  0.81290782772E+01 -0.61277535784E+01  0.72369237386E+02  0.00000000000E+00 0. -1.
         22    1    1    2    0    0  0.56795772079E+03  0.16577945610E+03 -0.52159211412E+03  0.78874402323E+03  0.00000000000E+00 0.  1.
<mgrwt>
<rscale>  0 0.12525764E+04</rscale>
<asrwt>0</asrwt>
<pdfrwt beam="1">  1        1 0.15416833E+00 0.12525764E+04</pdfrwt>
<pdfrwt beam="2">  1       -1 0.60218030E-01 0.12525764E+04</pdfrwt>
<totfact> 0.41561092E+01</totfact>
</mgrwt>
</event>
<event>
 6    1  0.9906445E-006  0.1508372E+04  0.7818608E-02  0.8878905E-01
         -2   -1    0    0    0  501 -0.00000000000E+00  0.00000000000E+00  0.27594489307E+03  0.27594489307E+03  0.00000000000E+00 0. -1.
          2   -1    0    0  501    0  0.00000000000E+00 -0.00000000000E+00 -0.20612690792E+04  0.20612690792E+04  0.00000000000E+00 0.  1.
         23    2    1    2    0    0 -0.51092381783E+03 -0.54806893704E+03 -0.80823071655E+03  0.11058998955E+04  0.91405581352E+02 0.  0.
         13    1    3    3    0    0 -0.40105635785E+03 -0.42922089801E+03 -0.57498950696E+03  0.82200347601E+03  0.00000000000E+00 0.  1.
        -13    1    3    3    0    0 -0.10986745999E+03 -0.11884803903E+03 -0.23324120959E+03  0.28389641949E+03  0.00000000000E+00 0. -1.
         22    1    1    2    0    0  0.51092381783E+03  0.54806893704E+03 -0.97709346960E+03  0.12313140768E+04  0.00000000000E+00 0. -1.
<mgrwt>
<rscale>  0 0.15083722E+04</rscale>
<asrwt>0</asrwt>
<pdfrwt beam="1">  1        2 0.31711832E+00 0.15083722E+04</pdfrwt>
<pdfrwt beam="2">  1       -2 0.42453060E-01 0.15083722E+04</pdfrwt>
<totfact> 0.31382374E+01</totfact>
</mgrwt>
</event>
<event>
 6    1  0.9906445E-006  0.2128130E+04  0.7818608E-02  0.8548952E-01
         -2   -1    0    0    0  501 -0.00000000000E+00  0.00000000000E+00  0.18212125941E+04  0.18212125941E+04  0.00000000000E+00 0.  1.
          2   -1    0    0  501    0  0.00000000000E+00 -0.00000000000E+00 -0.62169252259E+03  0.62169252259E+03  0.00000000000E+00 0. -1.
         23    2    1    2    0    0 -0.41374797416E+03  0.37713966160E+03 -0.43522482537E+03  0.71495471569E+03  0.91202447322E+02 0.  0.
         13    1    3    3    0    0 -0.28165186174E+03  0.23236658085E+03 -0.23187360833E+03  0.43253597464E+03  0.00000000000E+00 0.  1.
        -13    1    3    3    0    0 -0.13209611242E+03  0.14477308074E+03 -0.20335121703E+03  0.28241874105E+03  0.00000000000E+00 0. -1.
         22    1    1    2    0    0  0.41374797416E+03 -0.37713966160E+03  0.16347448969E+04  0.17279504010E+04  0.00000000000E+00 0.  1.
<mgrwt>
<rscale>  0 0.21281299E+04</rscale>
<asrwt>0</asrwt>
<pdfrwt beam="1">  1        2 0.95645004E-01 0.21281299E+04</pdfrwt>
<pdfrwt beam="2">  1       -2 0.28018655E+00 0.21281299E+04</pdfrwt>
<totfact> 0.18347842E+00</totfact>
</mgrwt>
</event>
<event>
 6    1  0.9906445E-006  0.1436734E+04  0.7818608E-02  0.8927650E-01
          1   -1    0    0  501    0  0.00000000000E+00  0.00000000000E+00  0.16153464281E+04  0.16153464281E+04  0.00000000000E+00 0.  1.
         -1   -1    0    0    0  501 -0.00000000000E+00 -0.00000000000E+00 -0.31946761092E+03  0.31946761092E+03  0.00000000000E+00 0. -1.
         23    2    1    2    0    0  0.45620873219E+03 -0.28595996325E+03  0.12851287433E+04  0.13962835645E+04  0.90290628930E+02 0.  0.
         13    1    3    3    0    0  0.16583879478E+03 -0.15592523209E+03  0.55245227116E+03  0.59751041478E+03  0.00000000000E+00 0.  1.
        -13    1    3    3    0    0  0.29036993741E+03 -0.13003473116E+03  0.73267647213E+03  0.79877314970E+03  0.00000000000E+00 0. -1.
         22    1    1    2    0    0 -0.45620873219E+03  0.28595996325E+03  0.10750073876E+02  0.53853047453E+03  0.00000000000E+00 0. -1.
<mgrwt>
<rscale>  0 0.14367336E+04</rscale>
<asrwt>0</asrwt>
<pdfrwt beam="1">  1        1 0.24851483E+00 0.14367336E+04</pdfrwt>
<pdfrwt beam="2">  1       -1 0.49148864E-01 0.14367336E+04</pdfrwt>
<totfact> 0.21960665E+01</totfact>
</mgrwt>
</event>
<event>
 6    1  0.9906445E-006  0.3443050E+04  0.7818608E-02  0.8127421E-01
         -2   -1    0    0    0  501 -0.00000000000E+00  0.00000000000E+00  0.21635514334E+04  0.21635514334E+04  0.00000000000E+00 0.  1.
          2   -1    0    0  501    0  0.00000000000E+00 -0.00000000000E+00 -0.13698073098E+04  0.13698073098E+04  0.00000000000E+00 0. -1.
         23    2    1    2    0    0 -0.86350768390E+03  0.13448475099E+04 -0.25598927025E+03  0.16212393580E+04  0.92877360960E+02 0.  0.
         13    1    3    3    0    0 -0.48676171459E+03  0.69763369912E+03 -0.10283381255E+03  0.85685736149E+03  0.00000000000E+00 0. -1.
        -13    1    3    3    0    0 -0.37674596931E+03  0.64721381080E+03 -0.15315545769E+03  0.76438199646E+03  0.00000000000E+00 0.  1.
         22    1    1    2    0    0  0.86350768390E+03 -0.13448475099E+04  0.10497333939E+04  0.19121193853E+04  0.00000000000E+00 0.  1.
<mgrwt>
<rscale>  0 0.34430501E+04</rscale>
<asrwt>0</asrwt>
<pdfrwt beam="1">  1        2 0.21073959E+00 0.34430501E+04</pdfrwt>
<pdfrwt beam="2">  1       -2 0.33285407E+00 0.34430501E+04</pdfrwt>
<totfact> 0.24767024E-01</totfact>
</mgrwt>
</event>
<event>
 6    1  0.9906445E-006  0.1304462E+04  0.7818608E-02  0.9026034E-01
         -1   -1    0    0    0  501 -0.00000000000E+00  0.00000000000E+00  0.26862008237E+03  0.26862008237E+03  0.00000000000E+00 0.  1.
          1   -1    0    0  501    0  0.00000000000E+00 -0.00000000000E+00 -0.15836697960E+04  0.15836697960E+04  0.00000000000E+00 0. -1.
         23    2    1    2    0    0 -0.40942758349E+03 -0.45435905771E+03 -0.97010901998E+03  0.11501095728E+04  0.86990914775E+02 0.  0.
         13    1    3    3    0    0 -0.13804474784E+03 -0.10926251366E+03 -0.23092237591E+03  0.29037870617E+03  0.00000000000E+00 0. -1.
        -13    1    3    3    0    0 -0.27138283565E+03 -0.34509654404E+03 -0.73918664407E+03  0.85973086659E+03  0.00000000000E+00 0.  1.
         22    1    1    2    0    0  0.40942758349E+03  0.45435905771E+03 -0.34494069362E+03  0.70218030559E+03  0.00000000000E+00 0.  1.
<mgrwt>
<rscale>  0 0.13044624E+04</rscale>
<asrwt>0</asrwt>
<pdfrwt beam="1">  1        1 0.24364151E+00 0.13044624E+04</pdfrwt>
<pdfrwt beam="2">  1       -1 0.41326166E-01 0.13044624E+04</pdfrwt>
<totfact> 0.32262629E+01</totfact>
</mgrwt>
</event>
<event>
 6    1  0.9906445E-006  0.6996745E+04  0.7818608E-02  0.7577771E-01
         -1   -1    0    0    0  501 -0.00000000000E+00  0.00000000000E+00  0.34472837355E+04  0.34472837355E+04  0.00000000000E+00 0.  1.
          1   -1    0    0  501    0  0.00000000000E+00 -0.00000000000E+00 -0.35502186759E+04  0.35502186759E+04  0.00000000000E+00 0. -1.
         23    2    1    2    0    0  0.33150987485E+02  0.26654044928E+04  0.22134863830E+04  0.34660313517E+04  0.91494618742E+02 0.  0.
         11    1    3    3    0    0  0.93463508545E+01  0.13577355350E+04  0.11860554498E+04  0.18028479324E+04  0.00000000000E+00 0.  1.
        -11    1    3    3    0    0  0.23804636631E+02  0.13076689578E+04  0.10274309332E+04  0.16631834194E+04  0.00000000000E+00 0. -1.
         22    1    1    2    0    0 -0.33150987485E+02 -0.26654044928E+04 -0.23164213234E+04  0.35314710597E+04  0.00000000000E+00 0. -1.
<mgrwt>
<rscale>  0 0.69967453E+04</rscale>
<asrwt>0</asrwt>
<pdfrwt beam="1">  1        1 0.54618749E+00 0.69967453E+04</pdfrwt>
<pdfrwt beam="2">  1       -1 0.53035135E+00 0.69967453E+04</pdfrwt>
<totfact> 0.13924377E-04</totfact>
</mgrwt>
</event>
<event>
 6    1  0.9906445E-006  0.1197974E+04  0.7818608E-02  0.9114631E-01
          1   -1    0    0  501    0  0.00000000000E+00  0.00000000000E+00  0.28248377043E+04  0.28248377043E+04  0.00000000000E+00 0. -1.
         -1   -1    0    0    0  501 -0.00000000000E+00 -0.00000000000E+00 -0.12701106288E+03  0.12701106288E+03  0.00000000000E+00 0.  1.
         23    2    1    2    0    0  0.27829073381E+03 -0.49211134232E+03  0.89424083749E+03  0.10617320888E+04  0.89381470163E+02 0.  0.
         13    1    3    3    0    0  0.72907965606E+02 -0.18455504489E+03  0.25361536436E+03  0.32202001348E+03  0.00000000000E+00 0. -1.
        -13    1    3    3    0    0  0.20538276820E+03 -0.30755629743E+03  0.64062547313E+03  0.73971207533E+03  0.00000000000E+00 0.  1.
         22    1    1    2    0    0 -0.27829073381E+03  0.49211134232E+03  0.18035858039E+04  0.18901166784E+04  0.00000000000E+00 0. -1.
<mgrwt>
<rscale>  0 0.11979744E+04</rscale>
<asrwt>0</asrwt>
<pdfrwt beam="1">  1        1 0.43459037E+00 0.11979744E+04</pdfrwt>
<pdfrwt beam="2">  1       -1 0.19540166E-01 0.11979744E+04</pdfrwt>
<totfact> 0.17020690E+01</totfact>
</mgrwt>
</event>
<event>
 6    1  0.9906445E-006  0.1182845E+04  0.7818608E-02  0.9128006E-01
         -2   -1    0    0    0  501 -0.00000000000E+00  0.00000000000E+00  0.12907020937E+03  0.12907020937E+03  0.00000000000E+00 0.  1.
          2   -1    0    0  501    0  0.00000000000E+00 -0.00000000000E+00 -0.27100013416E+04  0.27100013416E+04  0.00000000000E+00 0. -1.
         23    2    1    2    0    0 -0.21774682644E+03  0.48439032305E+03 -0.19040347964E+04  0.19787016800E+04  0.88680137517E+02 0.  0.
         11    1    3    3    0    0 -0.10265966863E+03  0.18101679327E+03 -0.89067725822E+03  0.91466500169E+03  0.00000000000E+00 0. -1.
        -11    1    3    3    0    0 -0.11508715781E+03  0.30337352978E+03 -0.10133575382E+04  0.10640366783E+04  0.00000000000E+00 0.  1.
         22    1    1    2    0    0  0.21774682644E+03 -0.48439032305E+03 -0.67689633577E+03  0.86036987097E+03  0.00000000000E+00 0. -1.
<mgrwt>
<rscale>  0 0.11828448E+04</rscale>
<asrwt>0</asrwt>
<pdfrwt beam="1">  1        2 0.41692327E+00 0.11828448E+04</pdfrwt>
<pdfrwt beam="2">  1       -2 0.19856956E-01 0.11828448E+04</pdfrwt>
<totfact> 0.56566840E+01</totfact>
</mgrwt>
</event>
<event>
 6    1  0.9906445E-006  0.2657887E+04  0.7818608E-02  0.8348800E-01
          1   -1    0    0  501    0  0.00000000000E+00  0.00000000000E+00  0.13948658077E+04  0.13948658077E+04  0.00000000000E+00 0. -1.
         -1   -1    0    0    0  501 -0.00000000000E+00 -0.00000000000E+00 -0.12661371138E+04  0.12661371138E+04  0.00000000000E+00 0.  1.
         23    2    1    2    0    0 -0.10321989197E+04  0.64145250737E+03 -0.47007580717E+03  0.13062104061E+04  0.91205436201E+02 0.  0.
         11    1    3    3    0    0 -0.13711915017E+03  0.65835069865E+02 -0.86634991191E+02  0.17504724924E+03  0.00000000000E+00 0. -1.
        -11    1    3    3    0    0 -0.89507976952E+03  0.57561743751E+03 -0.38344081598E+03  0.11311631569E+04  0.00000000000E+00 0.  1.
         22    1    1    2    0    0  0.10321989197E+04 -0.64145250737E+03  0.59880450106E+03  0.13547925153E+04  0.00000000000E+00 0. -1.
<mgrwt>
<rscale>  0 0.26578874E+04</rscale>
<asrwt>0</asrwt>
<pdfrwt beam="1">  1        1 0.21459474E+00 0.26578874E+04</pdfrwt>
<pdfrwt beam="2">  1       -1 0.19479033E+00 0.26578874E+04</pdfrwt>
<totfact> 0.11105084E+00</totfact>
</mgrwt>
</event>
<event>
 6    1  0.9906445E-006  0.1066421E+04  0.7818608E-02  0.9238553E-01
          2   -1    0    0  501    0  0.00000000000E+00  0.00000000000E+00  0.10009125909E+04  0.10009125909E+04  0.00000000000E+00 0. -1.
         -2   -1    0    0    0  501 -0.00000000000E+00 -0.00000000000E+00 -0.28405427606E+03  0.28405427606E+03  0.00000000000E+00 0.  1.
         23    2    1    2    0    0 -0.20899877857E+03  0.42556357593E+03  0.64462581708E+03  0.80538123298E+03  0.91168195027E+02 0.  0.
         11    1    3    3    0    0 -0.18092468755E+03  0.27488718971E+03  0.42345010002E+03  0.53628975083E+03  0.00000000000E+00 0.  1.
        -11    1    3    3    0    0 -0.28074091020E+02  0.15067638622E+03  0.22117571706E+03  0.26909148215E+03  0.00000000000E+00 0. -1.
         22    1    1    2    0    0  0.20899877857E+03 -0.42556357593E+03  0.72232497779E+02  0.47958563400E+03  0.00000000000E+00 0.  1.
<mgrwt>
<rscale>  0 0.10664211E+04</rscale>
<asrwt>0</asrwt>
<pdfrwt beam="1">  1        2 0.15398655E+00 0.10664211E+04</pdfrwt>
<pdfrwt beam="2">  1       -2 0.43700658E-01 0.10664211E+04</pdfrwt>
<totfact> 0.12418332E+02</totfact>
</mgrwt>
</event>
<event>
 6    1  0.9906445E-006  0.9380974E+03  0.7818608E-02  0.9379172E-01
          1   -1    0    0  501    0  0.00000000000E+00  0.00000000000E+00  0.71041253266E+03  0.71041253266E+03  0.00000000000E+00 0. -1.
         -1   -1    0    0    0  501 -0.00000000000E+00 -0.00000000000E+00 -0.30968864898E+03  0.30968864898E+03  0.00000000000E+00 0.  1.
         23    2    1    2    0    0 -0.44093561933E+03  0.11954166064E+03  0.11047633504E+03  0.47884517150E+03  0.91505456884E+02 0.  0.
         13    1    3    3    0    0 -0.29614944258E+03  0.70737277949E+02  0.29454364293E+02  0.30590164172E+03  0.00000000000E+00 0. -1.
        -13    1    3    3    0    0 -0.14478617675E+03  0.48804382688E+02  0.81021970745E+02  0.17294352978E+03  0.00000000000E+00 0.  1.
         22    1    1    2    0    0  0.44093561933E+03 -0.11954166064E+03  0.29024754864E+03  0.54125601014E+03  0.00000000000E+00 0. -1.
<mgrwt>
<rscale>  0 0.93809743E+03</rscale>
<asrwt>0</asrwt>
<pdfrwt beam="1">  1        1 0.10929424E+00 0.93809743E+03</pdfrwt>
<pdfrwt beam="2">  1       -1 0.47644408E-01 0.93809743E+03</pdfrwt>
<totfact> 0.11781613E+02</totfact>
</mgrwt>
</event>
<event>
 6    1  0.9906445E-006  0.8048963E+03  0.7818608E-02  0.9552957E-01
          2   -1    0    0  501    0  0.00000000000E+00  0.00000000000E+00  0.14188565717E+04  0.14188565717E+04  0.00000000000E+00 0. -1.
         -2   -1    0    0    0  501 -0.00000000000E+00 -0.00000000000E+00 -0.11415144129E+03  0.11415144129E+03  0.00000000000E+00 0.  1.
         23    2    1    2    0    0  0.14223362838E+03  0.50055543738E+02  0.13607596117E+04  0.13721413994E+04  0.91484078039E+02 0.  0.
         11    1    3    3    0    0  0.41492353941E+02  0.29283767590E+02  0.82719610120E+03  0.82875360894E+03  0.00000000000E+00 0. -1.
        -11    1    3    3    0    0  0.10074127444E+03  0.20771776148E+02  0.53356351050E+03  0.54338779044E+03  0.00000000000E+00 0.  1.
         22    1    1    2    0    0 -0.14223362838E+03 -0.50055543738E+02 -0.56054481301E+02  0.16086661361E+03  0.00000000000E+00 0.  1.
<mgrwt>
<rscale>  0 0.80489632E+03</rscale>
<asrwt>0</asrwt>
<pdfrwt beam="1">  1        2 0.21828561E+00 0.80489632E+03</pdfrwt>
<pdfrwt beam="2">  1       -2 0.17561761E-01 0.80489632E+03</pdfrwt>
<totfact> 0.38084302E+02</totfact>
</mgrwt>
</event>
<event>
 6    1  0.9906445E-006  0.1033910E+04  0.7818608E-02  0.9272115E-01
         -2   -1    0    0    0  501 -0.00000000000E+00  0.00000000000E+00  0.97381394995E+02  0.97381394995E+02  0.00000000000E+00 0.  1.
          2   -1    0    0  501    0  0.00000000000E+00 -0.00000000000E+00 -0.27442878636E+04  0.27442878636E+04  0.00000000000E+00 0. -1.
         23    2    1    2    0    0 -0.19182424511E+03  0.45389427749E+03 -0.94258842889E+03  0.10675450982E+04  0.91449626447E+02 0.  0.
         13    1    3    3    0    0 -0.73481323304E+02  0.28724003123E+03 -0.57568555816E+03  0.64754938213E+03  0.00000000000E+00 0.  1.
        -13    1    3    3    0    0 -0.11834292181E+03  0.16665424626E+03 -0.36690287074E+03  0.41999571604E+03  0.00000000000E+00 0. -1.
         22    1    1    2    0    0  0.19182424511E+03 -0.45389427749E+03 -0.17043180398E+04  0.17741241605E+04  0.00000000000E+00 0. -1.
<mgrwt>
<rscale>  0 0.10339102E+04</rscale>
<asrwt>0</asrwt>
<pdfrwt beam="1">  1        2 0.42219814E+00 0.10339102E+04</pdfrwt>
<pdfrwt beam="2">  1       -2 0.14981753E-01 0.10339102E+04</pdfrwt>
<totfact> 0.89033570E+01</totfact>
</mgrwt>
</event>
<event>
 6    1  0.9906445E-006  0.3591342E+04  0.7818608E-02  0.8092478E-01
         -2   -1    0    0    0  501 -0.00000000000E+00  0.00000000000E+00  0.16715479561E+04  0.16715479561E+04  0.00000000000E+00 0.  1.
          2   -1    0    0  501    0  0.00000000000E+00 -0.00000000000E+00 -0.19290111991E+04  0.19290111991E+04  0.00000000000E+00 0. -1.
         23    2    1    2    0    0 -0.15471190387E+03  0.17784629198E+04 -0.31228093271E+03  0.18145381280E+04  0.90349913464E+02 0.  0.
         11    1    3    3    0    0 -0.15971754126E+03  0.15753622847E+04 -0.29457614464E+03  0.16106058257E+04  0.00000000000E+00 0.  1.
        -11    1    3    3    0    0  0.50056373892E+01  0.20310063513E+03 -0.17704788075E+02  0.20393230229E+03  0.00000000000E+00 0. -1.
         22    1    1    2    0    0  0.15471190387E+03 -0.17784629198E+04  0.54817689736E+02  0.17860210271E+04  0.00000000000E+00 0.  1.
<mgrwt>
<rscale>  0 0.35913422E+04</rscale>
<asrwt>0</asrwt>
<pdfrwt beam="1">  1        2 0.29677095E+00 0.35913422E+04</pdfrwt>
<pdfrwt beam="2">  1       -2 0.25716122E+00 0.35913422E+04</pdfrwt>
<totfact> 0.34657792E-01</totfact>
</mgrwt>
</event>
<event>
 6    1  0.1004928E-005  0.2254825E+04  0.7818608E-02  0.8495949E-01
         -1   -1    0    0    0  501 -0.00000000000E+00  0.00000000000E+00  0.66492858179E+03  0.66492858179E+03  0.00000000000E+00 0.  1.
          1   -1    0    0  501    0  0.00000000000E+00 -0.00000000000E+00 -0.19115725628E+04  0.19115725628E+04  0.00000000000E+00 0. -1.
         23    2    1    2    0    0  0.92561963219E+03  0.51501980229E+03 -0.10593255304E+04  0.15008128523E+04  0.90837977539E+02 0.  0.
         13    1    3    3    0    0  0.51089179318E+03  0.33448664111E+03 -0.59508725147E+03  0.85265501481E+03  0.00000000000E+00 0. -1.
        -13    1    3    3    0    0  0.41472783901E+03  0.18053316118E+03 -0.46423827888E+03  0.64815783750E+03  0.00000000000E+00 0.  1.
         22    1    1    2    0    0 -0.92561963219E+03 -0.51501980229E+03 -0.18731845070E+03  0.10756882923E+04  0.00000000000E+00 0.  1.
<mgrwt>
<rscale>  0 0.22548253E+04</rscale>
<asrwt>0</asrwt>
<pdfrwt beam="1">  1        1 0.29408808E+00 0.22548253E+04</pdfrwt>
<pdfrwt beam="2">  1       -1 0.10229671E+00 0.22548253E+04</pdfrwt>
<totfact> 0.28079832E+00</totfact>
</mgrwt>
</event>
<event>
 6    1  0.9906445E-006  0.1517503E+04  0.7818608E-02  0.8872896E-01
         -2   -1    0    0    0  501 -0.00000000000E+00  0.00000000000E+00  0.18485017056E+03  0.18485017056E+03  0.00000000000E+00 0.  1.
          2   -1    0    0  501    0  0.00000000000E+00 -0.00000000000E+00 -0.31144344709E+04  0.31144344709E+04  0.00000000000E+00 0. -1.
         23    2    1    2    0    0  0.33584789486E+02 -0.55220440859E+03 -0.25904148477E+04  0.26503674167E+04  0.90225901741E+02 0.  0.
         13    1    3    3    0    0  0.54247995546E+02 -0.45190697565E+03 -0.22119914473E+04  0.22583332178E+04  0.00000000000E+00 0. -1.
        -13    1    3    3    0    0 -0.20663206060E+02 -0.10029743294E+03 -0.37842340047E+03  0.39203419897E+03  0.00000000000E+00 0.  1.
         22    1    1    2    0    0 -0.33584789486E+02  0.55220440859E+03 -0.33916945259E+03  0.64891722471E+03  0.00000000000E+00 0.  1.
<mgrwt>
<rscale>  0 0.15175029E+04</rscale>
<asrwt>0</asrwt>
<pdfrwt beam="1">  1        2 0.47914375E+00 0.15175029E+04</pdfrwt>
<pdfrwt beam="2">  1       -2 0.28438489E-01 0.15175029E+04</pdfrwt>
<totfact> 0.16236083E+01</totfact>
</mgrwt>
</event>
<event>
 6    1  0.9906445E-006  0.2490355E+04  0.7818608E-02  0.8406430E-01
          1   -1    0    0  501    0  0.00000000000E+00  0.00000000000E+00  0.86430148173E+03  0.86430148173E+03  0.00000000000E+00 0.  1.
         -1   -1    0    0    0  501 -0.00000000000E+00 -0.00000000000E+00 -0.17938953525E+04  0.17938953525E+04  0.00000000000E+00 0. -1.
         23    2    1    2    0    0  0.90299229575E+02 -0.32681991339E+03  0.81154885062E+03  0.88434701452E+03  0.92156923270E+02 0.  0.
         13    1    3    3    0    0  0.31986510858E+02 -0.19073727982E+02  0.10747716378E+03  0.11374658109E+03  0.00000000000E+00 0.  1.
        -13    1    3    3    0    0  0.58312718717E+02 -0.30774618541E+03  0.70407168684E+03  0.77060043343E+03  0.00000000000E+00 0. -1.
         22    1    1    2    0    0 -0.90299229575E+02  0.32681991339E+03 -0.17411427214E+04  0.17738498197E+04  0.00000000000E+00 0. -1.
<mgrwt>
<rscale>  0 0.24903545E+04</rscale>
<asrwt>0</asrwt>
<pdfrwt beam="1">  1        1 0.13296946E+00 0.24903545E+04</pdfrwt>
<pdfrwt beam="2">  1       -1 0.27598390E+00 0.24903545E+04</pdfrwt>
<totfact> 0.81848422E-01</totfact>
</mgrwt>
</event>
<event>
 6    1  0.9906445E-006  0.2313776E+04  0.7818608E-02  0.8472509E-01
          2   -1    0    0  501    0  0.00000000000E+00  0.00000000000E+00  0.95062660884E+03  0.95062660884E+03  0.00000000000E+00 0. -1.
         -2   -1    0    0    0  501 -0.00000000000E+00 -0.00000000000E+00 -0.14079032175E+04  0.14079032175E+04  0.00000000000E+00 0.  1.
         23    2    1    2    0    0 -0.31817032049E+03  0.10951434391E+04 -0.41596482432E+03  0.12173557956E+04  0.91416043213E+02 0.  0.
         13    1    3    3    0    0 -0.23903128542E+03  0.67720453244E+03 -0.24266354872E+03  0.75804190652E+03  0.00000000000E+00 0. -1.
        -13    1    3    3    0    0 -0.79139035071E+02  0.41793890664E+03 -0.17330127561E+03  0.45931388906E+03  0.00000000000E+00 0.  1.
         22    1    1    2    0    0  0.31817032049E+03 -0.10951434391E+04 -0.41311784345E+02  0.11411740308E+04  0.00000000000E+00 0.  1.
<mgrwt>
<rscale>  0 0.23137764E+04</rscale>
<asrwt>0</asrwt>
<pdfrwt beam="1">  1        2 0.14625025E+00 0.23137764E+04</pdfrwt>
<pdfrwt beam="2">  1       -2 0.21660049E+00 0.23137764E+04</pdfrwt>
<totfact> 0.25509396E+00</totfact>
</mgrwt>
</event>
<event>
 6    1  0.9906445E-006  0.1919330E+04  0.7818608E-02  0.8645294E-01
         -1   -1    0    0    0  501 -0.00000000000E+00  0.00000000000E+00  0.88667480272E+03  0.88667480272E+03  0.00000000000E+00 0.  1.
          1   -1    0    0  501    0  0.00000000000E+00 -0.00000000000E+00 -0.10386642013E+04  0.10386642013E+04  0.00000000000E+00 0. -1.
         23    2    1    2    0    0 -0.94452370711E+03 -0.45346300710E+02  0.74836832006E+02  0.95290316597E+03  0.90788611682E+02 0.  0.
         13    1    3    3    0    0 -0.19980450711E+03  0.19291774060E+02  0.39267052699E+02  0.20453829724E+03  0.00000000000E+00 0. -1.
        -13    1    3    3    0    0 -0.74471920000E+03 -0.64638074770E+02  0.35569779306E+02  0.74836486874E+03  0.00000000000E+00 0.  1.
         22    1    1    2    0    0  0.94452370711E+03  0.45346300710E+02 -0.22682623063E+03  0.97243583808E+03  0.00000000000E+00 0. -1.
<mgrwt>
<rscale>  0 0.19193305E+04</rscale>
<asrwt>0</asrwt>
<pdfrwt beam="1">  1        1 0.15979449E+00 0.19193305E+04</pdfrwt>
<pdfrwt beam="2">  1       -1 0.13641151E+00 0.19193305E+04</pdfrwt>
<totfact> 0.59156926E+00</totfact>
</mgrwt>
</event>
<event>
 6    1  0.9906445E-006  0.1818377E+04  0.7818608E-02  0.8696588E-01
         -2   -1    0    0    0  501 -0.00000000000E+00  0.00000000000E+00  0.12885453890E+04  0.12885453890E+04  0.00000000000E+00 0.  1.
          2   -1    0    0  501    0  0.00000000000E+00 -0.00000000000E+00 -0.64151671988E+03  0.64151671988E+03  0.00000000000E+00 0. -1.
         23    2    1    2    0    0 -0.21107465062E+03  0.48199175980E+03  0.11086602749E+04  0.12300818920E+04  0.84292889411E+02 0.  0.
         11    1    3    3    0    0 -0.90136124663E+02  0.16159630524E+03  0.30881906953E+03  0.36000986728E+03  0.00000000000E+00 0.  1.
        -11    1    3    3    0    0 -0.12093852595E+03  0.32039545456E+03  0.79984120539E+03  0.87007202472E+03  0.00000000000E+00 0. -1.
         22    1    1    2    0    0  0.21107465062E+03 -0.48199175980E+03 -0.46163160575E+03  0.69998021692E+03  0.00000000000E+00 0. -1.
<mgrwt>
<rscale>  0 0.18183767E+04</rscale>
<asrwt>0</asrwt>
<pdfrwt beam="1">  1        2 0.98694880E-01 0.18183767E+04</pdfrwt>
<pdfrwt beam="2">  1       -2 0.19823775E+00 0.18183767E+04</pdfrwt>
<totfact> 0.58801390E+00</totfact>
</mgrwt>
</event>
<event>
 6    1  0.9906445E-006  0.1139483E+04  0.7818608E-02  0.9167541E-01
          1   -1    0    0  501    0  0.00000000000E+00  0.00000000000E+00  0.87947925836E+03  0.87947925836E+03  0.00000000000E+00 0. -1.
         -1   -1    0    0    0  501 -0.00000000000E+00 -0.00000000000E+00 -0.36908812867E+03  0.36908812867E+03  0.00000000000E+00 0.  1.
         23    2    1    2    0    0  0.26530230640E+03 -0.28741384870E+02  0.80356974906E+03  0.85212686963E+03  0.95835689413E+02 0.  0.
         11    1    3    3    0    0  0.13875128320E+03  0.27382397618E+02  0.33758236807E+03  0.36601034073E+03  0.00000000000E+00 0.  1.
        -11    1    3    3    0    0  0.12655102319E+03 -0.56123782488E+02  0.46598738098E+03  0.48611652890E+03  0.00000000000E+00 0. -1.
         22    1    1    2    0    0 -0.26530230640E+03  0.28741384870E+02 -0.29317861936E+03  0.39644051740E+03  0.00000000000E+00 0.  1.
<mgrwt>
<rscale>  0 0.11394830E+04</rscale>
<asrwt>0</asrwt>
<pdfrwt beam="1">  1        1 0.13530450E+00 0.11394830E+04</pdfrwt>
<pdfrwt beam="2">  1       -1 0.56782789E-01 0.11394830E+04</pdfrwt>
<totfact> 0.59036051E+01</totfact>
</mgrwt>
</event>
<event>
 6    1  0.9906445E-006  0.3564358E+04  0.7818608E-02  0.8098705E-01
          1   -1    0    0  501    0  0.00000000000E+00  0.00000000000E+00  0.14184137130E+04  0.14184137130E+04  0.00000000000E+00 0. -1.
         -1   -1    0    0    0  501 -0.00000000000E+00 -0.00000000000E+00 -0.22392355706E+04  0.22392355706E+04  0.00000000000E+00 0.  1.
         23    2    1    2    0    0 -0.19115505518E+03 -0.14223324431E+04  0.67169167084E+03  0.15871019004E+04  0.90293454134E+02 0.  0.
         11    1    3    3    0    0 -0.46987477211E+02 -0.66820430656E+03  0.32964579182E+03  0.74657294780E+03  0.00000000000E+00 0. -1.
        -11    1    3    3    0    0 -0.14416757796E+03 -0.75412813651E+03  0.34204587902E+03  0.84052895260E+03  0.00000000000E+00 0.  1.
         22    1    1    2    0    0  0.19115505518E+03  0.14223324431E+04 -0.14925135284E+04  0.20705473832E+04  0.00000000000E+00 0.  1.
<mgrwt>
<rscale>  0 0.35643583E+04</rscale>
<asrwt>0</asrwt>
<pdfrwt beam="1">  1        1 0.21821750E+00 0.35643583E+04</pdfrwt>
<pdfrwt beam="2">  1       -1 0.34449778E+00 0.35643583E+04</pdfrwt>
<totfact> 0.10221332E-01</totfact>
</mgrwt>
</event>
<event>
 6    1  0.9906445E-006  0.3055656E+04  0.7818608E-02  0.8228014E-01
         -2   -1    0    0    0  501 -0.00000000000E+00  0.00000000000E+00  0.20776052259E+04  0.20776052259E+04  0.00000000000E+00 0.  1.
          2   -1    0    0  501    0  0.00000000000E+00 -0.00000000000E+00 -0.11235332435E+04  0.11235332435E+04  0.00000000000E+00 0. -1.
         23    2    1    2    0    0  0.81234685611E+03 -0.12177437638E+04  0.93062226864E+03  0.17371175754E+04  0.93340102729E+02 0.  0.
         11    1    3    3    0    0  0.27641888102E+03 -0.34077327363E+03  0.26362768172E+03  0.51189195771E+03  0.00000000000E+00 0. -1.
        -11    1    3    3    0    0  0.53592797510E+03 -0.87697049021E+03  0.66699458692E+03  0.12252256177E+04  0.00000000000E+00 0.  1.
         22    1    1    2    0    0 -0.81234685611E+03  0.12177437638E+04  0.23449713830E+02  0.14640208940E+04  0.00000000000E+00 0.  1.
<mgrwt>
<rscale>  0 0.30556561E+04</rscale>
<asrwt>0</asrwt>
<pdfrwt beam="1">  1        2 0.17285127E+00 0.30556561E+04</pdfrwt>
<pdfrwt beam="2">  1       -2 0.31963157E+00 0.30556561E+04</pdfrwt>
<totfact> 0.43212349E-01</totfact>
</mgrwt>
</event>
<event>
 6    1  0.9906445E-006  0.3841048E+04  0.7818608E-02  0.8037403E-01
          2   -1    0    0  501    0  0.00000000000E+00  0.00000000000E+00  0.30686962459E+04  0.30686962459E+04  0.00000000000E+00 0.  1.
         -2   -1    0    0    0  501 -0.00000000000E+00 -0.00000000000E+00 -0.12019474017E+04  0.12019474017E+04  0.00000000000E+00 0. -1.
         23    2    1    2    0    0 -0.13671235926E+03 -0.18946531969E+03  0.30522337117E+04  0.30623548794E+04  0.85436526170E+02 0.  0.
         13    1    3    3    0    0 -0.65192973325E+02 -0.12472200070E+03  0.13309230417E+04  0.13383429471E+04  0.00000000000E+00 0. -1.
        -13    1    3    3    0    0 -0.71519385938E+02 -0.64743318984E+02  0.17213106700E+04  0.17240119323E+04  0.00000000000E+00 0.  1.
         22    1    1    2    0    0  0.13671235926E+03  0.18946531969E+03 -0.11854848675E+04  0.12082887683E+04  0.00000000000E+00 0. -1.
<mgrwt>
<rscale>  0 0.38410475E+04</rscale>
<asrwt>0</asrwt>
<pdfrwt beam="1">  1        2 0.47210711E+00 0.38410475E+04</pdfrwt>
<pdfrwt beam="2">  1       -2 0.18491499E+00 0.38410475E+04</pdfrwt>
<totfact> 0.21108950E-01</totfact>
</mgrwt>
</event>
<event>
 6    1  0.9906445E-006  0.4896653E+04  0.7818608E-02  0.7844650E-01
          1   -1    0    0  501    0  0.00000000000E+00  0.00000000000E+00  0.31519127826E+04  0.31519127826E+04  0.00000000000E+00 0. -1.
         -1   -1    0    0    0  501 -0.00000000000E+00 -0.00000000000E+00 -0.19017984585E+04  0.19017984585E+04  0.00000000000E+00 0.  1.
         23    2    1    2    0    0  0.46395683010E+03  0.23051968293E+04 -0.74873108112E+02  0.23546780702E+04  0.98562011222E+02 0.  0.
         13    1    3    3    0    0  0.17434755115E+03  0.82031253646E+03 -0.73081148858E+02  0.84181386327E+03  0.00000000000E+00 0.  1.
        -13    1    3    3    0    0  0.28960927895E+03  0.14848842928E+04 -0.17919592543E+01  0.15128642069E+04  0.00000000000E+00 0. -1.
         22    1    1    2    0    0 -0.46395683010E+03 -0.23051968293E+04  0.13249874323E+04  0.26990331709E+04  0.00000000000E+00 0. -1.
<mgrwt>
<rscale>  0 0.48966531E+04</rscale>
<asrwt>0</asrwt>
<pdfrwt beam="1">  1        1 0.48490966E+00 0.48966531E+04</pdfrwt>
<pdfrwt beam="2">  1       -1 0.29258438E+00 0.48966531E+04</pdfrwt>
<totfact> 0.12395633E-02</totfact>
</mgrwt>
</event>
<event>
 6    1  0.9906445E-006  0.1617560E+04  0.7818608E-02  0.8809832E-01
         -2   -1    0    0    0  501 -0.00000000000E+00  0.00000000000E+00  0.15681127346E+03  0.15681127346E+03  0.00000000000E+00 0.  1.
          2   -1    0    0  501    0  0.00000000000E+00 -0.00000000000E+00 -0.41714149580E+04  0.41714149580E+04  0.00000000000E+00 0. -1.
         23    2    1    2    0    0  0.55182332779E+03 -0.23804998836E+03 -0.34516446019E+04  0.35047581320E+04  0.91117091192E+02 0.  0.
         11    1    3    3    0    0  0.27382588118E+03 -0.10156558970E+03 -0.19237470368E+04  0.19457900308E+04  0.00000000000E+00 0. -1.
        -11    1    3    3    0    0  0.27799744661E+03 -0.13648439867E+03 -0.15278975650E+04  0.15589681012E+04  0.00000000000E+00 0.  1.
         22    1    1    2    0    0 -0.55182332779E+03  0.23804998836E+03 -0.56295908268E+03  0.82346809946E+03  0.00000000000E+00 0.  1.
<mgrwt>
<rscale>  0 0.16175598E+04</rscale>
<asrwt>0</asrwt>
<pdfrwt beam="1">  1        2 0.64175614E+00 0.16175598E+04</pdfrwt>
<pdfrwt beam="2">  1       -2 0.24124812E-01 0.16175598E+04</pdfrwt>
<totfact> 0.36906697E+00</totfact>
</mgrwt>
</event>
<event>
 6    1  0.9906445E-006  0.3255584E+04  0.7818608E-02  0.8174290E-01
          2   -1    0    0  501    0  0.00000000000E+00  0.00000000000E+00  0.11642347823E+04  0.11642347823E+04  0.00000000000E+00 0. -1.
         -2   -1    0    0    0  501 -0.00000000000E+00 -0.00000000000E+00 -0.22759214549E+04  0.22759214549E+04  0.00000000000E+00 0.  1.
         23    2    1    2    0    0  0.80189863966E+03 -0.14148031554E+04 -0.52571692816E+03  0.17115527725E+04  0.91242576790E+02 0.  0.
         11    1    3    3    0    0  0.42536182087E+03 -0.80725006974E+03 -0.25733032406E+03  0.94805287270E+03  0.00000000000E+00 0.  1.
        -11    1    3    3    0    0  0.37653681879E+03 -0.60755308564E+03 -0.26838660410E+03  0.76349989983E+03  0.00000000000E+00 0. -1.
         22    1    1    2    0    0 -0.80189863966E+03  0.14148031554E+04 -0.58596974436E+03  0.17286034647E+04  0.00000000000E+00 0.  1.
<mgrwt>
<rscale>  0 0.32555841E+04</rscale>
<asrwt>0</asrwt>
<pdfrwt beam="1">  1        2 0.17911304E+00 0.32555841E+04</pdfrwt>
<pdfrwt beam="2">  1       -2 0.35014176E+00 0.32555841E+04</pdfrwt>
<totfact> 0.25891872E-01</totfact>
</mgrwt>
</event>
<event>
 6    1  0.9906445E-006  0.1211822E+04  0.7818608E-02  0.9102572E-01
          1   -1    0    0  501    0  0.00000000000E+00  0.00000000000E+00  0.14696003702E+04  0.14696003702E+04  0.00000000000E+00 0. -1.
         -1   -1    0    0    0  501 -0.00000000000E+00 -0.00000000000E+00 -0.24981476596E+03  0.24981476596E+03  0.00000000000E+00 0.  1.
         23    2    1    2    0    0  0.40969882900E+03 -0.41506089119E+03  0.39867837849E+03  0.71226780332E+03  0.90842172396E+02 0.  0.
         13    1    3    3    0    0  0.97219532370E+02 -0.48762246802E+02  0.73703767205E+02  0.13138355867E+03  0.00000000000E+00 0. -1.
        -13    1    3    3    0    0  0.31247929663E+03 -0.36629864439E+03  0.32497461129E+03  0.58088424465E+03  0.00000000000E+00 0.  1.
         22    1    1    2    0    0 -0.40969882900E+03  0.41506089119E+03  0.82110722571E+03  0.10071473328E+04  0.00000000000E+00 0. -1.
<mgrwt>
<rscale>  0 0.12118216E+04</rscale>
<asrwt>0</asrwt>
<pdfrwt beam="1">  1        1 0.22609236E+00 0.12118216E+04</pdfrwt>
<pdfrwt beam="2">  1       -1 0.38433042E-01 0.12118216E+04</pdfrwt>
<totfact> 0.44487907E+01</totfact>
</mgrwt>
</event>
<event>
 6    1  0.9906445E-006  0.2104366E+04  0.7818608E-02  0.8559322E-01
          2   -1    0    0  501    0  0.00000000000E+00  0.00000000000E+00  0.15540145986E+04  0.15540145986E+04  0.00000000000E+00 0. -1.
         -2   -1    0    0    0  501 -0.00000000000E+00 -0.00000000000E+00 -0.71240616341E+03  0.71240616341E+03  0.00000000000E+00 0.  1.
         23    2    1    2    0    0 -0.29525281108E+03  0.73330060853E+03  0.11662549578E+04  0.14118452126E+04  0.90842021463E+02 0.  0.
         13    1    3    3    0    0 -0.20233153669E+03  0.38872119116E+03  0.66987690152E+03  0.80048565158E+03  0.00000000000E+00 0.  1.
        -13    1    3    3    0    0 -0.92921274387E+02  0.34457941737E+03  0.49637805627E+03  0.61135956102E+03  0.00000000000E+00 0. -1.
         22    1    1    2    0    0  0.29525281108E+03 -0.73330060853E+03 -0.32464652264E+03  0.85457554937E+03  0.00000000000E+00 0. -1.
<mgrwt>
<rscale>  0 0.21043665E+04</rscale>
<asrwt>0</asrwt>
<pdfrwt beam="1">  1        2 0.23907917E+00 0.21043665E+04</pdfrwt>
<pdfrwt beam="2">  1       -2 0.10960095E+00 0.21043665E+04</pdfrwt>
<totfact> 0.72271820E+00</totfact>
</mgrwt>
</event>
<event>
 6    1  0.9906445E-006  0.2089561E+04  0.7818608E-02  0.8565856E-01
         -1   -1    0    0    0  501 -0.00000000000E+00  0.00000000000E+00  0.69467895263E+03  0.69467895263E+03  0.00000000000E+00 0.  1.
          1   -1    0    0  501    0  0.00000000000E+00 -0.00000000000E+00 -0.15713247211E+04  0.15713247211E+04  0.00000000000E+00 0. -1.
         23    2    1    2    0    0  0.95189686336E+02 -0.28188034542E+03 -0.15229652900E+04  0.15544936391E+04  0.92247460383E+02 0.  0.
         11    1    3    3    0    0 -0.96808490792E+01 -0.10767064071E+03 -0.54165171315E+03  0.55233437705E+03  0.00000000000E+00 0.  1.
        -11    1    3    3    0    0  0.10487053542E+03 -0.17420970471E+03 -0.98131357683E+03  0.10021592620E+04  0.00000000000E+00 0. -1.
         22    1    1    2    0    0 -0.95189686336E+02  0.28188034542E+03  0.64631952151E+03  0.71151003465E+03  0.00000000000E+00 0.  1.
<mgrwt>
<rscale>  0 0.20895609E+04</rscale>
<asrwt>0</asrwt>
<pdfrwt beam="1">  1        1 0.24174226E+00 0.20895609E+04</pdfrwt>
<pdfrwt beam="2">  1       -1 0.10687369E+00 0.20895609E+04</pdfrwt>
<totfact> 0.43905997E+00</totfact>
</mgrwt>
</event>
<event>
 6    1  0.9906445E-006  0.1257554E+04  0.7818608E-02  0.9063919E-01
         -1   -1    0    0    0  501 -0.00000000000E+00  0.00000000000E+00  0.52654076871E+03  0.52654076871E+03  0.00000000000E+00 0.  1.
          1   -1    0    0  501    0  0.00000000000E+00 -0.00000000000E+00 -0.75086416238E+03  0.75086416238E+03  0.00000000000E+00 0. -1.
         23    2    1    2    0    0 -0.30462359297E+03 -0.22838237802E+03  0.39130956930E+03  0.55355550677E+03  0.91359050291E+02 0.  0.
         11    1    3    3    0    0 -0.11130142660E+03 -0.33019890407E+02  0.10250840858E+03  0.15487509340E+03  0.00000000000E+00 0. -1.
        -11    1    3    3    0    0 -0.19332216637E+03 -0.19536248761E+03  0.28880116073E+03  0.39868041338E+03  0.00000000000E+00 0.  1.
         22    1    1    2    0    0  0.30462359297E+03  0.22838237802E+03 -0.61563296297E+03  0.72384942432E+03  0.00000000000E+00 0. -1.
<mgrwt>
<rscale>  0 0.12575541E+04</rscale>
<asrwt>0</asrwt>
<pdfrwt beam="1">  1        1 0.11551756E+00 0.12575541E+04</pdfrwt>
<pdfrwt beam="2">  1       -1 0.81006272E-01 0.12575541E+04</pdfrwt>
<totfact> 0.36614236E+01</totfact>
</mgrwt>
</event>
<event>
 6    1  0.9906445E-006  0.2250383E+04  0.7818608E-02  0.8497745E-01
         -1   -1    0    0    0  501 -0.00000000000E+00  0.00000000000E+00  0.65368633115E+03  0.65368633115E+03  0.00000000000E+00 0.  1.
          1   -1    0    0  501    0  0.00000000000E+00 -0.00000000000E+00 -0.19367945902E+04  0.19367945902E+04  0.00000000000E+00 0. -1.
         23    2    1    2    0    0 -0.75291038612E+03  0.61156000773E+03  0.99205336666E+01  0.97406415846E+03  0.88447019284E+02 0.  0.
         13    1    3    3    0    0 -0.50473668150E+03  0.43752046510E+03  0.41795113084E+02  0.66927580750E+03  0.00000000000E+00 0. -1.
        -13    1    3    3    0    0 -0.24817370462E+03  0.17403954264E+03 -0.31874579417E+02  0.30478835096E+03  0.00000000000E+00 0.  1.
         22    1    1    2    0    0  0.75291038612E+03 -0.61156000773E+03 -0.12930287928E+04  0.16164167629E+04  0.00000000000E+00 0. -1.
<mgrwt>
<rscale>  0 0.22503832E+04</rscale>
<asrwt>0</asrwt>
<pdfrwt beam="1">  1        1 0.29796840E+00 0.22503832E+04</pdfrwt>
<pdfrwt beam="2">  1       -1 0.10056713E+00 0.22503832E+04</pdfrwt>
<totfact> 0.28087983E+00</totfact>
</mgrwt>
</event>
<event>
 6    1  0.9906445E-006  0.3143910E+04  0.7818608E-02  0.8203790E-01
         -1   -1    0    0    0  501 -0.00000000000E+00  0.00000000000E+00  0.17371231399E+04  0.17371231399E+04  0.00000000000E+00 0.  1.
          1   -1    0    0  501    0  0.00000000000E+00 -0.00000000000E+00 -0.14224911955E+04  0.14224911955E+04  0.00000000000E+00 0. -1.
         23    2    1    2    0    0  0.25482412695E+03 -0.45257763176E+03  0.16471072951E+04  0.17294911209E+04  0.91734657262E+02 0.  0.
         11    1    3    3    0    0  0.59558329397E+02 -0.13147957666E+03  0.33849352916E+03  0.36798361779E+03  0.00000000000E+00 0.  1.
        -11    1    3    3    0    0  0.19526579755E+03 -0.32109805509E+03  0.13086137659E+04  0.13615075031E+04  0.00000000000E+00 0. -1.
         22    1    1    2    0    0 -0.25482412695E+03  0.45257763176E+03 -0.13324753507E+04  0.14301232145E+04  0.00000000000E+00 0. -1.
<mgrwt>
<rscale>  0 0.31439099E+04</rscale>
<asrwt>0</asrwt>
<pdfrwt beam="1">  1        1 0.21884480E+00 0.31439099E+04</pdfrwt>
<pdfrwt beam="2">  1       -1 0.26724971E+00 0.31439099E+04</pdfrwt>
<totfact> 0.33528615E-01</totfact>
</mgrwt>
</event>
<event>
 6    1  0.9906445E-006  0.1869118E+04  0.7818608E-02  0.8670383E-01
         -1   -1    0    0    0  501 -0.00000000000E+00  0.00000000000E+00  0.34932799466E+03  0.34932799466E+03  0.00000000000E+00 0.  1.
          1   -1    0    0  501    0  0.00000000000E+00 -0.00000000000E+00 -0.25002298621E+04  0.25002298621E+04  0.00000000000E+00 0. -1.
         23    2    1    2    0    0 -0.87680129981E+03  0.28957332390E+03 -0.12747352803E+04  0.15766473660E+04  0.90739475512E+02 0.  0.
         13    1    3    3    0    0 -0.49151727588E+03  0.17147304796E+03 -0.79281081309E+03  0.94844147106E+03  0.00000000000E+00 0. -1.
        -13    1    3    3    0    0 -0.38528402392E+03  0.11810027593E+03 -0.48192446725E+03  0.62820589491E+03  0.00000000000E+00 0.  1.
         22    1    1    2    0    0  0.87680129981E+03 -0.28957332390E+03 -0.87616658714E+03  0.12729104908E+04  0.00000000000E+00 0. -1.
<mgrwt>
<rscale>  0 0.18691177E+04</rscale>
<asrwt>0</asrwt>
<pdfrwt beam="1">  1        1 0.38465074E+00 0.18691177E+04</pdfrwt>
<pdfrwt beam="2">  1       -1 0.53742769E-01 0.18691177E+04</pdfrwt>
<totfact> 0.44428348E+00</totfact>
</mgrwt>
</event>
<event>
 6    1  0.9906445E-006  0.9382324E+03  0.7818608E-02  0.9379012E-01
         -1   -1    0    0    0  501 -0.00000000000E+00  0.00000000000E+00  0.74241805066E+02  0.74241805066E+02  0.00000000000E+00 0.  1.
          1   -1    0    0  501    0  0.00000000000E+00 -0.00000000000E+00 -0.29642327893E+04  0.29642327893E+04  0.00000000000E+00 0. -1.
         23    2    1    2    0    0  0.16680088796E+03  0.13573317141E+03 -0.27926686778E+04  0.28024287061E+04  0.91445496131E+02 0.  0.
         11    1    3    3    0    0  0.10866862301E+03  0.66491897955E+02 -0.11010396788E+04  0.11083854999E+04  0.00000000000E+00 0.  1.
        -11    1    3    3    0    0  0.58132264949E+02  0.69241273455E+02 -0.16916289990E+04  0.16940432062E+04  0.00000000000E+00 0. -1.
         22    1    1    2    0    0 -0.16680088796E+03 -0.13573317141E+03 -0.97322306457E+02  0.23604588829E+03  0.00000000000E+00 0.  1.
<mgrwt>
<rscale>  0 0.93823237E+03</rscale>
<asrwt>0</asrwt>
<pdfrwt beam="1">  1        1 0.45603579E+00 0.93823237E+03</pdfrwt>
<pdfrwt beam="2">  1       -1 0.11421817E-01 0.93823237E+03</pdfrwt>
<totfact> 0.33473288E+01</totfact>
</mgrwt>
</event>
<event>
 6    1  0.9906445E-006  0.1234640E+04  0.7818608E-02  0.9083065E-01
          2   -1    0    0  501    0  0.00000000000E+00  0.00000000000E+00  0.18950002548E+04  0.18950002548E+04  0.00000000000E+00 0. -1.
         -2   -1    0    0    0  501 -0.00000000000E+00 -0.00000000000E+00 -0.20109982795E+03  0.20109982795E+03  0.00000000000E+00 0.  1.
         23    2    1    2    0    0  0.30628491081E+03 -0.53186586013E+03  0.87946098194E+03  0.10762945380E+04  0.90920701314E+02 0.  0.
         11    1    3    3    0    0  0.15255679924E+03 -0.18232159133E+03  0.36537847602E+03  0.43590844268E+03  0.00000000000E+00 0. -1.
        -11    1    3    3    0    0  0.15372811157E+03 -0.34954426880E+03  0.51408250592E+03  0.64038609528E+03  0.00000000000E+00 0.  1.
         22    1    1    2    0    0 -0.30628491081E+03  0.53186586013E+03  0.81443944489E+03  0.10198055448E+04  0.00000000000E+00 0. -1.
<mgrwt>
<rscale>  0 0.12346404E+04</rscale>
<asrwt>0</asrwt>
<pdfrwt beam="1">  1        2 0.29153849E+00 0.12346404E+04</pdfrwt>
<pdfrwt beam="2">  1       -2 0.30938436E-01 0.12346404E+04</pdfrwt>
<totfact> 0.72869834E+01</totfact>
</mgrwt>
</event>
<event>
 6    1  0.9906445E-006  0.2056462E+04  0.7818608E-02  0.8580668E-01
          1   -1    0    0  501    0  0.00000000000E+00  0.00000000000E+00  0.54820622677E+03  0.54820622677E+03  0.00000000000E+00 0. -1.
         -1   -1    0    0    0  501 -0.00000000000E+00 -0.00000000000E+00 -0.19285797758E+04  0.19285797758E+04  0.00000000000E+00 0.  1.
         23    2    1    2    0    0 -0.44644691281E+03  0.83187305058E+03 -0.11757545031E+04  0.15107650027E+04  0.93191326871E+02 0.  0.
         13    1    3    3    0    0 -0.29672999457E+03  0.63714047675E+03 -0.88496643120E+03  0.11301160388E+04  0.00000000000E+00 0. -1.
        -13    1    3    3    0    0 -0.14971691824E+03  0.19473257383E+03 -0.29078807194E+03  0.38064896388E+03  0.00000000000E+00 0.  1.
         22    1    1    2    0    0  0.44644691281E+03 -0.83187305058E+03 -0.20461904585E+03  0.96602099986E+03  0.00000000000E+00 0. -1.
<mgrwt>
<rscale>  0 0.20564624E+04</rscale>
<asrwt>0</asrwt>
<pdfrwt beam="1">  1        1 0.84339420E-01 0.20564624E+04</pdfrwt>
<pdfrwt beam="2">  1       -1 0.29670458E+00 0.20564624E+04</pdfrwt>
<totfact> 0.12486758E+00</totfact>
</mgrwt>
</event>
<event>
 6    1  0.1114274E-005  0.3554578E+04  0.7818608E-02  0.8100976E-01
         -2   -1    0    0    0  501 -0.00000000000E+00  0.00000000000E+00  0.19053337430E+04  0.19053337430E+04  0.00000000000E+00 0.  1.
          2   -1    0    0  501    0  0.00000000000E+00 -0.00000000000E+00 -0.16578494130E+04  0.16578494130E+04  0.00000000000E+00 0. -1.
         23    2    1    2    0    0 -0.44102621055E+03 -0.10448468550E+04 -0.12463364829E+04  0.16876273211E+04  0.92316182416E+02 0.  0.
         11    1    3    3    0    0 -0.24873819456E+03 -0.58628264292E+03 -0.63145991971E+03  0.89684985200E+03  0.00000000000E+00 0.  1.
        -11    1    3    3    0    0 -0.19228801599E+03 -0.45856421207E+03 -0.61487656315E+03  0.79077746908E+03  0.00000000000E+00 0. -1.
         22    1    1    2    0    0  0.44102621055E+03  0.10448468550E+04  0.14938208129E+04  0.18755558349E+04  0.00000000000E+00 0.  1.
<mgrwt>
<rscale>  0 0.35545781E+04</rscale>
<asrwt>0</asrwt>
<pdfrwt beam="1">  1        2 0.25505376E+00 0.35545781E+04</pdfrwt>
<pdfrwt beam="2">  1       -2 0.29312827E+00 0.35545781E+04</pdfrwt>
<totfact> 0.29649971E-01</totfact>
</mgrwt>
</event>
<event>
 6    1  0.9906445E-006  0.1573189E+04  0.7818608E-02  0.8837190E-01
         -2   -1    0    0    0  501 -0.00000000000E+00  0.00000000000E+00  0.36260581060E+03  0.36260581060E+03  0.00000000000E+00 0.  1.
          2   -1    0    0  501    0  0.00000000000E+00 -0.00000000000E+00 -0.17063467046E+04  0.17063467046E+04  0.00000000000E+00 0. -1.
         23    2    1    2    0    0 -0.71799303313E+03 -0.18269105623E+03 -0.10113620894E+04  0.12569391610E+04  0.90292640628E+02 0.  0.
         13    1    3    3    0    0 -0.18502683110E+03 -0.10487474642E+02 -0.22490150321E+03  0.29141997443E+03  0.00000000000E+00 0. -1.
        -13    1    3    3    0    0 -0.53296620203E+03 -0.17220358159E+03 -0.78646058623E+03  0.96551918662E+03  0.00000000000E+00 0.  1.
         22    1    1    2    0    0  0.71799303313E+03  0.18269105623E+03 -0.33237880460E+03  0.81201335420E+03  0.00000000000E+00 0. -1.
<mgrwt>
<rscale>  0 0.15731894E+04</rscale>
<asrwt>0</asrwt>
<pdfrwt beam="1">  1        2 0.26251487E+00 0.15731894E+04</pdfrwt>
<pdfrwt beam="2">  1       -2 0.55785511E-01 0.15731894E+04</pdfrwt>
<totfact> 0.28209844E+01</totfact>
</mgrwt>
</event>
<event>
 6    1  0.9906445E-006  0.1537997E+04  0.7818608E-02  0.8859571E-01
          1   -1    0    0  501    0  0.00000000000E+00  0.00000000000E+00  0.27529485609E+04  0.27529485609E+04  0.00000000000E+00 0. -1.
         -1   -1    0    0    0  501 -0.00000000000E+00 -0.00000000000E+00 -0.21480933785E+03  0.21480933785E+03  0.00000000000E+00 0.  1.
         23    2    1    2    0    0 -0.66151251616E+03 -0.32591810123E+03  0.87059117229E+03  0.11444263548E+04  0.89225974068E+02 0.  0.
         11    1    3    3    0    0 -0.65545375201E+03 -0.32595525573E+03  0.87166463730E+03  0.11382731174E+04  0.00000000000E+00 0. -1.
        -11    1    3    3    0    0 -0.60587641435E+01  0.37154504770E-01 -0.10734650100E+01  0.61532374025E+01  0.00000000000E+00 0.  1.
         22    1    1    2    0    0  0.66151251616E+03  0.32591810123E+03  0.16675480507E+04  0.18233315440E+04  0.00000000000E+00 0. -1.
<mgrwt>
<rscale>  0 0.15379975E+04</rscale>
<asrwt>0</asrwt>
<pdfrwt beam="1">  1        1 0.42353052E+00 0.15379975E+04</pdfrwt>
<pdfrwt beam="2">  1       -1 0.33047592E-01 0.15379975E+04</pdfrwt>
<totfact> 0.74935234E+00</totfact>
</mgrwt>
</event>
<event>
 6    1  0.9906445E-006  0.3343642E+04  0.7818608E-02  0.8151879E-01
          1   -1    0    0  501    0  0.00000000000E+00  0.00000000000E+00  0.22984529243E+04  0.22984529243E+04  0.00000000000E+00 0. -1.
         -1   -1    0    0    0  501 -0.00000000000E+00 -0.00000000000E+00 -0.12160289281E+04  0.12160289281E+04  0.00000000000E+00 0.  1.
         23    2    1    2    0    0  0.28690632989E+03 -0.12417214759E+04  0.16770543763E+04  0.21081487642E+04  0.87134179591E+02 0.  0.
         13    1    3    3    0    0  0.25120432709E+03 -0.99853566635E+03  0.13984813858E+04  0.17366425301E+04  0.00000000000E+00 0.  1.
        -13    1    3    3    0    0  0.35702002798E+02 -0.24318580953E+03  0.27857299053E+03  0.37150623415E+03  0.00000000000E+00 0. -1.
         22    1    1    2    0    0 -0.28690632989E+03  0.12417214759E+04 -0.59463038009E+03  0.14063330881E+04  0.00000000000E+00 0.  1.
<mgrwt>
<rscale>  0 0.33436419E+04</rscale>
<asrwt>0</asrwt>
<pdfrwt beam="1">  1        1 0.35360814E+00 0.33436419E+04</pdfrwt>
<pdfrwt beam="2">  1       -1 0.18708137E+00 0.33436419E+04</pdfrwt>
<totfact> 0.28569782E-01</totfact>
</mgrwt>
</event>
<event>
 6    1  0.9906445E-006  0.3095266E+04  0.7818608E-02  0.8217038E-01
          2   -1    0    0  501    0  0.00000000000E+00  0.00000000000E+00  0.25604938926E+04  0.25604938926E+04  0.00000000000E+00 0. -1.
         -2   -1    0    0    0  501 -0.00000000000E+00 -0.00000000000E+00 -0.93543204244E+03  0.93543204244E+03  0.00000000000E+00 0.  1.
         23    2    1    2    0    0  0.93597602794E+03 -0.12308434424E+04  0.81329706524E+03  0.17495042303E+04  0.91028737349E+02 0.  0.
         11    1    3    3    0    0  0.43656954364E+03 -0.50241944246E+03  0.33580618828E+03  0.74550926130E+03  0.00000000000E+00 0. -1.
        -11    1    3    3    0    0  0.49940648430E+03 -0.72842399995E+03  0.47749087697E+03  0.10039949690E+04  0.00000000000E+00 0.  1.
         22    1    1    2    0    0 -0.93597602794E+03  0.12308434424E+04  0.81176478491E+03  0.17464217047E+04  0.00000000000E+00 0.  1.
<mgrwt>
<rscale>  0 0.30952661E+04</rscale>
<asrwt>0</asrwt>
<pdfrwt beam="1">  1        2 0.39392213E+00 0.30952661E+04</pdfrwt>
<pdfrwt beam="2">  1       -2 0.14391262E+00 0.30952661E+04</pdfrwt>
<totfact> 0.91094491E-01</totfact>
</mgrwt>
</event>
<event>
 6    1  0.9906445E-006  0.2332963E+04  0.7818608E-02  0.8465036E-01
          2   -1    0    0  501    0  0.00000000000E+00  0.00000000000E+00  0.55265807095E+03  0.55265807095E+03  0.00000000000E+00 0. -1.
         -2   -1    0    0    0  501 -0.00000000000E+00 -0.00000000000E+00 -0.24620634930E+04  0.24620634930E+04  0.00000000000E+00 0.  1.
         23    2    1    2    0    0 -0.42663961531E+03 -0.36646342607E+03 -0.22740573443E+04  0.23444322023E+04  0.93320640748E+02 0.  0.
         11    1    3    3    0    0 -0.21330559070E+03 -0.12241909645E+03 -0.99260044770E+03  0.10226149612E+04  0.00000000000E+00 0.  1.
        -11    1    3    3    0    0 -0.21333402461E+03 -0.24404432962E+03 -0.12814568966E+04  0.13218172410E+04  0.00000000000E+00 0. -1.
         22    1    1    2    0    0  0.42663961531E+03  0.36646342607E+03  0.36465192223E+03  0.67028936168E+03  0.00000000000E+00 0. -1.
<mgrwt>
<rscale>  0 0.23329631E+04</rscale>
<asrwt>0</asrwt>
<pdfrwt beam="1">  1        2 0.85024320E-01 0.23329631E+04</pdfrwt>
<pdfrwt beam="2">  1       -2 0.37877899E+00 0.23329631E+04</pdfrwt>
<totfact> 0.50514099E-01</totfact>
</mgrwt>
</event>
<event>
 6    1  0.9906445E-006  0.1589427E+04  0.7818608E-02  0.8827070E-01
         -2   -1    0    0    0  501 -0.00000000000E+00  0.00000000000E+00  0.43730154245E+03  0.43730154245E+03  0.00000000000E+00 0. -1.
          2   -1    0    0  501    0  0.00000000000E+00 -0.00000000000E+00 -0.14442426233E+04  0.14442426233E+04  0.00000000000E+00 0.  1.
         23    2    1    2    0    0  0.22897001237E+03 -0.52989431881E+03  0.13559684545E+03  0.60146285243E+03  0.10077600253E+03 0.  0.
         11    1    3    3    0    0  0.67807775449E+02 -0.23348906434E+03  0.97407848626E+02  0.26192236741E+03  0.00000000000E+00 0. -1.
        -11    1    3    3    0    0  0.16116223692E+03 -0.29640525447E+03  0.38188996827E+02  0.33954048502E+03  0.00000000000E+00 0.  1.
         22    1    1    2    0    0 -0.22897001237E+03  0.52989431881E+03 -0.11425379263E+04  0.12800813133E+04  0.00000000000E+00 0.  1.
<mgrwt>
<rscale>  0 0.15894270E+04</rscale>
<asrwt>0</asrwt>
<pdfrwt beam="1">  1        2 0.22219117E+00 0.15894270E+04</pdfrwt>
<pdfrwt beam="2">  1       -2 0.67277160E-01 0.15894270E+04</pdfrwt>
<totfact> 0.26552560E+01</totfact>
</mgrwt>
</event>
<event>
 6    1  0.9906445E-006  0.9774938E+03  0.7818608E-02  0.9333580E-01
         -1   -1    0    0    0  501 -0.00000000000E+00  0.00000000000E+00  0.33741023945E+03  0.33741023945E+03  0.00000000000E+00 0.  1.
          1   -1    0    0  501    0  0.00000000000E+00 -0.00000000000E+00 -0.70796170298E+03  0.70796170298E+03  0.00000000000E+00 0. -1.
         23    2    1    2    0    0 -0.19605009398E+03 -0.27199685615E+03 -0.56099009877E+03  0.65977525819E+03  0.90418865794E+02 0.  0.
         13    1    3    3    0    0 -0.97951662711E+02 -0.20810914869E+03 -0.38196265939E+03  0.44586928484E+03  0.00000000000E+00 0. -1.
        -13    1    3    3    0    0 -0.98098431265E+02 -0.63887707460E+02 -0.17902743938E+03  0.21390597335E+03  0.00000000000E+00 0.  1.
         22    1    1    2    0    0  0.19605009398E+03  0.27199685615E+03  0.19043863524E+03  0.38559668424E+03  0.00000000000E+00 0.  1.
<mgrwt>
<rscale>  0 0.97749379E+03</rscale>
<asrwt>0</asrwt>
<pdfrwt beam="1">  1        1 0.10891718E+00 0.97749379E+03</pdfrwt>
<pdfrwt beam="2">  1       -1 0.51909268E-01 0.97749379E+03</pdfrwt>
<totfact> 0.10041014E+02</totfact>
</mgrwt>
</event>
<event>
 6    1  0.9906445E-006  0.2984361E+04  0.7818608E-02  0.8248211E-01
          1   -1    0    0  501    0  0.00000000000E+00  0.00000000000E+00  0.18915679342E+04  0.18915679342E+04  0.00000000000E+00 0. -1.
         -1   -1    0    0    0  501 -0.00000000000E+00 -0.00000000000E+00 -0.11771202578E+04  0.11771202578E+04  0.00000000000E+00 0.  1.
         23    2    1    2    0    0  0.68913625532E+03 -0.33508955898E+03  0.16726832304E+04  0.18417370243E+04  0.83260353323E+02 0.  0.
         13    1    3    3    0    0  0.36716718763E+03 -0.21482108525E+03  0.86394196169E+03  0.96299301945E+03  0.00000000000E+00 0. -1.
        -13    1    3    3    0    0  0.32196906769E+03 -0.12026847373E+03  0.80874126874E+03  0.87874400486E+03  0.00000000000E+00 0.  1.
         22    1    1    2    0    0 -0.68913625532E+03  0.33508955898E+03 -0.95823555399E+03  0.12269511677E+04  0.00000000000E+00 0.  1.
<mgrwt>
<rscale>  0 0.29843612E+04</rscale>
<asrwt>0</asrwt>
<pdfrwt beam="1">  1        1 0.29101045E+00 0.29843612E+04</pdfrwt>
<pdfrwt beam="2">  1       -1 0.18109542E+00 0.29843612E+04</pdfrwt>
<totfact> 0.61488160E-01</totfact>
</mgrwt>
</event>
<event>
 6    1  0.9906445E-006  0.1299997E+04  0.7818608E-02  0.9029568E-01
         -2   -1    0    0    0  501 -0.00000000000E+00  0.00000000000E+00  0.57243040401E+03  0.57243040401E+03  0.00000000000E+00 0.  1.
          2   -1    0    0  501    0  0.00000000000E+00 -0.00000000000E+00 -0.73807751943E+03  0.73807751943E+03  0.00000000000E+00 0. -1.
         23    2    1    2    0    0  0.27404691784E+03 -0.48300932840E+03  0.25103567001E+03  0.61622824768E+03  0.91206475216E+02 0.  0.
         13    1    3    3    0    0  0.14842750310E+03 -0.26144986254E+03  0.85863075258E+02  0.31266471178E+03  0.00000000000E+00 0. -1.
        -13    1    3    3    0    0  0.12561941473E+03 -0.22155946587E+03  0.16517259475E+03  0.30356353590E+03  0.00000000000E+00 0.  1.
         22    1    1    2    0    0 -0.27404691784E+03  0.48300932840E+03 -0.41668278543E+03  0.69427967576E+03  0.00000000000E+00 0. -1.
<mgrwt>
<rscale>  0 0.12999969E+04</rscale>
<asrwt>0</asrwt>
<pdfrwt beam="1">  1        2 0.11355039E+00 0.12999969E+04</pdfrwt>
<pdfrwt beam="2">  1       -2 0.88066216E-01 0.12999969E+04</pdfrwt>
<totfact> 0.41711394E+01</totfact>
</mgrwt>
</event>
<event>
 6    1  0.9906445E-006  0.3913856E+04  0.7818608E-02  0.8022154E-01
          2   -1    0    0  501    0  0.00000000000E+00  0.00000000000E+00  0.47536997436E+04  0.47536997436E+04  0.00000000000E+00 0. -1.
         -2   -1    0    0    0  501 -0.00000000000E+00 -0.00000000000E+00 -0.80559735383E+03  0.80559735383E+03  0.00000000000E+00 0.  1.
         23    2    1    2    0    0  0.83000342861E+03 -0.81220935031E+03  0.42105854206E+04  0.43687144411E+04  0.89702638852E+02 0.  0.
         11    1    3    3    0    0  0.55072922873E+03 -0.47862748629E+03  0.26565365634E+04  0.27549180509E+04  0.00000000000E+00 0.  1.
        -11    1    3    3    0    0  0.27927419988E+03 -0.33358186401E+03  0.15540488571E+04  0.16137963902E+04  0.00000000000E+00 0. -1.
         22    1    1    2    0    0 -0.83000342861E+03  0.81220935031E+03 -0.26248303079E+03  0.11905826564E+04  0.00000000000E+00 0.  1.
<mgrwt>
<rscale>  0 0.39138564E+04</rscale>
<asrwt>0</asrwt>
<pdfrwt beam="1">  1        2 0.73133841E+00 0.39138564E+04</pdfrwt>
<pdfrwt beam="2">  1       -2 0.12393806E+00 0.39138564E+04</pdfrwt>
<totfact> 0.25863276E-02</totfact>
</mgrwt>
</event>
<event>
 6    1  0.9906445E-006  0.2470854E+04  0.7818608E-02  0.8413443E-01
         -1   -1    0    0    0  501 -0.00000000000E+00  0.00000000000E+00  0.13173718529E+04  0.13173718529E+04  0.00000000000E+00 0.  1.
          1   -1    0    0  501    0  0.00000000000E+00 -0.00000000000E+00 -0.11585791405E+04  0.11585791405E+04  0.00000000000E+00 0. -1.
         23    2    1    2    0    0 -0.69397474192E+03  0.99453182296E+03  0.30630345833E+03  0.12542906849E+04  0.93428177009E+02 0.  0.
         11    1    3    3    0    0 -0.55187205706E+03  0.84383744701E+03  0.23570627845E+03  0.10354621452E+04  0.00000000000E+00 0. -1.
        -11    1    3    3    0    0 -0.14210268487E+03  0.15069437594E+03  0.70597179873E+02  0.21882853971E+03  0.00000000000E+00 0.  1.
         22    1    1    2    0    0  0.69397474192E+03 -0.99453182296E+03 -0.14751074587E+03  0.12216603085E+04  0.00000000000E+00 0. -1.
<mgrwt>
<rscale>  0 0.24708537E+04</rscale>
<asrwt>0</asrwt>
<pdfrwt beam="1">  1        1 0.17824294E+00 0.24708537E+04</pdfrwt>
<pdfrwt beam="2">  1       -1 0.20267259E+00 0.24708537E+04</pdfrwt>
<totfact> 0.14728390E+00</totfact>
</mgrwt>
</event>
<event>
 6    1  0.9906445E-006  0.1478315E+04  0.7818608E-02  0.8899002E-01
         -2   -1    0    0    0  501 -0.00000000000E+00  0.00000000000E+00  0.51869004733E+03  0.51869004733E+03  0.00000000000E+00 0.  1.
          2   -1    0    0  501    0  0.00000000000E+00 -0.00000000000E+00 -0.10533344948E+04  0.10533344948E+04  0.00000000000E+00 0. -1.
         23    2    1    2    0    0  0.53281605328E+03 -0.37100060378E+03  0.10154954005E+03  0.66302664094E+03  0.88077368707E+02 0.  0.
         13    1    3    3    0    0  0.14311079346E+03 -0.13695670626E+03  0.41699510043E+01  0.19812931910E+03  0.00000000000E+00 0. -1.
        -13    1    3    3    0    0  0.38970525982E+03 -0.23404389752E+03  0.97379589042E+02  0.46489732185E+03  0.00000000000E+00 0.  1.
         22    1    1    2    0    0 -0.53281605328E+03  0.37100060378E+03 -0.63619398756E+03  0.90899790123E+03  0.00000000000E+00 0.  1.
<mgrwt>
<rscale>  0 0.14783154E+04</rscale>
<asrwt>0</asrwt>
<pdfrwt beam="1">  1        2 0.16205146E+00 0.14783154E+04</pdfrwt>
<pdfrwt beam="2">  1       -2 0.79798469E-01 0.14783154E+04</pdfrwt>
<totfact> 0.31347256E+01</totfact>
</mgrwt>
</event>
<event>
 6    1  0.9906445E-006  0.2773063E+04  0.7818608E-02  0.8311680E-01
          1   -1    0    0  501    0  0.00000000000E+00  0.00000000000E+00  0.22292597423E+04  0.22292597423E+04  0.00000000000E+00 0. -1.
         -1   -1    0    0    0  501 -0.00000000000E+00 -0.00000000000E+00 -0.86238026460E+03  0.86238026460E+03  0.00000000000E+00 0.  1.
         23    2    1    2    0    0 -0.13074148488E+04 -0.45534816693E+03  0.73386747953E+03  0.15693457745E+04  0.87230398611E+02 0.  0.
         13    1    3    3    0    0 -0.52931137838E+03 -0.14560224760E+03  0.31546361833E+03  0.63315704551E+03  0.00000000000E+00 0.  1.
        -13    1    3    3    0    0 -0.77810347046E+03 -0.30974591934E+03  0.41840386119E+03  0.93618872902E+03  0.00000000000E+00 0. -1.
         22    1    1    2    0    0  0.13074148488E+04  0.45534816693E+03  0.63301199819E+03  0.15222942324E+04  0.00000000000E+00 0.  1.
<mgrwt>
<rscale>  0 0.27730630E+04</rscale>
<asrwt>0</asrwt>
<pdfrwt beam="1">  1        1 0.34296303E+00 0.27730630E+04</pdfrwt>
<pdfrwt beam="2">  1       -1 0.13267389E+00 0.27730630E+04</pdfrwt>
<totfact> 0.86922353E-01</totfact>
</mgrwt>
</event>
<event>
 6    1  0.9906445E-006  0.4555437E+04  0.7818608E-02  0.7901003E-01
          2   -1    0    0  501    0  0.00000000000E+00  0.00000000000E+00  0.33151653682E+04  0.33151653682E+04  0.00000000000E+00 0. -1.
         -2   -1    0    0    0  501 -0.00000000000E+00 -0.00000000000E+00 -0.15649297946E+04  0.15649297946E+04  0.00000000000E+00 0.  1.
         23    2    1    2    0    0  0.19867508801E+04  0.72789753170E+03  0.17760657984E+04  0.27640419791E+04  0.92219660980E+02 0.  0.
         11    1    3    3    0    0  0.12695331503E+04  0.41977710389E+03  0.11045579782E+04  0.17343516264E+04  0.00000000000E+00 0. -1.
        -11    1    3    3    0    0  0.71721772974E+03  0.30812042781E+03  0.67150782022E+03  0.10296903527E+04  0.00000000000E+00 0.  1.
         22    1    1    2    0    0 -0.19867508801E+04 -0.72789753170E+03 -0.25830224783E+02  0.21160531838E+04  0.00000000000E+00 0.  1.
<mgrwt>
<rscale>  0 0.45554368E+04</rscale>
<asrwt>0</asrwt>
<pdfrwt beam="1">  1        2 0.51002544E+00 0.45554368E+04</pdfrwt>
<pdfrwt beam="2">  1       -2 0.24075843E+00 0.45554368E+04</pdfrwt>
<totfact> 0.60069674E-02</totfact>
</mgrwt>
</event>
<event>
 6    1  0.9906445E-006  0.1490855E+04  0.7818608E-02  0.8890557E-01
          1   -1    0    0  501    0  0.00000000000E+00  0.00000000000E+00  0.37195625407E+04  0.37195625407E+04  0.00000000000E+00 0. -1.
         -1   -1    0    0    0  501 -0.00000000000E+00 -0.00000000000E+00 -0.14938910424E+03  0.14938910424E+03  0.00000000000E+00 0.  1.
         23    2    1    2    0    0  0.40795041466E+03  0.60134516094E+03  0.21887652282E+04  0.23080774728E+04  0.92134970793E+02 0.  0.
         13    1    3    3    0    0  0.27724795927E+03  0.39427235586E+03  0.13109896627E+04  0.13967859597E+04  0.00000000000E+00 0. -1.
        -13    1    3    3    0    0  0.13070245540E+03  0.20707280509E+03  0.87777556550E+03  0.91129151310E+03  0.00000000000E+00 0.  1.
         22    1    1    2    0    0 -0.40795041466E+03 -0.60134516094E+03  0.13814082083E+04  0.15608741722E+04  0.00000000000E+00 0.  1.
<mgrwt>
<rscale>  0 0.14908549E+04</rscale>
<asrwt>0</asrwt>
<pdfrwt beam="1">  1        1 0.57224032E+00 0.14908549E+04</pdfrwt>
<pdfrwt beam="2">  1       -1 0.22982942E-01 0.14908549E+04</pdfrwt>
<totfact> 0.26427857E+00</totfact>
</mgrwt>
</event>
<event>
 6    1  0.9906445E-006  0.1688226E+04  0.7818608E-02  0.8768108E-01
          2   -1    0    0  501    0  0.00000000000E+00  0.00000000000E+00  0.10437732210E+04  0.10437732210E+04  0.00000000000E+00 0. -1.
         -2   -1    0    0    0  501 -0.00000000000E+00 -0.00000000000E+00 -0.68264484064E+03  0.68264484064E+03  0.00000000000E+00 0.  1.
         23    2    1    2    0    0 -0.46422646047E+03 -0.60122853811E+03 -0.18976905639E+03  0.78808446026E+03  0.89904727994E+02 0.  0.
         11    1    3    3    0    0 -0.35305366638E+03 -0.44467631611E+03 -0.10163598105E+03  0.57681347947E+03  0.00000000000E+00 0. -1.
        -11    1    3    3    0    0 -0.11117279409E+03 -0.15655222200E+03 -0.88133075342E+02  0.21127098080E+03  0.00000000000E+00 0.  1.
         22    1    1    2    0    0  0.46422646047E+03  0.60122853811E+03  0.55089743672E+03  0.93833360135E+03  0.00000000000E+00 0. -1.
<mgrwt>
<rscale>  0 0.16882256E+04</rscale>
<asrwt>0</asrwt>
<pdfrwt beam="1">  1        2 0.16058050E+00 0.16882256E+04</pdfrwt>
<pdfrwt beam="2">  1       -2 0.10502228E+00 0.16882256E+04</pdfrwt>
<totfact> 0.16531698E+01</totfact>
</mgrwt>
</event>
<event>
 6    1  0.9906445E-006  0.1445536E+04  0.7818608E-02  0.8921501E-01
          2   -1    0    0  501    0  0.00000000000E+00  0.00000000000E+00  0.62520135309E+03  0.62520135309E+03  0.00000000000E+00 0. -1.
         -2   -1    0    0    0  501 -0.00000000000E+00 -0.00000000000E+00 -0.83556087080E+03  0.83556087080E+03  0.00000000000E+00 0.  1.
         23    2    1    2    0    0  0.33913006764E+02 -0.66599969332E+03 -0.37944780247E+03  0.77279672215E+03  0.92349636904E+02 0.  0.
         13    1    3    3    0    0 -0.32420211309E+01 -0.81912735084E+02 -0.83286771774E+02  0.11686271100E+03  0.00000000000E+00 0.  1.
        -13    1    3    3    0    0  0.37155027895E+02 -0.58408695824E+03 -0.29616103070E+03  0.65593401115E+03  0.00000000000E+00 0. -1.
         22    1    1    2    0    0 -0.33913006764E+02  0.66599969332E+03  0.16908828477E+03  0.68796550174E+03  0.00000000000E+00 0. -1.
<mgrwt>
<rscale>  0 0.14455363E+04</rscale>
<asrwt>0</asrwt>
<pdfrwt beam="1">  1        2 0.96184824E-01 0.14455363E+04</pdfrwt>
<pdfrwt beam="2">  1       -2 0.12854783E+00 0.14455363E+04</pdfrwt>
<totfact> 0.20439604E+01</totfact>
</mgrwt>
</event>
<event>
 6    1  0.9906445E-006  0.5196543E+03  0.7818608E-02  0.1008772E+00
         -1   -1    0    0    0  501 -0.00000000000E+00  0.00000000000E+00  0.44278239652E+03  0.44278239652E+03  0.00000000000E+00 0.  1.
          1   -1    0    0  501    0  0.00000000000E+00 -0.00000000000E+00 -0.15246798870E+03  0.15246798870E+03  0.00000000000E+00 0. -1.
         23    2    1    2    0    0  0.16413165749E+03  0.18953328297E+03  0.12348425687E+03  0.29409533279E+03  0.91551279250E+02 0.  0.
         11    1    3    3    0    0  0.12606206294E+03  0.18550641128E+03  0.85111298810E+02  0.23989207058E+03  0.00000000000E+00 0.  1.
        -11    1    3    3    0    0  0.38069594541E+02  0.40268716825E+01  0.38372958056E+02  0.54203262208E+02  0.00000000000E+00 0. -1.
         22    1    1    2    0    0 -0.16413165749E+03 -0.18953328297E+03  0.16683015095E+03  0.30115505243E+03  0.00000000000E+00 0. -1.
<mgrwt>
<rscale>  0 0.51965428E+03</rscale>
<asrwt>0</asrwt>
<pdfrwt beam="1">  1        1 0.23456614E-01 0.51965428E+03</pdfrwt>
<pdfrwt beam="2">  1       -1 0.68120368E-01 0.51965428E+03</pdfrwt>
<totfact> 0.46919462E+02</totfact>
</mgrwt>
</event>
<event>
 6    1  0.9906445E-006  0.1386039E+04  0.7818608E-02  0.8963986E-01
         -1   -1    0    0    0  501 -0.00000000000E+00  0.00000000000E+00  0.32074431029E+03  0.32074431029E+03  0.00000000000E+00 0.  1.
          1   -1    0    0  501    0  0.00000000000E+00 -0.00000000000E+00 -0.14973807011E+04  0.14973807011E+04  0.00000000000E+00 0. -1.
         23    2    1    2    0    0 -0.55883592673E+03 -0.40074746339E+03 -0.66496519950E+03  0.96097652339E+03  0.91657184887E+02 0.  0.
         11    1    3    3    0    0 -0.32172330131E+03 -0.28401066085E+03 -0.42555371974E+03  0.60437066976E+03  0.00000000000E+00 0. -1.
        -11    1    3    3    0    0 -0.23711262542E+03 -0.11673680254E+03 -0.23941147976E+03  0.35660585363E+03  0.00000000000E+00 0.  1.
         22    1    1    2    0    0  0.55883592673E+03  0.40074746339E+03 -0.51167119127E+03  0.85714848795E+03  0.00000000000E+00 0.  1.
<mgrwt>
<rscale>  0 0.13860395E+04</rscale>
<asrwt>0</asrwt>
<pdfrwt beam="1">  1        1 0.23036625E+00 0.13860395E+04</pdfrwt>
<pdfrwt beam="2">  1       -1 0.49345280E-01 0.13860395E+04</pdfrwt>
<totfact> 0.26389876E+01</totfact>
</mgrwt>
</event>
<event>
 6    1  0.9906445E-006  0.6849606E+04  0.7818608E-02  0.7593148E-01
         -2   -1    0    0    0  501 -0.00000000000E+00  0.00000000000E+00  0.28011292083E+04  0.28011292083E+04  0.00000000000E+00 0. -1.
          2   -1    0    0  501    0  0.00000000000E+00 -0.00000000000E+00 -0.41873383739E+04  0.41873383739E+04  0.00000000000E+00 0.  1.
         23    2    1    2    0    0 -0.80868479147E+02 -0.25493987068E+04  0.16375737135E+04  0.30325560088E+04  0.93673911406E+02 0.  0.
         13    1    3    3    0    0 -0.23600427032E+01 -0.14475104546E+04  0.94787113654E+03  0.17302461610E+04  0.00000000000E+00 0.  1.
        -13    1    3    3    0    0 -0.78508436444E+02 -0.11018882522E+04  0.68970257699E+03  0.13023098478E+04  0.00000000000E+00 0. -1.
         22    1    1    2    0    0  0.80868479147E+02  0.25493987068E+04 -0.30237828791E+04  0.39559115735E+04  0.00000000000E+00 0.  1.
<mgrwt>
<rscale>  0 0.68496061E+04</rscale>
<asrwt>0</asrwt>
<pdfrwt beam="1">  1        2 0.64420590E+00 0.68496061E+04</pdfrwt>
<pdfrwt beam="2">  1       -2 0.43094296E+00 0.68496061E+04</pdfrwt>
<totfact> 0.69516214E-04</totfact>
</mgrwt>
</event>
<event>
 6    1  0.9906445E-006  0.1062786E+04  0.7818608E-02  0.9242242E-01
          1   -1    0    0  501    0  0.00000000000E+00  0.00000000000E+00  0.16238415207E+04  0.16238415207E+04  0.00000000000E+00 0. -1.
         -1   -1    0    0    0  501 -0.00000000000E+00 -0.00000000000E+00 -0.17389523578E+03  0.17389523578E+03  0.00000000000E+00 0.  1.
         23    2    1    2    0    0  0.19301459397E+03 -0.21273123328E+03 -0.17871165228E+02  0.30207727716E+03  0.91771955041E+02 0.  0.
         13    1    3    3    0    0  0.69853257054E+02 -0.11636724300E+03  0.29074608415E+02  0.13880254183E+03  0.00000000000E+00 0. -1.
        -13    1    3    3    0    0  0.12316133692E+03 -0.96363990278E+02 -0.46945773642E+02  0.16327473533E+03  0.00000000000E+00 0.  1.
         22    1    1    2    0    0 -0.19301459397E+03  0.21273123328E+03  0.14678174501E+04  0.14956594793E+04  0.00000000000E+00 0. -1.
<mgrwt>
<rscale>  0 0.10627856E+04</rscale>
<asrwt>0</asrwt>
<pdfrwt beam="1">  1        1 0.24982176E+00 0.10627856E+04</pdfrwt>
<pdfrwt beam="2">  1       -1 0.26753114E-01 0.10627856E+04</pdfrwt>
<totfact> 0.66914764E+01</totfact>
</mgrwt>
</event>
<event>
 6    1  0.9906445E-006  0.4030159E+04  0.7818608E-02  0.7998490E-01
         -2   -1    0    0    0  501 -0.00000000000E+00  0.00000000000E+00  0.18742146937E+04  0.18742146937E+04  0.00000000000E+00 0.  1.
          2   -1    0    0  501    0  0.00000000000E+00 -0.00000000000E+00 -0.21665316962E+04  0.21665316962E+04  0.00000000000E+00 0. -1.
         23    2    1    2    0    0  0.70031143231E+03  0.10611697790E+04 -0.17123797791E+04  0.21346782663E+04  0.89941040825E+02 0.  0.
         13    1    3    3    0    0  0.40871546386E+03  0.69673569435E+03 -0.10724388417E+04  0.13426146235E+04  0.00000000000E+00 0. -1.
        -13    1    3    3    0    0  0.29159596845E+03  0.36443408465E+03 -0.63994093738E+03  0.79206364277E+03  0.00000000000E+00 0.  1.
         22    1    1    2    0    0 -0.70031143231E+03 -0.10611697790E+04  0.14200627766E+04  0.19060681235E+04  0.00000000000E+00 0.  1.
<mgrwt>
<rscale>  0 0.40301591E+04</rscale>
<asrwt>0</asrwt>
<pdfrwt beam="1">  1        2 0.33331257E+00 0.40301591E+04</pdfrwt>
<pdfrwt beam="2">  1       -2 0.28834072E+00 0.40301591E+04</pdfrwt>
<totfact> 0.15895231E-01</totfact>
</mgrwt>
</event>
<event>
 6    1  0.9906445E-006  0.2707333E+04  0.7818608E-02  0.8332629E-01
          2   -1    0    0  501    0  0.00000000000E+00  0.00000000000E+00  0.20802317895E+04  0.20802317895E+04  0.00000000000E+00 0. -1.
         -2   -1    0    0    0  501 -0.00000000000E+00 -0.00000000000E+00 -0.88086984939E+03  0.88086984939E+03  0.00000000000E+00 0.  1.
         23    2    1    2    0    0  0.13048765517E+03 -0.12115003683E+04  0.12413349329E+04  0.17418715939E+04  0.91891586706E+02 0.  0.
         13    1    3    3    0    0  0.10953041012E+02 -0.45367239158E+03  0.49506902833E+03  0.67158912350E+03  0.00000000000E+00 0.  1.
        -13    1    3    3    0    0  0.11953461416E+03 -0.75782797668E+03  0.74626590455E+03  0.10702824704E+04  0.00000000000E+00 0. -1.
         22    1    1    2    0    0 -0.13048765517E+03  0.12115003683E+04 -0.41972992758E+02  0.12192300450E+04  0.00000000000E+00 0.  1.
<mgrwt>
<rscale>  0 0.27073333E+04</rscale>
<asrwt>0</asrwt>
<pdfrwt beam="1">  1        2 0.32003566E+00 0.27073333E+04</pdfrwt>
<pdfrwt beam="2">  1       -2 0.13551844E+00 0.27073333E+04</pdfrwt>
<totfact> 0.20644942E+00</totfact>
</mgrwt>
</event>
<event>
 6    1  0.9906445E-006  0.5613910E+03  0.7818608E-02  0.9988912E-01
         -2   -1    0    0    0  501 -0.00000000000E+00  0.00000000000E+00  0.33594105409E+03  0.33594105409E+03  0.00000000000E+00 0. -1.
          2   -1    0    0  501    0  0.00000000000E+00 -0.00000000000E+00 -0.23453505711E+03  0.23453505711E+03  0.00000000000E+00 0.  1.
         23    2    1    2    0    0 -0.26926727461E+02  0.13943078247E+03 -0.18493899061E+03  0.25085220147E+03  0.92511647843E+02 0.  0.
         11    1    3    3    0    0 -0.41672438677E+02  0.16200846337E+02 -0.39528584816E+02  0.59678878884E+02  0.00000000000E+00 0. -1.
        -11    1    3    3    0    0  0.14745711215E+02  0.12322993613E+03 -0.14541040579E+03  0.19117332259E+03  0.00000000000E+00 0.  1.
         22    1    1    2    0    0  0.26926727461E+02 -0.13943078247E+03  0.28634498759E+03  0.31962390973E+03  0.00000000000E+00 0. -1.
<mgrwt>
<rscale>  0 0.56139097E+03</rscale>
<asrwt>0</asrwt>
<pdfrwt beam="1">  1        2 0.36082317E-01 0.56139097E+03</pdfrwt>
<pdfrwt beam="2">  1       -2 0.51683239E-01 0.56139097E+03</pdfrwt>
<totfact> 0.51531190E+02</totfact>
</mgrwt>
</event>
<event>
 6    1  0.9906445E-006  0.1299979E+04  0.7818608E-02  0.9029582E-01
          1   -1    0    0  501    0  0.00000000000E+00  0.00000000000E+00  0.27218821860E+04  0.27218821860E+04  0.00000000000E+00 0. -1.
         -1   -1    0    0    0  501 -0.00000000000E+00 -0.00000000000E+00 -0.15521835115E+03  0.15521835115E+03  0.00000000000E+00 0.  1.
         23    2    1    2    0    0  0.63555764476E+03 -0.11860859410E+03  0.13219043470E+04  0.14744502953E+04  0.92579977454E+02 0.  0.
         13    1    3    3    0    0  0.39438836714E+03 -0.68223095629E+02  0.71425989640E+03  0.81875745769E+03  0.00000000000E+00 0. -1.
        -13    1    3    3    0    0  0.24116927761E+03 -0.50385498467E+02  0.60764445062E+03  0.65569283761E+03  0.00000000000E+00 0.  1.
         22    1    1    2    0    0 -0.63555764476E+03  0.11860859410E+03  0.12447594878E+04  0.14026502418E+04  0.00000000000E+00 0.  1.
<mgrwt>
<rscale>  0 0.12999786E+04</rscale>
<asrwt>0</asrwt>
<pdfrwt beam="1">  1        1 0.41875107E+00 0.12999786E+04</pdfrwt>
<pdfrwt beam="2">  1       -1 0.23879748E-01 0.12999786E+04</pdfrwt>
<totfact> 0.14194938E+01</totfact>
</mgrwt>
</event>
<event>
 6    1  0.9906445E-006  0.3176809E+04  0.7818608E-02  0.8194969E-01
         -2   -1    0    0    0  501 -0.00000000000E+00  0.00000000000E+00  0.25279040871E+04  0.25279040871E+04  0.00000000000E+00 0. -1.
          2   -1    0    0  501    0  0.00000000000E+00 -0.00000000000E+00 -0.99807141263E+03  0.99807141263E+03  0.00000000000E+00 0.  1.
         23    2    1    2    0    0 -0.39337977803E+03  0.45768181506E+03 -0.86434009244E+03  0.10569101844E+04  0.75862038313E+02 0.  0.
         11    1    3    3    0    0 -0.24152549051E+03  0.31903087984E+03 -0.52462585400E+03  0.65980872345E+03  0.00000000000E+00 0. -1.
        -11    1    3    3    0    0 -0.15185428753E+03  0.13865093522E+03 -0.33971423845E+03  0.39710146094E+03  0.00000000000E+00 0.  1.
         22    1    1    2    0    0  0.39337977803E+03 -0.45768181506E+03  0.23941727669E+04  0.24690653153E+04  0.00000000000E+00 0. -1.
<mgrwt>
<rscale>  0 0.31768090E+04</rscale>
<asrwt>0</asrwt>
<pdfrwt beam="1">  1        2 0.15354945E+00 0.31768090E+04</pdfrwt>
<pdfrwt beam="2">  1       -2 0.38890832E+00 0.31768090E+04</pdfrwt>
<totfact> 0.18669831E-01</totfact>
</mgrwt>
</event>
<event>
 6    1  0.9906445E-006  0.2492822E+04  0.7818608E-02  0.8405547E-01
          2   -1    0    0  501    0  0.00000000000E+00  0.00000000000E+00  0.22591216939E+04  0.22591216939E+04  0.00000000000E+00 0. -1.
         -2   -1    0    0    0  501 -0.00000000000E+00 -0.00000000000E+00 -0.68767424567E+03  0.68767424567E+03  0.00000000000E+00 0.  1.
         23    2    1    2    0    0 -0.22659508557E+03 -0.68391867506E+03  0.19866693940E+04  0.21152315397E+04  0.90879582443E+02 0.  0.
         11    1    3    3    0    0 -0.69057238638E+02 -0.33975418717E+03  0.89501248174E+03  0.95981724947E+03  0.00000000000E+00 0.  1.
        -11    1    3    3    0    0 -0.15753784694E+03 -0.34416448789E+03  0.10916569122E+04  0.11554142902E+04  0.00000000000E+00 0. -1.
         22    1    1    2    0    0  0.22659508557E+03  0.68391867506E+03 -0.41522194577E+03  0.83156439988E+03  0.00000000000E+00 0.  1.
<mgrwt>
<rscale>  0 0.24928215E+04</rscale>
<asrwt>0</asrwt>
<pdfrwt beam="1">  1        2 0.34755718E+00 0.24928215E+04</pdfrwt>
<pdfrwt beam="2">  1       -2 0.10579604E+00 0.24928215E+04</pdfrwt>
<totfact> 0.30800581E+00</totfact>
</mgrwt>
</event>
<event>
 6    1  0.9906445E-006  0.8130743E+03  0.7818608E-02  0.9541283E-01
         -1   -1    0    0    0  501 -0.00000000000E+00  0.00000000000E+00  0.25405781650E+03  0.25405781650E+03  0.00000000000E+00 0.  1.
          1   -1    0    0  501    0  0.00000000000E+00 -0.00000000000E+00 -0.65053083373E+03  0.65053083373E+03  0.00000000000E+00 0. -1.
         23    2    1    2    0    0 -0.13278855725E+03 -0.61461908819E+02  0.21540437559E+03  0.27545884565E+03  0.89822956123E+02 0.  0.
         11    1    3    3    0    0 -0.19734029754E+02  0.16992149012E+02  0.93299396144E+01  0.27662480575E+02  0.00000000000E+00 0.  1.
        -11    1    3    3    0    0 -0.11305452750E+03 -0.78454057830E+02  0.20607443598E+03  0.24779636507E+03  0.00000000000E+00 0. -1.
         22    1    1    2    0    0  0.13278855725E+03  0.61461908819E+02 -0.61187739282E+03  0.62912980459E+03  0.00000000000E+00 0. -1.
<mgrwt>
<rscale>  0 0.81307427E+03</rscale>
<asrwt>0</asrwt>
<pdfrwt beam="1">  1        1 0.10008167E+00 0.81307427E+03</pdfrwt>
<pdfrwt beam="2">  1       -1 0.39085818E-01 0.81307427E+03</pdfrwt>
<totfact> 0.19524274E+02</totfact>
</mgrwt>
</event>
<event>
 6    1  0.9906445E-006  0.1541623E+04  0.7818608E-02  0.8857236E-01
          2   -1    0    0  501    0  0.00000000000E+00  0.00000000000E+00  0.11339566546E+04  0.11339566546E+04  0.00000000000E+00 0. -1.
         -2   -1    0    0    0  501 -0.00000000000E+00 -0.00000000000E+00 -0.52396235241E+03  0.52396235241E+03  0.00000000000E+00 0.  1.
         23    2    1    2    0    0  0.16767364451E+03  0.50252369938E+03 -0.29230981842E+03  0.61159341449E+03  0.89201766809E+02 0.  0.
         13    1    3    3    0    0  0.96302993191E+02  0.25062483052E+03 -0.99056944853E+02  0.28618062564E+03  0.00000000000E+00 0.  1.
        -13    1    3    3    0    0  0.71370651315E+02  0.25189886886E+03 -0.19325287357E+03  0.32541278885E+03  0.00000000000E+00 0. -1.
         22    1    1    2    0    0 -0.16767364451E+03 -0.50252369938E+03  0.90230412064E+03  0.10463255925E+04  0.00000000000E+00 0. -1.
<mgrwt>
<rscale>  0 0.15416233E+04</rscale>
<asrwt>0</asrwt>
<pdfrwt beam="1">  1        2 0.17445487E+00 0.15416233E+04</pdfrwt>
<pdfrwt beam="2">  1       -2 0.80609593E-01 0.15416233E+04</pdfrwt>
<totfact> 0.27181700E+01</totfact>
</mgrwt>
</event>
<event>
 6    1  0.1714558E-005  0.3279804E+04  0.7818608E-02  0.8168053E-01
         -1   -1    0    0    0  501 -0.00000000000E+00  0.00000000000E+00  0.14588032053E+04  0.14588032053E+04  0.00000000000E+00 0.  1.
          1   -1    0    0  501    0  0.00000000000E+00 -0.00000000000E+00 -0.18434831248E+04  0.18434831248E+04  0.00000000000E+00 0. -1.
         23    2    1    2    0    0  0.29386005328E+03  0.25799976799E+03  0.14096893847E+04  0.14658008792E+04  0.91817453421E+02 0.  0.
         11    1    3    3    0    0  0.19733413747E+03  0.12534948776E+03  0.72635528745E+03  0.76304997182E+03  0.00000000000E+00 0. -1.
        -11    1    3    3    0    0  0.96525915806E+02  0.13265028022E+03  0.68333409729E+03  0.70275090735E+03  0.00000000000E+00 0.  1.
         22    1    1    2    0    0 -0.29386005328E+03 -0.25799976799E+03 -0.17943693043E+04  0.18364854509E+04  0.00000000000E+00 0. -1.
<mgrwt>
<rscale>  0 0.32798043E+04</rscale>
<asrwt>0</asrwt>
<pdfrwt beam="1">  1        1 0.28361279E+00 0.32798043E+04</pdfrwt>
<pdfrwt beam="2">  1       -1 0.22443126E+00 0.32798043E+04</pdfrwt>
<totfact> 0.32514534E-01</totfact>
</mgrwt>
</event>
<event>
 6    1  0.9906445E-006  0.3865548E+04  0.7818608E-02  0.8032233E-01
         -1   -1    0    0    0  501 -0.00000000000E+00  0.00000000000E+00  0.14190274435E+04  0.14190274435E+04  0.00000000000E+00 0.  1.
          1   -1    0    0  501    0  0.00000000000E+00 -0.00000000000E+00 -0.26325174557E+04  0.26325174557E+04  0.00000000000E+00 0. -1.
         23    2    1    2    0    0  0.58306917329E+02 -0.92429829190E+03 -0.23838551167E+04  0.25590699390E+04  0.91360309527E+02 0.  0.
         13    1    3    3    0    0  0.69288010432E+02 -0.38288921723E+03 -0.99963138430E+03  0.10726918875E+04  0.00000000000E+00 0.  1.
        -13    1    3    3    0    0 -0.10981093104E+02 -0.54140907467E+03 -0.13842237324E+04  0.14863780515E+04  0.00000000000E+00 0. -1.
         22    1    1    2    0    0 -0.58306917329E+02  0.92429829190E+03  0.11703651045E+04  0.14924749602E+04  0.00000000000E+00 0.  1.
<mgrwt>
<rscale>  0 0.38655476E+04</rscale>
<asrwt>0</asrwt>
<pdfrwt beam="1">  1        1 0.40500268E+00 0.38655476E+04</pdfrwt>
<pdfrwt beam="2">  1       -1 0.21831192E+00 0.38655476E+04</pdfrwt>
<totfact> 0.97856076E-02</totfact>
</mgrwt>
</event>
<event>
 6    1  0.9906445E-006  0.2459536E+04  0.7818608E-02  0.8417544E-01
          2   -1    0    0  501    0  0.00000000000E+00  0.00000000000E+00  0.14191543605E+04  0.14191543605E+04  0.00000000000E+00 0. -1.
         -2   -1    0    0    0  501 -0.00000000000E+00 -0.00000000000E+00 -0.10656555748E+04  0.10656555748E+04  0.00000000000E+00 0.  1.
         23    2    1    2    0    0 -0.66015454325E+03 -0.45701268587E+03  0.11166760720E+04  0.13770625876E+04  0.68346941152E+02 0.  0.
         11    1    3    3    0    0 -0.18103526471E+03 -0.91109436769E+02  0.26526532088E+03  0.33382688178E+03  0.00000000000E+00 0.  1.
        -11    1    3    3    0    0 -0.47911927854E+03 -0.36590324910E+03  0.85141075116E+03  0.10432357059E+04  0.00000000000E+00 0. -1.
         22    1    1    2    0    0  0.66015454325E+03  0.45701268587E+03 -0.76317728632E+03  0.11077473477E+04  0.00000000000E+00 0.  1.
<mgrwt>
<rscale>  0 0.24595363E+04</rscale>
<asrwt>0</asrwt>
<pdfrwt beam="1">  1        2 0.21833144E+00 0.24595363E+04</pdfrwt>
<pdfrwt beam="2">  1       -2 0.16394701E+00 0.24595363E+04</pdfrwt>
<totfact> 0.29756244E+00</totfact>
</mgrwt>
</event>
<event>
 6    1  0.9906445E-006  0.2048030E+04  0.7818608E-02  0.8584488E-01
          1   -1    0    0  501    0  0.00000000000E+00  0.00000000000E+00  0.41853748011E+03  0.41853748011E+03  0.00000000000E+00 0. -1.
         -1   -1    0    0    0  501 -0.00000000000E+00 -0.00000000000E+00 -0.25054074598E+04  0.25054074598E+04  0.00000000000E+00 0.  1.
         23    2    1    2    0    0 -0.86701974993E+03 -0.31229974036E+03 -0.16761675634E+04  0.19150193484E+04  0.92233558433E+02 0.  0.
         11    1    3    3    0    0 -0.69866787052E+03 -0.23949587796E+03 -0.14107377399E+04  0.15923806202E+04  0.00000000000E+00 0. -1.
        -11    1    3    3    0    0 -0.16835187941E+03 -0.72803862392E+02 -0.26542982355E+03  0.32263872816E+03  0.00000000000E+00 0.  1.
         22    1    1    2    0    0  0.86701974993E+03  0.31229974036E+03 -0.41070241629E+03  0.10089255916E+04  0.00000000000E+00 0. -1.
<mgrwt>
<rscale>  0 0.20480302E+04</rscale>
<asrwt>0</asrwt>
<pdfrwt beam="1">  1        1 0.64390384E-01 0.20480302E+04</pdfrwt>
<pdfrwt beam="2">  1       -1 0.38544729E+00 0.20480302E+04</pdfrwt>
<totfact> 0.46959263E-01</totfact>
</mgrwt>
</event>
<event>
 6    1  0.9906445E-006  0.2375878E+04  0.7818608E-02  0.8448590E-01
          2   -1    0    0  501    0  0.00000000000E+00  0.00000000000E+00  0.14629515376E+04  0.14629515376E+04  0.00000000000E+00 0. -1.
         -2   -1    0    0    0  501 -0.00000000000E+00 -0.00000000000E+00 -0.96462480608E+03  0.96462480608E+03  0.00000000000E+00 0.  1.
         23    2    1    2    0    0 -0.45520141937E+03 -0.68076534956E+03 -0.62728239451E+03  0.10355829177E+04  0.91098757576E+02 0.  0.
         11    1    3    3    0    0 -0.12970103045E+03 -0.13088891480E+03 -0.12263687842E+03  0.22134603965E+03  0.00000000000E+00 0. -1.
        -11    1    3    3    0    0 -0.32550038891E+03 -0.54987643476E+03 -0.50464551609E+03  0.81423687806E+03  0.00000000000E+00 0.  1.
         22    1    1    2    0    0  0.45520141937E+03  0.68076534956E+03  0.11256091260E+04  0.13919934260E+04  0.00000000000E+00 0. -1.
<mgrwt>
<rscale>  0 0.23758782E+04</rscale>
<asrwt>0</asrwt>
<pdfrwt beam="1">  1        2 0.22506947E+00 0.23758782E+04</pdfrwt>
<pdfrwt beam="2">  1       -2 0.14840382E+00 0.23758782E+04</pdfrwt>
<totfact> 0.37005186E+00</totfact>
</mgrwt>
</event>
<event>
 6    1  0.9906445E-006  0.1952315E+04  0.7818608E-02  0.8629245E-01
         -2   -1    0    0    0  501 -0.00000000000E+00  0.00000000000E+00  0.94629740988E+03  0.94629740988E+03  0.00000000000E+00 0.  1.
          2   -1    0    0  501    0  0.00000000000E+00 -0.00000000000E+00 -0.10069596695E+04  0.10069596695E+04  0.00000000000E+00 0. -1.
         23    2    1    2    0    0  0.41054499638E+03 -0.28974813048E+03 -0.86513856712E+03  0.10047407102E+04  0.92401197465E+02 0.  0.
         11    1    3    3    0    0  0.14097776805E+03 -0.13186249983E+03 -0.40397002118E+03  0.44772114978E+03  0.00000000000E+00 0. -1.
        -11    1    3    3    0    0  0.26956722833E+03 -0.15788563065E+03 -0.46116854594E+03  0.55701956045E+03  0.00000000000E+00 0.  1.
         22    1    1    2    0    0 -0.41054499638E+03  0.28974813048E+03  0.80447630751E+03  0.94851636914E+03  0.00000000000E+00 0.  1.
<mgrwt>
<rscale>  0 0.19523149E+04</rscale>
<asrwt>0</asrwt>
<pdfrwt beam="1">  1        2 0.15491687E+00 0.19523149E+04</pdfrwt>
<pdfrwt beam="2">  1       -2 0.14558422E+00 0.19523149E+04</pdfrwt>
<totfact> 0.75381586E+00</totfact>
</mgrwt>
</event>
<event>
 6    1  0.9906445E-006  0.1690557E+04  0.7818608E-02  0.8766768E-01
         -1   -1    0    0    0  501 -0.00000000000E+00  0.00000000000E+00  0.62663223893E+03  0.62663223893E+03  0.00000000000E+00 0.  1.
          1   -1    0    0  501    0  0.00000000000E+00 -0.00000000000E+00 -0.11402153733E+04  0.11402153733E+04  0.00000000000E+00 0. -1.
         23    2    1    2    0    0  0.75203772433E+03  0.37298584871E+03 -0.33654552352E+03  0.90893065946E+03  0.90624898129E+02 0.  0.
         13    1    3    3    0    0  0.66481224433E+03  0.35027653734E+03 -0.27684861380E+03  0.80082090869E+03  0.00000000000E+00 0.  1.
        -13    1    3    3    0    0  0.87225479992E+02  0.22709311372E+02 -0.59696909715E+02  0.10810975077E+03  0.00000000000E+00 0. -1.
         22    1    1    2    0    0 -0.75203772433E+03 -0.37298584871E+03 -0.17703761081E+03  0.85791695274E+03  0.00000000000E+00 0. -1.
<mgrwt>
<rscale>  0 0.16905570E+04</rscale>
<asrwt>0</asrwt>
<pdfrwt beam="1">  1        1 0.17541775E+00 0.16905570E+04</pdfrwt>
<pdfrwt beam="2">  1       -1 0.96404962E-01 0.16905570E+04</pdfrwt>
<totfact> 0.11671424E+01</totfact>
</mgrwt>
</event>
<event>
 6    1  0.9906445E-006  0.1031670E+04  0.7818608E-02  0.9274476E-01
          1   -1    0    0  501    0  0.00000000000E+00  0.00000000000E+00  0.55586607113E+03  0.55586607113E+03  0.00000000000E+00 0. -1.
         -1   -1    0    0    0  501 -0.00000000000E+00 -0.00000000000E+00 -0.47868643491E+03  0.47868643491E+03  0.00000000000E+00 0.  1.
         23    2    1    2    0    0  0.35186841019E+03 -0.48392528032E+01  0.41110470499E+03  0.54943319287E+03  0.95052398739E+02 0.  0.
         13    1    3    3    0    0  0.84299656015E+02  0.39767825912E+02  0.10881966459E+03  0.14328165055E+03  0.00000000000E+00 0. -1.
        -13    1    3    3    0    0  0.26756875417E+03 -0.44607078716E+02  0.30228504040E+03  0.40615154232E+03  0.00000000000E+00 0.  1.
         22    1    1    2    0    0 -0.35186841019E+03  0.48392528032E+01 -0.33392506877E+03  0.48511931317E+03  0.00000000000E+00 0.  1.
<mgrwt>
<rscale>  0 0.10316696E+04</rscale>
<asrwt>0</asrwt>
<pdfrwt beam="1">  1        1 0.85517857E-01 0.10316696E+04</pdfrwt>
<pdfrwt beam="2">  1       -1 0.73644067E-01 0.10316696E+04</pdfrwt>
<totfact> 0.71064279E+01</totfact>
</mgrwt>
</event>
<event>
 6    1  0.9906445E-006  0.1149900E+04  0.7818608E-02  0.9157876E-01
         -1   -1    0    0    0  501 -0.00000000000E+00  0.00000000000E+00  0.34281573284E+03  0.34281573284E+03  0.00000000000E+00 0.  1.
          1   -1    0    0  501    0  0.00000000000E+00 -0.00000000000E+00 -0.96427180023E+03  0.96427180023E+03  0.00000000000E+00 0. -1.
         23    2    1    2    0    0 -0.22771855552E+03 -0.48071089429E+03 -0.75974844301E+02  0.54518959427E+03  0.92308246181E+02 0.  0.
         11    1    3    3    0    0 -0.14353628872E+03 -0.20195013110E+03 -0.50726809160E+02  0.25290261129E+03  0.00000000000E+00 0.  1.
        -11    1    3    3    0    0 -0.84182266799E+02 -0.27876076319E+03 -0.25248035141E+02  0.29228698298E+03  0.00000000000E+00 0. -1.
         22    1    1    2    0    0  0.22771855552E+03  0.48071089429E+03 -0.54548122309E+03  0.76189793881E+03  0.00000000000E+00 0. -1.
<mgrwt>
<rscale>  0 0.11499001E+04</rscale>
<asrwt>0</asrwt>
<pdfrwt beam="1">  1        1 0.14834951E+00 0.11499001E+04</pdfrwt>
<pdfrwt beam="2">  1       -1 0.52740882E-01 0.11499001E+04</pdfrwt>
<totfact> 0.58093444E+01</totfact>
</mgrwt>
</event>
<event>
 6    1  0.9906445E-006  0.1441123E+04  0.7818608E-02  0.8924578E-01
         -1   -1    0    0    0  501 -0.00000000000E+00  0.00000000000E+00  0.23538829565E+03  0.23538829565E+03  0.00000000000E+00 0.  1.
          1   -1    0    0  501    0  0.00000000000E+00 -0.00000000000E+00 -0.22057556811E+04  0.22057556811E+04  0.00000000000E+00 0. -1.
         23    2    1    2    0    0  0.17834687974E+03  0.22809432077E+02 -0.21660563832E+04  0.21753958562E+04  0.90658678836E+02 0.  0.
         13    1    3    3    0    0  0.11645769248E+03 -0.13057458569E+02 -0.16826487954E+04  0.16867245952E+04  0.00000000000E+00 0.  1.
        -13    1    3    3    0    0  0.61889187257E+02  0.35866890646E+02 -0.48340758779E+03  0.48867126094E+03  0.00000000000E+00 0. -1.
         22    1    1    2    0    0 -0.17834687974E+03 -0.22809432077E+02  0.19568899781E+03  0.26574812054E+03  0.00000000000E+00 0.  1.
<mgrwt>
<rscale>  0 0.14411233E+04</rscale>
<asrwt>0</asrwt>
<pdfrwt beam="1">  1        1 0.33934702E+00 0.14411233E+04</pdfrwt>
<pdfrwt beam="2">  1       -1 0.36213585E-01 0.14411233E+04</pdfrwt>
<totfact> 0.15337511E+01</totfact>
</mgrwt>
</event>
<event>
 6    1  0.9906445E-006  0.4375009E+04  0.7818608E-02  0.7932892E-01
          2   -1    0    0  501    0  0.00000000000E+00  0.00000000000E+00  0.46975583182E+04  0.46975583182E+04  0.00000000000E+00 0. -1.
         -2   -1    0    0    0  501 -0.00000000000E+00 -0.00000000000E+00 -0.10186516461E+04  0.10186516461E+04  0.00000000000E+00 0.  1.
         23    2    1    2    0    0 -0.15260448813E+04 -0.51907938348E+03  0.37705780386E+04  0.41016945492E+04  0.91558965101E+02 0.  0.
         11    1    3    3    0    0 -0.89129142847E+03 -0.33921071178E+03  0.21536736925E+04  0.23553714551E+04  0.00000000000E+00 0.  1.
        -11    1    3    3    0    0 -0.63475345278E+03 -0.17986867170E+03  0.16169043461E+04  0.17463230942E+04  0.00000000000E+00 0. -1.
         22    1    1    2    0    0  0.15260448813E+04  0.51907938348E+03 -0.91671366559E+02  0.16145154150E+04  0.00000000000E+00 0.  1.
<mgrwt>
<rscale>  0 0.43750088E+04</rscale>
<asrwt>0</asrwt>
<pdfrwt beam="1">  1        2 0.72270127E+00 0.43750088E+04</pdfrwt>
<pdfrwt beam="2">  1       -2 0.15671564E+00 0.43750088E+04</pdfrwt>
<totfact> 0.15584010E-02</totfact>
</mgrwt>
</event>
<event>
 6    1  0.9906445E-006  0.3779284E+04  0.7818608E-02  0.8050615E-01
          2   -1    0    0  501    0  0.00000000000E+00  0.00000000000E+00  0.13712449531E+04  0.13712449531E+04  0.00000000000E+00 0. -1.
         -2   -1    0    0    0  501 -0.00000000000E+00 -0.00000000000E+00 -0.26040181225E+04  0.26040181225E+04  0.00000000000E+00 0.  1.
         23    2    1    2    0    0 -0.36286269030E+03  0.36681194582E+03  0.12941292000E+04  0.13962214086E+04  0.91888519971E+02 0.  0.
         13    1    3    3    0    0 -0.27410520716E+03  0.23998615701E+03  0.99119328578E+03  0.10560261123E+04  0.00000000000E+00 0. -1.
        -13    1    3    3    0    0 -0.88757483140E+02  0.12682578881E+03  0.30293591420E+03  0.34019529632E+03  0.00000000000E+00 0.  1.
         22    1    1    2    0    0  0.36286269030E+03 -0.36681194582E+03 -0.25269023693E+04  0.25790416669E+04  0.00000000000E+00 0.  1.
<mgrwt>
<rscale>  0 0.37792839E+04</rscale>
<asrwt>0</asrwt>
<pdfrwt beam="1">  1        2 0.21096077E+00 0.37792839E+04</pdfrwt>
<pdfrwt beam="2">  1       -2 0.40061817E+00 0.37792839E+04</pdfrwt>
<totfact> 0.88718175E-02</totfact>
</mgrwt>
</event>
<event>
 6    1  0.9906445E-006  0.4936079E+04  0.7818608E-02  0.7838444E-01
          2   -1    0    0  501    0  0.00000000000E+00  0.00000000000E+00  0.23998159186E+04  0.23998159186E+04  0.00000000000E+00 0. -1.
         -2   -1    0    0    0  501 -0.00000000000E+00 -0.00000000000E+00 -0.25382021091E+04  0.25382021091E+04  0.00000000000E+00 0.  1.
         23    2    1    2    0    0  0.17092587314E+04 -0.79966181876E+03 -0.16591919862E+04  0.25144102412E+04  0.91194181531E+02 0.  0.
         11    1    3    3    0    0  0.11665522479E+04 -0.53423383649E+03 -0.10724928000E+04  0.16722711339E+04  0.00000000000E+00 0.  1.
        -11    1    3    3    0    0  0.54270648347E+03 -0.26542798226E+03 -0.58669918619E+03  0.84213910730E+03  0.00000000000E+00 0. -1.
         22    1    1    2    0    0 -0.17092587314E+04  0.79966181876E+03  0.15208057956E+04  0.24236077866E+04  0.00000000000E+00 0. -1.
<mgrwt>
<rscale>  0 0.49360785E+04</rscale>
<asrwt>0</asrwt>
<pdfrwt beam="1">  1        2 0.36920245E+00 0.49360785E+04</pdfrwt>
<pdfrwt beam="2">  1       -2 0.39049264E+00 0.49360785E+04</pdfrwt>
<totfact> 0.24923312E-02</totfact>
</mgrwt>
</event>
<event>
 6    1  0.9906445E-006  0.1387224E+04  0.7818608E-02  0.8963119E-01
          1   -1    0    0  501    0  0.00000000000E+00  0.00000000000E+00  0.45545969913E+03  0.45545969913E+03  0.00000000000E+00 0. -1.
         -1   -1    0    0    0  501 -0.00000000000E+00 -0.00000000000E+00 -0.10562899512E+04  0.10562899512E+04  0.00000000000E+00 0.  1.
         23    2    1    2    0    0  0.25533805337E+03  0.77120391886E+02 -0.99573430643E+03  0.10352055407E+04  0.94966447458E+02 0.  0.
         13    1    3    3    0    0  0.75717017449E+02  0.53678316830E+02 -0.47174483126E+03  0.48078853382E+03  0.00000000000E+00 0. -1.
        -13    1    3    3    0    0  0.17962103592E+03  0.23442075056E+02 -0.52398947517E+03  0.55441700688E+03  0.00000000000E+00 0.  1.
         22    1    1    2    0    0 -0.25533805337E+03 -0.77120391886E+02  0.39490405433E+03  0.47654410968E+03  0.00000000000E+00 0. -1.
<mgrwt>
<rscale>  0 0.13872239E+04</rscale>
<asrwt>0</asrwt>
<pdfrwt beam="1">  1        1 0.70070724E-01 0.13872239E+04</pdfrwt>
<pdfrwt beam="2">  1       -1 0.16250614E+00 0.13872239E+04</pdfrwt>
<totfact> 0.13754452E+01</totfact>
</mgrwt>
</event>
<event>
 6    1  0.9906445E-006  0.1584793E+04  0.7818608E-02  0.8829945E-01
         -1   -1    0    0    0  501 -0.00000000000E+00  0.00000000000E+00  0.70601182652E+03  0.70601182652E+03  0.00000000000E+00 0.  1.
          1   -1    0    0  501    0  0.00000000000E+00 -0.00000000000E+00 -0.88935072084E+03  0.88935072084E+03  0.00000000000E+00 0. -1.
         23    2    1    2    0    0 -0.93812708396E+02  0.16550210820E+03 -0.86170591561E+03  0.89082469341E+03  0.12181862470E+03 0.  0.
         11    1    3    3    0    0 -0.84686876788E+02  0.13013408716E+03 -0.82334054067E+03  0.83785225049E+03  0.00000000000E+00 0.  1.
        -11    1    3    3    0    0 -0.91258316082E+01  0.35368021043E+02 -0.38365374940E+02  0.52972442924E+02  0.00000000000E+00 0. -1.
         22    1    1    2    0    0  0.93812708396E+02 -0.16550210820E+03  0.67836702129E+03  0.70453785395E+03  0.00000000000E+00 0.  1.
<mgrwt>
<rscale>  0 0.15847929E+04</rscale>
<asrwt>0</asrwt>
<pdfrwt beam="1">  1        1 0.13682319E+00 0.15847929E+04</pdfrwt>
<pdfrwt beam="2">  1       -1 0.10861720E+00 0.15847929E+04</pdfrwt>
<totfact> 0.14031323E+01</totfact>
</mgrwt>
</event>
<event>
 6    1  0.9906445E-006  0.2487997E+04  0.7818608E-02  0.8407274E-01
         -2   -1    0    0    0  501 -0.00000000000E+00  0.00000000000E+00  0.80874099388E+03  0.80874099388E+03  0.00000000000E+00 0. -1.
          2   -1    0    0  501    0  0.00000000000E+00 -0.00000000000E+00 -0.19135078503E+04  0.19135078503E+04  0.00000000000E+00 0.  1.
         23    2    1    2    0    0  0.93886865393E+03 -0.21006266217E+02  0.33674236380E+03  0.10018231862E+04  0.91316287242E+02 0.  0.
         11    1    3    3    0    0  0.33466188384E+03 -0.51278013524E+02  0.12139991666E+03  0.35967478495E+03  0.00000000000E+00 0. -1.
        -11    1    3    3    0    0  0.60420677009E+03  0.30271747307E+02  0.21534244715E+03  0.64214840127E+03  0.00000000000E+00 0.  1.
         22    1    1    2    0    0 -0.93886865393E+03  0.21006266217E+02 -0.14415092202E+04  0.17204256579E+04  0.00000000000E+00 0.  1.
<mgrwt>
<rscale>  0 0.24879970E+04</rscale>
<asrwt>0</asrwt>
<pdfrwt beam="1">  1        2 0.29438582E+00 0.24879970E+04</pdfrwt>
<pdfrwt beam="2">  1       -2 0.12442169E+00 0.24879970E+04</pdfrwt>
<totfact> 0.32323831E+00</totfact>
</mgrwt>
</event>
<event>
 6    1  0.9906445E-006  0.3958962E+04  0.7818608E-02  0.8012877E-01
         -3   -1    0    0    0  501 -0.00000000000E+00  0.00000000000E+00  0.16230512581E+04  0.16230512581E+04  0.00000000000E+00 0.  1.
          3   -1    0    0  501    0  0.00000000000E+00 -0.00000000000E+00 -0.24141845668E+04  0.24141845668E+04  0.00000000000E+00 0. -1.
         23    2    1    2    0    0 -0.63472881350E+03 -0.18738196541E+04 -0.38697909957E+03  0.20179732398E+04  0.91555504034E+02 0.  0.
         11    1    3    3    0    0 -0.55610683050E+03 -0.15487935191E+04 -0.30429950149E+03  0.16735036177E+04  0.00000000000E+00 0.  1.
        -11    1    3    3    0    0 -0.78621983003E+02 -0.32502613495E+03 -0.82679598085E+02  0.34446962210E+03  0.00000000000E+00 0. -1.
         22    1    1    2    0    0  0.63472881350E+03  0.18738196541E+04 -0.40415420908E+03  0.20192625851E+04  0.00000000000E+00 0. -1.
<mgrwt>
<rscale>  0 0.39589621E+04</rscale>
<asrwt>0</asrwt>
<pdfrwt beam="1">  1        3 0.37141301E+00 0.39589621E+04</pdfrwt>
<pdfrwt beam="2">  1       -3 0.24970019E+00 0.39589621E+04</pdfrwt>
<totfact> 0.23663064E-03</totfact>
</mgrwt>
</event>
<event>
 6    1  0.1194261E-005  0.2762707E+04  0.7818608E-02  0.8314941E-01
         -2   -1    0    0    0  501 -0.00000000000E+00  0.00000000000E+00  0.76797486872E+03  0.76797486872E+03  0.00000000000E+00 0. -1.
          2   -1    0    0  501    0  0.00000000000E+00 -0.00000000000E+00 -0.24846355626E+04  0.24846355626E+04  0.00000000000E+00 0.  1.
         23    2    1    2    0    0 -0.10307057517E+04  0.66140054625E+03 -0.11042408335E+03  0.12327586847E+04  0.87723813681E+02 0.  0.
         11    1    3    3    0    0 -0.30531623108E+03  0.19761505818E+03  0.73326958894E+01  0.36376294562E+03  0.00000000000E+00 0. -1.
        -11    1    3    3    0    0 -0.72538952060E+03  0.46378548807E+03 -0.11775677924E+03  0.86899573912E+03  0.00000000000E+00 0.  1.
         22    1    1    2    0    0  0.10307057517E+04 -0.66140054625E+03 -0.16062366105E+04  0.20198517466E+04  0.00000000000E+00 0.  1.
<mgrwt>
<rscale>  0 0.27627071E+04</rscale>
<asrwt>0</asrwt>
<pdfrwt beam="1">  1        2 0.38225163E+00 0.27627071E+04</pdfrwt>
<pdfrwt beam="2">  1       -2 0.11814998E+00 0.27627071E+04</pdfrwt>
<totfact> 0.17111369E+00</totfact>
</mgrwt>
</event>
<event>
 6    1  0.9906445E-006  0.1560005E+04  0.7818608E-02  0.8845503E-01
          2   -1    0    0  501    0  0.00000000000E+00  0.00000000000E+00  0.26555948370E+04  0.26555948370E+04  0.00000000000E+00 0. -1.
         -2   -1    0    0    0  501 -0.00000000000E+00 -0.00000000000E+00 -0.22910257749E+03  0.22910257749E+03  0.00000000000E+00 0.  1.
         23    2    1    2    0    0 -0.74672659562E+02 -0.36923489204E+03  0.24748187215E+04  0.25049002864E+04  0.88810634598E+02 0.  0.
         11    1    3    3    0    0 -0.60451611637E+02 -0.16696189516E+03  0.92675200052E+03  0.94361005837E+03  0.00000000000E+00 0. -1.
        -11    1    3    3    0    0 -0.14221047925E+02 -0.20227299688E+03  0.15480667210E+04  0.15612902280E+04  0.00000000000E+00 0.  1.
         22    1    1    2    0    0  0.74672659562E+02  0.36923489204E+03 -0.48326461998E+02  0.37979712810E+03  0.00000000000E+00 0.  1.
<mgrwt>
<rscale>  0 0.15600046E+04</rscale>
<asrwt>0</asrwt>
<pdfrwt beam="1">  1        2 0.40855303E+00 0.15600046E+04</pdfrwt>
<pdfrwt beam="2">  1       -2 0.35246552E-01 0.15600046E+04</pdfrwt>
<totfact> 0.20585746E+01</totfact>
</mgrwt>
</event>
<event>
 6    1  0.9906445E-006  0.7030936E+03  0.7818608E-02  0.9711956E-01
          1   -1    0    0  501    0  0.00000000000E+00  0.00000000000E+00  0.89210192154E+03  0.89210192154E+03  0.00000000000E+00 0. -1.
         -1   -1    0    0    0  501 -0.00000000000E+00 -0.00000000000E+00 -0.13853255392E+03  0.13853255392E+03  0.00000000000E+00 0.  1.
         23    2    1    2    0    0 -0.24773656808E+03  0.23131872286E+03  0.28386350791E+03  0.45140623604E+03  0.91144610933E+02 0.  0.
         13    1    3    3    0    0 -0.14210152713E+03  0.14252847280E+03  0.22356416076E+03  0.30081247239E+03  0.00000000000E+00 0. -1.
        -13    1    3    3    0    0 -0.10563504095E+03  0.88790250063E+02  0.60299347155E+02  0.15059376365E+03  0.00000000000E+00 0.  1.
         22    1    1    2    0    0  0.24773656808E+03 -0.23131872286E+03  0.46970585970E+03  0.57922823942E+03  0.00000000000E+00 0.  1.
<mgrwt>
<rscale>  0 0.70309361E+03</rscale>
<asrwt>0</asrwt>
<pdfrwt beam="1">  1        1 0.13724645E+00 0.70309361E+03</pdfrwt>
<pdfrwt beam="2">  1       -1 0.21312701E-01 0.70309361E+03</pdfrwt>
<totfact> 0.34339232E+02</totfact>
</mgrwt>
</event>
<event>
 6    1  0.9906445E-006  0.1316598E+04  0.7818608E-02  0.9016505E-01
         -1   -1    0    0    0  501 -0.00000000000E+00  0.00000000000E+00  0.34186056090E+03  0.34186056090E+03  0.00000000000E+00 0.  1.
          1   -1    0    0  501    0  0.00000000000E+00 -0.00000000000E+00 -0.12676447787E+04  0.12676447787E+04  0.00000000000E+00 0. -1.
         23    2    1    2    0    0  0.10234419226E+03 -0.51418707029E+03  0.15552501366E+02  0.53201868271E+03  0.89102870412E+02 0.  0.
         13    1    3    3    0    0  0.58347558282E+02 -0.28109861747E+03  0.52806969778E+02  0.29190657129E+03  0.00000000000E+00 0.  1.
        -13    1    3    3    0    0  0.43996633977E+02 -0.23308845281E+03 -0.37254468412E+02  0.24011211142E+03  0.00000000000E+00 0. -1.
         22    1    1    2    0    0 -0.10234419226E+03  0.51418707029E+03 -0.94133671920E+03  0.10774866569E+04  0.00000000000E+00 0. -1.
<mgrwt>
<rscale>  0 0.13165983E+04</rscale>
<asrwt>0</asrwt>
<pdfrwt beam="1">  1        1 0.19502228E+00 0.13165983E+04</pdfrwt>
<pdfrwt beam="2">  1       -1 0.52593932E-01 0.13165983E+04</pdfrwt>
<totfact> 0.34109713E+01</totfact>
</mgrwt>
</event>
<event>
 6    1  0.9906445E-006  0.6009549E+03  0.7818608E-02  0.9903427E-01
         -1   -1    0    0    0  501 -0.00000000000E+00  0.00000000000E+00  0.75608278185E+02  0.75608278185E+02  0.00000000000E+00 0.  1.
          1   -1    0    0  501    0  0.00000000000E+00 -0.00000000000E+00 -0.11941379077E+04  0.11941379077E+04  0.00000000000E+00 0. -1.
         23    2    1    2    0    0 -0.19675159242E+03 -0.13831083789E+03 -0.21757200968E+03  0.33724111365E+03  0.92481956857E+02 0.  0.
         13    1    3    3    0    0 -0.19867752397E+03 -0.10687550647E+03 -0.18313772531E+03  0.29057625306E+03  0.00000000000E+00 0. -1.
        -13    1    3    3    0    0  0.19259315474E+01 -0.31435331416E+02 -0.34434284369E+02  0.46664860587E+02  0.00000000000E+00 0.  1.
         22    1    1    2    0    0  0.19675159242E+03  0.13831083789E+03 -0.90095761979E+03  0.93250507219E+03  0.00000000000E+00 0. -1.
<mgrwt>
<rscale>  0 0.60095494E+03</rscale>
<asrwt>0</asrwt>
<pdfrwt beam="1">  1        1 0.18371352E+00 0.60095494E+03</pdfrwt>
<pdfrwt beam="2">  1       -1 0.11632043E-01 0.60095494E+03</pdfrwt>
<totfact> 0.54529904E+02</totfact>
</mgrwt>
</event>
<event>
 6    1  0.9906445E-006  0.3963490E+04  0.7818608E-02  0.8011952E-01
          2   -1    0    0  501    0  0.00000000000E+00  0.00000000000E+00  0.24604658490E+04  0.24604658490E+04  0.00000000000E+00 0. -1.
         -2   -1    0    0    0  501 -0.00000000000E+00 -0.00000000000E+00 -0.15961667761E+04  0.15961667761E+04  0.00000000000E+00 0.  1.
         23    2    1    2    0    0  0.25484542298E+03 -0.13401631362E+04  0.19020642035E+04  0.23425906514E+04  0.94336124625E+02 0.  0.
         11    1    3    3    0    0  0.22985444996E+03 -0.98788390436E+03  0.14108249038E+04  0.17375772172E+04  0.00000000000E+00 0.  1.
        -11    1    3    3    0    0  0.24990973018E+02 -0.35227923187E+03  0.49123929978E+03  0.60501343422E+03  0.00000000000E+00 0. -1.
         22    1    1    2    0    0 -0.25484542298E+03  0.13401631362E+04 -0.10377651307E+04  0.17140419737E+04  0.00000000000E+00 0.  1.
<mgrwt>
<rscale>  0 0.39634903E+04</rscale>
<asrwt>0</asrwt>
<pdfrwt beam="1">  1        2 0.37853321E+00 0.39634903E+04</pdfrwt>
<pdfrwt beam="2">  1       -2 0.24556412E+00 0.39634903E+04</pdfrwt>
<totfact> 0.19869385E-01</totfact>
</mgrwt>
</event>
<event>
 6    1  0.9906445E-006  0.1439824E+04  0.7818608E-02  0.8925486E-01
         -1   -1    0    0    0  501 -0.00000000000E+00  0.00000000000E+00  0.13351838091E+04  0.13351838091E+04  0.00000000000E+00 0.  1.
          1   -1    0    0  501    0  0.00000000000E+00 -0.00000000000E+00 -0.38816617111E+03  0.38816617111E+03  0.00000000000E+00 0. -1.
         23    2    1    2    0    0 -0.62756144002E+03  0.11867410580E+03  0.85329302550E+02  0.65077192160E+03  0.91137805992E+02 0.  0.
         13    1    3    3    0    0 -0.13140410569E+03  0.41773066227E+02 -0.15218471575E+02  0.13872141122E+03  0.00000000000E+00 0. -1.
        -13    1    3    3    0    0 -0.49615733434E+03  0.76901039577E+02  0.10054777412E+03  0.51205051039E+03  0.00000000000E+00 0.  1.
         22    1    1    2    0    0  0.62756144002E+03 -0.11867410580E+03  0.86168833546E+03  0.10725780586E+04  0.00000000000E+00 0.  1.
<mgrwt>
<rscale>  0 0.14398239E+04</rscale>
<asrwt>0</asrwt>
<pdfrwt beam="1">  1        1 0.59717873E-01 0.14398239E+04</pdfrwt>
<pdfrwt beam="2">  1       -1 0.20541289E+00 0.14398239E+04</pdfrwt>
<totfact> 0.83850498E+00</totfact>
</mgrwt>
</event>
<event>
 6    1  0.9906445E-006  0.2339947E+04  0.7818608E-02  0.8462335E-01
         -1   -1    0    0    0  501 -0.00000000000E+00  0.00000000000E+00  0.10945017803E+04  0.10945017803E+04  0.00000000000E+00 0.  1.
          1   -1    0    0  501    0  0.00000000000E+00 -0.00000000000E+00 -0.12506490383E+04  0.12506490383E+04  0.00000000000E+00 0. -1.
         23    2    1    2    0    0 -0.75583476072E+02 -0.10476898519E+04 -0.59055804810E+03  0.12084540155E+04  0.90749168708E+02 0.  0.
         13    1    3    3    0    0  0.43813737553E+00 -0.59958640539E+03 -0.34847372152E+03  0.69349692435E+03  0.00000000000E+00 0.  1.
        -13    1    3    3    0    0 -0.76021613447E+02 -0.44810344654E+03 -0.24208432658E+03  0.51495709111E+03  0.00000000000E+00 0. -1.
         22    1    1    2    0    0  0.75583476072E+02  0.10476898519E+04  0.43441079004E+03  0.11366968031E+04  0.00000000000E+00 0.  1.
<mgrwt>
<rscale>  0 0.23399467E+04</rscale>
<asrwt>0</asrwt>
<pdfrwt beam="1">  1        1 0.19240754E+00 0.23399467E+04</pdfrwt>
<pdfrwt beam="2">  1       -1 0.16838489E+00 0.23399467E+04</pdfrwt>
<totfact> 0.22364126E+00</totfact>
</mgrwt>
</event>
<event>
 6    1  0.9906445E-006  0.2198866E+04  0.7818608E-02  0.8518900E-01
          1   -1    0    0  501    0  0.00000000000E+00  0.00000000000E+00  0.16810651571E+04  0.16810651571E+04  0.00000000000E+00 0. -1.
         -1   -1    0    0    0  501 -0.00000000000E+00 -0.00000000000E+00 -0.71903963168E+03  0.71903963168E+03  0.00000000000E+00 0.  1.
         23    2    1    2    0    0  0.10142577090E+04  0.40212170794E+03  0.35197593419E+03  0.11500723604E+04  0.91426514400E+02 0.  0.
         11    1    3    3    0    0  0.32868945766E+03  0.12003598643E+03  0.15698787520E+03  0.38352391135E+03  0.00000000000E+00 0. -1.
        -11    1    3    3    0    0  0.68556825136E+03  0.28208572151E+03  0.19498805900E+03  0.76654844903E+03  0.00000000000E+00 0.  1.
         22    1    1    2    0    0 -0.10142577090E+04 -0.40212170794E+03  0.61004959124E+03  0.12500324284E+04  0.00000000000E+00 0.  1.
<mgrwt>
<rscale>  0 0.21988656E+04</rscale>
<asrwt>0</asrwt>
<pdfrwt beam="1">  1        1 0.25862541E+00 0.21988656E+04</pdfrwt>
<pdfrwt beam="2">  1       -1 0.11062148E+00 0.21988656E+04</pdfrwt>
<totfact> 0.33711992E+00</totfact>
</mgrwt>
</event>
<event>
 6    1  0.9906445E-006  0.2477261E+04  0.7818608E-02  0.8411131E-01
          2   -1    0    0  501    0  0.00000000000E+00  0.00000000000E+00  0.12207002031E+04  0.12207002031E+04  0.00000000000E+00 0. -1.
         -2   -1    0    0    0  501 -0.00000000000E+00 -0.00000000000E+00 -0.12568240825E+04  0.12568240825E+04  0.00000000000E+00 0.  1.
         23    2    1    2    0    0  0.24793350274E+03 -0.79352658351E+03  0.89765589295E+03  0.12272842592E+04  0.96359172587E+02 0.  0.
         13    1    3    3    0    0  0.36327534927E+02 -0.24123585243E+03  0.22911312035E+03  0.33467483952E+03  0.00000000000E+00 0. -1.
        -13    1    3    3    0    0  0.21160596782E+03 -0.55229073107E+03  0.66854277260E+03  0.89260941965E+03  0.00000000000E+00 0.  1.
         22    1    1    2    0    0 -0.24793350274E+03  0.79352658351E+03 -0.93377977237E+03  0.12502400265E+04  0.00000000000E+00 0.  1.
<mgrwt>
<rscale>  0 0.24772609E+04</rscale>
<asrwt>0</asrwt>
<pdfrwt beam="1">  1        2 0.18780003E+00 0.24772609E+04</pdfrwt>
<pdfrwt beam="2">  1       -2 0.19335755E+00 0.24772609E+04</pdfrwt>
<totfact> 0.24210936E+00</totfact>
</mgrwt>
</event>
<event>
 6    1  0.9906445E-006  0.8388253E+03  0.7818608E-02  0.9505459E-01
          1   -1    0    0  501    0  0.00000000000E+00  0.00000000000E+00  0.16582803604E+04  0.16582803604E+04  0.00000000000E+00 0. -1.
         -1   -1    0    0    0  501 -0.00000000000E+00 -0.00000000000E+00 -0.10607795329E+03  0.10607795329E+03  0.00000000000E+00 0.  1.
         23    2    1    2    0    0  0.23248058755E+03  0.11031354294E+03  0.14695979614E+04  0.14940995566E+04  0.79993846162E+02 0.  0.
         13    1    3    3    0    0  0.11405598032E+03  0.24170461329E+02  0.81671695580E+03  0.82499670529E+03  0.00000000000E+00 0. -1.
        -13    1    3    3    0    0  0.11842460723E+03  0.86143081613E+02  0.65288100560E+03  0.66910285128E+03  0.00000000000E+00 0.  1.
         22    1    1    2    0    0 -0.23248058755E+03 -0.11031354294E+03  0.82604445686E+02  0.27025875710E+03  0.00000000000E+00 0.  1.
<mgrwt>
<rscale>  0 0.83882534E+03</rscale>
<asrwt>0</asrwt>
<pdfrwt beam="1">  1        1 0.25512004E+00 0.83882534E+03</pdfrwt>
<pdfrwt beam="2">  1       -1 0.16319686E-01 0.83882534E+03</pdfrwt>
<totfact> 0.14805676E+02</totfact>
</mgrwt>
</event>
<event>
 6    1  0.9906445E-006  0.1262512E+04  0.7818608E-02  0.9059833E-01
         -2   -1    0    0    0  501 -0.00000000000E+00  0.00000000000E+00  0.45402478159E+03  0.45402478159E+03  0.00000000000E+00 0.  1.
          2   -1    0    0  501    0  0.00000000000E+00 -0.00000000000E+00 -0.87767084870E+03  0.87767084870E+03  0.00000000000E+00 0. -1.
         23    2    1    2    0    0  0.32174874870E+03 -0.83714180175E+02  0.34910704116E+03  0.49045982055E+03  0.90248479992E+02 0.  0.
         13    1    3    3    0    0  0.10837485373E+03 -0.27548423863E+02  0.18228759595E+03  0.21385226727E+03  0.00000000000E+00 0.  1.
        -13    1    3    3    0    0  0.21337389496E+03 -0.56165756312E+02  0.16681944521E+03  0.27660755328E+03  0.00000000000E+00 0. -1.
         22    1    1    2    0    0 -0.32174874870E+03  0.83714180175E+02 -0.77275310827E+03  0.84123580974E+03  0.00000000000E+00 0. -1.
<mgrwt>
<rscale>  0 0.12625123E+04</rscale>
<asrwt>0</asrwt>
<pdfrwt beam="1">  1        2 0.13502628E+00 0.12625123E+04</pdfrwt>
<pdfrwt beam="2">  1       -2 0.69849966E-01 0.12625123E+04</pdfrwt>
<totfact> 0.55754789E+01</totfact>
</mgrwt>
</event>
<event>
 6    1  0.9906445E-006  0.2547660E+04  0.7818608E-02  0.8386201E-01
         -1   -1    0    0    0  501 -0.00000000000E+00  0.00000000000E+00  0.10333945589E+04  0.10333945589E+04  0.00000000000E+00 0.  1.
          1   -1    0    0  501    0  0.00000000000E+00 -0.00000000000E+00 -0.15702061394E+04  0.15702061394E+04  0.00000000000E+00 0. -1.
         23    2    1    2    0    0  0.99310659842E+03  0.12292148631E+03 -0.10715255985E+04  0.14690128927E+04  0.91985666702E+02 0.  0.
         13    1    3    3    0    0  0.66959026927E+03  0.12615600160E+03 -0.72597556748E+03  0.99564400768E+03  0.00000000000E+00 0. -1.
        -13    1    3    3    0    0  0.32351632915E+03 -0.32345152811E+01 -0.34555003105E+03  0.47336888499E+03  0.00000000000E+00 0.  1.
         22    1    1    2    0    0 -0.99310659842E+03 -0.12292148631E+03  0.53471401796E+03  0.11345878056E+04  0.00000000000E+00 0.  1.
<mgrwt>
<rscale>  0 0.25476597E+04</rscale>
<asrwt>0</asrwt>
<pdfrwt beam="1">  1        1 0.24157017E+00 0.25476597E+04</pdfrwt>
<pdfrwt beam="2">  1       -1 0.15898378E+00 0.25476597E+04</pdfrwt>
<totfact> 0.15397149E+00</totfact>
</mgrwt>
</event>
<event>
 6    1  0.9906445E-006  0.2187709E+04  0.7818608E-02  0.8523561E-01
          2   -1    0    0  501    0  0.00000000000E+00  0.00000000000E+00  0.18054949487E+04  0.18054949487E+04  0.00000000000E+00 0.  1.
         -2   -1    0    0    0  501 -0.00000000000E+00 -0.00000000000E+00 -0.66270921507E+03  0.66270921507E+03  0.00000000000E+00 0. -1.
         23    2    1    2    0    0 -0.10162486998E+02  0.27360693918E+03  0.17649788765E+04  0.17884333639E+04  0.91539222647E+02 0.  0.
         11    1    3    3    0    0 -0.21424152506E+02  0.13051643668E+03  0.58549508833E+03  0.60024830946E+03  0.00000000000E+00 0. -1.
        -11    1    3    3    0    0  0.11261665508E+02  0.14309050251E+03  0.11794837881E+04  0.11881850544E+04  0.00000000000E+00 0.  1.
         22    1    1    2    0    0  0.10162486998E+02 -0.27360693918E+03 -0.62219314287E+03  0.67977079987E+03  0.00000000000E+00 0. -1.
<mgrwt>
<rscale>  0 0.21877094E+04</rscale>
<asrwt>0</asrwt>
<pdfrwt beam="1">  1        2 0.27776845E+00 0.21877094E+04</pdfrwt>
<pdfrwt beam="2">  1       -2 0.10195526E+00 0.21877094E+04</pdfrwt>
<totfact> 0.61838343E+00</totfact>
</mgrwt>
</event>
<event>
 6    1  0.9906445E-006  0.2609708E+04  0.7818608E-02  0.8364911E-01
         -1   -1    0    0    0  501 -0.00000000000E+00  0.00000000000E+00  0.13060980305E+04  0.13060980305E+04  0.00000000000E+00 0.  1.
          1   -1    0    0  501    0  0.00000000000E+00 -0.00000000000E+00 -0.13036114515E+04  0.13036114515E+04  0.00000000000E+00 0. -1.
         23    2    1    2    0    0  0.92564605123E+03  0.88306226929E+03 -0.24753457839E+03  0.13062026110E+04  0.90952239762E+02 0.  0.
         13    1    3    3    0    0  0.69458389819E+03  0.65321538238E+03 -0.22397209076E+03  0.97943893369E+03  0.00000000000E+00 0.  1.
        -13    1    3    3    0    0  0.23106215304E+03  0.22984688692E+03 -0.23562487630E+02  0.32676367732E+03  0.00000000000E+00 0. -1.
         22    1    1    2    0    0 -0.92564605123E+03 -0.88306226929E+03  0.25002115742E+03  0.13035068710E+04  0.00000000000E+00 0.  1.
<mgrwt>
<rscale>  0 0.26097083E+04</rscale>
<asrwt>0</asrwt>
<pdfrwt beam="1">  1        1 0.20055561E+00 0.26097083E+04</pdfrwt>
<pdfrwt beam="2">  1       -1 0.20093816E+00 0.26097083E+04</pdfrwt>
<totfact> 0.11733564E+00</totfact>
</mgrwt>
</event>
<event>
 6    1  0.9906445E-006  0.2160549E+04  0.7818608E-02  0.8535030E-01
          2   -1    0    0  501    0  0.00000000000E+00  0.00000000000E+00  0.15970814479E+04  0.15970814479E+04  0.00000000000E+00 0.  1.
         -2   -1    0    0    0  501 -0.00000000000E+00 -0.00000000000E+00 -0.73070383223E+03  0.73070383223E+03  0.00000000000E+00 0. -1.
         23    2    1    2    0    0  0.28467735627E+03 -0.82124058396E+03  0.11215500481E+04  0.14219209061E+04  0.92234803978E+02 0.  0.
         13    1    3    3    0    0  0.18558916579E+01 -0.89861656963E+02  0.11217719253E+03  0.14374381465E+03  0.00000000000E+00 0.  1.
        -13    1    3    3    0    0  0.28282146462E+03 -0.73137892700E+03  0.10093728555E+04  0.12781770915E+04  0.00000000000E+00 0. -1.
         22    1    1    2    0    0 -0.28467735627E+03  0.82124058396E+03 -0.25517243236E+03  0.90586437404E+03  0.00000000000E+00 0. -1.
<mgrwt>
<rscale>  0 0.21605495E+04</rscale>
<asrwt>0</asrwt>
<pdfrwt beam="1">  1        2 0.24570484E+00 0.21605495E+04</pdfrwt>
<pdfrwt beam="2">  1       -2 0.11241598E+00 0.21605495E+04</pdfrwt>
<totfact> 0.63983750E+00</totfact>
</mgrwt>
</event>
<event>
 6    1  0.9906445E-006  0.1449637E+04  0.7818608E-02  0.8918652E-01
          1   -1    0    0  501    0  0.00000000000E+00  0.00000000000E+00  0.12640326730E+04  0.12640326730E+04  0.00000000000E+00 0. -1.
         -1   -1    0    0    0  501 -0.00000000000E+00 -0.00000000000E+00 -0.41562370772E+03  0.41562370772E+03  0.00000000000E+00 0.  1.
         23    2    1    2    0    0 -0.42065700243E+03 -0.11694061256E+03  0.10917395950E+04  0.11798191912E+04  0.97213990958E+02 0.  0.
         13    1    3    3    0    0 -0.19533834818E+03 -0.49973122360E+02  0.37866550162E+03  0.42900110180E+03  0.00000000000E+00 0. -1.
        -13    1    3    3    0    0 -0.22531865425E+03 -0.66967490199E+02  0.71307409343E+03  0.75081808943E+03  0.00000000000E+00 0.  1.
         22    1    1    2    0    0  0.42065700243E+03  0.11694061256E+03 -0.24333062981E+03  0.49983718945E+03  0.00000000000E+00 0.  1.
<mgrwt>
<rscale>  0 0.14496371E+04</rscale>
<asrwt>0</asrwt>
<pdfrwt beam="1">  1        1 0.19446656E+00 0.14496371E+04</pdfrwt>
<pdfrwt beam="2">  1       -1 0.63942110E-01 0.14496371E+04</pdfrwt>
<totfact> 0.23127427E+01</totfact>
</mgrwt>
</event>
<event>
 6    1  0.9906445E-006  0.2519108E+04  0.7818608E-02  0.8396210E-01
         -2   -1    0    0    0  501 -0.00000000000E+00  0.00000000000E+00  0.41388647653E+03  0.41388647653E+03  0.00000000000E+00 0.  1.
          2   -1    0    0  501    0  0.00000000000E+00 -0.00000000000E+00 -0.38331202313E+04  0.38331202313E+04  0.00000000000E+00 0. -1.
         23    2    1    2    0    0 -0.32131895407E+03 -0.22285104048E+03 -0.37275157650E+04  0.37490646889E+04  0.90574868341E+02 0.  0.
         13    1    3    3    0    0 -0.24159050387E+03 -0.14179265522E+03 -0.29515624579E+04  0.29648258079E+04  0.00000000000E+00 0.  1.
        -13    1    3    3    0    0 -0.79728450191E+02 -0.81058385258E+02 -0.77595330710E+03  0.78423888095E+03  0.00000000000E+00 0. -1.
         22    1    1    2    0    0  0.32131895407E+03  0.22285104048E+03  0.30828201017E+03  0.49794201899E+03  0.00000000000E+00 0.  1.
<mgrwt>
<rscale>  0 0.25191083E+04</rscale>
<asrwt>0</asrwt>
<pdfrwt beam="1">  1        2 0.58971081E+00 0.25191083E+04</pdfrwt>
<pdfrwt beam="2">  1       -2 0.63674842E-01 0.25191083E+04</pdfrwt>
<totfact> 0.94371795E-01</totfact>
</mgrwt>
</event>
<event>
 6    1  0.9906445E-006  0.1645690E+04  0.7818608E-02  0.8792961E-01
          1   -1    0    0  501    0  0.00000000000E+00  0.00000000000E+00  0.22101293837E+04  0.22101293837E+04  0.00000000000E+00 0. -1.
         -1   -1    0    0    0  501 -0.00000000000E+00 -0.00000000000E+00 -0.30635016376E+03  0.30635016376E+03  0.00000000000E+00 0.  1.
         23    2    1    2    0    0  0.32085292202E+03  0.21764998327E+03 -0.15128654247E+03  0.42516096805E+03  0.86925934214E+02 0.  0.
         11    1    3    3    0    0  0.22457435472E+03  0.13811996892E+03 -0.14318252871E+03  0.30002000456E+03  0.00000000000E+00 0. -1.
        -11    1    3    3    0    0  0.96278567302E+02  0.79530014353E+02 -0.81040137604E+01  0.12514096349E+03  0.00000000000E+00 0.  1.
         22    1    1    2    0    0 -0.32085292202E+03 -0.21764998327E+03  0.20550657624E+04  0.20913185794E+04  0.00000000000E+00 0. -1.
<mgrwt>
<rscale>  0 0.16456895E+04</rscale>
<asrwt>0</asrwt>
<pdfrwt beam="1">  1        1 0.34001990E+00 0.16456895E+04</pdfrwt>
<pdfrwt beam="2">  1       -1 0.47130796E-01 0.16456895E+04</pdfrwt>
<totfact> 0.92101345E+00</totfact>
</mgrwt>
</event>
<event>
 6    1  0.9906445E-006  0.1819863E+04  0.7818608E-02  0.8695807E-01
          1   -1    0    0  501    0  0.00000000000E+00  0.00000000000E+00  0.90254061975E+03  0.90254061975E+03  0.00000000000E+00 0. -1.
         -1   -1    0    0    0  501 -0.00000000000E+00 -0.00000000000E+00 -0.91738256518E+03  0.91738256518E+03  0.00000000000E+00 0.  1.
         23    2    1    2    0    0  0.42134165177E+03  0.78537027697E+03 -0.17809934903E+03  0.91383917156E+03  0.95117789553E+02 0.  0.
         11    1    3    3    0    0  0.10488305246E+03  0.12372374922E+03 -0.18558346148E+02  0.16325572893E+03  0.00000000000E+00 0. -1.
        -11    1    3    3    0    0  0.31645859931E+03  0.66164652775E+03 -0.15954100288E+03  0.75058344263E+03  0.00000000000E+00 0.  1.
         22    1    1    2    0    0 -0.42134165177E+03 -0.78537027697E+03  0.16325740360E+03  0.90608401338E+03  0.00000000000E+00 0. -1.
<mgrwt>
<rscale>  0 0.18198627E+04</rscale>
<asrwt>0</asrwt>
<pdfrwt beam="1">  1        1 0.13885240E+00 0.18198627E+04</pdfrwt>
<pdfrwt beam="2">  1       -1 0.14113578E+00 0.18198627E+04</pdfrwt>
<totfact> 0.70014322E+00</totfact>
</mgrwt>
</event>
<event>
 6    1  0.9906445E-006  0.2846481E+04  0.7818608E-02  0.8288981E-01
          2   -1    0    0  501    0  0.00000000000E+00  0.00000000000E+00  0.18699344026E+04  0.18699344026E+04  0.00000000000E+00 0. -1.
         -2   -1    0    0    0  501 -0.00000000000E+00 -0.00000000000E+00 -0.10832536893E+04  0.10832536893E+04  0.00000000000E+00 0.  1.
         23    2    1    2    0    0  0.15553617130E+03  0.76097584026E+03 -0.84179608987E+03  0.11489673658E+04  0.90717257045E+02 0.  0.
         11    1    3    3    0    0  0.40283733520E+02  0.27804782595E+03 -0.36502577798E+03  0.46062695458E+03  0.00000000000E+00 0.  1.
        -11    1    3    3    0    0  0.11525243778E+03  0.48292801431E+03 -0.47677031190E+03  0.68834041122E+03  0.00000000000E+00 0. -1.
         22    1    1    2    0    0 -0.15553617130E+03 -0.76097584026E+03  0.16284768032E+04  0.18042207261E+04  0.00000000000E+00 0. -1.
<mgrwt>
<rscale>  0 0.28464809E+04</rscale>
<asrwt>0</asrwt>
<pdfrwt beam="1">  1        2 0.28768222E+00 0.28464809E+04</pdfrwt>
<pdfrwt beam="2">  1       -2 0.16665441E+00 0.28464809E+04</pdfrwt>
<totfact> 0.15408154E+00</totfact>
</mgrwt>
</event>
<event>
 6    1  0.9906445E-006  0.4729307E+04  0.7818608E-02  0.7871677E-01
          2   -1    0    0  501    0  0.00000000000E+00  0.00000000000E+00  0.24731004080E+04  0.24731004080E+04  0.00000000000E+00 0.  1.
         -2   -1    0    0    0  501 -0.00000000000E+00 -0.00000000000E+00 -0.22609623895E+04  0.22609623895E+04  0.00000000000E+00 0. -1.
         23    2    1    2    0    0 -0.76963236292E+03 -0.19406059130E+04 -0.10039640464E+04  0.23180351661E+04  0.84011554119E+02 0.  0.
         13    1    3    3    0    0 -0.60006005966E+03 -0.15338026573E+04 -0.82866767876E+03  0.18437225356E+04  0.00000000000E+00 0. -1.
        -13    1    3    3    0    0 -0.16957230326E+03 -0.40680325571E+03 -0.17529636768E+03  0.47431263046E+03  0.00000000000E+00 0.  1.
         22    1    1    2    0    0  0.76963236292E+03  0.19406059130E+04  0.12161020649E+04  0.24160276314E+04  0.00000000000E+00 0.  1.
<mgrwt>
<rscale>  0 0.47293074E+04</rscale>
<asrwt>0</asrwt>
<pdfrwt beam="1">  1        2 0.38047699E+00 0.47293074E+04</pdfrwt>
<pdfrwt beam="2">  1       -2 0.34784037E+00 0.47293074E+04</pdfrwt>
<totfact> 0.43088300E-02</totfact>
</mgrwt>
</event>
<event>
 6    1  0.9906445E-006  0.6795882E+03  0.7818608E-02  0.9752790E-01
          1   -1    0    0  501    0  0.00000000000E+00  0.00000000000E+00  0.29614210315E+03  0.29614210315E+03  0.00000000000E+00 0. -1.
         -1   -1    0    0    0  501 -0.00000000000E+00 -0.00000000000E+00 -0.38988051299E+03  0.38988051299E+03  0.00000000000E+00 0.  1.
         23    2    1    2    0    0  0.29636964547E+03 -0.86625840521E+02  0.79807083108E+02  0.33182346153E+03  0.91644072932E+02 0.  0.
         13    1    3    3    0    0  0.91494449595E+02  0.91107243448E+01  0.47169803569E+02  0.10334035985E+03  0.00000000000E+00 0. -1.
        -13    1    3    3    0    0  0.20487519588E+03 -0.95736564866E+02  0.32637279538E+02  0.22848310168E+03  0.00000000000E+00 0.  1.
         22    1    1    2    0    0 -0.29636964547E+03  0.86625840521E+02 -0.17354549295E+03  0.35419915461E+03  0.00000000000E+00 0.  1.
<mgrwt>
<rscale>  0 0.67958821E+03</rscale>
<asrwt>0</asrwt>
<pdfrwt beam="1">  1        1 0.45560324E-01 0.67958821E+03</pdfrwt>
<pdfrwt beam="2">  1       -1 0.59981617E-01 0.67958821E+03</pdfrwt>
<totfact> 0.25492017E+02</totfact>
</mgrwt>
</event>
<event>
 6    1  0.9906445E-006  0.1294185E+04  0.7818608E-02  0.9034189E-01
         -1   -1    0    0    0  501 -0.00000000000E+00  0.00000000000E+00  0.49464248618E+03  0.49464248618E+03  0.00000000000E+00 0.  1.
          1   -1    0    0  501    0  0.00000000000E+00 -0.00000000000E+00 -0.84652816357E+03  0.84652816357E+03  0.00000000000E+00 0. -1.
         23    2    1    2    0    0 -0.39370440949E+03 -0.37467495149E+03  0.18113475077E+03  0.57992479054E+03  0.90102627138E+02 0.  0.
         11    1    3    3    0    0 -0.33845676413E+03 -0.27168743463E+03  0.14032243118E+03  0.45613312532E+03  0.00000000000E+00 0. -1.
        -11    1    3    3    0    0 -0.55247645355E+02 -0.10298751686E+03  0.40812319591E+02  0.12379166521E+03  0.00000000000E+00 0.  1.
         22    1    1    2    0    0  0.39370440949E+03  0.37467495149E+03 -0.53302042817E+03  0.76124585921E+03  0.00000000000E+00 0. -1.
<mgrwt>
<rscale>  0 0.12941851E+04</rscale>
<asrwt>0</asrwt>
<pdfrwt beam="1">  1        1 0.13023510E+00 0.12941851E+04</pdfrwt>
<pdfrwt beam="2">  1       -1 0.76098845E-01 0.12941851E+04</pdfrwt>
<totfact> 0.34382326E+01</totfact>
</mgrwt>
</event>
<event>
 6    1  0.9906445E-006  0.6369768E+03  0.7818608E-02  0.9831528E-01
          1   -1    0    0  501    0  0.00000000000E+00  0.00000000000E+00  0.20835515934E+03  0.20835515934E+03  0.00000000000E+00 0. -1.
         -1   -1    0    0    0  501 -0.00000000000E+00 -0.00000000000E+00 -0.48683635591E+03  0.48683635591E+03  0.00000000000E+00 0.  1.
         23    2    1    2    0    0 -0.23494249603E+03  0.63971469592E+01  0.81821548306E+02  0.26500903316E+03  0.91083049789E+02 0.  0.
         11    1    3    3    0    0 -0.18405690079E+03 -0.32992749269E+02  0.52008706173E+02  0.19408856161E+03  0.00000000000E+00 0.  1.
        -11    1    3    3    0    0 -0.50885595242E+02  0.39389896228E+02  0.29812842133E+02  0.70920471545E+02  0.00000000000E+00 0. -1.
         22    1    1    2    0    0  0.23494249603E+03 -0.63971469592E+01 -0.36030274488E+03  0.43018248209E+03  0.00000000000E+00 0.  1.
<mgrwt>
<rscale>  0 0.63697682E+03</rscale>
<asrwt>0</asrwt>
<pdfrwt beam="1">  1        1 0.32054640E-01 0.63697682E+03</pdfrwt>
<pdfrwt beam="2">  1       -1 0.74897900E-01 0.63697682E+03</pdfrwt>
<totfact> 0.25671821E+02</totfact>
</mgrwt>
</event>
<event>
 6    1  0.9906445E-006  0.1400928E+04  0.7818608E-02  0.8953147E-01
          2   -1    0    0  501    0  0.00000000000E+00  0.00000000000E+00  0.26870565120E+04  0.26870565120E+04  0.00000000000E+00 0. -1.
         -2   -1    0    0    0  501 -0.00000000000E+00 -0.00000000000E+00 -0.18259745851E+03  0.18259745851E+03  0.00000000000E+00 0.  1.
         23    2    1    2    0    0 -0.40419883405E+03 -0.69957505571E+02  0.10172131607E+03  0.43215127618E+03  0.90203931867E+02 0.  0.
         13    1    3    3    0    0 -0.15495562083E+03 -0.53219884063E+01 -0.68000995984E+00  0.15504847758E+03  0.00000000000E+00 0.  1.
        -13    1    3    3    0    0 -0.24924321322E+03 -0.64635517164E+02  0.10240132603E+03  0.27710279859E+03  0.00000000000E+00 0. -1.
         22    1    1    2    0    0  0.40419883405E+03  0.69957505571E+02  0.24027377375E+04  0.24375026944E+04  0.00000000000E+00 0. -1.
<mgrwt>
<rscale>  0 0.14009278E+04</rscale>
<asrwt>0</asrwt>
<pdfrwt beam="1">  1        2 0.41339328E+00 0.14009278E+04</pdfrwt>
<pdfrwt beam="2">  1       -2 0.28091919E-01 0.14009278E+04</pdfrwt>
<totfact> 0.30647323E+01</totfact>
</mgrwt>
</event>
<event>
 6    1  0.9906445E-006  0.6926214E+03  0.7818608E-02  0.9729934E-01
         -2   -1    0    0    0  501 -0.00000000000E+00  0.00000000000E+00  0.37875623129E+03  0.37875623129E+03  0.00000000000E+00 0.  1.
          2   -1    0    0  501    0  0.00000000000E+00 -0.00000000000E+00 -0.31664458553E+03  0.31664458553E+03  0.00000000000E+00 0. -1.
         23    2    1    2    0    0 -0.13256104891E+02  0.23094102209E+03 -0.21850543958E+03  0.33173142220E+03  0.93763688861E+02 0.  0.
         11    1    3    3    0    0 -0.45575127906E+02  0.64456728777E+02 -0.84025558283E+02  0.11529118185E+03  0.00000000000E+00 0.  1.
        -11    1    3    3    0    0  0.32319023015E+02  0.16648429331E+03 -0.13447988130E+03  0.21644024035E+03  0.00000000000E+00 0. -1.
         22    1    1    2    0    0  0.13256104891E+02 -0.23094102209E+03  0.28061708534E+03  0.36366939462E+03  0.00000000000E+00 0.  1.
<mgrwt>
<rscale>  0 0.69262143E+03</rscale>
<asrwt>0</asrwt>
<pdfrwt beam="1">  1        2 0.48714552E-01 0.69262143E+03</pdfrwt>
<pdfrwt beam="2">  1       -2 0.58270190E-01 0.69262143E+03</pdfrwt>
<totfact> 0.28754019E+02</totfact>
</mgrwt>
</event>
<event>
 6    1  0.9906445E-006  0.4317003E+03  0.7818608E-02  0.1033324E+00
          1   -1    0    0  501    0  0.00000000000E+00  0.00000000000E+00  0.91443962587E+03  0.91443962587E+03  0.00000000000E+00 0. -1.
         -1   -1    0    0    0  501 -0.00000000000E+00 -0.00000000000E+00 -0.50950640354E+02  0.50950640354E+02  0.00000000000E+00 0.  1.
         23    2    1    2    0    0 -0.19166432290E+02 -0.18236236620E+03  0.24030105956E+03  0.31578532798E+03  0.91391407749E+02 0.  0.
         13    1    3    3    0    0 -0.48602929529E+02 -0.79145137454E+02  0.78430961419E+02  0.12156320681E+03  0.00000000000E+00 0. -1.
        -13    1    3    3    0    0  0.29436497239E+02 -0.10321722874E+03  0.16187009814E+03  0.19422212117E+03  0.00000000000E+00 0.  1.
         22    1    1    2    0    0  0.19166432290E+02  0.18236236620E+03  0.62318792596E+03  0.64960493825E+03  0.00000000000E+00 0. -1.
<mgrwt>
<rscale>  0 0.43170029E+03</rscale>
<asrwt>0</asrwt>
<pdfrwt beam="1">  1        1 0.14068301E+00 0.43170029E+03</pdfrwt>
<pdfrwt beam="2">  1       -1 0.78385607E-02 0.43170029E+03</pdfrwt>
<totfact> 0.16534290E+03</totfact>
</mgrwt>
</event>
<event>
 6    1  0.9906445E-006  0.3430538E+04  0.7818608E-02  0.8130452E-01
          2   -1    0    0  501    0  0.00000000000E+00  0.00000000000E+00  0.16502734337E+04  0.16502734337E+04  0.00000000000E+00 0. -1.
         -2   -1    0    0    0  501 -0.00000000000E+00 -0.00000000000E+00 -0.17828244793E+04  0.17828244793E+04  0.00000000000E+00 0.  1.
         23    2    1    2    0    0 -0.40106705958E+02 -0.11750075846E+04 -0.13145253965E+04  0.17659702220E+04  0.91773825248E+02 0.  0.
         13    1    3    3    0    0 -0.35587779114E+02 -0.20848669536E+03 -0.20585979268E+03  0.29514648296E+03  0.00000000000E+00 0. -1.
        -13    1    3    3    0    0 -0.45189268444E+01 -0.96652088928E+03 -0.11086656038E+04  0.14708237390E+04  0.00000000000E+00 0.  1.
         22    1    1    2    0    0  0.40106705958E+02  0.11750075846E+04  0.11819743510E+04  0.16671276910E+04  0.00000000000E+00 0. -1.
<mgrwt>
<rscale>  0 0.34305381E+04</rscale>
<asrwt>0</asrwt>
<pdfrwt beam="1">  1        2 0.25388822E+00 0.34305381E+04</pdfrwt>
<pdfrwt beam="2">  1       -2 0.27428069E+00 0.34305381E+04</pdfrwt>
<totfact> 0.39421329E-01</totfact>
</mgrwt>
</event>
<event>
 6    1  0.9906445E-006  0.2435713E+04  0.7818608E-02  0.8426253E-01
          3   -1    0    0  501    0  0.00000000000E+00  0.00000000000E+00  0.62723892925E+03  0.62723892925E+03  0.00000000000E+00 0. -1.
         -3   -1    0    0    0  501 -0.00000000000E+00 -0.00000000000E+00 -0.23646090880E+04  0.23646090880E+04  0.00000000000E+00 0.  1.
         23    2    1    2    0    0  0.83251912680E+03 -0.33074457396E+03  0.14013358891E+03  0.91158351673E+03  0.94164831730E+02 0.  0.
         13    1    3    3    0    0  0.40151786869E+03 -0.15341303812E+03  0.20000921316E+02  0.43029315123E+03  0.00000000000E+00 0. -1.
        -13    1    3    3    0    0  0.43100125812E+03 -0.17733153585E+03  0.12013266760E+03  0.48129036550E+03  0.00000000000E+00 0.  1.
         22    1    1    2    0    0 -0.83251912680E+03  0.33074457396E+03 -0.18775037477E+04  0.20802645006E+04  0.00000000000E+00 0.  1.
<mgrwt>
<rscale>  0 0.24357133E+04</rscale>
<asrwt>0</asrwt>
<pdfrwt beam="1">  1        3 0.96498298E-01 0.24357133E+04</pdfrwt>
<pdfrwt beam="2">  1       -3 0.36378601E+00 0.24357133E+04</pdfrwt>
<totfact> 0.37285381E-02</totfact>
</mgrwt>
</event>
<event>
 6    1  0.9906445E-006  0.3144242E+04  0.7818608E-02  0.8203700E-01
          2   -1    0    0  501    0  0.00000000000E+00  0.00000000000E+00  0.24406720719E+04  0.24406720719E+04  0.00000000000E+00 0. -1.
         -2   -1    0    0    0  501 -0.00000000000E+00 -0.00000000000E+00 -0.10126575777E+04  0.10126575777E+04  0.00000000000E+00 0.  1.
         23    2    1    2    0    0 -0.26008943899E+03 -0.10993407370E+03  0.24116935589E+04  0.24299252725E+04  0.92406660324E+02 0.  0.
         11    1    3    3    0    0 -0.87234167514E+02  0.52405030436E+01  0.59207647847E+03  0.59849128582E+03  0.00000000000E+00 0.  1.
        -11    1    3    3    0    0 -0.17285527148E+03 -0.11517457674E+03  0.18196170804E+04  0.18314339866E+04  0.00000000000E+00 0. -1.
         22    1    1    2    0    0  0.26008943899E+03  0.10993407370E+03 -0.98367906470E+03  0.10234043772E+04  0.00000000000E+00 0.  1.
<mgrwt>
<rscale>  0 0.31442424E+04</rscale>
<asrwt>0</asrwt>
<pdfrwt beam="1">  1        2 0.37548801E+00 0.31442424E+04</pdfrwt>
<pdfrwt beam="2">  1       -2 0.15579347E+00 0.31442424E+04</pdfrwt>
<totfact> 0.86275536E-01</totfact>
</mgrwt>
</event>
<event>
 6    1  0.9906445E-006  0.1727788E+04  0.7818608E-02  0.8745673E-01
          1   -1    0    0  501    0  0.00000000000E+00  0.00000000000E+00  0.26156512764E+04  0.26156512764E+04  0.00000000000E+00 0. -1.
         -1   -1    0    0    0  501 -0.00000000000E+00 -0.00000000000E+00 -0.28532590108E+03  0.28532590108E+03  0.00000000000E+00 0.  1.
         23    2    1    2    0    0  0.34185361385E+03 -0.48721572451E+03  0.12324709999E+03  0.61505557581E+03  0.94130006723E+02 0.  0.
         11    1    3    3    0    0  0.21800732033E+03 -0.38219061943E+03  0.97062022683E+02  0.45057507426E+03  0.00000000000E+00 0. -1.
        -11    1    3    3    0    0  0.12384629353E+03 -0.10502510508E+03  0.26185077304E+02  0.16448050156E+03  0.00000000000E+00 0.  1.
         22    1    1    2    0    0 -0.34185361385E+03  0.48721572451E+03  0.22070782754E+04  0.22859216017E+04  0.00000000000E+00 0. -1.
<mgrwt>
<rscale>  0 0.17277882E+04</rscale>
<asrwt>0</asrwt>
<pdfrwt beam="1">  1        1 0.40240787E+00 0.17277882E+04</pdfrwt>
<pdfrwt beam="2">  1       -1 0.43896294E-01 0.17277882E+04</pdfrwt>
<totfact> 0.54894082E+00</totfact>
</mgrwt>
</event>
<event>
 6    1  0.9906445E-006  0.1091229E+04  0.7818608E-02  0.9213783E-01
         -1   -1    0    0    0  501 -0.00000000000E+00  0.00000000000E+00  0.10944150590E+04  0.10944150590E+04  0.00000000000E+00 0.  1.
          1   -1    0    0  501    0  0.00000000000E+00 -0.00000000000E+00 -0.27201293284E+03  0.27201293284E+03  0.00000000000E+00 0. -1.
         23    2    1    2    0    0 -0.11278893523E+03 -0.37054346389E+03  0.88825469377E+03  0.97354077749E+03  0.93602574215E+02 0.  0.
         13    1    3    3    0    0 -0.11297654404E+03 -0.21752864087E+03  0.56643950035E+03  0.61720022412E+03  0.00000000000E+00 0. -1.
        -13    1    3    3    0    0  0.18760881230E+00 -0.15301482302E+03  0.32181519342E+03  0.35634055337E+03  0.00000000000E+00 0.  1.
         22    1    1    2    0    0  0.11278893523E+03  0.37054346389E+03 -0.65852567597E+02  0.39288721435E+03  0.00000000000E+00 0. -1.
<mgrwt>
<rscale>  0 0.10912288E+04</rscale>
<asrwt>0</asrwt>
<pdfrwt beam="1">  1        1 0.41848144E-01 0.10912288E+04</pdfrwt>
<pdfrwt beam="2">  1       -1 0.16837155E+00 0.10912288E+04</pdfrwt>
<totfact> 0.25132625E+01</totfact>
</mgrwt>
</event>
<event>
 6    1  0.9906445E-006  0.1862962E+04  0.7818608E-02  0.8673516E-01
          1   -1    0    0  501    0  0.00000000000E+00  0.00000000000E+00  0.52071743450E+03  0.52071743450E+03  0.00000000000E+00 0. -1.
         -1   -1    0    0    0  501 -0.00000000000E+00 -0.00000000000E+00 -0.16662714138E+04  0.16662714138E+04  0.00000000000E+00 0.  1.
         23    2    1    2    0    0  0.45514379303E+03 -0.73380105108E+03 -0.97738568323E+03  0.13072727403E+04  0.89774098664E+02 0.  0.
         11    1    3    3    0    0  0.24933961668E+03 -0.48415587852E+03 -0.60903714230E+03  0.81700881259E+03  0.00000000000E+00 0.  1.
        -11    1    3    3    0    0  0.20580417635E+03 -0.24964517257E+03 -0.36834854093E+03  0.49026392768E+03  0.00000000000E+00 0. -1.
         22    1    1    2    0    0 -0.45514379303E+03  0.73380105108E+03 -0.16816829607E+03  0.87971610802E+03  0.00000000000E+00 0. -1.
<mgrwt>
<rscale>  0 0.18629617E+04</rscale>
<asrwt>0</asrwt>
<pdfrwt beam="1">  1        1 0.80110373E-01 0.18629617E+04</pdfrwt>
<pdfrwt beam="2">  1       -1 0.25634945E+00 0.18629617E+04</pdfrwt>
<totfact> 0.24920942E+00</totfact>
</mgrwt>
</event>
<event>
 6    1  0.9906445E-006  0.2827084E+04  0.7818608E-02  0.8294909E-01
         -1   -1    0    0    0  501 -0.00000000000E+00  0.00000000000E+00  0.88150959889E+03  0.88150959889E+03  0.00000000000E+00 0.  1.
          1   -1    0    0  501    0  0.00000000000E+00 -0.00000000000E+00 -0.22666808595E+04  0.22666808595E+04  0.00000000000E+00 0. -1.
         23    2    1    2    0    0  0.12280789820E+04  0.46048086169E+03 -0.11076241910E+03  0.13194371931E+04  0.91790973391E+02 0.  0.
         13    1    3    3    0    0  0.73666965350E+03  0.24941818468E+03 -0.27987305936E+02  0.77825117959E+03  0.00000000000E+00 0. -1.
        -13    1    3    3    0    0  0.49140932855E+03  0.21106267701E+03 -0.82775113160E+02  0.54118601347E+03  0.00000000000E+00 0.  1.
         22    1    1    2    0    0 -0.12280789820E+04 -0.46048086169E+03 -0.12744088415E+04  0.18287532653E+04  0.00000000000E+00 0. -1.
<mgrwt>
<rscale>  0 0.28270840E+04</rscale>
<asrwt>0</asrwt>
<pdfrwt beam="1">  1        1 0.34872013E+00 0.28270840E+04</pdfrwt>
<pdfrwt beam="2">  1       -1 0.13561686E+00 0.28270840E+04</pdfrwt>
<totfact> 0.77114773E-01</totfact>
</mgrwt>
</event>
<event>
 6    1  0.9906445E-006  0.1352522E+04  0.7818608E-02  0.8988921E-01
         -1   -1    0    0    0  501 -0.00000000000E+00  0.00000000000E+00  0.19254291844E+03  0.19254291844E+03  0.00000000000E+00 0. -1.
          1   -1    0    0  501    0  0.00000000000E+00 -0.00000000000E+00 -0.23752060608E+04  0.23752060608E+04  0.00000000000E+00 0.  1.
         23    2    1    2    0    0  0.26359960319E+03  0.58753648026E+03 -0.72334239081E+03  0.97266248555E+03  0.90356128845E+02 0.  0.
         11    1    3    3    0    0  0.26048528615E+03  0.56797645860E+03 -0.71863249634E+03  0.95230378904E+03  0.00000000000E+00 0. -1.
        -11    1    3    3    0    0  0.31143170430E+01  0.19560021651E+02 -0.47098944727E+01  0.20358696509E+02  0.00000000000E+00 0.  1.
         22    1    1    2    0    0 -0.26359960319E+03 -0.58753648026E+03 -0.14593207516E+04  0.15950864937E+04  0.00000000000E+00 0.  1.
<mgrwt>
<rscale>  0 0.13525222E+04</rscale>
<asrwt>0</asrwt>
<pdfrwt beam="1">  1        1 0.36541633E+00 0.13525222E+04</pdfrwt>
<pdfrwt beam="2">  1       -1 0.29621987E-01 0.13525222E+04</pdfrwt>
<totfact> 0.16925274E+01</totfact>
</mgrwt>
</event>
<event>
 6    1  0.9906445E-006  0.1491234E+04  0.7818608E-02  0.8890303E-01
          1   -1    0    0  501    0  0.00000000000E+00  0.00000000000E+00  0.17647670831E+04  0.17647670831E+04  0.00000000000E+00 0. -1.
         -1   -1    0    0    0  501 -0.00000000000E+00 -0.00000000000E+00 -0.31502451864E+03  0.31502451864E+03  0.00000000000E+00 0.  1.
         23    2    1    2    0    0 -0.57846841914E+03 -0.30175576679E+03  0.23327580781E+03  0.69940266207E+03  0.95206231253E+02 0.  0.
         11    1    3    3    0    0 -0.11312923228E+03 -0.66418839768E+02  0.82092669079E+01  0.13144229736E+03  0.00000000000E+00 0. -1.
        -11    1    3    3    0    0 -0.46533918686E+03 -0.23533692702E+03  0.22506654091E+03  0.56796036471E+03  0.00000000000E+00 0.  1.
         22    1    1    2    0    0  0.57846841914E+03  0.30175576679E+03  0.12164667566E+04  0.13803889396E+04  0.00000000000E+00 0. -1.
<mgrwt>
<rscale>  0 0.14912343E+04</rscale>
<asrwt>0</asrwt>
<pdfrwt beam="1">  1        1 0.27150262E+00 0.14912343E+04</pdfrwt>
<pdfrwt beam="2">  1       -1 0.48465312E-01 0.14912343E+04</pdfrwt>
<totfact> 0.17752632E+01</totfact>
</mgrwt>
</event>
<event>
 6    1  0.9906445E-006  0.3131623E+04  0.7818608E-02  0.8207112E-01
         -2   -1    0    0    0  501 -0.00000000000E+00  0.00000000000E+00  0.17504931633E+04  0.17504931633E+04  0.00000000000E+00 0.  1.
          2   -1    0    0  501    0  0.00000000000E+00 -0.00000000000E+00 -0.14006146844E+04  0.14006146844E+04  0.00000000000E+00 0. -1.
         23    2    1    2    0    0 -0.48951200432E+03 -0.13588035967E+04  0.78029399709E+03  0.16440488790E+04  0.89826377261E+02 0.  0.
         11    1    3    3    0    0 -0.43012409866E+03 -0.11792899826E+04  0.71109821378E+03  0.14427031133E+04  0.00000000000E+00 0. -1.
        -11    1    3    3    0    0 -0.59387905669E+02 -0.17951361405E+03  0.69195783311E+02  0.20134576578E+03  0.00000000000E+00 0.  1.
         22    1    1    2    0    0  0.48951200432E+03  0.13588035967E+04 -0.43041551827E+03  0.15070589687E+04  0.00000000000E+00 0. -1.
<mgrwt>
<rscale>  0 0.31316235E+04</rscale>
<asrwt>0</asrwt>
<pdfrwt beam="1">  1        2 0.21547918E+00 0.31316235E+04</pdfrwt>
<pdfrwt beam="2">  1       -2 0.26930664E+00 0.31316235E+04</pdfrwt>
<totfact> 0.59923395E-01</totfact>
</mgrwt>
</event>
<event>
 6    1  0.9906445E-006  0.1666252E+04  0.7818608E-02  0.8780850E-01
          1   -1    0    0  501    0  0.00000000000E+00  0.00000000000E+00  0.17037131461E+04  0.17037131461E+04  0.00000000000E+00 0. -1.
         -1   -1    0    0    0  501 -0.00000000000E+00 -0.00000000000E+00 -0.40740358315E+03  0.40740358315E+03  0.00000000000E+00 0.  1.
         23    2    1    2    0    0  0.99659757016E+02 -0.72666665231E+03  0.15561667058E+03  0.75496158861E+03  0.88170070692E+02 0.  0.
         11    1    3    3    0    0  0.94233868797E+02 -0.45096254061E+03  0.68481681603E+02  0.46576493618E+03  0.00000000000E+00 0. -1.
        -11    1    3    3    0    0  0.54258882188E+01 -0.27570411171E+03  0.87134988975E+02  0.28919665243E+03  0.00000000000E+00 0.  1.
         22    1    1    2    0    0 -0.99659757016E+02  0.72666665231E+03  0.11406928924E+04  0.13561551406E+04  0.00000000000E+00 0. -1.
<mgrwt>
<rscale>  0 0.16662519E+04</rscale>
<asrwt>0</asrwt>
<pdfrwt beam="1">  1        1 0.26210971E+00 0.16662519E+04</pdfrwt>
<pdfrwt beam="2">  1       -1 0.62677475E-01 0.16662519E+04</pdfrwt>
<totfact> 0.11674383E+01</totfact>
</mgrwt>
</event>
<event>
 6    1  0.9906445E-006  0.3837862E+04  0.7818608E-02  0.8038078E-01
         -1   -1    0    0    0  501 -0.00000000000E+00  0.00000000000E+00  0.14729636563E+04  0.14729636563E+04  0.00000000000E+00 0.  1.
          1   -1    0    0  501    0  0.00000000000E+00 -0.00000000000E+00 -0.24999229942E+04  0.24999229942E+04  0.00000000000E+00 0. -1.
         23    2    1    2    0    0 -0.69900895933E+03  0.12206921273E+04 -0.18632831467E+04  0.23363841886E+04  0.90355946107E+02 0.  0.
         11    1    3    3    0    0 -0.59237334108E+03  0.96287950811E+03 -0.15031120588E+04  0.18807947744E+04  0.00000000000E+00 0.  1.
        -11    1    3    3    0    0 -0.10663561825E+03  0.25781261915E+03 -0.36017108798E+03  0.45558941415E+03  0.00000000000E+00 0. -1.
         22    1    1    2    0    0  0.69900895933E+03 -0.12206921273E+04  0.83632380887E+03  0.16365024620E+04  0.00000000000E+00 0.  1.
<mgrwt>
<rscale>  0 0.38378618E+04</rscale>
<asrwt>0</asrwt>
<pdfrwt beam="1">  1        1 0.38460354E+00 0.38378618E+04</pdfrwt>
<pdfrwt beam="2">  1       -1 0.22660979E+00 0.38378618E+04</pdfrwt>
<totfact> 0.10683647E-01</totfact>
</mgrwt>
</event>
<event>
 6    1  0.9906445E-006  0.5091615E+04  0.7818608E-02  0.7814528E-01
          2   -1    0    0  501    0  0.00000000000E+00  0.00000000000E+00  0.24182180287E+04  0.24182180287E+04  0.00000000000E+00 0. -1.
         -2   -1    0    0    0  501 -0.00000000000E+00 -0.00000000000E+00 -0.26801290924E+04  0.26801290924E+04  0.00000000000E+00 0.  1.
         23    2    1    2    0    0 -0.14294270858E+04 -0.17340305388E+04  0.10650486001E+04  0.24885682699E+04  0.92302819409E+02 0.  0.
         11    1    3    3    0    0 -0.12128370862E+04 -0.14468960221E+04  0.86084680792E+03  0.20749793066E+04  0.00000000000E+00 0.  1.
        -11    1    3    3    0    0 -0.21658999964E+03 -0.28713451668E+03  0.20420179216E+03  0.41358896326E+03  0.00000000000E+00 0. -1.
         22    1    1    2    0    0  0.14294270858E+04  0.17340305388E+04 -0.13269596637E+04  0.26097788512E+04  0.00000000000E+00 0.  1.
<mgrwt>
<rscale>  0 0.50916153E+04</rscale>
<asrwt>0</asrwt>
<pdfrwt beam="1">  1        2 0.37203354E+00 0.50916153E+04</pdfrwt>
<pdfrwt beam="2">  1       -2 0.41232755E+00 0.50916153E+04</pdfrwt>
<totfact> 0.17300515E-02</totfact>
</mgrwt>
</event>
<event>
 6    1  0.9906445E-006  0.1350870E+04  0.7818608E-02  0.8990170E-01
         -1   -1    0    0    0  501 -0.00000000000E+00  0.00000000000E+00  0.75263339909E+03  0.75263339909E+03  0.00000000000E+00 0.  1.
          1   -1    0    0  501    0  0.00000000000E+00 -0.00000000000E+00 -0.60615452472E+03  0.60615452472E+03  0.00000000000E+00 0. -1.
         23    2    1    2    0    0  0.39511372546E+03 -0.53296105729E+03 -0.36652648967E+02  0.67052961512E+03  0.90023349434E+02 0.  0.
         13    1    3    3    0    0  0.17930053663E+03 -0.28957414133E+03  0.16199819508E+02  0.34097551220E+03  0.00000000000E+00 0.  1.
        -13    1    3    3    0    0  0.21581318882E+03 -0.24338691596E+03 -0.52852468475E+02  0.32955410293E+03  0.00000000000E+00 0. -1.
         22    1    1    2    0    0 -0.39511372546E+03  0.53296105729E+03  0.18313152334E+03  0.68825830869E+03  0.00000000000E+00 0. -1.
<mgrwt>
<rscale>  0 0.13508696E+04</rscale>
<asrwt>0</asrwt>
<pdfrwt beam="1">  1        1 0.93254543E-01 0.13508696E+04</pdfrwt>
<pdfrwt beam="2">  1       -1 0.11578975E+00 0.13508696E+04</pdfrwt>
<totfact> 0.22309818E+01</totfact>
</mgrwt>
</event>
<event>
 6    1  0.9906445E-006  0.1432003E+04  0.7818608E-02  0.8930974E-01
         -2   -1    0    0    0  501 -0.00000000000E+00  0.00000000000E+00  0.22478401457E+03  0.22478401457E+03  0.00000000000E+00 0.  1.
          2   -1    0    0  501    0  0.00000000000E+00 -0.00000000000E+00 -0.22806696783E+04  0.22806696783E+04  0.00000000000E+00 0. -1.
         23    2    1    2    0    0  0.65287182437E+03 -0.26898127927E+03 -0.85694611259E+03  0.11140340599E+04  0.90126018299E+02 0.  0.
         11    1    3    3    0    0  0.29024364752E+03 -0.15298294963E+03 -0.44801203560E+03  0.55530166742E+03  0.00000000000E+00 0. -1.
        -11    1    3    3    0    0  0.36262817684E+03 -0.11599832965E+03 -0.40893407699E+03  0.55873239251E+03  0.00000000000E+00 0.  1.
         22    1    1    2    0    0 -0.65287182437E+03  0.26898127927E+03 -0.11989395512E+04  0.13914196330E+04  0.00000000000E+00 0. -1.
<mgrwt>
<rscale>  0 0.14320029E+04</rscale>
<asrwt>0</asrwt>
<pdfrwt beam="1">  1        2 0.35087227E+00 0.14320029E+04</pdfrwt>
<pdfrwt beam="2">  1       -2 0.34582154E-01 0.14320029E+04</pdfrwt>
<totfact> 0.35457500E+01</totfact>
</mgrwt>
</event>
<event>
 6    1  0.9906445E-006  0.2225790E+04  0.7818608E-02  0.8507770E-01
         -1   -1    0    0    0  501 -0.00000000000E+00  0.00000000000E+00  0.83757811087E+03  0.83757811087E+03  0.00000000000E+00 0.  1.
          1   -1    0    0  501    0  0.00000000000E+00 -0.00000000000E+00 -0.14787097107E+04  0.14787097107E+04  0.00000000000E+00 0. -1.
         23    2    1    2    0    0  0.80571592719E+03  0.48360819323E+03  0.29294680585E+03  0.99131329056E+03  0.11759748761E+03 0.  0.
         13    1    3    3    0    0  0.48703897123E+03  0.26779495599E+03  0.11634558621E+03  0.56785332031E+03  0.00000000000E+00 0.  1.
        -13    1    3    3    0    0  0.31867695596E+03  0.21581323724E+03  0.17660121964E+03  0.42345997025E+03  0.00000000000E+00 0. -1.
         22    1    1    2    0    0 -0.80571592719E+03 -0.48360819323E+03 -0.93407840572E+03  0.13249745310E+04  0.00000000000E+00 0. -1.
<mgrwt>
<rscale>  0 0.22257896E+04</rscale>
<asrwt>0</asrwt>
<pdfrwt beam="1">  1        1 0.22749380E+00 0.22257896E+04</pdfrwt>
<pdfrwt beam="2">  1       -1 0.12885817E+00 0.22257896E+04</pdfrwt>
<totfact> 0.31928805E+00</totfact>
</mgrwt>
</event>
<event>
 6    1  0.9906445E-006  0.1026524E+04  0.7818608E-02  0.9279922E-01
          1   -1    0    0  501    0  0.00000000000E+00  0.00000000000E+00  0.26101243803E+04  0.26101243803E+04  0.00000000000E+00 0. -1.
         -1   -1    0    0    0  501 -0.00000000000E+00 -0.00000000000E+00 -0.10092933750E+03  0.10092933750E+03  0.00000000000E+00 0.  1.
         23    2    1    2    0    0 -0.34199537120E+03 -0.36530266489E+03  0.15127300302E+04  0.15959979380E+04  0.91926071813E+02 0.  0.
         11    1    3    3    0    0 -0.94223952142E+02 -0.14920796418E+03  0.44180904271E+03  0.47574825270E+03  0.00000000000E+00 0.  1.
        -11    1    3    3    0    0 -0.24777141906E+03 -0.21609470071E+03  0.10709209875E+04  0.11202496853E+04  0.00000000000E+00 0. -1.
         22    1    1    2    0    0  0.34199537120E+03  0.36530266489E+03  0.99646501252E+03  0.11150557798E+04  0.00000000000E+00 0.  1.
<mgrwt>
<rscale>  0 0.10265245E+04</rscale>
<asrwt>0</asrwt>
<pdfrwt beam="1">  1        1 0.40155755E+00 0.10265245E+04</pdfrwt>
<pdfrwt beam="2">  1       -1 0.15527592E-01 0.10265245E+04</pdfrwt>
<totfact> 0.35817086E+01</totfact>
</mgrwt>
</event>
<event>
 6    1  0.9906445E-006  0.7617982E+03  0.7818608E-02  0.9617021E-01
         -1   -1    0    0    0  501 -0.00000000000E+00  0.00000000000E+00  0.16480878787E+03  0.16480878787E+03  0.00000000000E+00 0.  1.
          1   -1    0    0  501    0  0.00000000000E+00 -0.00000000000E+00 -0.88031791402E+03  0.88031791402E+03  0.00000000000E+00 0. -1.
         23    2    1    2    0    0  0.28226939595E+03  0.24732315383E+03 -0.35002193493E+03  0.52127019362E+03  0.91446735931E+02 0.  0.
         13    1    3    3    0    0  0.17287651074E+03  0.15847121791E+03 -0.27566574683E+03  0.36192681421E+03  0.00000000000E+00 0. -1.
        -13    1    3    3    0    0  0.10939288521E+03  0.88851935920E+02 -0.74356188101E+02  0.15934337941E+03  0.00000000000E+00 0.  1.
         22    1    1    2    0    0 -0.28226939595E+03 -0.24732315383E+03 -0.36548719122E+03  0.52385650827E+03  0.00000000000E+00 0.  1.
<mgrwt>
<rscale>  0 0.76179821E+03</rscale>
<asrwt>0</asrwt>
<pdfrwt beam="1">  1        1 0.13543352E+00 0.76179821E+03</pdfrwt>
<pdfrwt beam="2">  1       -1 0.25355199E-01 0.76179821E+03</pdfrwt>
<totfact> 0.26096045E+02</totfact>
</mgrwt>
</event>
<event>
 6    1  0.9906445E-006  0.6772945E+03  0.7818608E-02  0.9756869E-01
          1   -1    0    0  501    0  0.00000000000E+00  0.00000000000E+00  0.81882326903E+03  0.81882326903E+03  0.00000000000E+00 0. -1.
         -1   -1    0    0    0  501 -0.00000000000E+00 -0.00000000000E+00 -0.14005701650E+03  0.14005701650E+03  0.00000000000E+00 0.  1.
         23    2    1    2    0    0 -0.20749904189E+03  0.25916017487E+03  0.34623019955E+03  0.48898660057E+03  0.94935219169E+02 0.  0.
         13    1    3    3    0    0 -0.16032415398E+03  0.22445720313E+03  0.32597572492E+03  0.42701878603E+03  0.00000000000E+00 0.  1.
        -13    1    3    3    0    0 -0.47174887911E+02  0.34702971742E+02  0.20254474629E+02  0.61967814546E+02  0.00000000000E+00 0. -1.
         22    1    1    2    0    0  0.20749904189E+03 -0.25916017487E+03  0.33253605299E+03  0.46989368495E+03  0.00000000000E+00 0.  1.
<mgrwt>
<rscale>  0 0.67729445E+03</rscale>
<asrwt>0</asrwt>
<pdfrwt beam="1">  1        1 0.12597281E+00 0.67729445E+03</pdfrwt>
<pdfrwt beam="2">  1       -1 0.21547234E-01 0.67729445E+03</pdfrwt>
<totfact> 0.38854098E+02</totfact>
</mgrwt>
</event>
<event>
 6    1  0.9906445E-006  0.2340780E+04  0.7818608E-02  0.8462014E-01
         -3   -1    0    0    0  501 -0.00000000000E+00  0.00000000000E+00  0.15395893554E+04  0.15395893554E+04  0.00000000000E+00 0.  1.
          3   -1    0    0  501    0  0.00000000000E+00 -0.00000000000E+00 -0.88972571584E+03  0.88972571584E+03  0.00000000000E+00 0. -1.
         23    2    1    2    0    0  0.98354870537E+03 -0.12039015767E+02  0.98036906269E+03  0.13916509500E+04  0.89754519968E+02 0.  0.
         11    1    3    3    0    0  0.86670711650E+03 -0.20811774625E+02  0.82240464755E+03  0.11949743763E+04  0.00000000000E+00 0.  1.
        -11    1    3    3    0    0  0.11684158887E+03  0.87727588580E+01  0.15796441514E+03  0.19667657369E+03  0.00000000000E+00 0. -1.
         22    1    1    2    0    0 -0.98354870537E+03  0.12039015767E+02 -0.33050542315E+03  0.10376641212E+04  0.00000000000E+00 0. -1.
<mgrwt>
<rscale>  0 0.23407796E+04</rscale>
<asrwt>0</asrwt>
<pdfrwt beam="1">  1        3 0.13688088E+00 0.23407796E+04</pdfrwt>
<pdfrwt beam="2">  1       -3 0.23685990E+00 0.23407796E+04</pdfrwt>
<totfact> 0.84077828E-02</totfact>
</mgrwt>
</event>
<event>
 6    1  0.9906445E-006  0.1654463E+04  0.7818608E-02  0.8787771E-01
          2   -1    0    0  501    0  0.00000000000E+00  0.00000000000E+00  0.44042126647E+04  0.44042126647E+04  0.00000000000E+00 0. -1.
         -2   -1    0    0    0  501 -0.00000000000E+00 -0.00000000000E+00 -0.15537670567E+03  0.15537670567E+03  0.00000000000E+00 0.  1.
         23    2    1    2    0    0  0.23675727246E+03  0.47100046902E+03  0.38787590744E+04  0.39154990441E+04  0.92007387020E+02 0.  0.
         11    1    3    3    0    0  0.14925495445E+03  0.38282836579E+03  0.29886886157E+04  0.30168019890E+04  0.00000000000E+00 0.  1.
        -11    1    3    3    0    0  0.87502318007E+02  0.88172103228E+02  0.89007045870E+03  0.89869705512E+03  0.00000000000E+00 0. -1.
         22    1    1    2    0    0 -0.23675727246E+03 -0.47100046902E+03  0.37007688466E+03  0.64409032630E+03  0.00000000000E+00 0.  1.
<mgrwt>
<rscale>  0 0.16544631E+04</rscale>
<asrwt>0</asrwt>
<pdfrwt beam="1">  1        2 0.67757108E+00 0.16544631E+04</pdfrwt>
<pdfrwt beam="2">  1       -2 0.23904112E-01 0.16544631E+04</pdfrwt>
<totfact> 0.23196056E+00</totfact>
</mgrwt>
</event>
<event>
 6    1  0.9906445E-006  0.3752151E+03  0.7818608E-02  0.1052717E+00
          1   -1    0    0  501    0  0.00000000000E+00  0.00000000000E+00  0.73653384942E+03  0.73653384942E+03  0.00000000000E+00 0. -1.
         -1   -1    0    0    0  501 -0.00000000000E+00 -0.00000000000E+00 -0.47786808021E+02  0.47786808021E+02  0.00000000000E+00 0.  1.
         23    2    1    2    0    0 -0.10382482096E+03 -0.29651852121E+02  0.72169886211E+02  0.15836042381E+03  0.90612943738E+02 0.  0.
         11    1    3    3    0    0 -0.48339368332E+02  0.31359409872E+02  0.21113657581E+02  0.61366877505E+02  0.00000000000E+00 0.  1.
        -11    1    3    3    0    0 -0.55485452629E+02 -0.61011261994E+02  0.51056228630E+02  0.96993546308E+02  0.00000000000E+00 0. -1.
         22    1    1    2    0    0  0.10382482096E+03  0.29651852121E+02  0.61657715518E+03  0.62596023362E+03  0.00000000000E+00 0. -1.
<mgrwt>
<rscale>  0 0.37521515E+03</rscale>
<asrwt>0</asrwt>
<pdfrwt beam="1">  1        1 0.11331289E+00 0.37521515E+03</pdfrwt>
<pdfrwt beam="2">  1       -1 0.73518172E-02 0.37521515E+03</pdfrwt>
<totfact> 0.25702512E+03</totfact>
</mgrwt>
</event>
<event>
 6    1  0.9906445E-006  0.1394934E+04  0.7818608E-02  0.8957493E-01
          1   -1    0    0  501    0  0.00000000000E+00  0.00000000000E+00  0.65055426868E+03  0.65055426868E+03  0.00000000000E+00 0. -1.
         -1   -1    0    0    0  501 -0.00000000000E+00 -0.00000000000E+00 -0.74776322159E+03  0.74776322159E+03  0.00000000000E+00 0.  1.
         23    2    1    2    0    0 -0.27419362322E+03  0.59103889185E+03 -0.28989000831E+03  0.71888014672E+03  0.90792806638E+02 0.  0.
         11    1    3    3    0    0 -0.15953486715E+03  0.32907502620E+03 -0.21112108191E+03  0.42227225570E+03  0.00000000000E+00 0.  1.
        -11    1    3    3    0    0 -0.11465875607E+03  0.26196386566E+03 -0.78768926393E+02  0.29660789103E+03  0.00000000000E+00 0. -1.
         22    1    1    2    0    0  0.27419362322E+03 -0.59103889185E+03  0.19268105540E+03  0.67943734355E+03  0.00000000000E+00 0. -1.
<mgrwt>
<rscale>  0 0.13949345E+04</rscale>
<asrwt>0</asrwt>
<pdfrwt beam="1">  1        1 0.10008527E+00 0.13949345E+04</pdfrwt>
<pdfrwt beam="2">  1       -1 0.11504050E+00 0.13949345E+04</pdfrwt>
<totfact> 0.20357176E+01</totfact>
</mgrwt>
</event>
<event>
 6    1  0.9906445E-006  0.3578397E+04  0.7818608E-02  0.8095458E-01
         -1   -1    0    0    0  501 -0.00000000000E+00  0.00000000000E+00  0.15803813895E+04  0.15803813895E+04  0.00000000000E+00 0.  1.
          1   -1    0    0  501    0  0.00000000000E+00 -0.00000000000E+00 -0.20256072921E+04  0.20256072921E+04  0.00000000000E+00 0. -1.
         23    2    1    2    0    0 -0.13555175391E+04  0.47465323151E+03 -0.12955177237E+04  0.19369411477E+04  0.10320536966E+03 0.  0.
         11    1    3    3    0    0 -0.35930207944E+03  0.89481564017E+02 -0.29474490603E+03  0.47326471897E+03  0.00000000000E+00 0.  1.
        -11    1    3    3    0    0 -0.99621545968E+03  0.38517166749E+03 -0.10007728177E+04  0.14636764288E+04  0.00000000000E+00 0. -1.
         22    1    1    2    0    0  0.13555175391E+04 -0.47465323151E+03  0.85029182115E+03  0.16690475338E+04  0.00000000000E+00 0.  1.
<mgrwt>
<rscale>  0 0.35783974E+04</rscale>
<asrwt>0</asrwt>
<pdfrwt beam="1">  1        1 0.31163189E+00 0.35783974E+04</pdfrwt>
<pdfrwt beam="2">  1       -1 0.24313560E+00 0.35783974E+04</pdfrwt>
<totfact> 0.17943766E-01</totfact>
</mgrwt>
</event>
<event>
 6    1  0.9906445E-006  0.1722946E+04  0.7818608E-02  0.8748385E-01
         -2   -1    0    0    0  501 -0.00000000000E+00  0.00000000000E+00  0.46167818198E+03  0.46167818198E+03  0.00000000000E+00 0.  1.
          2   -1    0    0  501    0  0.00000000000E+00 -0.00000000000E+00 -0.16074735033E+04  0.16074735033E+04  0.00000000000E+00 0. -1.
         23    2    1    2    0    0  0.61984816681E+03  0.81327486211E+02 -0.12821280600E+04  0.14292981665E+04  0.90636507943E+02 0.  0.
         11    1    3    3    0    0  0.18289790101E+03  0.30273045037E+02 -0.29258566746E+03  0.34637331343E+03  0.00000000000E+00 0. -1.
        -11    1    3    3    0    0  0.43695026580E+03  0.51054441174E+02 -0.98954239253E+03  0.10829248530E+04  0.00000000000E+00 0.  1.
         22    1    1    2    0    0 -0.61984816681E+03 -0.81327486211E+02  0.13633273864E+03  0.63985351882E+03  0.00000000000E+00 0.  1.
<mgrwt>
<rscale>  0 0.17229457E+04</rscale>
<asrwt>0</asrwt>
<pdfrwt beam="1">  1        2 0.24730362E+00 0.17229457E+04</pdfrwt>
<pdfrwt beam="2">  1       -2 0.71027412E-01 0.17229457E+04</pdfrwt>
<totfact> 0.18887751E+01</totfact>
</mgrwt>
</event>
<event>
 6    1  0.9906445E-006  0.2982422E+04  0.7818608E-02  0.8248768E-01
          2   -1    0    0  501    0  0.00000000000E+00  0.00000000000E+00  0.21265416426E+04  0.21265416426E+04  0.00000000000E+00 0. -1.
         -2   -1    0    0    0  501 -0.00000000000E+00 -0.00000000000E+00 -0.10456934846E+04  0.10456934846E+04  0.00000000000E+00 0.  1.
         23    2    1    2    0    0  0.11310678004E+04 -0.78453775792E+02  0.15689388027E+04  0.19378519446E+04  0.90729424497E+02 0.  0.
         11    1    3    3    0    0  0.66128828012E+03 -0.57152859785E+02  0.99123000048E+03  0.11929398781E+04  0.00000000000E+00 0.  1.
        -11    1    3    3    0    0  0.46977952027E+03 -0.21300916006E+02  0.57770880225E+03  0.74491206655E+03  0.00000000000E+00 0. -1.
         22    1    1    2    0    0 -0.11310678004E+04  0.78453775792E+02 -0.48809064472E+03  0.12343831826E+04  0.00000000000E+00 0.  1.
<mgrwt>
<rscale>  0 0.29824223E+04</rscale>
<asrwt>0</asrwt>
<pdfrwt beam="1">  1        2 0.32716025E+00 0.29824223E+04</pdfrwt>
<pdfrwt beam="2">  1       -2 0.16087592E+00 0.29824223E+04</pdfrwt>
<totfact> 0.12080389E+00</totfact>
</mgrwt>
</event>
<event>
 6    1  0.9906445E-006  0.2392082E+04  0.7818608E-02  0.8442474E-01
          1   -1    0    0  501    0  0.00000000000E+00  0.00000000000E+00  0.65151618678E+03  0.65151618678E+03  0.00000000000E+00 0. -1.
         -1   -1    0    0    0  501 -0.00000000000E+00 -0.00000000000E+00 -0.21956695337E+04  0.21956695337E+04  0.00000000000E+00 0.  1.
         23    2    1    2    0    0  0.32884135688E+03 -0.11465454091E+04 -0.70111265808E+03  0.13865623548E+04  0.91066960654E+02 0.  0.
         13    1    3    3    0    0  0.95504384206E+02 -0.21817100366E+03 -0.16067114628E+03  0.28728886419E+03  0.00000000000E+00 0. -1.
        -13    1    3    3    0    0  0.23333697267E+03 -0.92837440548E+03 -0.54044151179E+03  0.10992734906E+04  0.00000000000E+00 0.  1.
         22    1    1    2    0    0 -0.32884135688E+03  0.11465454091E+04 -0.84304068883E+03  0.14606233656E+04  0.00000000000E+00 0. -1.
<mgrwt>
<rscale>  0 0.23920821E+04</rscale>
<asrwt>0</asrwt>
<pdfrwt beam="1">  1        1 0.10023326E+00 0.23920821E+04</pdfrwt>
<pdfrwt beam="2">  1       -1 0.33779531E+00 0.23920821E+04</pdfrwt>
<totfact> 0.50943224E-01</totfact>
</mgrwt>
</event>
<event>
 6    1  0.9906445E-006  0.1701979E+04  0.7818608E-02  0.8760236E-01
         -1   -1    0    0    0  501 -0.00000000000E+00  0.00000000000E+00  0.62549742412E+03  0.62549742412E+03  0.00000000000E+00 0.  1.
          1   -1    0    0  501    0  0.00000000000E+00 -0.00000000000E+00 -0.11577719730E+04  0.11577719730E+04  0.00000000000E+00 0. -1.
         23    2    1    2    0    0  0.77906491969E+03  0.73897326922E+01  0.85085438122E+02  0.78922205880E+03  0.92925610447E+02 0.  0.
         13    1    3    3    0    0  0.23784951539E+03  0.21808899895E+02 -0.12133207804E+02  0.23915525254E+03  0.00000000000E+00 0. -1.
        -13    1    3    3    0    0  0.54121540430E+03 -0.14419167203E+02  0.97218645926E+02  0.55006680626E+03  0.00000000000E+00 0.  1.
         22    1    1    2    0    0 -0.77906491969E+03 -0.73897326922E+01 -0.61735998696E+03  0.99404733828E+03  0.00000000000E+00 0.  1.
<mgrwt>
<rscale>  0 0.17019793E+04</rscale>
<asrwt>0</asrwt>
<pdfrwt beam="1">  1        1 0.17811876E+00 0.17019793E+04</pdfrwt>
<pdfrwt beam="2">  1       -1 0.96230374E-01 0.17019793E+04</pdfrwt>
<totfact> 0.11361692E+01</totfact>
</mgrwt>
</event>
<event>
 6    1  0.9906445E-006  0.1602201E+04  0.7818608E-02  0.8819197E-01
         -1   -1    0    0    0  501 -0.00000000000E+00  0.00000000000E+00  0.39415828316E+03  0.39415828316E+03  0.00000000000E+00 0.  1.
          1   -1    0    0  501    0  0.00000000000E+00 -0.00000000000E+00 -0.16281827000E+04  0.16281827000E+04  0.00000000000E+00 0. -1.
         23    2    1    2    0    0  0.19616401391E+03 -0.34171260239E+03 -0.14955513242E+04  0.15494306891E+04  0.93882234743E+02 0.  0.
         13    1    3    3    0    0  0.99168016892E+02 -0.12233361150E+03 -0.74577280150E+03  0.76221839360E+03  0.00000000000E+00 0.  1.
        -13    1    3    3    0    0  0.96995997020E+02 -0.21937899089E+03 -0.74977852270E+03  0.78721229550E+03  0.00000000000E+00 0. -1.
         22    1    1    2    0    0 -0.19616401391E+03  0.34171260239E+03  0.26152690734E+03  0.47291029409E+03  0.00000000000E+00 0.  1.
<mgrwt>
<rscale>  0 0.16022006E+04</rscale>
<asrwt>0</asrwt>
<pdfrwt beam="1">  1        1 0.25048965E+00 0.16022006E+04</pdfrwt>
<pdfrwt beam="2">  1       -1 0.60639735E-01 0.16022006E+04</pdfrwt>
<totfact> 0.14120050E+01</totfact>
</mgrwt>
</event>
<event>
 6    1  0.9906445E-006  0.1220991E+04  0.7818608E-02  0.9094679E-01
         -2   -1    0    0    0  501 -0.00000000000E+00  0.00000000000E+00  0.12537167442E+03  0.12537167442E+03  0.00000000000E+00 0.  1.
          2   -1    0    0  501    0  0.00000000000E+00 -0.00000000000E+00 -0.29727974033E+04  0.29727974033E+04  0.00000000000E+00 0. -1.
         23    2    1    2    0    0  0.28030523229E+03 -0.20383656984E+02 -0.27970615126E+04  0.28126466250E+04  0.91877172994E+02 0.  0.
         11    1    3    3    0    0  0.86662722178E+02  0.36051393436E+02 -0.92618312725E+03  0.93092712689E+03  0.00000000000E+00 0. -1.
        -11    1    3    3    0    0  0.19364251012E+03 -0.56435050419E+02 -0.18708783854E+04  0.18817194981E+04  0.00000000000E+00 0.  1.
         22    1    1    2    0    0 -0.28030523229E+03  0.20383656984E+02 -0.50364216226E+02  0.28552245271E+03  0.00000000000E+00 0.  1.
<mgrwt>
<rscale>  0 0.12209907E+04</rscale>
<asrwt>0</asrwt>
<pdfrwt beam="1">  1        2 0.45735341E+00 0.12209907E+04</pdfrwt>
<pdfrwt beam="2">  1       -2 0.19287951E-01 0.12209907E+04</pdfrwt>
<totfact> 0.41188621E+01</totfact>
</mgrwt>
</event>
<event>
 6    1  0.9906445E-006  0.2930540E+04  0.7818608E-02  0.8263848E-01
         -1   -1    0    0    0  501 -0.00000000000E+00  0.00000000000E+00  0.11837179928E+04  0.11837179928E+04  0.00000000000E+00 0.  1.
          1   -1    0    0  501    0  0.00000000000E+00 -0.00000000000E+00 -0.18137908588E+04  0.18137908588E+04  0.00000000000E+00 0. -1.
         23    2    1    2    0    0  0.14435484405E+04 -0.13278085301E+03 -0.10752795816E+03  0.14565623777E+04  0.92459956117E+02 0.  0.
         13    1    3    3    0    0  0.93047490792E+03 -0.41369050108E+02 -0.74179187786E+02  0.93434335470E+03  0.00000000000E+00 0. -1.
        -13    1    3    3    0    0  0.51307353254E+03 -0.91411802901E+02 -0.33348770378E+02  0.52221902300E+03  0.00000000000E+00 0.  1.
         22    1    1    2    0    0 -0.14435484405E+04  0.13278085301E+03 -0.52254490782E+03  0.15409464739E+04  0.00000000000E+00 0. -1.
<mgrwt>
<rscale>  0 0.29305405E+04</rscale>
<asrwt>0</asrwt>
<pdfrwt beam="1">  1        1 0.27904474E+00 0.29305405E+04</pdfrwt>
<pdfrwt beam="2">  1       -1 0.18211046E+00 0.29305405E+04</pdfrwt>
<totfact> 0.68604864E-01</totfact>
</mgrwt>
</event>
<event>
 6    1  0.9906445E-006  0.2068023E+04  0.7818608E-02  0.8575462E-01
          1   -1    0    0  501    0  0.00000000000E+00  0.00000000000E+00  0.21370346535E+04  0.21370346535E+04  0.00000000000E+00 0. -1.
         -1   -1    0    0    0  501 -0.00000000000E+00 -0.00000000000E+00 -0.50030980923E+03  0.50030980923E+03  0.00000000000E+00 0.  1.
         23    2    1    2    0    0 -0.39220327657E+03 -0.63929195298E+03 -0.83770803055E+02  0.76047928809E+03  0.93774137526E+02 0.  0.
         11    1    3    3    0    0 -0.31981165212E+03 -0.44639278934E+03 -0.75288657650E+02  0.55426924611E+03  0.00000000000E+00 0.  1.
        -11    1    3    3    0    0 -0.72391624442E+02 -0.19289916364E+03 -0.84821454046E+01  0.20621004198E+03  0.00000000000E+00 0. -1.
         22    1    1    2    0    0  0.39220327657E+03  0.63929195298E+03  0.17204956473E+04  0.18768651746E+04  0.00000000000E+00 0. -1.
<mgrwt>
<rscale>  0 0.20680226E+04</rscale>
<asrwt>0</asrwt>
<pdfrwt beam="1">  1        1 0.32877456E+00 0.20680226E+04</pdfrwt>
<pdfrwt beam="2">  1       -1 0.76970741E-01 0.20680226E+04</pdfrwt>
<totfact> 0.37544881E+00</totfact>
</mgrwt>
</event>
<event>
 6    1  0.9906445E-006  0.1576517E+04  0.7818608E-02  0.8835106E-01
          1   -1    0    0  501    0  0.00000000000E+00  0.00000000000E+00  0.24784836275E+04  0.24784836275E+04  0.00000000000E+00 0. -1.
         -1   -1    0    0    0  501 -0.00000000000E+00 -0.00000000000E+00 -0.25069816670E+03  0.25069816670E+03  0.00000000000E+00 0.  1.
         23    2    1    2    0    0  0.21746024958E+03  0.33877148017E+03  0.22853501113E+04  0.23225262091E+04  0.96165403150E+02 0.  0.
         13    1    3    3    0    0  0.20798113432E+03  0.25569155278E+03  0.18738508412E+04  0.19026169602E+04  0.00000000000E+00 0.  1.
        -13    1    3    3    0    0  0.94791152627E+01  0.83079927390E+02  0.41149927012E+03  0.41990924885E+03  0.00000000000E+00 0. -1.
         22    1    1    2    0    0 -0.21746024958E+03 -0.33877148017E+03 -0.57564650478E+02  0.40665558512E+03  0.00000000000E+00 0.  1.
<mgrwt>
<rscale>  0 0.15765168E+04</rscale>
<asrwt>0</asrwt>
<pdfrwt beam="1">  1        1 0.38130516E+00 0.15765168E+04</pdfrwt>
<pdfrwt beam="2">  1       -1 0.38568950E-01 0.15765168E+04</pdfrwt>
<totfact> 0.87935617E+00</totfact>
</mgrwt>
</event>
<event>
 6    1  0.9906445E-006  0.1135035E+04  0.7818608E-02  0.9171701E-01
          1   -1    0    0  501    0  0.00000000000E+00  0.00000000000E+00  0.21588193787E+04  0.21588193787E+04  0.00000000000E+00 0. -1.
         -1   -1    0    0    0  501 -0.00000000000E+00 -0.00000000000E+00 -0.14919091378E+03  0.14919091378E+03  0.00000000000E+00 0.  1.
         23    2    1    2    0    0 -0.83397159240E+02 -0.41476376333E+03  0.25411351853E+03  0.50223710834E+03  0.93189952000E+02 0.  0.
         11    1    3    3    0    0 -0.93627614906E+02 -0.35131719773E+03  0.24223069433E+03  0.43688169219E+03  0.00000000000E+00 0. -1.
        -11    1    3    3    0    0  0.10230455667E+02 -0.63446565600E+02  0.11882824203E+02  0.65355416154E+02  0.00000000000E+00 0.  1.
         22    1    1    2    0    0  0.83397159240E+02  0.41476376333E+03  0.17555149464E+04  0.18057731841E+04  0.00000000000E+00 0. -1.
<mgrwt>
<rscale>  0 0.11350352E+04</rscale>
<asrwt>0</asrwt>
<pdfrwt beam="1">  1        1 0.33212604E+00 0.11350352E+04</pdfrwt>
<pdfrwt beam="2">  1       -1 0.22952450E-01 0.11350352E+04</pdfrwt>
<totfact> 0.37602608E+01</totfact>
</mgrwt>
</event>
<event>
 6    1  0.9906445E-006  0.2370564E+04  0.7818608E-02  0.8450607E-01
          2   -1    0    0  501    0  0.00000000000E+00  0.00000000000E+00  0.24893836850E+04  0.24893836850E+04  0.00000000000E+00 0. -1.
         -2   -1    0    0    0  501 -0.00000000000E+00 -0.00000000000E+00 -0.56435400170E+03  0.56435400170E+03  0.00000000000E+00 0.  1.
         23    2    1    2    0    0 -0.31865052673E+03  0.85289740187E+03 -0.10257588346E+02  0.91497426826E+03  0.90003095260E+02 0.  0.
         11    1    3    3    0    0 -0.12006890981E+03  0.44960748838E+03 -0.84458800799E+01  0.46544040392E+03  0.00000000000E+00 0.  1.
        -11    1    3    3    0    0 -0.19858161692E+03  0.40328991349E+03 -0.18117082665E+01  0.44953386434E+03  0.00000000000E+00 0. -1.
         22    1    1    2    0    0  0.31865052673E+03 -0.85289740187E+03  0.19352872717E+04  0.21387634185E+04  0.00000000000E+00 0. -1.
<mgrwt>
<rscale>  0 0.23705642E+04</rscale>
<asrwt>0</asrwt>
<pdfrwt beam="1">  1        2 0.38298210E+00 0.23705642E+04</pdfrwt>
<pdfrwt beam="2">  1       -2 0.86823694E-01 0.23705642E+04</pdfrwt>
<totfact> 0.36529068E+00</totfact>
</mgrwt>
</event>
<event>
 6    1  0.9906445E-006  0.2959683E+04  0.7818608E-02  0.8255338E-01
          2   -1    0    0  501    0  0.00000000000E+00  0.00000000000E+00  0.20547847809E+04  0.20547847809E+04  0.00000000000E+00 0. -1.
         -2   -1    0    0    0  501 -0.00000000000E+00 -0.00000000000E+00 -0.10657717560E+04  0.10657717560E+04  0.00000000000E+00 0.  1.
         23    2    1    2    0    0  0.10588651706E+04 -0.28871922050E+03 -0.54941984589E+03  0.12307602685E+04  0.91402591093E+02 0.  0.
         11    1    3    3    0    0  0.27123401379E+03 -0.47241159428E+02 -0.10455268806E+03  0.29450107294E+03  0.00000000000E+00 0.  1.
        -11    1    3    3    0    0  0.78763115685E+03 -0.24147806107E+03 -0.44486715783E+03  0.93625919560E+03  0.00000000000E+00 0. -1.
         22    1    1    2    0    0 -0.10588651706E+04  0.28871922050E+03  0.15384328708E+04  0.18897962683E+04  0.00000000000E+00 0. -1.
<mgrwt>
<rscale>  0 0.29596835E+04</rscale>
<asrwt>0</asrwt>
<pdfrwt beam="1">  1        2 0.31612073E+00 0.29596835E+04</pdfrwt>
<pdfrwt beam="2">  1       -2 0.16396489E+00 0.29596835E+04</pdfrwt>
<totfact> 0.12600267E+00</totfact>
</mgrwt>
</event>
<event>
 6    1  0.9906445E-006  0.5358752E+03  0.7818608E-02  0.1004817E+00
         -2   -1    0    0    0  501 -0.00000000000E+00  0.00000000000E+00  0.33733092668E+02  0.33733092668E+02  0.00000000000E+00 0.  1.
          2   -1    0    0  501    0  0.00000000000E+00 -0.00000000000E+00 -0.21281939630E+04  0.21281939630E+04  0.00000000000E+00 0. -1.
         23    2    1    2    0    0  0.14966310318E+03 -0.42893097853E+02 -0.19178155519E+04  0.19264648914E+04  0.94929575049E+02 0.  0.
         11    1    3    3    0    0  0.13871634131E+03 -0.30702773940E+01 -0.15937274527E+04  0.15997558699E+04  0.00000000000E+00 0. -1.
        -11    1    3    3    0    0  0.10946761868E+02 -0.39822820459E+02 -0.32408809923E+03  0.32670902144E+03  0.00000000000E+00 0.  1.
         22    1    1    2    0    0 -0.14966310318E+03  0.42893097853E+02 -0.17664531841E+03  0.23546216429E+03  0.00000000000E+00 0.  1.
<mgrwt>
<rscale>  0 0.53587522E+03</rscale>
<asrwt>0</asrwt>
<pdfrwt beam="1">  1        2 0.32741447E+00 0.53587522E+03</pdfrwt>
<pdfrwt beam="2">  1       -2 0.51897063E-02 0.53587522E+03</pdfrwt>
<totfact> 0.11488095E+03</totfact>
</mgrwt>
</event>
<event>
 6    1  0.9906445E-006  0.1738721E+04  0.7818608E-02  0.8739584E-01
          1   -1    0    0  501    0  0.00000000000E+00  0.00000000000E+00  0.19276799147E+04  0.19276799147E+04  0.00000000000E+00 0. -1.
         -1   -1    0    0    0  501 -0.00000000000E+00 -0.00000000000E+00 -0.39207093520E+03  0.39207093520E+03  0.00000000000E+00 0.  1.
         23    2    1    2    0    0  0.32929769031E+01  0.33738310329E+03 -0.29529174022E+03  0.45802164092E+03  0.93532933407E+02 0.  0.
         11    1    3    3    0    0 -0.76552532075E+01  0.20639614731E+03 -0.11981912956E+03  0.23877729443E+03  0.00000000000E+00 0.  1.
        -11    1    3    3    0    0  0.10948230111E+02  0.13098695598E+03 -0.17547261066E+03  0.21924434650E+03  0.00000000000E+00 0. -1.
         22    1    1    2    0    0 -0.32929769031E+01 -0.33738310329E+03  0.18309007197E+04  0.18617292090E+04  0.00000000000E+00 0. -1.
<mgrwt>
<rscale>  0 0.17387205E+04</rscale>
<asrwt>0</asrwt>
<pdfrwt beam="1">  1        1 0.29656614E+00 0.17387205E+04</pdfrwt>
<pdfrwt beam="2">  1       -1 0.60318606E-01 0.17387205E+04</pdfrwt>
<totfact> 0.88217016E+00</totfact>
</mgrwt>
</event>
<event>
 6    1  0.9906445E-006  0.1013861E+04  0.7818608E-02  0.9293472E-01
         -1   -1    0    0    0  501 -0.00000000000E+00  0.00000000000E+00  0.73272968719E+03  0.73272968719E+03  0.00000000000E+00 0.  1.
          1   -1    0    0  501    0  0.00000000000E+00 -0.00000000000E+00 -0.35071380039E+03  0.35071380039E+03  0.00000000000E+00 0. -1.
         23    2    1    2    0    0  0.12269773368E+03 -0.24235515271E+03 -0.25910661467E+03  0.38714698767E+03  0.94635080185E+02 0.  0.
         11    1    3    3    0    0  0.76744481277E+02 -0.57340938513E+02 -0.10384367225E+03  0.14128413535E+03  0.00000000000E+00 0. -1.
        -11    1    3    3    0    0  0.45953252405E+02 -0.18501421420E+03 -0.15526294242E+03  0.24586285232E+03  0.00000000000E+00 0.  1.
         22    1    1    2    0    0 -0.12269773368E+03  0.24235515271E+03  0.64112250147E+03  0.69629649991E+03  0.00000000000E+00 0.  1.
<mgrwt>
<rscale>  0 0.10138608E+04</rscale>
<asrwt>0</asrwt>
<pdfrwt beam="1">  1        1 0.53955969E-01 0.10138608E+04</pdfrwt>
<pdfrwt beam="2">  1       -1 0.11272764E+00 0.10138608E+04</pdfrwt>
<totfact> 0.51545658E+01</totfact>
</mgrwt>
</event>
<event>
 6    1  0.9906445E-006  0.4511165E+04  0.7818608E-02  0.7908685E-01
         -1   -1    0    0    0  501 -0.00000000000E+00  0.00000000000E+00  0.39270136070E+04  0.39270136070E+04  0.00000000000E+00 0.  1.
          1   -1    0    0  501    0  0.00000000000E+00 -0.00000000000E+00 -0.12955525733E+04  0.12955525733E+04  0.00000000000E+00 0. -1.
         23    2    1    2    0    0  0.64256601985E+03  0.94786125595E+03 -0.93213859709E+03  0.14794959995E+04  0.93241610179E+02 0.  0.
         11    1    3    3    0    0  0.43267631985E+03  0.55806468599E+03 -0.58044316332E+03  0.91408930491E+03  0.00000000000E+00 0.  1.
        -11    1    3    3    0    0  0.20988970000E+03  0.38979656996E+03 -0.35169543377E+03  0.56540669456E+03  0.00000000000E+00 0. -1.
         22    1    1    2    0    0 -0.64256601985E+03 -0.94786125595E+03  0.35635996307E+04  0.37430701808E+04  0.00000000000E+00 0.  1.
<mgrwt>
<rscale>  0 0.45111651E+04</rscale>
<asrwt>0</asrwt>
<pdfrwt beam="1">  1        1 0.19931578E+00 0.45111651E+04</pdfrwt>
<pdfrwt beam="2">  1       -1 0.60415593E+00 0.45111651E+04</pdfrwt>
<totfact> 0.29210137E-03</totfact>
</mgrwt>
</event>
<event>
 6    1  0.9906445E-006  0.1052775E+04  0.7818608E-02  0.9252483E-01
          1   -1    0    0  501    0  0.00000000000E+00  0.00000000000E+00  0.13371443811E+03  0.13371443811E+03  0.00000000000E+00 0. -1.
         -1   -1    0    0    0  501 -0.00000000000E+00 -0.00000000000E+00 -0.20722065918E+04  0.20722065918E+04  0.00000000000E+00 0.  1.
         23    2    1    2    0    0 -0.10575917461E+03  0.28196953920E+03 -0.18710955758E+04  0.18973207662E+04  0.90197626570E+02 0.  0.
         13    1    3    3    0    0 -0.15297701470E+02  0.12978166692E+03 -0.60859572195E+03  0.62246771283E+03  0.00000000000E+00 0.  1.
        -13    1    3    3    0    0 -0.90461473143E+02  0.15218787228E+03 -0.12624998539E+04  0.12748530534E+04  0.00000000000E+00 0. -1.
         22    1    1    2    0    0  0.10575917461E+03 -0.28196953920E+03 -0.67396577834E+02  0.30860026370E+03  0.00000000000E+00 0. -1.
<mgrwt>
<rscale>  0 0.10527753E+04</rscale>
<asrwt>0</asrwt>
<pdfrwt beam="1">  1        1 0.20571452E-01 0.10527753E+04</pdfrwt>
<pdfrwt beam="2">  1       -1 0.31880101E+00 0.10527753E+04</pdfrwt>
<totfact> 0.63776965E+00</totfact>
</mgrwt>
</event>
<event>
 6    1  0.9906445E-006  0.2363947E+04  0.7818608E-02  0.8453126E-01
         -2   -1    0    0    0  501 -0.00000000000E+00  0.00000000000E+00  0.83854216494E+03  0.83854216494E+03  0.00000000000E+00 0.  1.
          2   -1    0    0  501    0  0.00000000000E+00 -0.00000000000E+00 -0.16660602377E+04  0.16660602377E+04  0.00000000000E+00 0. -1.
         23    2    1    2    0    0  0.45241050813E+03  0.33443139858E+03 -0.15135828906E+04  0.16173569110E+04  0.91600123247E+02 0.  0.
         13    1    3    3    0    0  0.16409990020E+03  0.13122217257E+03 -0.69359275143E+03  0.72471990496E+03  0.00000000000E+00 0. -1.
        -13    1    3    3    0    0  0.28831060793E+03  0.20320922601E+03 -0.81999013919E+03  0.89263700604E+03  0.00000000000E+00 0.  1.
         22    1    1    2    0    0 -0.45241050813E+03 -0.33443139858E+03  0.68606481782E+03  0.88724549166E+03  0.00000000000E+00 0.  1.
<mgrwt>
<rscale>  0 0.23639473E+04</rscale>
<asrwt>0</asrwt>
<pdfrwt beam="1">  1        2 0.25631696E+00 0.23639473E+04</pdfrwt>
<pdfrwt beam="2">  1       -2 0.12900649E+00 0.23639473E+04</pdfrwt>
<totfact> 0.40915256E+00</totfact>
</mgrwt>
</event>
<event>
 6    1  0.9906445E-006  0.5272218E+04  0.7818608E-02  0.7787834E-01
          2   -1    0    0  501    0  0.00000000000E+00  0.00000000000E+00  0.19180593470E+04  0.19180593470E+04  0.00000000000E+00 0. -1.
         -2   -1    0    0    0  501 -0.00000000000E+00 -0.00000000000E+00 -0.36229693350E+04  0.36229693350E+04  0.00000000000E+00 0.  1.
         23    2    1    2    0    0  0.14120002853E+04  0.15026716899E+02  0.14856551448E+04  0.20519490792E+04  0.96711976902E+02 0.  0.
         11    1    3    3    0    0  0.50434026951E+03  0.14095835511E+02  0.59773401015E+03  0.78220441504E+03  0.00000000000E+00 0. -1.
        -11    1    3    3    0    0  0.90766001577E+03  0.93088138747E+00  0.88792113463E+03  0.12697446641E+04  0.00000000000E+00 0.  1.
         22    1    1    2    0    0 -0.14120002853E+04 -0.15026716899E+02 -0.31905651328E+04  0.34890796028E+04  0.00000000000E+00 0.  1.
<mgrwt>
<rscale>  0 0.52722178E+04</rscale>
<asrwt>0</asrwt>
<pdfrwt beam="1">  1        2 0.29508605E+00 0.52722178E+04</pdfrwt>
<pdfrwt beam="2">  1       -2 0.55737990E+00 0.52722178E+04</pdfrwt>
<totfact> 0.41956282E-03</totfact>
</mgrwt>
</event>
<event>
 6    1  0.9906445E-006  0.2620444E+04  0.7818608E-02  0.8361290E-01
         -2   -1    0    0    0  501 -0.00000000000E+00  0.00000000000E+00  0.55071364650E+03  0.55071364650E+03  0.00000000000E+00 0.  1.
          2   -1    0    0  501    0  0.00000000000E+00 -0.00000000000E+00 -0.31171956324E+04  0.31171956324E+04  0.00000000000E+00 0. -1.
         23    2    1    2    0    0  0.19347532392E+03 -0.31370608785E+03 -0.30423777627E+04  0.30659782190E+04  0.91190884949E+02 0.  0.
         11    1    3    3    0    0  0.14495756985E+03 -0.18486267028E+03 -0.16184927831E+04  0.16354527792E+04  0.00000000000E+00 0. -1.
        -11    1    3    3    0    0  0.48517754063E+02 -0.12884341757E+03 -0.14238849796E+04  0.14305254398E+04  0.00000000000E+00 0.  1.
         22    1    1    2    0    0 -0.19347532392E+03  0.31370608785E+03  0.47589577683E+03  0.60193105994E+03  0.00000000000E+00 0.  1.
<mgrwt>
<rscale>  0 0.26204444E+04</rscale>
<asrwt>0</asrwt>
<pdfrwt beam="1">  1        2 0.47956857E+00 0.26204444E+04</pdfrwt>
<pdfrwt beam="2">  1       -2 0.84725175E-01 0.26204444E+04</pdfrwt>
<totfact> 0.15726003E+00</totfact>
</mgrwt>
</event>
<event>
 6    1  0.1360958E-005  0.2466974E+04  0.7818608E-02  0.8414847E-01
          1   -1    0    0  501    0  0.00000000000E+00  0.00000000000E+00  0.13160794941E+04  0.13160794941E+04  0.00000000000E+00 0. -1.
         -1   -1    0    0    0  501 -0.00000000000E+00 -0.00000000000E+00 -0.11560776728E+04  0.11560776728E+04  0.00000000000E+00 0.  1.
         23    2    1    2    0    0 -0.35545663874E+03  0.51426568965E+02 -0.11006433522E+04  0.11613481163E+04  0.91211536261E+02 0.  0.
         11    1    3    3    0    0 -0.17381675536E+03 -0.20075410237E+02 -0.54654754230E+03  0.57387237478E+03  0.00000000000E+00 0. -1.
        -11    1    3    3    0    0 -0.18163988337E+03  0.71501979202E+02 -0.55409580991E+03  0.58747574147E+03  0.00000000000E+00 0.  1.
         22    1    1    2    0    0  0.35545663874E+03 -0.51426568965E+02  0.12606451735E+04  0.13108090507E+04  0.00000000000E+00 0. -1.
<mgrwt>
<rscale>  0 0.24669740E+04</rscale>
<asrwt>0</asrwt>
<pdfrwt beam="1">  1        1 0.20247377E+00 0.24669740E+04</pdfrwt>
<pdfrwt beam="2">  1       -1 0.17785810E+00 0.24669740E+04</pdfrwt>
<totfact> 0.16926303E+00</totfact>
</mgrwt>
</event>
<event>
 6    1  0.9906445E-006  0.1840206E+04  0.7818608E-02  0.8685206E-01
          1   -1    0    0  501    0  0.00000000000E+00  0.00000000000E+00  0.77131327826E+03  0.77131327826E+03  0.00000000000E+00 0. -1.
         -1   -1    0    0    0  501 -0.00000000000E+00 -0.00000000000E+00 -0.10975943649E+04  0.10975943649E+04  0.00000000000E+00 0.  1.
         23    2    1    2    0    0 -0.49630861274E+03 -0.10886536885E+03 -0.93982240543E+03  0.10722854884E+04  0.91411746337E+02 0.  0.
         13    1    3    3    0    0 -0.15870039615E+03  0.65765651325E+01 -0.31437689664E+03  0.35222421849E+03  0.00000000000E+00 0. -1.
        -13    1    3    3    0    0 -0.33760821659E+03 -0.11544193398E+03 -0.62544550878E+03  0.72006126996E+03  0.00000000000E+00 0.  1.
         22    1    1    2    0    0  0.49630861274E+03  0.10886536885E+03  0.61354131876E+03  0.79662215475E+03  0.00000000000E+00 0. -1.
<mgrwt>
<rscale>  0 0.18402055E+04</rscale>
<asrwt>0</asrwt>
<pdfrwt beam="1">  1        1 0.11866358E+00 0.18402055E+04</pdfrwt>
<pdfrwt beam="2">  1       -1 0.16886067E+00 0.18402055E+04</pdfrwt>
<totfact> 0.55287839E+00</totfact>
</mgrwt>
</event>
<event>
 6    1  0.1180960E-005  0.2771492E+04  0.7818608E-02  0.8312174E-01
         -2   -1    0    0    0  501 -0.00000000000E+00  0.00000000000E+00  0.65760905521E+03  0.65760905521E+03  0.00000000000E+00 0.  1.
          2   -1    0    0  501    0  0.00000000000E+00 -0.00000000000E+00 -0.29201126198E+04  0.29201126198E+04  0.00000000000E+00 0. -1.
         23    2    1    2    0    0 -0.60303463594E+03 -0.20057459136E+03  0.45507914137E+03  0.78681918610E+03  0.90035925407E+02 0.  0.
         13    1    3    3    0    0 -0.42242297670E+03 -0.15993283259E+03  0.36609168012E+03  0.58141448248E+03  0.00000000000E+00 0.  1.
        -13    1    3    3    0    0 -0.18061165924E+03 -0.40641758777E+02  0.88987461243E+02  0.20540470362E+03  0.00000000000E+00 0. -1.
         22    1    1    2    0    0  0.60303463594E+03  0.20057459136E+03 -0.27175827060E+04  0.27909024889E+04  0.00000000000E+00 0. -1.
<mgrwt>
<rscale>  0 0.27714924E+04</rscale>
<asrwt>0</asrwt>
<pdfrwt beam="1">  1        2 0.44924810E+00 0.27714924E+04</pdfrwt>
<pdfrwt beam="2">  1       -2 0.10117062E+00 0.27714924E+04</pdfrwt>
<totfact> 0.13676780E+00</totfact>
</mgrwt>
</event>
<event>
 6    1  0.9906445E-006  0.1693150E+04  0.7818608E-02  0.8765281E-01
          1   -1    0    0  501    0  0.00000000000E+00  0.00000000000E+00  0.61780856232E+03  0.61780856232E+03  0.00000000000E+00 0. -1.
         -1   -1    0    0    0  501 -0.00000000000E+00 -0.00000000000E+00 -0.11600512176E+04  0.11600512176E+04  0.00000000000E+00 0.  1.
         23    2    1    2    0    0 -0.67010357539E+03 -0.44467645243E+03 -0.27201167609E+01  0.80942779021E+03  0.91596940076E+02 0.  0.
         11    1    3    3    0    0 -0.18419045843E+03 -0.16746773817E+03  0.18259311747E+02  0.24960963677E+03  0.00000000000E+00 0.  1.
        -11    1    3    3    0    0 -0.48591311696E+03 -0.27720871426E+03 -0.20979428508E+02  0.55981815344E+03  0.00000000000E+00 0. -1.
         22    1    1    2    0    0  0.67010357539E+03  0.44467645243E+03 -0.53952253851E+03  0.96843198969E+03  0.00000000000E+00 0.  1.
<mgrwt>
<rscale>  0 0.16931504E+04</rscale>
<asrwt>0</asrwt>
<pdfrwt beam="1">  1        1 0.95047471E-01 0.16931504E+04</pdfrwt>
<pdfrwt beam="2">  1       -1 0.17846942E+00 0.16931504E+04</pdfrwt>
<totfact> 0.66702401E+00</totfact>
</mgrwt>
</event>
<event>
 6    1  0.9906445E-006  0.1635501E+04  0.7818608E-02  0.8799030E-01
         -1   -1    0    0    0  501 -0.00000000000E+00  0.00000000000E+00  0.23903441269E+03  0.23903441269E+03  0.00000000000E+00 0.  1.
          1   -1    0    0  501    0  0.00000000000E+00 -0.00000000000E+00 -0.27975720387E+04  0.27975720387E+04  0.00000000000E+00 0. -1.
         23    2    1    2    0    0 -0.14030108638E+03 -0.67084674980E+03 -0.46356327049E+03  0.83237476963E+03  0.90758442169E+02 0.  0.
         11    1    3    3    0    0 -0.48038778243E+02 -0.26440495621E+03 -0.12988682816E+03  0.29847662088E+03  0.00000000000E+00 0. -1.
        -11    1    3    3    0    0 -0.92262308135E+02 -0.40644179359E+03 -0.33367644233E+03  0.53389814875E+03  0.00000000000E+00 0.  1.
         22    1    1    2    0    0  0.14030108638E+03  0.67084674980E+03 -0.20949743555E+04  0.22042316818E+04  0.00000000000E+00 0. -1.
<mgrwt>
<rscale>  0 0.16355011E+04</rscale>
<asrwt>0</asrwt>
<pdfrwt beam="1">  1        1 0.43039569E+00 0.16355011E+04</pdfrwt>
<pdfrwt beam="2">  1       -1 0.36774526E-01 0.16355011E+04</pdfrwt>
<totfact> 0.57011960E+00</totfact>
</mgrwt>
</event>
<event>
 6    1  0.9906445E-006  0.2631114E+04  0.7818608E-02  0.8357709E-01
          2   -1    0    0  501    0  0.00000000000E+00  0.00000000000E+00  0.32885255581E+04  0.32885255581E+04  0.00000000000E+00 0.  1.
         -2   -1    0    0    0  501 -0.00000000000E+00 -0.00000000000E+00 -0.52628137161E+03  0.52628137161E+03  0.00000000000E+00 0. -1.
         23    2    1    2    0    0  0.80965046249E+03 -0.71465546795E+03  0.24679247542E+04  0.26954811338E+04  0.93271865699E+02 0.  0.
         11    1    3    3    0    0  0.26100075560E+03 -0.18798994182E+03  0.66454243362E+03  0.73829415461E+03  0.00000000000E+00 0. -1.
        -11    1    3    3    0    0  0.54864970689E+03 -0.52666552613E+03  0.18033823206E+04  0.19571869792E+04  0.00000000000E+00 0.  1.
         22    1    1    2    0    0 -0.80965046249E+03  0.71465546795E+03  0.29431943235E+03  0.11193257960E+04  0.00000000000E+00 0. -1.
<mgrwt>
<rscale>  0 0.26311136E+04</rscale>
<asrwt>0</asrwt>
<pdfrwt beam="1">  1        2 0.50592700E+00 0.26311136E+04</pdfrwt>
<pdfrwt beam="2">  1       -2 0.80966367E-01 0.26311136E+04</pdfrwt>
<totfact> 0.13458874E+00</totfact>
</mgrwt>
</event>
<event>
 6    1  0.9906445E-006  0.1433733E+04  0.7818608E-02  0.8929756E-01
         -2   -1    0    0    0  501 -0.00000000000E+00  0.00000000000E+00  0.14110119054E+04  0.14110119054E+04  0.00000000000E+00 0. -1.
          2   -1    0    0  501    0  0.00000000000E+00 -0.00000000000E+00 -0.36420521226E+03  0.36420521226E+03  0.00000000000E+00 0.  1.
         23    2    1    2    0    0  0.53110173049E+03  0.28966331882E+03  0.99518094739E+03  0.11680605448E+04  0.89478666703E+02 0.  0.
         11    1    3    3    0    0  0.53472003169E+02  0.63352722059E+02  0.12767121427E+03  0.15222602100E+03  0.00000000000E+00 0. -1.
        -11    1    3    3    0    0  0.47762972732E+03  0.22631059676E+03  0.86750973312E+03  0.10158345238E+04  0.00000000000E+00 0.  1.
         22    1    1    2    0    0 -0.53110173049E+03 -0.28966331882E+03  0.51625745754E+02  0.60715657291E+03  0.00000000000E+00 0.  1.
<mgrwt>
<rscale>  0 0.14337334E+04</rscale>
<asrwt>0</asrwt>
<pdfrwt beam="1">  1        2 0.56031572E-01 0.14337334E+04</pdfrwt>
<pdfrwt beam="2">  1       -2 0.21707875E+00 0.14337334E+04</pdfrwt>
<totfact> 0.88459432E+00</totfact>
</mgrwt>
</event>
<event>
 6    1  0.9906445E-006  0.5628604E+03  0.7818608E-02  0.9985603E-01
         -3   -1    0    0    0  501 -0.00000000000E+00  0.00000000000E+00  0.66596520764E+03  0.66596520764E+03  0.00000000000E+00 0.  1.
          3   -1    0    0  501    0  0.00000000000E+00 -0.00000000000E+00 -0.11892957632E+03  0.11892957632E+03  0.00000000000E+00 0. -1.
         23    2    1    2    0    0 -0.99181235023E+02 -0.69551743124E+02  0.62353817985E+03  0.64162230830E+03  0.90581247608E+02 0.  0.
         13    1    3    3    0    0 -0.31782420460E+02  0.16810250432E+02  0.89268794358E+02  0.96237333795E+02  0.00000000000E+00 0.  1.
        -13    1    3    3    0    0 -0.67398814563E+02 -0.86361993557E+02  0.53426938549E+03  0.54538497450E+03  0.00000000000E+00 0. -1.
         22    1    1    2    0    0  0.99181235023E+02  0.69551743124E+02 -0.76502548532E+02  0.14327247567E+03  0.00000000000E+00 0. -1.
<mgrwt>
<rscale>  0 0.56286041E+03</rscale>
<asrwt>0</asrwt>
<pdfrwt beam="1">  1        3 0.18296858E-01 0.56286041E+03</pdfrwt>
<pdfrwt beam="2">  1       -3 0.10245618E+00 0.56286041E+03</pdfrwt>
<totfact> 0.58344586E+01</totfact>
</mgrwt>
</event>
<event>
 6    1  0.9906445E-006  0.7154534E+03  0.7818608E-02  0.9691164E-01
          1   -1    0    0  501    0  0.00000000000E+00  0.00000000000E+00  0.24246556538E+03  0.24246556538E+03  0.00000000000E+00 0. -1.
         -1   -1    0    0    0  501 -0.00000000000E+00 -0.00000000000E+00 -0.52777963600E+03  0.52777963600E+03  0.00000000000E+00 0.  1.
         23    2    1    2    0    0 -0.10309224854E+03  0.66969694916E+02  0.21048080114E+03  0.25943652232E+03  0.88837997068E+02 0.  0.
         13    1    3    3    0    0 -0.85504146200E+02  0.48659090719E+01  0.13767040158E+03  0.16213505346E+03  0.00000000000E+00 0.  1.
        -13    1    3    3    0    0 -0.17588102338E+02  0.62103785844E+02  0.72810399551E+02  0.97301468862E+02  0.00000000000E+00 0. -1.
         22    1    1    2    0    0  0.10309224854E+03 -0.66969694916E+02 -0.49579487175E+03  0.51080867906E+03  0.00000000000E+00 0.  1.
<mgrwt>
<rscale>  0 0.71545339E+03</rscale>
<asrwt>0</asrwt>
<pdfrwt beam="1">  1        1 0.37302395E-01 0.71545339E+03</pdfrwt>
<pdfrwt beam="2">  1       -1 0.81196865E-01 0.71545339E+03</pdfrwt>
<totfact> 0.17746798E+02</totfact>
</mgrwt>
</event>
<event>
 6    1  0.9906445E-006  0.1780938E+04  0.7818608E-02  0.8716502E-01
          1   -1    0    0  501    0  0.00000000000E+00  0.00000000000E+00  0.40295758496E+03  0.40295758496E+03  0.00000000000E+00 0. -1.
         -1   -1    0    0    0  501 -0.00000000000E+00 -0.00000000000E+00 -0.19677884021E+04  0.19677884021E+04  0.00000000000E+00 0.  1.
         23    2    1    2    0    0  0.36187203796E+03 -0.31327089964E+03  0.21321778866E+03  0.52940221877E+03  0.75596662700E+02 0.  0.
         11    1    3    3    0    0  0.16940397009E+03 -0.19573967337E+03  0.12122577140E+03  0.28584508473E+03  0.00000000000E+00 0.  1.
        -11    1    3    3    0    0  0.19246806788E+03 -0.11753122627E+03  0.91992017258E+02  0.24355713404E+03  0.00000000000E+00 0. -1.
         22    1    1    2    0    0 -0.36187203796E+03  0.31327089964E+03 -0.17780486058E+04  0.18413437683E+04  0.00000000000E+00 0.  1.
<mgrwt>
<rscale>  0 0.17809382E+04</rscale>
<asrwt>0</asrwt>
<pdfrwt beam="1">  1        1 0.61993473E-01 0.17809382E+04</pdfrwt>
<pdfrwt beam="2">  1       -1 0.30273669E+00 0.17809382E+04</pdfrwt>
<totfact> 0.17823860E+00</totfact>
</mgrwt>
</event>
<event>
 6    1  0.9906445E-006  0.2092857E+04  0.7818608E-02  0.8564396E-01
          1   -1    0    0  501    0  0.00000000000E+00  0.00000000000E+00  0.12706362380E+04  0.12706362380E+04  0.00000000000E+00 0. -1.
         -1   -1    0    0    0  501 -0.00000000000E+00 -0.00000000000E+00 -0.86178295421E+03  0.86178295421E+03  0.00000000000E+00 0.  1.
         23    2    1    2    0    0 -0.45320116214E+03 -0.57174610093E+02 -0.75220222678E+03  0.88473729043E+03  0.91058518078E+02 0.  0.
         11    1    3    3    0    0 -0.19390594656E+03  0.14005883374E+02 -0.27126440754E+03  0.33373651235E+03  0.00000000000E+00 0.  1.
        -11    1    3    3    0    0 -0.25929521557E+03 -0.71180493468E+02 -0.48093781924E+03  0.55100077808E+03  0.00000000000E+00 0. -1.
         22    1    1    2    0    0  0.45320116214E+03  0.57174610093E+02  0.11610555106E+04  0.12476819018E+04  0.00000000000E+00 0. -1.
<mgrwt>
<rscale>  0 0.20928570E+04</rscale>
<asrwt>0</asrwt>
<pdfrwt beam="1">  1        1 0.19548250E+00 0.20928570E+04</pdfrwt>
<pdfrwt beam="2">  1       -1 0.13258199E+00 0.20928570E+04</pdfrwt>
<totfact> 0.42159862E+00</totfact>
</mgrwt>
</event>
<event>
 6    1  0.9906445E-006  0.2983184E+04  0.7818608E-02  0.8248549E-01
          2   -1    0    0  501    0  0.00000000000E+00  0.00000000000E+00  0.26309035953E+04  0.26309035953E+04  0.00000000000E+00 0. -1.
         -2   -1    0    0    0  501 -0.00000000000E+00 -0.00000000000E+00 -0.84565852844E+03  0.84565852844E+03  0.00000000000E+00 0.  1.
         23    2    1    2    0    0  0.27624508539E+03  0.65885105543E+03  0.24175595077E+04  0.25225088693E+04  0.89782859886E+02 0.  0.
         11    1    3    3    0    0  0.34822465270E+02  0.95643615969E+02  0.24802815687E+03  0.26810123455E+03  0.00000000000E+00 0. -1.
        -11    1    3    3    0    0  0.24142262012E+03  0.56320743946E+03  0.21695313508E+04  0.22544076347E+04  0.00000000000E+00 0.  1.
         22    1    1    2    0    0 -0.27624508539E+03 -0.65885105543E+03 -0.63231444078E+03  0.95405325452E+03  0.00000000000E+00 0.  1.
<mgrwt>
<rscale>  0 0.29831836E+04</rscale>
<asrwt>0</asrwt>
<pdfrwt beam="1">  1        2 0.40475440E+00 0.29831836E+04</pdfrwt>
<pdfrwt beam="2">  1       -2 0.13010131E+00 0.29831836E+04</pdfrwt>
<totfact> 0.10839584E+00</totfact>
</mgrwt>
</event>
<event>
 6    1  0.9906445E-006  0.1670267E+04  0.7818608E-02  0.8778506E-01
         -2   -1    0    0    0  501 -0.00000000000E+00  0.00000000000E+00  0.35937112106E+03  0.35937112106E+03  0.00000000000E+00 0.  1.
          2   -1    0    0  501    0  0.00000000000E+00 -0.00000000000E+00 -0.19407457307E+04  0.19407457307E+04  0.00000000000E+00 0. -1.
         23    2    1    2    0    0 -0.65337041844E+03  0.36176233477E+03 -0.12995904286E+04  0.15018893057E+04  0.94717021546E+02 0.  0.
         11    1    3    3    0    0 -0.36180264345E+03  0.19634465693E+03 -0.62150194784E+03  0.74546431724E+03  0.00000000000E+00 0. -1.
        -11    1    3    3    0    0 -0.29156777499E+03  0.16541767784E+03 -0.67808848071E+03  0.75642498850E+03  0.00000000000E+00 0.  1.
         22    1    1    2    0    0  0.65337041844E+03 -0.36176233477E+03 -0.28178418111E+03  0.79822754605E+03  0.00000000000E+00 0.  1.
<mgrwt>
<rscale>  0 0.16702670E+04</rscale>
<asrwt>0</asrwt>
<pdfrwt beam="1">  1        2 0.29857627E+00 0.16702670E+04</pdfrwt>
<pdfrwt beam="2">  1       -2 0.55287865E-01 0.16702670E+04</pdfrwt>
<totfact> 0.21142829E+01</totfact>
</mgrwt>
</event>
<event>
 6    1  0.9906445E-006  0.2174061E+04  0.7818608E-02  0.8529302E-01
         -2   -1    0    0    0  501 -0.00000000000E+00  0.00000000000E+00  0.17873928171E+04  0.17873928171E+04  0.00000000000E+00 0.  1.
          2   -1    0    0  501    0  0.00000000000E+00 -0.00000000000E+00 -0.66109461911E+03  0.66109461911E+03  0.00000000000E+00 0. -1.
         23    2    1    2    0    0  0.60206897692E+03  0.84094154650E+03  0.93391179065E+03  0.13964977655E+04  0.91351183012E+02 0.  0.
         11    1    3    3    0    0  0.30939362613E+03  0.35536250084E+03  0.43517001797E+03  0.64138901412E+03  0.00000000000E+00 0. -1.
        -11    1    3    3    0    0  0.29267535079E+03  0.48557904566E+03  0.49874177268E+03  0.75510875135E+03  0.00000000000E+00 0.  1.
         22    1    1    2    0    0 -0.60206897692E+03 -0.84094154650E+03  0.19238640732E+03  0.10519896707E+04  0.00000000000E+00 0.  1.
<mgrwt>
<rscale>  0 0.21740614E+04</rscale>
<asrwt>0</asrwt>
<pdfrwt beam="1">  1        2 0.10170687E+00 0.21740614E+04</pdfrwt>
<pdfrwt beam="2">  1       -2 0.27498351E+00 0.21740614E+04</pdfrwt>
<totfact> 0.18225793E+00</totfact>
</mgrwt>
</event>
<event>
 6    1  0.9906445E-006  0.9825430E+03  0.7818608E-02  0.9327901E-01
          2   -1    0    0  501    0  0.00000000000E+00  0.00000000000E+00  0.57085638888E+03  0.57085638888E+03  0.00000000000E+00 0. -1.
         -2   -1    0    0    0  501 -0.00000000000E+00 -0.00000000000E+00 -0.42278182620E+03  0.42278182620E+03  0.00000000000E+00 0.  1.
         23    2    1    2    0    0  0.24677559496E+03 -0.20255542897E+03 -0.29725309908E+03  0.44569330689E+03  0.91412377821E+02 0.  0.
         13    1    3    3    0    0  0.35454489946E+01 -0.24215246129E+02 -0.35868196507E+01  0.24734866663E+02  0.00000000000E+00 0. -1.
        -13    1    3    3    0    0  0.24323014597E+03 -0.17834018284E+03 -0.29366627943E+03  0.42095844023E+03  0.00000000000E+00 0.  1.
         22    1    1    2    0    0 -0.24677559496E+03  0.20255542897E+03  0.44532766176E+03  0.54794490818E+03  0.00000000000E+00 0. -1.
<mgrwt>
<rscale>  0 0.98254304E+03</rscale>
<asrwt>0</asrwt>
<pdfrwt beam="1">  1        2 0.87824060E-01 0.98254304E+03</pdfrwt>
<pdfrwt beam="2">  1       -2 0.65043358E-01 0.98254304E+03</pdfrwt>
<totfact> 0.11480746E+02</totfact>
</mgrwt>
</event>
<event>
 6    1  0.1090638E-005  0.3768081E+04  0.7818608E-02  0.8053040E-01
         -1   -1    0    0    0  501 -0.00000000000E+00  0.00000000000E+00  0.17571713858E+04  0.17571713858E+04  0.00000000000E+00 0.  1.
          1   -1    0    0  501    0  0.00000000000E+00 -0.00000000000E+00 -0.20200695425E+04  0.20200695425E+04  0.00000000000E+00 0. -1.
         23    2    1    2    0    0  0.74693838520E+03 -0.13141554011E+04 -0.12570258056E+04  0.19680391287E+04  0.90237279181E+02 0.  0.
         13    1    3    3    0    0  0.37169786164E+03 -0.60744206817E+03 -0.54168802171E+03  0.89474637714E+03  0.00000000000E+00 0.  1.
        -13    1    3    3    0    0  0.37524052356E+03 -0.70671333291E+03 -0.71533778392E+03  0.10732927516E+04  0.00000000000E+00 0. -1.
         22    1    1    2    0    0 -0.74693838520E+03  0.13141554011E+04  0.99412764891E+03  0.18092017996E+04  0.00000000000E+00 0.  1.
<mgrwt>
<rscale>  0 0.37680809E+04</rscale>
<asrwt>0</asrwt>
<pdfrwt beam="1">  1        1 0.31077993E+00 0.37680809E+04</pdfrwt>
<pdfrwt beam="2">  1       -1 0.27033406E+00 0.37680809E+04</pdfrwt>
<totfact> 0.11845733E-01</totfact>
</mgrwt>
</event>
<event>
 6    1  0.9906445E-006  0.1192842E+04  0.7818608E-02  0.9119145E-01
         -1   -1    0    0    0  501 -0.00000000000E+00  0.00000000000E+00  0.31396190296E+03  0.31396190296E+03  0.00000000000E+00 0.  1.
          1   -1    0    0  501    0  0.00000000000E+00 -0.00000000000E+00 -0.11329965607E+04  0.11329965607E+04  0.00000000000E+00 0. -1.
         23    2    1    2    0    0 -0.87669055787E+02 -0.50647637893E+03 -0.53726026277E+02  0.52505744557E+03  0.92707332458E+02 0.  0.
         11    1    3    3    0    0  0.14578744430E+02 -0.13095791196E+03 -0.30038460457E+02  0.13514741433E+03  0.00000000000E+00 0. -1.
        -11    1    3    3    0    0 -0.10224780022E+03 -0.37551846697E+03 -0.23687565821E+02  0.38991003124E+03  0.00000000000E+00 0.  1.
         22    1    1    2    0    0  0.87669055787E+02  0.50647637893E+03 -0.76530863144E+03  0.92190101807E+03  0.00000000000E+00 0.  1.
<mgrwt>
<rscale>  0 0.11928416E+04</rscale>
<asrwt>0</asrwt>
<pdfrwt beam="1">  1        1 0.17430716E+00 0.11928416E+04</pdfrwt>
<pdfrwt beam="2">  1       -1 0.48301831E-01 0.11928416E+04</pdfrwt>
<totfact> 0.50815098E+01</totfact>
</mgrwt>
</event>
<event>
 6    1  0.9906445E-006  0.9719109E+03  0.7818608E-02  0.9339901E-01
          2   -1    0    0  501    0  0.00000000000E+00  0.00000000000E+00  0.20235242449E+04  0.20235242449E+04  0.00000000000E+00 0. -1.
         -2   -1    0    0    0  501 -0.00000000000E+00 -0.00000000000E+00 -0.11670365588E+03  0.11670365588E+03  0.00000000000E+00 0.  1.
         23    2    1    2    0    0 -0.35153071538E+03 -0.32837024344E+03  0.91278473848E+03  0.10359144793E+04  0.92422773457E+02 0.  0.
         13    1    3    3    0    0 -0.12604580732E+03 -0.63199166071E+02  0.28985642910E+03  0.32233279328E+03  0.00000000000E+00 0.  1.
        -13    1    3    3    0    0 -0.22548490806E+03 -0.26517107737E+03  0.62292830938E+03  0.71358168605E+03  0.00000000000E+00 0. -1.
         22    1    1    2    0    0  0.35153071538E+03  0.32837024344E+03  0.99403585049E+03  0.11043134214E+04  0.00000000000E+00 0. -1.
<mgrwt>
<rscale>  0 0.97191085E+03</rscale>
<asrwt>0</asrwt>
<pdfrwt beam="1">  1        2 0.31131140E+00 0.97191085E+03</pdfrwt>
<pdfrwt beam="2">  1       -2 0.17954410E-01 0.97191085E+03</pdfrwt>
<totfact> 0.16804117E+02</totfact>
</mgrwt>
</event>
<event>
 6    1  0.9983305E-006  0.3935960E+04  0.7818608E-02  0.8017592E-01
          2   -1    0    0  501    0  0.00000000000E+00  0.00000000000E+00  0.19135129400E+04  0.19135129400E+04  0.00000000000E+00 0. -1.
         -2   -1    0    0    0  501 -0.00000000000E+00 -0.00000000000E+00 -0.20239973371E+04  0.20239973371E+04  0.00000000000E+00 0.  1.
         23    2    1    2    0    0 -0.85227394507E+03 -0.17427854334E+04  0.26923048389E+03  0.19606806600E+04  0.90064713785E+02 0.  0.
         11    1    3    3    0    0 -0.41647958548E+03 -0.94109555262E+03  0.16473272985E+03  0.10422345977E+04  0.00000000000E+00 0. -1.
        -11    1    3    3    0    0 -0.43579435959E+03 -0.80168988075E+03  0.10449775405E+03  0.91844606230E+03  0.00000000000E+00 0.  1.
         22    1    1    2    0    0  0.85227394507E+03  0.17427854334E+04 -0.37971488106E+03  0.19768296171E+04  0.00000000000E+00 0.  1.
<mgrwt>
<rscale>  0 0.39359599E+04</rscale>
<asrwt>0</asrwt>
<pdfrwt beam="1">  1        2 0.29438661E+00 0.39359599E+04</pdfrwt>
<pdfrwt beam="2">  1       -2 0.31138420E+00 0.39359599E+04</pdfrwt>
<totfact> 0.16013739E-01</totfact>
</mgrwt>
</event>
<event>
 6    1  0.9906445E-006  0.3098967E+04  0.7818608E-02  0.8216022E-01
          2   -1    0    0  501    0  0.00000000000E+00  0.00000000000E+00  0.19352064911E+04  0.19352064911E+04  0.00000000000E+00 0. -1.
         -2   -1    0    0    0  501 -0.00000000000E+00 -0.00000000000E+00 -0.12406422190E+04  0.12406422190E+04  0.00000000000E+00 0.  1.
         23    2    1    2    0    0 -0.11738615970E+04  0.55042133200E+03  0.12147129222E+04  0.17788987074E+04  0.89657325556E+02 0.  0.
         11    1    3    3    0    0 -0.40184088682E+03  0.18239417982E+03  0.35666680316E+03  0.56741073627E+03  0.00000000000E+00 0.  1.
        -11    1    3    3    0    0 -0.77202071021E+03  0.36802715217E+03  0.85804611905E+03  0.12114879711E+04  0.00000000000E+00 0. -1.
         22    1    1    2    0    0  0.11738615970E+04 -0.55042133200E+03 -0.52014865012E+03  0.13969500027E+04  0.00000000000E+00 0.  1.
<mgrwt>
<rscale>  0 0.30989668E+04</rscale>
<asrwt>0</asrwt>
<pdfrwt beam="1">  1        2 0.29772407E+00 0.30989668E+04</pdfrwt>
<pdfrwt beam="2">  1       -2 0.19086804E+00 0.30989668E+04</pdfrwt>
<totfact> 0.94273710E-01</totfact>
</mgrwt>
</event>
<event>
 6    1  0.9906445E-006  0.1862881E+04  0.7818608E-02  0.8673557E-01
          2   -1    0    0  501    0  0.00000000000E+00  0.00000000000E+00  0.10189519583E+04  0.10189519583E+04  0.00000000000E+00 0.  1.
         -2   -1    0    0    0  501 -0.00000000000E+00 -0.00000000000E+00 -0.85144467291E+03  0.85144467291E+03  0.00000000000E+00 0. -1.
         23    2    1    2    0    0 -0.30922636495E+02 -0.34225784898E+03 -0.78285144564E+03  0.85981345191E+03  0.91247693197E+02 0.  0.
         13    1    3    3    0    0  0.59382267760E+01 -0.21085559478E+03 -0.38205555875E+03  0.43641928733E+03  0.00000000000E+00 0. -1.
        -13    1    3    3    0    0 -0.36860863271E+02 -0.13140225420E+03 -0.40079588690E+03  0.42339416458E+03  0.00000000000E+00 0.  1.
         22    1    1    2    0    0  0.30922636495E+02  0.34225784898E+03  0.95035873099E+03  0.10105831793E+04  0.00000000000E+00 0.  1.
<mgrwt>
<rscale>  0 0.18628808E+04</rscale>
<asrwt>0</asrwt>
<pdfrwt beam="1">  1        2 0.15676184E+00 0.18628808E+04</pdfrwt>
<pdfrwt beam="2">  1       -2 0.13099149E+00 0.18628808E+04</pdfrwt>
<totfact> 0.98018469E+00</totfact>
</mgrwt>
</event>
<event>
 6    1  0.9906445E-006  0.1872356E+04  0.7818608E-02  0.8668740E-01
          3   -1    0    0  501    0  0.00000000000E+00  0.00000000000E+00  0.16760249776E+04  0.16760249776E+04  0.00000000000E+00 0. -1.
         -3   -1    0    0    0  501 -0.00000000000E+00 -0.00000000000E+00 -0.52292116468E+03  0.52292116468E+03  0.00000000000E+00 0.  1.
         23    2    1    2    0    0  0.41025316856E+03  0.79526873555E+03  0.26348949565E+03  0.93713250408E+03  0.89613569455E+02 0.  0.
         13    1    3    3    0    0  0.18403886523E+03  0.44807710089E+03  0.15822336820E+03  0.50958613256E+03  0.00000000000E+00 0. -1.
        -13    1    3    3    0    0  0.22621430333E+03  0.34719163467E+03  0.10526612745E+03  0.42754637152E+03  0.00000000000E+00 0.  1.
         22    1    1    2    0    0 -0.41025316856E+03 -0.79526873555E+03  0.88961431727E+03  0.12618136382E+04  0.00000000000E+00 0. -1.
<mgrwt>
<rscale>  0 0.18723557E+04</rscale>
<asrwt>0</asrwt>
<pdfrwt beam="1">  1        3 0.25784999E+00 0.18723557E+04</pdfrwt>
<pdfrwt beam="2">  1       -3 0.80449411E-01 0.18723557E+04</pdfrwt>
<totfact> 0.23497991E-01</totfact>
</mgrwt>
</event>
<event>
 6    1  0.9906445E-006  0.2030308E+04  0.7818608E-02  0.8592581E-01
          2   -1    0    0  501    0  0.00000000000E+00  0.00000000000E+00  0.10516762254E+04  0.10516762254E+04  0.00000000000E+00 0. -1.
         -2   -1    0    0    0  501 -0.00000000000E+00 -0.00000000000E+00 -0.97989977680E+03  0.97989977680E+03  0.00000000000E+00 0.  1.
         23    2    1    2    0    0 -0.22405022037E+03 -0.26628405970E+03  0.98815915558E+03  0.10513398228E+04  0.88040925601E+02 0.  0.
         11    1    3    3    0    0 -0.91894849718E+02 -0.14826164322E+03  0.59620151576E+03  0.62119435416E+03  0.00000000000E+00 0. -1.
        -11    1    3    3    0    0 -0.13215537065E+03 -0.11802241648E+03  0.39195763982E+03  0.43014546865E+03  0.00000000000E+00 0.  1.
         22    1    1    2    0    0  0.22405022037E+03  0.26628405970E+03 -0.91638270699E+03  0.98023617938E+03  0.00000000000E+00 0.  1.
<mgrwt>
<rscale>  0 0.20303077E+04</rscale>
<asrwt>0</asrwt>
<pdfrwt beam="1">  1        2 0.16179634E+00 0.20303077E+04</pdfrwt>
<pdfrwt beam="2">  1       -2 0.15075381E+00 0.20303077E+04</pdfrwt>
<totfact> 0.63982010E+00</totfact>
</mgrwt>
</event>
<event>
 6    1  0.9906445E-006  0.1350362E+04  0.7818608E-02  0.8990554E-01
          2   -1    0    0  501    0  0.00000000000E+00  0.00000000000E+00  0.16385775655E+04  0.16385775655E+04  0.00000000000E+00 0. -1.
         -2   -1    0    0    0  501 -0.00000000000E+00 -0.00000000000E+00 -0.27821041936E+03  0.27821041936E+03  0.00000000000E+00 0.  1.
         23    2    1    2    0    0  0.22690455634E+03  0.63255675015E+03  0.66354659385E+03  0.94871123069E+03  0.90250746193E+02 0.  0.
         11    1    3    3    0    0  0.12645190504E+03  0.44827019736E+03  0.49349448318E+03  0.67858165246E+03  0.00000000000E+00 0. -1.
        -11    1    3    3    0    0  0.10045265130E+03  0.18428655279E+03  0.17005211067E+03  0.27012957823E+03  0.00000000000E+00 0.  1.
         22    1    1    2    0    0 -0.22690455634E+03 -0.63255675015E+03  0.69682055225E+03  0.96807675413E+03  0.00000000000E+00 0. -1.
<mgrwt>
<rscale>  0 0.13503620E+04</rscale>
<asrwt>0</asrwt>
<pdfrwt beam="1">  1        2 0.25208885E+00 0.13503620E+04</pdfrwt>
<pdfrwt beam="2">  1       -2 0.42801604E-01 0.13503620E+04</pdfrwt>
<totfact> 0.53625942E+01</totfact>
</mgrwt>
</event>
<event>
 6    1  0.9906445E-006  0.5490020E+04  0.7818608E-02  0.7757064E-01
          2   -1    0    0  501    0  0.00000000000E+00  0.00000000000E+00  0.24490882351E+04  0.24490882351E+04  0.00000000000E+00 0.  1.
         -2   -1    0    0    0  501 -0.00000000000E+00 -0.00000000000E+00 -0.30766878718E+04  0.30766878718E+04  0.00000000000E+00 0. -1.
         23    2    1    2    0    0 -0.12513911136E+04  0.11993040718E+04 -0.24553136937E+04  0.30068778061E+04  0.91863107540E+02 0.  0.
         11    1    3    3    0    0 -0.48887792319E+03  0.52873466544E+03 -0.99695558756E+03  0.12298302378E+04  0.00000000000E+00 0.  1.
        -11    1    3    3    0    0 -0.76251319043E+03  0.67056940639E+03 -0.14583581061E+04  0.17770475683E+04  0.00000000000E+00 0. -1.
         22    1    1    2    0    0  0.12513911136E+04 -0.11993040718E+04  0.18277140570E+04  0.25188983008E+04  0.00000000000E+00 0.  1.
<mgrwt>
<rscale>  0 0.54900201E+04</rscale>
<asrwt>0</asrwt>
<pdfrwt beam="1">  1        2 0.37678281E+00 0.54900201E+04</pdfrwt>
<pdfrwt beam="2">  1       -2 0.47333659E+00 0.54900201E+04</pdfrwt>
<totfact> 0.64024434E-03</totfact>
</mgrwt>
</event>
<event>
 6    1  0.9906445E-006  0.1245061E+04  0.7818608E-02  0.9074304E-01
          1   -1    0    0  501    0  0.00000000000E+00  0.00000000000E+00  0.98024010346E+03  0.98024010346E+03  0.00000000000E+00 0. -1.
         -1   -1    0    0    0  501 -0.00000000000E+00 -0.00000000000E+00 -0.39535636991E+03  0.39535636991E+03  0.00000000000E+00 0.  1.
         23    2    1    2    0    0 -0.92582776885E+02  0.36800218312E+03 -0.24662879450E+03  0.46158867163E+03  0.90780846826E+02 0.  0.
         11    1    3    3    0    0 -0.70467038802E+01  0.15535880061E+03 -0.13812390315E+03  0.20800054227E+03  0.00000000000E+00 0.  1.
        -11    1    3    3    0    0 -0.85536073005E+02  0.21264338251E+03 -0.10850489135E+03  0.25358812937E+03  0.00000000000E+00 0. -1.
         22    1    1    2    0    0  0.92582776885E+02 -0.36800218312E+03  0.83151252805E+03  0.91400780174E+03  0.00000000000E+00 0. -1.
<mgrwt>
<rscale>  0 0.12450609E+04</rscale>
<asrwt>0</asrwt>
<pdfrwt beam="1">  1        1 0.15080617E+00 0.12450609E+04</pdfrwt>
<pdfrwt beam="2">  1       -1 0.60824057E-01 0.12450609E+04</pdfrwt>
<totfact> 0.42410234E+01</totfact>
</mgrwt>
</event>
<event>
 6    1  0.9906445E-006  0.1483297E+04  0.7818608E-02  0.8895636E-01
          1   -1    0    0  501    0  0.00000000000E+00  0.00000000000E+00  0.94159583671E+03  0.94159583671E+03  0.00000000000E+00 0. -1.
         -1   -1    0    0    0  501 -0.00000000000E+00 -0.00000000000E+00 -0.58416023307E+03  0.58416023307E+03  0.00000000000E+00 0.  1.
         23    2    1    2    0    0  0.30801563070E+03 -0.59520419774E+03 -0.14037534552E+03  0.69091632056E+03  0.92295496207E+02 0.  0.
         13    1    3    3    0    0  0.12311462820E+03 -0.33378791176E+03 -0.87639331521E+02  0.36640446796E+03  0.00000000000E+00 0. -1.
        -13    1    3    3    0    0  0.18490100250E+03 -0.26141628598E+03 -0.52736013996E+02  0.32451185260E+03  0.00000000000E+00 0.  1.
         22    1    1    2    0    0 -0.30801563070E+03  0.59520419774E+03  0.49781094916E+03  0.83483974921E+03  0.00000000000E+00 0. -1.
<mgrwt>
<rscale>  0 0.14832975E+04</rscale>
<asrwt>0</asrwt>
<pdfrwt beam="1">  1        1 0.14486090E+00 0.14832975E+04</pdfrwt>
<pdfrwt beam="2">  1       -1 0.89870805E-01 0.14832975E+04</pdfrwt>
<totfact> 0.19765694E+01</totfact>
</mgrwt>
</event>
<event>
 6    1  0.9906445E-006  0.1400093E+04  0.7818608E-02  0.8953752E-01
         -2   -1    0    0    0  501 -0.00000000000E+00  0.00000000000E+00  0.49353388179E+03  0.49353388179E+03  0.00000000000E+00 0.  1.
          2   -1    0    0  501    0  0.00000000000E+00 -0.00000000000E+00 -0.99297096620E+03  0.99297096620E+03  0.00000000000E+00 0. -1.
         23    2    1    2    0    0  0.51486435671E+03  0.29855459615E+03  0.13463485844E+03  0.61686849790E+03  0.90443606190E+02 0.  0.
         13    1    3    3    0    0  0.41529611225E+03  0.27001667961E+03  0.87318626873E+02  0.50299543807E+03  0.00000000000E+00 0. -1.
        -13    1    3    3    0    0  0.99568244462E+02  0.28537916534E+02  0.47316231571E+02  0.11387305983E+03  0.00000000000E+00 0.  1.
         22    1    1    2    0    0 -0.51486435671E+03 -0.29855459615E+03 -0.63407194286E+03  0.86963635009E+03  0.00000000000E+00 0. -1.
<mgrwt>
<rscale>  0 0.14000926E+04</rscale>
<asrwt>0</asrwt>
<pdfrwt beam="1">  1        2 0.15276476E+00 0.14000926E+04</pdfrwt>
<pdfrwt beam="2">  1       -2 0.75928291E-01 0.14000926E+04</pdfrwt>
<totfact> 0.38501081E+01</totfact>
</mgrwt>
</event>
<event>
 6    1  0.9906445E-006  0.2672285E+04  0.7818608E-02  0.8344054E-01
         -1   -1    0    0    0  501 -0.00000000000E+00  0.00000000000E+00  0.13567102931E+04  0.13567102931E+04  0.00000000000E+00 0. -1.
          1   -1    0    0  501    0  0.00000000000E+00 -0.00000000000E+00 -0.13158862757E+04  0.13158862757E+04  0.00000000000E+00 0.  1.
         23    2    1    2    0    0  0.11317424104E+04  0.70126246052E+03  0.11235845469E+03  0.13392822407E+04  0.91883491100E+02 0.  0.
         11    1    3    3    0    0  0.57541551970E+03  0.36164531476E+03  0.11459440792E+02  0.67972176130E+03  0.00000000000E+00 0. -1.
        -11    1    3    3    0    0  0.55632689067E+03  0.33961714576E+03  0.10089901389E+03  0.65956047939E+03  0.00000000000E+00 0.  1.
         22    1    1    2    0    0 -0.11317424104E+04 -0.70126246052E+03 -0.71534437253E+02  0.13333143282E+04  0.00000000000E+00 0. -1.
<mgrwt>
<rscale>  0 0.26722848E+04</rscale>
<asrwt>0</asrwt>
<pdfrwt beam="1">  1        1 0.20244404E+00 0.26722848E+04</pdfrwt>
<pdfrwt beam="2">  1       -1 0.20872466E+00 0.26722848E+04</pdfrwt>
<totfact> 0.10115715E+00</totfact>
</mgrwt>
</event>
<event>
 6    1  0.9906445E-006  0.2631050E+04  0.7818608E-02  0.8357730E-01
          2   -1    0    0  501    0  0.00000000000E+00  0.00000000000E+00  0.13689564843E+04  0.13689564843E+04  0.00000000000E+00 0. -1.
         -2   -1    0    0    0  501 -0.00000000000E+00 -0.00000000000E+00 -0.12641786882E+04  0.12641786882E+04  0.00000000000E+00 0.  1.
         23    2    1    2    0    0  0.17320938266E+03 -0.67443350906E+03  0.11676501398E+04  0.13624819281E+04  0.89933904388E+02 0.  0.
         13    1    3    3    0    0  0.10499321174E+03 -0.28997109607E+03  0.45094261047E+03  0.54631131144E+03  0.00000000000E+00 0.  1.
        -13    1    3    3    0    0  0.68216170918E+02 -0.38446241299E+03  0.71670752928E+03  0.81617061667E+03  0.00000000000E+00 0. -1.
         22    1    1    2    0    0 -0.17320938266E+03  0.67443350906E+03 -0.10628723437E+04  0.12706532444E+04  0.00000000000E+00 0.  1.
<mgrwt>
<rscale>  0 0.26310497E+04</rscale>
<asrwt>0</asrwt>
<pdfrwt beam="1">  1        2 0.21060869E+00 0.26310497E+04</pdfrwt>
<pdfrwt beam="2">  1       -2 0.19448903E+00 0.26310497E+04</pdfrwt>
<totfact> 0.19243319E+00</totfact>
</mgrwt>
</event>
<event>
 6    1  0.9906445E-006  0.2446408E+04  0.7818608E-02  0.8422331E-01
         -2   -1    0    0    0  501 -0.00000000000E+00  0.00000000000E+00  0.52059106711E+03  0.52059106711E+03  0.00000000000E+00 0.  1.
          2   -1    0    0  501    0  0.00000000000E+00 -0.00000000000E+00 -0.28740938798E+04  0.28740938798E+04  0.00000000000E+00 0. -1.
         23    2    1    2    0    0 -0.11254640952E+04 -0.14752842621E+03 -0.55193847534E+03  0.12653498094E+04  0.89666010440E+02 0.  0.
         11    1    3    3    0    0 -0.16576794445E+03 -0.24884042444E+01 -0.10939731888E+03  0.19862773457E+03  0.00000000000E+00 0.  1.
        -11    1    3    3    0    0 -0.95969615078E+03 -0.14504002196E+03 -0.44254115646E+03  0.10667220748E+04  0.00000000000E+00 0. -1.
         22    1    1    2    0    0  0.11254640952E+04  0.14752842621E+03 -0.18015643373E+04  0.21293351375E+04  0.00000000000E+00 0. -1.
<mgrwt>
<rscale>  0 0.24464077E+04</rscale>
<asrwt>0</asrwt>
<pdfrwt beam="1">  1        2 0.44216829E+00 0.24464077E+04</pdfrwt>
<pdfrwt beam="2">  1       -2 0.80090934E-01 0.24464077E+04</pdfrwt>
<totfact> 0.25744403E+00</totfact>
</mgrwt>
</event>
<event>
 6    1  0.9906445E-006  0.1514439E+04  0.7818608E-02  0.8874908E-01
         -2   -1    0    0    0  501 -0.00000000000E+00  0.00000000000E+00  0.10194122905E+04  0.10194122905E+04  0.00000000000E+00 0.  1.
          2   -1    0    0  501    0  0.00000000000E+00 -0.00000000000E+00 -0.56246270285E+03  0.56246270285E+03  0.00000000000E+00 0. -1.
         23    2    1    2    0    0  0.58211588596E+03  0.42408927574E+03 -0.29560290858E+01  0.72734366286E+03  0.10153544853E+03 0.  0.
         11    1    3    3    0    0  0.31566099844E+03  0.18123963616E+03 -0.33518004660E+02  0.36553129591E+03  0.00000000000E+00 0.  1.
        -11    1    3    3    0    0  0.26645488752E+03  0.24284963958E+03  0.30561975575E+02  0.36181236695E+03  0.00000000000E+00 0. -1.
         22    1    1    2    0    0 -0.58211588596E+03 -0.42408927574E+03  0.45990561673E+03  0.85453133049E+03  0.00000000000E+00 0. -1.
<mgrwt>
<rscale>  0 0.15144390E+04</rscale>
<asrwt>0</asrwt>
<pdfrwt beam="1">  1        2 0.86532724E-01 0.15144390E+04</pdfrwt>
<pdfrwt beam="2">  1       -2 0.15683266E+00 0.15144390E+04</pdfrwt>
<totfact> 0.13746873E+01</totfact>
</mgrwt>
</event>
<event>
 6    1  0.9906445E-006  0.1506218E+04  0.7818608E-02  0.8880329E-01
          2   -1    0    0  501    0  0.00000000000E+00  0.00000000000E+00  0.11434405787E+04  0.11434405787E+04  0.00000000000E+00 0. -1.
         -2   -1    0    0    0  501 -0.00000000000E+00 -0.00000000000E+00 -0.49602297091E+03  0.49602297091E+03  0.00000000000E+00 0.  1.
         23    2    1    2    0    0  0.51748151675E+03  0.54155613608E+03  0.28144974137E+03  0.80579536147E+03  0.94984414240E+02 0.  0.
         11    1    3    3    0    0  0.38841056324E+03  0.35616589611E+03  0.22461136525E+03  0.57285877543E+03  0.00000000000E+00 0.  1.
        -11    1    3    3    0    0  0.12907095351E+03  0.18539023998E+03  0.56838376121E+02  0.23293658604E+03  0.00000000000E+00 0. -1.
         22    1    1    2    0    0 -0.51748151675E+03 -0.54155613608E+03  0.36596786646E+03  0.83366818818E+03  0.00000000000E+00 0. -1.
<mgrwt>
<rscale>  0 0.15062175E+04</rscale>
<asrwt>0</asrwt>
<pdfrwt beam="1">  1        2 0.17591393E+00 0.15062175E+04</pdfrwt>
<pdfrwt beam="2">  1       -2 0.76311227E-01 0.15062175E+04</pdfrwt>
<totfact> 0.30407496E+01</totfact>
</mgrwt>
</event>
<event>
 6    1  0.9906445E-006  0.1931478E+04  0.7818608E-02  0.8639344E-01
          2   -1    0    0  501    0  0.00000000000E+00  0.00000000000E+00  0.27448054002E+04  0.27448054002E+04  0.00000000000E+00 0. -1.
         -2   -1    0    0    0  501 -0.00000000000E+00 -0.00000000000E+00 -0.33978799638E+03  0.33978799638E+03  0.00000000000E+00 0.  1.
         23    2    1    2    0    0 -0.13691330391E+03  0.89692694948E+03  0.68726482782E+03  0.11419413130E+04  0.92053317656E+02 0.  0.
         11    1    3    3    0    0 -0.55817991693E+02  0.45644648578E+03  0.29310324559E+03  0.54531509713E+03  0.00000000000E+00 0.  1.
        -11    1    3    3    0    0 -0.81095312220E+02  0.44048046369E+03  0.39416158223E+03  0.59662621587E+03  0.00000000000E+00 0. -1.
         22    1    1    2    0    0  0.13691330391E+03 -0.89692694948E+03  0.17177525760E+04  0.19426520835E+04  0.00000000000E+00 0. -1.
<mgrwt>
<rscale>  0 0.19314781E+04</rscale>
<asrwt>0</asrwt>
<pdfrwt beam="1">  1        2 0.42227774E+00 0.19314781E+04</pdfrwt>
<pdfrwt beam="2">  1       -2 0.52275078E-01 0.19314781E+04</pdfrwt>
<totfact> 0.80687639E+00</totfact>
</mgrwt>
</event>
<event>
 6    1  0.9906445E-006  0.4074363E+04  0.7818608E-02  0.7989711E-01
          2   -1    0    0  501    0  0.00000000000E+00  0.00000000000E+00  0.19919739277E+04  0.19919739277E+04  0.00000000000E+00 0. -1.
         -2   -1    0    0    0  501 -0.00000000000E+00 -0.00000000000E+00 -0.20834153195E+04  0.20834153195E+04  0.00000000000E+00 0.  1.
         23    2    1    2    0    0 -0.24962302202E+03  0.46804381339E+03  0.19200563546E+04  0.19951248773E+04  0.11193840566E+03 0.  0.
         11    1    3    3    0    0 -0.12693434439E+03  0.29646940494E+03  0.13286631477E+04  0.13672425520E+04  0.00000000000E+00 0. -1.
        -11    1    3    3    0    0 -0.12268867763E+03  0.17157440845E+03  0.59139320692E+03  0.62788232532E+03  0.00000000000E+00 0.  1.
         22    1    1    2    0    0  0.24962302202E+03 -0.46804381339E+03 -0.20114977465E+04  0.20802643698E+04  0.00000000000E+00 0.  1.
<mgrwt>
<rscale>  0 0.40743633E+04</rscale>
<asrwt>0</asrwt>
<pdfrwt beam="1">  1        2 0.30645753E+00 0.40743633E+04</pdfrwt>
<pdfrwt beam="2">  1       -2 0.32052543E+00 0.40743633E+04</pdfrwt>
<totfact> 0.12579528E-01</totfact>
</mgrwt>
</event>
<event>
 6    1  0.9906445E-006  0.9801798E+03  0.7818608E-02  0.9330554E-01
          2   -1    0    0  501    0  0.00000000000E+00  0.00000000000E+00  0.51985665091E+03  0.51985665091E+03  0.00000000000E+00 0.  1.
         -2   -1    0    0    0  501 -0.00000000000E+00 -0.00000000000E+00 -0.46202759476E+03  0.46202759476E+03  0.00000000000E+00 0. -1.
         23    2    1    2    0    0 -0.76214471943E+02  0.22765108240E+03 -0.39402457948E+03  0.47021504679E+03  0.90626485922E+02 0.  0.
         13    1    3    3    0    0 -0.44140801191E+02  0.57276630173E+02 -0.60337195086E+02  0.94178552784E+02  0.00000000000E+00 0. -1.
        -13    1    3    3    0    0 -0.32073670752E+02  0.17037445222E+03 -0.33368738439E+03  0.37603649401E+03  0.00000000000E+00 0.  1.
         22    1    1    2    0    0  0.76214471943E+02 -0.22765108240E+03  0.45185363563E+03  0.51166919888E+03  0.00000000000E+00 0.  1.
<mgrwt>
<rscale>  0 0.98017982E+03</rscale>
<asrwt>0</asrwt>
<pdfrwt beam="1">  1        2 0.79977947E-01 0.98017982E+03</pdfrwt>
<pdfrwt beam="2">  1       -2 0.71081168E-01 0.98017982E+03</pdfrwt>
<totfact> 0.10578780E+02</totfact>
</mgrwt>
</event>
<event>
 6    1  0.9906445E-006  0.3262990E+04  0.7818608E-02  0.8172377E-01
          2   -1    0    0  501    0  0.00000000000E+00  0.00000000000E+00  0.13048096060E+04  0.13048096060E+04  0.00000000000E+00 0. -1.
         -2   -1    0    0    0  501 -0.00000000000E+00 -0.00000000000E+00 -0.20399723117E+04  0.20399723117E+04  0.00000000000E+00 0.  1.
         23    2    1    2    0    0 -0.68916893521E+03 -0.14152932941E+04 -0.80231860493E+03  0.17691808119E+04  0.90976215470E+02 0.  0.
         11    1    3    3    0    0 -0.37904668487E+03 -0.85707317980E+03 -0.44515338132E+03  0.10375029435E+04  0.00000000000E+00 0.  1.
        -11    1    3    3    0    0 -0.31012225034E+03 -0.55822011433E+03 -0.35716522361E+03  0.73167786843E+03  0.00000000000E+00 0. -1.
         22    1    1    2    0    0  0.68916893521E+03  0.14152932941E+04  0.67155899215E+02  0.15756011058E+04  0.00000000000E+00 0. -1.
<mgrwt>
<rscale>  0 0.32629897E+04</rscale>
<asrwt>0</asrwt>
<pdfrwt beam="1">  1        2 0.20073994E+00 0.32629897E+04</pdfrwt>
<pdfrwt beam="2">  1       -2 0.31384189E+00 0.32629897E+04</pdfrwt>
<totfact> 0.35951361E-01</totfact>
</mgrwt>
</event>
<event>
 6    1  0.1013139E-005  0.3812594E+04  0.7818608E-02  0.8043458E-01
         -2   -1    0    0    0  501 -0.00000000000E+00  0.00000000000E+00  0.20340810855E+04  0.20340810855E+04  0.00000000000E+00 0.  1.
          2   -1    0    0  501    0  0.00000000000E+00 -0.00000000000E+00 -0.17865407001E+04  0.17865407001E+04  0.00000000000E+00 0. -1.
         23    2    1    2    0    0 -0.12357634489E+04  0.15840821043E+03  0.15682968697E+04  0.20049670404E+04  0.90184803317E+02 0.  0.
         13    1    3    3    0    0 -0.89226074968E+03  0.73914919551E+02  0.11141392124E+04  0.14293001243E+04  0.00000000000E+00 0.  1.
        -13    1    3    3    0    0 -0.34350269919E+03  0.84493290878E+02  0.45415765735E+03  0.57566691610E+03  0.00000000000E+00 0. -1.
         22    1    1    2    0    0  0.12357634489E+04 -0.15840821043E+03 -0.13207564844E+04  0.18156547452E+04  0.00000000000E+00 0. -1.
<mgrwt>
<rscale>  0 0.38125942E+04</rscale>
<asrwt>0</asrwt>
<pdfrwt beam="1">  1        2 0.27485242E+00 0.38125942E+04</pdfrwt>
<pdfrwt beam="2">  1       -2 0.31293555E+00 0.38125942E+04</pdfrwt>
<totfact> 0.18611560E-01</totfact>
</mgrwt>
</event>
<event>
 6    1  0.9906445E-006  0.3576074E+04  0.7818608E-02  0.8095994E-01
         -2   -1    0    0    0  501 -0.00000000000E+00  0.00000000000E+00  0.13204090907E+04  0.13204090907E+04  0.00000000000E+00 0.  1.
          2   -1    0    0  501    0  0.00000000000E+00 -0.00000000000E+00 -0.24212771160E+04  0.24212771160E+04  0.00000000000E+00 0. -1.
         23    2    1    2    0    0 -0.65871598092E+03 -0.50970768603E+03  0.11032576197E+04  0.13854437472E+04  0.92565288126E+02 0.  0.
         13    1    3    3    0    0 -0.39664878649E+03 -0.26542564159E+03  0.57688885475E+03  0.74872009575E+03  0.00000000000E+00 0. -1.
        -13    1    3    3    0    0 -0.26206719443E+03 -0.24428204444E+03  0.52636876493E+03  0.63672365146E+03  0.00000000000E+00 0.  1.
         22    1    1    2    0    0  0.65871598092E+03  0.50970768603E+03 -0.22041256450E+04  0.23562424594E+04  0.00000000000E+00 0. -1.
<mgrwt>
<rscale>  0 0.35760740E+04</rscale>
<asrwt>0</asrwt>
<pdfrwt beam="1">  1        2 0.37250417E+00 0.35760740E+04</pdfrwt>
<pdfrwt beam="2">  1       -2 0.20313986E+00 0.35760740E+04</pdfrwt>
<totfact> 0.40037523E-01</totfact>
</mgrwt>
</event>
<event>
 6    1  0.9906445E-006  0.2275962E+04  0.7818608E-02  0.8487460E-01
          2   -1    0    0  501    0  0.00000000000E+00  0.00000000000E+00  0.99318871395E+03  0.99318871395E+03  0.00000000000E+00 0. -1.
         -2   -1    0    0    0  501 -0.00000000000E+00 -0.00000000000E+00 -0.13038815704E+04  0.13038815704E+04  0.00000000000E+00 0.  1.
         23    2    1    2    0    0  0.51001967379E+02  0.88318398278E+03  0.56404406546E+03  0.10529722855E+04  0.89385559248E+02 0.  0.
         11    1    3    3    0    0  0.26282948997E+02  0.61738871772E+03  0.44016591718E+03  0.75868679758E+03  0.00000000000E+00 0. -1.
        -11    1    3    3    0    0  0.24719018382E+02  0.26579526505E+03  0.12387814828E+03  0.29428548795E+03  0.00000000000E+00 0.  1.
         22    1    1    2    0    0 -0.51001967379E+02 -0.88318398278E+03 -0.87473692192E+03  0.12440979988E+04  0.00000000000E+00 0.  1.
<mgrwt>
<rscale>  0 0.22759617E+04</rscale>
<asrwt>0</asrwt>
<pdfrwt beam="1">  1        2 0.15279826E+00 0.22759617E+04</pdfrwt>
<pdfrwt beam="2">  1       -2 0.20059717E+00 0.22759617E+04</pdfrwt>
<totfact> 0.30457392E+00</totfact>
</mgrwt>
</event>
<event>
 6    1  0.9906445E-006  0.1534279E+04  0.7818608E-02  0.8861973E-01
          2   -1    0    0  501    0  0.00000000000E+00  0.00000000000E+00  0.12361865339E+04  0.12361865339E+04  0.00000000000E+00 0. -1.
         -2   -1    0    0    0  501 -0.00000000000E+00 -0.00000000000E+00 -0.47606302430E+03  0.47606302430E+03  0.00000000000E+00 0.  1.
         23    2    1    2    0    0 -0.53066006665E+03 -0.55011441362E+03  0.39184013378E+03  0.86380473420E+03  0.91618524148E+02 0.  0.
         13    1    3    3    0    0 -0.30887008878E+03 -0.25477831739E+03  0.21021356870E+03  0.45221949009E+03  0.00000000000E+00 0. -1.
        -13    1    3    3    0    0 -0.22178997788E+03 -0.29533609623E+03  0.18162656508E+03  0.41158524411E+03  0.00000000000E+00 0.  1.
         22    1    1    2    0    0  0.53066006665E+03  0.55011441362E+03  0.36828337578E+03  0.84844482395E+03  0.00000000000E+00 0. -1.
<mgrwt>
<rscale>  0 0.15342786E+04</rscale>
<asrwt>0</asrwt>
<pdfrwt beam="1">  1        2 0.19018254E+00 0.15342786E+04</pdfrwt>
<pdfrwt beam="2">  1       -2 0.73240466E-01 0.15342786E+04</pdfrwt>
<totfact> 0.29235122E+01</totfact>
</mgrwt>
</event>
<event>
 6    1  0.9906445E-006  0.2228231E+04  0.7818608E-02  0.8506769E-01
          2   -1    0    0  501    0  0.00000000000E+00  0.00000000000E+00  0.14818021011E+04  0.14818021011E+04  0.00000000000E+00 0. -1.
         -2   -1    0    0    0  501 -0.00000000000E+00 -0.00000000000E+00 -0.83766447647E+03  0.83766447647E+03  0.00000000000E+00 0.  1.
         23    2    1    2    0    0  0.17169136686E+03 -0.65303979840E+03  0.12425837394E+04  0.14172046113E+04  0.92280318082E+02 0.  0.
         11    1    3    3    0    0  0.70539148773E+02 -0.21573898308E+03  0.50706385129E+03  0.55554732438E+03  0.00000000000E+00 0.  1.
        -11    1    3    3    0    0  0.10115221809E+03 -0.43730081532E+03  0.73551988806E+03  0.86165728688E+03  0.00000000000E+00 0. -1.
         22    1    1    2    0    0 -0.17169136686E+03  0.65303979840E+03 -0.59844611468E+03  0.90226196635E+03  0.00000000000E+00 0.  1.
<mgrwt>
<rscale>  0 0.22282307E+04</rscale>
<asrwt>0</asrwt>
<pdfrwt beam="1">  1        2 0.22796955E+00 0.22282307E+04</pdfrwt>
<pdfrwt beam="2">  1       -2 0.12887146E+00 0.22282307E+04</pdfrwt>
<totfact> 0.52638940E+00</totfact>
</mgrwt>
</event>
<event>
 6    1  0.9906445E-006  0.2559642E+04  0.7818608E-02  0.8382041E-01
          1   -1    0    0  501    0  0.00000000000E+00  0.00000000000E+00  0.23904795190E+04  0.23904795190E+04  0.00000000000E+00 0. -1.
         -1   -1    0    0    0  501 -0.00000000000E+00 -0.00000000000E+00 -0.68519365024E+03  0.68519365024E+03  0.00000000000E+00 0.  1.
         23    2    1    2    0    0 -0.52650990844E+03 -0.83405952634E+03  0.18306182005E+04  0.20814014908E+04  0.90560436830E+02 0.  0.
         13    1    3    3    0    0 -0.23742989152E+03 -0.32184093483E+03  0.81263672596E+03  0.90572235762E+03  0.00000000000E+00 0. -1.
        -13    1    3    3    0    0 -0.28908001692E+03 -0.51221859150E+03  0.10179814745E+04  0.11756791332E+04  0.00000000000E+00 0.  1.
         22    1    1    2    0    0  0.52650990844E+03  0.83405952634E+03 -0.12533233176E+03  0.99427167844E+03  0.00000000000E+00 0. -1.
<mgrwt>
<rscale>  0 0.25596417E+04</rscale>
<asrwt>0</asrwt>
<pdfrwt beam="1">  1        1 0.36776608E+00 0.25596417E+04</pdfrwt>
<pdfrwt beam="2">  1       -1 0.10541441E+00 0.25596417E+04</pdfrwt>
<totfact> 0.12020975E+00</totfact>
</mgrwt>
</event>
<event>
 6    1  0.9906445E-006  0.1247044E+04  0.7818608E-02  0.9072647E-01
         -1   -1    0    0    0  501 -0.00000000000E+00  0.00000000000E+00  0.81963988201E+03  0.81963988201E+03  0.00000000000E+00 0.  1.
          1   -1    0    0  501    0  0.00000000000E+00 -0.00000000000E+00 -0.47432993206E+03  0.47432993206E+03  0.00000000000E+00 0. -1.
         23    2    1    2    0    0 -0.47182680012E+03 -0.36861044591E+03  0.34150458714E+03  0.69521387805E+03  0.90569106438E+02 0.  0.
         11    1    3    3    0    0 -0.22518870971E+03 -0.18725153217E+03  0.21800826554E+03  0.36510367723E+03  0.00000000000E+00 0. -1.
        -11    1    3    3    0    0 -0.24663809042E+03 -0.18135891373E+03  0.12349632160E+03  0.33011020082E+03  0.00000000000E+00 0.  1.
         22    1    1    2    0    0  0.47182680012E+03  0.36861044591E+03  0.38053628071E+01  0.59875593603E+03  0.00000000000E+00 0. -1.
<mgrwt>
<rscale>  0 0.12470441E+04</rscale>
<asrwt>0</asrwt>
<pdfrwt beam="1">  1        1 0.72973836E-01 0.12470441E+04</pdfrwt>
<pdfrwt beam="2">  1       -1 0.12609844E+00 0.12470441E+04</pdfrwt>
<totfact> 0.25747053E+01</totfact>
</mgrwt>
</event>
<event>
 6    1  0.9906445E-006  0.3093224E+04  0.7818608E-02  0.8217600E-01
         -1   -1    0    0    0  501 -0.00000000000E+00  0.00000000000E+00  0.91130256048E+03  0.91130256048E+03  0.00000000000E+00 0.  1.
          1   -1    0    0  501    0  0.00000000000E+00 -0.00000000000E+00 -0.26248230388E+04  0.26248230388E+04  0.00000000000E+00 0. -1.
         23    2    1    2    0    0  0.84606363464E+03  0.73305052407E+02 -0.23331904274E+04  0.24848463071E+04  0.97397612319E+02 0.  0.
         11    1    3    3    0    0  0.59741618274E+03  0.94605125959E+02 -0.16175135337E+04  0.17269065571E+04  0.00000000000E+00 0. -1.
        -11    1    3    3    0    0  0.24864745190E+03 -0.21300073551E+02 -0.71567689364E+03  0.75793974996E+03  0.00000000000E+00 0.  1.
         22    1    1    2    0    0 -0.84606363464E+03 -0.73305052407E+02  0.61966994902E+03  0.10512792922E+04  0.00000000000E+00 0.  1.
<mgrwt>
<rscale>  0 0.30932235E+04</rscale>
<asrwt>0</asrwt>
<pdfrwt beam="1">  1        1 0.40381893E+00 0.30932235E+04</pdfrwt>
<pdfrwt beam="2">  1       -1 0.14020039E+00 0.30932235E+04</pdfrwt>
<totfact> 0.39066194E-01</totfact>
</mgrwt>
</event>
<event>
 6    1  0.1003975E-005  0.3501062E+04  0.7818608E-02  0.8113538E-01
          2   -1    0    0  501    0  0.00000000000E+00  0.00000000000E+00  0.14911970042E+04  0.14911970042E+04  0.00000000000E+00 0. -1.
         -2   -1    0    0    0  501 -0.00000000000E+00 -0.00000000000E+00 -0.20549652237E+04  0.20549652237E+04  0.00000000000E+00 0.  1.
         23    2    1    2    0    0 -0.14522371519E+04 -0.75419917126E+03  0.34439038165E+03  0.16746491555E+04  0.89643312845E+02 0.  0.
         13    1    3    3    0    0 -0.56887567284E+03 -0.29885347194E+03  0.90718640381E+02  0.64897056987E+03  0.00000000000E+00 0. -1.
        -13    1    3    3    0    0 -0.88336147909E+03 -0.45534569933E+03  0.25367174127E+03  0.10256785856E+04  0.00000000000E+00 0.  1.
         22    1    1    2    0    0  0.14522371519E+04  0.75419917126E+03 -0.90815860115E+03  0.18715130724E+04  0.00000000000E+00 0.  1.
<mgrwt>
<rscale>  0 0.35010615E+04</rscale>
<asrwt>0</asrwt>
<pdfrwt beam="1">  1        2 0.22941492E+00 0.35010615E+04</pdfrwt>
<pdfrwt beam="2">  1       -2 0.31614849E+00 0.35010615E+04</pdfrwt>
<totfact> 0.26677512E-01</totfact>
</mgrwt>
</event>
<event>
 6    1  0.9906445E-006  0.4219580E+04  0.7818608E-02  0.7961658E-01
          1   -1    0    0  501    0  0.00000000000E+00  0.00000000000E+00  0.26435099833E+04  0.26435099833E+04  0.00000000000E+00 0. -1.
         -1   -1    0    0    0  501 -0.00000000000E+00 -0.00000000000E+00 -0.16838268761E+04  0.16838268761E+04  0.00000000000E+00 0.  1.
         23    2    1    2    0    0 -0.11541603175E+04 -0.28408100621E+03 -0.13061990149E+04  0.17686243222E+04  0.95331367798E+02 0.  0.
         11    1    3    3    0    0 -0.15073056265E+03 -0.70080667822E+02 -0.17097415622E+03  0.23845998535E+03  0.00000000000E+00 0. -1.
        -11    1    3    3    0    0 -0.10034297549E+04 -0.21400033839E+03 -0.11352248587E+04  0.15301643368E+04  0.00000000000E+00 0.  1.
         22    1    1    2    0    0  0.11541603175E+04  0.28408100621E+03  0.22658821222E+04  0.25587125372E+04  0.00000000000E+00 0. -1.
<mgrwt>
<rscale>  0 0.42195797E+04</rscale>
<asrwt>0</asrwt>
<pdfrwt beam="1">  1        1 0.40669385E+00 0.42195797E+04</pdfrwt>
<pdfrwt beam="2">  1       -1 0.25905029E+00 0.42195797E+04</pdfrwt>
<totfact> 0.50321856E-02</totfact>
</mgrwt>
</event>
<event>
 6    1  0.9906445E-006  0.1442190E+04  0.7818608E-02  0.8923833E-01
          1   -1    0    0  501    0  0.00000000000E+00  0.00000000000E+00  0.14438230959E+04  0.14438230959E+04  0.00000000000E+00 0. -1.
         -1   -1    0    0    0  501 -0.00000000000E+00 -0.00000000000E+00 -0.36013953587E+03  0.36013953587E+03  0.00000000000E+00 0.  1.
         23    2    1    2    0    0 -0.46126973823E+03  0.52679718951E+03  0.74315762740E+03  0.10253465768E+04  0.93633824700E+02 0.  0.
         13    1    3    3    0    0 -0.24463797671E+03  0.31816213239E+03  0.48027441530E+03  0.62589008310E+03  0.00000000000E+00 0. -1.
        -13    1    3    3    0    0 -0.21663176152E+03  0.20863505712E+03  0.26288321210E+03  0.39945649370E+03  0.00000000000E+00 0.  1.
         22    1    1    2    0    0  0.46126973823E+03 -0.52679718951E+03  0.34052593267E+03  0.77861605500E+03  0.00000000000E+00 0. -1.
<mgrwt>
<rscale>  0 0.14421897E+04</rscale>
<asrwt>0</asrwt>
<pdfrwt beam="1">  1        1 0.22212663E+00 0.14421897E+04</pdfrwt>
<pdfrwt beam="2">  1       -1 0.55406083E-01 0.14421897E+04</pdfrwt>
<totfact> 0.22910569E+01</totfact>
</mgrwt>
</event>
<event>
 6    1  0.9906445E-006  0.3339252E+03  0.7818608E-02  0.1069413E+00
          3   -1    0    0  501    0  0.00000000000E+00  0.00000000000E+00  0.27079389823E+03  0.27079389823E+03  0.00000000000E+00 0. -1.
         -3   -1    0    0    0  501 -0.00000000000E+00 -0.00000000000E+00 -0.10294361406E+03  0.10294361406E+03  0.00000000000E+00 0.  1.
         23    2    1    2    0    0  0.18711417404E+02 -0.81716345153E+02 -0.55202723490E+02  0.13545129274E+03  0.90950721920E+02 0.  0.
         11    1    3    3    0    0  0.13080472129E+02 -0.28765024093E+02  0.24230983097E+02  0.39820420691E+02  0.00000000000E+00 0.  1.
        -11    1    3    3    0    0  0.56309452746E+01 -0.52951321060E+02 -0.79433706586E+02  0.95630872048E+02  0.00000000000E+00 0. -1.
         22    1    1    2    0    0 -0.18711417404E+02  0.81716345153E+02  0.22305300766E+03  0.23828621956E+03  0.00000000000E+00 0. -1.
<mgrwt>
<rscale>  0 0.33392516E+03</rscale>
<asrwt>0</asrwt>
<pdfrwt beam="1">  1        3 0.41660599E-01 0.33392516E+03</pdfrwt>
<pdfrwt beam="2">  1       -3 0.15837479E-01 0.33392516E+03</pdfrwt>
<totfact> 0.50094304E+02</totfact>
</mgrwt>
</event>
<event>
 6    1  0.9906445E-006  0.2706835E+04  0.7818608E-02  0.8332791E-01
          1   -1    0    0  501    0  0.00000000000E+00  0.00000000000E+00  0.13296513491E+04  0.13296513491E+04  0.00000000000E+00 0. -1.
         -1   -1    0    0    0  501 -0.00000000000E+00 -0.00000000000E+00 -0.13776084763E+04  0.13776084763E+04  0.00000000000E+00 0.  1.
         23    2    1    2    0    0  0.28559303809E+03 -0.51891880460E+03 -0.12393773565E+04  0.13767252442E+04  0.92065503740E+02 0.  0.
         11    1    3    3    0    0  0.44745214228E+02 -0.34469112574E+02 -0.87891048151E+02  0.10447530935E+03  0.00000000000E+00 0. -1.
        -11    1    3    3    0    0  0.24084782386E+03 -0.48444969203E+03 -0.11514863084E+04  0.12722499349E+04  0.00000000000E+00 0.  1.
         22    1    1    2    0    0 -0.28559303809E+03  0.51891880460E+03  0.11914202293E+04  0.13305345813E+04  0.00000000000E+00 0. -1.
<mgrwt>
<rscale>  0 0.27068350E+04</rscale>
<asrwt>0</asrwt>
<pdfrwt beam="1">  1        1 0.20456174E+00 0.27068350E+04</pdfrwt>
<pdfrwt beam="2">  1       -1 0.21193977E+00 0.27068350E+04</pdfrwt>
<totfact> 0.93770120E-01</totfact>
</mgrwt>
</event>
<event>
 6    1  0.9906445E-006  0.2323165E+04  0.7818608E-02  0.8468843E-01
         -1   -1    0    0    0  501 -0.00000000000E+00  0.00000000000E+00  0.11332039298E+04  0.11332039298E+04  0.00000000000E+00 0.  1.
          1   -1    0    0  501    0  0.00000000000E+00 -0.00000000000E+00 -0.11906714102E+04  0.11906714102E+04  0.00000000000E+00 0. -1.
         23    2    1    2    0    0 -0.83465899075E+03  0.48596577977E+03 -0.67098982983E+03  0.11796603064E+04  0.92480899460E+02 0.  0.
         13    1    3    3    0    0 -0.15477312777E+03  0.11079117017E+03 -0.17265095211E+03  0.25697812306E+03  0.00000000000E+00 0. -1.
        -13    1    3    3    0    0 -0.67988586298E+03  0.37517460960E+03 -0.49833887773E+03  0.92268218332E+03  0.00000000000E+00 0.  1.
         22    1    1    2    0    0  0.83465899075E+03 -0.48596577977E+03  0.61352234947E+03  0.11442150337E+04  0.00000000000E+00 0.  1.
<mgrwt>
<rscale>  0 0.23231647E+04</rscale>
<asrwt>0</asrwt>
<pdfrwt beam="1">  1        1 0.18318022E+00 0.23231647E+04</pdfrwt>
<pdfrwt beam="2">  1       -1 0.17433907E+00 0.23231647E+04</pdfrwt>
<totfact> 0.22397456E+00</totfact>
</mgrwt>
</event>
<event>
 6    1  0.9906445E-006  0.5144121E+04  0.7818608E-02  0.7806652E-01
         -1   -1    0    0    0  501 -0.00000000000E+00  0.00000000000E+00  0.32591476978E+04  0.32591476978E+04  0.00000000000E+00 0.  1.
          1   -1    0    0  501    0  0.00000000000E+00 -0.00000000000E+00 -0.20298240537E+04  0.20298240537E+04  0.00000000000E+00 0. -1.
         23    2    1    2    0    0  0.22615750384E+04 -0.11798708036E+04  0.94725149116E+03  0.27225771078E+04  0.91235701857E+02 0.  0.
         13    1    3    3    0    0  0.11753355783E+04 -0.60610907014E+03  0.44288493535E+03  0.13946071104E+04  0.00000000000E+00 0. -1.
        -13    1    3    3    0    0  0.10862394601E+04 -0.57376173342E+03  0.50436655581E+03  0.13279699974E+04  0.00000000000E+00 0.  1.
         22    1    1    2    0    0 -0.22615750384E+04  0.11798708036E+04  0.28207215290E+03  0.25663946436E+04  0.00000000000E+00 0.  1.
<mgrwt>
<rscale>  0 0.51441215E+04</rscale>
<asrwt>0</asrwt>
<pdfrwt beam="1">  1        1 0.31228062E+00 0.51441215E+04</pdfrwt>
<pdfrwt beam="2">  1       -1 0.50140734E+00 0.51441215E+04</pdfrwt>
<totfact> 0.29827117E-03</totfact>
</mgrwt>
</event>
<event>
 6    1  0.9906445E-006  0.5325076E+04  0.7818608E-02  0.7780228E-01
         -1   -1    0    0    0  501 -0.00000000000E+00  0.00000000000E+00  0.19616992356E+04  0.19616992356E+04  0.00000000000E+00 0.  1.
          1   -1    0    0  501    0  0.00000000000E+00 -0.00000000000E+00 -0.36137585632E+04  0.36137585632E+04  0.00000000000E+00 0. -1.
         23    2    1    2    0    0  0.22147007569E+04  0.19976109797E+03  0.70543393591E+03  0.23346896142E+04  0.91294128908E+02 0.  0.
         11    1    3    3    0    0  0.10144525212E+04  0.13685246694E+03  0.33022616421E+03  0.10755890642E+04  0.00000000000E+00 0.  1.
        -11    1    3    3    0    0  0.12002482357E+04  0.62908631025E+02  0.37520777170E+03  0.12591005501E+04  0.00000000000E+00 0. -1.
         22    1    1    2    0    0 -0.22147007569E+04 -0.19976109797E+03 -0.23574932635E+04  0.32407681846E+04  0.00000000000E+00 0. -1.
<mgrwt>
<rscale>  0 0.53250756E+04</rscale>
<asrwt>0</asrwt>
<pdfrwt beam="1">  1        1 0.55596285E+00 0.53250756E+04</pdfrwt>
<pdfrwt beam="2">  1       -1 0.30179988E+00 0.53250756E+04</pdfrwt>
<totfact> 0.45808648E-03</totfact>
</mgrwt>
</event>
<event>
 6    1  0.9906445E-006  0.2300521E+04  0.7818608E-02  0.8477716E-01
          2   -1    0    0  501    0  0.00000000000E+00  0.00000000000E+00  0.37060348904E+04  0.37060348904E+04  0.00000000000E+00 0.  1.
         -2   -1    0    0    0  501 -0.00000000000E+00 -0.00000000000E+00 -0.35701206744E+03  0.35701206744E+03  0.00000000000E+00 0. -1.
         23    2    1    2    0    0  0.82671139471E+03  0.92939219776E+02  0.30755028226E+04  0.31873171940E+04  0.90464658263E+02 0.  0.
         13    1    3    3    0    0  0.56407008343E+03  0.49015412482E+02  0.19346968324E+04  0.20158445880E+04  0.00000000000E+00 0. -1.
        -13    1    3    3    0    0  0.26264131128E+03  0.43923807294E+02  0.11408059902E+04  0.11714726060E+04  0.00000000000E+00 0.  1.
         22    1    1    2    0    0 -0.82671139471E+03 -0.92939219776E+02  0.27352000035E+03  0.87572976386E+03  0.00000000000E+00 0.  1.
<mgrwt>
<rscale>  0 0.23005210E+04</rscale>
<asrwt>0</asrwt>
<pdfrwt beam="1">  1        2 0.57015919E+00 0.23005210E+04</pdfrwt>
<pdfrwt beam="2">  1       -2 0.54924936E-01 0.23005210E+04</pdfrwt>
<totfact> 0.16392213E+00</totfact>
</mgrwt>
</event>
<event>
 6    1  0.9906445E-006  0.1272337E+04  0.7818608E-02  0.9051794E-01
          2   -1    0    0  501    0  0.00000000000E+00  0.00000000000E+00  0.11887852143E+04  0.11887852143E+04  0.00000000000E+00 0. -1.
         -2   -1    0    0    0  501 -0.00000000000E+00 -0.00000000000E+00 -0.34044031712E+03  0.34044031712E+03  0.00000000000E+00 0.  1.
         23    2    1    2    0    0  0.17446629122E+03  0.45037276804E+03  0.91731877702E+03  0.10413407981E+04  0.98197770239E+02 0.  0.
         11    1    3    3    0    0  0.11150860274E+03  0.16335653002E+03  0.33330322546E+03  0.38757007687E+03  0.00000000000E+00 0. -1.
        -11    1    3    3    0    0  0.62957688481E+02  0.28701623803E+03  0.58401555155E+03  0.65377072119E+03  0.00000000000E+00 0.  1.
         22    1    1    2    0    0 -0.17446629122E+03 -0.45037276804E+03 -0.68973879807E+02  0.48788473338E+03  0.00000000000E+00 0.  1.
<mgrwt>
<rscale>  0 0.12723371E+04</rscale>
<asrwt>0</asrwt>
<pdfrwt beam="1">  1        2 0.18289003E+00 0.12723371E+04</pdfrwt>
<pdfrwt beam="2">  1       -2 0.52375434E-01 0.12723371E+04</pdfrwt>
<totfact> 0.64979085E+01</totfact>
</mgrwt>
</event>
<event>
 6    1  0.9906445E-006  0.4249457E+04  0.7818608E-02  0.7956031E-01
          2   -1    0    0  501    0  0.00000000000E+00  0.00000000000E+00  0.27996228870E+04  0.27996228870E+04  0.00000000000E+00 0. -1.
         -2   -1    0    0    0  501 -0.00000000000E+00 -0.00000000000E+00 -0.16125279662E+04  0.16125279662E+04  0.00000000000E+00 0.  1.
         23    2    1    2    0    0  0.19175327482E+04  0.86809529953E+03  0.88714770874E+03  0.22860065449E+04  0.90959203002E+02 0.  0.
         11    1    3    3    0    0  0.54688404834E+03  0.23321877267E+03  0.20877056910E+03  0.63012562936E+03  0.00000000000E+00 0. -1.
        -11    1    3    3    0    0  0.13706486999E+04  0.63487652686E+03  0.67837713964E+03  0.16558809155E+04  0.00000000000E+00 0.  1.
         22    1    1    2    0    0 -0.19175327482E+04 -0.86809529953E+03  0.29994721205E+03  0.21261443083E+04  0.00000000000E+00 0.  1.
<mgrwt>
<rscale>  0 0.42494565E+04</rscale>
<asrwt>0</asrwt>
<pdfrwt beam="1">  1        2 0.43071121E+00 0.42494565E+04</pdfrwt>
<pdfrwt beam="2">  1       -2 0.24808123E+00 0.42494565E+04</pdfrwt>
<totfact> 0.11809667E-01</totfact>
</mgrwt>
</event>
<event>
 6    1  0.9906445E-006  0.1361377E+04  0.7818608E-02  0.8982260E-01
         -2   -1    0    0    0  501 -0.00000000000E+00  0.00000000000E+00  0.32632556369E+03  0.32632556369E+03  0.00000000000E+00 0.  1.
          2   -1    0    0  501    0  0.00000000000E+00 -0.00000000000E+00 -0.14198608669E+04  0.14198608669E+04  0.00000000000E+00 0. -1.
         23    2    1    2    0    0  0.23382235544E+03 -0.45317919013E+03 -0.11216672065E+04  0.12354656887E+04  0.90520016756E+02 0.  0.
         11    1    3    3    0    0  0.19159817451E+03 -0.29473366073E+03 -0.70756091180E+03  0.79007609453E+03  0.00000000000E+00 0. -1.
        -11    1    3    3    0    0  0.42224180935E+02 -0.15844552940E+03 -0.41410629474E+03  0.44538959416E+03  0.00000000000E+00 0.  1.
         22    1    1    2    0    0 -0.23382235544E+03  0.45317919013E+03  0.28131903289E+02  0.51072074194E+03  0.00000000000E+00 0.  1.
<mgrwt>
<rscale>  0 0.13613771E+04</rscale>
<asrwt>0</asrwt>
<pdfrwt beam="1">  1        2 0.21844013E+00 0.13613771E+04</pdfrwt>
<pdfrwt beam="2">  1       -2 0.50203934E-01 0.13613771E+04</pdfrwt>
<totfact> 0.51621236E+01</totfact>
</mgrwt>
</event>
<event>
 6    1  0.9906445E-006  0.5112215E+04  0.7818608E-02  0.7811426E-01
          1   -1    0    0  501    0  0.00000000000E+00  0.00000000000E+00  0.11090787180E+04  0.11090787180E+04  0.00000000000E+00 0. -1.
         -1   -1    0    0    0  501 -0.00000000000E+00 -0.00000000000E+00 -0.58910932322E+04  0.58910932322E+04  0.00000000000E+00 0.  1.
         23    2    1    2    0    0  0.59349890830E+03 -0.22740573727E+04 -0.10183867373E+04  0.25630025900E+04  0.91065038387E+02 0.  0.
         11    1    3    3    0    0  0.29846391360E+03 -0.12955855462E+04 -0.60165249954E+03  0.14593177671E+04  0.00000000000E+00 0. -1.
        -11    1    3    3    0    0  0.29503499469E+03 -0.97847182649E+03 -0.41673423778E+03  0.11036848229E+04  0.00000000000E+00 0.  1.
         22    1    1    2    0    0 -0.59349890830E+03  0.22740573727E+04 -0.37636277769E+04  0.44371693602E+04  0.00000000000E+00 0.  1.
<mgrwt>
<rscale>  0 0.51122152E+04</rscale>
<asrwt>0</asrwt>
<pdfrwt beam="1">  1        1 0.17062749E+00 0.51122152E+04</pdfrwt>
<pdfrwt beam="2">  1       -1 0.90632206E+00 0.51122152E+04</pdfrwt>
<totfact> 0.56147049E-05</totfact>
</mgrwt>
</event>
<event>
 6    1  0.9906445E-006  0.2707399E+04  0.7818608E-02  0.8332608E-01
          2   -1    0    0  501    0  0.00000000000E+00  0.00000000000E+00  0.71784590296E+03  0.71784590296E+03  0.00000000000E+00 0. -1.
         -2   -1    0    0    0  501 -0.00000000000E+00 -0.00000000000E+00 -0.25527786388E+04  0.25527786388E+04  0.00000000000E+00 0.  1.
         23    2    1    2    0    0  0.33611224977E+03  0.32926051362E+03  0.61327787348E+03  0.77761047885E+03  0.84760701099E+02 0.  0.
         13    1    3    3    0    0  0.72735688595E+02  0.11967455363E+03  0.20856817775E+03  0.25122333481E+03  0.00000000000E+00 0. -1.
        -13    1    3    3    0    0  0.26337656117E+03  0.20958595999E+03  0.40470969573E+03  0.52638714405E+03  0.00000000000E+00 0.  1.
         22    1    1    2    0    0 -0.33611224977E+03 -0.32926051362E+03 -0.24482106093E+04  0.24930140629E+04  0.00000000000E+00 0.  1.
<mgrwt>
<rscale>  0 0.27073985E+04</rscale>
<asrwt>0</asrwt>
<pdfrwt beam="1">  1        2 0.11043783E+00 0.27073985E+04</pdfrwt>
<pdfrwt beam="2">  1       -2 0.39273518E+00 0.27073985E+04</pdfrwt>
<totfact> 0.28796590E-01</totfact>
</mgrwt>
</event>
<event>
 6    1  0.9906445E-006  0.1854739E+04  0.7818608E-02  0.8677720E-01
          1   -1    0    0  501    0  0.00000000000E+00  0.00000000000E+00  0.10283654071E+04  0.10283654071E+04  0.00000000000E+00 0. -1.
         -1   -1    0    0    0  501 -0.00000000000E+00 -0.00000000000E+00 -0.83629239270E+03  0.83629239270E+03  0.00000000000E+00 0.  1.
         23    2    1    2    0    0  0.76477335927E+03  0.26463487967E+03  0.54884828052E+03  0.98023793286E+03  0.68717242340E+02 0.  0.
         11    1    3    3    0    0  0.36453167713E+03  0.95755097386E+02  0.23242907418E+03  0.44280430985E+03  0.00000000000E+00 0.  1.
        -11    1    3    3    0    0  0.40024168215E+03  0.16887978229E+03  0.31641920635E+03  0.53743362301E+03  0.00000000000E+00 0. -1.
         22    1    1    2    0    0 -0.76477335927E+03 -0.26463487967E+03 -0.35677526609E+03  0.88441986697E+03  0.00000000000E+00 0.  1.
<mgrwt>
<rscale>  0 0.18547390E+04</rscale>
<asrwt>0</asrwt>
<pdfrwt beam="1">  1        1 0.15821006E+00 0.18547390E+04</pdfrwt>
<pdfrwt beam="2">  1       -1 0.12866037E+00 0.18547390E+04</pdfrwt>
<totfact> 0.70324115E+00</totfact>
</mgrwt>
</event>
<event>
 6    1  0.9906445E-006  0.6567796E+03  0.7818608E-02  0.9794140E-01
         -1   -1    0    0    0  501 -0.00000000000E+00  0.00000000000E+00  0.48871415934E+02  0.48871415934E+02  0.00000000000E+00 0.  1.
          1   -1    0    0  501    0  0.00000000000E+00 -0.00000000000E+00 -0.22066036877E+04  0.22066036877E+04  0.00000000000E+00 0. -1.
         23    2    1    2    0    0 -0.11103841522E+03  0.27364702064E+03 -0.65437090639E+03  0.72338254231E+03  0.88706244604E+02 0.  0.
         11    1    3    3    0    0 -0.70943511266E+02  0.22516688116E+03 -0.43216815663E+03  0.49244534902E+03  0.00000000000E+00 0.  1.
        -11    1    3    3    0    0 -0.40094903953E+02  0.48480139484E+02 -0.22220274976E+03  0.23093719330E+03  0.00000000000E+00 0. -1.
         22    1    1    2    0    0  0.11103841522E+03 -0.27364702064E+03 -0.15033613654E+04  0.15320925614E+04  0.00000000000E+00 0. -1.
<mgrwt>
<rscale>  0 0.65677956E+03</rscale>
<asrwt>0</asrwt>
<pdfrwt beam="1">  1        1 0.33947753E+00 0.65677956E+03</pdfrwt>
<pdfrwt beam="2">  1       -1 0.75186785E-02 0.65677956E+03</pdfrwt>
<totfact> 0.22223795E+02</totfact>
</mgrwt>
</event>
<event>
 6    1  0.9906445E-006  0.1077354E+04  0.7818608E-02  0.9227550E-01
          2   -1    0    0  501    0  0.00000000000E+00  0.00000000000E+00  0.16997877470E+04  0.16997877470E+04  0.00000000000E+00 0.  1.
         -2   -1    0    0    0  501 -0.00000000000E+00 -0.00000000000E+00 -0.17071113818E+03  0.17071113818E+03  0.00000000000E+00 0. -1.
         23    2    1    2    0    0 -0.16824406367E+03  0.41905085995E+03  0.12676461199E+04  0.13487177158E+04  0.90570985257E+02 0.  0.
         13    1    3    3    0    0 -0.88007932627E+02  0.15270440532E+03  0.60243593658E+03  0.62768868820E+03  0.00000000000E+00 0.  1.
        -13    1    3    3    0    0 -0.80236131042E+02  0.26634645464E+03  0.66521018335E+03  0.72102902761E+03  0.00000000000E+00 0. -1.
         22    1    1    2    0    0  0.16824406367E+03 -0.41905085995E+03  0.26143048890E+03  0.52178116938E+03  0.00000000000E+00 0. -1.
<mgrwt>
<rscale>  0 0.10773536E+04</rscale>
<asrwt>0</asrwt>
<pdfrwt beam="1">  1        2 0.26150580E+00 0.10773536E+04</pdfrwt>
<pdfrwt beam="2">  1       -2 0.26263253E-01 0.10773536E+04</pdfrwt>
<totfact> 0.12789190E+02</totfact>
</mgrwt>
</event>
<event>
 6    1  0.9906445E-006  0.4125093E+04  0.7818608E-02  0.7979776E-01
          2   -1    0    0  501    0  0.00000000000E+00  0.00000000000E+00  0.14855132236E+04  0.14855132236E+04  0.00000000000E+00 0. -1.
         -2   -1    0    0    0  501 -0.00000000000E+00 -0.00000000000E+00 -0.28637230150E+04  0.28637230150E+04  0.00000000000E+00 0.  1.
         23    2    1    2    0    0 -0.12016189174E+04 -0.33958914457E+02  0.10763357117E+04  0.16161363763E+04  0.91416585466E+02 0.  0.
         11    1    3    3    0    0 -0.78370645394E+03 -0.45075811563E+02  0.65200904069E+03  0.10204623579E+04  0.00000000000E+00 0.  1.
        -11    1    3    3    0    0 -0.41791246351E+03  0.11116897106E+02  0.42432667098E+03  0.59567401846E+03  0.00000000000E+00 0. -1.
         22    1    1    2    0    0  0.12016189174E+04  0.33958914457E+02 -0.24545455030E+04  0.27330998622E+04  0.00000000000E+00 0.  1.
<mgrwt>
<rscale>  0 0.41250932E+04</rscale>
<asrwt>0</asrwt>
<pdfrwt beam="1">  1        2 0.22854050E+00 0.41250932E+04</pdfrwt>
<pdfrwt beam="2">  1       -2 0.44057277E+00 0.41250932E+04</pdfrwt>
<totfact> 0.40484879E-02</totfact>
</mgrwt>
</event>
<event>
 6    1  0.9906445E-006  0.7492089E+04  0.7818608E-02  0.7528711E-01
          2   -1    0    0  501    0  0.00000000000E+00  0.00000000000E+00  0.56934965632E+04  0.56934965632E+04  0.00000000000E+00 0. -1.
         -2   -1    0    0    0  501 -0.00000000000E+00 -0.00000000000E+00 -0.24647154344E+04  0.24647154344E+04  0.00000000000E+00 0.  1.
         23    2    1    2    0    0 -0.14196898467E+04 -0.12063872938E+04 -0.19235732396E+04  0.26793758894E+04  0.89619109882E+02 0.  0.
         11    1    3    3    0    0 -0.97728202018E+03 -0.84856341087E+03 -0.12795006186E+04  0.18199620442E+04  0.00000000000E+00 0.  1.
        -11    1    3    3    0    0 -0.44240782651E+03 -0.35782388298E+03 -0.64407262099E+03  0.85941384518E+03  0.00000000000E+00 0. -1.
         22    1    1    2    0    0  0.14196898467E+04  0.12063872938E+04  0.51523543684E+04  0.54788361082E+04  0.00000000000E+00 0. -1.
<mgrwt>
<rscale>  0 0.74920889E+04</rscale>
<asrwt>0</asrwt>
<pdfrwt beam="1">  1        2 0.87592254E+00 0.74920889E+04</pdfrwt>
<pdfrwt beam="2">  1       -2 0.37918699E+00 0.74920889E+04</pdfrwt>
<totfact> 0.13910174E-05</totfact>
</mgrwt>
</event>
<event>
 6    1  0.1035152E-005  0.2554226E+04  0.7818608E-02  0.8383918E-01
         -1   -1    0    0    0  501 -0.00000000000E+00  0.00000000000E+00  0.99137090090E+03  0.99137090090E+03  0.00000000000E+00 0.  1.
          1   -1    0    0  501    0  0.00000000000E+00 -0.00000000000E+00 -0.16452142246E+04  0.16452142246E+04  0.00000000000E+00 0. -1.
         23    2    1    2    0    0 -0.43191476048E+02  0.43929128605E+03  0.90784577683E+03  0.10137126153E+04  0.92665928643E+02 0.  0.
         11    1    3    3    0    0 -0.43130995983E+02  0.24446355145E+03  0.60089076829E+03  0.65014800332E+03  0.00000000000E+00 0. -1.
        -11    1    3    3    0    0 -0.60480065339E-01  0.19482773460E+03  0.30695500855E+03  0.36356461200E+03  0.00000000000E+00 0.  1.
         22    1    1    2    0    0  0.43191476048E+02 -0.43929128605E+03 -0.15616891005E+04  0.16228725102E+04  0.00000000000E+00 0. -1.
<mgrwt>
<rscale>  0 0.25542259E+04</rscale>
<asrwt>0</asrwt>
<pdfrwt beam="1">  1        1 0.25310988E+00 0.25542259E+04</pdfrwt>
<pdfrwt beam="2">  1       -1 0.15251860E+00 0.25542259E+04</pdfrwt>
<totfact> 0.15321435E+00</totfact>
</mgrwt>
</event>
<event>
 6    1  0.9906445E-006  0.2993444E+04  0.7818608E-02  0.8245605E-01
         -1   -1    0    0    0  501 -0.00000000000E+00  0.00000000000E+00  0.14104006753E+04  0.14104006753E+04  0.00000000000E+00 0.  1.
          1   -1    0    0  501    0  0.00000000000E+00 -0.00000000000E+00 -0.15883264205E+04  0.15883264205E+04  0.00000000000E+00 0. -1.
         23    2    1    2    0    0 -0.11653388214E+04  0.22242643919E+03 -0.10011043920E+04  0.15547356920E+04  0.86631280800E+02 0.  0.
         11    1    3    3    0    0 -0.34067755361E+03  0.25877331681E+02 -0.29740754476E+03  0.45297028546E+03  0.00000000000E+00 0.  1.
        -11    1    3    3    0    0 -0.82466126777E+03  0.19654910751E+03 -0.70369684726E+03  0.11017654065E+04  0.00000000000E+00 0. -1.
         22    1    1    2    0    0  0.11653388214E+04 -0.22242643919E+03  0.82317864683E+03  0.14439914037E+04  0.00000000000E+00 0.  1.
<mgrwt>
<rscale>  0 0.29934439E+04</rscale>
<asrwt>0</asrwt>
<pdfrwt beam="1">  1        1 0.24435791E+00 0.29934439E+04</pdfrwt>
<pdfrwt beam="2">  1       -1 0.21698472E+00 0.29934439E+04</pdfrwt>
<totfact> 0.55814251E-01</totfact>
</mgrwt>
</event>
<event>
 6    1  0.9906445E-006  0.2731012E+04  0.7818608E-02  0.8325012E-01
         -1   -1    0    0    0  501 -0.00000000000E+00  0.00000000000E+00  0.13045894699E+04  0.13045894699E+04  0.00000000000E+00 0.  1.
          1   -1    0    0  501    0  0.00000000000E+00 -0.00000000000E+00 -0.14292667547E+04  0.14292667547E+04  0.00000000000E+00 0. -1.
         23    2    1    2    0    0 -0.10570514245E+04  0.73738778634E+03 -0.50999800226E+03  0.13886534455E+04  0.84628409872E+02 0.  0.
         13    1    3    3    0    0 -0.67369956032E+02  0.32785189847E+02 -0.12992265891E+02  0.76041953040E+02  0.00000000000E+00 0. -1.
        -13    1    3    3    0    0 -0.98968146851E+03  0.70460259650E+03 -0.49700573637E+03  0.13126114924E+04  0.00000000000E+00 0.  1.
         22    1    1    2    0    0  0.10570514245E+04 -0.73738778634E+03  0.38532071747E+03  0.13452027791E+04  0.00000000000E+00 0.  1.
<mgrwt>
<rscale>  0 0.27310118E+04</rscale>
<asrwt>0</asrwt>
<pdfrwt beam="1">  1        1 0.21988719E+00 0.27310118E+04</pdfrwt>
<pdfrwt beam="2">  1       -1 0.20070607E+00 0.27310118E+04</pdfrwt>
<totfact> 0.94978153E-01</totfact>
</mgrwt>
</event>
<event>
 6    1  0.9906445E-006  0.2330568E+04  0.7818608E-02  0.8465965E-01
         -1   -1    0    0    0  501 -0.00000000000E+00  0.00000000000E+00  0.10493313878E+04  0.10493313878E+04  0.00000000000E+00 0.  1.
          1   -1    0    0  501    0  0.00000000000E+00 -0.00000000000E+00 -0.12940494322E+04  0.12940494322E+04  0.00000000000E+00 0. -1.
         23    2    1    2    0    0 -0.80313197034E+03  0.83004027482E+03  0.17191101400E+02  0.11590733345E+04  0.95747799305E+02 0.  0.
         13    1    3    3    0    0 -0.70731610980E+03  0.68692616342E+03 -0.63812741990E-01  0.98598358873E+03  0.00000000000E+00 0. -1.
        -13    1    3    3    0    0 -0.95815860541E+02  0.14311411140E+03  0.17254914142E+02  0.17308974573E+03  0.00000000000E+00 0.  1.
         22    1    1    2    0    0  0.80313197034E+03 -0.83004027482E+03 -0.26190914575E+03  0.11843074855E+04  0.00000000000E+00 0.  1.
<mgrwt>
<rscale>  0 0.23305679E+04</rscale>
<asrwt>0</asrwt>
<pdfrwt beam="1">  1        1 0.19908453E+00 0.23305679E+04</pdfrwt>
<pdfrwt beam="2">  1       -1 0.16143560E+00 0.23305679E+04</pdfrwt>
<totfact> 0.23473450E+00</totfact>
</mgrwt>
</event>
<event>
 6    1  0.9906445E-006  0.3429746E+04  0.7818608E-02  0.8130644E-01
          1   -1    0    0  501    0  0.00000000000E+00  0.00000000000E+00  0.21288472509E+04  0.21288472509E+04  0.00000000000E+00 0. -1.
         -1   -1    0    0    0  501 -0.00000000000E+00 -0.00000000000E+00 -0.13813997827E+04  0.13813997827E+04  0.00000000000E+00 0.  1.
         23    2    1    2    0    0 -0.73944013607E+03 -0.51302399268E+03 -0.11185448372E+04  0.14385586846E+04  0.91341142125E+02 0.  0.
         11    1    3    3    0    0 -0.64143196083E+03 -0.43772749854E+03 -0.91163902751E+03  0.11975500156E+04  0.00000000000E+00 0. -1.
        -11    1    3    3    0    0 -0.98008175240E+02 -0.75296494134E+02 -0.20690580971E+03  0.24100866900E+03  0.00000000000E+00 0.  1.
         22    1    1    2    0    0  0.73944013607E+03  0.51302399268E+03  0.18659923053E+04  0.20716883490E+04  0.00000000000E+00 0. -1.
<mgrwt>
<rscale>  0 0.34297458E+04</rscale>
<asrwt>0</asrwt>
<pdfrwt beam="1">  1        1 0.32751496E+00 0.34297458E+04</pdfrwt>
<pdfrwt beam="2">  1       -1 0.21252304E+00 0.34297458E+04</pdfrwt>
<totfact> 0.24706615E-01</totfact>
</mgrwt>
</event>
<event>
 6    1  0.9906445E-006  0.3170949E+04  0.7818608E-02  0.8196532E-01
          1   -1    0    0  501    0  0.00000000000E+00  0.00000000000E+00  0.15618871460E+04  0.15618871460E+04  0.00000000000E+00 0. -1.
         -1   -1    0    0    0  501 -0.00000000000E+00 -0.00000000000E+00 -0.16094180864E+04  0.16094180864E+04  0.00000000000E+00 0.  1.
         23    2    1    2    0    0 -0.13338346303E+04 -0.96250439083E+02  0.82545475105E+03  0.15742820686E+04  0.92787486154E+02 0.  0.
         11    1    3    3    0    0 -0.89038571649E+03 -0.67252141486E+02  0.49926959159E+03  0.10230247796E+04  0.00000000000E+00 0.  1.
        -11    1    3    3    0    0 -0.44344891381E+03 -0.28998297597E+02  0.32618515946E+03  0.55125728900E+03  0.00000000000E+00 0. -1.
         22    1    1    2    0    0  0.13338346303E+04  0.96250439083E+02 -0.87298569152E+03  0.15970231638E+04  0.00000000000E+00 0.  1.
<mgrwt>
<rscale>  0 0.31709490E+04</rscale>
<asrwt>0</asrwt>
<pdfrwt beam="1">  1        1 0.24029033E+00 0.31709490E+04</pdfrwt>
<pdfrwt beam="2">  1       -1 0.24760278E+00 0.31709490E+04</pdfrwt>
<totfact> 0.35937071E-01</totfact>
</mgrwt>
</event>
<event>
 6    1  0.9906445E-006  0.1505221E+04  0.7818608E-02  0.8880988E-01
         -2   -1    0    0    0  501 -0.00000000000E+00  0.00000000000E+00  0.23078915980E+03  0.23078915980E+03  0.00000000000E+00 0.  1.
          2   -1    0    0  501    0  0.00000000000E+00 -0.00000000000E+00 -0.24542857669E+04  0.24542857669E+04  0.00000000000E+00 0. -1.
         23    2    1    2    0    0 -0.49552681762E+03  0.48344374953E+03 -0.16297466026E+04  0.17730421675E+04  0.91322796766E+02 0.  0.
         13    1    3    3    0    0 -0.13401721596E+03  0.17320309511E+03 -0.44062733406E+03  0.49204915796E+03  0.00000000000E+00 0. -1.
        -13    1    3    3    0    0 -0.36150960166E+03  0.31024065442E+03 -0.11891192686E+04  0.12809930096E+04  0.00000000000E+00 0.  1.
         22    1    1    2    0    0  0.49552681762E+03 -0.48344374953E+03 -0.59375000448E+03  0.91203275915E+03  0.00000000000E+00 0.  1.
<mgrwt>
<rscale>  0 0.15052210E+04</rscale>
<asrwt>0</asrwt>
<pdfrwt beam="1">  1        2 0.37758243E+00 0.15052210E+04</pdfrwt>
<pdfrwt beam="2">  1       -2 0.35506024E-01 0.15052210E+04</pdfrwt>
<totfact> 0.26695660E+01</totfact>
</mgrwt>
</event>
<event>
 6    1  0.9906445E-006  0.2578217E+04  0.7818608E-02  0.8375638E-01
          2   -1    0    0  501    0  0.00000000000E+00  0.00000000000E+00  0.22676629990E+04  0.22676629990E+04  0.00000000000E+00 0.  1.
         -2   -1    0    0    0  501 -0.00000000000E+00 -0.00000000000E+00 -0.73282499137E+03  0.73282499137E+03  0.00000000000E+00 0. -1.
         23    2    1    2    0    0  0.35666068900E+03 -0.12016652724E+04  0.11105116929E+04  0.16771365271E+04  0.91347887497E+02 0.  0.
         11    1    3    3    0    0  0.78903608304E+02 -0.17108512670E+03  0.14282852181E+03  0.23642310933E+03  0.00000000000E+00 0.  1.
        -11    1    3    3    0    0  0.27775708069E+03 -0.10305801457E+04  0.96768317110E+03  0.14407134178E+04  0.00000000000E+00 0. -1.
         22    1    1    2    0    0 -0.35666068900E+03  0.12016652724E+04  0.42432631471E+03  0.13233514632E+04  0.00000000000E+00 0. -1.
<mgrwt>
<rscale>  0 0.25782165E+04</rscale>
<asrwt>0</asrwt>
<pdfrwt beam="1">  1        2 0.34887123E+00 0.25782165E+04</pdfrwt>
<pdfrwt beam="2">  1       -2 0.11274231E+00 0.25782165E+04</pdfrwt>
<totfact> 0.25931143E+00</totfact>
</mgrwt>
</event>
<event>
 6    1  0.9906445E-006  0.1480978E+04  0.7818608E-02  0.8897201E-01
          2   -1    0    0  501    0  0.00000000000E+00  0.00000000000E+00  0.16563767917E+04  0.16563767917E+04  0.00000000000E+00 0.  1.
         -2   -1    0    0    0  501 -0.00000000000E+00 -0.00000000000E+00 -0.33103836801E+03  0.33103836801E+03  0.00000000000E+00 0. -1.
         23    2    1    2    0    0  0.23428431288E+03  0.31257491989E+03 -0.17467909290E+03  0.43736846044E+03  0.90477427496E+02 0.  0.
         13    1    3    3    0    0  0.12785523601E+03  0.22615515801E+03 -0.14342027093E+03  0.29675324932E+03  0.00000000000E+00 0. -1.
        -13    1    3    3    0    0  0.10642907687E+03  0.86419761885E+02 -0.31258821969E+02  0.14061521112E+03  0.00000000000E+00 0.  1.
         22    1    1    2    0    0 -0.23428431288E+03 -0.31257491989E+03  0.15000175166E+04  0.15500466992E+04  0.00000000000E+00 0.  1.
<mgrwt>
<rscale>  0 0.14809784E+04</rscale>
<asrwt>0</asrwt>
<pdfrwt beam="1">  1        2 0.25482719E+00 0.14809784E+04</pdfrwt>
<pdfrwt beam="2">  1       -2 0.50928980E-01 0.14809784E+04</pdfrwt>
<totfact> 0.36565508E+01</totfact>
</mgrwt>
</event>
<event>
 6    1  0.9906445E-006  0.2017889E+04  0.7818608E-02  0.8598302E-01
          2   -1    0    0  501    0  0.00000000000E+00  0.00000000000E+00  0.19067276005E+04  0.19067276005E+04  0.00000000000E+00 0. -1.
         -2   -1    0    0    0  501 -0.00000000000E+00 -0.00000000000E+00 -0.53388264206E+03  0.53388264206E+03  0.00000000000E+00 0.  1.
         23    2    1    2    0    0 -0.10000992636E+03  0.36179095851E+03  0.18178129852E+04  0.18584665938E+04  0.92516745217E+02 0.  0.
         11    1    3    3    0    0 -0.64703365834E+02  0.23515638763E+03  0.95279851613E+03  0.98351922428E+03  0.00000000000E+00 0.  1.
        -11    1    3    3    0    0 -0.35306560529E+02  0.12663457089E+03  0.86501446906E+03  0.87494736953E+03  0.00000000000E+00 0. -1.
         22    1    1    2    0    0  0.10000992636E+03 -0.36179095851E+03 -0.44496802671E+03  0.58214364879E+03  0.00000000000E+00 0.  1.
<mgrwt>
<rscale>  0 0.20178888E+04</rscale>
<asrwt>0</asrwt>
<pdfrwt beam="1">  1        2 0.29334270E+00 0.20178888E+04</pdfrwt>
<pdfrwt beam="2">  1       -2 0.82135792E-01 0.20178888E+04</pdfrwt>
<totfact> 0.90960311E+00</totfact>
</mgrwt>
</event>
<event>
 6    1  0.9906445E-006  0.2723248E+04  0.7818608E-02  0.8327501E-01
         -1   -1    0    0    0  501 -0.00000000000E+00  0.00000000000E+00  0.10193734612E+04  0.10193734612E+04  0.00000000000E+00 0.  1.
          1   -1    0    0  501    0  0.00000000000E+00 -0.00000000000E+00 -0.18187837891E+04  0.18187837891E+04  0.00000000000E+00 0. -1.
         23    2    1    2    0    0  0.94092766192E+03 -0.46609836867E+03 -0.13010861153E+04  0.16744256876E+04  0.91015105685E+02 0.  0.
         11    1    3    3    0    0  0.36424689686E+03 -0.22901384831E+03 -0.54762419555E+03  0.69643047330E+03  0.00000000000E+00 0. -1.
        -11    1    3    3    0    0  0.57668076506E+03 -0.23708452036E+03 -0.75346191978E+03  0.97799521428E+03  0.00000000000E+00 0.  1.
         22    1    1    2    0    0 -0.94092766192E+03  0.46609836867E+03  0.50167578746E+03  0.11637315627E+04  0.00000000000E+00 0.  1.
<mgrwt>
<rscale>  0 0.27232480E+04</rscale>
<asrwt>0</asrwt>
<pdfrwt beam="1">  1        1 0.27981289E+00 0.27232480E+04</pdfrwt>
<pdfrwt beam="2">  1       -1 0.15682669E+00 0.27232480E+04</pdfrwt>
<totfact> 0.10651249E+00</totfact>
</mgrwt>
</event>
<event>
 6    1  0.9906445E-006  0.2181427E+04  0.7818608E-02  0.8526199E-01
          2   -1    0    0  501    0  0.00000000000E+00  0.00000000000E+00  0.16769340934E+04  0.16769340934E+04  0.00000000000E+00 0. -1.
         -2   -1    0    0    0  501 -0.00000000000E+00 -0.00000000000E+00 -0.70942326684E+03  0.70942326684E+03  0.00000000000E+00 0.  1.
         23    2    1    2    0    0 -0.78988767097E+03 -0.73377096550E+03  0.31831079439E+03  0.11278649906E+04  0.91735013381E+02 0.  0.
         11    1    3    3    0    0 -0.50665527411E+03 -0.43883628466E+03  0.15798399311E+03  0.68864780083E+03  0.00000000000E+00 0. -1.
        -11    1    3    3    0    0 -0.28323239686E+03 -0.29493468084E+03  0.16032680128E+03  0.43921718979E+03  0.00000000000E+00 0.  1.
         22    1    1    2    0    0  0.78988767097E+03  0.73377096550E+03  0.64920003212E+03  0.12584923696E+04  0.00000000000E+00 0. -1.
<mgrwt>
<rscale>  0 0.21814271E+04</rscale>
<asrwt>0</asrwt>
<pdfrwt beam="1">  1        2 0.25798986E+00 0.21814271E+04</pdfrwt>
<pdfrwt beam="2">  1       -2 0.10914204E+00 0.21814271E+04</pdfrwt>
<totfact> 0.61923950E+00</totfact>
</mgrwt>
</event>
<event>
 6    1  0.9906445E-006  0.3881654E+04  0.7818608E-02  0.8028856E-01
         -2   -1    0    0    0  501 -0.00000000000E+00  0.00000000000E+00  0.13897401004E+04  0.13897401004E+04  0.00000000000E+00 0. -1.
          2   -1    0    0  501    0  0.00000000000E+00 -0.00000000000E+00 -0.27104410939E+04  0.27104410939E+04  0.00000000000E+00 0.  1.
         23    2    1    2    0    0  0.92277397679E+03 -0.13687193767E+04  0.41516246474E+03  0.17047425101E+04  0.94247596086E+02 0.  0.
         13    1    3    3    0    0  0.12389403125E+03 -0.24310814740E+03  0.57220510402E+02  0.27879291441E+03  0.00000000000E+00 0.  1.
        -13    1    3    3    0    0  0.79887994554E+03 -0.11256112293E+04  0.35794195434E+03  0.14259495957E+04  0.00000000000E+00 0. -1.
         22    1    1    2    0    0 -0.92277397679E+03  0.13687193767E+04 -0.17358634582E+04  0.23954386842E+04  0.00000000000E+00 0.  1.
<mgrwt>
<rscale>  0 0.38816536E+04</rscale>
<asrwt>0</asrwt>
<pdfrwt beam="1">  1        2 0.41699093E+00 0.38816536E+04</pdfrwt>
<pdfrwt beam="2">  1       -2 0.21380617E+00 0.38816536E+04</pdfrwt>
<totfact> 0.22562232E-01</totfact>
</mgrwt>
</event>
<event>
 6    1  0.9906445E-006  0.1093713E+04  0.7818608E-02  0.9211341E-01
         -1   -1    0    0    0  501 -0.00000000000E+00  0.00000000000E+00  0.53072279335E+03  0.53072279335E+03  0.00000000000E+00 0.  1.
          1   -1    0    0  501    0  0.00000000000E+00 -0.00000000000E+00 -0.56348099510E+03  0.56348099510E+03  0.00000000000E+00 0. -1.
         23    2    1    2    0    0 -0.52741735242E+03  0.70877999270E+02  0.94064531021E+02  0.54714185416E+03  0.85576387899E+02 0.  0.
         11    1    3    3    0    0 -0.34349717447E+03  0.51816917870E+02  0.20012844337E+02  0.34795950308E+03  0.00000000000E+00 0. -1.
        -11    1    3    3    0    0 -0.18392017795E+03  0.19061081400E+02  0.74051686684E+02  0.19918235108E+03  0.00000000000E+00 0.  1.
         22    1    1    2    0    0  0.52741735242E+03 -0.70877999270E+02 -0.12682273277E+03  0.54706193430E+03  0.00000000000E+00 0.  1.
<mgrwt>
<rscale>  0 0.10937133E+04</rscale>
<asrwt>0</asrwt>
<pdfrwt beam="1">  1        1 0.86689384E-01 0.10937133E+04</pdfrwt>
<pdfrwt beam="2">  1       -1 0.81649660E-01 0.10937133E+04</pdfrwt>
<totfact> 0.55824865E+01</totfact>
</mgrwt>
</event>
<event>
 6    1  0.9906445E-006  0.1363926E+04  0.7818608E-02  0.8980353E-01
         -1   -1    0    0    0  501 -0.00000000000E+00  0.00000000000E+00  0.78609830521E+03  0.78609830521E+03  0.00000000000E+00 0.  1.
          1   -1    0    0  501    0  0.00000000000E+00 -0.00000000000E+00 -0.59162246765E+03  0.59162246765E+03  0.00000000000E+00 0. -1.
         23    2    1    2    0    0  0.65307844940E+03 -0.85407850731E+02 -0.69020343980E+02  0.66832934373E+03  0.89968559910E+02 0.  0.
         13    1    3    3    0    0  0.43393789389E+03 -0.66150651440E+02 -0.41194821118E+01  0.43897035729E+03  0.00000000000E+00 0.  1.
        -13    1    3    3    0    0  0.21914055551E+03 -0.19257199290E+02 -0.64900861868E+02  0.22935898645E+03  0.00000000000E+00 0. -1.
         22    1    1    2    0    0 -0.65307844940E+03  0.85407850731E+02  0.26349618154E+03  0.70939142913E+03  0.00000000000E+00 0.  1.
<mgrwt>
<rscale>  0 0.13639258E+04</rscale>
<asrwt>0</asrwt>
<pdfrwt beam="1">  1        1 0.91018841E-01 0.13639258E+04</pdfrwt>
<pdfrwt beam="2">  1       -1 0.12093820E+00 0.13639258E+04</pdfrwt>
<totfact> 0.20763644E+01</totfact>
</mgrwt>
</event>
<event>
 6    1  0.9906445E-006  0.2166055E+04  0.7818608E-02  0.8532691E-01
          2   -1    0    0  501    0  0.00000000000E+00  0.00000000000E+00  0.23949646905E+04  0.23949646905E+04  0.00000000000E+00 0. -1.
         -2   -1    0    0    0  501 -0.00000000000E+00 -0.00000000000E+00 -0.48975602781E+03  0.48975602781E+03  0.00000000000E+00 0.  1.
         23    2    1    2    0    0  0.24259928534E+03  0.10533119303E+04  0.93017954483E+03  0.14290414211E+04  0.92762932559E+02 0.  0.
         13    1    3    3    0    0  0.19515308021E+03  0.93438144070E+03  0.78872884715E+03  0.12382433508E+04  0.00000000000E+00 0.  1.
        -13    1    3    3    0    0  0.47446205135E+02  0.11893048963E+03  0.14145069768E+03  0.19079807027E+03  0.00000000000E+00 0. -1.
         22    1    1    2    0    0 -0.24259928534E+03 -0.10533119303E+04  0.97502911790E+03  0.14556792973E+04  0.00000000000E+00 0. -1.
<mgrwt>
<rscale>  0 0.21660548E+04</rscale>
<asrwt>0</asrwt>
<pdfrwt beam="1">  1        2 0.36845610E+00 0.21660548E+04</pdfrwt>
<pdfrwt beam="2">  1       -2 0.75347082E-01 0.21660548E+04</pdfrwt>
<totfact> 0.57978496E+00</totfact>
</mgrwt>
</event>
<event>
 6    1  0.9906445E-006  0.1757960E+04  0.7818608E-02  0.8728981E-01
         -1   -1    0    0    0  501 -0.00000000000E+00  0.00000000000E+00  0.29642307776E+03  0.29642307776E+03  0.00000000000E+00 0.  1.
          1   -1    0    0  501    0  0.00000000000E+00 -0.00000000000E+00 -0.26064296483E+04  0.26064296483E+04  0.00000000000E+00 0. -1.
         23    2    1    2    0    0  0.86247978718E+03 -0.39909253640E+02 -0.90937848219E+03  0.12574885798E+04  0.94043461604E+02 0.  0.
         11    1    3    3    0    0  0.63219171580E+03 -0.23637259777E+02 -0.60400573935E+03  0.87467023429E+03  0.00000000000E+00 0.  1.
        -11    1    3    3    0    0  0.23028807139E+03 -0.16271993862E+02 -0.30537274284E+03  0.38281834553E+03  0.00000000000E+00 0. -1.
         22    1    1    2    0    0 -0.86247978718E+03  0.39909253640E+02 -0.14006280883E+04  0.16453641462E+04  0.00000000000E+00 0. -1.
<mgrwt>
<rscale>  0 0.17579601E+04</rscale>
<asrwt>0</asrwt>
<pdfrwt beam="1">  1        1 0.40098918E+00 0.17579601E+04</pdfrwt>
<pdfrwt beam="2">  1       -1 0.45603551E-01 0.17579601E+04</pdfrwt>
<totfact> 0.51741047E+00</totfact>
</mgrwt>
</event>
<event>
 6    1  0.9906445E-006  0.2753438E+04  0.7818608E-02  0.8317872E-01
          2   -1    0    0  501    0  0.00000000000E+00  0.00000000000E+00  0.11759169596E+04  0.11759169596E+04  0.00000000000E+00 0. -1.
         -2   -1    0    0    0  501 -0.00000000000E+00 -0.00000000000E+00 -0.16118098781E+04  0.16118098781E+04  0.00000000000E+00 0.  1.
         23    2    1    2    0    0  0.12808954651E+03  0.11427735768E+04  0.54548765132E+03  0.12759576084E+04  0.90402771875E+02 0.  0.
         13    1    3    3    0    0  0.13904740252E+03  0.93323774781E+03  0.45320061516E+03  0.10467366773E+04  0.00000000000E+00 0. -1.
        -13    1    3    3    0    0 -0.10957856015E+02  0.20953582895E+03  0.92287036164E+02  0.22922093112E+03  0.00000000000E+00 0.  1.
         22    1    1    2    0    0 -0.12808954651E+03 -0.11427735768E+04 -0.98138056980E+03  0.15117692292E+04  0.00000000000E+00 0.  1.
<mgrwt>
<rscale>  0 0.27534375E+04</rscale>
<asrwt>0</asrwt>
<pdfrwt beam="1">  1        2 0.18091030E+00 0.27534375E+04</pdfrwt>
<pdfrwt beam="2">  1       -2 0.24797075E+00 0.27534375E+04</pdfrwt>
<totfact> 0.11312402E+00</totfact>
</mgrwt>
</event>
<event>
 6    1  0.9906445E-006  0.2120146E+04  0.7818608E-02  0.8552420E-01
          2   -1    0    0  501    0  0.00000000000E+00  0.00000000000E+00  0.11548558311E+04  0.11548558311E+04  0.00000000000E+00 0.  1.
         -2   -1    0    0    0  501 -0.00000000000E+00 -0.00000000000E+00 -0.97306972378E+03  0.97306972378E+03  0.00000000000E+00 0. -1.
         23    2    1    2    0    0 -0.12525057438E+03 -0.52637469411E+03 -0.82162007252E+03  0.98793345546E+03  0.90525929262E+02 0.  0.
         11    1    3    3    0    0 -0.60874028566E+02 -0.20523488754E+03 -0.40383817947E+03  0.45706923066E+03  0.00000000000E+00 0.  1.
        -11    1    3    3    0    0 -0.64376545811E+02 -0.32113980657E+03 -0.41778189306E+03  0.53086422480E+03  0.00000000000E+00 0. -1.
         22    1    1    2    0    0  0.12525057438E+03  0.52637469411E+03  0.10034061798E+04  0.11399920994E+04  0.00000000000E+00 0.  1.
<mgrwt>
<rscale>  0 0.21201465E+04</rscale>
<asrwt>0</asrwt>
<pdfrwt beam="1">  1        2 0.17767013E+00 0.21201465E+04</pdfrwt>
<pdfrwt beam="2">  1       -2 0.14970303E+00 0.21201465E+04</pdfrwt>
<totfact> 0.55882677E+00</totfact>
</mgrwt>
</event>
<event>
 6    1  0.9906445E-006  0.5066018E+04  0.7818608E-02  0.7818403E-01
         -2   -1    0    0    0  501 -0.00000000000E+00  0.00000000000E+00  0.14342558934E+04  0.14342558934E+04  0.00000000000E+00 0.  1.
          2   -1    0    0  501    0  0.00000000000E+00 -0.00000000000E+00 -0.44734936292E+04  0.44734936292E+04  0.00000000000E+00 0. -1.
         23    2    1    2    0    0 -0.11482269377E+04 -0.98696203625E+03  0.84686347142E+03  0.17371018805E+04  0.88464923832E+02 0.  0.
         11    1    3    3    0    0 -0.30440202656E+03 -0.30636626159E+03  0.26556313026E+03  0.50699571612E+03  0.00000000000E+00 0.  1.
        -11    1    3    3    0    0 -0.84382491110E+03 -0.68059577466E+03  0.58130034116E+03  0.12301061644E+04  0.00000000000E+00 0. -1.
         22    1    1    2    0    0  0.11482269377E+04  0.98696203625E+03 -0.38861012073E+04  0.41706476421E+04  0.00000000000E+00 0. -1.
<mgrwt>
<rscale>  0 0.50660180E+04</rscale>
<asrwt>0</asrwt>
<pdfrwt beam="1">  1        2 0.68822978E+00 0.50660180E+04</pdfrwt>
<pdfrwt beam="2">  1       -2 0.22065476E+00 0.50660180E+04</pdfrwt>
<totfact> 0.91722244E-03</totfact>
</mgrwt>
</event>
<event>
 6    1  0.9906445E-006  0.3319895E+04  0.7818608E-02  0.8157851E-01
         -1   -1    0    0    0  501 -0.00000000000E+00  0.00000000000E+00  0.11688542548E+04  0.11688542548E+04  0.00000000000E+00 0.  1.
          1   -1    0    0  501    0  0.00000000000E+00 -0.00000000000E+00 -0.23573738389E+04  0.23573738389E+04  0.00000000000E+00 0. -1.
         23    2    1    2    0    0 -0.30834217200E+02 -0.13424240744E+04  0.43863174111E+03  0.14165658981E+04  0.10586781780E+03 0.  0.
         11    1    3    3    0    0  0.20661246531E+02 -0.79530047136E+02  0.38952837570E+02  0.90935356492E+02  0.00000000000E+00 0.  1.
        -11    1    3    3    0    0 -0.51495463730E+02 -0.12628940272E+04  0.39967890353E+03  0.13256305416E+04  0.00000000000E+00 0. -1.
         22    1    1    2    0    0  0.30834217200E+02  0.13424240744E+04 -0.16271513252E+04  0.21096621956E+04  0.00000000000E+00 0. -1.
<mgrwt>
<rscale>  0 0.33198954E+04</rscale>
<asrwt>0</asrwt>
<pdfrwt beam="1">  1        1 0.36267290E+00 0.33198954E+04</pdfrwt>
<pdfrwt beam="2">  1       -1 0.17982373E+00 0.33198954E+04</pdfrwt>
<totfact> 0.29379946E-01</totfact>
</mgrwt>
</event>
<event>
 6    1  0.1031763E-005  0.3883808E+04  0.7818608E-02  0.8028405E-01
         -1   -1    0    0    0  501 -0.00000000000E+00  0.00000000000E+00  0.15492616277E+04  0.15492616277E+04  0.00000000000E+00 0.  1.
          1   -1    0    0  501    0  0.00000000000E+00 -0.00000000000E+00 -0.24340568694E+04  0.24340568694E+04  0.00000000000E+00 0. -1.
         23    2    1    2    0    0  0.18563502724E+04  0.38795438757E+03 -0.19337863767E+02  0.18987174768E+04  0.90604430690E+02 0.  0.
         11    1    3    3    0    0  0.10716916950E+04  0.25898377970E+03 -0.39936868821E+02  0.11032636316E+04  0.00000000000E+00 0.  1.
        -11    1    3    3    0    0  0.78465857741E+03  0.12897060787E+03  0.20599005054E+02  0.79545384517E+03  0.00000000000E+00 0. -1.
         22    1    1    2    0    0 -0.18563502724E+04 -0.38795438757E+03 -0.86545737799E+03  0.20846010203E+04  0.00000000000E+00 0. -1.
<mgrwt>
<rscale>  0 0.38838079E+04</rscale>
<asrwt>0</asrwt>
<pdfrwt beam="1">  1        1 0.37447029E+00 0.38838079E+04</pdfrwt>
<pdfrwt beam="2">  1       -1 0.23834794E+00 0.38838079E+04</pdfrwt>
<totfact> 0.98854604E-02</totfact>
</mgrwt>
</event>
<event>
 6    1  0.9906445E-006  0.3177128E+04  0.7818608E-02  0.8194884E-01
          2   -1    0    0  501    0  0.00000000000E+00  0.00000000000E+00  0.22342327260E+04  0.22342327260E+04  0.00000000000E+00 0. -1.
         -2   -1    0    0    0  501 -0.00000000000E+00 -0.00000000000E+00 -0.11294865857E+04  0.11294865857E+04  0.00000000000E+00 0.  1.
         23    2    1    2    0    0  0.91235252200E+03  0.39267349548E+03 -0.75785269756E+03  0.12528299188E+04  0.93072529486E+02 0.  0.
         13    1    3    3    0    0  0.30366664946E+03  0.17193648885E+03 -0.23661324124E+03  0.42161761837E+03  0.00000000000E+00 0.  1.
        -13    1    3    3    0    0  0.60868587254E+03  0.22073700662E+03 -0.52123945633E+03  0.83121230041E+03  0.00000000000E+00 0. -1.
         22    1    1    2    0    0 -0.91235252200E+03 -0.39267349548E+03  0.18625988378E+04  0.21108893929E+04  0.00000000000E+00 0. -1.
<mgrwt>
<rscale>  0 0.31771282E+04</rscale>
<asrwt>0</asrwt>
<pdfrwt beam="1">  1        2 0.34372811E+00 0.31771282E+04</pdfrwt>
<pdfrwt beam="2">  1       -2 0.17376717E+00 0.31771282E+04</pdfrwt>
<totfact> 0.83526227E-01</totfact>
</mgrwt>
</event>
<event>
 6    1  0.9906445E-006  0.2722842E+04  0.7818608E-02  0.8327631E-01
         -2   -1    0    0    0  501 -0.00000000000E+00  0.00000000000E+00  0.84297642034E+03  0.84297642034E+03  0.00000000000E+00 0.  1.
          2   -1    0    0  501    0  0.00000000000E+00 -0.00000000000E+00 -0.21987182424E+04  0.21987182424E+04  0.00000000000E+00 0. -1.
         23    2    1    2    0    0 -0.30293594707E+02 -0.85078091325E+03  0.50602309859E+03  0.99452234854E+03  0.90936577908E+02 0.  0.
         13    1    3    3    0    0 -0.60067275279E+02 -0.49770091524E+03  0.27939083267E+03  0.57391072125E+03  0.00000000000E+00 0. -1.
        -13    1    3    3    0    0  0.29773680571E+02 -0.35307999801E+03  0.22663226592E+03  0.42061162728E+03  0.00000000000E+00 0.  1.
         22    1    1    2    0    0  0.30293594707E+02  0.85078091325E+03 -0.18617649206E+04  0.20471723142E+04  0.00000000000E+00 0. -1.
<mgrwt>
<rscale>  0 0.27228424E+04</rscale>
<asrwt>0</asrwt>
<pdfrwt beam="1">  1        2 0.33826434E+00 0.27228424E+04</pdfrwt>
<pdfrwt beam="2">  1       -2 0.12968868E+00 0.27228424E+04</pdfrwt>
<totfact> 0.19789221E+00</totfact>
</mgrwt>
</event>
<event>
 6    1  0.9906445E-006  0.4844119E+04  0.7818608E-02  0.7853014E-01
          2   -1    0    0  501    0  0.00000000000E+00  0.00000000000E+00  0.15028793654E+04  0.15028793654E+04  0.00000000000E+00 0. -1.
         -2   -1    0    0    0  501 -0.00000000000E+00 -0.00000000000E+00 -0.39034214972E+04  0.39034214972E+04  0.00000000000E+00 0.  1.
         23    2    1    2    0    0 -0.20324812127E+04 -0.13097396804E+04 -0.13420377865E+04  0.27668256573E+04  0.88661645005E+02 0.  0.
         11    1    3    3    0    0 -0.90336041198E+03 -0.55042867438E+03 -0.62707943483E+03  0.12297399632E+04  0.00000000000E+00 0. -1.
        -11    1    3    3    0    0 -0.11291208007E+04 -0.75931100601E+03 -0.71495835171E+03  0.15370856941E+04  0.00000000000E+00 0.  1.
         22    1    1    2    0    0  0.20324812127E+04  0.13097396804E+04 -0.10585043452E+04  0.26394752052E+04  0.00000000000E+00 0.  1.
<mgrwt>
<rscale>  0 0.48441188E+04</rscale>
<asrwt>0</asrwt>
<pdfrwt beam="1">  1        2 0.23121221E+00 0.48441188E+04</pdfrwt>
<pdfrwt beam="2">  1       -2 0.60052638E+00 0.48441188E+04</pdfrwt>
<totfact> 0.47505675E-03</totfact>
</mgrwt>
</event>
<event>
 6    1  0.9906445E-006  0.3181602E+04  0.7818608E-02  0.8193693E-01
          1   -1    0    0  501    0  0.00000000000E+00  0.00000000000E+00  0.28824078459E+04  0.28824078459E+04  0.00000000000E+00 0. -1.
         -1   -1    0    0    0  501 -0.00000000000E+00 -0.00000000000E+00 -0.87796329712E+03  0.87796329712E+03  0.00000000000E+00 0.  1.
         23    2    1    2    0    0  0.12953627725E+03  0.13997217032E+04  0.12611590811E+03  0.14142852588E+04  0.91088294692E+02 0.  0.
         13    1    3    3    0    0  0.87253234099E+01  0.57878898652E+03  0.55685411586E+02  0.58152703054E+03  0.00000000000E+00 0.  1.
        -13    1    3    3    0    0  0.12081095384E+03  0.82093271672E+03  0.70430496523E+02  0.83275822829E+03  0.00000000000E+00 0. -1.
         22    1    1    2    0    0 -0.12953627725E+03 -0.13997217032E+04  0.18783286407E+04  0.23460858842E+04  0.00000000000E+00 0. -1.
<mgrwt>
<rscale>  0 0.31816023E+04</rscale>
<asrwt>0</asrwt>
<pdfrwt beam="1">  1        1 0.44344736E+00 0.31816023E+04</pdfrwt>
<pdfrwt beam="2">  1       -1 0.13507128E+00 0.31816023E+04</pdfrwt>
<totfact> 0.28020450E-01</totfact>
</mgrwt>
</event>
<event>
 6    1  0.9906445E-006  0.3328147E+04  0.7818608E-02  0.8155770E-01
         -4   -1    0    0    0  501 -0.00000000000E+00  0.00000000000E+00  0.13077467377E+04  0.13077467377E+04  0.00000000000E+00 0.  1.
          4   -1    0    0  501    0  0.00000000000E+00 -0.00000000000E+00 -0.21174905993E+04  0.21174905993E+04  0.00000000000E+00 0. -1.
         23    2    1    2    0    0  0.28889527025E+03  0.63316307255E+03 -0.19593160986E+04  0.20814098624E+04  0.94823453867E+02 0.  0.
         11    1    3    3    0    0  0.87502130064E+02  0.15956160136E+03 -0.40229431557E+03  0.44153962872E+03  0.00000000000E+00 0.  1.
        -11    1    3    3    0    0  0.20139314019E+03  0.47360147119E+03 -0.15570217830E+04  0.16398702337E+04  0.00000000000E+00 0. -1.
         22    1    1    2    0    0 -0.28889527025E+03 -0.63316307255E+03  0.11495722370E+04  0.13438274747E+04  0.00000000000E+00 0.  1.
<mgrwt>
<rscale>  0 0.33281475E+04</rscale>
<asrwt>0</asrwt>
<pdfrwt beam="1">  1        4 0.32576778E+00 0.33281475E+04</pdfrwt>
<pdfrwt beam="2">  1       -4 0.20119181E+00 0.33281475E+04</pdfrwt>
<totfact> 0.45211028E-03</totfact>
</mgrwt>
</event>
<event>
 6    1  0.9906445E-006  0.2083473E+04  0.7818608E-02  0.8568559E-01
         -2   -1    0    0    0  501 -0.00000000000E+00  0.00000000000E+00  0.16196746410E+04  0.16196746410E+04  0.00000000000E+00 0.  1.
          2   -1    0    0  501    0  0.00000000000E+00 -0.00000000000E+00 -0.67002040615E+03  0.67002040615E+03  0.00000000000E+00 0. -1.
         23    2    1    2    0    0  0.49995465164E+03 -0.78177255864E+03  0.99122448538E+03  0.13607972741E+04  0.90112449222E+02 0.  0.
         13    1    3    3    0    0  0.20700487507E+03 -0.38162080572E+03  0.41562520089E+03  0.60102393070E+03  0.00000000000E+00 0.  1.
        -13    1    3    3    0    0  0.29294977657E+03 -0.40015175292E+03  0.57559928449E+03  0.75977334335E+03  0.00000000000E+00 0. -1.
         22    1    1    2    0    0 -0.49995465164E+03  0.78177255864E+03 -0.41570250540E+02  0.92889777310E+03  0.00000000000E+00 0. -1.
<mgrwt>
<rscale>  0 0.20834731E+04</rscale>
<asrwt>0</asrwt>
<pdfrwt beam="1">  1        2 0.10308006E+00 0.20834731E+04</pdfrwt>
<pdfrwt beam="2">  1       -2 0.24918071E+00 0.20834731E+04</pdfrwt>
<totfact> 0.25968854E+00</totfact>
</mgrwt>
</event>
<event>
 6    1  0.9906445E-006  0.9873838E+03  0.7818608E-02  0.9322491E-01
         -1   -1    0    0    0  501 -0.00000000000E+00  0.00000000000E+00  0.41976191537E+03  0.41976191537E+03  0.00000000000E+00 0.  1.
          1   -1    0    0  501    0  0.00000000000E+00 -0.00000000000E+00 -0.58064271554E+03  0.58064271554E+03  0.00000000000E+00 0. -1.
         23    2    1    2    0    0  0.13925232455E+03 -0.38505923046E+03  0.19104362165E+03  0.46048554481E+03  0.88811321043E+02 0.  0.
         11    1    3    3    0    0  0.43595028058E+02 -0.24817745016E+03  0.11679377686E+03  0.27772893179E+03  0.00000000000E+00 0. -1.
        -11    1    3    3    0    0  0.95657296487E+02 -0.13688178031E+03  0.74249844789E+02  0.18275661302E+03  0.00000000000E+00 0.  1.
         22    1    1    2    0    0 -0.13925232455E+03  0.38505923046E+03 -0.35192442183E+03  0.53991908610E+03  0.00000000000E+00 0. -1.
<mgrwt>
<rscale>  0 0.98738381E+03</rscale>
<asrwt>0</asrwt>
<pdfrwt beam="1">  1        1 0.89329649E-01 0.98738381E+03</pdfrwt>
<pdfrwt beam="2">  1       -1 0.64578756E-01 0.98738381E+03</pdfrwt>
<totfact> 0.87622263E+01</totfact>
</mgrwt>
</event>
<event>
 6    1  0.9906445E-006  0.1622896E+04  0.7818608E-02  0.8806604E-01
         -2   -1    0    0    0  501 -0.00000000000E+00  0.00000000000E+00  0.64502894405E+03  0.64502894405E+03  0.00000000000E+00 0.  1.
          2   -1    0    0  501    0  0.00000000000E+00 -0.00000000000E+00 -0.10208040569E+04  0.10208040569E+04  0.00000000000E+00 0. -1.
         23    2    1    2    0    0  0.24630820932E+03 -0.51436956093E+02 -0.97807854533E+03  0.10130827277E+04  0.79909184850E+02 0.  0.
         13    1    3    3    0    0  0.13539578990E+03 -0.68365875043E+02 -0.54631764485E+03  0.56698225886E+03  0.00000000000E+00 0. -1.
        -13    1    3    3    0    0  0.11091241942E+03  0.16928918950E+02 -0.43176090048E+03  0.44610046880E+03  0.00000000000E+00 0.  1.
         22    1    1    2    0    0 -0.24630820932E+03  0.51436956093E+02  0.60230343251E+03  0.65275027326E+03  0.00000000000E+00 0.  1.
<mgrwt>
<rscale>  0 0.16228964E+04</rscale>
<asrwt>0</asrwt>
<pdfrwt beam="1">  1        2 0.15704678E+00 0.16228964E+04</pdfrwt>
<pdfrwt beam="2">  1       -2 0.99235223E-01 0.16228964E+04</pdfrwt>
<totfact> 0.19672610E+01</totfact>
</mgrwt>
</event>
<event>
 6    1  0.9906445E-006  0.2646494E+04  0.7818608E-02  0.8352578E-01
         -1   -1    0    0    0  501 -0.00000000000E+00  0.00000000000E+00  0.79223172391E+03  0.79223172391E+03  0.00000000000E+00 0.  1.
          1   -1    0    0  501    0  0.00000000000E+00 -0.00000000000E+00 -0.22101894529E+04  0.22101894529E+04  0.00000000000E+00 0. -1.
         23    2    1    2    0    0 -0.60443736098E+03 -0.47969855684E+03  0.50735758451E+03  0.92822391396E+03  0.93448847540E+02 0.  0.
         13    1    3    3    0    0 -0.48855043795E+03 -0.33826918114E+03  0.37848127615E+03  0.70452512072E+03  0.00000000000E+00 0. -1.
        -13    1    3    3    0    0 -0.11588692303E+03 -0.14142937571E+03  0.12887630835E+03  0.22369879324E+03  0.00000000000E+00 0.  1.
         22    1    1    2    0    0  0.60443736098E+03  0.47969855684E+03 -0.19253153135E+04  0.20741972628E+04  0.00000000000E+00 0. -1.
<mgrwt>
<rscale>  0 0.26464937E+04</rscale>
<asrwt>0</asrwt>
<pdfrwt beam="1">  1        1 0.34002914E+00 0.26464937E+04</pdfrwt>
<pdfrwt beam="2">  1       -1 0.12188181E+00 0.26464937E+04</pdfrwt>
<totfact> 0.11202211E+00</totfact>
</mgrwt>
</event>
<event>
 6    1  0.9906445E-006  0.9723549E+03  0.7818608E-02  0.9339396E-01
         -2   -1    0    0    0  501 -0.00000000000E+00  0.00000000000E+00  0.20724651104E+03  0.20724651104E+03  0.00000000000E+00 0.  1.
          2   -1    0    0  501    0  0.00000000000E+00 -0.00000000000E+00 -0.11405186905E+04  0.11405186905E+04  0.00000000000E+00 0. -1.
         23    2    1    2    0    0 -0.10394996217E+03  0.13540370482E+02 -0.11225009285E+04  0.11314403170E+04  0.95707471902E+02 0.  0.
         13    1    3    3    0    0 -0.32763100112E+02  0.51673553596E+02 -0.48846932564E+03  0.49228635870E+03  0.00000000000E+00 0. -1.
        -13    1    3    3    0    0 -0.71186862060E+02 -0.38133183114E+02 -0.63403160281E+03  0.63915395825E+03  0.00000000000E+00 0.  1.
         22    1    1    2    0    0  0.10394996217E+03 -0.13540370482E+02  0.18922874897E+03  0.21632488461E+03  0.00000000000E+00 0.  1.
<mgrwt>
<rscale>  0 0.97235491E+03</rscale>
<asrwt>0</asrwt>
<pdfrwt beam="1">  1        2 0.17546442E+00 0.97235491E+03</pdfrwt>
<pdfrwt beam="2">  1       -2 0.31884078E-01 0.97235491E+03</pdfrwt>
<totfact> 0.18784690E+02</totfact>
</mgrwt>
</event>
<event>
 6    1  0.9906445E-006  0.4246510E+04  0.7818608E-02  0.7956584E-01
         -3   -1    0    0    0  501 -0.00000000000E+00  0.00000000000E+00  0.30846756840E+04  0.30846756840E+04  0.00000000000E+00 0.  1.
          3   -1    0    0  501    0  0.00000000000E+00 -0.00000000000E+00 -0.14614865760E+04  0.14614865760E+04  0.00000000000E+00 0. -1.
         23    2    1    2    0    0  0.21158548051E+04 -0.74771863751E+02  0.65617296279E+03  0.22185985954E+04  0.95835185463E+02 0.  0.
         13    1    3    3    0    0  0.60606155865E+03 -0.22916985606E+02  0.14291561673E+03  0.62310566890E+03  0.00000000000E+00 0.  1.
        -13    1    3    3    0    0  0.15097932464E+04 -0.51854878145E+02  0.51325734605E+03  0.15954929265E+04  0.00000000000E+00 0. -1.
         22    1    1    2    0    0 -0.21158548051E+04  0.74771863751E+02  0.96701614523E+03  0.23275636646E+04  0.00000000000E+00 0.  1.
<mgrwt>
<rscale>  0 0.42465101E+04</rscale>
<asrwt>0</asrwt>
<pdfrwt beam="1">  1        3 0.22484409E+00 0.42465101E+04</pdfrwt>
<pdfrwt beam="2">  1       -3 0.47456549E+00 0.42465101E+04</pdfrwt>
<totfact> 0.85612331E-04</totfact>
</mgrwt>
</event>
<event>
 6    1  0.9906445E-006  0.1940884E+04  0.7818608E-02  0.8634769E-01
         -2   -1    0    0    0  501 -0.00000000000E+00  0.00000000000E+00  0.33801128390E+03  0.33801128390E+03  0.00000000000E+00 0.  1.
          2   -1    0    0  501    0  0.00000000000E+00 -0.00000000000E+00 -0.27861736567E+04  0.27861736567E+04  0.00000000000E+00 0. -1.
         23    2    1    2    0    0 -0.85822496940E+03 -0.40443983589E+01 -0.19486226221E+04  0.21311560297E+04  0.90163432118E+02 0.  0.
         11    1    3    3    0    0 -0.67427616696E+03  0.31252626351E+02 -0.14903307908E+04  0.16360656900E+04  0.00000000000E+00 0. -1.
        -11    1    3    3    0    0 -0.18394880245E+03 -0.35297024710E+02 -0.45829183129E+03  0.49509033974E+03  0.00000000000E+00 0.  1.
         22    1    1    2    0    0  0.85822496940E+03  0.40443983589E+01 -0.49953975069E+03  0.99302891085E+03  0.00000000000E+00 0.  1.
<mgrwt>
<rscale>  0 0.19408845E+04</rscale>
<asrwt>0</asrwt>
<pdfrwt beam="1">  1        2 0.42864211E+00 0.19408845E+04</pdfrwt>
<pdfrwt beam="2">  1       -2 0.52001735E-01 0.19408845E+04</pdfrwt>
<totfact> 0.76968077E+00</totfact>
</mgrwt>
</event>
<event>
 6    1  0.9906445E-006  0.2255211E+04  0.7818608E-02  0.8495793E-01
          2   -1    0    0  501    0  0.00000000000E+00  0.00000000000E+00  0.66819340700E+03  0.66819340700E+03  0.00000000000E+00 0. -1.
         -2   -1    0    0    0  501 -0.00000000000E+00 -0.00000000000E+00 -0.19028836599E+04  0.19028836599E+04  0.00000000000E+00 0.  1.
         23    2    1    2    0    0 -0.16369092200E+03  0.11117270378E+04 -0.69325695098E+03  0.13237271781E+04  0.94428372240E+02 0.  0.
         11    1    3    3    0    0 -0.90460694356E+02  0.35336809572E+03 -0.25106747267E+03  0.44281714526E+03  0.00000000000E+00 0.  1.
        -11    1    3    3    0    0 -0.73230227641E+02  0.75835894211E+03 -0.44218947831E+03  0.88091003289E+03  0.00000000000E+00 0. -1.
         22    1    1    2    0    0  0.16369092200E+03 -0.11117270378E+04 -0.54143330194E+03  0.12473498888E+04  0.00000000000E+00 0. -1.
<mgrwt>
<rscale>  0 0.22552111E+04</rscale>
<asrwt>0</asrwt>
<pdfrwt beam="1">  1        2 0.10279899E+00 0.22552111E+04</pdfrwt>
<pdfrwt beam="2">  1       -2 0.29275133E+00 0.22552111E+04</pdfrwt>
<totfact> 0.13919719E+00</totfact>
</mgrwt>
</event>
<event>
 6    1  0.9906445E-006  0.1983677E+04  0.7818608E-02  0.8614290E-01
         -2   -1    0    0    0  501 -0.00000000000E+00  0.00000000000E+00  0.90856506661E+03  0.90856506661E+03  0.00000000000E+00 0.  1.
          2   -1    0    0  501    0  0.00000000000E+00 -0.00000000000E+00 -0.10827444309E+04  0.10827444309E+04  0.00000000000E+00 0. -1.
         23    2    1    2    0    0  0.12393062018E+03 -0.18595459747E+03 -0.10548892147E+04  0.10826909022E+04  0.97418804497E+02 0.  0.
         11    1    3    3    0    0  0.10095203399E+03 -0.17429736715E+03 -0.74552117720E+03  0.77225171480E+03  0.00000000000E+00 0. -1.
        -11    1    3    3    0    0  0.22978586188E+02 -0.11657230319E+02 -0.30936803755E+03  0.31043918744E+03  0.00000000000E+00 0.  1.
         22    1    1    2    0    0 -0.12393062018E+03  0.18595459747E+03  0.88070985047E+03  0.90861859526E+03  0.00000000000E+00 0.  1.
<mgrwt>
<rscale>  0 0.19836772E+04</rscale>
<asrwt>0</asrwt>
<pdfrwt beam="1">  1        2 0.16657607E+00 0.19836772E+04</pdfrwt>
<pdfrwt beam="2">  1       -2 0.13977924E+00 0.19836772E+04</pdfrwt>
<totfact> 0.74916441E+00</totfact>
</mgrwt>
</event>
<event>
 6    1  0.9906445E-006  0.1335337E+04  0.7818608E-02  0.9002003E-01
         -1   -1    0    0    0  501 -0.00000000000E+00  0.00000000000E+00  0.37826848827E+03  0.37826848827E+03  0.00000000000E+00 0.  1.
          1   -1    0    0  501    0  0.00000000000E+00 -0.00000000000E+00 -0.11784776357E+04  0.11784776357E+04  0.00000000000E+00 0. -1.
         23    2    1    2    0    0 -0.41296365864E+03  0.51699756703E+03 -0.32902717952E+03  0.74444204630E+03  0.90053360644E+02 0.  0.
         13    1    3    3    0    0 -0.32362411117E+02  0.17445482777E+02 -0.35884533208E+02  0.51374801666E+02  0.00000000000E+00 0.  1.
        -13    1    3    3    0    0 -0.38060124752E+03  0.49955208425E+03 -0.29314264631E+03  0.69306724464E+03  0.00000000000E+00 0. -1.
         22    1    1    2    0    0  0.41296365864E+03 -0.51699756703E+03 -0.47118196788E+03  0.81230407763E+03  0.00000000000E+00 0. -1.
<mgrwt>
<rscale>  0 0.13353366E+04</rscale>
<asrwt>0</asrwt>
<pdfrwt beam="1">  1        1 0.18130425E+00 0.13353366E+04</pdfrwt>
<pdfrwt beam="2">  1       -1 0.58195153E-01 0.13353366E+04</pdfrwt>
<totfact> 0.32485598E+01</totfact>
</mgrwt>
</event>
<event>
 6    1  0.9906445E-006  0.1468764E+04  0.7818608E-02  0.8905494E-01
         -1   -1    0    0    0  501 -0.00000000000E+00  0.00000000000E+00  0.46133769674E+03  0.46133769674E+03  0.00000000000E+00 0.  1.
          1   -1    0    0  501    0  0.00000000000E+00 -0.00000000000E+00 -0.11690282858E+04  0.11690282858E+04  0.00000000000E+00 0. -1.
         23    2    1    2    0    0  0.26908913949E+03 -0.26661164429E+02  0.39924765451E+03  0.49087835305E+03  0.91886262242E+02 0.  0.
         11    1    3    3    0    0  0.13388796063E+03 -0.51050341417E+02  0.15833677733E+03  0.21354778954E+03  0.00000000000E+00 0. -1.
        -11    1    3    3    0    0  0.13520117885E+03  0.24389176988E+02  0.24091087718E+03  0.27733056352E+03  0.00000000000E+00 0.  1.
         22    1    1    2    0    0 -0.26908913949E+03  0.26661164429E+02 -0.11069382436E+04  0.11394876295E+04  0.00000000000E+00 0. -1.
<mgrwt>
<rscale>  0 0.14687639E+04</rscale>
<asrwt>0</asrwt>
<pdfrwt beam="1">  1        1 0.17985050E+00 0.14687639E+04</pdfrwt>
<pdfrwt beam="2">  1       -1 0.70975031E-01 0.14687639E+04</pdfrwt>
<totfact> 0.21900211E+01</totfact>
</mgrwt>
</event>
<event>
 6    1  0.9906445E-006  0.1524446E+04  0.7818608E-02  0.8868358E-01
          2   -1    0    0  501    0  0.00000000000E+00  0.00000000000E+00  0.81874462309E+03  0.81874462309E+03  0.00000000000E+00 0.  1.
         -2   -1    0    0    0  501 -0.00000000000E+00 -0.00000000000E+00 -0.70960303112E+03  0.70960303112E+03  0.00000000000E+00 0. -1.
         23    2    1    2    0    0 -0.13625281427E+03  0.11594751546E+03 -0.68533074668E+03  0.71397983030E+03  0.89890544546E+02 0.  0.
         11    1    3    3    0    0 -0.40607502736E+02  0.52832162789E+02 -0.12102669693E+03  0.13815812706E+03  0.00000000000E+00 0.  1.
        -11    1    3    3    0    0 -0.95645311530E+02  0.63115352672E+02 -0.56430404975E+03  0.57582170324E+03  0.00000000000E+00 0. -1.
         22    1    1    2    0    0  0.13625281427E+03 -0.11594751546E+03  0.79447233865E+03  0.81436782391E+03  0.00000000000E+00 0.  1.
<mgrwt>
<rscale>  0 0.15244457E+04</rscale>
<asrwt>0</asrwt>
<pdfrwt beam="1">  1        2 0.12596071E+00 0.15244457E+04</pdfrwt>
<pdfrwt beam="2">  1       -2 0.10916970E+00 0.15244457E+04</pdfrwt>
<totfact> 0.21554090E+01</totfact>
</mgrwt>
</event>
<event>
 6    1  0.9906445E-006  0.1386890E+04  0.7818608E-02  0.8963363E-01
          2   -1    0    0  501    0  0.00000000000E+00  0.00000000000E+00  0.56256170802E+03  0.56256170802E+03  0.00000000000E+00 0.  1.
         -2   -1    0    0    0  501 -0.00000000000E+00 -0.00000000000E+00 -0.85477880309E+03  0.85477880309E+03  0.00000000000E+00 0. -1.
         23    2    1    2    0    0 -0.30889253794E+03  0.34600605689E+03  0.37555336580E+03  0.60428935662E+03  0.94818271209E+02 0.  0.
         11    1    3    3    0    0 -0.20950609345E+03  0.19494645679E+03  0.27734502309E+03  0.39851873988E+03  0.00000000000E+00 0. -1.
        -11    1    3    3    0    0 -0.99386444489E+02  0.15105960011E+03  0.98208342712E+02  0.20577061673E+03  0.00000000000E+00 0.  1.
         22    1    1    2    0    0  0.30889253794E+03 -0.34600605689E+03 -0.66777046087E+03  0.81305115449E+03  0.00000000000E+00 0. -1.
<mgrwt>
<rscale>  0 0.13868898E+04</rscale>
<asrwt>0</asrwt>
<pdfrwt beam="1">  1        2 0.86547956E-01 0.13868898E+04</pdfrwt>
<pdfrwt beam="2">  1       -2 0.13150443E+00 0.13868898E+04</pdfrwt>
<totfact> 0.22011720E+01</totfact>
</mgrwt>
</event>
<event>
 6    1  0.9906445E-006  0.1467735E+04  0.7818608E-02  0.8906197E-01
         -1   -1    0    0    0  501 -0.00000000000E+00  0.00000000000E+00  0.39568667852E+03  0.39568667852E+03  0.00000000000E+00 0.  1.
          1   -1    0    0  501    0  0.00000000000E+00 -0.00000000000E+00 -0.13610803294E+04  0.13610803294E+04  0.00000000000E+00 0. -1.
         23    2    1    2    0    0  0.54790001471E+03 -0.46763556699E+03 -0.33536753968E+03  0.79978720124E+03  0.91163210520E+02 0.  0.
         13    1    3    3    0    0  0.44860756607E+03 -0.42293179295E+03 -0.27275321937E+03  0.67417680804E+03  0.00000000000E+00 0.  1.
        -13    1    3    3    0    0  0.99292448644E+02 -0.44703774045E+02 -0.62614320311E+02  0.12561039320E+03  0.00000000000E+00 0. -1.
         22    1    1    2    0    0 -0.54790001471E+03  0.46763556699E+03 -0.63002611123E+03  0.95697980672E+03  0.00000000000E+00 0.  1.
<mgrwt>
<rscale>  0 0.14677348E+04</rscale>
<asrwt>0</asrwt>
<pdfrwt beam="1">  1        1 0.20939697E+00 0.14677348E+04</pdfrwt>
<pdfrwt beam="2">  1       -1 0.60874875E-01 0.14677348E+04</pdfrwt>
<totfact> 0.21721560E+01</totfact>
</mgrwt>
</event>
<event>
 6    1  0.9906445E-006  0.1131327E+04  0.7818608E-02  0.9175185E-01
         -2   -1    0    0    0  501 -0.00000000000E+00  0.00000000000E+00  0.45221152591E+03  0.45221152591E+03  0.00000000000E+00 0.  1.
          2   -1    0    0  501    0  0.00000000000E+00 -0.00000000000E+00 -0.70757854353E+03  0.70757854353E+03  0.00000000000E+00 0. -1.
         23    2    1    2    0    0  0.46587150238E+03 -0.28842736175E+03 -0.25984782523E+03  0.61184237360E+03  0.81262525989E+02 0.  0.
         13    1    3    3    0    0  0.93929914610E+02 -0.58125664728E+02 -0.17828407933E+02  0.11188956112E+03  0.00000000000E+00 0. -1.
        -13    1    3    3    0    0  0.37194158777E+03 -0.23030169702E+03 -0.24201941729E+03  0.49995281248E+03  0.00000000000E+00 0.  1.
         22    1    1    2    0    0 -0.46587150238E+03  0.28842736175E+03  0.44808076031E+01  0.54794769583E+03  0.00000000000E+00 0.  1.
<mgrwt>
<rscale>  0 0.11313270E+04</rscale>
<asrwt>0</asrwt>
<pdfrwt beam="1">  1        2 0.10885824E+00 0.11313270E+04</pdfrwt>
<pdfrwt beam="2">  1       -2 0.69571004E-01 0.11313270E+04</pdfrwt>
<totfact> 0.75503353E+01</totfact>
</mgrwt>
</event>
<event>
 6    1  0.9906445E-006  0.4545532E+04  0.7818608E-02  0.7902714E-01
         -1   -1    0    0    0  501 -0.00000000000E+00  0.00000000000E+00  0.19425256992E+04  0.19425256992E+04  0.00000000000E+00 0.  1.
          1   -1    0    0  501    0  0.00000000000E+00 -0.00000000000E+00 -0.26591485856E+04  0.26591485856E+04  0.00000000000E+00 0. -1.
         23    2    1    2    0    0 -0.92027431438E+03  0.12393628316E+04 -0.20457964210E+04  0.25646108770E+04  0.94978482428E+02 0.  0.
         13    1    3    3    0    0 -0.90609742163E+02  0.11295020427E+03 -0.14971431286E+03  0.20828405962E+03  0.00000000000E+00 0. -1.
        -13    1    3    3    0    0 -0.82966457221E+03  0.11264126273E+04 -0.18960821082E+04  0.23563268174E+04  0.00000000000E+00 0.  1.
         22    1    1    2    0    0  0.92027431438E+03 -0.12393628316E+04  0.13291735347E+04  0.20370634078E+04  0.00000000000E+00 0.  1.
<mgrwt>
<rscale>  0 0.45455316E+04</rscale>
<asrwt>0</asrwt>
<pdfrwt beam="1">  1        1 0.40909978E+00 0.45455316E+04</pdfrwt>
<pdfrwt beam="2">  1       -1 0.29885011E+00 0.45455316E+04</pdfrwt>
<totfact> 0.26378103E-02</totfact>
</mgrwt>
</event>
<event>
 6    1  0.9906445E-006  0.4269564E+04  0.7818608E-02  0.7952270E-01
          2   -1    0    0  501    0  0.00000000000E+00  0.00000000000E+00  0.15166030821E+04  0.15166030821E+04  0.00000000000E+00 0. -1.
         -2   -1    0    0    0  501 -0.00000000000E+00 -0.00000000000E+00 -0.30049359602E+04  0.30049359602E+04  0.00000000000E+00 0.  1.
         23    2    1    2    0    0  0.88592294959E+03 -0.11687290631E+03  0.13075394267E+04  0.15863353538E+04  0.91004139265E+02 0.  0.
         13    1    3    3    0    0  0.78828371037E+03 -0.97501975534E+02  0.12066028563E+04  0.14445720114E+04  0.00000000000E+00 0. -1.
        -13    1    3    3    0    0  0.97639239224E+02 -0.19370930779E+02  0.10093657042E+03  0.14176334238E+03  0.00000000000E+00 0.  1.
         22    1    1    2    0    0 -0.88592294959E+03  0.11687290631E+03 -0.27958723048E+04  0.29352036886E+04  0.00000000000E+00 0.  1.
<mgrwt>
<rscale>  0 0.42695644E+04</rscale>
<asrwt>0</asrwt>
<pdfrwt beam="1">  1        2 0.23332355E+00 0.42695644E+04</pdfrwt>
<pdfrwt beam="2">  1       -2 0.46229784E+00 0.42695644E+04</pdfrwt>
<totfact> 0.27645057E-02</totfact>
</mgrwt>
</event>
<event>
 6    1  0.9906445E-006  0.2754632E+04  0.7818608E-02  0.8317493E-01
         -2   -1    0    0    0  501 -0.00000000000E+00  0.00000000000E+00  0.67829412764E+03  0.67829412764E+03  0.00000000000E+00 0.  1.
          2   -1    0    0  501    0  0.00000000000E+00 -0.00000000000E+00 -0.27967205064E+04  0.27967205064E+04  0.00000000000E+00 0. -1.
         23    2    1    2    0    0  0.20265258103E+03  0.11921867576E+04 -0.23257504012E+03  0.12347439796E+04  0.90134412468E+02 0.  0.
         13    1    3    3    0    0  0.44812880939E+02  0.44374605891E+03 -0.11761173195E+03  0.46124969223E+03  0.00000000000E+00 0. -1.
        -13    1    3    3    0    0  0.15783970009E+03  0.74844069870E+03 -0.11496330817E+03  0.77349428739E+03  0.00000000000E+00 0.  1.
         22    1    1    2    0    0 -0.20265258103E+03 -0.11921867576E+04 -0.18858513386E+04  0.22402706544E+04  0.00000000000E+00 0. -1.
<mgrwt>
<rscale>  0 0.27546318E+04</rscale>
<asrwt>0</asrwt>
<pdfrwt beam="1">  1        2 0.43026470E+00 0.27546318E+04</pdfrwt>
<pdfrwt beam="2">  1       -2 0.10435294E+00 0.27546318E+04</pdfrwt>
<totfact> 0.15131744E+00</totfact>
</mgrwt>
</event>
<event>
 6    1  0.9906445E-006  0.1855410E+04  0.7818608E-02  0.8677375E-01
          2   -1    0    0  501    0  0.00000000000E+00  0.00000000000E+00  0.10200079411E+04  0.10200079411E+04  0.00000000000E+00 0. -1.
         -2   -1    0    0    0  501 -0.00000000000E+00 -0.00000000000E+00 -0.84375511204E+03  0.84375511204E+03  0.00000000000E+00 0.  1.
         23    2    1    2    0    0 -0.22154454450E+03  0.76325795716E+03 -0.38571062506E+03  0.89039384357E+03  0.11128259529E+03 0.  0.
         11    1    3    3    0    0 -0.13635930642E+03  0.43263517242E+03 -0.15952775636E+03  0.48084941292E+03  0.00000000000E+00 0.  1.
        -11    1    3    3    0    0 -0.85185238077E+02  0.33062278474E+03 -0.22618286870E+03  0.40954443064E+03  0.00000000000E+00 0. -1.
         22    1    1    2    0    0  0.22154454450E+03 -0.76325795716E+03  0.56196345413E+03  0.97336920957E+03  0.00000000000E+00 0. -1.
<mgrwt>
<rscale>  0 0.18554104E+04</rscale>
<asrwt>0</asrwt>
<pdfrwt beam="1">  1        2 0.15692430E+00 0.18554104E+04</pdfrwt>
<pdfrwt beam="2">  1       -2 0.12980848E+00 0.18554104E+04</pdfrwt>
<totfact> 0.10020498E+01</totfact>
</mgrwt>
</event>
<event>
 6    1  0.9906445E-006  0.1871522E+04  0.7818608E-02  0.8669163E-01
         -1   -1    0    0    0  501 -0.00000000000E+00  0.00000000000E+00  0.16490320669E+04  0.16490320669E+04  0.00000000000E+00 0.  1.
          1   -1    0    0  501    0  0.00000000000E+00 -0.00000000000E+00 -0.53100765888E+03  0.53100765888E+03  0.00000000000E+00 0. -1.
         23    2    1    2    0    0  0.12386269049E+03 -0.40733972273E+03 -0.40738307086E+03  0.59633028511E+03  0.91549039879E+02 0.  0.
         11    1    3    3    0    0  0.13417101770E+03 -0.31552245305E+03 -0.31289229121E+03  0.46417439208E+03  0.00000000000E+00 0.  1.
        -11    1    3    3    0    0 -0.10308327209E+02 -0.91817269681E+02 -0.94490779654E+02  0.13215589302E+03  0.00000000000E+00 0. -1.
         22    1    1    2    0    0 -0.12386269049E+03  0.40733972273E+03  0.15254074789E+04  0.15837094406E+04  0.00000000000E+00 0.  1.
<mgrwt>
<rscale>  0 0.18715220E+04</rscale>
<asrwt>0</asrwt>
<pdfrwt beam="1">  1        1 0.81693486E-01 0.18715220E+04</pdfrwt>
<pdfrwt beam="2">  1       -1 0.25369724E+00 0.18715220E+04</pdfrwt>
<totfact> 0.25213333E+00</totfact>
</mgrwt>
</event>
<event>
 6    1  0.9906445E-006  0.1763848E+04  0.7818608E-02  0.8725765E-01
         -2   -1    0    0    0  501 -0.00000000000E+00  0.00000000000E+00  0.68537179055E+03  0.68537179055E+03  0.00000000000E+00 0.  1.
          2   -1    0    0  501    0  0.00000000000E+00 -0.00000000000E+00 -0.11348435114E+04  0.11348435114E+04  0.00000000000E+00 0. -1.
         23    2    1    2    0    0 -0.71413009546E+03 -0.12261227942E+03  0.28917571416E+03  0.78550974116E+03  0.91582724904E+02 0.  0.
         13    1    3    3    0    0 -0.22965448698E+03 -0.53953317287E+02  0.51227954897E+02  0.24140515156E+03  0.00000000000E+00 0.  1.
        -13    1    3    3    0    0 -0.48447560848E+03 -0.68658962128E+02  0.23794775926E+03  0.54410458960E+03  0.00000000000E+00 0. -1.
         22    1    1    2    0    0  0.71413009546E+03  0.12261227942E+03 -0.73864743501E+03  0.10347055608E+04  0.00000000000E+00 0. -1.
<mgrwt>
<rscale>  0 0.17638478E+04</rscale>
<asrwt>0</asrwt>
<pdfrwt beam="1">  1        2 0.17459131E+00 0.17638478E+04</pdfrwt>
<pdfrwt beam="2">  1       -2 0.10544181E+00 0.17638478E+04</pdfrwt>
<totfact> 0.14290857E+01</totfact>
</mgrwt>
</event>
<event>
 6    1  0.9906445E-006  0.1232869E+04  0.7818608E-02  0.9084563E-01
         -1   -1    0    0    0  501 -0.00000000000E+00  0.00000000000E+00  0.31848039020E+03  0.31848039020E+03  0.00000000000E+00 0.  1.
          1   -1    0    0  501    0  0.00000000000E+00 -0.00000000000E+00 -0.11931384819E+04  0.11931384819E+04  0.00000000000E+00 0. -1.
         23    2    1    2    0    0 -0.28263018308E+03  0.26481493859E+03 -0.10198544652E+04  0.10979901025E+04  0.12438795337E+03 0.  0.
         11    1    3    3    0    0 -0.12873082329E+03  0.12293701487E+03 -0.63986095794E+03  0.66415900204E+03  0.00000000000E+00 0.  1.
        -11    1    3    3    0    0 -0.15389935979E+03  0.14187792372E+03 -0.37999350727E+03  0.43383110048E+03  0.00000000000E+00 0. -1.
         22    1    1    2    0    0  0.28263018308E+03 -0.26481493859E+03  0.14519637355E+03  0.41362876953E+03  0.00000000000E+00 0.  1.
<mgrwt>
<rscale>  0 0.12328685E+04</rscale>
<asrwt>0</asrwt>
<pdfrwt beam="1">  1        1 0.18355976E+00 0.12328685E+04</pdfrwt>
<pdfrwt beam="2">  1       -1 0.48996984E-01 0.12328685E+04</pdfrwt>
<totfact> 0.44515130E+01</totfact>
</mgrwt>
</event>
<event>
 6    1  0.9906445E-006  0.8524747E+03  0.7818608E-02  0.9487021E-01
         -1   -1    0    0    0  501 -0.00000000000E+00  0.00000000000E+00  0.18824582664E+03  0.18824582664E+03  0.00000000000E+00 0.  1.
          1   -1    0    0  501    0  0.00000000000E+00 -0.00000000000E+00 -0.96511196379E+03  0.96511196379E+03  0.00000000000E+00 0. -1.
         23    2    1    2    0    0  0.11954503513E+03  0.59880252577E+02 -0.93342669487E+03  0.94747464808E+03  0.92445410897E+02 0.  0.
         11    1    3    3    0    0  0.51969518486E+02 -0.30103020786E+00 -0.59143784548E+03  0.59371680668E+03  0.00000000000E+00 0.  1.
        -11    1    3    3    0    0  0.67575516642E+02  0.60181282785E+02 -0.34198884939E+03  0.35375784140E+03  0.00000000000E+00 0. -1.
         22    1    1    2    0    0 -0.11954503513E+03 -0.59880252577E+02  0.15656055772E+03  0.20588314235E+03  0.00000000000E+00 0.  1.
<mgrwt>
<rscale>  0 0.85247475E+03</rscale>
<asrwt>0</asrwt>
<pdfrwt beam="1">  1        1 0.14847877E+00 0.85247475E+03</pdfrwt>
<pdfrwt beam="2">  1       -1 0.28960896E-01 0.85247475E+03</pdfrwt>
<totfact> 0.17639231E+02</totfact>
</mgrwt>
</event>
<event>
 6    1  0.9906445E-006  0.2569753E+04  0.7818608E-02  0.8378549E-01
          2   -1    0    0  501    0  0.00000000000E+00  0.00000000000E+00  0.13305418607E+04  0.13305418607E+04  0.00000000000E+00 0. -1.
         -2   -1    0    0    0  501 -0.00000000000E+00 -0.00000000000E+00 -0.12407784470E+04  0.12407784470E+04  0.00000000000E+00 0.  1.
         23    2    1    2    0    0  0.40423355903E+03  0.89764103778E+03 -0.77849900497E+03  0.12586726662E+04  0.95036713912E+02 0.  0.
         13    1    3    3    0    0  0.37140381360E+03  0.74415830886E+03 -0.66763332789E+03  0.10665114354E+04  0.00000000000E+00 0. -1.
        -13    1    3    3    0    0  0.32829745429E+02  0.15348272892E+03 -0.11086567708E+03  0.19216123078E+03  0.00000000000E+00 0.  1.
         22    1    1    2    0    0 -0.40423355903E+03 -0.89764103778E+03  0.86826241873E+03  0.13126476415E+04  0.00000000000E+00 0. -1.
<mgrwt>
<rscale>  0 0.25697530E+04</rscale>
<asrwt>0</asrwt>
<pdfrwt beam="1">  1        2 0.20469875E+00 0.25697530E+04</pdfrwt>
<pdfrwt beam="2">  1       -2 0.19088899E+00 0.25697530E+04</pdfrwt>
<totfact> 0.21515061E+00</totfact>
</mgrwt>
</event>
<event>
 6    1  0.9906445E-006  0.1604249E+04  0.7818608E-02  0.8817942E-01
         -2   -1    0    0    0  501 -0.00000000000E+00  0.00000000000E+00  0.98864734080E+03  0.98864734080E+03  0.00000000000E+00 0.  1.
          2   -1    0    0  501    0  0.00000000000E+00 -0.00000000000E+00 -0.65079231486E+03  0.65079231486E+03  0.00000000000E+00 0. -1.
         23    2    1    2    0    0 -0.54127835304E+03 -0.49199177994E+03  0.49928886471E+03  0.89037420372E+03  0.91862316657E+02 0.  0.
         11    1    3    3    0    0 -0.37362693045E+03 -0.35421825555E+03  0.30074229974E+03  0.59624960091E+03  0.00000000000E+00 0. -1.
        -11    1    3    3    0    0 -0.16765142259E+03 -0.13777352438E+03  0.19854656497E+03  0.29412460281E+03  0.00000000000E+00 0.  1.
         22    1    1    2    0    0  0.54127835304E+03  0.49199177994E+03 -0.16143383877E+03  0.74906545194E+03  0.00000000000E+00 0. -1.
<mgrwt>
<rscale>  0 0.16042495E+04</rscale>
<asrwt>0</asrwt>
<pdfrwt beam="1">  1        2 0.10012189E+00 0.16042495E+04</pdfrwt>
<pdfrwt beam="2">  1       -2 0.15209959E+00 0.16042495E+04</pdfrwt>
<totfact> 0.12418383E+01</totfact>
</mgrwt>
</event>
<event>
 6    1  0.9906445E-006  0.4860719E+04  0.7818608E-02  0.7850359E-01
         -2   -1    0    0    0  501 -0.00000000000E+00  0.00000000000E+00  0.20961117818E+04  0.20961117818E+04  0.00000000000E+00 0.  1.
          2   -1    0    0  501    0  0.00000000000E+00 -0.00000000000E+00 -0.28179061193E+04  0.28179061193E+04  0.00000000000E+00 0. -1.
         23    2    1    2    0    0 -0.42518991132E+01  0.19337052468E+04  0.11260875332E+04  0.22393400761E+04  0.85655028698E+02 0.  0.
         11    1    3    3    0    0 -0.25246479687E+02  0.15383126007E+04  0.86423911858E+03  0.17646394239E+04  0.00000000000E+00 0. -1.
        -11    1    3    3    0    0  0.20994580574E+02  0.39539264606E+03  0.26184841458E+03  0.47470065219E+03  0.00000000000E+00 0.  1.
         22    1    1    2    0    0  0.42518991132E+01 -0.19337052468E+04 -0.18478818706E+04  0.26746778251E+04  0.00000000000E+00 0. -1.
<mgrwt>
<rscale>  0 0.48607186E+04</rscale>
<asrwt>0</asrwt>
<pdfrwt beam="1">  1        2 0.43352401E+00 0.48607186E+04</pdfrwt>
<pdfrwt beam="2">  1       -2 0.32247874E+00 0.48607186E+04</pdfrwt>
<totfact> 0.38364053E-02</totfact>
</mgrwt>
</event>
<event>
 6    1  0.9906445E-006  0.3084073E+04  0.7818608E-02  0.8220122E-01
         -2   -1    0    0    0  501 -0.00000000000E+00  0.00000000000E+00  0.22261230738E+04  0.22261230738E+04  0.00000000000E+00 0.  1.
          2   -1    0    0  501    0  0.00000000000E+00 -0.00000000000E+00 -0.10681696367E+04  0.10681696367E+04  0.00000000000E+00 0. -1.
         23    2    1    2    0    0 -0.93753733244E+03 -0.77891275356E+03  0.15860277694E+04  0.20024223760E+04  0.92357777262E+02 0.  0.
         11    1    3    3    0    0 -0.42995734940E+03 -0.40560569820E+03  0.81244675391E+03  0.10047134082E+04  0.00000000000E+00 0. -1.
        -11    1    3    3    0    0 -0.50757998305E+03 -0.37330705536E+03  0.77358101549E+03  0.99770896774E+03  0.00000000000E+00 0.  1.
         22    1    1    2    0    0  0.93753733244E+03  0.77891275356E+03 -0.42807433222E+03  0.12918703345E+04  0.00000000000E+00 0. -1.
<mgrwt>
<rscale>  0 0.30840733E+04</rscale>
<asrwt>0</asrwt>
<pdfrwt beam="1">  1        2 0.16433379E+00 0.30840733E+04</pdfrwt>
<pdfrwt beam="2">  1       -2 0.34248047E+00 0.30840733E+04</pdfrwt>
<totfact> 0.33619639E-01</totfact>
</mgrwt>
</event>
<event>
 6    1  0.9906445E-006  0.1495561E+04  0.7818608E-02  0.8887410E-01
         -1   -1    0    0    0  501 -0.00000000000E+00  0.00000000000E+00  0.42339836956E+03  0.42339836956E+03  0.00000000000E+00 0.  1.
          1   -1    0    0  501    0  0.00000000000E+00 -0.00000000000E+00 -0.13206837800E+04  0.13206837800E+04  0.00000000000E+00 0. -1.
         23    2    1    2    0    0  0.30330961485E+03 -0.33538790559E+03 -0.11406764070E+04  0.12305444714E+04  0.92818429316E+02 0.  0.
         11    1    3    3    0    0  0.12514458888E+03 -0.20595043455E+03 -0.56997808327E+03  0.61883096644E+03  0.00000000000E+00 0. -1.
        -11    1    3    3    0    0  0.17816502596E+03 -0.12943747104E+03 -0.57069832376E+03  0.61171350494E+03  0.00000000000E+00 0.  1.
         22    1    1    2    0    0 -0.30330961485E+03  0.33538790559E+03  0.24339099659E+03  0.51353767817E+03  0.00000000000E+00 0.  1.
<mgrwt>
<rscale>  0 0.14955606E+04</rscale>
<asrwt>0</asrwt>
<pdfrwt beam="1">  1        1 0.20318212E+00 0.14955606E+04</pdfrwt>
<pdfrwt beam="2">  1       -1 0.65138212E-01 0.14955606E+04</pdfrwt>
<totfact> 0.20215510E+01</totfact>
</mgrwt>
</event>
<event>
 6    1  0.9906445E-006  0.7802458E+03  0.7818608E-02  0.9589059E-01
         -2   -1    0    0    0  501 -0.00000000000E+00  0.00000000000E+00  0.82219696186E+02  0.82219696186E+02  0.00000000000E+00 0. -1.
          2   -1    0    0  501    0  0.00000000000E+00 -0.00000000000E+00 -0.18510877120E+04  0.18510877120E+04  0.00000000000E+00 0.  1.
         23    2    1    2    0    0 -0.10446907756E+03  0.36726359704E+03 -0.77637839626E+03  0.86990156713E+03  0.90382434335E+02 0.  0.
         11    1    3    3    0    0 -0.96392152149E+02  0.17373118264E+03 -0.39472706758E+03  0.44190884660E+03  0.00000000000E+00 0.  1.
        -11    1    3    3    0    0 -0.80769254123E+01  0.19353241440E+03 -0.38165132868E+03  0.42799272054E+03  0.00000000000E+00 0. -1.
         22    1    1    2    0    0  0.10446907756E+03 -0.36726359704E+03 -0.99248961958E+03  0.10634058411E+04  0.00000000000E+00 0.  1.
<mgrwt>
<rscale>  0 0.78024578E+03</rscale>
<asrwt>0</asrwt>
<pdfrwt beam="1">  1        2 0.28478272E+00 0.78024578E+03</pdfrwt>
<pdfrwt beam="2">  1       -2 0.12649184E-01 0.78024578E+03</pdfrwt>
<totfact> 0.38367648E+02</totfact>
</mgrwt>
</event>
<event>
 6    1  0.9906445E-006  0.4337694E+04  0.7818608E-02  0.7939685E-01
          3   -1    0    0  501    0  0.00000000000E+00  0.00000000000E+00  0.18575363179E+04  0.18575363179E+04  0.00000000000E+00 0. -1.
         -3   -1    0    0    0  501 -0.00000000000E+00 -0.00000000000E+00 -0.25323316925E+04  0.25323316925E+04  0.00000000000E+00 0.  1.
         23    2    1    2    0    0 -0.34905877180E+03  0.18974822566E+04  0.66299718051E+03  0.20421095346E+04  0.91461193211E+02 0.  0.
         13    1    3    3    0    0 -0.14087285941E+03  0.91298883018E+03  0.35660450308E+03  0.99023256772E+03  0.00000000000E+00 0. -1.
        -13    1    3    3    0    0 -0.20818591238E+03  0.98449342638E+03  0.30639267743E+03  0.10518769669E+04  0.00000000000E+00 0.  1.
         22    1    1    2    0    0  0.34905877180E+03 -0.18974822566E+04 -0.13377925551E+04  0.23477584758E+04  0.00000000000E+00 0.  1.
<mgrwt>
<rscale>  0 0.43376944E+04</rscale>
<asrwt>0</asrwt>
<pdfrwt beam="1">  1        3 0.28577482E+00 0.43376944E+04</pdfrwt>
<pdfrwt beam="2">  1       -3 0.38958949E+00 0.43376944E+04</pdfrwt>
<totfact> 0.11039536E-03</totfact>
</mgrwt>
</event>
<event>
 6    1  0.9906445E-006  0.2383404E+04  0.7818608E-02  0.8445743E-01
         -1   -1    0    0    0  501 -0.00000000000E+00  0.00000000000E+00  0.80364670746E+03  0.80364670746E+03  0.00000000000E+00 0.  1.
          1   -1    0    0  501    0  0.00000000000E+00 -0.00000000000E+00 -0.17671362337E+04  0.17671362337E+04  0.00000000000E+00 0. -1.
         23    2    1    2    0    0  0.74807215281E+03  0.70537532856E+03  0.16367506764E+03  0.10451138022E+04  0.91142919646E+02 0.  0.
         13    1    3    3    0    0  0.37326971389E+03  0.28955990246E+03  0.75416171052E+02  0.47839608619E+03  0.00000000000E+00 0. -1.
        -13    1    3    3    0    0  0.37480243892E+03  0.41581542610E+03  0.88258896586E+02  0.56671771600E+03  0.00000000000E+00 0.  1.
         22    1    1    2    0    0 -0.74807215281E+03 -0.70537532856E+03 -0.11271645939E+04  0.15256691390E+04  0.00000000000E+00 0. -1.
<mgrwt>
<rscale>  0 0.23834036E+04</rscale>
<asrwt>0</asrwt>
<pdfrwt beam="1">  1        1 0.27186711E+00 0.23834036E+04</pdfrwt>
<pdfrwt beam="2">  1       -1 0.12363796E+00 0.23834036E+04</pdfrwt>
<totfact> 0.22134606E+00</totfact>
</mgrwt>
</event>
<event>
 6    1  0.9906445E-006  0.9083339E+03  0.7818608E-02  0.9415223E-01
          2   -1    0    0  501    0  0.00000000000E+00  0.00000000000E+00  0.86058476975E+03  0.86058476975E+03  0.00000000000E+00 0. -1.
         -2   -1    0    0    0  501 -0.00000000000E+00 -0.00000000000E+00 -0.23968310664E+03  0.23968310664E+03  0.00000000000E+00 0.  1.
         23    2    1    2    0    0  0.31028219569E+03 -0.12318189306E+03  0.67871055992E+03  0.76146013107E+03  0.87890200408E+02 0.  0.
         13    1    3    3    0    0  0.22487593393E+03 -0.45741604020E+02  0.46973674952E+03  0.52279450442E+03  0.00000000000E+00 0.  1.
        -13    1    3    3    0    0  0.85406261759E+02 -0.77440289037E+02  0.20897381040E+03  0.23866562665E+03  0.00000000000E+00 0. -1.
         22    1    1    2    0    0 -0.31028219569E+03  0.12318189306E+03 -0.57808896815E+02  0.33880774532E+03  0.00000000000E+00 0.  1.
<mgrwt>
<rscale>  0 0.90833393E+03</rscale>
<asrwt>0</asrwt>
<pdfrwt beam="1">  1        2 0.13239766E+00 0.90833393E+03</pdfrwt>
<pdfrwt beam="2">  1       -2 0.36874325E-01 0.90833393E+03</pdfrwt>
<totfact> 0.21654902E+02</totfact>
</mgrwt>
</event>
<event>
 6    1  0.9906445E-006  0.4630716E+04  0.7818608E-02  0.7888144E-01
         -1   -1    0    0    0  501 -0.00000000000E+00  0.00000000000E+00  0.31630635944E+04  0.31630635944E+04  0.00000000000E+00 0.  1.
          1   -1    0    0  501    0  0.00000000000E+00 -0.00000000000E+00 -0.16948385695E+04  0.16948385695E+04  0.00000000000E+00 0. -1.
         23    2    1    2    0    0 -0.23967643169E+03  0.18685249068E+04  0.21442745839E+04  0.28564344210E+04  0.11168702265E+03 0.  0.
         13    1    3    3    0    0 -0.18315926380E+03  0.10174343101E+04  0.11460342218E+04  0.15434099679E+04  0.00000000000E+00 0.  1.
        -13    1    3    3    0    0 -0.56517167895E+02  0.85109059670E+03  0.99824036210E+03  0.13130244532E+04  0.00000000000E+00 0. -1.
         22    1    1    2    0    0  0.23967643169E+03 -0.18685249068E+04 -0.67604955906E+03  0.20014677428E+04  0.00000000000E+00 0. -1.
<mgrwt>
<rscale>  0 0.46307158E+04</rscale>
<asrwt>0</asrwt>
<pdfrwt beam="1">  1        1 0.26074439E+00 0.46307158E+04</pdfrwt>
<pdfrwt beam="2">  1       -1 0.48662517E+00 0.46307158E+04</pdfrwt>
<totfact> 0.65366156E-03</totfact>
</mgrwt>
</event>
<event>
 6    1  0.9906445E-006  0.2946726E+04  0.7818608E-02  0.8259109E-01
         -1   -1    0    0    0  501 -0.00000000000E+00  0.00000000000E+00  0.16166798571E+04  0.16166798571E+04  0.00000000000E+00 0.  1.
          1   -1    0    0  501    0  0.00000000000E+00 -0.00000000000E+00 -0.13427511477E+04  0.13427511477E+04  0.00000000000E+00 0. -1.
         23    2    1    2    0    0 -0.73196167418E+02  0.13640421048E+04 -0.41365613779E+03  0.14301365713E+04  0.90612745402E+02 0.  0.
         11    1    3    3    0    0 -0.14776795447E+02  0.64054306136E+03 -0.15140212156E+03  0.65835884558E+03  0.00000000000E+00 0.  1.
        -11    1    3    3    0    0 -0.58419371971E+02  0.72349904341E+03 -0.26225401622E+03  0.77177772569E+03  0.00000000000E+00 0. -1.
         22    1    1    2    0    0  0.73196167418E+02 -0.13640421048E+04  0.68758484722E+03  0.15292944336E+04  0.00000000000E+00 0.  1.
<mgrwt>
<rscale>  0 0.29467261E+04</rscale>
<asrwt>0</asrwt>
<pdfrwt beam="1">  1        1 0.20657710E+00 0.29467261E+04</pdfrwt>
<pdfrwt beam="2">  1       -1 0.24871998E+00 0.29467261E+04</pdfrwt>
<totfact> 0.51240988E-01</totfact>
</mgrwt>
</event>
<event>
 6    1  0.9906445E-006  0.6711534E+03  0.7818608E-02  0.9767876E-01
          1   -1    0    0  501    0  0.00000000000E+00  0.00000000000E+00  0.84044603818E+03  0.84044603818E+03  0.00000000000E+00 0. -1.
         -1   -1    0    0    0  501 -0.00000000000E+00 -0.00000000000E+00 -0.13399043864E+03  0.13399043864E+03  0.00000000000E+00 0.  1.
         23    2    1    2    0    0 -0.15488370500E+03 -0.11816909212E+03  0.74542369787E+03  0.77576234893E+03  0.90541903302E+02 0.  0.
         13    1    3    3    0    0 -0.81744115429E+02 -0.10348508954E+03  0.36499281814E+03  0.38808635825E+03  0.00000000000E+00 0.  1.
        -13    1    3    3    0    0 -0.73139589572E+02 -0.14684002584E+02  0.38043087973E+03  0.38767599068E+03  0.00000000000E+00 0. -1.
         22    1    1    2    0    0  0.15488370500E+03  0.11816909212E+03 -0.38968098328E+02  0.19867412790E+03  0.00000000000E+00 0.  1.
<mgrwt>
<rscale>  0 0.67115343E+03</rscale>
<asrwt>0</asrwt>
<pdfrwt beam="1">  1        1 0.12929939E+00 0.67115343E+03</pdfrwt>
<pdfrwt beam="2">  1       -1 0.20613914E-01 0.67115343E+03</pdfrwt>
<totfact> 0.40124462E+02</totfact>
</mgrwt>
</event>
<event>
 6    1  0.9906445E-006  0.2102433E+04  0.7818608E-02  0.8560172E-01
          1   -1    0    0  501    0  0.00000000000E+00  0.00000000000E+00  0.94587962884E+03  0.94587962884E+03  0.00000000000E+00 0. -1.
         -1   -1    0    0    0  501 -0.00000000000E+00 -0.00000000000E+00 -0.11682846328E+04  0.11682846328E+04  0.00000000000E+00 0.  1.
         23    2    1    2    0    0  0.36714231151E+03 -0.96680629602E+03 -0.28932625481E+03  0.10778311372E+04  0.92208392960E+02 0.  0.
         13    1    3    3    0    0  0.90625676403E+02 -0.16683351930E+03 -0.79255109037E+02  0.20573723215E+03  0.00000000000E+00 0. -1.
        -13    1    3    3    0    0  0.27651663510E+03 -0.79997277672E+03 -0.21007114578E+03  0.87209390507E+03  0.00000000000E+00 0.  1.
         22    1    1    2    0    0 -0.36714231151E+03  0.96680629602E+03  0.66921250868E+02  0.10363331244E+04  0.00000000000E+00 0. -1.
<mgrwt>
<rscale>  0 0.21024335E+04</rscale>
<asrwt>0</asrwt>
<pdfrwt beam="1">  1        1 0.14551994E+00 0.21024335E+04</pdfrwt>
<pdfrwt beam="2">  1       -1 0.17973610E+00 0.21024335E+04</pdfrwt>
<totfact> 0.32098406E+00</totfact>
</mgrwt>
</event>
<event>
 6    1  0.9906445E-006  0.1620230E+04  0.7818608E-02  0.8808216E-01
         -1   -1    0    0    0  501 -0.00000000000E+00  0.00000000000E+00  0.25976635691E+03  0.25976635691E+03  0.00000000000E+00 0.  1.
          1   -1    0    0  501    0  0.00000000000E+00 -0.00000000000E+00 -0.25264477307E+04  0.25264477307E+04  0.00000000000E+00 0. -1.
         23    2    1    2    0    0 -0.59320291722E+03  0.52724373884E+03 -0.13932698633E+04  0.16060770923E+04  0.91689983411E+02 0.  0.
         13    1    3    3    0    0 -0.22490465394E+03  0.17009748205E+03 -0.42016002055E+03  0.50601353701E+03  0.00000000000E+00 0. -1.
        -13    1    3    3    0    0 -0.36829826328E+03  0.35714625679E+03 -0.97310984279E+03  0.11000635553E+04  0.00000000000E+00 0.  1.
         22    1    1    2    0    0  0.59320291722E+03 -0.52724373884E+03 -0.87341151040E+03  0.11801369953E+04  0.00000000000E+00 0.  1.
<mgrwt>
<rscale>  0 0.16202298E+04</rscale>
<asrwt>0</asrwt>
<pdfrwt beam="1">  1        1 0.38868427E+00 0.16202298E+04</pdfrwt>
<pdfrwt beam="2">  1       -1 0.39964054E-01 0.16202298E+04</pdfrwt>
<totfact> 0.76049230E+00</totfact>
</mgrwt>
</event>
<event>
 6    1  0.9906445E-006  0.2196655E+04  0.7818608E-02  0.8519821E-01
         -1   -1    0    0    0  501 -0.00000000000E+00  0.00000000000E+00  0.64635324666E+03  0.64635324666E+03  0.00000000000E+00 0.  1.
          1   -1    0    0  501    0  0.00000000000E+00 -0.00000000000E+00 -0.18663536261E+04  0.18663536261E+04  0.00000000000E+00 0. -1.
         23    2    1    2    0    0 -0.22080290690E+03 -0.82342177411E+03  0.17754657626E+03  0.87566232995E+03  0.92110735388E+02 0.  0.
         11    1    3    3    0    0 -0.15287206818E+03 -0.39231003011E+03  0.87574391881E+02  0.43005383740E+03  0.00000000000E+00 0.  1.
        -11    1    3    3    0    0 -0.67930838729E+02 -0.43111174401E+03  0.89972184378E+02  0.44560849255E+03  0.00000000000E+00 0. -1.
         22    1    1    2    0    0  0.22080290690E+03  0.82342177411E+03 -0.13975469557E+04  0.16370445429E+04  0.00000000000E+00 0. -1.
<mgrwt>
<rscale>  0 0.21966554E+04</rscale>
<asrwt>0</asrwt>
<pdfrwt beam="1">  1        1 0.28713132E+00 0.21966554E+04</pdfrwt>
<pdfrwt beam="2">  1       -1 0.99438962E-01 0.21966554E+04</pdfrwt>
<totfact> 0.32329413E+00</totfact>
</mgrwt>
</event>
<event>
 6    1  0.9906445E-006  0.2411654E+04  0.7818608E-02  0.8435154E-01
         -1   -1    0    0    0  501 -0.00000000000E+00  0.00000000000E+00  0.61994966841E+03  0.61994966841E+03  0.00000000000E+00 0.  1.
          1   -1    0    0  501    0  0.00000000000E+00 -0.00000000000E+00 -0.23453810770E+04  0.23453810770E+04  0.00000000000E+00 0. -1.
         23    2    1    2    0    0  0.10417372983E+04  0.13379555590E+03 -0.14008904277E+03  0.10636398488E+04  0.92665734808E+02 0.  0.
         11    1    3    3    0    0  0.61965575679E+03  0.11406369630E+03 -0.53649361869E+02  0.63234645390E+03  0.00000000000E+00 0. -1.
        -11    1    3    3    0    0  0.42208154156E+03  0.19731859597E+02 -0.86439680900E+02  0.43129339485E+03  0.00000000000E+00 0.  1.
         22    1    1    2    0    0 -0.10417372983E+04 -0.13379555590E+03 -0.15853423658E+04  0.19016908967E+04  0.00000000000E+00 0. -1.
<mgrwt>
<rscale>  0 0.24116536E+04</rscale>
<asrwt>0</asrwt>
<pdfrwt beam="1">  1        1 0.36082785E+00 0.24116536E+04</pdfrwt>
<pdfrwt beam="2">  1       -1 0.95376875E-01 0.24116536E+04</pdfrwt>
<totfact> 0.16454109E+00</totfact>
</mgrwt>
</event>
<event>
 6    1  0.9906445E-006  0.2837895E+04  0.7818608E-02  0.8291599E-01
          2   -1    0    0  501    0  0.00000000000E+00  0.00000000000E+00  0.24637632850E+04  0.24637632850E+04  0.00000000000E+00 0. -1.
         -2   -1    0    0    0  501 -0.00000000000E+00 -0.00000000000E+00 -0.81720998012E+03  0.81720998012E+03  0.00000000000E+00 0.  1.
         23    2    1    2    0    0 -0.47605275463E+03  0.74194991736E+03  0.21074436396E+04  0.22862191218E+04  0.91450936696E+02 0.  0.
         13    1    3    3    0    0 -0.11316840731E+03  0.22280735473E+03  0.68364251163E+03  0.72788549198E+03  0.00000000000E+00 0. -1.
        -13    1    3    3    0    0 -0.36288434732E+03  0.51914256263E+03  0.14238011280E+04  0.15583336298E+04  0.00000000000E+00 0.  1.
         22    1    1    2    0    0  0.47605275463E+03 -0.74194991736E+03 -0.46089033468E+03  0.99475414333E+03  0.00000000000E+00 0.  1.
<mgrwt>
<rscale>  0 0.28378950E+04</rscale>
<asrwt>0</asrwt>
<pdfrwt beam="1">  1        2 0.37904050E+00 0.28378950E+04</pdfrwt>
<pdfrwt beam="2">  1       -2 0.12572461E+00 0.28378950E+04</pdfrwt>
<totfact> 0.14973292E+00</totfact>
</mgrwt>
</event>
<event>
 6    1  0.9906445E-006  0.2886594E+04  0.7818608E-02  0.8276877E-01
          2   -1    0    0  501    0  0.00000000000E+00  0.00000000000E+00  0.22530278778E+04  0.22530278778E+04  0.00000000000E+00 0. -1.
         -2   -1    0    0    0  501 -0.00000000000E+00 -0.00000000000E+00 -0.92458060583E+03  0.92458060583E+03  0.00000000000E+00 0.  1.
         23    2    1    2    0    0  0.87544038537E+03  0.11452530393E+04  0.69368889921E+03  0.16025152851E+04  0.94077402635E+02 0.  0.
         11    1    3    3    0    0  0.60939806790E+03  0.75169630028E+03  0.50325268788E+03  0.10907229716E+04  0.00000000000E+00 0. -1.
        -11    1    3    3    0    0  0.26604231747E+03  0.39355673901E+03  0.19043621133E+03  0.51179231343E+03  0.00000000000E+00 0.  1.
         22    1    1    2    0    0 -0.87544038537E+03 -0.11452530393E+04  0.63475837276E+03  0.15750931985E+04  0.00000000000E+00 0. -1.
<mgrwt>
<rscale>  0 0.28865938E+04</rscale>
<asrwt>0</asrwt>
<pdfrwt beam="1">  1        2 0.34661967E+00 0.28865938E+04</pdfrwt>
<pdfrwt beam="2">  1       -2 0.14224317E+00 0.28865938E+04</pdfrwt>
<totfact> 0.14349516E+00</totfact>
</mgrwt>
</event>
<event>
 6    1  0.9906445E-006  0.6773030E+03  0.7818608E-02  0.9756854E-01
          2   -1    0    0  501    0  0.00000000000E+00  0.00000000000E+00  0.53089829758E+03  0.53089829758E+03  0.00000000000E+00 0.  1.
         -2   -1    0    0    0  501 -0.00000000000E+00 -0.00000000000E+00 -0.21602035205E+03  0.21602035205E+03  0.00000000000E+00 0. -1.
         23    2    1    2    0    0  0.24498810325E+03  0.25679806156E+02 -0.87185392231E+02  0.27539606188E+03  0.86965942187E+02 0.  0.
         13    1    3    3    0    0  0.26495026363E+02 -0.23608754432E+02 -0.13011031044E+01  0.35511302104E+02  0.00000000000E+00 0. -1.
        -13    1    3    3    0    0  0.21849307689E+03  0.49288560588E+02 -0.85884289126E+02  0.23988475978E+03  0.00000000000E+00 0.  1.
         22    1    1    2    0    0 -0.24498810325E+03 -0.25679806156E+02  0.40206333776E+03  0.47152258774E+03  0.00000000000E+00 0.  1.
<mgrwt>
<rscale>  0 0.67730300E+03</rscale>
<asrwt>0</asrwt>
<pdfrwt beam="1">  1        2 0.81676661E-01 0.67730300E+03</pdfrwt>
<pdfrwt beam="2">  1       -2 0.33233901E-01 0.67730300E+03</pdfrwt>
<totfact> 0.48869254E+02</totfact>
</mgrwt>
</event>
<event>
 6    1  0.9906445E-006  0.2726708E+04  0.7818608E-02  0.8326391E-01
          1   -1    0    0  501    0  0.00000000000E+00  0.00000000000E+00  0.24172608236E+04  0.24172608236E+04  0.00000000000E+00 0. -1.
         -1   -1    0    0    0  501 -0.00000000000E+00 -0.00000000000E+00 -0.76894245664E+03  0.76894245664E+03  0.00000000000E+00 0.  1.
         23    2    1    2    0    0 -0.74169003132E+03 -0.92707470705E+03  0.44745437857E+02  0.11909544852E+04  0.82454937233E+02 0.  0.
         11    1    3    3    0    0 -0.58460007764E+03 -0.78018201086E+03  0.29656317257E+02  0.97535671321E+03  0.00000000000E+00 0.  1.
        -11    1    3    3    0    0 -0.15708995368E+03 -0.14689269619E+03  0.15089120600E+02  0.21559777202E+03  0.00000000000E+00 0. -1.
         22    1    1    2    0    0  0.74169003132E+03  0.92707470705E+03  0.16035729291E+04  0.19952487950E+04  0.00000000000E+00 0. -1.
<mgrwt>
<rscale>  0 0.27267083E+04</rscale>
<asrwt>0</asrwt>
<pdfrwt beam="1">  1        1 0.37188628E+00 0.27267083E+04</pdfrwt>
<pdfrwt beam="2">  1       -1 0.11829884E+00 0.27267083E+04</pdfrwt>
<totfact> 0.86295314E-01</totfact>
</mgrwt>
</event>
<event>
 6    1  0.9906445E-006  0.3098180E+04  0.7818608E-02  0.8216237E-01
         -2   -1    0    0    0  501 -0.00000000000E+00  0.00000000000E+00  0.18618717098E+04  0.18618717098E+04  0.00000000000E+00 0.  1.
          2   -1    0    0  501    0  0.00000000000E+00 -0.00000000000E+00 -0.12888538895E+04  0.12888538895E+04  0.00000000000E+00 0. -1.
         23    2    1    2    0    0  0.78432644981E+03 -0.44525378566E+03 -0.99231804393E+03  0.13441555670E+04  0.92952538989E+02 0.  0.
         11    1    3    3    0    0  0.35549747404E+03 -0.24878369645E+03 -0.44276480405E+03  0.61992939386E+03  0.00000000000E+00 0. -1.
        -11    1    3    3    0    0  0.42882897578E+03 -0.19647008921E+03 -0.54955323989E+03  0.72422617316E+03  0.00000000000E+00 0.  1.
         22    1    1    2    0    0 -0.78432644981E+03  0.44525378566E+03  0.15653358643E+04  0.18065700323E+04  0.00000000000E+00 0.  1.
<mgrwt>
<rscale>  0 0.30981805E+04</rscale>
<asrwt>0</asrwt>
<pdfrwt beam="1">  1        2 0.19828521E+00 0.30981805E+04</pdfrwt>
<pdfrwt beam="2">  1       -2 0.28644180E+00 0.30981805E+04</pdfrwt>
<totfact> 0.54812539E-01</totfact>
</mgrwt>
</event>
<event>
 6    1  0.9906445E-006  0.2991856E+04  0.7818608E-02  0.8246060E-01
          1   -1    0    0  501    0  0.00000000000E+00  0.00000000000E+00  0.83052792962E+03  0.83052792962E+03  0.00000000000E+00 0. -1.
         -1   -1    0    0    0  501 -0.00000000000E+00 -0.00000000000E+00 -0.26944323430E+04  0.26944323430E+04  0.00000000000E+00 0.  1.
         23    2    1    2    0    0  0.81454333130E+03 -0.11311181975E+04 -0.29755626298E+03  0.14282114218E+04  0.91317690330E+02 0.  0.
         11    1    3    3    0    0  0.43944875962E+03 -0.54008576902E+03 -0.16893048495E+03  0.71648123421E+03  0.00000000000E+00 0.  1.
        -11    1    3    3    0    0  0.37509457168E+03 -0.59103242844E+03 -0.12862577803E+03  0.71173018760E+03  0.00000000000E+00 0. -1.
         22    1    1    2    0    0 -0.81454333130E+03  0.11311181975E+04 -0.15663481504E+04  0.20967488509E+04  0.00000000000E+00 0.  1.
<mgrwt>
<rscale>  0 0.29918565E+04</rscale>
<asrwt>0</asrwt>
<pdfrwt beam="1">  1        1 0.12777353E+00 0.29918565E+04</pdfrwt>
<pdfrwt beam="2">  1       -1 0.41452805E+00 0.29918565E+04</pdfrwt>
<totfact> 0.10068381E-01</totfact>
</mgrwt>
</event>
<event>
 6    1  0.9906445E-006  0.1036099E+04  0.7818608E-02  0.9269815E-01
         -2   -1    0    0    0  501 -0.00000000000E+00  0.00000000000E+00  0.29321956354E+03  0.29321956354E+03  0.00000000000E+00 0.  1.
          2   -1    0    0  501    0  0.00000000000E+00 -0.00000000000E+00 -0.91527112295E+03  0.91527112295E+03  0.00000000000E+00 0. -1.
         23    2    1    2    0    0  0.22500430098E+03  0.70493846954E+02 -0.84622909502E+03  0.88314181929E+03  0.90771547326E+02 0.  0.
         13    1    3    3    0    0  0.10496047534E+03  0.29879382917E+02 -0.23766503766E+03  0.26152275051E+03  0.00000000000E+00 0.  1.
        -13    1    3    3    0    0  0.12004382563E+03  0.40614464037E+02 -0.60856405737E+03  0.62161906879E+03  0.00000000000E+00 0. -1.
         22    1    1    2    0    0 -0.22500430098E+03 -0.70493846954E+02  0.22417753561E+03  0.32534886720E+03  0.00000000000E+00 0.  1.
<mgrwt>
<rscale>  0 0.10360992E+04</rscale>
<asrwt>0</asrwt>
<pdfrwt beam="1">  1        2 0.14081094E+00 0.10360992E+04</pdfrwt>
<pdfrwt beam="2">  1       -2 0.45110703E-01 0.10360992E+04</pdfrwt>
<totfact> 0.13291316E+02</totfact>
</mgrwt>
</event>
<event>
 6    1  0.9906445E-006  0.1416708E+04  0.7818608E-02  0.8941813E-01
          2   -1    0    0  501    0  0.00000000000E+00  0.00000000000E+00  0.19399807356E+04  0.19399807356E+04  0.00000000000E+00 0.  1.
         -2   -1    0    0    0  501 -0.00000000000E+00 -0.00000000000E+00 -0.25864437427E+03  0.25864437427E+03  0.00000000000E+00 0. -1.
         23    2    1    2    0    0  0.10572912109E+03 -0.68607541509E+03  0.10386645611E+04  0.12526308366E+04  0.91552280820E+02 0.  0.
         11    1    3    3    0    0  0.39479447917E+02 -0.27974737599E+03  0.50457138723E+03  0.57828151102E+03  0.00000000000E+00 0. -1.
        -11    1    3    3    0    0  0.66249673176E+02 -0.40632803909E+03  0.53409317386E+03  0.67434932558E+03  0.00000000000E+00 0.  1.
         22    1    1    2    0    0 -0.10572912109E+03  0.68607541509E+03  0.64267180023E+03  0.94599427326E+03  0.00000000000E+00 0.  1.
<mgrwt>
<rscale>  0 0.14167076E+04</rscale>
<asrwt>0</asrwt>
<pdfrwt beam="1">  1        2 0.29845857E+00 0.14167076E+04</pdfrwt>
<pdfrwt beam="2">  1       -2 0.39791443E-01 0.14167076E+04</pdfrwt>
<totfact> 0.41924637E+01</totfact>
</mgrwt>
</event>
<event>
 6    1  0.9906445E-006  0.2994700E+04  0.7818608E-02  0.8245246E-01
          1   -1    0    0  501    0  0.00000000000E+00  0.00000000000E+00  0.17388765566E+04  0.17388765566E+04  0.00000000000E+00 0. -1.
         -1   -1    0    0    0  501 -0.00000000000E+00 -0.00000000000E+00 -0.12893709224E+04  0.12893709224E+04  0.00000000000E+00 0.  1.
         23    2    1    2    0    0  0.47056099665E+03  0.97915564466E+03 -0.81501231463E+03  0.13611604774E+04  0.91320009805E+02 0.  0.
         13    1    3    3    0    0  0.15418684457E+03  0.37628273084E+03 -0.35157901716E+03  0.53755937520E+03  0.00000000000E+00 0.  1.
        -13    1    3    3    0    0  0.31637415208E+03  0.60287291382E+03 -0.46343329747E+03  0.82360110219E+03  0.00000000000E+00 0. -1.
         22    1    1    2    0    0 -0.47056099665E+03 -0.97915564466E+03  0.12645179488E+04  0.16670870016E+04  0.00000000000E+00 0. -1.
<mgrwt>
<rscale>  0 0.29946999E+04</rscale>
<asrwt>0</asrwt>
<pdfrwt beam="1">  1        1 0.26751947E+00 0.29946999E+04</pdfrwt>
<pdfrwt beam="2">  1       -1 0.19836476E+00 0.29946999E+04</pdfrwt>
<totfact> 0.58975282E-01</totfact>
</mgrwt>
</event>
<event>
 6    1  0.9906445E-006  0.3234856E+04  0.7818608E-02  0.8179672E-01
         -2   -1    0    0    0  501 -0.00000000000E+00  0.00000000000E+00  0.75453072763E+03  0.75453072763E+03  0.00000000000E+00 0.  1.
          2   -1    0    0  501    0  0.00000000000E+00 -0.00000000000E+00 -0.34671518082E+04  0.34671518082E+04  0.00000000000E+00 0. -1.
         23    2    1    2    0    0 -0.79667368890E+03 -0.14049581809E+04 -0.14328134772E+04  0.21609778121E+04  0.90962561802E+02 0.  0.
         11    1    3    3    0    0 -0.55395754980E+03 -0.90111423025E+03 -0.96615653154E+03  0.14325970356E+04  0.00000000000E+00 0. -1.
        -11    1    3    3    0    0 -0.24271613911E+03 -0.50384395060E+03 -0.46665694563E+03  0.72838077655E+03  0.00000000000E+00 0.  1.
         22    1    1    2    0    0  0.79667368890E+03  0.14049581809E+04 -0.12798076034E+04  0.20607047237E+04  0.00000000000E+00 0. -1.
<mgrwt>
<rscale>  0 0.32348555E+04</rscale>
<asrwt>0</asrwt>
<pdfrwt beam="1">  1        2 0.53340797E+00 0.32348555E+04</pdfrwt>
<pdfrwt beam="2">  1       -2 0.11608165E+00 0.32348555E+04</pdfrwt>
<totfact> 0.41416910E-01</totfact>
</mgrwt>
</event>
<event>
 6    1  0.9906445E-006  0.1314741E+04  0.7818608E-02  0.9017956E-01
         -1   -1    0    0    0  501 -0.00000000000E+00  0.00000000000E+00  0.36723860281E+03  0.36723860281E+03  0.00000000000E+00 0.  1.
          1   -1    0    0  501    0  0.00000000000E+00 -0.00000000000E+00 -0.11767177674E+04  0.11767177674E+04  0.00000000000E+00 0. -1.
         23    2    1    2    0    0 -0.35007523850E+03 -0.64990792222E+02  0.23862357472E+03  0.43702555583E+03  0.85285698399E+02 0.  0.
         13    1    3    3    0    0 -0.83261028177E+02 -0.15370290634E+02  0.10392130947E+03  0.13404582504E+03  0.00000000000E+00 0. -1.
        -13    1    3    3    0    0 -0.26681421033E+03 -0.49620501587E+02  0.13470226524E+03  0.30297973079E+03  0.00000000000E+00 0.  1.
         22    1    1    2    0    0  0.35007523850E+03  0.64990792222E+02 -0.10481027393E+04  0.11069308144E+04  0.00000000000E+00 0. -1.
<mgrwt>
<rscale>  0 0.13147413E+04</rscale>
<asrwt>0</asrwt>
<pdfrwt beam="1">  1        1 0.18103350E+00 0.13147413E+04</pdfrwt>
<pdfrwt beam="2">  1       -1 0.56498247E-01 0.13147413E+04</pdfrwt>
<totfact> 0.34583026E+01</totfact>
</mgrwt>
</event>
<event>
 6    1  0.9906445E-006  0.3835974E+04  0.7818608E-02  0.8038479E-01
         -1   -1    0    0    0  501 -0.00000000000E+00  0.00000000000E+00  0.16614329207E+04  0.16614329207E+04  0.00000000000E+00 0.  1.
          1   -1    0    0  501    0  0.00000000000E+00 -0.00000000000E+00 -0.22141573010E+04  0.22141573010E+04  0.00000000000E+00 0. -1.
         23    2    1    2    0    0 -0.21075244569E+03  0.90502790225E+03 -0.19704929068E+04  0.21804325028E+04  0.89171220841E+02 0.  0.
         11    1    3    3    0    0 -0.90500757684E+02  0.21857699714E+03 -0.50767959088E+03  0.56009361522E+03  0.00000000000E+00 0.  1.
        -11    1    3    3    0    0 -0.12025168801E+03  0.68645090512E+03 -0.14628133159E+04  0.16203388876E+04  0.00000000000E+00 0. -1.
         22    1    1    2    0    0  0.21075244569E+03 -0.90502790225E+03  0.14177685265E+04  0.16951577189E+04  0.00000000000E+00 0.  1.
<mgrwt>
<rscale>  0 0.38359738E+04</rscale>
<asrwt>0</asrwt>
<pdfrwt beam="1">  1        1 0.34063958E+00 0.38359738E+04</pdfrwt>
<pdfrwt beam="2">  1       -1 0.25560507E+00 0.38359738E+04</pdfrwt>
<totfact> 0.10832676E-01</totfact>
</mgrwt>
</event>
<event>
 6    1  0.9906445E-006  0.2948713E+04  0.7818608E-02  0.8258530E-01
          1   -1    0    0  501    0  0.00000000000E+00  0.00000000000E+00  0.24082170775E+04  0.24082170775E+04  0.00000000000E+00 0. -1.
         -1   -1    0    0    0  501 -0.00000000000E+00 -0.00000000000E+00 -0.90262914599E+03  0.90262914599E+03  0.00000000000E+00 0.  1.
         23    2    1    2    0    0  0.42481372387E+03  0.13689044238E+04  0.11347695091E+04  0.18303489004E+04  0.90051302150E+02 0.  0.
         11    1    3    3    0    0  0.63197357327E+02  0.32782294320E+03  0.27602857371E+03  0.43318998323E+03  0.00000000000E+00 0. -1.
        -11    1    3    3    0    0  0.36161636654E+03  0.10410814806E+04  0.85874093536E+03  0.13971589172E+04  0.00000000000E+00 0.  1.
         22    1    1    2    0    0 -0.42481372387E+03 -0.13689044238E+04  0.37081842246E+03  0.14804973231E+04  0.00000000000E+00 0.  1.
<mgrwt>
<rscale>  0 0.29487129E+04</rscale>
<asrwt>0</asrwt>
<pdfrwt beam="1">  1        1 0.37049493E+00 0.29487129E+04</pdfrwt>
<pdfrwt beam="2">  1       -1 0.13886602E+00 0.29487129E+04</pdfrwt>
<totfact> 0.57372824E-01</totfact>
</mgrwt>
</event>
<event>
 6    1  0.9906445E-006  0.2520886E+04  0.7818608E-02  0.8395582E-01
         -1   -1    0    0    0  501 -0.00000000000E+00  0.00000000000E+00  0.72477976833E+03  0.72477976833E+03  0.00000000000E+00 0.  1.
          1   -1    0    0  501    0  0.00000000000E+00 -0.00000000000E+00 -0.21919994562E+04  0.21919994562E+04  0.00000000000E+00 0. -1.
         23    2    1    2    0    0 -0.81720876167E+03 -0.62901180211E+03 -0.15699207996E+04  0.18804233370E+04  0.88626192887E+02 0.  0.
         11    1    3    3    0    0 -0.47333116261E+03 -0.33722344042E+03 -0.95309593290E+03  0.11163126334E+04  0.00000000000E+00 0. -1.
        -11    1    3    3    0    0 -0.34387759906E+03 -0.29178836169E+03 -0.61682486668E+03  0.76411070357E+03  0.00000000000E+00 0.  1.
         22    1    1    2    0    0  0.81720876167E+03  0.62901180211E+03  0.10270111168E+03  0.10363558876E+04  0.00000000000E+00 0.  1.
<mgrwt>
<rscale>  0 0.25208862E+04</rscale>
<asrwt>0</asrwt>
<pdfrwt beam="1">  1        1 0.33723068E+00 0.25208862E+04</pdfrwt>
<pdfrwt beam="2">  1       -1 0.11150458E+00 0.25208862E+04</pdfrwt>
<totfact> 0.14452935E+00</totfact>
</mgrwt>
</event>
<event>
 6    1  0.1016658E-005  0.4339525E+04  0.7818608E-02  0.7939350E-01
         -1   -1    0    0    0  501 -0.00000000000E+00  0.00000000000E+00  0.22722530855E+04  0.22722530855E+04  0.00000000000E+00 0.  1.
          1   -1    0    0  501    0  0.00000000000E+00 -0.00000000000E+00 -0.20718952085E+04  0.20718952085E+04  0.00000000000E+00 0. -1.
         23    2    1    2    0    0 -0.11613255850E+04 -0.42914421160E+03 -0.16823512731E+04  0.20908317134E+04  0.91812738905E+02 0.  0.
         11    1    3    3    0    0 -0.56018427220E+03 -0.16054510083E+03 -0.76606973244E+03  0.96251960145E+03  0.00000000000E+00 0. -1.
        -11    1    3    3    0    0 -0.60114131280E+03 -0.26859911077E+03 -0.91628154068E+03  0.11283121120E+04  0.00000000000E+00 0.  1.
         22    1    1    2    0    0  0.11613255850E+04  0.42914421160E+03  0.18827091500E+04  0.22533165806E+04  0.00000000000E+00 0.  1.
<mgrwt>
<rscale>  0 0.43395254E+04</rscale>
<asrwt>0</asrwt>
<pdfrwt beam="1">  1        1 0.31875311E+00 0.43395254E+04</pdfrwt>
<pdfrwt beam="2">  1       -1 0.34957740E+00 0.43395254E+04</pdfrwt>
<totfact> 0.31699515E-02</totfact>
</mgrwt>
</event>
<event>
 6    1  0.9906445E-006  0.3074218E+04  0.7818608E-02  0.8222849E-01
         -1   -1    0    0    0  501 -0.00000000000E+00  0.00000000000E+00  0.13059566482E+04  0.13059566482E+04  0.00000000000E+00 0.  1.
          1   -1    0    0  501    0  0.00000000000E+00 -0.00000000000E+00 -0.18091750484E+04  0.18091750484E+04  0.00000000000E+00 0. -1.
         23    2    1    2    0    0 -0.13208765379E+04  0.73766167714E+03 -0.51950156109E+03  0.16021463300E+04  0.90174343671E+02 0.  0.
         13    1    3    3    0    0 -0.90834785883E+03  0.47227954495E+03 -0.38183395287E+03  0.10926760585E+04  0.00000000000E+00 0. -1.
        -13    1    3    3    0    0 -0.41252867909E+03  0.26538213219E+03 -0.13766760822E+03  0.50947027147E+03  0.00000000000E+00 0.  1.
         22    1    1    2    0    0  0.13208765379E+04 -0.73766167714E+03  0.16283160880E+02  0.15129853666E+04  0.00000000000E+00 0.  1.
<mgrwt>
<rscale>  0 0.30742181E+04</rscale>
<asrwt>0</asrwt>
<pdfrwt beam="1">  1        1 0.27833462E+00 0.30742181E+04</pdfrwt>
<pdfrwt beam="2">  1       -1 0.20091641E+00 0.30742181E+04</pdfrwt>
<totfact> 0.50378208E-01</totfact>
</mgrwt>
</event>
<event>
 6    1  0.9906445E-006  0.3216898E+04  0.7818608E-02  0.8184369E-01
          2   -1    0    0  501    0  0.00000000000E+00  0.00000000000E+00  0.29709228928E+04  0.29709228928E+04  0.00000000000E+00 0. -1.
         -2   -1    0    0    0  501 -0.00000000000E+00 -0.00000000000E+00 -0.87080949701E+03  0.87080949701E+03  0.00000000000E+00 0.  1.
         23    2    1    2    0    0  0.61473167369E+03 -0.55045523955E+02  0.28230770644E+04  0.28911528263E+04  0.89863860374E+02 0.  0.
         11    1    3    3    0    0  0.39332365810E+03 -0.78265480905E+02  0.17992294800E+04  0.18433815957E+04  0.00000000000E+00 0. -1.
        -11    1    3    3    0    0  0.22140801559E+03  0.23219956950E+02  0.10238475844E+04  0.10477712307E+04  0.00000000000E+00 0.  1.
         22    1    1    2    0    0 -0.61473167369E+03  0.55045523955E+02 -0.72296366862E+03  0.95057956347E+03  0.00000000000E+00 0.  1.
<mgrwt>
<rscale>  0 0.32168978E+04</rscale>
<asrwt>0</asrwt>
<pdfrwt beam="1">  1        2 0.45706506E+00 0.32168978E+04</pdfrwt>
<pdfrwt beam="2">  1       -2 0.13397069E+00 0.32168978E+04</pdfrwt>
<totfact> 0.61379916E-01</totfact>
</mgrwt>
</event>
<event>
 6    1  0.9906445E-006  0.2003762E+04  0.7818608E-02  0.8604864E-01
          1   -1    0    0  501    0  0.00000000000E+00  0.00000000000E+00  0.10658105898E+04  0.10658105898E+04  0.00000000000E+00 0. -1.
         -1   -1    0    0    0  501 -0.00000000000E+00 -0.00000000000E+00 -0.94178598933E+03  0.94178598933E+03  0.00000000000E+00 0.  1.
         23    2    1    2    0    0  0.40234134459E+03  0.29740312016E+03  0.92934473565E+03  0.10595102468E+04  0.92483252403E+02 0.  0.
         13    1    3    3    0    0  0.13910613286E+03  0.76469784301E+02  0.37594708869E+03  0.40808621344E+03  0.00000000000E+00 0.  1.
        -13    1    3    3    0    0  0.26323521173E+03  0.22093333585E+03  0.55339764696E+03  0.65142403337E+03  0.00000000000E+00 0. -1.
         22    1    1    2    0    0 -0.40234134459E+03 -0.29740312016E+03 -0.80532013517E+03  0.94808633233E+03  0.00000000000E+00 0.  1.
<mgrwt>
<rscale>  0 0.20037619E+04</rscale>
<asrwt>0</asrwt>
<pdfrwt beam="1">  1        1 0.16397086E+00 0.20037619E+04</pdfrwt>
<pdfrwt beam="2">  1       -1 0.14489015E+00 0.20037619E+04</pdfrwt>
<totfact> 0.47788665E+00</totfact>
</mgrwt>
</event>
<event>
 6    1  0.9906445E-006  0.3005615E+04  0.7818608E-02  0.8242129E-01
          2   -1    0    0  501    0  0.00000000000E+00  0.00000000000E+00  0.18090949688E+04  0.18090949688E+04  0.00000000000E+00 0. -1.
         -2   -1    0    0    0  501 -0.00000000000E+00 -0.00000000000E+00 -0.12483756230E+04  0.12483756230E+04  0.00000000000E+00 0.  1.
         23    2    1    2    0    0  0.62478999440E+03  0.12158567576E+04 -0.35179308835E+03  0.14138924419E+04  0.81628844763E+02 0.  0.
         11    1    3    3    0    0  0.17524626888E+03  0.26595782050E+03 -0.85126051567E+02  0.32968357814E+03  0.00000000000E+00 0.  1.
        -11    1    3    3    0    0  0.44954372552E+03  0.94989893709E+03 -0.26666703678E+03  0.10842088638E+04  0.00000000000E+00 0. -1.
         22    1    1    2    0    0 -0.62478999440E+03 -0.12158567576E+04  0.91251243417E+03  0.16435781498E+04  0.00000000000E+00 0. -1.
<mgrwt>
<rscale>  0 0.30056148E+04</rscale>
<asrwt>0</asrwt>
<pdfrwt beam="1">  1        2 0.27832230E+00 0.30056148E+04</pdfrwt>
<pdfrwt beam="2">  1       -2 0.19205779E+00 0.30056148E+04</pdfrwt>
<totfact> 0.10959248E+00</totfact>
</mgrwt>
</event>
<event>
 6    1  0.9906445E-006  0.5025682E+03  0.7818608E-02  0.1013111E+00
          1   -1    0    0  501    0  0.00000000000E+00  0.00000000000E+00  0.19465374440E+04  0.19465374440E+04  0.00000000000E+00 0. -1.
         -1   -1    0    0    0  501 -0.00000000000E+00 -0.00000000000E+00 -0.32438990214E+02  0.32438990214E+02  0.00000000000E+00 0.  1.
         23    2    1    2    0    0  0.17297488919E+03  0.49857457979E+02  0.16308703991E+04  0.16433811283E+04  0.92505111809E+02 0.  0.
         11    1    3    3    0    0  0.59327005204E+02 -0.50924364564E+01  0.87661972580E+03  0.87863972714E+03  0.00000000000E+00 0. -1.
        -11    1    3    3    0    0  0.11364788398E+03  0.54949894436E+02  0.75425067333E+03  0.76474140116E+03  0.00000000000E+00 0.  1.
         22    1    1    2    0    0 -0.17297488919E+03 -0.49857457979E+02  0.28322805468E+03  0.33559530593E+03  0.00000000000E+00 0.  1.
<mgrwt>
<rscale>  0 0.50256824E+03</rscale>
<asrwt>0</asrwt>
<pdfrwt beam="1">  1        1 0.29946721E+00 0.50256824E+03</pdfrwt>
<pdfrwt beam="2">  1       -1 0.49906154E-02 0.50256824E+03</pdfrwt>
<totfact> 0.63048821E+02</totfact>
</mgrwt>
</event>
<event>
 6    1  0.1001852E-005  0.3831585E+04  0.7818608E-02  0.8039411E-01
         -2   -1    0    0    0  501 -0.00000000000E+00  0.00000000000E+00  0.16948900589E+04  0.16948900589E+04  0.00000000000E+00 0.  1.
          2   -1    0    0  501    0  0.00000000000E+00 -0.00000000000E+00 -0.21654862739E+04  0.21654862739E+04  0.00000000000E+00 0. -1.
         23    2    1    2    0    0  0.95160490142E+03 -0.16588802785E+04 -0.14179419021E+03  0.19198747383E+04  0.91530058844E+02 0.  0.
         11    1    3    3    0    0  0.27407570297E+03 -0.53882454844E+03 -0.14944661916E+02  0.60470879593E+03  0.00000000000E+00 0. -1.
        -11    1    3    3    0    0  0.67752919845E+03 -0.11200557301E+04 -0.12684952829E+03  0.13151659424E+04  0.00000000000E+00 0.  1.
         22    1    1    2    0    0 -0.95160490142E+03  0.16588802785E+04 -0.32880202483E+03  0.19405015945E+04  0.00000000000E+00 0.  1.
<mgrwt>
<rscale>  0 0.38315851E+04</rscale>
<asrwt>0</asrwt>
<pdfrwt beam="1">  1        2 0.33315174E+00 0.38315851E+04</pdfrwt>
<pdfrwt beam="2">  1       -2 0.26075232E+00 0.38315851E+04</pdfrwt>
<totfact> 0.23841482E-01</totfact>
</mgrwt>
</event>
<event>
 6    1  0.9906445E-006  0.3829639E+04  0.7818608E-02  0.8039824E-01
          2   -1    0    0  501    0  0.00000000000E+00  0.00000000000E+00  0.14551194783E+04  0.14551194783E+04  0.00000000000E+00 0. -1.
         -2   -1    0    0    0  501 -0.00000000000E+00 -0.00000000000E+00 -0.25197479043E+04  0.25197479043E+04  0.00000000000E+00 0.  1.
         23    2    1    2    0    0  0.17976259930E+04 -0.64512847254E+03 -0.40691893380E+03  0.19549090333E+04  0.91849619973E+02 0.  0.
         13    1    3    3    0    0  0.15329657962E+04 -0.58298889804E+03 -0.34039926389E+03  0.16750318941E+04  0.00000000000E+00 0. -1.
        -13    1    3    3    0    0  0.26466019686E+03 -0.62139574501E+02 -0.66519669906E+02  0.27987713913E+03  0.00000000000E+00 0.  1.
         22    1    1    2    0    0 -0.17976259930E+04  0.64512847254E+03 -0.65770949219E+03  0.20199583493E+04  0.00000000000E+00 0.  1.
<mgrwt>
<rscale>  0 0.38296393E+04</rscale>
<asrwt>0</asrwt>
<pdfrwt beam="1">  1        2 0.22386454E+00 0.38296393E+04</pdfrwt>
<pdfrwt beam="2">  1       -2 0.38765352E+00 0.38296393E+04</pdfrwt>
<totfact> 0.96114323E-02</totfact>
</mgrwt>
</event>
<event>
 6    1  0.9906445E-006  0.2267584E+04  0.7818608E-02  0.8490813E-01
          2   -1    0    0  501    0  0.00000000000E+00  0.00000000000E+00  0.19410353314E+04  0.19410353314E+04  0.00000000000E+00 0. -1.
         -2   -1    0    0    0  501 -0.00000000000E+00 -0.00000000000E+00 -0.66226753126E+03  0.66226753126E+03  0.00000000000E+00 0.  1.
         23    2    1    2    0    0  0.56284748196E+03 -0.88958922538E+03  0.16283100262E+03  0.10691968644E+04  0.92204780673E+02 0.  0.
         13    1    3    3    0    0  0.84712756476E+02 -0.12662055849E+03  0.56706927288E+02  0.16255673639E+03  0.00000000000E+00 0.  1.
        -13    1    3    3    0    0  0.47813472548E+03 -0.76296866689E+03  0.10612407533E+03  0.90664012802E+03  0.00000000000E+00 0. -1.
         22    1    1    2    0    0 -0.56284748196E+03  0.88958922538E+03  0.11159367975E+04  0.15341059983E+04  0.00000000000E+00 0.  1.
<mgrwt>
<rscale>  0 0.22675843E+04</rscale>
<asrwt>0</asrwt>
<pdfrwt beam="1">  1        2 0.29862082E+00 0.22675843E+04</pdfrwt>
<pdfrwt beam="2">  1       -2 0.10188731E+00 0.22675843E+04</pdfrwt>
<totfact> 0.51741647E+00</totfact>
</mgrwt>
</event>
<event>
 6    1  0.9906445E-006  0.1589667E+04  0.7818608E-02  0.8826921E-01
         -1   -1    0    0    0  501 -0.00000000000E+00  0.00000000000E+00  0.32529409730E+03  0.32529409730E+03  0.00000000000E+00 0.  1.
          1   -1    0    0  501    0  0.00000000000E+00 -0.00000000000E+00 -0.19421214723E+04  0.19421214723E+04  0.00000000000E+00 0. -1.
         23    2    1    2    0    0  0.22505770914E+03 -0.55445358091E+03 -0.70278613478E+02  0.60913850663E+03  0.89671014933E+02 0.  0.
         13    1    3    3    0    0  0.48758275917E+02 -0.19619215107E+03 -0.55211970086E+02  0.20956405048E+03  0.00000000000E+00 0. -1.
        -13    1    3    3    0    0  0.17629943322E+03 -0.35826142983E+03 -0.15066643392E+02  0.39957445615E+03  0.00000000000E+00 0.  1.
         22    1    1    2    0    0 -0.22505770914E+03  0.55445358091E+03 -0.15465487615E+04  0.16582770629E+04  0.00000000000E+00 0. -1.
<mgrwt>
<rscale>  0 0.15896675E+04</rscale>
<asrwt>0</asrwt>
<pdfrwt beam="1">  1        1 0.29878792E+00 0.15896675E+04</pdfrwt>
<pdfrwt beam="2">  1       -1 0.50045245E-01 0.15896675E+04</pdfrwt>
<totfact> 0.12557074E+01</totfact>
</mgrwt>
</event>
<event>
 6    1  0.9906445E-006  0.7540723E+03  0.7818608E-02  0.9628983E-01
         -2   -1    0    0    0  501 -0.00000000000E+00  0.00000000000E+00  0.18609509078E+03  0.18609509078E+03  0.00000000000E+00 0. -1.
          2   -1    0    0  501    0  0.00000000000E+00 -0.00000000000E+00 -0.76389043851E+03  0.76389043851E+03  0.00000000000E+00 0.  1.
         23    2    1    2    0    0  0.62909123947E+02  0.13839380066E+03  0.13484928251E+03  0.22130674482E+03  0.87646701997E+02 0.  0.
         13    1    3    3    0    0  0.50542473184E+02  0.14935833655E+03  0.12916716802E+03  0.20382985941E+03  0.00000000000E+00 0. -1.
        -13    1    3    3    0    0  0.12366650764E+02 -0.10964535892E+02  0.56821144913E+01  0.17476885407E+02  0.00000000000E+00 0.  1.
         22    1    1    2    0    0 -0.62909123947E+02 -0.13839380066E+03 -0.71264463024E+03  0.72867878448E+03  0.00000000000E+00 0.  1.
<mgrwt>
<rscale>  0 0.75407231E+03</rscale>
<asrwt>0</asrwt>
<pdfrwt beam="1">  1        2 0.11752161E+00 0.75407231E+03</pdfrwt>
<pdfrwt beam="2">  1       -2 0.28630013E-01 0.75407231E+03</pdfrwt>
<totfact> 0.41164550E+02</totfact>
</mgrwt>
</event>
<event>
 6    1  0.9906445E-006  0.4222806E+04  0.7818608E-02  0.7961048E-01
          1   -1    0    0  501    0  0.00000000000E+00  0.00000000000E+00  0.27566714390E+04  0.27566714390E+04  0.00000000000E+00 0. -1.
         -1   -1    0    0    0  501 -0.00000000000E+00 -0.00000000000E+00 -0.16171757305E+04  0.16171757305E+04  0.00000000000E+00 0.  1.
         23    2    1    2    0    0  0.17915606885E+04 -0.42325899166E+03  0.16389793397E+04  0.24664086326E+04  0.89891002811E+02 0.  0.
         11    1    3    3    0    0  0.13133998975E+04 -0.27632799003E+03  0.12237767983E+04  0.18163166301E+04  0.00000000000E+00 0. -1.
        -11    1    3    3    0    0  0.47816079093E+03 -0.14693100162E+03  0.41520254141E+03  0.65009200242E+03  0.00000000000E+00 0.  1.
         22    1    1    2    0    0 -0.17915606885E+04  0.42325899166E+03 -0.49948363113E+03  0.19074385370E+04  0.00000000000E+00 0.  1.
<mgrwt>
<rscale>  0 0.42228058E+04</rscale>
<asrwt>0</asrwt>
<pdfrwt beam="1">  1        1 0.42410330E+00 0.42228058E+04</pdfrwt>
<pdfrwt beam="2">  1       -1 0.24879627E+00 0.42228058E+04</pdfrwt>
<totfact> 0.48814919E-02</totfact>
</mgrwt>
</event>
<event>
 6    1  0.9906445E-006  0.2653714E+04  0.7818608E-02  0.8350181E-01
          2   -1    0    0  501    0  0.00000000000E+00  0.00000000000E+00  0.13608009955E+04  0.13608009955E+04  0.00000000000E+00 0. -1.
         -2   -1    0    0    0  501 -0.00000000000E+00 -0.00000000000E+00 -0.12937594923E+04  0.12937594923E+04  0.00000000000E+00 0.  1.
         23    2    1    2    0    0  0.56330408211E+03 -0.13726302892E+03 -0.11585104603E+04  0.12987838678E+04  0.92414395552E+02 0.  0.
         13    1    3    3    0    0  0.53034903197E+03 -0.13859706607E+03 -0.10381024171E+04  0.11739403182E+04  0.00000000000E+00 0.  1.
        -13    1    3    3    0    0  0.32955050135E+02  0.13340371558E+01 -0.12040804326E+03  0.12484354956E+03  0.00000000000E+00 0. -1.
         22    1    1    2    0    0 -0.56330408211E+03  0.13726302892E+03  0.12255519635E+04  0.13557766200E+04  0.00000000000E+00 0. -1.
<mgrwt>
<rscale>  0 0.26537138E+04</rscale>
<asrwt>0</asrwt>
<pdfrwt beam="1">  1        2 0.20935400E+00 0.26537138E+04</pdfrwt>
<pdfrwt beam="2">  1       -2 0.19903992E+00 0.26537138E+04</pdfrwt>
<totfact> 0.18114460E+00</totfact>
</mgrwt>
</event>
<event>
 6    1  0.9906445E-006  0.2381873E+04  0.7818608E-02  0.8446321E-01
         -2   -1    0    0    0  501 -0.00000000000E+00  0.00000000000E+00  0.10226132104E+04  0.10226132104E+04  0.00000000000E+00 0.  1.
          2   -1    0    0  501    0  0.00000000000E+00 -0.00000000000E+00 -0.13869663591E+04  0.13869663591E+04  0.00000000000E+00 0. -1.
         23    2    1    2    0    0  0.40490033808E+02  0.17078737170E+03 -0.13722502211E+04  0.13865134535E+04  0.92418170631E+02 0.  0.
         13    1    3    3    0    0  0.68754559507E+02  0.10708182974E+03 -0.96295001013E+03  0.97132200105E+03  0.00000000000E+00 0. -1.
        -13    1    3    3    0    0 -0.28264525699E+02  0.63705541961E+02 -0.40930021097E+03  0.41519145246E+03  0.00000000000E+00 0.  1.
         22    1    1    2    0    0 -0.40490033808E+02 -0.17078737170E+03  0.10078970724E+04  0.10230661160E+04  0.00000000000E+00 0.  1.
<mgrwt>
<rscale>  0 0.23818733E+04</rscale>
<asrwt>0</asrwt>
<pdfrwt beam="1">  1        2 0.21337944E+00 0.23818733E+04</pdfrwt>
<pdfrwt beam="2">  1       -2 0.15732511E+00 0.23818733E+04</pdfrwt>
<totfact> 0.34966733E+00</totfact>
</mgrwt>
</event>
<event>
 6    1  0.9906445E-006  0.3776384E+04  0.7818608E-02  0.8051242E-01
          2   -1    0    0  501    0  0.00000000000E+00  0.00000000000E+00  0.30854678665E+04  0.30854678665E+04  0.00000000000E+00 0. -1.
         -2   -1    0    0    0  501 -0.00000000000E+00 -0.00000000000E+00 -0.11555037068E+04  0.11555037068E+04  0.00000000000E+00 0.  1.
         23    2    1    2    0    0  0.19886067073E+03  0.16404916723E+04 -0.57853972288E+02  0.16559803898E+04  0.90363022602E+02 0.  0.
         13    1    3    3    0    0  0.12574839573E+03  0.83374673273E+03  0.84677385176E+01  0.84321881855E+03  0.00000000000E+00 0.  1.
        -13    1    3    3    0    0  0.73112274992E+02  0.80674493959E+03 -0.66321710806E+02  0.81276157121E+03  0.00000000000E+00 0. -1.
         22    1    1    2    0    0 -0.19886067073E+03 -0.16404916723E+04  0.19878181319E+04  0.25849911835E+04  0.00000000000E+00 0.  1.
<mgrwt>
<rscale>  0 0.37763843E+04</rscale>
<asrwt>0</asrwt>
<pdfrwt beam="1">  1        2 0.47468736E+00 0.37763843E+04</pdfrwt>
<pdfrwt beam="2">  1       -2 0.17776980E+00 0.37763843E+04</pdfrwt>
<totfact> 0.23188827E-01</totfact>
</mgrwt>
</event>
<event>
 6    1  0.9906445E-006  0.3029560E+04  0.7818608E-02  0.8235340E-01
          1   -1    0    0  501    0  0.00000000000E+00  0.00000000000E+00  0.15555189040E+04  0.15555189040E+04  0.00000000000E+00 0. -1.
         -1   -1    0    0    0  501 -0.00000000000E+00 -0.00000000000E+00 -0.14751082997E+04  0.14751082997E+04  0.00000000000E+00 0.  1.
         23    2    1    2    0    0 -0.10480739595E+04  0.78419669043E+03  0.80007498164E+03  0.15368600565E+04  0.91626322973E+02 0.  0.
         11    1    3    3    0    0 -0.81402173903E+03  0.56423442052E+03  0.58503823835E+03  0.11503310885E+04  0.00000000000E+00 0. -1.
        -11    1    3    3    0    0 -0.23405222050E+03  0.21996226991E+03  0.21503674329E+03  0.38652896795E+03  0.00000000000E+00 0.  1.
         22    1    1    2    0    0  0.10480739595E+04 -0.78419669043E+03 -0.71966437731E+03  0.14937671471E+04  0.00000000000E+00 0.  1.
<mgrwt>
<rscale>  0 0.30295603E+04</rscale>
<asrwt>0</asrwt>
<pdfrwt beam="1">  1        1 0.23931060E+00 0.30295603E+04</pdfrwt>
<pdfrwt beam="2">  1       -1 0.22693974E+00 0.30295603E+04</pdfrwt>
<totfact> 0.50282595E-01</totfact>
</mgrwt>
</event>
<event>
 6    1  0.9906445E-006  0.1774157E+04  0.7818608E-02  0.8720164E-01
         -1   -1    0    0    0  501 -0.00000000000E+00  0.00000000000E+00  0.64980266564E+03  0.64980266564E+03  0.00000000000E+00 0.  1.
          1   -1    0    0  501    0  0.00000000000E+00 -0.00000000000E+00 -0.12109957447E+04  0.12109957447E+04  0.00000000000E+00 0. -1.
         23    2    1    2    0    0  0.61852362296E+02  0.15341601093E+03 -0.11929135584E+04  0.12077800714E+04  0.91256539174E+02 0.  0.
         11    1    3    3    0    0 -0.24118832591E+02  0.35187156013E+02 -0.28410240720E+03  0.28728736800E+03  0.00000000000E+00 0. -1.
        -11    1    3    3    0    0  0.85971194887E+02  0.11822885492E+03 -0.90881115117E+03  0.92049270338E+03  0.00000000000E+00 0.  1.
         22    1    1    2    0    0 -0.61852362296E+02 -0.15341601093E+03  0.63172047928E+03  0.65301833900E+03  0.00000000000E+00 0.  1.
<mgrwt>
<rscale>  0 0.17741570E+04</rscale>
<asrwt>0</asrwt>
<pdfrwt beam="1">  1        1 0.18630704E+00 0.17741570E+04</pdfrwt>
<pdfrwt beam="2">  1       -1 0.99969642E-01 0.17741570E+04</pdfrwt>
<totfact> 0.94624755E+00</totfact>
</mgrwt>
</event>
<event>
 6    1  0.9906445E-006  0.3283555E+04  0.7818608E-02  0.8167092E-01
         -1   -1    0    0    0  501 -0.00000000000E+00  0.00000000000E+00  0.14027689796E+04  0.14027689796E+04  0.00000000000E+00 0.  1.
          1   -1    0    0  501    0  0.00000000000E+00 -0.00000000000E+00 -0.19215089528E+04  0.19215089528E+04  0.00000000000E+00 0. -1.
         23    2    1    2    0    0 -0.39413638387E+03  0.81417201408E+03 -0.16451964825E+04  0.18795897913E+04  0.89256708395E+02 0.  0.
         13    1    3    3    0    0 -0.19698861192E+03  0.50730039877E+03 -0.98382410116E+03  0.11243078181E+04  0.00000000000E+00 0. -1.
        -13    1    3    3    0    0 -0.19714777195E+03  0.30687161531E+03 -0.66137238136E+03  0.75528197324E+03  0.00000000000E+00 0.  1.
         22    1    1    2    0    0  0.39413638387E+03 -0.81417201408E+03  0.11264565093E+04  0.14446881411E+04  0.00000000000E+00 0.  1.
<mgrwt>
<rscale>  0 0.32835549E+04</rscale>
<asrwt>0</asrwt>
<pdfrwt beam="1">  1        1 0.29561676E+00 0.32835549E+04</pdfrwt>
<pdfrwt beam="2">  1       -1 0.21581061E+00 0.32835549E+04</pdfrwt>
<totfact> 0.32867032E-01</totfact>
</mgrwt>
</event>
<event>
 6    1  0.9906445E-006  0.1927792E+04  0.7818608E-02  0.8641145E-01
          1   -1    0    0  501    0  0.00000000000E+00  0.00000000000E+00  0.99526227170E+03  0.99526227170E+03  0.00000000000E+00 0. -1.
         -1   -1    0    0    0  501 -0.00000000000E+00 -0.00000000000E+00 -0.93351794381E+03  0.93351794381E+03  0.00000000000E+00 0.  1.
         23    2    1    2    0    0  0.76352521459E+03  0.15037399188E+03 -0.53340547294E+03  0.94909333891E+03  0.10331348721E+03 0.  0.
         13    1    3    3    0    0  0.40621715788E+03  0.33341891411E+02 -0.24860241793E+03  0.47741724234E+03  0.00000000000E+00 0.  1.
        -13    1    3    3    0    0  0.35730805671E+03  0.11703210047E+03 -0.28480305501E+03  0.47167609656E+03  0.00000000000E+00 0. -1.
         22    1    1    2    0    0 -0.76352521459E+03 -0.15037399188E+03  0.59514980084E+03  0.97968687660E+03  0.00000000000E+00 0. -1.
<mgrwt>
<rscale>  0 0.19277917E+04</rscale>
<asrwt>0</asrwt>
<pdfrwt beam="1">  1        1 0.15311727E+00 0.19277917E+04</pdfrwt>
<pdfrwt beam="2">  1       -1 0.14361814E+00 0.19277917E+04</pdfrwt>
<totfact> 0.55832494E+00</totfact>
</mgrwt>
</event>
<event>
 6    1  0.9906445E-006  0.4167392E+04  0.7818608E-02  0.7971604E-01
         -1   -1    0    0    0  501 -0.00000000000E+00  0.00000000000E+00  0.12454272572E+04  0.12454272572E+04  0.00000000000E+00 0.  1.
          1   -1    0    0  501    0  0.00000000000E+00 -0.00000000000E+00 -0.34861839134E+04  0.34861839134E+04  0.00000000000E+00 0. -1.
         23    2    1    2    0    0 -0.63781536250E+03  0.12281318731E+04 -0.28880429663E+04  0.32038363503E+04  0.93052942010E+02 0.  0.
         11    1    3    3    0    0 -0.53464351811E+02  0.11315251925E+03 -0.32726130682E+03  0.35037393235E+03  0.00000000000E+00 0. -1.
        -11    1    3    3    0    0 -0.58435101069E+03  0.11149793538E+04 -0.25607816595E+04  0.28534624180E+04  0.00000000000E+00 0.  1.
         22    1    1    2    0    0  0.63781536250E+03 -0.12281318731E+04  0.64728631015E+03  0.15277748203E+04  0.00000000000E+00 0.  1.
<mgrwt>
<rscale>  0 0.41673917E+04</rscale>
<asrwt>0</asrwt>
<pdfrwt beam="1">  1        1 0.53633598E+00 0.41673917E+04</pdfrwt>
<pdfrwt beam="2">  1       -1 0.19160419E+00 0.41673917E+04</pdfrwt>
<totfact> 0.34011370E-02</totfact>
</mgrwt>
</event>
<event>
 6    1  0.9906445E-006  0.4861131E+04  0.7818608E-02  0.7850293E-01
          2   -1    0    0  501    0  0.00000000000E+00  0.00000000000E+00  0.30884447562E+04  0.30884447562E+04  0.00000000000E+00 0. -1.
         -2   -1    0    0    0  501 -0.00000000000E+00 -0.00000000000E+00 -0.19128232308E+04  0.19128232308E+04  0.00000000000E+00 0.  1.
         23    2    1    2    0    0 -0.76626248462E+03  0.16932179377E+04  0.21984186889E+04  0.28798865461E+04  0.80972878870E+02 0.  0.
         11    1    3    3    0    0 -0.17187511042E+03  0.45702318419E+03  0.55260358452E+03  0.73741573491E+03  0.00000000000E+00 0. -1.
        -11    1    3    3    0    0 -0.59438737420E+03  0.12361947535E+04  0.16458151043E+04  0.21424708112E+04  0.00000000000E+00 0.  1.
         22    1    1    2    0    0  0.76626248462E+03 -0.16932179377E+04 -0.10227971636E+04  0.21213814409E+04  0.00000000000E+00 0.  1.
<mgrwt>
<rscale>  0 0.48611311E+04</rscale>
<asrwt>0</asrwt>
<pdfrwt beam="1">  1        2 0.47514535E+00 0.48611311E+04</pdfrwt>
<pdfrwt beam="2">  1       -2 0.29428050E+00 0.48611311E+04</pdfrwt>
<totfact> 0.38788471E-02</totfact>
</mgrwt>
</event>
<event>
 6    1  0.9906445E-006  0.1667074E+04  0.7818608E-02  0.8780369E-01
         -2   -1    0    0    0  501 -0.00000000000E+00  0.00000000000E+00  0.12266585253E+04  0.12266585253E+04  0.00000000000E+00 0.  1.
          2   -1    0    0  501    0  0.00000000000E+00 -0.00000000000E+00 -0.56640390777E+03  0.56640390777E+03  0.00000000000E+00 0. -1.
         23    2    1    2    0    0  0.36319489246E+03  0.57880142641E+03 -0.17760891517E+03  0.71188857077E+03  0.91207397293E+02 0.  0.
         13    1    3    3    0    0  0.29682721570E+03  0.39597627439E+03 -0.12699124940E+03  0.51091132624E+03  0.00000000000E+00 0. -1.
        -13    1    3    3    0    0  0.66367676764E+02  0.18282515202E+03 -0.50617665764E+02  0.20097724452E+03  0.00000000000E+00 0.  1.
         22    1    1    2    0    0 -0.36319489246E+03 -0.57880142641E+03  0.83786353268E+03  0.10811738623E+04  0.00000000000E+00 0.  1.
<mgrwt>
<rscale>  0 0.16670743E+04</rscale>
<asrwt>0</asrwt>
<pdfrwt beam="1">  1        2 0.87139063E-01 0.16670743E+04</pdfrwt>
<pdfrwt beam="2">  1       -2 0.18871670E+00 0.16670743E+04</pdfrwt>
<totfact> 0.80105357E+00</totfact>
</mgrwt>
</event>
<event>
 6    1  0.1193441E-005  0.3079026E+04  0.7818608E-02  0.8221518E-01
          1   -1    0    0  501    0  0.00000000000E+00  0.00000000000E+00  0.11513584973E+04  0.11513584973E+04  0.00000000000E+00 0. -1.
         -1   -1    0    0    0  501 -0.00000000000E+00 -0.00000000000E+00 -0.20585256862E+04  0.20585256862E+04  0.00000000000E+00 0.  1.
         23    2    1    2    0    0  0.14219668370E+04 -0.58636738126E+03 -0.43897690024E+03  0.16020848995E+04  0.90326710819E+02 0.  0.
         13    1    3    3    0    0  0.10690986334E+04 -0.39809311263E+03 -0.32307719325E+03  0.11856765525E+04  0.00000000000E+00 0.  1.
        -13    1    3    3    0    0  0.35286820363E+03 -0.18827426864E+03 -0.11589970699E+03  0.41640834699E+03  0.00000000000E+00 0. -1.
         22    1    1    2    0    0 -0.14219668370E+04  0.58636738126E+03 -0.46819028859E+03  0.16077992840E+04  0.00000000000E+00 0. -1.
<mgrwt>
<rscale>  0 0.30790265E+04</rscale>
<asrwt>0</asrwt>
<pdfrwt beam="1">  1        1 0.17713208E+00 0.30790265E+04</pdfrwt>
<pdfrwt beam="2">  1       -1 0.31669626E+00 0.30790265E+04</pdfrwt>
<totfact> 0.25227931E-01</totfact>
</mgrwt>
</event>
<event>
 6    1  0.9906445E-006  0.8888549E+03  0.7818608E-02  0.9439622E-01
          1   -1    0    0  501    0  0.00000000000E+00  0.00000000000E+00  0.63988640013E+03  0.63988640013E+03  0.00000000000E+00 0. -1.
         -1   -1    0    0    0  501 -0.00000000000E+00 -0.00000000000E+00 -0.30867315688E+03  0.30867315688E+03  0.00000000000E+00 0.  1.
         23    2    1    2    0    0  0.72049470931E+02  0.26809485195E+03  0.53079421708E+03  0.60665527066E+03  0.96031977148E+02 0.  0.
         11    1    3    3    0    0  0.13991492048E+02  0.20173571306E+03  0.32512574172E+03  0.38288354326E+03  0.00000000000E+00 0.  1.
        -11    1    3    3    0    0  0.58057978883E+02  0.66359138889E+02  0.20566847536E+03  0.22377172740E+03  0.00000000000E+00 0. -1.
         22    1    1    2    0    0 -0.72049470931E+02 -0.26809485195E+03 -0.19958097383E+03  0.34190428634E+03  0.00000000000E+00 0.  1.
<mgrwt>
<rscale>  0 0.88885489E+03</rscale>
<asrwt>0</asrwt>
<pdfrwt beam="1">  1        1 0.98444061E-01 0.88885489E+03</pdfrwt>
<pdfrwt beam="2">  1       -1 0.47488178E-01 0.88885489E+03</pdfrwt>
<totfact> 0.13906274E+02</totfact>
</mgrwt>
</event>
<event>
 6    1  0.9906445E-006  0.3220463E+04  0.7818608E-02  0.8183434E-01
         -2   -1    0    0    0  501 -0.00000000000E+00  0.00000000000E+00  0.80277937248E+03  0.80277937248E+03  0.00000000000E+00 0.  1.
          2   -1    0    0  501    0  0.00000000000E+00 -0.00000000000E+00 -0.32298352847E+04  0.32298352847E+04  0.00000000000E+00 0. -1.
         23    2    1    2    0    0  0.13313030965E+04 -0.86506949710E+03 -0.15410367217E+04  0.22144443749E+04  0.90865516854E+02 0.  0.
         11    1    3    3    0    0  0.74931823281E+03 -0.47495648469E+03 -0.92201412276E+03  0.12795200346E+04  0.00000000000E+00 0. -1.
        -11    1    3    3    0    0  0.58198486369E+03 -0.39011301241E+03 -0.61902259898E+03  0.93492434029E+03  0.00000000000E+00 0.  1.
         22    1    1    2    0    0 -0.13313030965E+04  0.86506949710E+03 -0.88601919050E+03  0.18181702823E+04  0.00000000000E+00 0.  1.
<mgrwt>
<rscale>  0 0.32204628E+04</rscale>
<asrwt>0</asrwt>
<pdfrwt beam="1">  1        2 0.49689774E+00 0.32204628E+04</pdfrwt>
<pdfrwt beam="2">  1       -2 0.12350452E+00 0.32204628E+04</pdfrwt>
<totfact> 0.51448663E-01</totfact>
</mgrwt>
</event>
<event>
 6    1  0.9906445E-006  0.3250876E+04  0.7818608E-02  0.8175509E-01
          2   -1    0    0  501    0  0.00000000000E+00  0.00000000000E+00  0.29892932330E+04  0.29892932330E+04  0.00000000000E+00 0. -1.
         -2   -1    0    0    0  501 -0.00000000000E+00 -0.00000000000E+00 -0.88383742425E+03  0.88383742425E+03  0.00000000000E+00 0.  1.
         23    2    1    2    0    0 -0.21233928413E+03  0.13248317052E+04 -0.36842967159E+02  0.13453428766E+04  0.91230656344E+02 0.  0.
         11    1    3    3    0    0 -0.83939226365E+01  0.27477980253E+03 -0.18128548645E+02  0.27550506727E+03  0.00000000000E+00 0.  1.
        -11    1    3    3    0    0 -0.20394536150E+03  0.10500519027E+04 -0.18714418514E+02  0.10698378093E+04  0.00000000000E+00 0. -1.
         22    1    1    2    0    0  0.21233928413E+03 -0.13248317052E+04  0.21422987759E+04  0.25277877806E+04  0.00000000000E+00 0. -1.
<mgrwt>
<rscale>  0 0.32508763E+04</rscale>
<asrwt>0</asrwt>
<pdfrwt beam="1">  1        2 0.45989126E+00 0.32508763E+04</pdfrwt>
<pdfrwt beam="2">  1       -2 0.13597499E+00 0.32508763E+04</pdfrwt>
<totfact> 0.57389055E-01</totfact>
</mgrwt>
</event>
<event>
 6    1  0.9906445E-006  0.1763340E+04  0.7818608E-02  0.8726042E-01
          1   -1    0    0  501    0  0.00000000000E+00  0.00000000000E+00  0.40285781468E+03  0.40285781468E+03  0.00000000000E+00 0. -1.
         -1   -1    0    0    0  501 -0.00000000000E+00 -0.00000000000E+00 -0.19295682249E+04  0.19295682249E+04  0.00000000000E+00 0.  1.
         23    2    1    2    0    0 -0.48714701265E+03 -0.53605799075E+03 -0.14248209939E+04  0.16009536652E+04  0.90925200621E+02 0.  0.
         13    1    3    3    0    0 -0.22615428891E+03 -0.31577210192E+03 -0.77077622687E+03  0.86310704704E+03  0.00000000000E+00 0.  1.
        -13    1    3    3    0    0 -0.26099272375E+03 -0.22028588883E+03 -0.65404476700E+03  0.73784661815E+03  0.00000000000E+00 0. -1.
         22    1    1    2    0    0  0.48714701265E+03  0.53605799075E+03 -0.10188941638E+03  0.73147237443E+03  0.00000000000E+00 0. -1.
<mgrwt>
<rscale>  0 0.17633396E+04</rscale>
<asrwt>0</asrwt>
<pdfrwt beam="1">  1        1 0.61978127E-01 0.17633396E+04</pdfrwt>
<pdfrwt beam="2">  1       -1 0.29685664E+00 0.17633396E+04</pdfrwt>
<totfact> 0.19493231E+00</totfact>
</mgrwt>
</event>
<event>
 6    1  0.9906445E-006  0.3714738E+04  0.7818608E-02  0.8064704E-01
         -2   -1    0    0    0  501 -0.00000000000E+00  0.00000000000E+00  0.27937835937E+04  0.27937835937E+04  0.00000000000E+00 0.  1.
          2   -1    0    0  501    0  0.00000000000E+00 -0.00000000000E+00 -0.12348198526E+04  0.12348198526E+04  0.00000000000E+00 0. -1.
         23    2    1    2    0    0  0.11171149674E+03 -0.15526305886E+04  0.18763763136E+04  0.24399272854E+04  0.96518830338E+02 0.  0.
         11    1    3    3    0    0  0.97474972444E+02 -0.69566959490E+03  0.83221354106E+03  0.10890532280E+04  0.00000000000E+00 0.  1.
        -11    1    3    3    0    0  0.14236524297E+02 -0.85696099369E+03  0.10441627725E+04  0.13508740573E+04  0.00000000000E+00 0. -1.
         22    1    1    2    0    0 -0.11171149674E+03  0.15526305886E+04 -0.31741257252E+03  0.15886761609E+04  0.00000000000E+00 0. -1.
<mgrwt>
<rscale>  0 0.37147379E+04</rscale>
<asrwt>0</asrwt>
<pdfrwt beam="1">  1        2 0.18997229E+00 0.37147379E+04</pdfrwt>
<pdfrwt beam="2">  1       -2 0.42981286E+00 0.37147379E+04</pdfrwt>
<totfact> 0.68792882E-02</totfact>
</mgrwt>
</event>
<event>
 6    1  0.9906445E-006  0.2048206E+04  0.7818608E-02  0.8584409E-01
          1   -1    0    0  501    0  0.00000000000E+00  0.00000000000E+00  0.34543863669E+04  0.34543863669E+04  0.00000000000E+00 0. -1.
         -1   -1    0    0    0  501 -0.00000000000E+00 -0.00000000000E+00 -0.30361017366E+03  0.30361017366E+03  0.00000000000E+00 0.  1.
         23    2    1    2    0    0 -0.39295630229E+03  0.88547495887E+03  0.21765180480E+04  0.23840753303E+04  0.90021159616E+02 0.  0.
         13    1    3    3    0    0 -0.14829949606E+03  0.44243091667E+03  0.10203127286E+04  0.11219518353E+04  0.00000000000E+00 0. -1.
        -13    1    3    3    0    0 -0.24465680624E+03  0.44304404220E+03  0.11562053194E+04  0.12621234950E+04  0.00000000000E+00 0.  1.
         22    1    1    2    0    0  0.39295630229E+03 -0.88547495887E+03  0.97425814522E+03  0.13739212102E+04  0.00000000000E+00 0.  1.
<mgrwt>
<rscale>  0 0.20482059E+04</rscale>
<asrwt>0</asrwt>
<pdfrwt beam="1">  1        1 0.53144403E+00 0.20482059E+04</pdfrwt>
<pdfrwt beam="2">  1       -1 0.46709260E-01 0.20482059E+04</pdfrwt>
<totfact> 0.11491662E+00</totfact>
</mgrwt>
</event>
<event>
 6    1  0.9906445E-006  0.2534414E+04  0.7818608E-02  0.8390827E-01
          2   -1    0    0  501    0  0.00000000000E+00  0.00000000000E+00  0.19863725702E+04  0.19863725702E+04  0.00000000000E+00 0. -1.
         -2   -1    0    0    0  501 -0.00000000000E+00 -0.00000000000E+00 -0.80841479335E+03  0.80841479335E+03  0.00000000000E+00 0.  1.
         23    2    1    2    0    0  0.25982655813E+03  0.11536593350E+04  0.92494648190E+02  0.11895864711E+04  0.90116649881E+02 0.  0.
         13    1    3    3    0    0  0.87791407994E+02  0.57661026935E+03  0.64144115606E+02  0.58677184800E+03  0.00000000000E+00 0.  1.
        -13    1    3    3    0    0  0.17203515013E+03  0.57704906567E+03  0.28350532583E+02  0.60281462306E+03  0.00000000000E+00 0. -1.
         22    1    1    2    0    0 -0.25982655813E+03 -0.11536593350E+04  0.10854631287E+04  0.16052008925E+04  0.00000000000E+00 0. -1.
<mgrwt>
<rscale>  0 0.25344135E+04</rscale>
<asrwt>0</asrwt>
<pdfrwt beam="1">  1        2 0.30559578E+00 0.25344135E+04</pdfrwt>
<pdfrwt beam="2">  1       -2 0.12437151E+00 0.25344135E+04</pdfrwt>
<totfact> 0.29362400E+00</totfact>
</mgrwt>
</event>
<event>
 6    1  0.9906445E-006  0.2055290E+04  0.7818608E-02  0.8581198E-01
         -2   -1    0    0    0  501 -0.00000000000E+00  0.00000000000E+00  0.13088881535E+04  0.13088881535E+04  0.00000000000E+00 0. -1.
          2   -1    0    0  501    0  0.00000000000E+00 -0.00000000000E+00 -0.80683283700E+03  0.80683283700E+03  0.00000000000E+00 0.  1.
         23    2    1    2    0    0 -0.69423197755E+03 -0.64243274645E+03 -0.15650223661E+03  0.96316907275E+03  0.92324646135E+02 0.  0.
         11    1    3    3    0    0 -0.39957553211E+03 -0.35150707896E+03 -0.43542761779E+02  0.53396048967E+03  0.00000000000E+00 0. -1.
        -11    1    3    3    0    0 -0.29465644543E+03 -0.29092566749E+03 -0.11295947483E+03  0.42920858308E+03  0.00000000000E+00 0.  1.
         22    1    1    2    0    0  0.69423197755E+03  0.64243274645E+03  0.65855755311E+03  0.11525519178E+04  0.00000000000E+00 0. -1.
<mgrwt>
<rscale>  0 0.20552897E+04</rscale>
<asrwt>0</asrwt>
<pdfrwt beam="1">  1        2 0.12412813E+00 0.20552897E+04</pdfrwt>
<pdfrwt beam="2">  1       -2 0.20136741E+00 0.20552897E+04</pdfrwt>
<totfact> 0.41017691E+00</totfact>
</mgrwt>
</event>
<event>
 6    1  0.1657646E-005  0.5373637E+04  0.7818608E-02  0.7773320E-01
          2   -1    0    0  501    0  0.00000000000E+00  0.00000000000E+00  0.25514753107E+04  0.25514753107E+04  0.00000000000E+00 0. -1.
         -2   -1    0    0    0  501 -0.00000000000E+00 -0.00000000000E+00 -0.28293409259E+04  0.28293409259E+04  0.00000000000E+00 0.  1.
         23    2    1    2    0    0 -0.10900805988E+04 -0.11978355826E+04 -0.22846901102E+04  0.28019734053E+04  0.90334208233E+02 0.  0.
         13    1    3    3    0    0 -0.54534254817E+03 -0.58521081668E+03 -0.12046624277E+04  0.14460573154E+04  0.00000000000E+00 0. -1.
        -13    1    3    3    0    0 -0.54473805059E+03 -0.61262476594E+03 -0.10800276825E+04  0.13559160898E+04  0.00000000000E+00 0.  1.
         22    1    1    2    0    0  0.10900805988E+04  0.11978355826E+04  0.20068244951E+04  0.25788428314E+04  0.00000000000E+00 0. -1.
<mgrwt>
<rscale>  0 0.53736370E+04</rscale>
<asrwt>0</asrwt>
<pdfrwt beam="1">  1        2 0.39253466E+00 0.53736370E+04</pdfrwt>
<pdfrwt beam="2">  1       -2 0.43528322E+00 0.53736370E+04</pdfrwt>
<totfact> 0.10001910E-02</totfact>
</mgrwt>
</event>
<event>
 6    1  0.9906445E-006  0.1582091E+04  0.7818608E-02  0.8831626E-01
          1   -1    0    0  501    0  0.00000000000E+00  0.00000000000E+00  0.93483467629E+03  0.93483467629E+03  0.00000000000E+00 0. -1.
         -1   -1    0    0    0  501 -0.00000000000E+00 -0.00000000000E+00 -0.66937297454E+03  0.66937297454E+03  0.00000000000E+00 0.  1.
         23    2    1    2    0    0 -0.76802321992E+03  0.17691840392E+03  0.10723640836E+03  0.80034508082E+03  0.88841505761E+02 0.  0.
         13    1    3    3    0    0 -0.24396268100E+03  0.15837014865E+02  0.21436395754E+02  0.24541418016E+03  0.00000000000E+00 0.  1.
        -13    1    3    3    0    0 -0.52406053891E+03  0.16108138906E+03  0.85800012602E+02  0.55493090066E+03  0.00000000000E+00 0. -1.
         22    1    1    2    0    0  0.76802321992E+03 -0.17691840392E+03  0.15822529339E+03  0.80386257000E+03  0.00000000000E+00 0.  1.
<mgrwt>
<rscale>  0 0.15820911E+04</rscale>
<asrwt>0</asrwt>
<pdfrwt beam="1">  1        1 0.14382072E+00 0.15820911E+04</pdfrwt>
<pdfrwt beam="2">  1       -1 0.10298046E+00 0.15820911E+04</pdfrwt>
<totfact> 0.14594123E+01</totfact>
</mgrwt>
</event>
<event>
 6    1  0.9906445E-006  0.1126408E+04  0.7818608E-02  0.9179828E-01
         -2   -1    0    0    0  501 -0.00000000000E+00  0.00000000000E+00  0.15296332070E+03  0.15296332070E+03  0.00000000000E+00 0.  1.
          2   -1    0    0  501    0  0.00000000000E+00 -0.00000000000E+00 -0.20736927860E+04  0.20736927860E+04  0.00000000000E+00 0. -1.
         23    2    1    2    0    0  0.43252136107E+03 -0.91073291733E+02 -0.28787210821E+03  0.53503196971E+03  0.89553256143E+02 0.  0.
         11    1    3    3    0    0  0.36458308633E+03 -0.45565823190E+02 -0.25319563401E+03  0.44621194534E+03  0.00000000000E+00 0. -1.
        -11    1    3    3    0    0  0.67938274737E+02 -0.45507468543E+02 -0.34676474201E+02  0.88820024378E+02  0.00000000000E+00 0.  1.
         22    1    1    2    0    0 -0.43252136107E+03  0.91073291733E+02 -0.16328573571E+04  0.16916241370E+04  0.00000000000E+00 0. -1.
<mgrwt>
<rscale>  0 0.11264083E+04</rscale>
<asrwt>0</asrwt>
<pdfrwt beam="1">  1        2 0.31902964E+00 0.11264083E+04</pdfrwt>
<pdfrwt beam="2">  1       -2 0.23532820E-01 0.11264083E+04</pdfrwt>
<totfact> 0.96677725E+01</totfact>
</mgrwt>
</event>
<event>
 6    1  0.9906445E-006  0.3523605E+04  0.7818608E-02  0.8108219E-01
          2   -1    0    0  501    0  0.00000000000E+00  0.00000000000E+00  0.21490298423E+04  0.21490298423E+04  0.00000000000E+00 0. -1.
         -2   -1    0    0    0  501 -0.00000000000E+00 -0.00000000000E+00 -0.14443482931E+04  0.14443482931E+04  0.00000000000E+00 0.  1.
         23    2    1    2    0    0  0.11662551336E+04  0.12176524033E+04 -0.16444112375E+03  0.16964852463E+04  0.90514617157E+02 0.  0.
         11    1    3    3    0    0  0.36256563817E+03  0.42860857708E+03 -0.29722979078E+02  0.56217667136E+03  0.00000000000E+00 0.  1.
        -11    1    3    3    0    0  0.80368949539E+03  0.78904382621E+03 -0.13471814467E+03  0.11343085749E+04  0.00000000000E+00 0. -1.
         22    1    1    2    0    0 -0.11662551336E+04 -0.12176524033E+04  0.86912267297E+03  0.18968928890E+04  0.00000000000E+00 0. -1.
<mgrwt>
<rscale>  0 0.35236047E+04</rscale>
<asrwt>0</asrwt>
<pdfrwt beam="1">  1        2 0.33061998E+00 0.35236047E+04</pdfrwt>
<pdfrwt beam="2">  1       -2 0.22220743E+00 0.35236047E+04</pdfrwt>
<totfact> 0.43297024E-01</totfact>
</mgrwt>
</event>
<event>
 6    1  0.9906445E-006  0.1907378E+04  0.7818608E-02  0.8651193E-01
         -2   -1    0    0    0  501 -0.00000000000E+00  0.00000000000E+00  0.63074762769E+03  0.63074762769E+03  0.00000000000E+00 0. -1.
          2   -1    0    0  501    0  0.00000000000E+00 -0.00000000000E+00 -0.14419757512E+04  0.14419757512E+04  0.00000000000E+00 0.  1.
         23    2    1    2    0    0 -0.41734000262E+03  0.73668370639E+03 -0.87874989088E+03  0.12233502276E+04  0.86653607438E+02 0.  0.
         13    1    3    3    0    0 -0.33624752546E+03  0.51547899986E+03 -0.64171103026E+03  0.88914230809E+03  0.00000000000E+00 0. -1.
        -13    1    3    3    0    0 -0.81092477158E+02  0.22120470653E+03 -0.23703886062E+03  0.33420791954E+03  0.00000000000E+00 0.  1.
         22    1    1    2    0    0  0.41734000262E+03 -0.73668370639E+03  0.67521767364E+02  0.84937315127E+03  0.00000000000E+00 0.  1.
<mgrwt>
<rscale>  0 0.19073781E+04</rscale>
<asrwt>0</asrwt>
<pdfrwt beam="1">  1        2 0.22184243E+00 0.19073781E+04</pdfrwt>
<pdfrwt beam="2">  1       -2 0.97038095E-01 0.19073781E+04</pdfrwt>
<totfact> 0.11366832E+01</totfact>
</mgrwt>
</event>
<event>
 6    1  0.9906445E-006  0.3359038E+04  0.7818608E-02  0.8148034E-01
          2   -1    0    0  501    0  0.00000000000E+00  0.00000000000E+00  0.33374576001E+04  0.33374576001E+04  0.00000000000E+00 0. -1.
         -2   -1    0    0    0  501 -0.00000000000E+00 -0.00000000000E+00 -0.84518932820E+03  0.84518932820E+03  0.00000000000E+00 0.  1.
         23    2    1    2    0    0  0.10724108652E+04  0.95014745620E+03  0.15873028976E+03  0.14443546199E+04  0.90109437345E+02 0.  0.
         11    1    3    3    0    0  0.28858221780E+03  0.27332395253E+03  0.82516975882E+02  0.40594917264E+03  0.00000000000E+00 0. -1.
        -11    1    3    3    0    0  0.78382864741E+03  0.67682350366E+03  0.76213313873E+02  0.10384054472E+04  0.00000000000E+00 0.  1.
         22    1    1    2    0    0 -0.10724108652E+04 -0.95014745620E+03  0.23335379822E+04  0.27382923085E+04  0.00000000000E+00 0.  1.
<mgrwt>
<rscale>  0 0.33590377E+04</rscale>
<asrwt>0</asrwt>
<pdfrwt beam="1">  1        2 0.51345501E+00 0.33590377E+04</pdfrwt>
<pdfrwt beam="2">  1       -2 0.13002913E+00 0.33590377E+04</pdfrwt>
<totfact> 0.37881525E-01</totfact>
</mgrwt>
</event>
<event>
 6    1  0.9906445E-006  0.2673025E+04  0.7818608E-02  0.8343811E-01
         -2   -1    0    0    0  501 -0.00000000000E+00  0.00000000000E+00  0.24086556667E+04  0.24086556667E+04  0.00000000000E+00 0.  1.
          2   -1    0    0  501    0  0.00000000000E+00 -0.00000000000E+00 -0.74160268871E+03  0.74160268871E+03  0.00000000000E+00 0. -1.
         23    2    1    2    0    0  0.25726482565E+03 -0.11540322032E+04  0.10415136029E+03  0.11905040384E+04  0.92069772650E+02 0.  0.
         11    1    3    3    0    0  0.19887982314E+03 -0.74401684294E+03  0.97617119053E+02  0.77630106824E+03  0.00000000000E+00 0. -1.
        -11    1    3    3    0    0  0.58385002513E+02 -0.41001536026E+03  0.65342412406E+01  0.41420297014E+03  0.00000000000E+00 0.  1.
         22    1    1    2    0    0 -0.25726482565E+03  0.11540322032E+04  0.15629016177E+04  0.19597543170E+04  0.00000000000E+00 0.  1.
<mgrwt>
<rscale>  0 0.26730249E+04</rscale>
<asrwt>0</asrwt>
<pdfrwt beam="1">  1        2 0.11409272E+00 0.26730249E+04</pdfrwt>
<pdfrwt beam="2">  1       -2 0.37056241E+00 0.26730249E+04</pdfrwt>
<totfact> 0.38524395E-01</totfact>
</mgrwt>
</event>
<event>
 6    1  0.9906445E-006  0.6698044E+03  0.7818608E-02  0.9770311E-01
         -1   -1    0    0    0  501 -0.00000000000E+00  0.00000000000E+00  0.52596188873E+03  0.52596188873E+03  0.00000000000E+00 0.  1.
          1   -1    0    0  501    0  0.00000000000E+00 -0.00000000000E+00 -0.21324637657E+03  0.21324637657E+03  0.00000000000E+00 0. -1.
         23    2    1    2    0    0 -0.71460515582E+00 -0.30616839397E+03  0.27102074540E+02  0.32050236389E+03  0.90816555125E+02 0.  0.
         11    1    3    3    0    0 -0.85250428960E+01 -0.26995354862E+03  0.53079881974E+02  0.27525455244E+03  0.00000000000E+00 0. -1.
        -11    1    3    3    0    0  0.78104377402E+01 -0.36214845347E+02 -0.25977807433E+02  0.45247811442E+02  0.00000000000E+00 0.  1.
         22    1    1    2    0    0  0.71460515582E+00  0.30616839397E+03  0.28561343763E+03  0.41870590142E+03  0.00000000000E+00 0. -1.
<mgrwt>
<rscale>  0 0.66980435E+03</rscale>
<asrwt>0</asrwt>
<pdfrwt beam="1">  1        1 0.32807135E-01 0.66980435E+03</pdfrwt>
<pdfrwt beam="2">  1       -1 0.80917213E-01 0.66980435E+03</pdfrwt>
<totfact> 0.21149828E+02</totfact>
</mgrwt>
</event>
<event>
 6    1  0.9906445E-006  0.9107039E+03  0.7818608E-02  0.9412299E-01
         -1   -1    0    0    0  501 -0.00000000000E+00  0.00000000000E+00  0.57474152380E+03  0.57474152380E+03  0.00000000000E+00 0.  1.
          1   -1    0    0  501    0  0.00000000000E+00 -0.00000000000E+00 -0.36076287593E+03  0.36076287593E+03  0.00000000000E+00 0. -1.
         23    2    1    2    0    0  0.15329573001E+03 -0.42432532157E+03  0.10905310267E+03  0.47229717893E+03  0.87295398864E+02 0.  0.
         13    1    3    3    0    0  0.10899207085E+03 -0.21049267219E+03  0.88260594099E+02  0.25293550369E+03  0.00000000000E+00 0. -1.
        -13    1    3    3    0    0  0.44303659161E+02 -0.21383264938E+03  0.20792508571E+02  0.21936167525E+03  0.00000000000E+00 0.  1.
         22    1    1    2    0    0 -0.15329573001E+03  0.42432532157E+03  0.10492554520E+03  0.46320722080E+03  0.00000000000E+00 0.  1.
<mgrwt>
<rscale>  0 0.91070391E+03</rscale>
<asrwt>0</asrwt>
<pdfrwt beam="1">  1        1 0.55501981E-01 0.91070391E+03</pdfrwt>
<pdfrwt beam="2">  1       -1 0.88421773E-01 0.91070391E+03</pdfrwt>
<totfact> 0.87119529E+01</totfact>
</mgrwt>
</event>
<event>
 6    1  0.9906445E-006  0.3449972E+04  0.7818608E-02  0.8125749E-01
         -2   -1    0    0    0  501 -0.00000000000E+00  0.00000000000E+00  0.97568972198E+03  0.97568972198E+03  0.00000000000E+00 0.  1.
          2   -1    0    0  501    0  0.00000000000E+00 -0.00000000000E+00 -0.30497153905E+04  0.30497153905E+04  0.00000000000E+00 0. -1.
         23    2    1    2    0    0 -0.85164612828E+03 -0.12963237672E+04 -0.16048961342E+03  0.15622005592E+04  0.94642663744E+02 0.  0.
         13    1    3    3    0    0 -0.58636442205E+03 -0.96126781022E+03 -0.97213534740E+02  0.11301811845E+04  0.00000000000E+00 0.  1.
        -13    1    3    3    0    0 -0.26528170623E+03 -0.33505595700E+03 -0.63276078682E+02  0.43201937470E+03  0.00000000000E+00 0. -1.
         22    1    1    2    0    0  0.85164612828E+03  0.12963237672E+04 -0.19135360551E+04  0.24632045533E+04  0.00000000000E+00 0. -1.
<mgrwt>
<rscale>  0 0.34499716E+04</rscale>
<asrwt>0</asrwt>
<pdfrwt beam="1">  1        2 0.46918698E+00 0.34499716E+04</pdfrwt>
<pdfrwt beam="2">  1       -2 0.15010611E+00 0.34499716E+04</pdfrwt>
<totfact> 0.39939093E-01</totfact>
</mgrwt>
</event>
<event>
 6    1  0.9906445E-006  0.3057618E+04  0.7818608E-02  0.8227466E-01
          2   -1    0    0  501    0  0.00000000000E+00  0.00000000000E+00  0.18260093458E+04  0.18260093458E+04  0.00000000000E+00 0. -1.
         -2   -1    0    0    0  501 -0.00000000000E+00 -0.00000000000E+00 -0.12799807156E+04  0.12799807156E+04  0.00000000000E+00 0.  1.
         23    2    1    2    0    0  0.27656106716E+03 -0.11546200282E+03  0.17947677699E+04  0.18217911139E+04  0.88960760149E+02 0.  0.
         11    1    3    3    0    0  0.22542327846E+03 -0.65647443213E+02  0.11999105762E+04  0.12226653803E+04  0.00000000000E+00 0. -1.
        -11    1    3    3    0    0  0.51137788698E+02 -0.49814559603E+02  0.59485719366E+03  0.59912573357E+03  0.00000000000E+00 0.  1.
         22    1    1    2    0    0 -0.27656106716E+03  0.11546200282E+03 -0.12487391397E+04  0.12841989475E+04  0.00000000000E+00 0.  1.
<mgrwt>
<rscale>  0 0.30576179E+04</rscale>
<asrwt>0</asrwt>
<pdfrwt beam="1">  1        2 0.28092452E+00 0.30576179E+04</pdfrwt>
<pdfrwt beam="2">  1       -2 0.19692011E+00 0.30576179E+04</pdfrwt>
<totfact> 0.99118194E-01</totfact>
</mgrwt>
</event>
<event>
 6    1  0.9906445E-006  0.2850504E+04  0.7818608E-02  0.8287758E-01
         -1   -1    0    0    0  501 -0.00000000000E+00  0.00000000000E+00  0.88104948608E+03  0.88104948608E+03  0.00000000000E+00 0.  1.
          1   -1    0    0  501    0  0.00000000000E+00 -0.00000000000E+00 -0.23055951527E+04  0.23055951527E+04  0.00000000000E+00 0. -1.
         23    2    1    2    0    0  0.25655803346E+03  0.12989753510E+04 -0.12985853908E+04  0.18565976553E+04  0.86439860209E+02 0.  0.
         11    1    3    3    0    0  0.67979236157E+02  0.54768860964E+03 -0.51777667289E+03  0.75675403710E+03  0.00000000000E+00 0. -1.
        -11    1    3    3    0    0  0.18857879731E+03  0.75128674140E+03 -0.78080871791E+03  0.10998436182E+04  0.00000000000E+00 0.  1.
         22    1    1    2    0    0 -0.25655803346E+03 -0.12989753510E+04 -0.12596027585E+03  0.13300469835E+04  0.00000000000E+00 0.  1.
<mgrwt>
<rscale>  0 0.28505041E+04</rscale>
<asrwt>0</asrwt>
<pdfrwt beam="1">  1        1 0.35470695E+00 0.28505041E+04</pdfrwt>
<pdfrwt beam="2">  1       -1 0.13554607E+00 0.28505041E+04</pdfrwt>
<totfact> 0.72474740E-01</totfact>
</mgrwt>
</event>
<event>
 6    1  0.9906445E-006  0.2374956E+04  0.7818608E-02  0.8448939E-01
          1   -1    0    0  501    0  0.00000000000E+00  0.00000000000E+00  0.92957618378E+03  0.92957618378E+03  0.00000000000E+00 0. -1.
         -1   -1    0    0    0  501 -0.00000000000E+00 -0.00000000000E+00 -0.15169326455E+04  0.15169326455E+04  0.00000000000E+00 0.  1.
         23    2    1    2    0    0 -0.24818077156E+03 -0.29207407259E+03  0.86232918097E+03  0.94701243986E+03  0.79498337336E+02 0.  0.
         13    1    3    3    0    0 -0.11310097460E+03 -0.14453315956E+03  0.50774087689E+03  0.53989115823E+03  0.00000000000E+00 0.  1.
        -13    1    3    3    0    0 -0.13507979696E+03 -0.14754091303E+03  0.35458830408E+03  0.40712128163E+03  0.00000000000E+00 0. -1.
         22    1    1    2    0    0  0.24818077156E+03  0.29207407259E+03 -0.14496856427E+04  0.14994963894E+04  0.00000000000E+00 0.  1.
<mgrwt>
<rscale>  0 0.23749564E+04</rscale>
<asrwt>0</asrwt>
<pdfrwt beam="1">  1        1 0.14301172E+00 0.23749564E+04</pdfrwt>
<pdfrwt beam="2">  1       -1 0.23337425E+00 0.23749564E+04</pdfrwt>
<totfact> 0.13859280E+00</totfact>
</mgrwt>
</event>
<event>
 6    1  0.9906445E-006  0.3009142E+04  0.7818608E-02  0.8241125E-01
         -2   -1    0    0    0  501 -0.00000000000E+00  0.00000000000E+00  0.12848523980E+04  0.12848523980E+04  0.00000000000E+00 0.  1.
          2   -1    0    0  501    0  0.00000000000E+00 -0.00000000000E+00 -0.17618624312E+04  0.17618624312E+04  0.00000000000E+00 0. -1.
         23    2    1    2    0    0  0.45489587760E+03 -0.43208534579E+03 -0.16217044510E+04  0.17413592011E+04  0.93693838788E+02 0.  0.
         11    1    3    3    0    0  0.32358016590E+03 -0.24590664083E+03 -0.10545983097E+04  0.11301998914E+04  0.00000000000E+00 0.  1.
        -11    1    3    3    0    0  0.13131571170E+03 -0.18617870496E+03 -0.56710614129E+03  0.61115930968E+03  0.00000000000E+00 0. -1.
         22    1    1    2    0    0 -0.45489587760E+03  0.43208534579E+03  0.11446944179E+04  0.13053556281E+04  0.00000000000E+00 0.  1.
<mgrwt>
<rscale>  0 0.30091415E+04</rscale>
<asrwt>0</asrwt>
<pdfrwt beam="1">  1        2 0.27105576E+00 0.30091415E+04</pdfrwt>
<pdfrwt beam="2">  1       -2 0.19766960E+00 0.30091415E+04</pdfrwt>
<totfact> 0.10679401E+00</totfact>
</mgrwt>
</event>
<event>
 6    1  0.9906445E-006  0.1366343E+04  0.7818608E-02  0.8978548E-01
          2   -1    0    0  501    0  0.00000000000E+00  0.00000000000E+00  0.82022696789E+03  0.82022696789E+03  0.00000000000E+00 0. -1.
         -2   -1    0    0    0  501 -0.00000000000E+00 -0.00000000000E+00 -0.56901723649E+03  0.56901723649E+03  0.00000000000E+00 0.  1.
         23    2    1    2    0    0  0.48838386568E+03  0.16645827725E+03  0.57642141995E+03  0.77933453838E+03  0.94199315305E+02 0.  0.
         13    1    3    3    0    0  0.32795384972E+03  0.63995657426E+02  0.36835046040E+03  0.49732407281E+03  0.00000000000E+00 0. -1.
        -13    1    3    3    0    0  0.16043001596E+03  0.10246261982E+03  0.20807095956E+03  0.28201046557E+03  0.00000000000E+00 0.  1.
         22    1    1    2    0    0 -0.48838386568E+03 -0.16645827725E+03 -0.32521168855E+03  0.60990966601E+03  0.00000000000E+00 0.  1.
<mgrwt>
<rscale>  0 0.13663430E+04</rscale>
<asrwt>0</asrwt>
<pdfrwt beam="1">  1        2 0.12618876E+00 0.13663430E+04</pdfrwt>
<pdfrwt beam="2">  1       -2 0.87541113E-01 0.13663430E+04</pdfrwt>
<totfact> 0.36622501E+01</totfact>
</mgrwt>
</event>
<event>
 6    1  0.9906445E-006  0.4524402E+04  0.7818608E-02  0.7906379E-01
          2   -1    0    0  501    0  0.00000000000E+00  0.00000000000E+00  0.40400668863E+04  0.40400668863E+04  0.00000000000E+00 0. -1.
         -2   -1    0    0    0  501 -0.00000000000E+00 -0.00000000000E+00 -0.12667001561E+04  0.12667001561E+04  0.00000000000E+00 0.  1.
         23    2    1    2    0    0 -0.18992012202E+04 -0.85944844594E+03  0.24151744937E+04  0.31916030808E+04  0.87438458139E+02 0.  0.
         13    1    3    3    0    0 -0.13698577255E+04 -0.62357524062E+03  0.18025482795E+04  0.23483050417E+04  0.00000000000E+00 0. -1.
        -13    1    3    3    0    0 -0.52934349476E+03 -0.23587320533E+03  0.61262621419E+03  0.84329803910E+03  0.00000000000E+00 0.  1.
         22    1    1    2    0    0  0.18992012202E+04  0.85944844594E+03  0.35819223649E+03  0.21151639616E+04  0.00000000000E+00 0.  1.
<mgrwt>
<rscale>  0 0.45244020E+04</rscale>
<asrwt>0</asrwt>
<pdfrwt beam="1">  1        2 0.62154874E+00 0.45244020E+04</pdfrwt>
<pdfrwt beam="2">  1       -2 0.19487695E+00 0.45244020E+04</pdfrwt>
<totfact> 0.34348949E-02</totfact>
</mgrwt>
</event>
<event>
 6    1  0.9906445E-006  0.3007331E+04  0.7818608E-02  0.8241640E-01
          2   -1    0    0  501    0  0.00000000000E+00  0.00000000000E+00  0.79397761924E+03  0.79397761924E+03  0.00000000000E+00 0. -1.
         -2   -1    0    0    0  501 -0.00000000000E+00 -0.00000000000E+00 -0.28477003779E+04  0.28477003779E+04  0.00000000000E+00 0.  1.
         23    2    1    2    0    0  0.93583462154E+03  0.63841493888E+03  0.16700050201E+03  0.11486934658E+04  0.90815404058E+02 0.  0.
         11    1    3    3    0    0  0.63990645899E+03  0.40159248574E+03  0.14310059564E+03  0.76891779882E+03  0.00000000000E+00 0.  1.
        -11    1    3    3    0    0  0.29592816254E+03  0.23682245314E+03  0.23899906375E+02  0.37977566697E+03  0.00000000000E+00 0. -1.
         22    1    1    2    0    0 -0.93583462154E+03 -0.63841493888E+03 -0.22207232607E+04  0.24929845313E+04  0.00000000000E+00 0.  1.
<mgrwt>
<rscale>  0 0.30073313E+04</rscale>
<asrwt>0</asrwt>
<pdfrwt beam="1">  1        2 0.12215040E+00 0.30073313E+04</pdfrwt>
<pdfrwt beam="2">  1       -2 0.43810776E+00 0.30073313E+04</pdfrwt>
<totfact> 0.12369267E-01</totfact>
</mgrwt>
</event>
<event>
 6    1  0.9906445E-006  0.3859276E+04  0.7818608E-02  0.8033553E-01
          2   -1    0    0  501    0  0.00000000000E+00  0.00000000000E+00  0.32529374667E+04  0.32529374667E+04  0.00000000000E+00 0. -1.
         -2   -1    0    0    0  501 -0.00000000000E+00 -0.00000000000E+00 -0.11446584862E+04  0.11446584862E+04  0.00000000000E+00 0.  1.
         23    2    1    2    0    0  0.26457059471E+03  0.14775973584E+04  0.24349374049E+04  0.28613676888E+04  0.72203401321E+02 0.  0.
         13    1    3    3    0    0  0.10149004983E+03  0.71378165041E+03  0.12166305522E+04  0.14142045026E+04  0.00000000000E+00 0.  1.
        -13    1    3    3    0    0  0.16308054488E+03  0.76381570803E+03  0.12183068528E+04  0.14471631862E+04  0.00000000000E+00 0. -1.
         22    1    1    2    0    0 -0.26457059471E+03 -0.14775973584E+04 -0.32665842445E+03  0.15362282641E+04  0.00000000000E+00 0.  1.
<mgrwt>
<rscale>  0 0.38592758E+04</rscale>
<asrwt>0</asrwt>
<pdfrwt beam="1">  1        2 0.50045191E+00 0.38592758E+04</pdfrwt>
<pdfrwt beam="2">  1       -2 0.17610131E+00 0.38592758E+04</pdfrwt>
<totfact> 0.18413763E-01</totfact>
</mgrwt>
</event>
<event>
 6    1  0.1484776E-005  0.4721805E+04  0.7818608E-02  0.7872916E-01
         -2   -1    0    0    0  501 -0.00000000000E+00  0.00000000000E+00  0.15817998055E+04  0.15817998055E+04  0.00000000000E+00 0.  1.
          2   -1    0    0  501    0  0.00000000000E+00 -0.00000000000E+00 -0.35237459211E+04  0.35237459211E+04  0.00000000000E+00 0. -1.
         23    2    1    2    0    0 -0.16506472156E+04  0.12773089246E+04 -0.21624679956E+04  0.30067879466E+04  0.91387112938E+02 0.  0.
         13    1    3    3    0    0 -0.11546524190E+04  0.86553392766E+03 -0.14423888238E+04  0.20403079933E+04  0.00000000000E+00 0. -1.
        -13    1    3    3    0    0 -0.49599479668E+03  0.41177499697E+03 -0.72007917174E+03  0.96647995325E+03  0.00000000000E+00 0.  1.
         22    1    1    2    0    0  0.16506472156E+04 -0.12773089246E+04  0.22052187999E+03  0.20987577800E+04  0.00000000000E+00 0.  1.
<mgrwt>
<rscale>  0 0.47218050E+04</rscale>
<asrwt>0</asrwt>
<pdfrwt beam="1">  1        2 0.54211475E+00 0.47218050E+04</pdfrwt>
<pdfrwt beam="2">  1       -2 0.24335382E+00 0.47218050E+04</pdfrwt>
<totfact> 0.41035605E-02</totfact>
</mgrwt>
</event>
<event>
 6    1  0.9906445E-006  0.3009811E+04  0.7818608E-02  0.8240935E-01
         -1   -1    0    0    0  501 -0.00000000000E+00  0.00000000000E+00  0.95339775761E+03  0.95339775761E+03  0.00000000000E+00 0.  1.
          1   -1    0    0  501    0  0.00000000000E+00 -0.00000000000E+00 -0.23754411944E+04  0.23754411944E+04  0.00000000000E+00 0. -1.
         23    2    1    2    0    0 -0.82903083748E+03 -0.68016521041E+03  0.45394930122E+03  0.11679906010E+04  0.90637922717E+02 0.  0.
         13    1    3    3    0    0 -0.66621076713E+03 -0.52012776776E+03  0.32315103979E+03  0.90487362408E+03  0.00000000000E+00 0. -1.
        -13    1    3    3    0    0 -0.16282007035E+03 -0.16003744265E+03  0.13079826143E+03  0.26311697693E+03  0.00000000000E+00 0.  1.
         22    1    1    2    0    0  0.82903083748E+03  0.68016521041E+03 -0.18759927380E+04  0.21608483510E+04  0.00000000000E+00 0. -1.
<mgrwt>
<rscale>  0 0.30098108E+04</rscale>
<asrwt>0</asrwt>
<pdfrwt beam="1">  1        1 0.36545249E+00 0.30098108E+04</pdfrwt>
<pdfrwt beam="2">  1       -1 0.14667658E+00 0.30098108E+04</pdfrwt>
<totfact> 0.52032350E-01</totfact>
</mgrwt>
</event>
<event>
 6    1  0.9906445E-006  0.1872350E+04  0.7818608E-02  0.8668743E-01
          1   -1    0    0  501    0  0.00000000000E+00  0.00000000000E+00  0.79486105896E+03  0.79486105896E+03  0.00000000000E+00 0. -1.
         -1   -1    0    0    0  501 -0.00000000000E+00 -0.00000000000E+00 -0.11026128725E+04  0.11026128725E+04  0.00000000000E+00 0.  1.
         23    2    1    2    0    0  0.46615035793E+03 -0.15607656312E+03  0.65029464266E+03  0.82066890639E+03  0.94648200710E+02 0.  0.
         13    1    3    3    0    0  0.67937007141E+02 -0.48734273196E+02  0.15528051857E+03  0.17635902521E+03  0.00000000000E+00 0. -1.
        -13    1    3    3    0    0  0.39821335078E+03 -0.10734228992E+03  0.49501412409E+03  0.64430988119E+03  0.00000000000E+00 0.  1.
         22    1    1    2    0    0 -0.46615035793E+03  0.15607656312E+03 -0.95804645619E+03  0.10768050250E+04  0.00000000000E+00 0.  1.
<mgrwt>
<rscale>  0 0.18723504E+04</rscale>
<asrwt>0</asrwt>
<pdfrwt beam="1">  1        1 0.12228632E+00 0.18723504E+04</pdfrwt>
<pdfrwt beam="2">  1       -1 0.16963275E+00 0.18723504E+04</pdfrwt>
<totfact> 0.51872312E+00</totfact>
</mgrwt>
</event>
<event>
 6    1  0.9906445E-006  0.3114619E+04  0.7818608E-02  0.8211737E-01
         -1   -1    0    0    0  501 -0.00000000000E+00  0.00000000000E+00  0.17514586924E+04  0.17514586924E+04  0.00000000000E+00 0.  1.
          1   -1    0    0  501    0  0.00000000000E+00 -0.00000000000E+00 -0.13846814718E+04  0.13846814718E+04  0.00000000000E+00 0. -1.
         23    2    1    2    0    0 -0.95281469098E+03  0.86706271010E+03 -0.69509728622E+03  0.14666399255E+04  0.90657902362E+02 0.  0.
         13    1    3    3    0    0 -0.52833406946E+03  0.53578464748E+03 -0.42616091170E+03  0.86476308900E+03  0.00000000000E+00 0.  1.
        -13    1    3    3    0    0 -0.42448062152E+03  0.33127806262E+03 -0.26893637451E+03  0.60187683653E+03  0.00000000000E+00 0. -1.
         22    1    1    2    0    0  0.95281469098E+03 -0.86706271010E+03  0.10618745068E+04  0.16695002386E+04  0.00000000000E+00 0.  1.
<mgrwt>
<rscale>  0 0.31146187E+04</rscale>
<asrwt>0</asrwt>
<pdfrwt beam="1">  1        1 0.21302792E+00 0.31146187E+04</pdfrwt>
<pdfrwt beam="2">  1       -1 0.26945518E+00 0.31146187E+04</pdfrwt>
<totfact> 0.34574635E-01</totfact>
</mgrwt>
</event>
<event>
 6    1  0.1238575E-005  0.2701624E+04  0.7818608E-02  0.8334478E-01
         -4   -1    0    0    0  501 -0.00000000000E+00  0.00000000000E+00  0.13077367427E+04  0.13077367427E+04  0.00000000000E+00 0.  1.
          4   -1    0    0  501    0  0.00000000000E+00 -0.00000000000E+00 -0.13953056419E+04  0.13953056419E+04  0.00000000000E+00 0. -1.
         23    2    1    2    0    0  0.25383641208E+03 -0.42637302016E+03  0.12118022115E+04  0.13121462132E+04  0.83882110908E+02 0.  0.
         13    1    3    3    0    0  0.12317406888E+03 -0.28207558421E+03  0.70605376792E+03  0.77022750512E+03  0.00000000000E+00 0. -1.
        -13    1    3    3    0    0  0.13066234321E+03 -0.14429743595E+03  0.50574844359E+03  0.54191870806E+03  0.00000000000E+00 0.  1.
         22    1    1    2    0    0 -0.25383641208E+03  0.42637302016E+03 -0.12993711107E+04  0.13908961714E+04  0.00000000000E+00 0. -1.
<mgrwt>
<rscale>  0 0.27016236E+04</rscale>
<asrwt>0</asrwt>
<pdfrwt beam="1">  1        4 0.21466241E+00 0.27016236E+04</pdfrwt>
<pdfrwt beam="2">  1       -4 0.20119027E+00 0.27016236E+04</pdfrwt>
<totfact> 0.23820515E-02</totfact>
</mgrwt>
</event>
<event>
 6    1  0.9906445E-006  0.3042519E+04  0.7818608E-02  0.8231692E-01
          2   -1    0    0  501    0  0.00000000000E+00  0.00000000000E+00  0.13466448199E+04  0.13466448199E+04  0.00000000000E+00 0. -1.
         -2   -1    0    0    0  501 -0.00000000000E+00 -0.00000000000E+00 -0.17185163980E+04  0.17185163980E+04  0.00000000000E+00 0.  1.
         23    2    1    2    0    0 -0.17554045529E+02 -0.70079772784E+03  0.11724083687E+04  0.13692171876E+04  0.93748194747E+02 0.  0.
         13    1    3    3    0    0  0.53286387951E+01 -0.13647139644E+02  0.72800613811E+01  0.16359648699E+02  0.00000000000E+00 0. -1.
        -13    1    3    3    0    0 -0.22882684324E+02 -0.68715058819E+03  0.11651283073E+04  0.13528575389E+04  0.00000000000E+00 0.  1.
         22    1    1    2    0    0  0.17554045529E+02  0.70079772784E+03 -0.15442799467E+04  0.16959440303E+04  0.00000000000E+00 0.  1.
<mgrwt>
<rscale>  0 0.30425195E+04</rscale>
<asrwt>0</asrwt>
<pdfrwt beam="1">  1        2 0.20717613E+00 0.30425195E+04</pdfrwt>
<pdfrwt beam="2">  1       -2 0.26438714E+00 0.30425195E+04</pdfrwt>
<totfact> 0.69488944E-01</totfact>
</mgrwt>
</event>
<event>
 6    1  0.9906445E-006  0.7261658E+03  0.7818608E-02  0.9673503E-01
          2   -1    0    0  501    0  0.00000000000E+00  0.00000000000E+00  0.56538003682E+03  0.56538003682E+03  0.00000000000E+00 0. -1.
         -2   -1    0    0    0  501 -0.00000000000E+00 -0.00000000000E+00 -0.23316915655E+03  0.23316915655E+03  0.00000000000E+00 0.  1.
         23    2    1    2    0    0  0.12124401938E+03  0.33615778457E+03  0.16033481632E+03  0.40200972532E+03  0.90567088785E+02 0.  0.
         13    1    3    3    0    0  0.33665928815E+02  0.16931273611E+03  0.11734528957E+03  0.20873455477E+03  0.00000000000E+00 0.  1.
        -13    1    3    3    0    0  0.87578090566E+02  0.16684504845E+03  0.42989526747E+02  0.19327517055E+03  0.00000000000E+00 0. -1.
         22    1    1    2    0    0 -0.12124401938E+03 -0.33615778457E+03  0.17187606395E+03  0.39653946805E+03  0.00000000000E+00 0.  1.
<mgrwt>
<rscale>  0 0.72616578E+03</rscale>
<asrwt>0</asrwt>
<pdfrwt beam="1">  1        2 0.86981544E-01 0.72616578E+03</pdfrwt>
<pdfrwt beam="2">  1       -2 0.35872178E-01 0.72616578E+03</pdfrwt>
<totfact> 0.39196908E+02</totfact>
</mgrwt>
</event>
<event>
 6    1  0.9906445E-006  0.2921927E+03  0.7818608E-02  0.1089210E+00
         -1   -1    0    0    0  501 -0.00000000000E+00  0.00000000000E+00  0.14609952487E+02  0.14609952487E+02  0.00000000000E+00 0.  1.
          1   -1    0    0  501    0  0.00000000000E+00 -0.00000000000E+00 -0.14609321439E+04  0.14609321439E+04  0.00000000000E+00 0. -1.
         23    2    1    2    0    0 -0.37649415044E+02  0.34904592975E+02 -0.14069016401E+04  0.14108135175E+04  0.91579184968E+02 0.  0.
         13    1    3    3    0    0 -0.42905808335E+02  0.40573436480E+02 -0.13970181847E+04  0.13982656831E+04  0.00000000000E+00 0.  1.
        -13    1    3    3    0    0  0.52563932911E+01 -0.56688435048E+01 -0.98834554052E+01  0.12547834389E+02  0.00000000000E+00 0. -1.
         22    1    1    2    0    0  0.37649415044E+02 -0.34904592975E+02 -0.39420551360E+02  0.64728578954E+02  0.00000000000E+00 0.  1.
<mgrwt>
<rscale>  0 0.29219274E+03</rscale>
<asrwt>0</asrwt>
<pdfrwt beam="1">  1        1 0.22475892E+00 0.29219274E+03</pdfrwt>
<pdfrwt beam="2">  1       -1 0.22476837E-02 0.29219274E+03</pdfrwt>
<totfact> 0.43923870E+03</totfact>
</mgrwt>
</event>
<event>
 6    1  0.9906445E-006  0.1373638E+04  0.7818608E-02  0.8973125E-01
          2   -1    0    0  501    0  0.00000000000E+00  0.00000000000E+00  0.31094652751E+04  0.31094652751E+04  0.00000000000E+00 0. -1.
         -2   -1    0    0    0  501 -0.00000000000E+00 -0.00000000000E+00 -0.15170471144E+03  0.15170471144E+03  0.00000000000E+00 0.  1.
         23    2    1    2    0    0 -0.59513905304E+03 -0.15835576184E+03  0.77594039180E+03  0.99410000481E+03  0.82971610646E+02 0.  0.
         13    1    3    3    0    0 -0.14201526891E+03 -0.74674887926E+02  0.21079064039E+03  0.26491011601E+03  0.00000000000E+00 0. -1.
        -13    1    3    3    0    0 -0.45312378412E+03 -0.83680873919E+02  0.56514975141E+03  0.72918988879E+03  0.00000000000E+00 0.  1.
         22    1    1    2    0    0  0.59513905304E+03  0.15835576184E+03  0.21818201719E+04  0.22670699818E+04  0.00000000000E+00 0. -1.
<mgrwt>
<rscale>  0 0.13736383E+04</rscale>
<asrwt>0</asrwt>
<pdfrwt beam="1">  1        2 0.47837923E+00 0.13736383E+04</pdfrwt>
<pdfrwt beam="2">  1       -2 0.23339189E-01 0.13736383E+04</pdfrwt>
<totfact> 0.23773047E+01</totfact>
</mgrwt>
</event>
<event>
 6    1  0.9906445E-006  0.2782852E+04  0.7818608E-02  0.8308612E-01
          1   -1    0    0  501    0  0.00000000000E+00  0.00000000000E+00  0.31423697178E+04  0.31423697178E+04  0.00000000000E+00 0. -1.
         -1   -1    0    0    0  501 -0.00000000000E+00 -0.00000000000E+00 -0.61611669563E+03  0.61611669563E+03  0.00000000000E+00 0.  1.
         23    2    1    2    0    0 -0.99828123034E+03  0.40728427180E+03  0.80649780314E+02  0.10857684879E+04  0.99714238412E+02 0.  0.
         13    1    3    3    0    0 -0.23706677018E+03  0.13051270003E+03 -0.95895101700E+01  0.27078806676E+03  0.00000000000E+00 0. -1.
        -13    1    3    3    0    0 -0.76121446016E+03  0.27677157177E+03  0.90239290484E+02  0.81498042114E+03  0.00000000000E+00 0.  1.
         22    1    1    2    0    0  0.99828123034E+03 -0.40728427180E+03  0.24456032418E+04  0.26727179255E+04  0.00000000000E+00 0. -1.
<mgrwt>
<rscale>  0 0.27828521E+04</rscale>
<asrwt>0</asrwt>
<pdfrwt beam="1">  1        1 0.48344149E+00 0.27828521E+04</pdfrwt>
<pdfrwt beam="2">  1       -1 0.94787186E-01 0.27828521E+04</pdfrwt>
<totfact> 0.43774285E-01</totfact>
</mgrwt>
</event>
<event>
 6    1  0.9906445E-006  0.2939334E+04  0.7818608E-02  0.8261270E-01
          2   -1    0    0  501    0  0.00000000000E+00  0.00000000000E+00  0.93803328545E+03  0.93803328545E+03  0.00000000000E+00 0. -1.
         -2   -1    0    0    0  501 -0.00000000000E+00 -0.00000000000E+00 -0.23026060368E+04  0.23026060368E+04  0.00000000000E+00 0.  1.
         23    2    1    2    0    0 -0.18629621668E+03  0.12480477452E+04 -0.15104830930E+04  0.19703561717E+04  0.91732298080E+02 0.  0.
         13    1    3    3    0    0 -0.11799886657E+03  0.87805834861E+03 -0.11209765201E+04  0.14288101885E+04  0.00000000000E+00 0. -1.
        -13    1    3    3    0    0 -0.68297350111E+02  0.36998939663E+03 -0.38950657285E+03  0.54154598322E+03  0.00000000000E+00 0.  1.
         22    1    1    2    0    0  0.18629621668E+03 -0.12480477452E+04  0.14591034163E+03  0.12702831505E+04  0.00000000000E+00 0.  1.
<mgrwt>
<rscale>  0 0.29393340E+04</rscale>
<asrwt>0</asrwt>
<pdfrwt beam="1">  1        2 0.14431281E+00 0.29393340E+04</pdfrwt>
<pdfrwt beam="2">  1       -2 0.35424708E+00 0.29393340E+04</pdfrwt>
<totfact> 0.34782313E-01</totfact>
</mgrwt>
</event>
<event>
 6    1  0.9906445E-006  0.3492848E+04  0.7818608E-02  0.8115487E-01
         -3   -1    0    0    0  501 -0.00000000000E+00  0.00000000000E+00  0.13459451039E+04  0.13459451039E+04  0.00000000000E+00 0.  1.
          3   -1    0    0  501    0  0.00000000000E+00 -0.00000000000E+00 -0.22660632489E+04  0.22660632489E+04  0.00000000000E+00 0. -1.
         23    2    1    2    0    0  0.49907435964E+03  0.16412602259E+04 -0.79216823489E+03  0.18917811803E+04  0.92169279514E+02 0.  0.
         11    1    3    3    0    0  0.10717498265E+03  0.44530238324E+03 -0.24529463474E+03  0.51956726924E+03  0.00000000000E+00 0. -1.
        -11    1    3    3    0    0  0.39189937699E+03  0.11959578427E+04 -0.54687360015E+03  0.13722139110E+04  0.00000000000E+00 0.  1.
         22    1    1    2    0    0 -0.49907435964E+03 -0.16412602259E+04 -0.12794991008E+03  0.17202271725E+04  0.00000000000E+00 0. -1.
<mgrwt>
<rscale>  0 0.34928480E+04</rscale>
<asrwt>0</asrwt>
<pdfrwt beam="1">  1        3 0.34862511E+00 0.34928480E+04</pdfrwt>
<pdfrwt beam="2">  1       -3 0.20706848E+00 0.34928480E+04</pdfrwt>
<totfact> 0.58940419E-03</totfact>
</mgrwt>
</event>
<event>
 6    1  0.9906445E-006  0.7619365E+03  0.7818608E-02  0.9616808E-01
         -2   -1    0    0    0  501 -0.00000000000E+00  0.00000000000E+00  0.26150917107E+03  0.26150917107E+03  0.00000000000E+00 0.  1.
          2   -1    0    0  501    0  0.00000000000E+00 -0.00000000000E+00 -0.55499696009E+03  0.55499696009E+03  0.00000000000E+00 0. -1.
         23    2    1    2    0    0 -0.19745457392E+03 -0.19543080501E+03  0.12113953664E+03  0.31740961996E+03  0.94300430532E+02 0.  0.
         11    1    3    3    0    0 -0.19765701411E+02  0.10839513794E+01  0.32470658584E+02  0.38028957017E+02  0.00000000000E+00 0.  1.
        -11    1    3    3    0    0 -0.17768887251E+03 -0.19651475639E+03  0.88668878051E+02  0.27938066294E+03  0.00000000000E+00 0. -1.
         22    1    1    2    0    0  0.19745457392E+03  0.19543080501E+03 -0.41462732566E+03  0.49909651120E+03  0.00000000000E+00 0. -1.
<mgrwt>
<rscale>  0 0.76193647E+03</rscale>
<asrwt>0</asrwt>
<pdfrwt beam="1">  1        2 0.85384147E-01 0.76193647E+03</pdfrwt>
<pdfrwt beam="2">  1       -2 0.40232181E-01 0.76193647E+03</pdfrwt>
<totfact> 0.32068898E+02</totfact>
</mgrwt>
</event>
<event>
 6    1  0.9906445E-006  0.2950761E+04  0.7818608E-02  0.8257933E-01
         -1   -1    0    0    0  501 -0.00000000000E+00  0.00000000000E+00  0.67604369503E+03  0.67604369503E+03  0.00000000000E+00 0.  1.
          1   -1    0    0  501    0  0.00000000000E+00 -0.00000000000E+00 -0.32198327569E+04  0.32198327569E+04  0.00000000000E+00 0. -1.
         23    2    1    2    0    0  0.63292807908E+03 -0.77577410041E+03 -0.27013373410E+04  0.28823455603E+04  0.90934541009E+02 0.  0.
         11    1    3    3    0    0  0.21363499620E+03 -0.32278789269E+03 -0.97929895688E+03  0.10530234481E+04  0.00000000000E+00 0.  1.
        -11    1    3    3    0    0  0.41929308288E+03 -0.45298620773E+03 -0.17220383841E+04  0.18293221122E+04  0.00000000000E+00 0. -1.
         22    1    1    2    0    0 -0.63292807908E+03  0.77577410041E+03  0.15754827911E+03  0.10135308917E+04  0.00000000000E+00 0.  1.
<mgrwt>
<rscale>  0 0.29507610E+04</rscale>
<asrwt>0</asrwt>
<pdfrwt beam="1">  1        1 0.49535888E+00 0.29507610E+04</pdfrwt>
<pdfrwt beam="2">  1       -1 0.10400672E+00 0.29507610E+04</pdfrwt>
<totfact> 0.30530338E-01</totfact>
</mgrwt>
</event>
<event>
 6    1  0.9906445E-006  0.2087717E+04  0.7818608E-02  0.8566674E-01
         -2   -1    0    0    0  501 -0.00000000000E+00  0.00000000000E+00  0.35079162370E+03  0.35079162370E+03  0.00000000000E+00 0.  1.
          2   -1    0    0  501    0  0.00000000000E+00 -0.00000000000E+00 -0.31062331131E+04  0.31062331131E+04  0.00000000000E+00 0. -1.
         23    2    1    2    0    0  0.52596387503E+03 -0.84468141831E+03 -0.18918011257E+04  0.21394514470E+04  0.90643799627E+02 0.  0.
         13    1    3    3    0    0  0.50887773421E+03 -0.79565899361E+03 -0.18243756763E+04  0.20543554684E+04  0.00000000000E+00 0. -1.
        -13    1    3    3    0    0  0.17086140827E+02 -0.49022424700E+02 -0.67425449450E+02  0.85095978550E+02  0.00000000000E+00 0.  1.
         22    1    1    2    0    0 -0.52596387503E+03  0.84468141831E+03 -0.86364036370E+03  0.13175732898E+04  0.00000000000E+00 0.  1.
<mgrwt>
<rscale>  0 0.20877170E+04</rscale>
<asrwt>0</asrwt>
<pdfrwt beam="1">  1        2 0.47788199E+00 0.20877170E+04</pdfrwt>
<pdfrwt beam="2">  1       -2 0.53967945E-01 0.20877170E+04</pdfrwt>
<totfact> 0.44584585E+00</totfact>
</mgrwt>
</event>
<event>
 6    1  0.1218264E-005  0.3246587E+04  0.7818608E-02  0.8176621E-01
         -1   -1    0    0    0  501 -0.00000000000E+00  0.00000000000E+00  0.17215914505E+04  0.17215914505E+04  0.00000000000E+00 0.  1.
          1   -1    0    0  501    0  0.00000000000E+00 -0.00000000000E+00 -0.15306078302E+04  0.15306078302E+04  0.00000000000E+00 0. -1.
         23    2    1    2    0    0  0.12875767068E+04  0.94476576963E+03 -0.18926389887E+03  0.16105463603E+04  0.87193002901E+02 0.  0.
         11    1    3    3    0    0  0.63420698141E+03  0.50717952484E+03 -0.68337407514E+02  0.81493531458E+03  0.00000000000E+00 0. -1.
        -11    1    3    3    0    0  0.65336972539E+03  0.43758624479E+03 -0.12092649136E+03  0.79561104568E+03  0.00000000000E+00 0.  1.
         22    1    1    2    0    0 -0.12875767068E+04 -0.94476576963E+03  0.38024751918E+03  0.16416529204E+04  0.00000000000E+00 0. -1.
<mgrwt>
<rscale>  0 0.32465867E+04</rscale>
<asrwt>0</asrwt>
<pdfrwt beam="1">  1        1 0.23547813E+00 0.32465867E+04</pdfrwt>
<pdfrwt beam="2">  1       -1 0.26486022E+00 0.32465867E+04</pdfrwt>
<totfact> 0.28966125E-01</totfact>
</mgrwt>
</event>
<event>
 6    1  0.9906445E-006  0.1368186E+04  0.7818608E-02  0.8977175E-01
         -2   -1    0    0    0  501 -0.00000000000E+00  0.00000000000E+00  0.95875040778E+03  0.95875040778E+03  0.00000000000E+00 0.  1.
          2   -1    0    0  501    0  0.00000000000E+00 -0.00000000000E+00 -0.48811760325E+03  0.48811760325E+03  0.00000000000E+00 0. -1.
         23    2    1    2    0    0 -0.43797603706E+03  0.49131801789E+03  0.42086735244E+03  0.78679755723E+03  0.93298788676E+02 0.  0.
         13    1    3    3    0    0 -0.17124574096E+03  0.23616688912E+03  0.14362393241E+03  0.32515801893E+03  0.00000000000E+00 0. -1.
        -13    1    3    3    0    0 -0.26673029610E+03  0.25515112877E+03  0.27724342004E+03  0.46163953831E+03  0.00000000000E+00 0.  1.
         22    1    1    2    0    0  0.43797603706E+03 -0.49131801789E+03  0.49765452089E+02  0.66007045379E+03  0.00000000000E+00 0. -1.
<mgrwt>
<rscale>  0 0.13681856E+04</rscale>
<asrwt>0</asrwt>
<pdfrwt beam="1">  1        2 0.75095016E-01 0.13681856E+04</pdfrwt>
<pdfrwt beam="2">  1       -2 0.14750006E+00 0.13681856E+04</pdfrwt>
<totfact> 0.19334325E+01</totfact>
</mgrwt>
</event>
<event>
 6    1  0.1074437E-005  0.3610062E+04  0.7818608E-02  0.8088191E-01
          1   -1    0    0  501    0  0.00000000000E+00  0.00000000000E+00  0.24925003253E+04  0.24925003253E+04  0.00000000000E+00 0. -1.
         -1   -1    0    0    0  501 -0.00000000000E+00 -0.00000000000E+00 -0.13071763946E+04  0.13071763946E+04  0.00000000000E+00 0.  1.
         23    2    1    2    0    0 -0.40137910632E+03 -0.38466801283E+03  0.23992361955E+04  0.24645146871E+04  0.91780465245E+02 0.  0.
         13    1    3    3    0    0 -0.17000486262E+03 -0.12364256947E+03  0.75709713575E+03  0.78573864055E+03  0.00000000000E+00 0. -1.
        -13    1    3    3    0    0 -0.23137424370E+03 -0.26102544336E+03  0.16421390598E+04  0.16787760465E+04  0.00000000000E+00 0.  1.
         22    1    1    2    0    0  0.40137910632E+03  0.38466801283E+03 -0.12139122649E+04  0.13351620328E+04  0.00000000000E+00 0.  1.
<mgrwt>
<rscale>  0 0.36100624E+04</rscale>
<asrwt>0</asrwt>
<pdfrwt beam="1">  1        1 0.38346159E+00 0.36100624E+04</pdfrwt>
<pdfrwt beam="2">  1       -1 0.20110406E+00 0.36100624E+04</pdfrwt>
<totfact> 0.16389291E-01</totfact>
</mgrwt>
</event>
<event>
 6    1  0.9906445E-006  0.1675076E+04  0.7818608E-02  0.8775708E-01
          1   -1    0    0  501    0  0.00000000000E+00  0.00000000000E+00  0.77882108834E+03  0.77882108834E+03  0.00000000000E+00 0. -1.
         -1   -1    0    0    0  501 -0.00000000000E+00 -0.00000000000E+00 -0.90068190497E+03  0.90068190497E+03  0.00000000000E+00 0.  1.
         23    2    1    2    0    0 -0.73624341385E+03  0.37271797780E+03  0.66826008848E+02  0.83299500544E+03  0.91879857519E+02 0.  0.
         13    1    3    3    0    0 -0.45168382716E+03  0.19562442073E+03  0.54575733247E+01  0.49225702515E+03  0.00000000000E+00 0. -1.
        -13    1    3    3    0    0 -0.28455958669E+03  0.17709355707E+03  0.61368435523E+02  0.34073798029E+03  0.00000000000E+00 0.  1.
         22    1    1    2    0    0  0.73624341385E+03 -0.37271797780E+03 -0.18868682547E+03  0.84650798787E+03  0.00000000000E+00 0.  1.
<mgrwt>
<rscale>  0 0.16750762E+04</rscale>
<asrwt>0</asrwt>
<pdfrwt beam="1">  1        1 0.11981863E+00 0.16750762E+04</pdfrwt>
<pdfrwt beam="2">  1       -1 0.13856645E+00 0.16750762E+04</pdfrwt>
<totfact> 0.94778104E+00</totfact>
</mgrwt>
</event>
<event>
 6    1  0.9906445E-006  0.5230058E+04  0.7818608E-02  0.7793966E-01
          2   -1    0    0  501    0  0.00000000000E+00  0.00000000000E+00  0.37358119933E+04  0.37358119933E+04  0.00000000000E+00 0.  1.
         -2   -1    0    0    0  501 -0.00000000000E+00 -0.00000000000E+00 -0.18304928556E+04  0.18304928556E+04  0.00000000000E+00 0. -1.
         23    2    1    2    0    0  0.23042076437E+04  0.12100442526E+04  0.69101951942E+03  0.26943536791E+04  0.91944618200E+02 0.  0.
         11    1    3    3    0    0  0.11054672755E+04  0.59622923377E+03  0.37878384921E+03  0.13118781959E+04  0.00000000000E+00 0.  1.
        -11    1    3    3    0    0  0.11987403682E+04  0.61381501884E+03  0.31223567022E+03  0.13824754831E+04  0.00000000000E+00 0. -1.
         22    1    1    2    0    0 -0.23042076437E+04 -0.12100442526E+04  0.12142996183E+04  0.28719511698E+04  0.00000000000E+00 0.  1.
<mgrwt>
<rscale>  0 0.52300582E+04</rscale>
<asrwt>0</asrwt>
<pdfrwt beam="1">  1        2 0.57474030E+00 0.52300582E+04</pdfrwt>
<pdfrwt beam="2">  1       -2 0.28161429E+00 0.52300582E+04</pdfrwt>
<totfact> 0.16106571E-02</totfact>
</mgrwt>
</event>
<event>
 6    1  0.9906445E-006  0.3890447E+04  0.7818608E-02  0.8027019E-01
          2   -1    0    0  501    0  0.00000000000E+00  0.00000000000E+00  0.23511417574E+04  0.23511417574E+04  0.00000000000E+00 0. -1.
         -2   -1    0    0    0  501 -0.00000000000E+00 -0.00000000000E+00 -0.16093856642E+04  0.16093856642E+04  0.00000000000E+00 0.  1.
         23    2    1    2    0    0 -0.35610502169E+03  0.43885929470E+03  0.22647872763E+04  0.23360175719E+04  0.91150547711E+02 0.  0.
         13    1    3    3    0    0 -0.28423307810E+03  0.39978039190E+03  0.19230335584E+04  0.19846084931E+04  0.00000000000E+00 0.  1.
        -13    1    3    3    0    0 -0.71871943582E+02  0.39078902799E+02  0.34175371791E+03  0.35140907874E+03  0.00000000000E+00 0. -1.
         22    1    1    2    0    0  0.35610502169E+03 -0.43885929470E+03 -0.15230311831E+04  0.16245098497E+04  0.00000000000E+00 0.  1.
<mgrwt>
<rscale>  0 0.38904467E+04</rscale>
<asrwt>0</asrwt>
<pdfrwt beam="1">  1        2 0.36171412E+00 0.38904467E+04</pdfrwt>
<pdfrwt beam="2">  1       -2 0.24759780E+00 0.38904467E+04</pdfrwt>
<totfact> 0.22437238E-01</totfact>
</mgrwt>
</event>
<event>
 6    1  0.9906445E-006  0.2332492E+04  0.7818608E-02  0.8465219E-01
          2   -1    0    0  501    0  0.00000000000E+00  0.00000000000E+00  0.13012508749E+04  0.13012508749E+04  0.00000000000E+00 0. -1.
         -2   -1    0    0    0  501 -0.00000000000E+00 -0.00000000000E+00 -0.10452479131E+04  0.10452479131E+04  0.00000000000E+00 0.  1.
         23    2    1    2    0    0 -0.51234514173E+03 -0.53627424952E+03 -0.77479317416E+03  0.10766057654E+04  0.93208886395E+02 0.  0.
         11    1    3    3    0    0 -0.47193047639E+03 -0.50885042468E+03 -0.68934281735E+03  0.97818231893E+03  0.00000000000E+00 0. -1.
        -11    1    3    3    0    0 -0.40414665341E+02 -0.27423824839E+02 -0.85450356808E+02  0.98423446506E+02  0.00000000000E+00 0.  1.
         22    1    1    2    0    0  0.51234514173E+03  0.53627424952E+03  0.10307961359E+04  0.12698930226E+04  0.00000000000E+00 0. -1.
<mgrwt>
<rscale>  0 0.23324920E+04</rscale>
<asrwt>0</asrwt>
<pdfrwt beam="1">  1        2 0.20019244E+00 0.23324920E+04</pdfrwt>
<pdfrwt beam="2">  1       -2 0.16080737E+00 0.23324920E+04</pdfrwt>
<totfact> 0.37080616E+00</totfact>
</mgrwt>
</event>
<event>
 6    1  0.9906445E-006  0.1290445E+04  0.7818608E-02  0.9037177E-01
         -1   -1    0    0    0  501 -0.00000000000E+00  0.00000000000E+00  0.26892388451E+03  0.26892388451E+03  0.00000000000E+00 0.  1.
          1   -1    0    0  501    0  0.00000000000E+00 -0.00000000000E+00 -0.15480669419E+04  0.15480669419E+04  0.00000000000E+00 0. -1.
         23    2    1    2    0    0 -0.57914945189E+03 -0.15850091712E+03 -0.32274130076E+03  0.68772515862E+03  0.90924794315E+02 0.  0.
         11    1    3    3    0    0 -0.53391462160E+03 -0.12222185049E+03 -0.30582946641E+03  0.62732341453E+03  0.00000000000E+00 0. -1.
        -11    1    3    3    0    0 -0.45234830295E+02 -0.36279066631E+02 -0.16911834347E+02  0.60401744084E+02  0.00000000000E+00 0.  1.
         22    1    1    2    0    0  0.57914945189E+03  0.15850091712E+03 -0.95640175664E+03  0.11292656678E+04  0.00000000000E+00 0. -1.
<mgrwt>
<rscale>  0 0.12904452E+04</rscale>
<asrwt>0</asrwt>
<pdfrwt beam="1">  1        1 0.23816414E+00 0.12904452E+04</pdfrwt>
<pdfrwt beam="2">  1       -1 0.41372906E-01 0.12904452E+04</pdfrwt>
<totfact> 0.34100789E+01</totfact>
</mgrwt>
</event>
<event>
 6    1  0.9906445E-006  0.4425307E+03  0.7818608E-02  0.1029973E+00
          1   -1    0    0  501    0  0.00000000000E+00  0.00000000000E+00  0.12415575252E+04  0.12415575252E+04  0.00000000000E+00 0.  1.
         -1   -1    0    0    0  501 -0.00000000000E+00 -0.00000000000E+00 -0.39433013719E+02  0.39433013719E+02  0.00000000000E+00 0. -1.
         23    2    1    2    0    0 -0.15395553150E+03  0.14335713757E+03  0.70383225630E+03  0.74011278365E+03  0.90185990814E+02 0.  0.
         11    1    3    3    0    0 -0.71174173570E+02  0.11734433080E+03  0.50191038256E+03  0.52033593676E+03  0.00000000000E+00 0.  1.
        -11    1    3    3    0    0 -0.82781357928E+02  0.26012806770E+02  0.20192187373E+03  0.21977684689E+03  0.00000000000E+00 0. -1.
         22    1    1    2    0    0  0.15395553150E+03 -0.14335713757E+03  0.49829225518E+03  0.54087775527E+03  0.00000000000E+00 0.  1.
<mgrwt>
<rscale>  0 0.44253070E+03</rscale>
<asrwt>0</asrwt>
<pdfrwt beam="1">  1        1 0.19100882E+00 0.44253070E+03</pdfrwt>
<pdfrwt beam="2">  1       -1 0.60666185E-02 0.44253070E+03</pdfrwt>
<totfact> 0.14014841E+03</totfact>
</mgrwt>
</event>
<event>
 6    1  0.9906445E-006  0.2133418E+04  0.7818608E-02  0.8546664E-01
          2   -1    0    0  501    0  0.00000000000E+00  0.00000000000E+00  0.10452685641E+04  0.10452685641E+04  0.00000000000E+00 0. -1.
         -2   -1    0    0    0  501 -0.00000000000E+00 -0.00000000000E+00 -0.10885889312E+04  0.10885889312E+04  0.00000000000E+00 0.  1.
         23    2    1    2    0    0 -0.10367248683E+04 -0.86413728816E+02 -0.24834034016E+03  0.10735278417E+04  0.92321812676E+02 0.  0.
         13    1    3    3    0    0 -0.43424790220E+03 -0.75902143776E+02 -0.81662815437E+02  0.44833156416E+03  0.00000000000E+00 0. -1.
        -13    1    3    3    0    0 -0.60247696615E+03 -0.10511585040E+02 -0.16667752472E+03  0.62519627750E+03  0.00000000000E+00 0.  1.
         22    1    1    2    0    0  0.10367248683E+04  0.86413728816E+02  0.20501997303E+03  0.10603296537E+04  0.00000000000E+00 0. -1.
<mgrwt>
<rscale>  0 0.21334177E+04</rscale>
<asrwt>0</asrwt>
<pdfrwt beam="1">  1        2 0.16081055E+00 0.21334177E+04</pdfrwt>
<pdfrwt beam="2">  1       -2 0.16747522E+00 0.21334177E+04</pdfrwt>
<totfact> 0.48122608E+00</totfact>
</mgrwt>
</event>
<event>
 6    1  0.9906445E-006  0.4636408E+04  0.7818608E-02  0.7887181E-01
         -2   -1    0    0    0  501 -0.00000000000E+00  0.00000000000E+00  0.16479854631E+04  0.16479854631E+04  0.00000000000E+00 0. -1.
          2   -1    0    0  501    0  0.00000000000E+00 -0.00000000000E+00 -0.32609938601E+04  0.32609938601E+04  0.00000000000E+00 0.  1.
         23    2    1    2    0    0  0.49030040691E+03  0.66784751638E+03 -0.30981829682E+04  0.32083446473E+04  0.91229806073E+02 0.  0.
         13    1    3    3    0    0  0.48742058767E+03  0.64388726614E+03 -0.29659345259E+04  0.30739123691E+04  0.00000000000E+00 0. -1.
        -13    1    3    3    0    0  0.28798192303E+01  0.23960250239E+02 -0.13224844226E+03  0.13443227823E+03  0.00000000000E+00 0.  1.
         22    1    1    2    0    0 -0.49030040691E+03 -0.66784751638E+03  0.14851745711E+04  0.17006346759E+04  0.00000000000E+00 0. -1.
<mgrwt>
<rscale>  0 0.46364083E+04</rscale>
<asrwt>0</asrwt>
<pdfrwt beam="1">  1        2 0.50169136E+00 0.46364083E+04</pdfrwt>
<pdfrwt beam="2">  1       -2 0.25353623E+00 0.46364083E+04</pdfrwt>
<totfact> 0.54099311E-02</totfact>
</mgrwt>
</event>
<event>
 6    1  0.9906445E-006  0.3165793E+03  0.7818608E-02  0.1077234E+00
         -2   -1    0    0    0  501 -0.00000000000E+00  0.00000000000E+00  0.47240267605E+02  0.47240267605E+02  0.00000000000E+00 0. -1.
          2   -1    0    0  501    0  0.00000000000E+00 -0.00000000000E+00 -0.53038686074E+03  0.53038686074E+03  0.00000000000E+00 0.  1.
         23    2    1    2    0    0 -0.37188317147E+02 -0.13435555104E+03 -0.33430835660E+03  0.37369771486E+03  0.91943024596E+02 0.  0.
         13    1    3    3    0    0  0.29424632207E+02 -0.54814834580E+02 -0.10572934844E+03  0.12267505937E+03  0.00000000000E+00 0. -1.
        -13    1    3    3    0    0 -0.66612949355E+02 -0.79540716465E+02 -0.22857900816E+03  0.25102265549E+03  0.00000000000E+00 0.  1.
         22    1    1    2    0    0  0.37188317147E+02  0.13435555104E+03 -0.14883823654E+03  0.20392941349E+03  0.00000000000E+00 0. -1.
<mgrwt>
<rscale>  0 0.31657932E+03</rscale>
<asrwt>0</asrwt>
<pdfrwt beam="1">  1        2 0.81597974E-01 0.31657932E+03</pdfrwt>
<pdfrwt beam="2">  1       -2 0.72677339E-02 0.31657932E+03</pdfrwt>
<totfact> 0.64026948E+03</totfact>
</mgrwt>
</event>
<event>
 6    1  0.9906445E-006  0.2119699E+04  0.7818608E-02  0.8552615E-01
          2   -1    0    0  501    0  0.00000000000E+00  0.00000000000E+00  0.17351183942E+04  0.17351183942E+04  0.00000000000E+00 0. -1.
         -2   -1    0    0    0  501 -0.00000000000E+00 -0.00000000000E+00 -0.64738015058E+03  0.64738015058E+03  0.00000000000E+00 0.  1.
         23    2    1    2    0    0 -0.63271906054E+03  0.55202690736E+02 -0.40569126469E+03  0.75962687920E+03  0.95219991215E+02 0.  0.
         13    1    3    3    0    0 -0.44404507797E+03  0.87275185895E+01 -0.31917524842E+03  0.54692324878E+03  0.00000000000E+00 0. -1.
        -13    1    3    3    0    0 -0.18867398257E+03  0.46475172147E+02 -0.86516016270E+02  0.21270363042E+03  0.00000000000E+00 0.  1.
         22    1    1    2    0    0  0.63271906054E+03 -0.55202690736E+02  0.14934295083E+04  0.16228716656E+04  0.00000000000E+00 0. -1.
<mgrwt>
<rscale>  0 0.21196992E+04</rscale>
<asrwt>0</asrwt>
<pdfrwt beam="1">  1        2 0.26694129E+00 0.21196992E+04</pdfrwt>
<pdfrwt beam="2">  1       -2 0.99596947E-01 0.21196992E+04</pdfrwt>
<totfact> 0.71939818E+00</totfact>
</mgrwt>
</event>
<event>
 6    1  0.9906445E-006  0.6842667E+03  0.7818608E-02  0.9744523E-01
          2   -1    0    0  501    0  0.00000000000E+00  0.00000000000E+00  0.67320553925E+03  0.67320553925E+03  0.00000000000E+00 0.  1.
         -2   -1    0    0    0  501 -0.00000000000E+00 -0.00000000000E+00 -0.17387741572E+03  0.17387741572E+03  0.00000000000E+00 0. -1.
         23    2    1    2    0    0 -0.49607343779E+02  0.17042658392E+03  0.60711591040E+03  0.63941900515E+03  0.93599286456E+02 0.  0.
         13    1    3    3    0    0  0.12113686057E+02  0.91242573079E+01  0.10856931906E+02  0.18651177757E+02  0.00000000000E+00 0.  1.
        -13    1    3    3    0    0 -0.61721029835E+02  0.16130232661E+03  0.59625897849E+03  0.62076782739E+03  0.00000000000E+00 0. -1.
         22    1    1    2    0    0  0.49607343779E+02 -0.17042658392E+03 -0.10778778686E+03  0.20766394983E+03  0.00000000000E+00 0. -1.
<mgrwt>
<rscale>  0 0.68426673E+03</rscale>
<asrwt>0</asrwt>
<pdfrwt beam="1">  1        2 0.10357008E+00 0.68426673E+03</pdfrwt>
<pdfrwt beam="2">  1       -2 0.26750372E-01 0.68426673E+03</pdfrwt>
<totfact> 0.54862864E+02</totfact>
</mgrwt>
</event>
<event>
 6    1  0.9906445E-006  0.3748681E+04  0.7818608E-02  0.8057258E-01
         -2   -1    0    0    0  501 -0.00000000000E+00  0.00000000000E+00  0.45293733718E+04  0.45293733718E+04  0.00000000000E+00 0.  1.
          2   -1    0    0  501    0  0.00000000000E+00 -0.00000000000E+00 -0.77563745602E+03  0.77563745602E+03  0.00000000000E+00 0. -1.
         23    2    1    2    0    0  0.17957512790E+04 -0.49468843354E+03  0.15962684881E+04  0.24547292621E+04  0.90461937475E+02 0.  0.
         13    1    3    3    0    0  0.10367071803E+04 -0.31516877334E+03  0.88278448638E+03  0.13976414357E+04  0.00000000000E+00 0. -1.
        -13    1    3    3    0    0  0.75904409869E+03 -0.17951966019E+03  0.71348400170E+03  0.10570878265E+04  0.00000000000E+00 0.  1.
         22    1    1    2    0    0 -0.17957512790E+04  0.49468843354E+03  0.21574674277E+04  0.28502815657E+04  0.00000000000E+00 0.  1.
<mgrwt>
<rscale>  0 0.37486806E+04</rscale>
<asrwt>0</asrwt>
<pdfrwt beam="1">  1        2 0.11932884E+00 0.37486806E+04</pdfrwt>
<pdfrwt beam="2">  1       -2 0.69682665E+00 0.37486806E+04</pdfrwt>
<totfact> 0.67289927E-03</totfact>
</mgrwt>
</event>
<event>
 6    1  0.9906445E-006  0.4945891E+04  0.7818608E-02  0.7836909E-01
         -2   -1    0    0    0  501 -0.00000000000E+00  0.00000000000E+00  0.25451575617E+04  0.25451575617E+04  0.00000000000E+00 0.  1.
          2   -1    0    0  501    0  0.00000000000E+00 -0.00000000000E+00 -0.24027826122E+04  0.24027826122E+04  0.00000000000E+00 0. -1.
         23    2    1    2    0    0 -0.22126335077E+03 -0.21851126476E+04 -0.10640504501E+04  0.24421195502E+04  0.89831975609E+02 0.  0.
         11    1    3    3    0    0 -0.13098265233E+03 -0.13361685909E+04 -0.69866233293E+03  0.15134834039E+04  0.00000000000E+00 0.  1.
        -11    1    3    3    0    0 -0.90280698449E+02 -0.84894405676E+03 -0.36538811713E+03  0.92863614627E+03  0.00000000000E+00 0. -1.
         22    1    1    2    0    0  0.22126335077E+03  0.21851126476E+04  0.12064253997E+04  0.25058206237E+04  0.00000000000E+00 0.  1.
<mgrwt>
<rscale>  0 0.49458914E+04</rscale>
<asrwt>0</asrwt>
<pdfrwt beam="1">  1        2 0.36965887E+00 0.49458914E+04</pdfrwt>
<pdfrwt beam="2">  1       -2 0.39156270E+00 0.49458914E+04</pdfrwt>
<totfact> 0.24412861E-02</totfact>
</mgrwt>
</event>
<event>
 6    1  0.9906445E-006  0.3554102E+04  0.7818608E-02  0.8101087E-01
         -2   -1    0    0    0  501 -0.00000000000E+00  0.00000000000E+00  0.12078605739E+04  0.12078605739E+04  0.00000000000E+00 0.  1.
          2   -1    0    0  501    0  0.00000000000E+00 -0.00000000000E+00 -0.26144654841E+04  0.26144654841E+04  0.00000000000E+00 0. -1.
         23    2    1    2    0    0 -0.18938827023E+03 -0.10807231762E+04 -0.22055641256E+04  0.24650617770E+04  0.90476250846E+02 0.  0.
         11    1    3    3    0    0 -0.13215385367E+03 -0.78731540550E+03 -0.16907161787E+04  0.18697196008E+04  0.00000000000E+00 0. -1.
        -11    1    3    3    0    0 -0.57234416560E+02 -0.29340777071E+03 -0.51484794691E+03  0.59534217622E+03  0.00000000000E+00 0.  1.
         22    1    1    2    0    0  0.18938827023E+03  0.10807231762E+04  0.79895921535E+03  0.13572642809E+04  0.00000000000E+00 0.  1.
<mgrwt>
<rscale>  0 0.35541017E+04</rscale>
<asrwt>0</asrwt>
<pdfrwt beam="1">  1        2 0.40222545E+00 0.35541017E+04</pdfrwt>
<pdfrwt beam="2">  1       -2 0.18582471E+00 0.35541017E+04</pdfrwt>
<totfact> 0.40371999E-01</totfact>
</mgrwt>
</event>
<event>
 6    1  0.9906445E-006  0.1649684E+04  0.7818608E-02  0.8790594E-01
          2   -1    0    0  501    0  0.00000000000E+00  0.00000000000E+00  0.13829324190E+04  0.13829324190E+04  0.00000000000E+00 0. -1.
         -2   -1    0    0    0  501 -0.00000000000E+00 -0.00000000000E+00 -0.49197211881E+03  0.49197211881E+03  0.00000000000E+00 0.  1.
         23    2    1    2    0    0  0.45388080306E+03  0.55163952999E+03 -0.15904548338E+02  0.72047056051E+03  0.92254644780E+02 0.  0.
         11    1    3    3    0    0  0.23115041374E+03  0.32147369527E+03 -0.46749544030E+02  0.39869959919E+03  0.00000000000E+00 0. -1.
        -11    1    3    3    0    0  0.22273038932E+03  0.23016583471E+03  0.30844995692E+02  0.32177096133E+03  0.00000000000E+00 0.  1.
         22    1    1    2    0    0 -0.45388080306E+03 -0.55163952999E+03  0.90686484848E+03  0.11544339773E+04  0.00000000000E+00 0. -1.
<mgrwt>
<rscale>  0 0.16496838E+04</rscale>
<asrwt>0</asrwt>
<pdfrwt beam="1">  1        2 0.21275883E+00 0.16496838E+04</pdfrwt>
<pdfrwt beam="2">  1       -2 0.75688019E-01 0.16496838E+04</pdfrwt>
<totfact> 0.22123827E+01</totfact>
</mgrwt>
</event>
<event>
 6    1  0.9906445E-006  0.3788645E+04  0.7818608E-02  0.8048596E-01
         -2   -1    0    0    0  501 -0.00000000000E+00  0.00000000000E+00  0.16840878595E+04  0.16840878595E+04  0.00000000000E+00 0.  1.
          2   -1    0    0  501    0  0.00000000000E+00 -0.00000000000E+00 -0.21308014800E+04  0.21308014800E+04  0.00000000000E+00 0. -1.
         23    2    1    2    0    0  0.20230371347E+03  0.14284933219E+04 -0.14578546540E+04  0.20530930537E+04  0.91273937427E+02 0.  0.
         11    1    3    3    0    0  0.13630775392E+03  0.74119405574E+03 -0.80818362724E+03  0.11050381022E+04  0.00000000000E+00 0.  1.
        -11    1    3    3    0    0  0.65995959551E+02  0.68729926619E+03 -0.64967102677E+03  0.94805495147E+03  0.00000000000E+00 0. -1.
         22    1    1    2    0    0 -0.20230371347E+03 -0.14284933219E+04  0.10111410335E+04  0.17617962859E+04  0.00000000000E+00 0.  1.
<mgrwt>
<rscale>  0 0.37886446E+04</rscale>
<asrwt>0</asrwt>
<pdfrwt beam="1">  1        2 0.32781561E+00 0.37886446E+04</pdfrwt>
<pdfrwt beam="2">  1       -2 0.25909044E+00 0.37886446E+04</pdfrwt>
<totfact> 0.25614552E-01</totfact>
</mgrwt>
</event>
<event>
 6    1  0.9906445E-006  0.2950816E+04  0.7818608E-02  0.8257917E-01
         -2   -1    0    0    0  501 -0.00000000000E+00  0.00000000000E+00  0.13501053018E+04  0.13501053018E+04  0.00000000000E+00 0.  1.
          2   -1    0    0  501    0  0.00000000000E+00 -0.00000000000E+00 -0.16123395536E+04  0.16123395536E+04  0.00000000000E+00 0. -1.
         23    2    1    2    0    0  0.10999619392E+04 -0.32158609340E+02 -0.11157777789E+04  0.15697901974E+04  0.91273041093E+02 0.  0.
         11    1    3    3    0    0  0.35789523570E+03 -0.51868328044E+02 -0.38120619979E+03  0.52544979774E+03  0.00000000000E+00 0. -1.
        -11    1    3    3    0    0  0.74206670353E+03  0.19709718705E+02 -0.73457157907E+03  0.10443403996E+04  0.00000000000E+00 0.  1.
         22    1    1    2    0    0 -0.10999619392E+04  0.32158609340E+02  0.85354352702E+03  0.13926546580E+04  0.00000000000E+00 0.  1.
<mgrwt>
<rscale>  0 0.29508156E+04</rscale>
<asrwt>0</asrwt>
<pdfrwt beam="1">  1        2 0.24805224E+00 0.29508156E+04</pdfrwt>
<pdfrwt beam="2">  1       -2 0.20770851E+00 0.29508156E+04</pdfrwt>
<totfact> 0.11177394E+00</totfact>
</mgrwt>
</event>
<event>
 6    1  0.9906445E-006  0.2386373E+04  0.7818608E-02  0.8444623E-01
         -1   -1    0    0    0  501 -0.00000000000E+00  0.00000000000E+00  0.92535929962E+03  0.92535929962E+03  0.00000000000E+00 0.  1.
          1   -1    0    0  501    0  0.00000000000E+00 -0.00000000000E+00 -0.15385313618E+04  0.15385313618E+04  0.00000000000E+00 0. -1.
         23    2    1    2    0    0 -0.11830723450E+04 -0.26972495777E+02 -0.45168776800E+03  0.12695436155E+04  0.85623961235E+02 0.  0.
         13    1    3    3    0    0 -0.81217950945E+03 -0.58177065304E+02 -0.31237436036E+03  0.87212262183E+03  0.00000000000E+00 0.  1.
        -13    1    3    3    0    0 -0.37089283555E+03  0.31204569527E+02 -0.13931340763E+03  0.39742099362E+03  0.00000000000E+00 0. -1.
         22    1    1    2    0    0  0.11830723450E+04  0.26972495777E+02 -0.16148429422E+03  0.11943470460E+04  0.00000000000E+00 0.  1.
<mgrwt>
<rscale>  0 0.23863732E+04</rscale>
<asrwt>0</asrwt>
<pdfrwt beam="1">  1        1 0.23669713E+00 0.23863732E+04</pdfrwt>
<pdfrwt beam="2">  1       -1 0.14236297E+00 0.23863732E+04</pdfrwt>
<totfact> 0.22139216E+00</totfact>
</mgrwt>
</event>
<event>
 6    1  0.9906445E-006  0.6936296E+03  0.7818608E-02  0.9728189E-01
         -2   -1    0    0    0  501 -0.00000000000E+00  0.00000000000E+00  0.70513107391E+02  0.70513107391E+02  0.00000000000E+00 0.  1.
          2   -1    0    0  501    0  0.00000000000E+00 -0.00000000000E+00 -0.17057895254E+04  0.17057895254E+04  0.00000000000E+00 0. -1.
         23    2    1    2    0    0  0.12440349945E+03 -0.22171858406E+03 -0.14132482486E+04  0.14387646805E+04  0.90209936655E+02 0.  0.
         13    1    3    3    0    0  0.26324488809E+02 -0.30635241025E+02 -0.45257024700E+03  0.45436915077E+03  0.00000000000E+00 0. -1.
        -13    1    3    3    0    0  0.98079010640E+02 -0.19108334303E+03 -0.96067800156E+03  0.98439552975E+03  0.00000000000E+00 0.  1.
         22    1    1    2    0    0 -0.12440349945E+03  0.22171858406E+03 -0.22202816944E+03  0.33753795226E+03  0.00000000000E+00 0.  1.
<mgrwt>
<rscale>  0 0.69362964E+03</rscale>
<asrwt>0</asrwt>
<pdfrwt beam="1">  1        2 0.26242915E+00 0.69362964E+03</pdfrwt>
<pdfrwt beam="2">  1       -2 0.10848171E-01 0.69362964E+03</pdfrwt>
<totfact> 0.59661501E+02</totfact>
</mgrwt>
</event>
<event>
 6    1  0.9906445E-006  0.1565750E+04  0.7818608E-02  0.8841870E-01
          1   -1    0    0  501    0  0.00000000000E+00  0.00000000000E+00  0.20955713344E+04  0.20955713344E+04  0.00000000000E+00 0. -1.
         -1   -1    0    0    0  501 -0.00000000000E+00 -0.00000000000E+00 -0.29247054417E+03  0.29247054417E+03  0.00000000000E+00 0.  1.
         23    2    1    2    0    0 -0.49814825536E+03  0.41364683530E+03  0.15680550911E+04  0.16992009177E+04  0.96081222175E+02 0.  0.
         11    1    3    3    0    0 -0.16891926796E+03  0.19654537544E+03  0.66970543827E+03  0.71810109159E+03  0.00000000000E+00 0. -1.
        -11    1    3    3    0    0 -0.32922898740E+03  0.21710145986E+03  0.89834965287E+03  0.98109982613E+03  0.00000000000E+00 0.  1.
         22    1    1    2    0    0  0.49814825536E+03 -0.41364683530E+03  0.23504569910E+03  0.68884096085E+03  0.00000000000E+00 0.  1.
<mgrwt>
<rscale>  0 0.15657495E+04</rscale>
<asrwt>0</asrwt>
<pdfrwt beam="1">  1        1 0.32239558E+00 0.15657495E+04</pdfrwt>
<pdfrwt beam="2">  1       -1 0.44995470E-01 0.15657495E+04</pdfrwt>
<totfact> 0.12103877E+01</totfact>
</mgrwt>
</event>
<event>
 6    1  0.9906445E-006  0.1621548E+04  0.7818608E-02  0.8807418E-01
         -1   -1    0    0    0  501 -0.00000000000E+00  0.00000000000E+00  0.21019022321E+03  0.21019022321E+03  0.00000000000E+00 0.  1.
          1   -1    0    0  501    0  0.00000000000E+00 -0.00000000000E+00 -0.31274274353E+04  0.31274274353E+04  0.00000000000E+00 0. -1.
         23    2    1    2    0    0 -0.50117915929E+03 -0.46506142186E+03 -0.23508722334E+04  0.24497933713E+04  0.86166284489E+02 0.  0.
         13    1    3    3    0    0 -0.12670003303E+03 -0.14697142988E+03 -0.78597672478E+03  0.80957576017E+03  0.00000000000E+00 0. -1.
        -13    1    3    3    0    0 -0.37447912627E+03 -0.31808999199E+03 -0.15648955086E+04  0.16402176112E+04  0.00000000000E+00 0.  1.
         22    1    1    2    0    0  0.50117915929E+03  0.46506142186E+03 -0.56636497865E+03  0.88782428715E+03  0.00000000000E+00 0.  1.
<mgrwt>
<rscale>  0 0.16215482E+04</rscale>
<asrwt>0</asrwt>
<pdfrwt beam="1">  1        1 0.48114261E+00 0.16215482E+04</pdfrwt>
<pdfrwt beam="2">  1       -1 0.32336962E-01 0.16215482E+04</pdfrwt>
<totfact> 0.41463059E+00</totfact>
</mgrwt>
</event>
<event>
 6    1  0.9906445E-006  0.2449102E+04  0.7818608E-02  0.8421346E-01
         -2   -1    0    0    0  501 -0.00000000000E+00  0.00000000000E+00  0.11275241118E+04  0.11275241118E+04  0.00000000000E+00 0.  1.
          2   -1    0    0  501    0  0.00000000000E+00 -0.00000000000E+00 -0.13299273272E+04  0.13299273272E+04  0.00000000000E+00 0. -1.
         23    2    1    2    0    0  0.99039091548E+03  0.71514946654E+03 -0.44077390215E+02  0.12256316503E+04  0.88978654911E+02 0.  0.
         13    1    3    3    0    0  0.51740272064E+03  0.33633519915E+03 -0.54907593766E+02  0.61954966336E+03  0.00000000000E+00 0. -1.
        -13    1    3    3    0    0  0.47298819484E+03  0.37881426739E+03  0.10830203551E+02  0.60608198698E+03  0.00000000000E+00 0.  1.
         22    1    1    2    0    0 -0.99039091548E+03 -0.71514946654E+03 -0.15832582522E+03  0.12318197887E+04  0.00000000000E+00 0. -1.
<mgrwt>
<rscale>  0 0.24491020E+04</rscale>
<asrwt>0</asrwt>
<pdfrwt beam="1">  1        2 0.20460420E+00 0.24491020E+04</pdfrwt>
<pdfrwt beam="2">  1       -2 0.17346525E+00 0.24491020E+04</pdfrwt>
<totfact> 0.28653518E+00</totfact>
</mgrwt>
</event>
<event>
 6    1  0.9906445E-006  0.2173085E+04  0.7818608E-02  0.8529715E-01
         -2   -1    0    0    0  501 -0.00000000000E+00  0.00000000000E+00  0.78718761790E+03  0.78718761790E+03  0.00000000000E+00 0.  1.
          2   -1    0    0  501    0  0.00000000000E+00 -0.00000000000E+00 -0.14997375037E+04  0.14997375037E+04  0.00000000000E+00 0. -1.
         23    2    1    2    0    0  0.20098928852E+03 -0.10412240428E+04 -0.11663060757E+03  0.10705107237E+04  0.88579397085E+02 0.  0.
         13    1    3    3    0    0  0.10899251106E+03 -0.76997190323E+03 -0.90373134332E+02  0.78288147420E+03  0.00000000000E+00 0.  1.
        -13    1    3    3    0    0  0.91996777459E+02 -0.27125213953E+03 -0.26257473242E+02  0.28762924949E+03  0.00000000000E+00 0. -1.
         22    1    1    2    0    0 -0.20098928852E+03  0.10412240428E+04 -0.59591927826E+03  0.12164143979E+04  0.00000000000E+00 0. -1.
<mgrwt>
<rscale>  0 0.21730852E+04</rscale>
<asrwt>0</asrwt>
<pdfrwt beam="1">  1        2 0.23072885E+00 0.21730852E+04</pdfrwt>
<pdfrwt beam="2">  1       -2 0.12110579E+00 0.21730852E+04</pdfrwt>
<totfact> 0.60382609E+00</totfact>
</mgrwt>
</event>
<event>
 6    1  0.9906445E-006  0.2754460E+04  0.7818608E-02  0.8317548E-01
         -2   -1    0    0    0  501 -0.00000000000E+00  0.00000000000E+00  0.17936239724E+04  0.17936239724E+04  0.00000000000E+00 0. -1.
          2   -1    0    0  501    0  0.00000000000E+00 -0.00000000000E+00 -0.10575028393E+04  0.10575028393E+04  0.00000000000E+00 0.  1.
         23    2    1    2    0    0  0.87413699949E+03  0.92055381589E+03 -0.18030084146E+03  0.12854435560E+04  0.91224559962E+02 0.  0.
         11    1    3    3    0    0  0.34727517118E+03  0.40653417471E+03 -0.40366811477E+02  0.53618985369E+03  0.00000000000E+00 0. -1.
        -11    1    3    3    0    0  0.52686182831E+03  0.51401964118E+03 -0.13993402999E+03  0.74925370229E+03  0.00000000000E+00 0.  1.
         22    1    1    2    0    0 -0.87413699949E+03 -0.92055381589E+03  0.91642197450E+03  0.15656832557E+04  0.00000000000E+00 0. -1.
<mgrwt>
<rscale>  0 0.27544600E+04</rscale>
<asrwt>0</asrwt>
<pdfrwt beam="1">  1        2 0.16269275E+00 0.27544600E+04</pdfrwt>
<pdfrwt beam="2">  1       -2 0.27594215E+00 0.27544600E+04</pdfrwt>
<totfact> 0.90161530E-01</totfact>
</mgrwt>
</event>
<event>
 6    1  0.9906445E-006  0.5187057E+04  0.7818608E-02  0.7800282E-01
          2   -1    0    0  501    0  0.00000000000E+00  0.00000000000E+00  0.31521177487E+04  0.31521177487E+04  0.00000000000E+00 0. -1.
         -2   -1    0    0    0  501 -0.00000000000E+00 -0.00000000000E+00 -0.21339273910E+04  0.21339273910E+04  0.00000000000E+00 0.  1.
         23    2    1    2    0    0 -0.42489448076E+03 -0.25044467061E+04 -0.19681138417E+02  0.25419668125E+04  0.91756772288E+02 0.  0.
         13    1    3    3    0    0 -0.93236177131E+02 -0.36973714916E+03 -0.15915636319E+02  0.38164361867E+03  0.00000000000E+00 0.  1.
        -13    1    3    3    0    0 -0.33165830362E+03 -0.21347095569E+04 -0.37655020979E+01  0.21603231938E+04  0.00000000000E+00 0. -1.
         22    1    1    2    0    0  0.42489448076E+03  0.25044467061E+04  0.10378714961E+04  0.27440783272E+04  0.00000000000E+00 0.  1.
<mgrwt>
<rscale>  0 0.51870571E+04</rscale>
<asrwt>0</asrwt>
<pdfrwt beam="1">  1        2 0.48494119E+00 0.51870571E+04</pdfrwt>
<pdfrwt beam="2">  1       -2 0.32829652E+00 0.51870571E+04</pdfrwt>
<totfact> 0.21238622E-02</totfact>
</mgrwt>
</event>
<event>
 6    1  0.9906445E-006  0.1106475E+04  0.7818608E-02  0.9198903E-01
         -2   -1    0    0    0  501 -0.00000000000E+00  0.00000000000E+00  0.21602042157E+03  0.21602042157E+03  0.00000000000E+00 0.  1.
          2   -1    0    0  501    0  0.00000000000E+00 -0.00000000000E+00 -0.14168657741E+04  0.14168657741E+04  0.00000000000E+00 0. -1.
         23    2    1    2    0    0  0.28498999645E+03  0.24232507072E+02  0.86277504127E+02  0.31436742045E+03  0.97859873534E+02 0.  0.
         13    1    3    3    0    0  0.12701267439E+03  0.59664532150E+02  0.43333112392E+02  0.14686672354E+03  0.00000000000E+00 0.  1.
        -13    1    3    3    0    0  0.15797732206E+03 -0.35432025078E+02  0.42944391735E+02  0.16750069691E+03  0.00000000000E+00 0. -1.
         22    1    1    2    0    0 -0.28498999645E+03 -0.24232507072E+02 -0.12871228566E+04  0.13185187752E+04  0.00000000000E+00 0. -1.
<mgrwt>
<rscale>  0 0.11064754E+04</rscale>
<asrwt>0</asrwt>
<pdfrwt beam="1">  1        2 0.21797936E+00 0.11064754E+04</pdfrwt>
<pdfrwt beam="2">  1       -2 0.33233910E-01 0.11064754E+04</pdfrwt>
<totfact> 0.11867013E+02</totfact>
</mgrwt>
</event>
<event>
 6    1  0.9906445E-006  0.3072520E+04  0.7818608E-02  0.8223320E-01
          2   -1    0    0  501    0  0.00000000000E+00  0.00000000000E+00  0.12102100946E+04  0.12102100946E+04  0.00000000000E+00 0. -1.
         -2   -1    0    0    0  501 -0.00000000000E+00 -0.00000000000E+00 -0.19501534680E+04  0.19501534680E+04  0.00000000000E+00 0.  1.
         23    2    1    2    0    0 -0.18038434768E+03  0.15242543708E+04 -0.35120016208E+03  0.15770091537E+04  0.87900041162E+02 0.  0.
         11    1    3    3    0    0 -0.41319373776E+02  0.71110240219E+03 -0.15189009749E+03  0.72831622168E+03  0.00000000000E+00 0. -1.
        -11    1    3    3    0    0 -0.13906497390E+03  0.81315196864E+03 -0.19931006459E+03  0.84869293205E+03  0.00000000000E+00 0.  1.
         22    1    1    2    0    0  0.18038434768E+03 -0.15242543708E+04 -0.38874321124E+03  0.15833544089E+04  0.00000000000E+00 0. -1.
<mgrwt>
<rscale>  0 0.30725204E+04</rscale>
<asrwt>0</asrwt>
<pdfrwt beam="1">  1        2 0.18618617E+00 0.30725204E+04</pdfrwt>
<pdfrwt beam="2">  1       -2 0.30002361E+00 0.30725204E+04</pdfrwt>
<totfact> 0.50491083E-01</totfact>
</mgrwt>
</event>
<event>
 6    1  0.9906445E-006  0.2316346E+04  0.7818608E-02  0.8471504E-01
         -2   -1    0    0    0  501 -0.00000000000E+00  0.00000000000E+00  0.10103027249E+04  0.10103027249E+04  0.00000000000E+00 0.  1.
          2   -1    0    0  501    0  0.00000000000E+00 -0.00000000000E+00 -0.13276860238E+04  0.13276860238E+04  0.00000000000E+00 0. -1.
         23    2    1    2    0    0  0.89963460438E+03 -0.71771198806E+03 -0.44892348518E+02  0.11553204786E+04  0.91088781350E+02 0.  0.
         13    1    3    3    0    0  0.81959141419E+03 -0.63398684375E+03 -0.17656844087E+02  0.10363306270E+04  0.00000000000E+00 0. -1.
        -13    1    3    3    0    0  0.80043190184E+02 -0.83725144306E+02 -0.27235504430E+02  0.11898985161E+03  0.00000000000E+00 0.  1.
         22    1    1    2    0    0 -0.89963460438E+03  0.71771198806E+03 -0.27249095035E+03  0.11826682701E+04  0.00000000000E+00 0. -1.
<mgrwt>
<rscale>  0 0.23163461E+04</rscale>
<asrwt>0</asrwt>
<pdfrwt beam="1">  1        2 0.20425939E+00 0.23163461E+04</pdfrwt>
<pdfrwt beam="2">  1       -2 0.15543119E+00 0.23163461E+04</pdfrwt>
<totfact> 0.39302601E+00</totfact>
</mgrwt>
</event>
<event>
 6    1  0.9906445E-006  0.3095727E+04  0.7818608E-02  0.8216911E-01
         -2   -1    0    0    0  501 -0.00000000000E+00  0.00000000000E+00  0.13463426414E+04  0.13463426414E+04  0.00000000000E+00 0.  1.
          2   -1    0    0  501    0  0.00000000000E+00 -0.00000000000E+00 -0.17795483490E+04  0.17795483490E+04  0.00000000000E+00 0. -1.
         23    2    1    2    0    0 -0.49541189890E+03  0.14080427677E+04  0.19239847266E+03  0.15074355614E+04  0.85600316867E+02 0.  0.
         11    1    3    3    0    0 -0.16028566023E+03  0.56386105451E+03  0.96981375174E+02  0.59416846837E+03  0.00000000000E+00 0. -1.
        -11    1    3    3    0    0 -0.33512623866E+03  0.84418171323E+03  0.95417097486E+02  0.91326709307E+03  0.00000000000E+00 0.  1.
         22    1    1    2    0    0  0.49541189890E+03 -0.14080427677E+04 -0.62560418024E+03  0.16184554290E+04  0.00000000000E+00 0. -1.
<mgrwt>
<rscale>  0 0.30957273E+04</rscale>
<asrwt>0</asrwt>
<pdfrwt beam="1">  1        2 0.27377667E+00 0.30957273E+04</pdfrwt>
<pdfrwt beam="2">  1       -2 0.20712964E+00 0.30957273E+04</pdfrwt>
<totfact> 0.89904781E-01</totfact>
</mgrwt>
</event>
<event>
 6    1  0.9906445E-006  0.2664891E+04  0.7818608E-02  0.8346487E-01
         -1   -1    0    0    0  501 -0.00000000000E+00  0.00000000000E+00  0.95805260164E+03  0.95805260164E+03  0.00000000000E+00 0.  1.
          1   -1    0    0  501    0  0.00000000000E+00 -0.00000000000E+00 -0.18531454174E+04  0.18531454174E+04  0.00000000000E+00 0. -1.
         23    2    1    2    0    0 -0.29346410956E+03 -0.32060908592E+02 -0.18166315535E+04  0.18435293099E+04  0.10630630235E+03 0.  0.
         11    1    3    3    0    0 -0.21382201668E+03 -0.54372997027E+02 -0.10825793878E+04  0.11048322988E+04  0.00000000000E+00 0. -1.
        -11    1    3    3    0    0 -0.79642092878E+02  0.22312088436E+02 -0.73405216568E+03  0.73869701109E+03  0.00000000000E+00 0.  1.
         22    1    1    2    0    0  0.29346410956E+03  0.32060908592E+02  0.92153873773E+03  0.96766870911E+03  0.00000000000E+00 0.  1.
<mgrwt>
<rscale>  0 0.26648908E+04</rscale>
<asrwt>0</asrwt>
<pdfrwt beam="1">  1        1 0.28509929E+00 0.26648908E+04</pdfrwt>
<pdfrwt beam="2">  1       -1 0.14739271E+00 0.26648908E+04</pdfrwt>
<totfact> 0.12007868E+00</totfact>
</mgrwt>
</event>
<event>
 6    1  0.9906445E-006  0.3826371E+03  0.7818608E-02  0.1049963E+00
          1   -1    0    0  501    0  0.00000000000E+00  0.00000000000E+00  0.42092792621E+02  0.42092792621E+02  0.00000000000E+00 0. -1.
         -1   -1    0    0    0  501 -0.00000000000E+00 -0.00000000000E+00 -0.86957388162E+03  0.86957388162E+03  0.00000000000E+00 0.  1.
         23    2    1    2    0    0 -0.67814041023E+02  0.16354083492E+03 -0.51849212682E+03  0.55555078356E+03  0.91968683219E+02 0.  0.
         11    1    3    3    0    0 -0.71114547243E+02  0.89060034060E+02 -0.21854356424E+03  0.24647567419E+03  0.00000000000E+00 0.  1.
        -11    1    3    3    0    0  0.33005062205E+01  0.74480800862E+02 -0.29994856259E+03  0.30907510938E+03  0.00000000000E+00 0. -1.
         22    1    1    2    0    0  0.67814041023E+02 -0.16354083492E+03 -0.30898896218E+03  0.35611589068E+03  0.00000000000E+00 0. -1.
<mgrwt>
<rscale>  0 0.38263713E+03</rscale>
<asrwt>0</asrwt>
<pdfrwt beam="1">  1        1 0.64758147E-02 0.38263713E+03</pdfrwt>
<pdfrwt beam="2">  1       -1 0.13378059E+00 0.38263713E+03</pdfrwt>
<totfact> 0.59008190E+02</totfact>
</mgrwt>
</event>
<event>
 6    1  0.9906445E-006  0.8256389E+03  0.7818608E-02  0.9523630E-01
         -1   -1    0    0    0  501 -0.00000000000E+00  0.00000000000E+00  0.14027092940E+03  0.14027092940E+03  0.00000000000E+00 0.  1.
          1   -1    0    0  501    0  0.00000000000E+00 -0.00000000000E+00 -0.12149337238E+04  0.12149337238E+04  0.00000000000E+00 0. -1.
         23    2    1    2    0    0  0.11579909897E+03 -0.12289678349E+03 -0.11532668894E+04  0.11689476950E+04  0.88888383996E+02 0.  0.
         11    1    3    3    0    0  0.25186071334E+02 -0.83085946925E+02 -0.40780060030E+03  0.41693997454E+03  0.00000000000E+00 0.  1.
        -11    1    3    3    0    0  0.90613027640E+02 -0.39810836562E+02 -0.74546628912E+03  0.75200772051E+03  0.00000000000E+00 0. -1.
         22    1    1    2    0    0 -0.11579909897E+03  0.12289678349E+03  0.78604094997E+02  0.18625695817E+03  0.00000000000E+00 0.  1.
<mgrwt>
<rscale>  0 0.82563886E+03</rscale>
<asrwt>0</asrwt>
<pdfrwt beam="1">  1        1 0.18691288E+00 0.82563886E+03</pdfrwt>
<pdfrwt beam="2">  1       -1 0.21580143E-01 0.82563886E+03</pdfrwt>
<totfact> 0.18943104E+02</totfact>
</mgrwt>
</event>
<event>
 6    1  0.9906445E-006  0.1758499E+04  0.7818608E-02  0.8728686E-01
          1   -1    0    0  501    0  0.00000000000E+00  0.00000000000E+00  0.72031753453E+03  0.72031753453E+03  0.00000000000E+00 0. -1.
         -1   -1    0    0    0  501 -0.00000000000E+00 -0.00000000000E+00 -0.10732483556E+04  0.10732483556E+04  0.00000000000E+00 0.  1.
         23    2    1    2    0    0  0.63690619643E+03  0.59170276120E+03 -0.60065523326E+02  0.87621549729E+03  0.91564567014E+02 0.  0.
         11    1    3    3    0    0  0.24744530985E+03  0.27221687854E+03  0.76111243020E+01  0.36795263220E+03  0.00000000000E+00 0. -1.
        -11    1    3    3    0    0  0.38946088658E+03  0.31948588267E+03 -0.67676647628E+02  0.50826286509E+03  0.00000000000E+00 0.  1.
         22    1    1    2    0    0 -0.63690619643E+03 -0.59170276120E+03 -0.29286529778E+03  0.91735039288E+03  0.00000000000E+00 0. -1.
<mgrwt>
<rscale>  0 0.17584989E+04</rscale>
<asrwt>0</asrwt>
<pdfrwt beam="1">  1        1 0.11081808E+00 0.17584989E+04</pdfrwt>
<pdfrwt beam="2">  1       -1 0.16511513E+00 0.17584989E+04</pdfrwt>
<totfact> 0.66040453E+00</totfact>
</mgrwt>
</event>
<event>
 6    1  0.9906445E-006  0.4728875E+04  0.7818608E-02  0.7871748E-01
          2   -1    0    0  501    0  0.00000000000E+00  0.00000000000E+00  0.42308045997E+04  0.42308045997E+04  0.00000000000E+00 0. -1.
         -2   -1    0    0    0  501 -0.00000000000E+00 -0.00000000000E+00 -0.13213953096E+04  0.13213953096E+04  0.00000000000E+00 0.  1.
         23    2    1    2    0    0  0.10446569272E+02  0.66319502501E+03  0.41188001036E+04  0.41728656815E+04  0.91416246899E+02 0.  0.
         11    1    3    3    0    0  0.22244254764E+02  0.71047881309E+02  0.35187042323E+03  0.35966012157E+03  0.00000000000E+00 0. -1.
        -11    1    3    3    0    0 -0.11797685492E+02  0.59214714371E+03  0.37669296804E+04  0.38132055599E+04  0.00000000000E+00 0.  1.
         22    1    1    2    0    0 -0.10446569272E+02 -0.66319502501E+03 -0.12093908136E+04  0.13793342278E+04  0.00000000000E+00 0.  1.
<mgrwt>
<rscale>  0 0.47288753E+04</rscale>
<asrwt>0</asrwt>
<pdfrwt beam="1">  1        2 0.65089301E+00 0.47288753E+04</pdfrwt>
<pdfrwt beam="2">  1       -2 0.20329159E+00 0.47288753E+04</pdfrwt>
<totfact> 0.20446921E-02</totfact>
</mgrwt>
</event>
<event>
 6    1  0.9906445E-006  0.3708440E+04  0.7818608E-02  0.8066094E-01
         -2   -1    0    0    0  501 -0.00000000000E+00  0.00000000000E+00  0.19107575239E+04  0.19107575239E+04  0.00000000000E+00 0.  1.
          2   -1    0    0  501    0  0.00000000000E+00 -0.00000000000E+00 -0.17993552216E+04  0.17993552216E+04  0.00000000000E+00 0. -1.
         23    2    1    2    0    0 -0.98506165788E+03 -0.74651606168E+01  0.16260086674E+04  0.19033380944E+04  0.91594303666E+02 0.  0.
         13    1    3    3    0    0 -0.65294653305E+03  0.20995422871E+02  0.10084424227E+04  0.12015557011E+04  0.00000000000E+00 0.  1.
        -13    1    3    3    0    0 -0.33211512483E+03 -0.28460583488E+02  0.61756624472E+03  0.70178239332E+03  0.00000000000E+00 0. -1.
         22    1    1    2    0    0  0.98506165788E+03  0.74651606168E+01 -0.15146063652E+04  0.18067746511E+04  0.00000000000E+00 0. -1.
<mgrwt>
<rscale>  0 0.37084398E+04</rscale>
<asrwt>0</asrwt>
<pdfrwt beam="1">  1        2 0.27682388E+00 0.37084398E+04</pdfrwt>
<pdfrwt beam="2">  1       -2 0.29396270E+00 0.37084398E+04</pdfrwt>
<totfact> 0.24141600E-01</totfact>
</mgrwt>
</event>
<event>
 6    1  0.9906445E-006  0.4090693E+04  0.7818608E-02  0.7986497E-01
          2   -1    0    0  501    0  0.00000000000E+00  0.00000000000E+00  0.30404899931E+04  0.30404899931E+04  0.00000000000E+00 0. -1.
         -2   -1    0    0    0  501 -0.00000000000E+00 -0.00000000000E+00 -0.13759103211E+04  0.13759103211E+04  0.00000000000E+00 0.  1.
         23    2    1    2    0    0 -0.16552443211E+03  0.14944071323E+04 -0.66269833876E+03  0.16456830868E+04  0.91938671438E+02 0.  0.
         13    1    3    3    0    0 -0.79688346622E+02  0.36185480783E+03 -0.16737980028E+03  0.40657733837E+03  0.00000000000E+00 0.  1.
        -13    1    3    3    0    0 -0.85836085491E+02  0.11325523244E+04 -0.49531853849E+03  0.12391057484E+04  0.00000000000E+00 0. -1.
         22    1    1    2    0    0  0.16552443211E+03 -0.14944071323E+04  0.23272780108E+04  0.27707172274E+04  0.00000000000E+00 0. -1.
<mgrwt>
<rscale>  0 0.40906926E+04</rscale>
<asrwt>0</asrwt>
<pdfrwt beam="1">  1        2 0.46776769E+00 0.40906926E+04</pdfrwt>
<pdfrwt beam="2">  1       -2 0.21167851E+00 0.40906926E+04</pdfrwt>
<totfact> 0.14352384E-01</totfact>
</mgrwt>
</event>
<event>
 6    1  0.9906445E-006  0.2588434E+04  0.7818608E-02  0.8372141E-01
         -2   -1    0    0    0  501 -0.00000000000E+00  0.00000000000E+00  0.61517752347E+03  0.61517752347E+03  0.00000000000E+00 0.  1.
          2   -1    0    0  501    0  0.00000000000E+00 -0.00000000000E+00 -0.27227874741E+04  0.27227874741E+04  0.00000000000E+00 0. -1.
         23    2    1    2    0    0  0.10262682271E+04 -0.43795241450E+03 -0.21353553464E+03  0.11396595855E+04  0.90541454436E+02 0.  0.
         11    1    3    3    0    0  0.42731295160E+03 -0.23098919364E+03 -0.89085131880E+02  0.49385071317E+03  0.00000000000E+00 0. -1.
        -11    1    3    3    0    0  0.59895527551E+03 -0.20696322087E+03 -0.12445040276E+03  0.64580887235E+03  0.00000000000E+00 0.  1.
         22    1    1    2    0    0 -0.10262682271E+04  0.43795241450E+03 -0.18940744160E+04  0.21983054121E+04  0.00000000000E+00 0. -1.
<mgrwt>
<rscale>  0 0.25884340E+04</rscale>
<asrwt>0</asrwt>
<pdfrwt beam="1">  1        2 0.41889037E+00 0.25884340E+04</pdfrwt>
<pdfrwt beam="2">  1       -2 0.94642699E-01 0.25884340E+04</pdfrwt>
<totfact> 0.21420875E+00</totfact>
</mgrwt>
</event>
<event>
 6    1  0.9906445E-006  0.1835533E+04  0.7818608E-02  0.8687628E-01
         -2   -1    0    0    0  501 -0.00000000000E+00  0.00000000000E+00  0.59265266988E+03  0.59265266988E+03  0.00000000000E+00 0.  1.
          2   -1    0    0  501    0  0.00000000000E+00 -0.00000000000E+00 -0.14212299206E+04  0.14212299206E+04  0.00000000000E+00 0. -1.
         23    2    1    2    0    0  0.40160291735E+02 -0.37538090897E+03  0.50101623025E+03  0.63173118759E+03  0.74453707427E+02 0.  0.
         13    1    3    3    0    0  0.59043575219E+02 -0.29726835132E+03  0.37337395180E+03  0.48089783151E+03  0.00000000000E+00 0. -1.
        -13    1    3    3    0    0 -0.18883283485E+02 -0.78112557651E+02  0.12764227845E+03  0.15083335608E+03  0.00000000000E+00 0.  1.
         22    1    1    2    0    0 -0.40160291735E+02  0.37538090897E+03 -0.13295934810E+04  0.13821514029E+04  0.00000000000E+00 0. -1.
<mgrwt>
<rscale>  0 0.18355334E+04</rscale>
<asrwt>0</asrwt>
<pdfrwt beam="1">  1        2 0.21865076E+00 0.18355334E+04</pdfrwt>
<pdfrwt beam="2">  1       -2 0.91177334E-01 0.18355334E+04</pdfrwt>
<totfact> 0.13585939E+01</totfact>
</mgrwt>
</event>
<event>
 6    1  0.9906445E-006  0.4423363E+04  0.7818608E-02  0.7924193E-01
          2   -1    0    0  501    0  0.00000000000E+00  0.00000000000E+00  0.23389877537E+04  0.23389877537E+04  0.00000000000E+00 0. -1.
         -2   -1    0    0    0  501 -0.00000000000E+00 -0.00000000000E+00 -0.20913043353E+04  0.20913043353E+04  0.00000000000E+00 0.  1.
         23    2    1    2    0    0 -0.20045133433E+04 -0.61727288220E+03  0.82332422432E+03  0.22553295854E+04  0.97720037033E+02 0.  0.
         13    1    3    3    0    0 -0.14867429605E+04 -0.42472220020E+03  0.57508156478E+03  0.16497006953E+04  0.00000000000E+00 0.  1.
        -13    1    3    3    0    0 -0.51777038282E+03 -0.19255068200E+03  0.24824265954E+03  0.60562889006E+03  0.00000000000E+00 0. -1.
         22    1    1    2    0    0  0.20045133433E+04  0.61727288220E+03 -0.57564080583E+03  0.21749625036E+04  0.00000000000E+00 0.  1.
<mgrwt>
<rscale>  0 0.44233631E+04</rscale>
<asrwt>0</asrwt>
<pdfrwt beam="1">  1        2 0.35984427E+00 0.44233631E+04</pdfrwt>
<pdfrwt beam="2">  1       -2 0.32173913E+00 0.44233631E+04</pdfrwt>
<totfact> 0.76719163E-02</totfact>
</mgrwt>
</event>
<event>
 6    1  0.9906445E-006  0.1941828E+04  0.7818608E-02  0.8634311E-01
         -2   -1    0    0    0  501 -0.00000000000E+00  0.00000000000E+00  0.10009027410E+04  0.10009027410E+04  0.00000000000E+00 0.  1.
          2   -1    0    0  501    0  0.00000000000E+00 -0.00000000000E+00 -0.94182411726E+03  0.94182411726E+03  0.00000000000E+00 0. -1.
         23    2    1    2    0    0 -0.38273277573E+02  0.52318935725E+03  0.84441704015E+03  0.99829667263E+03  0.91455790262E+02 0.  0.
         13    1    3    3    0    0 -0.48524661882E+01  0.10248540236E+03  0.10427368974E+03  0.14628672701E+03  0.00000000000E+00 0.  1.
        -13    1    3    3    0    0 -0.33420811385E+02  0.42070395489E+03  0.74014335041E+03  0.85200994563E+03  0.00000000000E+00 0. -1.
         22    1    1    2    0    0  0.38273277573E+02 -0.52318935725E+03 -0.78533841638E+03  0.94443018565E+03  0.00000000000E+00 0. -1.
<mgrwt>
<rscale>  0 0.19418284E+04</rscale>
<asrwt>0</asrwt>
<pdfrwt beam="1">  1        2 0.14489602E+00 0.19418284E+04</pdfrwt>
<pdfrwt beam="2">  1       -2 0.15398504E+00 0.19418284E+04</pdfrwt>
<totfact> 0.71678447E+00</totfact>
</mgrwt>
</event>
<event>
 6    1  0.9906445E-006  0.4635643E+04  0.7818608E-02  0.7887311E-01
          2   -1    0    0  501    0  0.00000000000E+00  0.00000000000E+00  0.31093741569E+04  0.31093741569E+04  0.00000000000E+00 0. -1.
         -2   -1    0    0    0  501 -0.00000000000E+00 -0.00000000000E+00 -0.17277744796E+04  0.17277744796E+04  0.00000000000E+00 0.  1.
         23    2    1    2    0    0  0.50671014242E+03 -0.21491575104E+04  0.14232752890E+04  0.26286717791E+04  0.92572141006E+02 0.  0.
         11    1    3    3    0    0  0.22467562609E+03 -0.98037144763E+03  0.59408114705E+03  0.11681351470E+04  0.00000000000E+00 0. -1.
        -11    1    3    3    0    0  0.28203451633E+03 -0.11687860627E+04  0.82919414190E+03  0.14605366321E+04  0.00000000000E+00 0.  1.
         22    1    1    2    0    0 -0.50671014242E+03  0.21491575104E+04 -0.41675611648E+02  0.22084768574E+04  0.00000000000E+00 0. -1.
<mgrwt>
<rscale>  0 0.46356433E+04</rscale>
<asrwt>0</asrwt>
<pdfrwt beam="1">  1        2 0.47836525E+00 0.46356433E+04</pdfrwt>
<pdfrwt beam="2">  1       -2 0.26581146E+00 0.46356433E+04</pdfrwt>
<totfact> 0.57142224E-02</totfact>
</mgrwt>
</event>
<event>
 6    1  0.9906445E-006  0.3804946E+04  0.7818608E-02  0.8045094E-01
          1   -1    0    0  501    0  0.00000000000E+00  0.00000000000E+00  0.24832279654E+04  0.24832279654E+04  0.00000000000E+00 0. -1.
         -1   -1    0    0    0  501 -0.00000000000E+00 -0.00000000000E+00 -0.14575395704E+04  0.14575395704E+04  0.00000000000E+00 0.  1.
         23    2    1    2    0    0  0.41864919256E+03 -0.57770502986E+03  0.23385016439E+04  0.24466159791E+04  0.91266437149E+02 0.  0.
         13    1    3    3    0    0  0.56367821978E+02 -0.11755147024E+03  0.52229891607E+03  0.53832317174E+03  0.00000000000E+00 0.  1.
        -13    1    3    3    0    0  0.36228137058E+03 -0.46015355962E+03  0.18162027278E+04  0.19082928073E+04  0.00000000000E+00 0. -1.
         22    1    1    2    0    0 -0.41864919256E+03  0.57770502986E+03 -0.13128132489E+04  0.14941515567E+04  0.00000000000E+00 0.  1.
<mgrwt>
<rscale>  0 0.38049457E+04</rscale>
<asrwt>0</asrwt>
<pdfrwt beam="1">  1        1 0.38203507E+00 0.38049457E+04</pdfrwt>
<pdfrwt beam="2">  1       -1 0.22423686E+00 0.38049457E+04</pdfrwt>
<totfact> 0.11410325E-01</totfact>
</mgrwt>
</event>
<event>
 6    1  0.9906445E-006  0.3539537E+04  0.7818608E-02  0.8104484E-01
         -2   -1    0    0    0  501 -0.00000000000E+00  0.00000000000E+00  0.10985020956E+04  0.10985020956E+04  0.00000000000E+00 0.  1.
          2   -1    0    0  501    0  0.00000000000E+00 -0.00000000000E+00 -0.28512291331E+04  0.28512291331E+04  0.00000000000E+00 0. -1.
         23    2    1    2    0    0 -0.15733819424E+03  0.14415567723E+04  0.25277841920E+03  0.14748790368E+04  0.92358046622E+02 0.  0.
         13    1    3    3    0    0 -0.11854621548E+03  0.68513687388E+03  0.10541010340E+03  0.70326170879E+03  0.00000000000E+00 0. -1.
        -13    1    3    3    0    0 -0.38791978760E+02  0.75641989845E+03  0.14736831580E+03  0.77161732801E+03  0.00000000000E+00 0.  1.
         22    1    1    2    0    0  0.15733819424E+03 -0.14415567723E+04 -0.20055054567E+04  0.24748521920E+04  0.00000000000E+00 0. -1.
<mgrwt>
<rscale>  0 0.35395374E+04</rscale>
<asrwt>0</asrwt>
<pdfrwt beam="1">  1        2 0.43865063E+00 0.35395374E+04</pdfrwt>
<pdfrwt beam="2">  1       -2 0.16900032E+00 0.35395374E+04</pdfrwt>
<totfact> 0.38176859E-01</totfact>
</mgrwt>
</event>
<event>
 6    1  0.9906445E-006  0.1164924E+04  0.7818608E-02  0.9144125E-01
         -3   -1    0    0    0  501 -0.00000000000E+00  0.00000000000E+00  0.49443293069E+03  0.49443293069E+03  0.00000000000E+00 0.  1.
          3   -1    0    0  501    0  0.00000000000E+00 -0.00000000000E+00 -0.68616411304E+03  0.68616411304E+03  0.00000000000E+00 0. -1.
         23    2    1    2    0    0  0.50214830016E+03 -0.21684224599E+03  0.95552821909E+02  0.56277378899E+03  0.91708891579E+02 0.  0.
         11    1    3    3    0    0  0.28358279284E+03 -0.14226508760E+03  0.97221605555E+02  0.33182916708E+03  0.00000000000E+00 0. -1.
        -11    1    3    3    0    0  0.21856550733E+03 -0.74577158390E+02 -0.16687836458E+01  0.23094462190E+03  0.00000000000E+00 0.  1.
         22    1    1    2    0    0 -0.50214830016E+03  0.21684224599E+03 -0.28728400426E+03  0.61782325475E+03  0.00000000000E+00 0. -1.
<mgrwt>
<rscale>  0 0.11649243E+04</rscale>
<asrwt>0</asrwt>
<pdfrwt beam="1">  1        3 0.10556371E+00 0.11649243E+04</pdfrwt>
<pdfrwt beam="2">  1       -3 0.76066605E-01 0.11649243E+04</pdfrwt>
<totfact> 0.32471626E+00</totfact>
</mgrwt>
</event>
<event>
 6    1  0.9906445E-006  0.2187418E+04  0.7818608E-02  0.8523683E-01
          2   -1    0    0  501    0  0.00000000000E+00  0.00000000000E+00  0.16829842893E+04  0.16829842893E+04  0.00000000000E+00 0. -1.
         -2   -1    0    0    0  501 -0.00000000000E+00 -0.00000000000E+00 -0.71076103233E+03  0.71076103233E+03  0.00000000000E+00 0.  1.
         23    2    1    2    0    0 -0.80783719574E+03  0.10553520844E+03  0.12827076368E+04  0.15218857199E+04  0.84015760802E+02 0.  0.
         11    1    3    3    0    0 -0.41383086492E+03  0.26261510956E+02  0.59242983569E+03  0.72313122042E+03  0.00000000000E+00 0. -1.
        -11    1    3    3    0    0 -0.39400633081E+03  0.79273697484E+02  0.69027780110E+03  0.79875449953E+03  0.00000000000E+00 0.  1.
         22    1    1    2    0    0  0.80783719574E+03 -0.10553520844E+03 -0.31048437978E+03  0.87185960173E+03  0.00000000000E+00 0.  1.
<mgrwt>
<rscale>  0 0.21874183E+04</rscale>
<asrwt>0</asrwt>
<pdfrwt beam="1">  1        2 0.25892066E+00 0.21874183E+04</pdfrwt>
<pdfrwt beam="2">  1       -2 0.10934785E+00 0.21874183E+04</pdfrwt>
<totfact> 0.61135392E+00</totfact>
</mgrwt>
</event>
<event>
 6    1  0.9906445E-006  0.4930627E+04  0.7818608E-02  0.7839299E-01
         -1   -1    0    0    0  501 -0.00000000000E+00  0.00000000000E+00  0.19806420008E+04  0.19806420008E+04  0.00000000000E+00 0. -1.
          1   -1    0    0  501    0  0.00000000000E+00 -0.00000000000E+00 -0.30685861007E+04  0.30685861007E+04  0.00000000000E+00 0.  1.
         23    2    1    2    0    0 -0.12881815648E+04  0.13074653550E+04 -0.22283218228E+04  0.28883628236E+04  0.91346903117E+02 0.  0.
         11    1    3    3    0    0 -0.57314933608E+03  0.64143440864E+03 -0.10150633267E+04  0.13305231374E+04  0.00000000000E+00 0. -1.
        -11    1    3    3    0    0 -0.71503222869E+03  0.66603094636E+03 -0.12132584961E+04  0.15578396862E+04  0.00000000000E+00 0.  1.
         22    1    1    2    0    0  0.12881815648E+04 -0.13074653550E+04  0.11403777228E+04  0.21608652779E+04  0.00000000000E+00 0.  1.
<mgrwt>
<rscale>  0 0.49306269E+04</rscale>
<asrwt>0</asrwt>
<pdfrwt beam="1">  1        1 0.47209017E+00 0.49306269E+04</pdfrwt>
<pdfrwt beam="2">  1       -1 0.30471416E+00 0.49306269E+04</pdfrwt>
<totfact> 0.11891884E-02</totfact>
</mgrwt>
</event>
<event>
 6    1  0.9906445E-006  0.3890932E+04  0.7818608E-02  0.8026918E-01
          1   -1    0    0  501    0  0.00000000000E+00  0.00000000000E+00  0.27519913066E+04  0.27519913066E+04  0.00000000000E+00 0. -1.
         -1   -1    0    0    0  501 -0.00000000000E+00 -0.00000000000E+00 -0.13753085991E+04  0.13753085991E+04  0.00000000000E+00 0.  1.
         23    2    1    2    0    0 -0.10399319525E+04  0.59313264563E+03  0.23139211512E+04  0.26068786806E+04  0.91217106578E+02 0.  0.
         11    1    3    3    0    0 -0.36111256971E+03  0.15726076437E+03  0.74491968258E+03  0.84263786380E+03  0.00000000000E+00 0.  1.
        -11    1    3    3    0    0 -0.67881938281E+03  0.43587188126E+03  0.15690014686E+04  0.17642408168E+04  0.00000000000E+00 0. -1.
         22    1    1    2    0    0  0.10399319525E+04 -0.59313264563E+03 -0.93723844374E+03  0.15204212251E+04  0.00000000000E+00 0.  1.
<mgrwt>
<rscale>  0 0.38909317E+04</rscale>
<asrwt>0</asrwt>
<pdfrwt beam="1">  1        1 0.42338328E+00 0.38909317E+04</pdfrwt>
<pdfrwt beam="2">  1       -1 0.21158594E+00 0.38909317E+04</pdfrwt>
<totfact> 0.89269005E-02</totfact>
</mgrwt>
</event>
<event>
 6    1  0.9906445E-006  0.3174052E+04  0.7818608E-02  0.8195704E-01
         -1   -1    0    0    0  501 -0.00000000000E+00  0.00000000000E+00  0.84341737587E+03  0.84341737587E+03  0.00000000000E+00 0.  1.
          1   -1    0    0  501    0  0.00000000000E+00 -0.00000000000E+00 -0.29862448409E+04  0.29862448409E+04  0.00000000000E+00 0. -1.
         23    2    1    2    0    0 -0.53228315527E+03  0.10516885270E+04  0.20752406600E+03  0.12003036572E+04  0.91041288881E+02 0.  0.
         11    1    3    3    0    0 -0.27817216088E+03  0.51611099671E+03  0.14678150344E+03  0.60439649384E+03  0.00000000000E+00 0. -1.
        -11    1    3    3    0    0 -0.25411099439E+03  0.53557753033E+03  0.60742562557E+02  0.59590716338E+03  0.00000000000E+00 0.  1.
         22    1    1    2    0    0  0.53228315527E+03 -0.10516885270E+04 -0.23503515311E+04  0.26293585596E+04  0.00000000000E+00 0. -1.
<mgrwt>
<rscale>  0 0.31740515E+04</rscale>
<asrwt>0</asrwt>
<pdfrwt beam="1">  1        1 0.45942228E+00 0.31740515E+04</pdfrwt>
<pdfrwt beam="2">  1       -1 0.12975652E+00 0.31740515E+04</pdfrwt>
<totfact> 0.26115185E-01</totfact>
</mgrwt>
</event>
<event>
 6    1  0.9906445E-006  0.1609577E+04  0.7818608E-02  0.8814686E-01
          2   -1    0    0  501    0  0.00000000000E+00  0.00000000000E+00  0.31819299550E+04  0.31819299550E+04  0.00000000000E+00 0. -1.
         -2   -1    0    0    0  501 -0.00000000000E+00 -0.00000000000E+00 -0.20355075303E+03  0.20355075303E+03  0.00000000000E+00 0.  1.
         23    2    1    2    0    0 -0.68848213335E+03 -0.39833471860E+03  0.17135764956E+04  0.18913575263E+04  0.90612859411E+02 0.  0.
         13    1    3    3    0    0 -0.60392691619E+03 -0.31455980192E+03  0.14835668827E+04  0.16323744315E+04  0.00000000000E+00 0. -1.
        -13    1    3    3    0    0 -0.84555217154E+02 -0.83774916682E+02  0.23000961281E+03  0.25898309481E+03  0.00000000000E+00 0.  1.
         22    1    1    2    0    0  0.68848213335E+03  0.39833471860E+03  0.12648027064E+04  0.14941231817E+04  0.00000000000E+00 0.  1.
<mgrwt>
<rscale>  0 0.16095766E+04</rscale>
<asrwt>0</asrwt>
<pdfrwt beam="1">  1        2 0.48952765E+00 0.16095766E+04</pdfrwt>
<pdfrwt beam="2">  1       -2 0.31315503E-01 0.16095766E+04</pdfrwt>
<totfact> 0.12174192E+01</totfact>
</mgrwt>
</event>
<event>
 6    1  0.9906445E-006  0.7681732E+03  0.7818608E-02  0.9607263E-01
         -1   -1    0    0    0  501 -0.00000000000E+00  0.00000000000E+00  0.11495406845E+03  0.11495406845E+03  0.00000000000E+00 0.  1.
          1   -1    0    0  501    0  0.00000000000E+00 -0.00000000000E+00 -0.12833169904E+04  0.12833169904E+04  0.00000000000E+00 0. -1.
         23    2    1    2    0    0 -0.32517382909E+03 -0.47207613487E+02 -0.93384664562E+03  0.99458248858E+03  0.95698438662E+02 0.  0.
         11    1    3    3    0    0 -0.12704163336E+03 -0.59624611125E+02 -0.45699160787E+03  0.47805439076E+03  0.00000000000E+00 0. -1.
        -11    1    3    3    0    0 -0.19813219573E+03  0.12416997638E+02 -0.47685503775E+03  0.51652809782E+03  0.00000000000E+00 0.  1.
         22    1    1    2    0    0  0.32517382909E+03  0.47207613487E+02 -0.23451627632E+03  0.40368857025E+03  0.00000000000E+00 0.  1.
<mgrwt>
<rscale>  0 0.76817318E+03</rscale>
<asrwt>0</asrwt>
<pdfrwt beam="1">  1        1 0.19743339E+00 0.76817318E+03</pdfrwt>
<pdfrwt beam="2">  1       -1 0.17685241E-01 0.76817318E+03</pdfrwt>
<totfact> 0.23658503E+02</totfact>
</mgrwt>
</event>
<event>
 6    1  0.9906445E-006  0.2429952E+04  0.7818608E-02  0.8428374E-01
          1   -1    0    0  501    0  0.00000000000E+00  0.00000000000E+00  0.14604516819E+04  0.14604516819E+04  0.00000000000E+00 0. -1.
         -1   -1    0    0    0  501 -0.00000000000E+00 -0.00000000000E+00 -0.10107605825E+04  0.10107605825E+04  0.00000000000E+00 0.  1.
         23    2    1    2    0    0 -0.61513922701E+03 -0.39227584819E+01  0.12886984724E+04  0.14308541393E+04  0.90488444998E+02 0.  0.
         11    1    3    3    0    0 -0.78172888654E+02 -0.30905838549E+02  0.16715637317E+03  0.18710271101E+03  0.00000000000E+00 0. -1.
        -11    1    3    3    0    0 -0.53696633836E+03  0.26983080067E+02  0.11215420992E+04  0.12437514283E+04  0.00000000000E+00 0.  1.
         22    1    1    2    0    0  0.61513922701E+03  0.39227584819E+01 -0.83900737298E+03  0.10403581251E+04  0.00000000000E+00 0.  1.
<mgrwt>
<rscale>  0 0.24299523E+04</rscale>
<asrwt>0</asrwt>
<pdfrwt beam="1">  1        1 0.22468488E+00 0.24299523E+04</pdfrwt>
<pdfrwt beam="2">  1       -1 0.15550163E+00 0.24299523E+04</pdfrwt>
<totfact> 0.19704464E+00</totfact>
</mgrwt>
</event>
<event>
 6    1  0.9906445E-006  0.3920007E+04  0.7818608E-02  0.8020881E-01
         -1   -1    0    0    0  501 -0.00000000000E+00  0.00000000000E+00  0.13735856583E+04  0.13735856583E+04  0.00000000000E+00 0.  1.
          1   -1    0    0  501    0  0.00000000000E+00 -0.00000000000E+00 -0.27967780009E+04  0.27967780009E+04  0.00000000000E+00 0. -1.
         23    2    1    2    0    0  0.60165865299E+03 -0.15246470977E+04  0.42935992619E+03  0.16968051262E+04  0.90861338829E+02 0.  0.
         13    1    3    3    0    0  0.47545198044E+03 -0.11410874523E+04  0.29098522944E+03  0.12699636071E+04  0.00000000000E+00 0.  1.
        -13    1    3    3    0    0  0.12620667254E+03 -0.38355964535E+03  0.13837469676E+03  0.42684151912E+03  0.00000000000E+00 0. -1.
         22    1    1    2    0    0 -0.60165865299E+03  0.15246470977E+04 -0.18525522688E+04  0.24735585329E+04  0.00000000000E+00 0. -1.
<mgrwt>
<rscale>  0 0.39200072E+04</rscale>
<asrwt>0</asrwt>
<pdfrwt beam="1">  1        1 0.43027354E+00 0.39200072E+04</pdfrwt>
<pdfrwt beam="2">  1       -1 0.21132087E+00 0.39200072E+04</pdfrwt>
<totfact> 0.83093914E-02</totfact>
</mgrwt>
</event>
<event>
 6    1  0.9906445E-006  0.2766140E+04  0.7818608E-02  0.8313858E-01
          1   -1    0    0  501    0  0.00000000000E+00  0.00000000000E+00  0.27724560726E+04  0.27724560726E+04  0.00000000000E+00 0. -1.
         -1   -1    0    0    0  501 -0.00000000000E+00 -0.00000000000E+00 -0.68995957722E+03  0.68995957722E+03  0.00000000000E+00 0.  1.
         23    2    1    2    0    0 -0.72934965681E+03 -0.16336345707E+03 -0.41215020103E+03  0.85820738608E+03  0.89518647903E+02 0.  0.
         11    1    3    3    0    0 -0.99773855689E+02 -0.53576336864E+02 -0.72679801416E+02  0.13456448151E+03  0.00000000000E+00 0. -1.
        -11    1    3    3    0    0 -0.62957580112E+03 -0.10978712021E+03 -0.33947039961E+03  0.72364290457E+03  0.00000000000E+00 0.  1.
         22    1    1    2    0    0  0.72934965681E+03  0.16336345707E+03  0.24946466964E+04  0.26042082637E+04  0.00000000000E+00 0. -1.
<mgrwt>
<rscale>  0 0.27661400E+04</rscale>
<asrwt>0</asrwt>
<pdfrwt beam="1">  1        1 0.42653170E+00 0.27661400E+04</pdfrwt>
<pdfrwt beam="2">  1       -1 0.10614763E+00 0.27661400E+04</pdfrwt>
<totfact> 0.62799308E-01</totfact>
</mgrwt>
</event>
<event>
 6    1  0.9906445E-006  0.2638072E+04  0.7818608E-02  0.8355383E-01
          2   -1    0    0  501    0  0.00000000000E+00  0.00000000000E+00  0.18346493247E+04  0.18346493247E+04  0.00000000000E+00 0. -1.
         -2   -1    0    0    0  501 -0.00000000000E+00 -0.00000000000E+00 -0.94833173250E+03  0.94833173250E+03  0.00000000000E+00 0.  1.
         23    2    1    2    0    0  0.75505505506E+03  0.34772734192E+02 -0.69445017303E+03  0.10307984164E+04  0.94694525554E+02 0.  0.
         13    1    3    3    0    0  0.35515610568E+03 -0.26734493066E+01 -0.38472319198E+03  0.52359807217E+03  0.00000000000E+00 0.  1.
        -13    1    3    3    0    0  0.39989894938E+03  0.37446183498E+02 -0.30972698105E+03  0.50720034421E+03  0.00000000000E+00 0. -1.
         22    1    1    2    0    0 -0.75505505506E+03 -0.34772734192E+02  0.15807677652E+04  0.17521826408E+04  0.00000000000E+00 0. -1.
<mgrwt>
<rscale>  0 0.26380722E+04</rscale>
<asrwt>0</asrwt>
<pdfrwt beam="1">  1        2 0.28225374E+00 0.26380722E+04</pdfrwt>
<pdfrwt beam="2">  1       -2 0.14589719E+00 0.26380722E+04</pdfrwt>
<totfact> 0.23471064E+00</totfact>
</mgrwt>
</event>
<event>
 6    1  0.9906445E-006  0.2365571E+04  0.7818608E-02  0.8452507E-01
         -1   -1    0    0    0  501 -0.00000000000E+00  0.00000000000E+00  0.10169651530E+04  0.10169651530E+04  0.00000000000E+00 0.  1.
          1   -1    0    0  501    0  0.00000000000E+00 -0.00000000000E+00 -0.13756441135E+04  0.13756441135E+04  0.00000000000E+00 0. -1.
         23    2    1    2    0    0 -0.93645008366E+03 -0.38632522425E+03  0.43442015078E+03  0.11060665589E+04  0.92067515171E+02 0.  0.
         13    1    3    3    0    0 -0.42600255296E+03 -0.15033358876E+03  0.15095921962E+03  0.47630562565E+03  0.00000000000E+00 0. -1.
        -13    1    3    3    0    0 -0.51044753070E+03 -0.23599163549E+03  0.28346093116E+03  0.62976093330E+03  0.00000000000E+00 0.  1.
         22    1    1    2    0    0  0.93645008366E+03  0.38632522425E+03 -0.79309911127E+03  0.12865427076E+04  0.00000000000E+00 0. -1.
<mgrwt>
<rscale>  0 0.23655715E+04</rscale>
<asrwt>0</asrwt>
<pdfrwt beam="1">  1        1 0.21163756E+00 0.23655715E+04</pdfrwt>
<pdfrwt beam="2">  1       -1 0.15645618E+00 0.23655715E+04</pdfrwt>
<totfact> 0.22342800E+00</totfact>
</mgrwt>
</event>
<event>
 6    1  0.9906445E-006  0.2634551E+04  0.7818608E-02  0.8356559E-01
         -1   -1    0    0    0  501 -0.00000000000E+00  0.00000000000E+00  0.10756641650E+04  0.10756641650E+04  0.00000000000E+00 0.  1.
          1   -1    0    0  501    0  0.00000000000E+00 -0.00000000000E+00 -0.16131560713E+04  0.16131560713E+04  0.00000000000E+00 0. -1.
         23    2    1    2    0    0  0.69360479468E+03  0.90199494537E+03 -0.94321209551E+03  0.14808089100E+04  0.91997163708E+02 0.  0.
         11    1    3    3    0    0  0.59789572417E+03  0.75304604073E+03 -0.83361184577E+03  0.12725825497E+04  0.00000000000E+00 0.  1.
        -11    1    3    3    0    0  0.95709070509E+02  0.14894890464E+03 -0.10960024974E+03  0.20822636028E+03  0.00000000000E+00 0. -1.
         22    1    1    2    0    0 -0.69360479468E+03 -0.90199494537E+03  0.40572018917E+03  0.12080113263E+04  0.00000000000E+00 0. -1.
<mgrwt>
<rscale>  0 0.26345506E+04</rscale>
<asrwt>0</asrwt>
<pdfrwt beam="1">  1        1 0.24817786E+00 0.26345506E+04</pdfrwt>
<pdfrwt beam="2">  1       -1 0.16548679E+00 0.26345506E+04</pdfrwt>
<totfact> 0.12754043E+00</totfact>
</mgrwt>
</event>
<event>
 6    1  0.9906445E-006  0.3262903E+04  0.7818608E-02  0.8172399E-01
         -1   -1    0    0    0  501 -0.00000000000E+00  0.00000000000E+00  0.18336164359E+04  0.18336164359E+04  0.00000000000E+00 0.  1.
          1   -1    0    0  501    0  0.00000000000E+00 -0.00000000000E+00 -0.14515758948E+04  0.14515758948E+04  0.00000000000E+00 0. -1.
         23    2    1    2    0    0 -0.10976482403E+03 -0.10136637258E+04  0.14718953084E+04  0.17927628084E+04  0.89220079208E+02 0.  0.
         11    1    3    3    0    0 -0.74499735436E+02 -0.55734536588E+03  0.73719796903E+03  0.92717037970E+03  0.00000000000E+00 0.  1.
        -11    1    3    3    0    0 -0.35265088592E+02 -0.45631835995E+03  0.73469733934E+03  0.86559242865E+03  0.00000000000E+00 0. -1.
         22    1    1    2    0    0  0.10976482403E+03  0.10136637258E+04 -0.10898547673E+04  0.14924295224E+04  0.00000000000E+00 0. -1.
<mgrwt>
<rscale>  0 0.32629026E+04</rscale>
<asrwt>0</asrwt>
<pdfrwt beam="1">  1        1 0.22331937E+00 0.32629026E+04</pdfrwt>
<pdfrwt beam="2">  1       -1 0.28209484E+00 0.32629026E+04</pdfrwt>
<totfact> 0.25377632E-01</totfact>
</mgrwt>
</event>
<event>
 6    1  0.9906445E-006  0.2419545E+04  0.7818608E-02  0.8432222E-01
          2   -1    0    0  501    0  0.00000000000E+00  0.00000000000E+00  0.19674246293E+04  0.19674246293E+04  0.00000000000E+00 0. -1.
         -2   -1    0    0    0  501 -0.00000000000E+00 -0.00000000000E+00 -0.74389095498E+03  0.74389095498E+03  0.00000000000E+00 0.  1.
         23    2    1    2    0    0  0.11500675215E+04 -0.35615603832E+03  0.72450928798E+03  0.14080398016E+04  0.90332424742E+02 0.  0.
         13    1    3    3    0    0  0.60027841297E+03 -0.19739487022E+03  0.43113125259E+03  0.76496605469E+03  0.00000000000E+00 0. -1.
        -13    1    3    3    0    0  0.54978910851E+03 -0.15876116809E+03  0.29337803539E+03  0.64307374692E+03  0.00000000000E+00 0.  1.
         22    1    1    2    0    0 -0.11500675215E+04  0.35615603832E+03  0.49902438636E+03  0.13032757827E+04  0.00000000000E+00 0.  1.
<mgrwt>
<rscale>  0 0.24195449E+04</rscale>
<asrwt>0</asrwt>
<pdfrwt beam="1">  1        2 0.30268071E+00 0.24195449E+04</pdfrwt>
<pdfrwt beam="2">  1       -2 0.11444476E+00 0.24195449E+04</pdfrwt>
<totfact> 0.37314624E+00</totfact>
</mgrwt>
</event>
<event>
 6    1  0.9906445E-006  0.1784645E+04  0.7818608E-02  0.8714508E-01
         -2   -1    0    0    0  501 -0.00000000000E+00  0.00000000000E+00  0.49080021669E+03  0.49080021669E+03  0.00000000000E+00 0.  1.
          2   -1    0    0  501    0  0.00000000000E+00 -0.00000000000E+00 -0.16223289640E+04  0.16223289640E+04  0.00000000000E+00 0. -1.
         23    2    1    2    0    0  0.82730587349E+03 -0.21590274707E+01 -0.17875472312E+03  0.85129796738E+03  0.91188313556E+02 0.  0.
         11    1    3    3    0    0  0.39575432280E+03  0.37843141691E+02 -0.61253001847E+02  0.40225056572E+03  0.00000000000E+00 0. -1.
        -11    1    3    3    0    0  0.43155155069E+03 -0.40002169161E+02 -0.11750172128E+03  0.44904740167E+03  0.00000000000E+00 0.  1.
         22    1    1    2    0    0 -0.82730587349E+03  0.21590274707E+01 -0.95277402421E+03  0.12618312133E+04  0.00000000000E+00 0. -1.
<mgrwt>
<rscale>  0 0.17846450E+04</rscale>
<asrwt>0</asrwt>
<pdfrwt beam="1">  1        2 0.24958907E+00 0.17846450E+04</pdfrwt>
<pdfrwt beam="2">  1       -2 0.75507725E-01 0.17846450E+04</pdfrwt>
<totfact> 0.16110286E+01</totfact>
</mgrwt>
</event>
<event>
 6    1  0.9906445E-006  0.3831486E+04  0.7818608E-02  0.8039432E-01
         -2   -1    0    0    0  501 -0.00000000000E+00  0.00000000000E+00  0.40548174271E+04  0.40548174271E+04  0.00000000000E+00 0.  1.
          2   -1    0    0  501    0  0.00000000000E+00 -0.00000000000E+00 -0.90511357459E+03  0.90511357459E+03  0.00000000000E+00 0. -1.
         23    2    1    2    0    0  0.10092812034E+04  0.75364047792E+03 -0.29067540735E+03  0.12962126761E+04  0.95145108649E+02 0.  0.
         11    1    3    3    0    0  0.30565429024E+03  0.18309592642E+03 -0.10566608152E+03  0.37163689833E+03  0.00000000000E+00 0.  1.
        -11    1    3    3    0    0  0.70362691319E+03  0.57054455149E+03 -0.18500932583E+03  0.92457577778E+03  0.00000000000E+00 0. -1.
         22    1    1    2    0    0 -0.10092812034E+04 -0.75364047792E+03  0.34403792599E+04  0.36637183256E+04  0.00000000000E+00 0.  1.
<mgrwt>
<rscale>  0 0.38314855E+04</rscale>
<asrwt>0</asrwt>
<pdfrwt beam="1">  1        2 0.13924825E+00 0.38314855E+04</pdfrwt>
<pdfrwt beam="2">  1       -2 0.62381805E+00 0.38314855E+04</pdfrwt>
<totfact> 0.95848350E-03</totfact>
</mgrwt>
</event>
<event>
 6    1  0.9906445E-006  0.1434128E+04  0.7818608E-02  0.8929479E-01
          2   -1    0    0  501    0  0.00000000000E+00  0.00000000000E+00  0.34868603128E+04  0.34868603128E+04  0.00000000000E+00 0.  1.
         -2   -1    0    0    0  501 -0.00000000000E+00 -0.00000000000E+00 -0.14746230599E+03  0.14746230599E+03  0.00000000000E+00 0. -1.
         23    2    1    2    0    0 -0.41657415255E+03 -0.57766608172E+03  0.15351082211E+04  0.16945562006E+04  0.87928037511E+02 0.  0.
         13    1    3    3    0    0 -0.34453803051E+03 -0.41735395292E+03  0.11893942934E+04  0.13067323986E+04  0.00000000000E+00 0. -1.
        -13    1    3    3    0    0 -0.72036122039E+02 -0.16031212880E+03  0.34571392770E+03  0.38782380191E+03  0.00000000000E+00 0.  1.
         22    1    1    2    0    0  0.41657415255E+03  0.57766608172E+03  0.18042897857E+04  0.19397664182E+04  0.00000000000E+00 0. -1.
<mgrwt>
<rscale>  0 0.14341276E+04</rscale>
<asrwt>0</asrwt>
<pdfrwt beam="1">  1        2 0.53643999E+00 0.14341276E+04</pdfrwt>
<pdfrwt beam="2">  1       -2 0.22686511E-01 0.14341276E+04</pdfrwt>
<totfact> 0.13999775E+01</totfact>
</mgrwt>
</event>
<event>
 6    1  0.9906445E-006  0.2009296E+04  0.7818608E-02  0.8602287E-01
          1   -1    0    0  501    0  0.00000000000E+00  0.00000000000E+00  0.92935532408E+03  0.92935532408E+03  0.00000000000E+00 0. -1.
         -1   -1    0    0    0  501 -0.00000000000E+00 -0.00000000000E+00 -0.10860403465E+04  0.10860403465E+04  0.00000000000E+00 0.  1.
         23    2    1    2    0    0 -0.25834477889E+03 -0.37420410987E+03  0.81754814183E+03  0.94026730664E+03  0.94588070616E+02 0.  0.
         11    1    3    3    0    0 -0.13076541389E+03 -0.25045990367E+03  0.43888411852E+03  0.52196649922E+03  0.00000000000E+00 0. -1.
        -11    1    3    3    0    0 -0.12757936500E+03 -0.12374420620E+03  0.37866402331E+03  0.41830080742E+03  0.00000000000E+00 0.  1.
         22    1    1    2    0    0  0.25834477889E+03  0.37420410987E+03 -0.97423316427E+03  0.10751283640E+04  0.00000000000E+00 0.  1.
<mgrwt>
<rscale>  0 0.20092958E+04</rscale>
<asrwt>0</asrwt>
<pdfrwt beam="1">  1        1 0.14297774E+00 0.20092958E+04</pdfrwt>
<pdfrwt beam="2">  1       -1 0.16708313E+00 0.20092958E+04</pdfrwt>
<totfact> 0.41277406E+00</totfact>
</mgrwt>
</event>
<event>
 6    1  0.9906445E-006  0.1939474E+04  0.7818608E-02  0.8635453E-01
         -2   -1    0    0    0  501 -0.00000000000E+00  0.00000000000E+00  0.35548955845E+03  0.35548955845E+03  0.00000000000E+00 0. -1.
          2   -1    0    0  501    0  0.00000000000E+00 -0.00000000000E+00 -0.26453379858E+04  0.26453379858E+04  0.00000000000E+00 0.  1.
         23    2    1    2    0    0 -0.91191670530E+03 -0.31040406329E+03 -0.10063535951E+04  0.13960528733E+04  0.90957720738E+02 0.  0.
         13    1    3    3    0    0 -0.60977098623E+03 -0.23671124970E+03 -0.63449046127E+03  0.91127987843E+03  0.00000000000E+00 0. -1.
        -13    1    3    3    0    0 -0.30214571907E+03 -0.73692813590E+02 -0.37186313378E+03  0.48477299491E+03  0.00000000000E+00 0.  1.
         22    1    1    2    0    0  0.91191670530E+03  0.31040406329E+03 -0.12834948323E+04  0.16047746709E+04  0.00000000000E+00 0.  1.
<mgrwt>
<rscale>  0 0.19394742E+04</rscale>
<asrwt>0</asrwt>
<pdfrwt beam="1">  1        2 0.40697506E+00 0.19394742E+04</pdfrwt>
<pdfrwt beam="2">  1       -2 0.54690703E-01 0.19394742E+04</pdfrwt>
<totfact> 0.84138625E+00</totfact>
</mgrwt>
</event>
<event>
 6    1  0.9906445E-006  0.3185684E+04  0.7818608E-02  0.8192608E-01
          1   -1    0    0  501    0  0.00000000000E+00  0.00000000000E+00  0.20586858966E+04  0.20586858966E+04  0.00000000000E+00 0. -1.
         -1   -1    0    0    0  501 -0.00000000000E+00 -0.00000000000E+00 -0.12324103691E+04  0.12324103691E+04  0.00000000000E+00 0.  1.
         23    2    1    2    0    0  0.46478472208E+03 -0.92867225403E+03  0.16595765090E+04  0.19596130629E+04  0.86210056428E+02 0.  0.
         11    1    3    3    0    0  0.15149500521E+03 -0.39449894331E+03  0.69231887980E+03  0.81110146357E+03  0.00000000000E+00 0. -1.
        -11    1    3    3    0    0  0.31328971687E+03 -0.53417331072E+03  0.96725762924E+03  0.11485115994E+04  0.00000000000E+00 0.  1.
         22    1    1    2    0    0 -0.46478472208E+03  0.92867225403E+03 -0.83330098159E+03  0.13314832027E+04  0.00000000000E+00 0.  1.
<mgrwt>
<rscale>  0 0.31856841E+04</rscale>
<asrwt>0</asrwt>
<pdfrwt beam="1">  1        1 0.31672091E+00 0.31856841E+04</pdfrwt>
<pdfrwt beam="2">  1       -1 0.18960160E+00 0.31856841E+04</pdfrwt>
<totfact> 0.40501853E-01</totfact>
</mgrwt>
</event>
<event>
 6    1  0.9906445E-006  0.1551423E+04  0.7818608E-02  0.8850960E-01
         -1   -1    0    0    0  501 -0.00000000000E+00  0.00000000000E+00  0.35606528363E+03  0.35606528363E+03  0.00000000000E+00 0.  1.
          1   -1    0    0  501    0  0.00000000000E+00 -0.00000000000E+00 -0.16899374854E+04  0.16899374854E+04  0.00000000000E+00 0. -1.
         23    2    1    2    0    0 -0.33229239342E+03  0.34385472937E+03  0.13185580619E+03  0.50424633466E+03  0.90686838931E+02 0.  0.
         13    1    3    3    0    0 -0.95342321227E+02  0.15252739554E+03  0.72659768834E+02  0.19399537781E+03  0.00000000000E+00 0.  1.
        -13    1    3    3    0    0 -0.23695007219E+03  0.19132733383E+03  0.59196037352E+02  0.31025095684E+03  0.00000000000E+00 0. -1.
         22    1    1    2    0    0  0.33229239342E+03 -0.34385472937E+03 -0.14657280080E+04  0.15417564344E+04  0.00000000000E+00 0. -1.
<mgrwt>
<rscale>  0 0.15514227E+04</rscale>
<asrwt>0</asrwt>
<pdfrwt beam="1">  1        1 0.25999038E+00 0.15514227E+04</pdfrwt>
<pdfrwt beam="2">  1       -1 0.54779275E-01 0.15514227E+04</pdfrwt>
<totfact> 0.15707109E+01</totfact>
</mgrwt>
</event>
<event>
 6    1  0.9906445E-006  0.2807282E+04  0.7818608E-02  0.8301011E-01
         -1   -1    0    0    0  501 -0.00000000000E+00  0.00000000000E+00  0.22950309159E+04  0.22950309159E+04  0.00000000000E+00 0.  1.
          1   -1    0    0  501    0  0.00000000000E+00 -0.00000000000E+00 -0.85846692373E+03  0.85846692373E+03  0.00000000000E+00 0. -1.
         23    2    1    2    0    0  0.67410982412E+03 -0.95140918193E+03  0.15938133275E+04  0.19769219433E+04  0.91520273284E+02 0.  0.
         11    1    3    3    0    0  0.25075189310E+03 -0.31173644839E+03  0.60815368358E+03  0.72794713269E+03  0.00000000000E+00 0. -1.
        -11    1    3    3    0    0  0.42335793102E+03 -0.63967273354E+03  0.98565964394E+03  0.12489748106E+04  0.00000000000E+00 0.  1.
         22    1    1    2    0    0 -0.67410982412E+03  0.95140918193E+03 -0.15724933533E+03  0.11765758964E+04  0.00000000000E+00 0. -1.
<mgrwt>
<rscale>  0 0.28072821E+04</rscale>
<asrwt>0</asrwt>
<pdfrwt beam="1">  1        1 0.13207184E+00 0.28072821E+04</pdfrwt>
<pdfrwt beam="2">  1       -1 0.35308168E+00 0.28072821E+04</pdfrwt>
<totfact> 0.25262421E-01</totfact>
</mgrwt>
</event>
<event>
 6    1  0.9906445E-006  0.2177686E+04  0.7818608E-02  0.8527773E-01
         -2   -1    0    0    0  501 -0.00000000000E+00  0.00000000000E+00  0.90191386362E+03  0.90191386362E+03  0.00000000000E+00 0.  1.
          2   -1    0    0  501    0  0.00000000000E+00 -0.00000000000E+00 -0.13145151710E+04  0.13145151710E+04  0.00000000000E+00 0. -1.
         23    2    1    2    0    0  0.19235363315E+03 -0.72408089823E+03 -0.10080995197E+04  0.12593965439E+04  0.92314385507E+02 0.  0.
         11    1    3    3    0    0  0.10973942367E+03 -0.56106861822E+03 -0.74584961808E+03  0.93975123743E+03  0.00000000000E+00 0. -1.
        -11    1    3    3    0    0  0.82614209479E+02 -0.16301228000E+03 -0.26224990160E+03  0.31964530644E+03  0.00000000000E+00 0.  1.
         22    1    1    2    0    0 -0.19235363315E+03  0.72408089823E+03  0.59549821234E+03  0.95703249070E+03  0.00000000000E+00 0.  1.
<mgrwt>
<rscale>  0 0.21776863E+04</rscale>
<asrwt>0</asrwt>
<pdfrwt beam="1">  1        2 0.20223310E+00 0.21776863E+04</pdfrwt>
<pdfrwt beam="2">  1       -2 0.13875598E+00 0.21776863E+04</pdfrwt>
<totfact> 0.54580364E+00</totfact>
</mgrwt>
</event>
<event>
 6    1  0.9906445E-006  0.1335924E+04  0.7818608E-02  0.9001552E-01
         -2   -1    0    0    0  501 -0.00000000000E+00  0.00000000000E+00  0.19678755828E+03  0.19678755828E+03  0.00000000000E+00 0.  1.
          2   -1    0    0  501    0  0.00000000000E+00 -0.00000000000E+00 -0.22672831968E+04  0.22672831968E+04  0.00000000000E+00 0. -1.
         23    2    1    2    0    0  0.54007631958E+03 -0.17390794404E+03 -0.40081639397E+03  0.70062095889E+03  0.91046924135E+02 0.  0.
         11    1    3    3    0    0  0.19947619903E+03 -0.76516958904E+02 -0.20383891378E+03  0.29528952191E+03  0.00000000000E+00 0. -1.
        -11    1    3    3    0    0  0.34060012055E+03 -0.97390985138E+02 -0.19697748019E+03  0.40533143699E+03  0.00000000000E+00 0.  1.
         22    1    1    2    0    0 -0.54007631958E+03  0.17390794404E+03 -0.16696792446E+04  0.17634497962E+04  0.00000000000E+00 0. -1.
<mgrwt>
<rscale>  0 0.13359238E+04</rscale>
<asrwt>0</asrwt>
<pdfrwt beam="1">  1        2 0.34881278E+00 0.13359238E+04</pdfrwt>
<pdfrwt beam="2">  1       -2 0.30275011E-01 0.13359238E+04</pdfrwt>
<totfact> 0.46745882E+01</totfact>
</mgrwt>
</event>
<event>
 6    1  0.9906445E-006  0.1660206E+04  0.7818608E-02  0.8784391E-01
         -1   -1    0    0    0  501 -0.00000000000E+00  0.00000000000E+00  0.79753260145E+03  0.79753260145E+03  0.00000000000E+00 0.  1.
          1   -1    0    0  501    0  0.00000000000E+00 -0.00000000000E+00 -0.86400362390E+03  0.86400362390E+03  0.00000000000E+00 0. -1.
         23    2    1    2    0    0  0.49080907825E+03 -0.53394361597E+03  0.36562403254E+03  0.81732329435E+03  0.91362453992E+02 0.  0.
         13    1    3    3    0    0  0.24208390761E+03 -0.32232842573E+03  0.22618877398E+03  0.46223543117E+03  0.00000000000E+00 0. -1.
        -13    1    3    3    0    0  0.24872517064E+03 -0.21161519023E+03  0.13943525856E+03  0.35508786318E+03  0.00000000000E+00 0.  1.
         22    1    1    2    0    0 -0.49080907825E+03  0.53394361597E+03 -0.43209505499E+03  0.84421293100E+03  0.00000000000E+00 0. -1.
<mgrwt>
<rscale>  0 0.16602061E+04</rscale>
<asrwt>0</asrwt>
<pdfrwt beam="1">  1        1 0.13292363E+00 0.16602061E+04</pdfrwt>
<pdfrwt beam="2">  1       -1 0.12269732E+00 0.16602061E+04</pdfrwt>
<totfact> 0.10909469E+01</totfact>
</mgrwt>
</event>
<event>
 6    1  0.9906445E-006  0.3328800E+04  0.7818608E-02  0.8155606E-01
          2   -1    0    0  501    0  0.00000000000E+00  0.00000000000E+00  0.16170106184E+04  0.16170106184E+04  0.00000000000E+00 0.  1.
         -2   -1    0    0    0  501 -0.00000000000E+00 -0.00000000000E+00 -0.17131786404E+04  0.17131786404E+04  0.00000000000E+00 0. -1.
         23    2    1    2    0    0 -0.95903839477E+03 -0.29177121941E+03 -0.13758647644E+04  0.17046097191E+04  0.88347934954E+02 0.  0.
         11    1    3    3    0    0 -0.24668067607E+03 -0.10431285195E+03 -0.32191855531E+03  0.41876494992E+03  0.00000000000E+00 0.  1.
        -11    1    3    3    0    0 -0.71235771870E+03 -0.18745836746E+03 -0.10539462091E+04  0.12858447692E+04  0.00000000000E+00 0. -1.
         22    1    1    2    0    0  0.95903839477E+03  0.29177121941E+03  0.12796967424E+04  0.16255795397E+04  0.00000000000E+00 0.  1.
<mgrwt>
<rscale>  0 0.33288004E+04</rscale>
<asrwt>0</asrwt>
<pdfrwt beam="1">  1        2 0.24877087E+00 0.33288004E+04</pdfrwt>
<pdfrwt beam="2">  1       -2 0.26356594E+00 0.33288004E+04</pdfrwt>
<totfact> 0.48236929E-01</totfact>
</mgrwt>
</event>
<event>
 6    1  0.9906445E-006  0.1867681E+04  0.7818608E-02  0.8671113E-01
          1   -1    0    0  501    0  0.00000000000E+00  0.00000000000E+00  0.15567773028E+04  0.15567773028E+04  0.00000000000E+00 0. -1.
         -1   -1    0    0    0  501 -0.00000000000E+00 -0.00000000000E+00 -0.56016884993E+03  0.56016884993E+03  0.00000000000E+00 0.  1.
         23    2    1    2    0    0 -0.26627246098E+03 -0.89068839961E+03  0.56837848372E+03  0.10934190378E+04  0.91017815362E+02 0.  0.
         11    1    3    3    0    0 -0.72110630640E+02 -0.37206025374E+03  0.25959867748E+03  0.45936940344E+03  0.00000000000E+00 0. -1.
        -11    1    3    3    0    0 -0.19416183034E+03 -0.51862814587E+03  0.30877980623E+03  0.63404963432E+03  0.00000000000E+00 0.  1.
         22    1    1    2    0    0  0.26627246098E+03  0.89068839961E+03  0.42822996920E+03  0.10235271150E+04  0.00000000000E+00 0.  1.
<mgrwt>
<rscale>  0 0.18676811E+04</rscale>
<asrwt>0</asrwt>
<pdfrwt beam="1">  1        1 0.23950420E+00 0.18676811E+04</pdfrwt>
<pdfrwt beam="2">  1       -1 0.86179824E-01 0.18676811E+04</pdfrwt>
<totfact> 0.74485380E+00</totfact>
</mgrwt>
</event>
<event>
 6    1  0.9906445E-006  0.2327505E+04  0.7818608E-02  0.8467155E-01
          1   -1    0    0  501    0  0.00000000000E+00  0.00000000000E+00  0.28711427233E+04  0.28711427233E+04  0.00000000000E+00 0. -1.
         -1   -1    0    0    0  501 -0.00000000000E+00 -0.00000000000E+00 -0.47170052217E+03  0.47170052217E+03  0.00000000000E+00 0.  1.
         23    2    1    2    0    0  0.35805421374E+03  0.10960531955E+04  0.99545396839E+03  0.15260553148E+04  0.91546673376E+02 0.  0.
         13    1    3    3    0    0  0.18339077948E+02  0.11991829149E+03  0.79555385988E+02  0.14507163008E+03  0.00000000000E+00 0. -1.
        -13    1    3    3    0    0  0.33971513579E+03  0.97613490399E+03  0.91589858240E+03  0.13809836847E+04  0.00000000000E+00 0.  1.
         22    1    1    2    0    0 -0.35805421374E+03 -0.10960531955E+04  0.14039882328E+04  0.18167879307E+04  0.00000000000E+00 0.  1.
<mgrwt>
<rscale>  0 0.23275047E+04</rscale>
<asrwt>0</asrwt>
<pdfrwt beam="1">  1        1 0.44171425E+00 0.23275047E+04</pdfrwt>
<pdfrwt beam="2">  1       -1 0.72569313E-01 0.23275047E+04</pdfrwt>
<totfact> 0.12801719E+00</totfact>
</mgrwt>
</event>
<event>
 6    1  0.9906445E-006  0.6617230E+03  0.7818608E-02  0.9785027E-01
         -3   -1    0    0    0  501 -0.00000000000E+00  0.00000000000E+00  0.18808771845E+03  0.18808771845E+03  0.00000000000E+00 0.  1.
          3   -1    0    0  501    0  0.00000000000E+00 -0.00000000000E+00 -0.58201209262E+03  0.58201209262E+03  0.00000000000E+00 0. -1.
         23    2    1    2    0    0  0.15619247291E+03  0.14875263304E+03  0.84398072306E+02  0.24539437253E+03  0.81067435093E+02 0.  0.
         13    1    3    3    0    0  0.11900828899E+03  0.63692337963E+02  0.31721639972E+02  0.13865766912E+03  0.00000000000E+00 0. -1.
        -13    1    3    3    0    0  0.37184183920E+02  0.85060295074E+02  0.52676432334E+02  0.10673670341E+03  0.00000000000E+00 0.  1.
         22    1    1    2    0    0 -0.15619247291E+03 -0.14875263304E+03 -0.47832244648E+03  0.52470543854E+03  0.00000000000E+00 0. -1.
<mgrwt>
<rscale>  0 0.66172298E+03</rscale>
<asrwt>0</asrwt>
<pdfrwt beam="1">  1        3 0.89540320E-01 0.66172298E+03</pdfrwt>
<pdfrwt beam="2">  1       -3 0.28936573E-01 0.66172298E+03</pdfrwt>
<totfact> 0.34538915E+01</totfact>
</mgrwt>
</event>
<event>
 6    1  0.9906445E-006  0.1861321E+04  0.7818608E-02  0.8674352E-01
          1   -1    0    0  501    0  0.00000000000E+00  0.00000000000E+00  0.27571789996E+04  0.27571789996E+04  0.00000000000E+00 0. -1.
         -1   -1    0    0    0  501 -0.00000000000E+00 -0.00000000000E+00 -0.31413607789E+03  0.31413607789E+03  0.00000000000E+00 0.  1.
         23    2    1    2    0    0  0.39794696123E+03 -0.10233858346E+03  0.25985055367E+04  0.26319933341E+04  0.79516771507E+02 0.  0.
         13    1    3    3    0    0  0.27221248495E+03 -0.84475948403E+02  0.19961726241E+04  0.20164178555E+04  0.00000000000E+00 0. -1.
        -13    1    3    3    0    0  0.12573447628E+03 -0.17862635056E+02  0.60233291261E+03  0.61557547861E+03  0.00000000000E+00 0.  1.
         22    1    1    2    0    0 -0.39794696123E+03  0.10233858346E+03 -0.15546261492E+03  0.43932174343E+03  0.00000000000E+00 0.  1.
<mgrwt>
<rscale>  0 0.18613215E+04</rscale>
<asrwt>0</asrwt>
<pdfrwt beam="1">  1        1 0.42418137E+00 0.18613215E+04</pdfrwt>
<pdfrwt beam="2">  1       -1 0.48328629E-01 0.18613215E+04</pdfrwt>
<totfact> 0.35992777E+00</totfact>
</mgrwt>
</event>
<event>
 6    1  0.9906445E-006  0.1884588E+04  0.7818608E-02  0.8662566E-01
          2   -1    0    0  501    0  0.00000000000E+00  0.00000000000E+00  0.15031638771E+04  0.15031638771E+04  0.00000000000E+00 0. -1.
         -2   -1    0    0    0  501 -0.00000000000E+00 -0.00000000000E+00 -0.59069949553E+03  0.59069949553E+03  0.00000000000E+00 0.  1.
         23    2    1    2    0    0  0.75163022269E+03  0.56179525775E+03  0.52323722611E+03  0.10779599905E+04  0.87513673492E+02 0.  0.
         13    1    3    3    0    0  0.48878743422E+03  0.40309816173E+03  0.38379789001E+03  0.74074429071E+03  0.00000000000E+00 0.  1.
        -13    1    3    3    0    0  0.26284278847E+03  0.15869709601E+03  0.13943933610E+03  0.33721569979E+03  0.00000000000E+00 0. -1.
         22    1    1    2    0    0 -0.75163022269E+03 -0.56179525775E+03  0.38922715546E+03  0.10159033821E+04  0.00000000000E+00 0. -1.
<mgrwt>
<rscale>  0 0.18845882E+04</rscale>
<asrwt>0</asrwt>
<pdfrwt beam="1">  1        2 0.23125598E+00 0.18845882E+04</pdfrwt>
<pdfrwt beam="2">  1       -2 0.90876846E-01 0.18845882E+04</pdfrwt>
<totfact> 0.12250714E+01</totfact>
</mgrwt>
</event>
<event>
 6    1  0.9906445E-006  0.2691666E+04  0.7818608E-02  0.8337714E-01
         -2   -1    0    0    0  501 -0.00000000000E+00  0.00000000000E+00  0.40141682725E+03  0.40141682725E+03  0.00000000000E+00 0. -1.
          2   -1    0    0  501    0  0.00000000000E+00 -0.00000000000E+00 -0.45121835659E+04  0.45121835659E+04  0.00000000000E+00 0.  1.
         23    2    1    2    0    0 -0.57215781603E+02  0.78365501215E+03 -0.40489205504E+04  0.41254292349E+04  0.89554033867E+02 0.  0.
         11    1    3    3    0    0  0.89908048384E+01  0.14918691538E+03 -0.93103890940E+03  0.94295865292E+03  0.00000000000E+00 0. -1.
        -11    1    3    3    0    0 -0.66206586441E+02  0.63446809677E+03 -0.31178816410E+04  0.31824705820E+04  0.00000000000E+00 0.  1.
         22    1    1    2    0    0  0.57215781603E+02 -0.78365501215E+03 -0.61846188277E+02  0.78817115827E+03  0.00000000000E+00 0. -1.
<mgrwt>
<rscale>  0 0.26916660E+04</rscale>
<asrwt>0</asrwt>
<pdfrwt beam="1">  1        2 0.69418210E+00 0.26916660E+04</pdfrwt>
<pdfrwt beam="2">  1       -2 0.61756434E-01 0.26916660E+04</pdfrwt>
<totfact> 0.25679749E-01</totfact>
</mgrwt>
</event>
<event>
 6    1  0.9906445E-006  0.1538367E+04  0.7818608E-02  0.8859333E-01
          1   -1    0    0  501    0  0.00000000000E+00  0.00000000000E+00  0.11419161195E+04  0.11419161195E+04  0.00000000000E+00 0. -1.
         -1   -1    0    0    0  501 -0.00000000000E+00 -0.00000000000E+00 -0.51811434211E+03  0.51811434211E+03  0.00000000000E+00 0.  1.
         23    2    1    2    0    0 -0.66186232065E+02 -0.47436351760E+03  0.95871778790E+03  0.10755904747E+04  0.91398622995E+02 0.  0.
         13    1    3    3    0    0 -0.70120715823E+02 -0.24717869682E+03  0.57210740507E+03  0.62715317577E+03  0.00000000000E+00 0. -1.
        -13    1    3    3    0    0  0.39344837587E+01 -0.22718482078E+03  0.38661038284E+03  0.44843729893E+03  0.00000000000E+00 0.  1.
         22    1    1    2    0    0  0.66186232065E+02  0.47436351760E+03 -0.33491601054E+03  0.58443998688E+03  0.00000000000E+00 0.  1.
<mgrwt>
<rscale>  0 0.15383668E+04</rscale>
<asrwt>0</asrwt>
<pdfrwt beam="1">  1        1 0.17567940E+00 0.15383668E+04</pdfrwt>
<pdfrwt beam="2">  1       -1 0.79709899E-01 0.15383668E+04</pdfrwt>
<totfact> 0.17882439E+01</totfact>
</mgrwt>
</event>
<event>
 6    1  0.9906445E-006  0.2816438E+04  0.7818608E-02  0.8298183E-01
         -2   -1    0    0    0  501 -0.00000000000E+00  0.00000000000E+00  0.18280551479E+04  0.18280551479E+04  0.00000000000E+00 0.  1.
          2   -1    0    0  501    0  0.00000000000E+00 -0.00000000000E+00 -0.10848036860E+04  0.10848036860E+04  0.00000000000E+00 0. -1.
         23    2    1    2    0    0 -0.44133882490E+03  0.95584414570E+03  0.13370214070E+04  0.17041484728E+04  0.89876501063E+02 0.  0.
         11    1    3    3    0    0 -0.32883805300E+03  0.67054523024E+03  0.88660362821E+03  0.11592374064E+04  0.00000000000E+00 0. -1.
        -11    1    3    3    0    0 -0.11250077189E+03  0.28529891545E+03  0.45041777881E+03  0.54491106641E+03  0.00000000000E+00 0.  1.
         22    1    1    2    0    0  0.44133882490E+03 -0.95584414570E+03 -0.59376994505E+03  0.12087103610E+04  0.00000000000E+00 0. -1.
<mgrwt>
<rscale>  0 0.28164381E+04</rscale>
<asrwt>0</asrwt>
<pdfrwt beam="1">  1        2 0.16689288E+00 0.28164381E+04</pdfrwt>
<pdfrwt beam="2">  1       -2 0.28123925E+00 0.28164381E+04</pdfrwt>
<totfact> 0.80066415E-01</totfact>
</mgrwt>
</event>
<event>
 6    1  0.9906445E-006  0.3974948E+04  0.7818608E-02  0.8009620E-01
         -2   -1    0    0    0  501 -0.00000000000E+00  0.00000000000E+00  0.11575032301E+04  0.11575032301E+04  0.00000000000E+00 0.  1.
          2   -1    0    0  501    0  0.00000000000E+00 -0.00000000000E+00 -0.34125629394E+04  0.34125629394E+04  0.00000000000E+00 0. -1.
         23    2    1    2    0    0 -0.40519009036E+03 -0.18411317278E+04 -0.40824301264E+03  0.19309987283E+04  0.90270056111E+02 0.  0.
         13    1    3    3    0    0 -0.14894302239E+03 -0.56361466979E+03 -0.16098956460E+03  0.60478356445E+03  0.00000000000E+00 0. -1.
        -13    1    3    3    0    0 -0.25624706796E+03 -0.12775170580E+04 -0.24725344804E+03  0.13262151639E+04  0.00000000000E+00 0.  1.
         22    1    1    2    0    0  0.40519009036E+03  0.18411317278E+04 -0.18468166966E+04  0.26390674412E+04  0.00000000000E+00 0.  1.
<mgrwt>
<rscale>  0 0.39749479E+04</rscale>
<asrwt>0</asrwt>
<pdfrwt beam="1">  1        2 0.52500968E+00 0.39749479E+04</pdfrwt>
<pdfrwt beam="2">  1       -2 0.17807742E+00 0.39749479E+04</pdfrwt>
<totfact> 0.13793841E-01</totfact>
</mgrwt>
</event>
<event>
 6    1  0.9906445E-006  0.1531234E+04  0.7818608E-02  0.8863944E-01
         -2   -1    0    0    0  501 -0.00000000000E+00  0.00000000000E+00  0.83125396921E+03  0.83125396921E+03  0.00000000000E+00 0.  1.
          2   -1    0    0  501    0  0.00000000000E+00 -0.00000000000E+00 -0.70516277951E+03  0.70516277951E+03  0.00000000000E+00 0. -1.
         23    2    1    2    0    0 -0.61563366444E+03 -0.43472348574E+03  0.18166124624E+03  0.78072015019E+03  0.92378713426E+02 0.  0.
         13    1    3    3    0    0 -0.87262255545E+02 -0.39523539996E+02  0.49377429590E+02  0.10777264036E+03  0.00000000000E+00 0.  1.
        -13    1    3    3    0    0 -0.52837140889E+03 -0.39519994574E+03  0.13228381665E+03  0.67294750984E+03  0.00000000000E+00 0. -1.
         22    1    1    2    0    0  0.61563366444E+03  0.43472348574E+03 -0.55570056535E+02  0.75569659853E+03  0.00000000000E+00 0. -1.
<mgrwt>
<rscale>  0 0.15312340E+04</rscale>
<asrwt>0</asrwt>
<pdfrwt beam="1">  1        2 0.10848658E+00 0.15312340E+04</pdfrwt>
<pdfrwt beam="2">  1       -2 0.12788523E+00 0.15312340E+04</pdfrwt>
<totfact> 0.17708956E+01</totfact>
</mgrwt>
</event>
<event>
 6    1  0.9906445E-006  0.1403079E+04  0.7818608E-02  0.8951593E-01
          1   -1    0    0  501    0  0.00000000000E+00  0.00000000000E+00  0.13145819032E+04  0.13145819032E+04  0.00000000000E+00 0. -1.
         -1   -1    0    0    0  501 -0.00000000000E+00 -0.00000000000E+00 -0.37438344220E+03  0.37438344220E+03  0.00000000000E+00 0.  1.
         23    2    1    2    0    0 -0.44528336067E+03  0.23596080245E+03  0.10549825431E+04  0.11721189881E+04  0.83186444327E+02 0.  0.
         11    1    3    3    0    0 -0.35564431923E+03  0.21246934530E+03  0.80161469942E+03  0.90233709378E+03  0.00000000000E+00 0.  1.
        -11    1    3    3    0    0 -0.89639041443E+02  0.23491457152E+02  0.25336784367E+03  0.26978189434E+03  0.00000000000E+00 0. -1.
         22    1    1    2    0    0  0.44528336067E+03 -0.23596080245E+03 -0.11478408204E+03  0.51684635732E+03  0.00000000000E+00 0.  1.
<mgrwt>
<rscale>  0 0.14030790E+04</rscale>
<asrwt>0</asrwt>
<pdfrwt beam="1">  1        1 0.20224337E+00 0.14030790E+04</pdfrwt>
<pdfrwt beam="2">  1       -1 0.57597453E-01 0.14030790E+04</pdfrwt>
<totfact> 0.26281518E+01</totfact>
</mgrwt>
</event>
<event>
 6    1  0.9906445E-006  0.3848767E+04  0.7818608E-02  0.8035770E-01
         -1   -1    0    0    0  501 -0.00000000000E+00  0.00000000000E+00  0.13461344432E+04  0.13461344432E+04  0.00000000000E+00 0.  1.
          1   -1    0    0  501    0  0.00000000000E+00 -0.00000000000E+00 -0.27510263084E+04  0.27510263084E+04  0.00000000000E+00 0. -1.
         23    2    1    2    0    0 -0.11427499920E+04  0.13832436141E+04 -0.14402499494E+04  0.23025882023E+04  0.91389674197E+02 0.  0.
         13    1    3    3    0    0 -0.92023622600E+02  0.12662654333E+03 -0.96256859286E+02  0.18376074540E+03  0.00000000000E+00 0. -1.
        -13    1    3    3    0    0 -0.10507263694E+04  0.12566170708E+04 -0.13439930901E+04  0.21188274569E+04  0.00000000000E+00 0.  1.
         22    1    1    2    0    0  0.11427499920E+04 -0.13832436141E+04  0.35358084155E+02  0.17945725492E+04  0.00000000000E+00 0.  1.
<mgrwt>
<rscale>  0 0.38487667E+04</rscale>
<asrwt>0</asrwt>
<pdfrwt beam="1">  1        1 0.42323481E+00 0.38487667E+04</pdfrwt>
<pdfrwt beam="2">  1       -1 0.20709761E+00 0.38487667E+04</pdfrwt>
<totfact> 0.96253581E-02</totfact>
</mgrwt>
</event>
<event>
 6    1  0.9906445E-006  0.2226532E+04  0.7818608E-02  0.8507465E-01
          2   -1    0    0  501    0  0.00000000000E+00  0.00000000000E+00  0.84611995653E+03  0.84611995653E+03  0.00000000000E+00 0. -1.
         -2   -1    0    0    0  501 -0.00000000000E+00 -0.00000000000E+00 -0.14647584515E+04  0.14647584515E+04  0.00000000000E+00 0.  1.
         23    2    1    2    0    0  0.49883814932E+03 -0.27935515318E+03  0.67855117317E+03  0.89328190834E+03  0.10316042037E+03 0.  0.
         13    1    3    3    0    0  0.41095402218E+03 -0.18095148200E+03  0.52355120251E+03  0.68973365065E+03  0.00000000000E+00 0.  1.
        -13    1    3    3    0    0  0.87884127133E+02 -0.98403671184E+02  0.15499997066E+03  0.20354825769E+03  0.00000000000E+00 0. -1.
         22    1    1    2    0    0 -0.49883814932E+03  0.27935515318E+03 -0.12971896681E+04  0.14175964997E+04  0.00000000000E+00 0.  1.
<mgrwt>
<rscale>  0 0.22265322E+04</rscale>
<asrwt>0</asrwt>
<pdfrwt beam="1">  1        2 0.13017230E+00 0.22265322E+04</pdfrwt>
<pdfrwt beam="2">  1       -2 0.22534745E+00 0.22265322E+04</pdfrwt>
<totfact> 0.26627445E+00</totfact>
</mgrwt>
</event>
<event>
 6    1  0.9906445E-006  0.1455200E+04  0.7818608E-02  0.8914803E-01
          1   -1    0    0  501    0  0.00000000000E+00  0.00000000000E+00  0.13558954083E+04  0.13558954083E+04  0.00000000000E+00 0. -1.
         -1   -1    0    0    0  501 -0.00000000000E+00 -0.00000000000E+00 -0.39044447074E+03  0.39044447074E+03  0.00000000000E+00 0.  1.
         23    2    1    2    0    0 -0.52931236924E+02 -0.21717806765E+03  0.13119427582E+04  0.13339994727E+04  0.91612026678E+02 0.  0.
         11    1    3    3    0    0 -0.67886602692E+02 -0.12861847972E+03  0.95067215235E+03  0.96173221086E+03  0.00000000000E+00 0.  1.
        -11    1    3    3    0    0  0.14955365767E+02 -0.88559587926E+02  0.36127060585E+03  0.37226726183E+03  0.00000000000E+00 0. -1.
         22    1    1    2    0    0  0.52931236924E+02  0.21717806765E+03 -0.34649182066E+03  0.41234040634E+03  0.00000000000E+00 0.  1.
<mgrwt>
<rscale>  0 0.14552001E+04</rscale>
<asrwt>0</asrwt>
<pdfrwt beam="1">  1        1 0.20859929E+00 0.14552001E+04</pdfrwt>
<pdfrwt beam="2">  1       -1 0.60068381E-01 0.14552001E+04</pdfrwt>
<totfact> 0.22516332E+01</totfact>
</mgrwt>
</event>
<event>
 6    1  0.9906445E-006  0.4339563E+04  0.7818608E-02  0.7939343E-01
         -1   -1    0    0    0  501 -0.00000000000E+00  0.00000000000E+00  0.28156527165E+04  0.28156527165E+04  0.00000000000E+00 0.  1.
          1   -1    0    0  501    0  0.00000000000E+00 -0.00000000000E+00 -0.16720639544E+04  0.16720639544E+04  0.00000000000E+00 0. -1.
         23    2    1    2    0    0 -0.11604085791E+03  0.33559546450E+03  0.27846644577E+04  0.28086635939E+04  0.90251011048E+02 0.  0.
         13    1    3    3    0    0 -0.45479341823E+01  0.11518381316E+03  0.70179538571E+03  0.71119952048E+03  0.00000000000E+00 0.  1.
        -13    1    3    3    0    0 -0.11149292372E+03  0.22041165134E+03  0.20828690720E+04  0.20974640734E+04  0.00000000000E+00 0. -1.
         22    1    1    2    0    0  0.11604085791E+03 -0.33559546450E+03 -0.16410756957E+04  0.16790530770E+04  0.00000000000E+00 0. -1.
<mgrwt>
<rscale>  0 0.43395628E+04</rscale>
<asrwt>0</asrwt>
<pdfrwt beam="1">  1        1 0.25724061E+00 0.43395628E+04</pdfrwt>
<pdfrwt beam="2">  1       -1 0.43317734E+00 0.43395628E+04</pdfrwt>
<totfact> 0.16033021E-02</totfact>
</mgrwt>
</event>
<event>
 6    1  0.9906445E-006  0.1377888E+04  0.7818608E-02  0.8969982E-01
          2   -1    0    0  501    0  0.00000000000E+00  0.00000000000E+00  0.17666952440E+04  0.17666952440E+04  0.00000000000E+00 0. -1.
         -2   -1    0    0    0  501 -0.00000000000E+00 -0.00000000000E+00 -0.26866190701E+03  0.26866190701E+03  0.00000000000E+00 0.  1.
         23    2    1    2    0    0 -0.21751491280E+03  0.44158441872E+03  0.14578880814E+04  0.15414733816E+04  0.91613275145E+02 0.  0.
         11    1    3    3    0    0 -0.10033512168E+03  0.29770889177E+03  0.96246868759E+03  0.10124444160E+04  0.00000000000E+00 0. -1.
        -11    1    3    3    0    0 -0.11717979112E+03  0.14387552695E+03  0.49541939379E+03  0.52902896560E+03  0.00000000000E+00 0.  1.
         22    1    1    2    0    0  0.21751491280E+03 -0.44158441872E+03  0.40145255618E+02  0.49388376942E+03  0.00000000000E+00 0.  1.
<mgrwt>
<rscale>  0 0.13778878E+04</rscale>
<asrwt>0</asrwt>
<pdfrwt beam="1">  1        2 0.27179926E+00 0.13778878E+04</pdfrwt>
<pdfrwt beam="2">  1       -2 0.41332602E-01 0.13778878E+04</pdfrwt>
<totfact> 0.48673101E+01</totfact>
</mgrwt>
</event>
<event>
 6    1  0.9906445E-006  0.5815181E+04  0.7818608E-02  0.7713749E-01
          2   -1    0    0  501    0  0.00000000000E+00  0.00000000000E+00  0.45867301781E+04  0.45867301781E+04  0.00000000000E+00 0. -1.
         -2   -1    0    0    0  501 -0.00000000000E+00 -0.00000000000E+00 -0.18431613339E+04  0.18431613339E+04  0.00000000000E+00 0.  1.
         23    2    1    2    0    0  0.15539677904E+04  0.23459359055E+04  0.56590223452E+03  0.28717370705E+04  0.91636765652E+02 0.  0.
         11    1    3    3    0    0  0.18449797959E+03  0.25283787343E+03  0.37522516950E+02  0.31523710758E+03  0.00000000000E+00 0. -1.
        -11    1    3    3    0    0  0.13694698108E+04  0.20930980321E+04  0.52837971757E+03  0.25564999629E+04  0.00000000000E+00 0.  1.
         22    1    1    2    0    0 -0.15539677904E+04 -0.23459359055E+04  0.21776666097E+04  0.35581544415E+04  0.00000000000E+00 0.  1.
<mgrwt>
<rscale>  0 0.58151814E+04</rscale>
<asrwt>0</asrwt>
<pdfrwt beam="1">  1        2 0.70565079E+00 0.58151814E+04</pdfrwt>
<pdfrwt beam="2">  1       -2 0.28356328E+00 0.58151814E+04</pdfrwt>
<totfact> 0.27222319E-03</totfact>
</mgrwt>
</event>
<event>
 6    1  0.9906445E-006  0.1755416E+04  0.7818608E-02  0.8730375E-01
          1   -1    0    0  501    0  0.00000000000E+00  0.00000000000E+00  0.58793381034E+03  0.58793381034E+03  0.00000000000E+00 0. -1.
         -1   -1    0    0    0  501 -0.00000000000E+00 -0.00000000000E+00 -0.13103031655E+04  0.13103031655E+04  0.00000000000E+00 0.  1.
         23    2    1    2    0    0 -0.12825790696E+03  0.58591896427E+03  0.32739935855E+03  0.68920204017E+03  0.89766301082E+02 0.  0.
         11    1    3    3    0    0 -0.70339482238E+02  0.47713878244E+03  0.24502034310E+03  0.54096582979E+03  0.00000000000E+00 0.  1.
        -11    1    3    3    0    0 -0.57918424723E+02  0.10878018183E+03  0.82379015453E+02  0.14823621038E+03  0.00000000000E+00 0. -1.
         22    1    1    2    0    0  0.12825790696E+03 -0.58591896427E+03 -0.10497687137E+04  0.12090349357E+04  0.00000000000E+00 0.  1.
<mgrwt>
<rscale>  0 0.17554162E+04</rscale>
<asrwt>0</asrwt>
<pdfrwt beam="1">  1        1 0.90451357E-01 0.17554162E+04</pdfrwt>
<pdfrwt beam="2">  1       -1 0.20158510E+00 0.17554162E+04</pdfrwt>
<totfact> 0.49018377E+00</totfact>
</mgrwt>
</event>
<event>
 6    1  0.9906445E-006  0.1577999E+04  0.7818608E-02  0.8834179E-01
          2   -1    0    0  501    0  0.00000000000E+00  0.00000000000E+00  0.30986474619E+04  0.30986474619E+04  0.00000000000E+00 0. -1.
         -2   -1    0    0    0  501 -0.00000000000E+00 -0.00000000000E+00 -0.20090050992E+03  0.20090050992E+03  0.00000000000E+00 0.  1.
         23    2    1    2    0    0 -0.14922580878E+03  0.76774218425E+03  0.12819808576E+04  0.15044444999E+04  0.90454023024E+02 0.  0.
         13    1    3    3    0    0 -0.35957870637E+02  0.39258390387E+03  0.60117363617E+03  0.71890530035E+03  0.00000000000E+00 0.  1.
        -13    1    3    3    0    0 -0.11326793814E+03  0.37515828039E+03  0.68080722147E+03  0.78553919951E+03  0.00000000000E+00 0. -1.
         22    1    1    2    0    0  0.14922580878E+03 -0.76774218425E+03  0.16157660943E+04  0.17951034719E+04  0.00000000000E+00 0.  1.
<mgrwt>
<rscale>  0 0.15779985E+04</rscale>
<asrwt>0</asrwt>
<pdfrwt beam="1">  1        2 0.47671496E+00 0.15779985E+04</pdfrwt>
<pdfrwt beam="2">  1       -2 0.30907773E-01 0.15779985E+04</pdfrwt>
<totfact> 0.14148207E+01</totfact>
</mgrwt>
</event>
<event>
 6    1  0.9906445E-006  0.2187472E+04  0.7818608E-02  0.8523661E-01
         -1   -1    0    0    0  501 -0.00000000000E+00  0.00000000000E+00  0.80376900554E+03  0.80376900554E+03  0.00000000000E+00 0.  1.
          1   -1    0    0  501    0  0.00000000000E+00 -0.00000000000E+00 -0.14883114004E+04  0.14883114004E+04  0.00000000000E+00 0. -1.
         23    2    1    2    0    0  0.34198350411E+02 -0.93549738555E+03  0.24592865725E+03  0.97219356824E+03  0.91403195392E+02 0.  0.
         11    1    3    3    0    0 -0.96671867323E+01 -0.11065379141E+03  0.26620319842E+01  0.11110716658E+03  0.00000000000E+00 0.  1.
        -11    1    3    3    0    0  0.43865537144E+02 -0.82484359414E+03  0.24326662527E+03  0.86108640166E+03  0.00000000000E+00 0. -1.
         22    1    1    2    0    0 -0.34198350411E+02  0.93549738555E+03 -0.93047105212E+03  0.13198868377E+04  0.00000000000E+00 0. -1.
<mgrwt>
<rscale>  0 0.21874721E+04</rscale>
<asrwt>0</asrwt>
<pdfrwt beam="1">  1        1 0.22897098E+00 0.21874721E+04</pdfrwt>
<pdfrwt beam="2">  1       -1 0.12365677E+00 0.21874721E+04</pdfrwt>
<totfact> 0.34971535E+00</totfact>
</mgrwt>
</event>
<event>
 6    1  0.9906445E-006  0.2256534E+04  0.7818608E-02  0.8495259E-01
         -1   -1    0    0    0  501 -0.00000000000E+00  0.00000000000E+00  0.10001147437E+04  0.10001147437E+04  0.00000000000E+00 0.  1.
          1   -1    0    0  501    0  0.00000000000E+00 -0.00000000000E+00 -0.12728404323E+04  0.12728404323E+04  0.00000000000E+00 0. -1.
         23    2    1    2    0    0  0.62571641526E+03 -0.19395300441E+03  0.78653401067E+03  0.10274954573E+04  0.89288099104E+02 0.  0.
         11    1    3    3    0    0  0.65127472902E+02 -0.33301307624E+02  0.52628650744E+02  0.90112927459E+02  0.00000000000E+00 0. -1.
        -11    1    3    3    0    0  0.56058894236E+03 -0.16065169679E+03  0.73390535993E+03  0.93738252987E+03  0.00000000000E+00 0.  1.
         22    1    1    2    0    0 -0.62571641526E+03  0.19395300441E+03 -0.10592596992E+04  0.12454597186E+04  0.00000000000E+00 0. -1.
<mgrwt>
<rscale>  0 0.22565341E+04</rscale>
<asrwt>0</asrwt>
<pdfrwt beam="1">  1        1 0.19582160E+00 0.22565341E+04</pdfrwt>
<pdfrwt beam="2">  1       -1 0.15386381E+00 0.22565341E+04</pdfrwt>
<totfact> 0.27951875E+00</totfact>
</mgrwt>
</event>
<event>
 6    1  0.9906445E-006  0.2763546E+04  0.7818608E-02  0.8314676E-01
         -2   -1    0    0    0  501 -0.00000000000E+00  0.00000000000E+00  0.10648585534E+04  0.10648585534E+04  0.00000000000E+00 0.  1.
          2   -1    0    0  501    0  0.00000000000E+00 -0.00000000000E+00 -0.17930052985E+04  0.17930052985E+04  0.00000000000E+00 0. -1.
         23    2    1    2    0    0  0.53031461796E+03  0.29598487804E+03 -0.16462162682E+04  0.17570948973E+04  0.92270442260E+02 0.  0.
         13    1    3    3    0    0  0.41545381772E+03  0.18952460189E+03 -0.11798566544E+04  0.12651415630E+04  0.00000000000E+00 0.  1.
        -13    1    3    3    0    0  0.11486080024E+03  0.10646027615E+03 -0.46635961373E+03  0.49195333432E+03  0.00000000000E+00 0. -1.
         22    1    1    2    0    0 -0.53031461796E+03 -0.29598487804E+03  0.91806952308E+03  0.11007689545E+04  0.00000000000E+00 0.  1.
<mgrwt>
<rscale>  0 0.27635463E+04</rscale>
<asrwt>0</asrwt>
<pdfrwt beam="1">  1        2 0.27584697E+00 0.27635463E+04</pdfrwt>
<pdfrwt beam="2">  1       -2 0.16382439E+00 0.27635463E+04</pdfrwt>
<totfact> 0.17944101E+00</totfact>
</mgrwt>
</event>
<event>
 6    1  0.9906445E-006  0.1510726E+04  0.7818608E-02  0.8877352E-01
          2   -1    0    0  501    0  0.00000000000E+00  0.00000000000E+00  0.14698061750E+04  0.14698061750E+04  0.00000000000E+00 0. -1.
         -2   -1    0    0    0  501 -0.00000000000E+00 -0.00000000000E+00 -0.38819608835E+03  0.38819608835E+03  0.00000000000E+00 0.  1.
         23    2    1    2    0    0  0.71863950613E+03  0.22245030417E+03  0.57172998581E+03  0.94920933047E+03  0.90533412588E+02 0.  0.
         13    1    3    3    0    0  0.26113364441E+03  0.95279018786E+02  0.16011058307E+03  0.32078695497E+03  0.00000000000E+00 0. -1.
        -13    1    3    3    0    0  0.45750586171E+03  0.12717128538E+03  0.41161940274E+03  0.62842237551E+03  0.00000000000E+00 0.  1.
         22    1    1    2    0    0 -0.71863950613E+03 -0.22245030417E+03  0.50988010082E+03  0.90879293285E+03  0.00000000000E+00 0.  1.
<mgrwt>
<rscale>  0 0.15107257E+04</rscale>
<asrwt>0</asrwt>
<pdfrwt beam="1">  1        2 0.22612402E+00 0.15107257E+04</pdfrwt>
<pdfrwt beam="2">  1       -2 0.59722476E-01 0.15107257E+04</pdfrwt>
<totfact> 0.33335037E+01</totfact>
</mgrwt>
</event>
<event>
 6    1  0.9906445E-006  0.1383936E+04  0.7818608E-02  0.8965529E-01
          1   -1    0    0  501    0  0.00000000000E+00  0.00000000000E+00  0.27461996063E+04  0.27461996063E+04  0.00000000000E+00 0. -1.
         -1   -1    0    0    0  501 -0.00000000000E+00 -0.00000000000E+00 -0.17435733425E+03  0.17435733425E+03  0.00000000000E+00 0.  1.
         23    2    1    2    0    0  0.38474669451E+03  0.15171188265E+03  0.13434529600E+03  0.44822241170E+03  0.10866534645E+03 0.  0.
         11    1    3    3    0    0  0.18027779375E+03  0.11806522358E+03  0.10227546811E+03  0.23853668756E+03  0.00000000000E+00 0. -1.
        -11    1    3    3    0    0  0.20446890076E+03  0.33646659069E+02  0.32069827895E+02  0.20968572414E+03  0.00000000000E+00 0.  1.
         22    1    1    2    0    0 -0.38474669451E+03 -0.15171188265E+03  0.24374969761E+04  0.24723345289E+04  0.00000000000E+00 0. -1.
<mgrwt>
<rscale>  0 0.13839365E+04</rscale>
<asrwt>0</asrwt>
<pdfrwt beam="1">  1        1 0.42249222E+00 0.13839365E+04</pdfrwt>
<pdfrwt beam="2">  1       -1 0.26824207E-01 0.13839365E+04</pdfrwt>
<totfact> 0.11085428E+01</totfact>
</mgrwt>
</event>
<event>
 6    1  0.9906445E-006  0.9611308E+03  0.7818608E-02  0.9352234E-01
         -1   -1    0    0    0  501 -0.00000000000E+00  0.00000000000E+00  0.16923417887E+03  0.16923417887E+03  0.00000000000E+00 0.  1.
          1   -1    0    0  501    0  0.00000000000E+00 -0.00000000000E+00 -0.13646362444E+04  0.13646362444E+04  0.00000000000E+00 0. -1.
         23    2    1    2    0    0 -0.43843481106E+03 -0.58765510656E+02 -0.32288179335E+03  0.55562194043E+03  0.93726300565E+02 0.  0.
         13    1    3    3    0    0 -0.23700181846E+03 -0.27657766949E+02 -0.23078906983E+03  0.33196145676E+03  0.00000000000E+00 0. -1.
        -13    1    3    3    0    0 -0.20143299261E+03 -0.31107743707E+02 -0.92092723520E+02  0.22366048367E+03  0.00000000000E+00 0.  1.
         22    1    1    2    0    0  0.43843481106E+03  0.58765510656E+02 -0.87252027220E+03  0.97824848285E+03  0.00000000000E+00 0. -1.
<mgrwt>
<rscale>  0 0.96113078E+03</rscale>
<asrwt>0</asrwt>
<pdfrwt beam="1">  1        1 0.20994404E+00 0.96113078E+03</pdfrwt>
<pdfrwt beam="2">  1       -1 0.26036027E-01 0.96113078E+03</pdfrwt>
<totfact> 0.10672186E+02</totfact>
</mgrwt>
</event>
<event>
 6    1  0.9906445E-006  0.2896986E+04  0.7818608E-02  0.8273775E-01
         -2   -1    0    0    0  501 -0.00000000000E+00  0.00000000000E+00  0.66546286311E+03  0.66546286311E+03  0.00000000000E+00 0.  1.
          2   -1    0    0  501    0  0.00000000000E+00 -0.00000000000E+00 -0.31528915571E+04  0.31528915571E+04  0.00000000000E+00 0. -1.
         23    2    1    2    0    0  0.38951794631E+03  0.83416365512E+03 -0.27163718536E+04  0.28696878800E+04  0.94229760478E+02 0.  0.
         11    1    3    3    0    0  0.26781455817E+02  0.86677003057E+02 -0.19785490250E+03  0.21766192060E+03  0.00000000000E+00 0. -1.
        -11    1    3    3    0    0  0.36273649049E+03  0.74748665206E+03 -0.25185169511E+04  0.26520259594E+04  0.00000000000E+00 0.  1.
         22    1    1    2    0    0 -0.38951794631E+03 -0.83416365512E+03  0.22894315965E+03  0.94866654014E+03  0.00000000000E+00 0.  1.
<mgrwt>
<rscale>  0 0.28969862E+04</rscale>
<asrwt>0</asrwt>
<pdfrwt beam="1">  1        2 0.48506024E+00 0.28969862E+04</pdfrwt>
<pdfrwt beam="2">  1       -2 0.10237890E+00 0.28969862E+04</pdfrwt>
<totfact> 0.93763297E-01</totfact>
</mgrwt>
</event>
<event>
 6    1  0.9906445E-006  0.1258946E+04  0.7818608E-02  0.9062770E-01
          2   -1    0    0  501    0  0.00000000000E+00  0.00000000000E+00  0.15917578916E+04  0.15917578916E+04  0.00000000000E+00 0. -1.
         -2   -1    0    0    0  501 -0.00000000000E+00 -0.00000000000E+00 -0.24893014189E+03  0.24893014189E+03  0.00000000000E+00 0.  1.
         23    2    1    2    0    0  0.19008409469E+03  0.31722079004E+03  0.14137006527E+04  0.14641459228E+04  0.91721072502E+02 0.  0.
         11    1    3    3    0    0  0.15002914374E+03  0.16383299748E+03  0.79442829346E+03  0.82490381771E+03  0.00000000000E+00 0. -1.
        -11    1    3    3    0    0  0.40054950957E+02  0.15338779256E+03  0.61927235926E+03  0.63924210511E+03  0.00000000000E+00 0.  1.
         22    1    1    2    0    0 -0.19008409469E+03 -0.31722079004E+03 -0.70872903045E+02  0.37654211062E+03  0.00000000000E+00 0.  1.
<mgrwt>
<rscale>  0 0.12589464E+04</rscale>
<asrwt>0</asrwt>
<pdfrwt beam="1">  1        2 0.24488582E+00 0.12589464E+04</pdfrwt>
<pdfrwt beam="2">  1       -2 0.38296946E-01 0.12589464E+04</pdfrwt>
<totfact> 0.71304910E+01</totfact>
</mgrwt>
</event>
<event>
 6    1  0.9906445E-006  0.1506855E+04  0.7818608E-02  0.8879907E-01
         -3   -1    0    0    0  501 -0.00000000000E+00  0.00000000000E+00  0.12494442476E+04  0.12494442476E+04  0.00000000000E+00 0.  1.
          3   -1    0    0  501    0  0.00000000000E+00 -0.00000000000E+00 -0.45432459256E+03  0.45432459256E+03  0.00000000000E+00 0. -1.
         23    2    1    2    0    0  0.63515933255E+02  0.14129371113E+03  0.12295024028E+04  0.12425893109E+04  0.91399400726E+02 0.  0.
         11    1    3    3    0    0  0.63193953669E+02  0.32517457561E+02  0.49507906431E+03  0.50015411699E+03  0.00000000000E+00 0.  1.
        -11    1    3    3    0    0  0.32197958557E+00  0.10877625357E+03  0.73442333849E+03  0.74243519389E+03  0.00000000000E+00 0. -1.
         22    1    1    2    0    0 -0.63515933255E+02 -0.14129371113E+03 -0.43438274781E+03  0.46117952922E+03  0.00000000000E+00 0. -1.
<mgrwt>
<rscale>  0 0.15068553E+04</rscale>
<asrwt>0</asrwt>
<pdfrwt beam="1">  1        3 0.69896092E-01 0.15068553E+04</pdfrwt>
<pdfrwt beam="2">  1       -3 0.19222219E+00 0.15068553E+04</pdfrwt>
<totfact> 0.81354335E-01</totfact>
</mgrwt>
</event>
<event>
 6    1  0.9906445E-006  0.5792750E+04  0.7818608E-02  0.7716643E-01
          1   -1    0    0  501    0  0.00000000000E+00  0.00000000000E+00  0.36536581331E+04  0.36536581331E+04  0.00000000000E+00 0. -1.
         -1   -1    0    0    0  501 -0.00000000000E+00 -0.00000000000E+00 -0.22960517258E+04  0.22960517258E+04  0.00000000000E+00 0.  1.
         23    2    1    2    0    0 -0.10995549276E+04  0.70865805000E+03  0.33322990585E+04  0.35810333640E+04  0.91464027664E+02 0.  0.
         13    1    3    3    0    0 -0.23058730855E+03  0.17231585888E+03  0.82412127109E+03  0.87294852743E+03  0.00000000000E+00 0. -1.
        -13    1    3    3    0    0 -0.86896761901E+03  0.53634219112E+03  0.25081777874E+04  0.27080848366E+04  0.00000000000E+00 0.  1.
         22    1    1    2    0    0  0.10995549276E+04 -0.70865805000E+03 -0.19746926512E+04  0.23686764948E+04  0.00000000000E+00 0.  1.
<mgrwt>
<rscale>  0 0.57927500E+04</rscale>
<asrwt>0</asrwt>
<pdfrwt beam="1">  1        1 0.56210125E+00 0.57927500E+04</pdfrwt>
<pdfrwt beam="2">  1       -1 0.35323873E+00 0.57927500E+04</pdfrwt>
<totfact> 0.18859973E-03</totfact>
</mgrwt>
</event>
<event>
 6    1  0.9906445E-006  0.1860959E+04  0.7818608E-02  0.8674537E-01
          1   -1    0    0  501    0  0.00000000000E+00  0.00000000000E+00  0.10747649373E+04  0.10747649373E+04  0.00000000000E+00 0. -1.
         -1   -1    0    0    0  501 -0.00000000000E+00 -0.00000000000E+00 -0.80556410504E+03  0.80556410504E+03  0.00000000000E+00 0.  1.
         23    2    1    2    0    0  0.32520330432E+03 -0.38029624316E+03  0.92491169304E+03  0.10555023002E+04  0.90780196352E+02 0.  0.
         13    1    3    3    0    0  0.15479768677E+03 -0.15826615289E+03  0.49842125966E+03  0.54537533045E+03  0.00000000000E+00 0.  1.
        -13    1    3    3    0    0  0.17040561755E+03 -0.22203009027E+03  0.42649043338E+03  0.51012696972E+03  0.00000000000E+00 0. -1.
         22    1    1    2    0    0 -0.32520330432E+03  0.38029624316E+03 -0.65571086076E+03  0.82482674218E+03  0.00000000000E+00 0.  1.
<mgrwt>
<rscale>  0 0.18609590E+04</rscale>
<asrwt>0</asrwt>
<pdfrwt beam="1">  1        1 0.16534845E+00 0.18609590E+04</pdfrwt>
<pdfrwt beam="2">  1       -1 0.12393294E+00 0.18609590E+04</pdfrwt>
<totfact> 0.71113415E+00</totfact>
</mgrwt>
</event>
<event>
 6    1  0.9906445E-006  0.2285312E+04  0.7818608E-02  0.8483735E-01
          2   -1    0    0  501    0  0.00000000000E+00  0.00000000000E+00  0.97543292988E+03  0.97543292988E+03  0.00000000000E+00 0. -1.
         -2   -1    0    0    0  501 -0.00000000000E+00 -0.00000000000E+00 -0.13385465839E+04  0.13385465839E+04  0.00000000000E+00 0.  1.
         23    2    1    2    0    0  0.41528500470E+03 -0.59819078754E+03  0.70773049871E+03  0.10189887598E+04  0.84627302781E+02 0.  0.
         11    1    3    3    0    0  0.20281351617E+03 -0.30732320365E+03  0.30014009705E+03  0.47504205256E+03  0.00000000000E+00 0. -1.
        -11    1    3    3    0    0  0.21247148853E+03 -0.29086758389E+03  0.40759040166E+03  0.54394670724E+03  0.00000000000E+00 0.  1.
         22    1    1    2    0    0 -0.41528500470E+03  0.59819078754E+03 -0.10708441527E+04  0.12949907539E+04  0.00000000000E+00 0.  1.
<mgrwt>
<rscale>  0 0.22853117E+04</rscale>
<asrwt>0</asrwt>
<pdfrwt beam="1">  1        2 0.15006661E+00 0.22853117E+04</pdfrwt>
<pdfrwt beam="2">  1       -2 0.20593024E+00 0.22853117E+04</pdfrwt>
<totfact> 0.28845018E+00</totfact>
</mgrwt>
</event>
<event>
 6    1  0.9906445E-006  0.3305335E+04  0.7818608E-02  0.8161539E-01
         -2   -1    0    0    0  501 -0.00000000000E+00  0.00000000000E+00  0.95352158270E+03  0.95352158270E+03  0.00000000000E+00 0. -1.
          2   -1    0    0  501    0  0.00000000000E+00 -0.00000000000E+00 -0.28644443592E+04  0.28644443592E+04  0.00000000000E+00 0.  1.
         23    2    1    2    0    0  0.11153583185E+04 -0.71406854492E+03 -0.20956858320E+04  0.24807840350E+04  0.92044860619E+02 0.  0.
         13    1    3    3    0    0  0.20854259397E+03 -0.10003206406E+03 -0.40501224281E+03  0.46640255592E+03  0.00000000000E+00 0.  1.
        -13    1    3    3    0    0  0.90681572456E+03 -0.61403648086E+03 -0.16906735892E+04  0.20143814791E+04  0.00000000000E+00 0. -1.
         22    1    1    2    0    0 -0.11153583185E+04  0.71406854492E+03  0.18476305547E+03  0.13371819069E+04  0.00000000000E+00 0. -1.
<mgrwt>
<rscale>  0 0.33053348E+04</rscale>
<asrwt>0</asrwt>
<pdfrwt beam="1">  1        2 0.44068374E+00 0.33053348E+04</pdfrwt>
<pdfrwt beam="2">  1       -2 0.14669563E+00 0.33053348E+04</pdfrwt>
<totfact> 0.56020894E-01</totfact>
</mgrwt>
</event>
<event>
 6    1  0.9906445E-006  0.3116198E+04  0.7818608E-02  0.8211306E-01
         -1   -1    0    0    0  501 -0.00000000000E+00  0.00000000000E+00  0.15240923744E+04  0.15240923744E+04  0.00000000000E+00 0.  1.
          1   -1    0    0  501    0  0.00000000000E+00 -0.00000000000E+00 -0.15928646283E+04  0.15928646283E+04  0.00000000000E+00 0. -1.
         23    2    1    2    0    0  0.14381102599E+04 -0.59163967779E+03  0.38744535238E+02  0.15581887429E+04  0.90842675147E+02 0.  0.
         13    1    3    3    0    0  0.48273177335E+03 -0.20172740692E+03 -0.29789864963E+02  0.52403372769E+03  0.00000000000E+00 0. -1.
        -13    1    3    3    0    0  0.95537848650E+03 -0.38991227087E+03  0.68534400201E+02  0.10341550152E+04  0.00000000000E+00 0.  1.
         22    1    1    2    0    0 -0.14381102599E+04  0.59163967779E+03 -0.10751678911E+03  0.15587682598E+04  0.00000000000E+00 0. -1.
<mgrwt>
<rscale>  0 0.31161982E+04</rscale>
<asrwt>0</asrwt>
<pdfrwt beam="1">  1        1 0.24505609E+00 0.31161982E+04</pdfrwt>
<pdfrwt beam="2">  1       -1 0.23447575E+00 0.31161982E+04</pdfrwt>
<totfact> 0.41928555E-01</totfact>
</mgrwt>
</event>
<event>
 6    1  0.9906445E-006  0.3345418E+04  0.7818608E-02  0.8151434E-01
         -1   -1    0    0    0  501 -0.00000000000E+00  0.00000000000E+00  0.62524721478E+03  0.62524721478E+03  0.00000000000E+00 0.  1.
          1   -1    0    0  501    0  0.00000000000E+00 -0.00000000000E+00 -0.44749595772E+04  0.44749595772E+04  0.00000000000E+00 0. -1.
         23    2    1    2    0    0 -0.49545637741E+03 -0.15138497976E+04 -0.11539799981E+04  0.19690422783E+04  0.90771283750E+02 0.  0.
         13    1    3    3    0    0 -0.28903625498E+03 -0.90764128362E+03 -0.63558604666E+03  0.11451306821E+04  0.00000000000E+00 0. -1.
        -13    1    3    3    0    0 -0.20642012243E+03 -0.60620851402E+03 -0.51839395146E+03  0.82391159619E+03  0.00000000000E+00 0.  1.
         22    1    1    2    0    0  0.49545637741E+03  0.15138497976E+04 -0.26957323643E+04  0.31311645137E+04  0.00000000000E+00 0. -1.
<mgrwt>
<rscale>  0 0.33454184E+04</rscale>
<asrwt>0</asrwt>
<pdfrwt beam="1">  1        1 0.68845535E+00 0.33454184E+04</pdfrwt>
<pdfrwt beam="2">  1       -1 0.96191875E-01 0.33454184E+04</pdfrwt>
<totfact> 0.29314757E-02</totfact>
</mgrwt>
</event>
<event>
 6    1  0.9906445E-006  0.1637956E+04  0.7818608E-02  0.8797564E-01
         -2   -1    0    0    0  501 -0.00000000000E+00  0.00000000000E+00  0.38155282190E+03  0.38155282190E+03  0.00000000000E+00 0.  1.
          2   -1    0    0  501    0  0.00000000000E+00 -0.00000000000E+00 -0.17578816983E+04  0.17578816983E+04  0.00000000000E+00 0. -1.
         23    2    1    2    0    0  0.19976307660E+03 -0.65182799540E+03 -0.10336099166E+03  0.69540119028E+03  0.90079400969E+02 0.  0.
         11    1    3    3    0    0  0.14730117072E+03 -0.51502731712E+03 -0.11682429053E+03  0.54826880920E+03  0.00000000000E+00 0. -1.
        -11    1    3    3    0    0  0.52461905880E+02 -0.13680067828E+03  0.13463298872E+02  0.14713238108E+03  0.00000000000E+00 0.  1.
         22    1    1    2    0    0 -0.19976307660E+03  0.65182799540E+03 -0.12729678848E+04  0.14440333300E+04  0.00000000000E+00 0. -1.
<mgrwt>
<rscale>  0 0.16379557E+04</rscale>
<asrwt>0</asrwt>
<pdfrwt beam="1">  1        2 0.27044334E+00 0.16379557E+04</pdfrwt>
<pdfrwt beam="2">  1       -2 0.58700434E-01 0.16379557E+04</pdfrwt>
<totfact> 0.23615906E+01</totfact>
</mgrwt>
</event>
<event>
 6    1  0.9906445E-006  0.2456890E+04  0.7818608E-02  0.8418507E-01
          1   -1    0    0  501    0  0.00000000000E+00  0.00000000000E+00  0.24246047832E+04  0.24246047832E+04  0.00000000000E+00 0. -1.
         -1   -1    0    0    0  501 -0.00000000000E+00 -0.00000000000E+00 -0.62240114075E+03  0.62240114075E+03  0.00000000000E+00 0.  1.
         23    2    1    2    0    0  0.10650641453E+04 -0.28621885632E+03  0.23579013436E+03  0.11312987058E+04  0.89201496668E+02 0.  0.
         11    1    3    3    0    0  0.42697354756E+03 -0.11860693016E+03  0.50334041664E+02  0.44599050433E+03  0.00000000000E+00 0.  1.
        -11    1    3    3    0    0  0.63809059772E+03 -0.16761192615E+03  0.18545609270E+03  0.68530820148E+03  0.00000000000E+00 0. -1.
         22    1    1    2    0    0 -0.10650641453E+04  0.28621885632E+03  0.15664135081E+04  0.19157072181E+04  0.00000000000E+00 0. -1.
<mgrwt>
<rscale>  0 0.24568897E+04</rscale>
<asrwt>0</asrwt>
<pdfrwt beam="1">  1        1 0.37301612E+00 0.24568897E+04</pdfrwt>
<pdfrwt beam="2">  1       -1 0.95754023E-01 0.24568897E+04</pdfrwt>
<totfact> 0.14326078E+00</totfact>
</mgrwt>
</event>
<event>
 6    1  0.9906445E-006  0.2919951E+04  0.7818608E-02  0.8266966E-01
         -1   -1    0    0    0  501 -0.00000000000E+00  0.00000000000E+00  0.17521352249E+04  0.17521352249E+04  0.00000000000E+00 0.  1.
          1   -1    0    0  501    0  0.00000000000E+00 -0.00000000000E+00 -0.12165317899E+04  0.12165317899E+04  0.00000000000E+00 0. -1.
         23    2    1    2    0    0  0.27951245385E+03  0.63931167238E+03 -0.10342600091E+04  0.12507270102E+04  0.88191050271E+02 0.  0.
         13    1    3    3    0    0  0.26337300001E+03  0.52057624034E+03 -0.86410952439E+03  0.10426170099E+04  0.00000000000E+00 0.  1.
        -13    1    3    3    0    0  0.16139453840E+02  0.11873543204E+03 -0.17015048468E+03  0.20811000031E+03  0.00000000000E+00 0. -1.
         22    1    1    2    0    0 -0.27951245385E+03 -0.63931167238E+03  0.15698634441E+04  0.17179400046E+04  0.00000000000E+00 0.  1.
<mgrwt>
<rscale>  0 0.29199508E+04</rscale>
<asrwt>0</asrwt>
<pdfrwt beam="1">  1        1 0.18715874E+00 0.29199508E+04</pdfrwt>
<pdfrwt beam="2">  1       -1 0.26955926E+00 0.29199508E+04</pdfrwt>
<totfact> 0.46313941E-01</totfact>
</mgrwt>
</event>
<event>
 6    1  0.9906445E-006  0.1723978E+04  0.7818608E-02  0.8747806E-01
          2   -1    0    0  501    0  0.00000000000E+00  0.00000000000E+00  0.19726786671E+04  0.19726786671E+04  0.00000000000E+00 0. -1.
         -2   -1    0    0    0  501 -0.00000000000E+00 -0.00000000000E+00 -0.37665776507E+03  0.37665776507E+03  0.00000000000E+00 0.  1.
         23    2    1    2    0    0 -0.41388189240E+03  0.73517958278E+03  0.59077251649E+03  0.10369677506E+04  0.12042719663E+03 0.  0.
         11    1    3    3    0    0 -0.23776095664E+03  0.30484857786E+03  0.24815371189E+03  0.45939437595E+03  0.00000000000E+00 0. -1.
        -11    1    3    3    0    0 -0.17612093576E+03  0.43033100492E+03  0.34261880460E+03  0.57757337463E+03  0.00000000000E+00 0.  1.
         22    1    1    2    0    0  0.41388189240E+03 -0.73517958278E+03  0.10052483855E+04  0.13123686816E+04  0.00000000000E+00 0.  1.
<mgrwt>
<rscale>  0 0.17239777E+04</rscale>
<asrwt>0</asrwt>
<pdfrwt beam="1">  1        2 0.30348902E+00 0.17239777E+04</pdfrwt>
<pdfrwt beam="2">  1       -2 0.57947350E-01 0.17239777E+04</pdfrwt>
<totfact> 0.18317829E+01</totfact>
</mgrwt>
</event>
<event>
 6    1  0.9906445E-006  0.2398961E+04  0.7818608E-02  0.8439893E-01
          1   -1    0    0  501    0  0.00000000000E+00  0.00000000000E+00  0.23797617771E+04  0.23797617771E+04  0.00000000000E+00 0. -1.
         -1   -1    0    0    0  501 -0.00000000000E+00 -0.00000000000E+00 -0.60457883324E+03  0.60457883324E+03  0.00000000000E+00 0.  1.
         23    2    1    2    0    0 -0.76008024418E+03  0.55015282455E+03 -0.36748168441E+02  0.94387878427E+03  0.95742485640E+02 0.  0.
         13    1    3    3    0    0 -0.27405171619E+03  0.14316163072E+03 -0.78350295586E+01  0.30929109807E+03  0.00000000000E+00 0. -1.
        -13    1    3    3    0    0 -0.48602852799E+03  0.40699119383E+03 -0.28913138883E+02  0.63458768620E+03  0.00000000000E+00 0.  1.
         22    1    1    2    0    0  0.76008024418E+03 -0.55015282455E+03  0.18119311123E+04  0.20404618261E+04  0.00000000000E+00 0. -1.
<mgrwt>
<rscale>  0 0.23989611E+04</rscale>
<asrwt>0</asrwt>
<pdfrwt beam="1">  1        1 0.36611719E+00 0.23989611E+04</pdfrwt>
<pdfrwt beam="2">  1       -1 0.93012129E-01 0.23989611E+04</pdfrwt>
<totfact> 0.16502921E+00</totfact>
</mgrwt>
</event>
<event>
 6    1  0.9906445E-006  0.1414249E+04  0.7818608E-02  0.8943569E-01
         -2   -1    0    0    0  501 -0.00000000000E+00  0.00000000000E+00  0.40610764632E+03  0.40610764632E+03  0.00000000000E+00 0. -1.
          2   -1    0    0  501    0  0.00000000000E+00 -0.00000000000E+00 -0.12312615937E+04  0.12312615937E+04  0.00000000000E+00 0.  1.
         23    2    1    2    0    0 -0.57208572532E+03  0.35446209668E+02  0.58428449498E+02  0.58415683837E+03  0.96368133773E+02 0.  0.
         11    1    3    3    0    0 -0.12453233201E+03  0.26052705353E+02  0.49199339341E+02  0.13640975099E+03  0.00000000000E+00 0.  1.
        -11    1    3    3    0    0 -0.44755339331E+03  0.93935043154E+01  0.92291101576E+01  0.44774708738E+03  0.00000000000E+00 0. -1.
         22    1    1    2    0    0  0.57208572532E+03 -0.35446209668E+02 -0.88358239684E+03  0.10532124016E+04  0.00000000000E+00 0.  1.
<mgrwt>
<rscale>  0 0.14142486E+04</rscale>
<asrwt>0</asrwt>
<pdfrwt beam="1">  1        2 0.18942486E+00 0.14142486E+04</pdfrwt>
<pdfrwt beam="2">  1       -2 0.62478098E-01 0.14142486E+04</pdfrwt>
<totfact> 0.41927010E+01</totfact>
</mgrwt>
</event>
<event>
 6    1  0.9906445E-006  0.4340299E+04  0.7818608E-02  0.7939208E-01
         -2   -1    0    0    0  501 -0.00000000000E+00  0.00000000000E+00  0.32307235411E+04  0.32307235411E+04  0.00000000000E+00 0.  1.
          2   -1    0    0  501    0  0.00000000000E+00 -0.00000000000E+00 -0.14577381827E+04  0.14577381827E+04  0.00000000000E+00 0. -1.
         23    2    1    2    0    0 -0.11961219362E+04 -0.67992184970E+03 -0.92461100164E+03  0.16602563922E+04  0.92435792522E+02 0.  0.
         13    1    3    3    0    0 -0.12868397622E+03 -0.10419666690E+03 -0.95620060334E+02  0.19120592843E+03  0.00000000000E+00 0. -1.
        -13    1    3    3    0    0 -0.10674379600E+04 -0.57572518280E+03 -0.82899094131E+03  0.14690504638E+04  0.00000000000E+00 0.  1.
         22    1    1    2    0    0  0.11961219362E+04  0.67992184970E+03  0.26975963601E+04  0.30282053315E+04  0.00000000000E+00 0.  1.
<mgrwt>
<rscale>  0 0.43402991E+04</rscale>
<asrwt>0</asrwt>
<pdfrwt beam="1">  1        2 0.22426741E+00 0.43402991E+04</pdfrwt>
<pdfrwt beam="2">  1       -2 0.49703439E+00 0.43402991E+04</pdfrwt>
<totfact> 0.17771811E-02</totfact>
</mgrwt>
</event>
<event>
 6    1  0.9906445E-006  0.3099182E+04  0.7818608E-02  0.8215962E-01
          2   -1    0    0  501    0  0.00000000000E+00  0.00000000000E+00  0.12846449993E+04  0.12846449993E+04  0.00000000000E+00 0. -1.
         -2   -1    0    0    0  501 -0.00000000000E+00 -0.00000000000E+00 -0.18691800530E+04  0.18691800530E+04  0.00000000000E+00 0.  1.
         23    2    1    2    0    0  0.12337608607E+04  0.70698611912E+03 -0.91576736973E+03  0.16937873537E+04  0.91052128962E+02 0.  0.
         11    1    3    3    0    0  0.13878649103E+03  0.80810489331E+02 -0.13921037487E+03  0.21253600577E+03  0.00000000000E+00 0. -1.
        -11    1    3    3    0    0  0.10949743697E+04  0.62617562979E+03 -0.77655699486E+03  0.14812513480E+04  0.00000000000E+00 0.  1.
         22    1    1    2    0    0 -0.12337608607E+04 -0.70698611912E+03  0.33123231608E+03  0.14600376986E+04  0.00000000000E+00 0. -1.
<mgrwt>
<rscale>  0 0.30991823E+04</rscale>
<asrwt>0</asrwt>
<pdfrwt beam="1">  1        2 0.19763769E+00 0.30991823E+04</pdfrwt>
<pdfrwt beam="2">  1       -2 0.28756616E+00 0.30991823E+04</pdfrwt>
<totfact> 0.54255037E-01</totfact>
</mgrwt>
</event>
<event>
 6    1  0.9906445E-006  0.3484782E+04  0.7818608E-02  0.8117406E-01
         -2   -1    0    0    0  501 -0.00000000000E+00  0.00000000000E+00  0.13312942845E+04  0.13312942845E+04  0.00000000000E+00 0.  1.
          2   -1    0    0  501    0  0.00000000000E+00 -0.00000000000E+00 -0.22804322377E+04  0.22804322377E+04  0.00000000000E+00 0. -1.
         23    2    1    2    0    0  0.28006573332E+03 -0.24679023437E+03  0.12878596605E+04  0.13437978287E+04  0.88700984606E+02 0.  0.
         13    1    3    3    0    0  0.24412309314E+03 -0.17349120497E+03  0.10707952432E+04  0.11118892641E+04  0.00000000000E+00 0.  1.
        -13    1    3    3    0    0  0.35942640182E+02 -0.73299029408E+02  0.21706441732E+03  0.23190856466E+03  0.00000000000E+00 0. -1.
         22    1    1    2    0    0 -0.28006573332E+03  0.24679023437E+03 -0.22369976137E+04  0.22679286934E+04  0.00000000000E+00 0. -1.
<mgrwt>
<rscale>  0 0.34847820E+04</rscale>
<asrwt>0</asrwt>
<pdfrwt beam="1">  1        2 0.35083573E+00 0.34847820E+04</pdfrwt>
<pdfrwt beam="2">  1       -2 0.20481451E+00 0.34847820E+04</pdfrwt>
<totfact> 0.47335070E-01</totfact>
</mgrwt>
</event>
<event>
 6    1  0.9906445E-006  0.2848499E+04  0.7818608E-02  0.8288368E-01
          4   -1    0    0  501    0  0.00000000000E+00  0.00000000000E+00  0.11936273241E+04  0.11936273241E+04  0.00000000000E+00 0. -1.
         -4   -1    0    0    0  501 -0.00000000000E+00 -0.00000000000E+00 -0.16994304941E+04  0.16994304941E+04  0.00000000000E+00 0.  1.
         23    2    1    2    0    0 -0.93698876996E+03  0.16399180696E+03  0.82132711320E+03  0.12602332543E+04  0.93639525094E+02 0.  0.
         11    1    3    3    0    0 -0.43617099336E+03  0.46172544739E+02  0.33070315391E+03  0.54931012674E+03  0.00000000000E+00 0.  1.
        -11    1    3    3    0    0 -0.50081777660E+03  0.11781926222E+03  0.49062395929E+03  0.71092312759E+03  0.00000000000E+00 0. -1.
         22    1    1    2    0    0  0.93698876996E+03 -0.16399180696E+03 -0.13271302832E+04  0.16328245639E+04  0.00000000000E+00 0.  1.
<mgrwt>
<rscale>  0 0.28484990E+04</rscale>
<asrwt>0</asrwt>
<pdfrwt beam="1">  1        4 0.18363497E+00 0.28484990E+04</pdfrwt>
<pdfrwt beam="2">  1       -4 0.26145085E+00 0.28484990E+04</pdfrwt>
<totfact> 0.15669404E-02</totfact>
</mgrwt>
</event>
<event>
 6    1  0.9906445E-006  0.2190699E+04  0.7818608E-02  0.8522309E-01
         -2   -1    0    0    0  501 -0.00000000000E+00  0.00000000000E+00  0.45519085922E+03  0.45519085922E+03  0.00000000000E+00 0.  1.
          2   -1    0    0  501    0  0.00000000000E+00 -0.00000000000E+00 -0.26357974165E+04  0.26357974165E+04  0.00000000000E+00 0. -1.
         23    2    1    2    0    0 -0.76430728572E+02 -0.10530394086E+04 -0.14935616492E+04  0.18313199233E+04  0.90953884599E+02 0.  0.
         11    1    3    3    0    0  0.19322089349E+02 -0.22985053930E+03 -0.30688339294E+03  0.38390367336E+03  0.00000000000E+00 0.  1.
        -11    1    3    3    0    0 -0.95752817921E+02 -0.82318886932E+03 -0.11866782563E+04  0.14474162500E+04  0.00000000000E+00 0. -1.
         22    1    1    2    0    0  0.76430728572E+02  0.10530394086E+04 -0.68704490811E+03  0.12596683524E+04  0.00000000000E+00 0.  1.
<mgrwt>
<rscale>  0 0.21906993E+04</rscale>
<asrwt>0</asrwt>
<pdfrwt beam="1">  1        2 0.40550729E+00 0.21906993E+04</pdfrwt>
<pdfrwt beam="2">  1       -2 0.70029364E-01 0.21906993E+04</pdfrwt>
<totfact> 0.49266143E+00</totfact>
</mgrwt>
</event>
<event>
 6    1  0.9906445E-006  0.3513636E+04  0.7818608E-02  0.8110566E-01
          1   -1    0    0  501    0  0.00000000000E+00  0.00000000000E+00  0.36340442994E+04  0.36340442994E+04  0.00000000000E+00 0. -1.
         -1   -1    0    0    0  501 -0.00000000000E+00 -0.00000000000E+00 -0.84930450107E+03  0.84930450107E+03  0.00000000000E+00 0.  1.
         23    2    1    2    0    0  0.10516092927E+04  0.55510138149E+03  0.30415186928E+04  0.32668147693E+04  0.84988999219E+02 0.  0.
         13    1    3    3    0    0  0.55476537876E+03  0.25768364400E+03  0.14830130414E+04  0.16042110731E+04  0.00000000000E+00 0. -1.
        -13    1    3    3    0    0  0.49684391393E+03  0.29741773749E+03  0.15585056514E+04  0.16626036963E+04  0.00000000000E+00 0.  1.
         22    1    1    2    0    0 -0.10516092927E+04 -0.55510138149E+03 -0.25677889453E+03  0.12165340311E+04  0.00000000000E+00 0.  1.
<mgrwt>
<rscale>  0 0.35136364E+04</rscale>
<asrwt>0</asrwt>
<pdfrwt beam="1">  1        1 0.55908373E+00 0.35136364E+04</pdfrwt>
<pdfrwt beam="2">  1       -1 0.13066223E+00 0.35136364E+04</pdfrwt>
<totfact> 0.79527625E-02</totfact>
</mgrwt>
</event>
<event>
 6    1  0.9906445E-006  0.1203608E+04  0.7818608E-02  0.9109704E-01
         -1   -1    0    0    0  501 -0.00000000000E+00  0.00000000000E+00  0.34285327652E+03  0.34285327652E+03  0.00000000000E+00 0.  1.
          1   -1    0    0  501    0  0.00000000000E+00 -0.00000000000E+00 -0.10563351601E+04  0.10563351601E+04  0.00000000000E+00 0. -1.
         23    2    1    2    0    0 -0.22453168339E+03  0.54988624254E+03 -0.27148936607E+03  0.65881910847E+03  0.86872234988E+02 0.  0.
         11    1    3    3    0    0 -0.16229050402E+03  0.40034409643E+03 -0.23872143447E+03  0.49356005361E+03  0.00000000000E+00 0. -1.
        -11    1    3    3    0    0 -0.62241179369E+02  0.14954214611E+03 -0.32767931607E+02  0.16525905486E+03  0.00000000000E+00 0.  1.
         22    1    1    2    0    0  0.22453168339E+03 -0.54988624254E+03 -0.44199251755E+03  0.74036932821E+03  0.00000000000E+00 0. -1.
<mgrwt>
<rscale>  0 0.12036079E+04</rscale>
<asrwt>0</asrwt>
<pdfrwt beam="1">  1        1 0.16251310E+00 0.12036079E+04</pdfrwt>
<pdfrwt beam="2">  1       -1 0.52746659E-01 0.12036079E+04</pdfrwt>
<totfact> 0.49046926E+01</totfact>
</mgrwt>
</event>
<event>
 6    1  0.9906445E-006  0.1271992E+04  0.7818608E-02  0.9052076E-01
          1   -1    0    0  501    0  0.00000000000E+00  0.00000000000E+00  0.11076295874E+04  0.11076295874E+04  0.00000000000E+00 0. -1.
         -1   -1    0    0    0  501 -0.00000000000E+00 -0.00000000000E+00 -0.36518584149E+03  0.36518584149E+03  0.00000000000E+00 0.  1.
         23    2    1    2    0    0 -0.15857277374E+03 -0.41509285902E+03 -0.14805267699E+03  0.47761128632E+03  0.93517589125E+02 0.  0.
         13    1    3    3    0    0 -0.26083095680E+01 -0.28176502424E+02 -0.35745946619E+02  0.45590473427E+02  0.00000000000E+00 0.  1.
        -13    1    3    3    0    0 -0.15596446417E+03 -0.38691635660E+03 -0.11230673037E+03  0.43202081290E+03  0.00000000000E+00 0. -1.
         22    1    1    2    0    0  0.15857277374E+03  0.41509285902E+03  0.89049642287E+03  0.99520414254E+03  0.00000000000E+00 0. -1.
<mgrwt>
<rscale>  0 0.12719916E+04</rscale>
<asrwt>0</asrwt>
<pdfrwt beam="1">  1        1 0.17040455E+00 0.12719916E+04</pdfrwt>
<pdfrwt beam="2">  1       -1 0.56182437E-01 0.12719916E+04</pdfrwt>
<totfact> 0.39483847E+01</totfact>
</mgrwt>
</event>
<event>
 6    1  0.1736743E-005  0.4372063E+04  0.7818608E-02  0.7933426E-01
          2   -1    0    0  501    0  0.00000000000E+00  0.00000000000E+00  0.21306179345E+04  0.21306179345E+04  0.00000000000E+00 0. -1.
         -2   -1    0    0    0  501 -0.00000000000E+00 -0.00000000000E+00 -0.22428866248E+04  0.22428866248E+04  0.00000000000E+00 0.  1.
         23    2    1    2    0    0  0.10424014673E+04 -0.18328942226E+04 -0.63010473865E+03  0.22022707572E+04  0.82839943183E+02 0.  0.
         11    1    3    3    0    0  0.38512004278E+03 -0.59914717414E+03 -0.21979467497E+03  0.74538881315E+03  0.00000000000E+00 0. -1.
        -11    1    3    3    0    0  0.65728142457E+03 -0.12337470485E+04 -0.41031006367E+03  0.14568819441E+04  0.00000000000E+00 0.  1.
         22    1    1    2    0    0 -0.10424014673E+04  0.18328942226E+04  0.51783604828E+03  0.21712338021E+04  0.00000000000E+00 0.  1.
<mgrwt>
<rscale>  0 0.43720633E+04</rscale>
<asrwt>0</asrwt>
<pdfrwt beam="1">  1        2 0.32778737E+00 0.43720633E+04</pdfrwt>
<pdfrwt beam="2">  1       -2 0.34505948E+00 0.43720633E+04</pdfrwt>
<totfact> 0.72270234E-02</totfact>
</mgrwt>
</event>
<event>
 6    1  0.9906445E-006  0.1327399E+04  0.7818608E-02  0.9008115E-01
          1   -1    0    0  501    0  0.00000000000E+00  0.00000000000E+00  0.37925465366E+04  0.37925465366E+04  0.00000000000E+00 0. -1.
         -1   -1    0    0    0  501 -0.00000000000E+00 -0.00000000000E+00 -0.11614808635E+03  0.11614808635E+03  0.00000000000E+00 0.  1.
         23    2    1    2    0    0  0.35404700878E+03  0.65461941673E+02  0.34776305726E+04  0.34974243719E+04  0.91805704570E+02 0.  0.
         13    1    3    3    0    0  0.21587500630E+03  0.11808957929E+02  0.23863674928E+04  0.23961409142E+04  0.00000000000E+00 0. -1.
        -13    1    3    3    0    0  0.13817200248E+03  0.53652983744E+02  0.10912630798E+04  0.11012834577E+04  0.00000000000E+00 0.  1.
         22    1    1    2    0    0 -0.35404700878E+03 -0.65461941673E+02  0.19876787766E+03  0.41127025108E+03  0.00000000000E+00 0.  1.
<mgrwt>
<rscale>  0 0.13273990E+04</rscale>
<asrwt>0</asrwt>
<pdfrwt beam="1">  1        1 0.58346860E+00 0.13273990E+04</pdfrwt>
<pdfrwt beam="2">  1       -1 0.17868939E-01 0.13273990E+04</pdfrwt>
<totfact> 0.35782471E+00</totfact>
</mgrwt>
</event>
<event>
 6    1  0.9906445E-006  0.2300469E+04  0.7818608E-02  0.8477736E-01
          2   -1    0    0  501    0  0.00000000000E+00  0.00000000000E+00  0.21202615709E+04  0.21202615709E+04  0.00000000000E+00 0. -1.
         -2   -1    0    0    0  501 -0.00000000000E+00 -0.00000000000E+00 -0.62399819817E+03  0.62399819817E+03  0.00000000000E+00 0.  1.
         23    2    1    2    0    0  0.88971985597E+03  0.57488266001E+03  0.22022798384E+03  0.10858394941E+04  0.91954048813E+02 0.  0.
         13    1    3    3    0    0  0.75652120356E+03  0.52479044289E+03  0.18279849399E+03  0.93869304343E+03  0.00000000000E+00 0. -1.
        -13    1    3    3    0    0  0.13319865242E+03  0.50092217124E+02  0.37429489856E+02  0.14714645063E+03  0.00000000000E+00 0.  1.
         22    1    1    2    0    0 -0.88971985597E+03 -0.57488266001E+03  0.12760353889E+04  0.16584202750E+04  0.00000000000E+00 0. -1.
<mgrwt>
<rscale>  0 0.23004690E+04</rscale>
<asrwt>0</asrwt>
<pdfrwt beam="1">  1        2 0.32619408E+00 0.23004690E+04</pdfrwt>
<pdfrwt beam="2">  1       -2 0.95999724E-01 0.23004690E+04</pdfrwt>
<totfact> 0.47191434E+00</totfact>
</mgrwt>
</event>
<event>
 6    1  0.9906445E-006  0.2823508E+04  0.7818608E-02  0.8296007E-01
          1   -1    0    0  501    0  0.00000000000E+00  0.00000000000E+00  0.10551256465E+04  0.10551256465E+04  0.00000000000E+00 0. -1.
         -1   -1    0    0    0  501 -0.00000000000E+00 -0.00000000000E+00 -0.18889213999E+04  0.18889213999E+04  0.00000000000E+00 0.  1.
         23    2    1    2    0    0  0.46895378828E+03 -0.21024344474E+03 -0.17867084477E+04  0.18613824795E+04  0.91091691922E+02 0.  0.
         11    1    3    3    0    0  0.67228826279E+02 -0.68066611844E+02 -0.34355377187E+03  0.35662581637E+03  0.00000000000E+00 0.  1.
        -11    1    3    3    0    0  0.40172496200E+03 -0.14217683290E+03 -0.14431546758E+04  0.15047566631E+04  0.00000000000E+00 0. -1.
         22    1    1    2    0    0 -0.46895378828E+03  0.21024344474E+03  0.95291269430E+03  0.10826645670E+04  0.00000000000E+00 0. -1.
<mgrwt>
<rscale>  0 0.28235080E+04</rscale>
<asrwt>0</asrwt>
<pdfrwt beam="1">  1        1 0.16232702E+00 0.28235080E+04</pdfrwt>
<pdfrwt beam="2">  1       -1 0.29060329E+00 0.28235080E+04</pdfrwt>
<totfact> 0.45019912E-01</totfact>
</mgrwt>
</event>
<event>
 6    1  0.9906445E-006  0.3481609E+04  0.7818608E-02  0.8118162E-01
          1   -1    0    0  501    0  0.00000000000E+00  0.00000000000E+00  0.24243142494E+04  0.24243142494E+04  0.00000000000E+00 0. -1.
         -1   -1    0    0    0  501 -0.00000000000E+00 -0.00000000000E+00 -0.12500029494E+04  0.12500029494E+04  0.00000000000E+00 0.  1.
         23    2    1    2    0    0  0.11461449973E+04  0.89268856758E+03 -0.42235011249E+03  0.15156442501E+04  0.90866065559E+02 0.  0.
         11    1    3    3    0    0  0.52775118888E+03  0.44239464595E+03 -0.16051260957E+03  0.70710581808E+03  0.00000000000E+00 0. -1.
        -11    1    3    3    0    0  0.61839380837E+03  0.45029392163E+03 -0.26183750292E+03  0.80853843200E+03  0.00000000000E+00 0.  1.
         22    1    1    2    0    0 -0.11461449973E+04 -0.89268856758E+03  0.15966614125E+04  0.21586729487E+04  0.00000000000E+00 0. -1.
<mgrwt>
<rscale>  0 0.34816088E+04</rscale>
<asrwt>0</asrwt>
<pdfrwt beam="1">  1        1 0.37297142E+00 0.34816088E+04</pdfrwt>
<pdfrwt beam="2">  1       -1 0.19230815E+00 0.34816088E+04</pdfrwt>
<totfact> 0.21258850E-01</totfact>
</mgrwt>
</event>
<event>
 6    1  0.9906445E-006  0.2484191E+04  0.7818608E-02  0.8408639E-01
          1   -1    0    0  501    0  0.00000000000E+00  0.00000000000E+00  0.10638799391E+04  0.10638799391E+04  0.00000000000E+00 0. -1.
         -1   -1    0    0    0  501 -0.00000000000E+00 -0.00000000000E+00 -0.14501644159E+04  0.14501644159E+04  0.00000000000E+00 0.  1.
         23    2    1    2    0    0 -0.56163563704E+03 -0.22556799199E+03  0.90239002322E+03  0.10903177399E+04  0.90385353296E+02 0.  0.
         13    1    3    3    0    0 -0.46579532536E+03 -0.18136302266E+03  0.67797752960E+03  0.84232497396E+03  0.00000000000E+00 0.  1.
        -13    1    3    3    0    0 -0.95840311681E+02 -0.44204969324E+02  0.22441249362E+03  0.24799276592E+03  0.00000000000E+00 0. -1.
         22    1    1    2    0    0  0.56163563704E+03  0.22556799199E+03 -0.12886744999E+04  0.14237266151E+04  0.00000000000E+00 0.  1.
<mgrwt>
<rscale>  0 0.24841907E+04</rscale>
<asrwt>0</asrwt>
<pdfrwt beam="1">  1        1 0.16367384E+00 0.24841907E+04</pdfrwt>
<pdfrwt beam="2">  1       -1 0.22310222E+00 0.24841907E+04</pdfrwt>
<totfact> 0.12604030E+00</totfact>
</mgrwt>
</event>
<event>
 6    1  0.9906445E-006  0.1849606E+04  0.7818608E-02  0.8680356E-01
         -2   -1    0    0    0  501 -0.00000000000E+00  0.00000000000E+00  0.51868497050E+03  0.51868497050E+03  0.00000000000E+00 0.  1.
          2   -1    0    0  501    0  0.00000000000E+00 -0.00000000000E+00 -0.16489012430E+04  0.16489012430E+04  0.00000000000E+00 0. -1.
         23    2    1    2    0    0  0.15987964705E+03 -0.86491563209E+03 -0.89264306237E+03  0.12564980825E+04  0.91297548977E+02 0.  0.
         11    1    3    3    0    0  0.90238785833E+01 -0.22696294047E+03 -0.19738848602E+03  0.30092494271E+03  0.00000000000E+00 0. -1.
        -11    1    3    3    0    0  0.15085576847E+03 -0.63795269162E+03 -0.69525457636E+03  0.95557313984E+03  0.00000000000E+00 0.  1.
         22    1    1    2    0    0 -0.15987964705E+03  0.86491563209E+03 -0.23757321011E+03  0.91108813094E+03  0.00000000000E+00 0.  1.
<mgrwt>
<rscale>  0 0.18496057E+04</rscale>
<asrwt>0</asrwt>
<pdfrwt beam="1">  1        2 0.25367712E+00 0.18496057E+04</pdfrwt>
<pdfrwt beam="2">  1       -2 0.79797688E-01 0.18496057E+04</pdfrwt>
<totfact> 0.13688231E+01</totfact>
</mgrwt>
</event>
<event>
 6    1  0.9906445E-006  0.1990350E+04  0.7818608E-02  0.8611146E-01
          2   -1    0    0  501    0  0.00000000000E+00  0.00000000000E+00  0.27001763415E+04  0.27001763415E+04  0.00000000000E+00 0. -1.
         -2   -1    0    0    0  501 -0.00000000000E+00 -0.00000000000E+00 -0.36678101127E+03  0.36678101127E+03  0.00000000000E+00 0.  1.
         23    2    1    2    0    0 -0.68274183341E+03 -0.53042706563E+03  0.19220890820E+04  0.21095326232E+04  0.90621001642E+02 0.  0.
         11    1    3    3    0    0 -0.36662222340E+03 -0.23200862726E+03  0.10030310468E+04  0.10928454322E+04  0.00000000000E+00 0. -1.
        -11    1    3    3    0    0 -0.31611961001E+03 -0.29841843836E+03  0.91905803520E+03  0.10166871910E+04  0.00000000000E+00 0.  1.
         22    1    1    2    0    0  0.68274183341E+03  0.53042706563E+03  0.41130624823E+03  0.95742472961E+03  0.00000000000E+00 0.  1.
<mgrwt>
<rscale>  0 0.19903501E+04</rscale>
<asrwt>0</asrwt>
<pdfrwt beam="1">  1        2 0.41541173E+00 0.19903501E+04</pdfrwt>
<pdfrwt beam="2">  1       -2 0.56427850E-01 0.19903501E+04</pdfrwt>
<totfact> 0.72832398E+00</totfact>
</mgrwt>
</event>
<event>
 6    1  0.9906445E-006  0.2947007E+04  0.7818608E-02  0.8259027E-01
         -1   -1    0    0    0  501 -0.00000000000E+00  0.00000000000E+00  0.52552850719E+03  0.52552850719E+03  0.00000000000E+00 0.  1.
          1   -1    0    0  501    0  0.00000000000E+00 -0.00000000000E+00 -0.41314839099E+04  0.41314839099E+04  0.00000000000E+00 0. -1.
         23    2    1    2    0    0 -0.87081936086E+03  0.11479797711E+04 -0.13281740711E+04  0.19617440244E+04  0.90605407750E+02 0.  0.
         13    1    3    3    0    0 -0.57820265303E+03  0.69761114196E+03 -0.86067524664E+03  0.12496965606E+04  0.00000000000E+00 0. -1.
        -13    1    3    3    0    0 -0.29261670784E+03  0.45036862914E+03 -0.46749882443E+03  0.71204746377E+03  0.00000000000E+00 0.  1.
         22    1    1    2    0    0  0.87081936086E+03 -0.11479797711E+04 -0.22777813317E+04  0.26952683928E+04  0.00000000000E+00 0.  1.
<mgrwt>
<rscale>  0 0.29470070E+04</rscale>
<asrwt>0</asrwt>
<pdfrwt beam="1">  1        1 0.63561290E+00 0.29470070E+04</pdfrwt>
<pdfrwt beam="2">  1       -1 0.80850540E-01 0.29470070E+04</pdfrwt>
<totfact> 0.95335848E-02</totfact>
</mgrwt>
</event>
<event>
 6    1  0.9906445E-006  0.1048631E+04  0.7818608E-02  0.9256758E-01
         -1   -1    0    0    0  501 -0.00000000000E+00  0.00000000000E+00  0.30731464652E+03  0.30731464652E+03  0.00000000000E+00 0.  1.
          1   -1    0    0  501    0  0.00000000000E+00 -0.00000000000E+00 -0.89454516932E+03  0.89454516932E+03  0.00000000000E+00 0. -1.
         23    2    1    2    0    0  0.14148174573E+03  0.23733666738E+03 -0.80119085036E+03  0.85239622714E+03  0.91251144043E+02 0.  0.
         13    1    3    3    0    0  0.99560903233E+02  0.17233791777E+03 -0.43856900190E+03  0.48161758770E+03  0.00000000000E+00 0. -1.
        -13    1    3    3    0    0  0.41920842500E+02  0.64998749606E+02 -0.36262184846E+03  0.37077863944E+03  0.00000000000E+00 0.  1.
         22    1    1    2    0    0 -0.14148174573E+03 -0.23733666738E+03  0.21396032756E+03  0.34946358870E+03  0.00000000000E+00 0.  1.
<mgrwt>
<rscale>  0 0.10486312E+04</rscale>
<asrwt>0</asrwt>
<pdfrwt beam="1">  1        1 0.13762233E+00 0.10486312E+04</pdfrwt>
<pdfrwt beam="2">  1       -1 0.47279177E-01 0.10486312E+04</pdfrwt>
<totfact> 0.81996744E+01</totfact>
</mgrwt>
</event>
<event>
 6    1  0.9906445E-006  0.2082339E+04  0.7818608E-02  0.8569063E-01
          2   -1    0    0  501    0  0.00000000000E+00  0.00000000000E+00  0.14482214570E+04  0.14482214570E+04  0.00000000000E+00 0. -1.
         -2   -1    0    0    0  501 -0.00000000000E+00 -0.00000000000E+00 -0.74852781833E+03  0.74852781833E+03  0.00000000000E+00 0.  1.
         23    2    1    2    0    0  0.17738227350E+03 -0.44036802417E+03  0.13253302615E+04  0.14113769742E+04  0.10047981676E+03 0.  0.
         11    1    3    3    0    0  0.17827009886E+03 -0.33178501476E+03  0.10215355176E+04  0.10887590817E+04  0.00000000000E+00 0. -1.
        -11    1    3    3    0    0 -0.88782535472E+00 -0.10858300941E+03  0.30379474390E+03  0.32261789254E+03  0.00000000000E+00 0.  1.
         22    1    1    2    0    0 -0.17738227350E+03  0.44036802417E+03 -0.62563662279E+03  0.78537230117E+03  0.00000000000E+00 0.  1.
<mgrwt>
<rscale>  0 0.20823391E+04</rscale>
<asrwt>0</asrwt>
<pdfrwt beam="1">  1        2 0.22280330E+00 0.20823391E+04</pdfrwt>
<pdfrwt beam="2">  1       -2 0.11515813E+00 0.20823391E+04</pdfrwt>
<totfact> 0.73672438E+00</totfact>
</mgrwt>
</event>
<event>
 6    1  0.9906445E-006  0.2234828E+04  0.7818608E-02  0.8504070E-01
         -1   -1    0    0    0  501 -0.00000000000E+00  0.00000000000E+00  0.11472724441E+04  0.11472724441E+04  0.00000000000E+00 0.  1.
          1   -1    0    0  501    0  0.00000000000E+00 -0.00000000000E+00 -0.10883330506E+04  0.10883330506E+04  0.00000000000E+00 0. -1.
         23    2    1    2    0    0 -0.17014879776E+03 -0.31018415528E+03 -0.10288546703E+04  0.10917258030E+04  0.90324264047E+02 0.  0.
         11    1    3    3    0    0 -0.15384075714E+03 -0.30691617212E+03 -0.10090982741E+04  0.10659004841E+04  0.00000000000E+00 0. -1.
        -11    1    3    3    0    0 -0.16308040613E+02 -0.32679831645E+01 -0.19756396273E+02  0.25825318900E+02  0.00000000000E+00 0.  1.
         22    1    1    2    0    0  0.17014879776E+03  0.31018415528E+03  0.10877940639E+04  0.11438796917E+04  0.00000000000E+00 0.  1.
<mgrwt>
<rscale>  0 0.22348284E+04</rscale>
<asrwt>0</asrwt>
<pdfrwt beam="1">  1        1 0.16743585E+00 0.22348284E+04</pdfrwt>
<pdfrwt beam="2">  1       -1 0.17650345E+00 0.22348284E+04</pdfrwt>
<totfact> 0.25942003E+00</totfact>
</mgrwt>
</event>
<event>
 6    1  0.9906445E-006  0.3194401E+04  0.7818608E-02  0.8190297E-01
         -2   -1    0    0    0  501 -0.00000000000E+00  0.00000000000E+00  0.21214700793E+04  0.21214700793E+04  0.00000000000E+00 0.  1.
          2   -1    0    0  501    0  0.00000000000E+00 -0.00000000000E+00 -0.12024914250E+04  0.12024914250E+04  0.00000000000E+00 0. -1.
         23    2    1    2    0    0 -0.31660303282E+03  0.98444538554E+02  0.20840691088E+04  0.21126132577E+04  0.99307194545E+02 0.  0.
         13    1    3    3    0    0 -0.19985709563E+03  0.23476729990E+02  0.10321133015E+04  0.10515473754E+04  0.00000000000E+00 0. -1.
        -13    1    3    3    0    0 -0.11674593719E+03  0.74967808563E+02  0.10519558072E+04  0.10610658823E+04  0.00000000000E+00 0.  1.
         22    1    1    2    0    0  0.31660303282E+03 -0.98444538554E+02 -0.11650904545E+04  0.12113482467E+04  0.00000000000E+00 0. -1.
<mgrwt>
<rscale>  0 0.31944011E+04</rscale>
<asrwt>0</asrwt>
<pdfrwt beam="1">  1        2 0.18499868E+00 0.31944011E+04</pdfrwt>
<pdfrwt beam="2">  1       -2 0.32638001E+00 0.31944011E+04</pdfrwt>
<totfact> 0.34756458E-01</totfact>
</mgrwt>
</event>
<event>
 6    1  0.9906445E-006  0.1911721E+04  0.7818608E-02  0.8649044E-01
         -2   -1    0    0    0  501 -0.00000000000E+00  0.00000000000E+00  0.24680202375E+03  0.24680202375E+03  0.00000000000E+00 0.  1.
          2   -1    0    0  501    0  0.00000000000E+00 -0.00000000000E+00 -0.37020351481E+04  0.37020351481E+04  0.00000000000E+00 0. -1.
         23    2    1    2    0    0 -0.18942554441E+03  0.93162635808E+03 -0.18881870286E+04  0.21159587868E+04  0.90673175744E+02 0.  0.
         13    1    3    3    0    0 -0.60534306945E+02  0.32449388716E+03 -0.56316537297E+03  0.65277555287E+03  0.00000000000E+00 0. -1.
        -13    1    3    3    0    0 -0.12889123747E+03  0.60713247093E+03 -0.13250216556E+04  0.14631832340E+04  0.00000000000E+00 0.  1.
         22    1    1    2    0    0  0.18942554441E+03 -0.93162635808E+03 -0.15670460958E+04  0.18328783850E+04  0.00000000000E+00 0.  1.
<mgrwt>
<rscale>  0 0.19117215E+04</rscale>
<asrwt>0</asrwt>
<pdfrwt beam="1">  1        2 0.56954382E+00 0.19117215E+04</pdfrwt>
<pdfrwt beam="2">  1       -2 0.37969545E-01 0.19117215E+04</pdfrwt>
<totfact> 0.35945470E+00</totfact>
</mgrwt>
</event>
<event>
 6    1  0.9906445E-006  0.9670725E+03  0.7818608E-02  0.9345415E-01
          3   -1    0    0  501    0  0.00000000000E+00  0.00000000000E+00  0.20500599038E+03  0.20500599038E+03  0.00000000000E+00 0.  1.
         -3   -1    0    0    0  501 -0.00000000000E+00 -0.00000000000E+00 -0.11404901312E+04  0.11404901312E+04  0.00000000000E+00 0. -1.
         23    2    1    2    0    0  0.82025651651E+02  0.30245547177E+03  0.32584744182E+02  0.32796730821E+03  0.91067391354E+02 0.  0.
         13    1    3    3    0    0  0.31237364931E+02  0.10926352239E+03  0.56274277127E+02  0.12681121622E+03  0.00000000000E+00 0.  1.
        -13    1    3    3    0    0  0.50788286721E+02  0.19319194938E+03 -0.23689532946E+02  0.20115609199E+03  0.00000000000E+00 0. -1.
         22    1    1    2    0    0 -0.82025651651E+02 -0.30245547177E+03 -0.96806888502E+03  0.10175288134E+04  0.00000000000E+00 0. -1.
<mgrwt>
<rscale>  0 0.96707251E+03</rscale>
<asrwt>0</asrwt>
<pdfrwt beam="1">  1        3 0.31539384E-01 0.96707251E+03</pdfrwt>
<pdfrwt beam="2">  1       -3 0.17546002E+00 0.96707251E+03</pdfrwt>
<totfact> 0.54893452E+00</totfact>
</mgrwt>
</event>
<event>
 6    1  0.9906445E-006  0.1233299E+04  0.7818608E-02  0.9084199E-01
         -1   -1    0    0    0  501 -0.00000000000E+00  0.00000000000E+00  0.23323788868E+03  0.23323788868E+03  0.00000000000E+00 0.  1.
          1   -1    0    0  501    0  0.00000000000E+00 -0.00000000000E+00 -0.16303377882E+04  0.16303377882E+04  0.00000000000E+00 0. -1.
         23    2    1    2    0    0  0.19975514903E+03 -0.18930953086E+03 -0.15305748852E+04  0.15577067673E+04  0.89725558176E+02 0.  0.
         11    1    3    3    0    0  0.63726578373E+02 -0.63788909116E+02 -0.75432168384E+03  0.75969158507E+03  0.00000000000E+00 0. -1.
        -11    1    3    3    0    0  0.13602857066E+03 -0.12552062174E+03 -0.77625320136E+03  0.79801518228E+03  0.00000000000E+00 0.  1.
         22    1    1    2    0    0 -0.19975514903E+03  0.18930953086E+03  0.13347498566E+03  0.30586890956E+03  0.00000000000E+00 0.  1.
<mgrwt>
<rscale>  0 0.12332989E+04</rscale>
<asrwt>0</asrwt>
<pdfrwt beam="1">  1        1 0.25082120E+00 0.12332989E+04</pdfrwt>
<pdfrwt beam="2">  1       -1 0.35882752E-01 0.12332989E+04</pdfrwt>
<totfact> 0.38968645E+01</totfact>
</mgrwt>
</event>
<event>
 6    1  0.9906445E-006  0.3550336E+04  0.7818608E-02  0.8101963E-01
          2   -1    0    0  501    0  0.00000000000E+00  0.00000000000E+00  0.23648444499E+04  0.23648444499E+04  0.00000000000E+00 0. -1.
         -2   -1    0    0    0  501 -0.00000000000E+00 -0.00000000000E+00 -0.13325282676E+04  0.13325282676E+04  0.00000000000E+00 0.  1.
         23    2    1    2    0    0 -0.32701878691E+03  0.11090471559E+04  0.19176823616E+04  0.22410759920E+04  0.89381658039E+02 0.  0.
         13    1    3    3    0    0 -0.14595166373E+03  0.63858561039E+03  0.10493643091E+04  0.12370363467E+04  0.00000000000E+00 0. -1.
        -13    1    3    3    0    0 -0.18106712318E+03  0.47046154556E+03  0.86831805250E+03  0.10040396453E+04  0.00000000000E+00 0.  1.
         22    1    1    2    0    0  0.32701878691E+03 -0.11090471559E+04 -0.88536617939E+03  0.14562967255E+04  0.00000000000E+00 0.  1.
<mgrwt>
<rscale>  0 0.35503364E+04</rscale>
<asrwt>0</asrwt>
<pdfrwt beam="1">  1        2 0.36382222E+00 0.35503364E+04</pdfrwt>
<pdfrwt beam="2">  1       -2 0.20500435E+00 0.35503364E+04</pdfrwt>
<totfact> 0.42032624E-01</totfact>
</mgrwt>
</event>
<event>
 6    1  0.9906445E-006  0.1519264E+04  0.7818608E-02  0.8871743E-01
          2   -1    0    0  501    0  0.00000000000E+00  0.00000000000E+00  0.53277210694E+03  0.53277210694E+03  0.00000000000E+00 0. -1.
         -2   -1    0    0    0  501 -0.00000000000E+00 -0.00000000000E+00 -0.10830907880E+04  0.10830907880E+04  0.00000000000E+00 0.  1.
         23    2    1    2    0    0 -0.36769467816E+03 -0.38035752063E+02 -0.97866783051E+03  0.10500633822E+04  0.90533360672E+02 0.  0.
         11    1    3    3    0    0 -0.23142094144E+03  0.12308620491E+02 -0.66922473738E+03  0.70821529452E+03  0.00000000000E+00 0. -1.
        -11    1    3    3    0    0 -0.13627373671E+03 -0.50344372553E+02 -0.30944309313E+03  0.34184808768E+03  0.00000000000E+00 0.  1.
         22    1    1    2    0    0  0.36769467816E+03  0.38035752063E+02  0.42834914944E+03  0.56579951273E+03  0.00000000000E+00 0. -1.
<mgrwt>
<rscale>  0 0.15192637E+04</rscale>
<asrwt>0</asrwt>
<pdfrwt beam="1">  1        2 0.81964941E-01 0.15192637E+04</pdfrwt>
<pdfrwt beam="2">  1       -2 0.16662935E+00 0.15192637E+04</pdfrwt>
<totfact> 0.12414523E+01</totfact>
</mgrwt>
</event>
<event>
 6    1  0.9906445E-006  0.2950483E+04  0.7818608E-02  0.8258014E-01
         -1   -1    0    0    0  501 -0.00000000000E+00  0.00000000000E+00  0.81986311452E+03  0.81986311452E+03  0.00000000000E+00 0.  1.
          1   -1    0    0  501    0  0.00000000000E+00 -0.00000000000E+00 -0.26545134671E+04  0.26545134671E+04  0.00000000000E+00 0. -1.
         23    2    1    2    0    0  0.77919320614E+03 -0.11739803916E+04 -0.40906258235E+03  0.14699633251E+04  0.89933132764E+02 0.  0.
         11    1    3    3    0    0  0.40905304284E+03 -0.57604583628E+03 -0.24568078286E+03  0.74800551095E+03  0.00000000000E+00 0. -1.
        -11    1    3    3    0    0  0.37014016330E+03 -0.59793455534E+03 -0.16338179949E+03  0.72195781412E+03  0.00000000000E+00 0.  1.
         22    1    1    2    0    0 -0.77919320614E+03  0.11739803916E+04 -0.14255877702E+04  0.20044132566E+04  0.00000000000E+00 0. -1.
<mgrwt>
<rscale>  0 0.29504831E+04</rscale>
<asrwt>0</asrwt>
<pdfrwt beam="1">  1        1 0.40838669E+00 0.29504831E+04</pdfrwt>
<pdfrwt beam="2">  1       -1 0.12613279E+00 0.29504831E+04</pdfrwt>
<totfact> 0.49383858E-01</totfact>
</mgrwt>
</event>
<event>
 6    1  0.9906445E-006  0.2881334E+04  0.7818608E-02  0.8278453E-01
         -1   -1    0    0    0  501 -0.00000000000E+00  0.00000000000E+00  0.30730726569E+04  0.30730726569E+04  0.00000000000E+00 0.  1.
          1   -1    0    0  501    0  0.00000000000E+00 -0.00000000000E+00 -0.67538978039E+03  0.67538978039E+03  0.00000000000E+00 0. -1.
         23    2    1    2    0    0  0.29204906808E+03 -0.13075736874E+04  0.51626546533E+03  0.14387496670E+04  0.91809409568E+02 0.  0.
         11    1    3    3    0    0  0.15394578058E+03 -0.85723711127E+03  0.36072560094E+03  0.94269704968E+03  0.00000000000E+00 0. -1.
        -11    1    3    3    0    0  0.13810328749E+03 -0.45033657609E+03  0.15553986439E+03  0.49605261736E+03  0.00000000000E+00 0.  1.
         22    1    1    2    0    0 -0.29204906808E+03  0.13075736874E+04  0.18814174112E+04  0.23097127703E+04  0.00000000000E+00 0.  1.
<mgrwt>
<rscale>  0 0.28813343E+04</rscale>
<asrwt>0</asrwt>
<pdfrwt beam="1">  1        1 0.10390612E+00 0.28813343E+04</pdfrwt>
<pdfrwt beam="2">  1       -1 0.47278040E+00 0.28813343E+04</pdfrwt>
<totfact> 0.55767236E-02</totfact>
</mgrwt>
</event>
<event>
 6    1  0.9906445E-006  0.3663082E+04  0.7818608E-02  0.8076193E-01
         -1   -1    0    0    0  501 -0.00000000000E+00  0.00000000000E+00  0.16801896108E+04  0.16801896108E+04  0.00000000000E+00 0.  1.
          1   -1    0    0  501    0  0.00000000000E+00 -0.00000000000E+00 -0.19965259893E+04  0.19965259893E+04  0.00000000000E+00 0. -1.
         23    2    1    2    0    0  0.10591573416E+04 -0.14756209574E+04  0.67881442325E+02  0.18201341130E+04  0.94914777592E+02 0.  0.
         13    1    3    3    0    0  0.70398220317E+03 -0.10554432680E+04  0.49548753854E+02  0.12696481849E+04  0.00000000000E+00 0. -1.
        -13    1    3    3    0    0  0.35517513844E+03 -0.42017768944E+03  0.18332688470E+02  0.55048592819E+03  0.00000000000E+00 0.  1.
         22    1    1    2    0    0 -0.10591573416E+04  0.14756209574E+04 -0.38421782081E+03  0.18565814871E+04  0.00000000000E+00 0. -1.
<mgrwt>
<rscale>  0 0.36630819E+04</rscale>
<asrwt>0</asrwt>
<pdfrwt beam="1">  1        1 0.30715784E+00 0.36630819E+04</pdfrwt>
<pdfrwt beam="2">  1       -1 0.25849071E+00 0.36630819E+04</pdfrwt>
<totfact> 0.14800344E-01</totfact>
</mgrwt>
</event>
<event>
 6    1  0.9906445E-006  0.2865260E+04  0.7818608E-02  0.8283289E-01
          1   -1    0    0  501    0  0.00000000000E+00  0.00000000000E+00  0.26072489970E+04  0.26072489970E+04  0.00000000000E+00 0. -1.
         -1   -1    0    0    0  501 -0.00000000000E+00 -0.00000000000E+00 -0.78720106089E+03  0.78720106089E+03  0.00000000000E+00 0.  1.
         23    2    1    2    0    0  0.61761993240E+03 -0.10277708702E+04 -0.14871623681E+02  0.12024881209E+04  0.89382174633E+02 0.  0.
         11    1    3    3    0    0  0.39415630132E+03 -0.71165385380E+03  0.20281653520E+02  0.81377007991E+03  0.00000000000E+00 0.  1.
        -11    1    3    3    0    0  0.22346363108E+03 -0.31611701638E+03 -0.35153277201E+02  0.38871804095E+03  0.00000000000E+00 0. -1.
         22    1    1    2    0    0 -0.61761993240E+03  0.10277708702E+04  0.18349195598E+04  0.21919619370E+04  0.00000000000E+00 0. -1.
<mgrwt>
<rscale>  0 0.28652603E+04</rscale>
<asrwt>0</asrwt>
<pdfrwt beam="1">  1        1 0.40111523E+00 0.28652603E+04</pdfrwt>
<pdfrwt beam="2">  1       -1 0.12110786E+00 0.28652603E+04</pdfrwt>
<totfact> 0.59395374E-01</totfact>
</mgrwt>
</event>
<event>
 6    1  0.9906445E-006  0.2698058E+04  0.7818608E-02  0.8335635E-01
         -1   -1    0    0    0  501 -0.00000000000E+00  0.00000000000E+00  0.78520694550E+03  0.78520694550E+03  0.00000000000E+00 0.  1.
          1   -1    0    0  501    0  0.00000000000E+00 -0.00000000000E+00 -0.23177068993E+04  0.23177068993E+04  0.00000000000E+00 0. -1.
         23    2    1    2    0    0  0.47295793790E+03  0.66625751286E+03 -0.19993925635E+04  0.21618628401E+04  0.92152221630E+02 0.  0.
         13    1    3    3    0    0  0.16231627201E+03  0.21362444652E+03 -0.77204325503E+03  0.81733271312E+03  0.00000000000E+00 0.  1.
        -13    1    3    3    0    0  0.31064166589E+03  0.45263306634E+03 -0.12273493085E+04  0.13445301270E+04  0.00000000000E+00 0. -1.
         22    1    1    2    0    0 -0.47295793790E+03 -0.66625751286E+03  0.46689260970E+03  0.94105100470E+03  0.00000000000E+00 0.  1.
<mgrwt>
<rscale>  0 0.26980582E+04</rscale>
<asrwt>0</asrwt>
<pdfrwt beam="1">  1        1 0.35657029E+00 0.26980582E+04</pdfrwt>
<pdfrwt beam="2">  1       -1 0.12080107E+00 0.26980582E+04</pdfrwt>
<totfact> 0.96228856E-01</totfact>
</mgrwt>
</event>
<event>
 6    1  0.9906445E-006  0.2150614E+04  0.7818608E-02  0.8539269E-01
          1   -1    0    0  501    0  0.00000000000E+00  0.00000000000E+00  0.15602179432E+04  0.15602179432E+04  0.00000000000E+00 0. -1.
         -1   -1    0    0    0  501 -0.00000000000E+00 -0.00000000000E+00 -0.74110490537E+03  0.74110490537E+03  0.00000000000E+00 0.  1.
         23    2    1    2    0    0  0.34842441650E+03 -0.68517840335E+03  0.12119574455E+04  0.14380756377E+04  0.91387479917E+02 0.  0.
         13    1    3    3    0    0  0.16881317508E+03 -0.42078991187E+03  0.67320151092E+03  0.81164173889E+03  0.00000000000E+00 0. -1.
        -13    1    3    3    0    0  0.17961124142E+03 -0.26438849149E+03  0.53875593458E+03  0.62643389877E+03  0.00000000000E+00 0.  1.
         22    1    1    2    0    0 -0.34842441650E+03  0.68517840335E+03 -0.39284440771E+03  0.86324721089E+03  0.00000000000E+00 0.  1.
<mgrwt>
<rscale>  0 0.21506140E+04</rscale>
<asrwt>0</asrwt>
<pdfrwt beam="1">  1        1 0.24003353E+00 0.21506140E+04</pdfrwt>
<pdfrwt beam="2">  1       -1 0.11401614E+00 0.21506140E+04</pdfrwt>
<totfact> 0.38130989E+00</totfact>
</mgrwt>
</event>
<event>
 6    1  0.9906445E-006  0.3673873E+04  0.7818608E-02  0.8073777E-01
          1   -1    0    0  501    0  0.00000000000E+00  0.00000000000E+00  0.96569954568E+03  0.96569954568E+03  0.00000000000E+00 0. -1.
         -1   -1    0    0    0  501 -0.00000000000E+00 -0.00000000000E+00 -0.34941883167E+04  0.34941883167E+04  0.00000000000E+00 0.  1.
         23    2    1    2    0    0  0.92048531050E+03 -0.10442620702E+04 -0.27178790712E+04  0.30550230419E+04  0.92318268941E+02 0.  0.
         11    1    3    3    0    0  0.19462195442E+03 -0.27104717322E+03 -0.60511308019E+03  0.69101817275E+03  0.00000000000E+00 0. -1.
        -11    1    3    3    0    0  0.72586335608E+03 -0.77321489701E+03 -0.21127659910E+04  0.23640048691E+04  0.00000000000E+00 0.  1.
         22    1    1    2    0    0 -0.92048531050E+03  0.10442620702E+04  0.18939030011E+03  0.14048648205E+04  0.00000000000E+00 0. -1.
<mgrwt>
<rscale>  0 0.36738732E+04</rscale>
<asrwt>0</asrwt>
<pdfrwt beam="1">  1        1 0.14856916E+00 0.36738732E+04</pdfrwt>
<pdfrwt beam="2">  1       -1 0.53756743E+00 0.36738732E+04</pdfrwt>
<totfact> 0.11373090E-02</totfact>
</mgrwt>
</event>
<event>
 6    1  0.9906445E-006  0.3178411E+04  0.7818608E-02  0.8194542E-01
         -2   -1    0    0    0  501 -0.00000000000E+00  0.00000000000E+00  0.22479715889E+04  0.22479715889E+04  0.00000000000E+00 0.  1.
          2   -1    0    0  501    0  0.00000000000E+00 -0.00000000000E+00 -0.11234904372E+04  0.11234904372E+04  0.00000000000E+00 0. -1.
         23    2    1    2    0    0 -0.41121391150E+03  0.11425775541E+04  0.16480975741E+04  0.20490572069E+04  0.88484323753E+02 0.  0.
         11    1    3    3    0    0 -0.17437995038E+03  0.58564177799E+03  0.78085916521E+03  0.99152695128E+03  0.00000000000E+00 0. -1.
        -11    1    3    3    0    0 -0.23683396111E+03  0.55693577607E+03  0.86723840886E+03  0.10575302556E+04  0.00000000000E+00 0.  1.
         22    1    1    2    0    0  0.41121391150E+03 -0.11425775541E+04 -0.52361642232E+03  0.13224048192E+04  0.00000000000E+00 0. -1.
<mgrwt>
<rscale>  0 0.31784113E+04</rscale>
<asrwt>0</asrwt>
<pdfrwt beam="1">  1        2 0.17284468E+00 0.31784113E+04</pdfrwt>
<pdfrwt beam="2">  1       -2 0.34584178E+00 0.31784113E+04</pdfrwt>
<totfact> 0.29365192E-01</totfact>
</mgrwt>
</event>
<event>
 6    1  0.9906445E-006  0.3616604E+04  0.7818608E-02  0.8086699E-01
         -2   -1    0    0    0  501 -0.00000000000E+00  0.00000000000E+00  0.23582292764E+04  0.23582292764E+04  0.00000000000E+00 0.  1.
          2   -1    0    0  501    0  0.00000000000E+00 -0.00000000000E+00 -0.13866147902E+04  0.13866147902E+04  0.00000000000E+00 0. -1.
         23    2    1    2    0    0 -0.35553530317E+03 -0.78388188170E+03  0.21314001454E+04  0.23005522223E+04  0.93796543743E+02 0.  0.
         13    1    3    3    0    0 -0.12287097979E+03 -0.25266939545E+03  0.58460312288E+03  0.64861383916E+03  0.00000000000E+00 0. -1.
        -13    1    3    3    0    0 -0.23266432338E+03 -0.53121248625E+03  0.15467970225E+04  0.16519383832E+04  0.00000000000E+00 0.  1.
         22    1    1    2    0    0  0.35553530317E+03  0.78388188170E+03 -0.11597856591E+04  0.14442918442E+04  0.00000000000E+00 0. -1.
<mgrwt>
<rscale>  0 0.36166037E+04</rscale>
<asrwt>0</asrwt>
<pdfrwt beam="1">  1        2 0.21332535E+00 0.36166037E+04</pdfrwt>
<pdfrwt beam="2">  1       -2 0.36280450E+00 0.36166037E+04</pdfrwt>
<totfact> 0.15464039E-01</totfact>
</mgrwt>
</event>
<event>
 6    1  0.9906445E-006  0.3658449E+04  0.7818608E-02  0.8077233E-01
          2   -1    0    0  501    0  0.00000000000E+00  0.00000000000E+00  0.15388394712E+04  0.15388394712E+04  0.00000000000E+00 0. -1.
         -2   -1    0    0    0  501 -0.00000000000E+00 -0.00000000000E+00 -0.21744065459E+04  0.21744065459E+04  0.00000000000E+00 0.  1.
         23    2    1    2    0    0 -0.13712679326E+04  0.78557934162E+03 -0.12506757939E+04  0.20174071741E+04  0.90725517690E+02 0.  0.
         11    1    3    3    0    0 -0.98195300871E+03  0.59301296194E+03 -0.94575338381E+03  0.14867230903E+04  0.00000000000E+00 0.  1.
        -11    1    3    3    0    0 -0.38931492391E+03  0.19256637968E+03 -0.30492241006E+03  0.53068408372E+03  0.00000000000E+00 0. -1.
         22    1    1    2    0    0  0.13712679326E+04 -0.78557934162E+03  0.61510871917E+03  0.16958388430E+04  0.00000000000E+00 0. -1.
<mgrwt>
<rscale>  0 0.36584492E+04</rscale>
<asrwt>0</asrwt>
<pdfrwt beam="1">  1        2 0.23674453E+00 0.36584492E+04</pdfrwt>
<pdfrwt beam="2">  1       -2 0.33452408E+00 0.36584492E+04</pdfrwt>
<totfact> 0.19041042E-01</totfact>
</mgrwt>
</event>
<event>
 6    1  0.9906445E-006  0.1670280E+04  0.7818608E-02  0.8778499E-01
         -1   -1    0    0    0  501 -0.00000000000E+00  0.00000000000E+00  0.74271833108E+03  0.74271833108E+03  0.00000000000E+00 0.  1.
          1   -1    0    0  501    0  0.00000000000E+00 -0.00000000000E+00 -0.93906238834E+03  0.93906238834E+03  0.00000000000E+00 0. -1.
         23    2    1    2    0    0  0.82251664550E+02  0.72710526723E+03  0.30154225118E+03  0.79671677705E+03  0.91555926277E+02 0.  0.
         13    1    3    3    0    0 -0.61474171681E+01  0.17829791828E+03  0.10558937568E+03  0.20730908001E+03  0.00000000000E+00 0.  1.
        -13    1    3    3    0    0  0.88399081718E+02  0.54880734895E+03  0.19595287550E+03  0.58940769704E+03  0.00000000000E+00 0. -1.
         22    1    1    2    0    0 -0.82251664550E+02 -0.72710526723E+03 -0.49788630844E+03  0.88506394237E+03  0.00000000000E+00 0. -1.
<mgrwt>
<rscale>  0 0.16702800E+04</rscale>
<asrwt>0</asrwt>
<pdfrwt beam="1">  1        1 0.14447114E+00 0.16702800E+04</pdfrwt>
<pdfrwt beam="2">  1       -1 0.11426436E+00 0.16702800E+04</pdfrwt>
<totfact> 0.11249551E+01</totfact>
</mgrwt>
</event>
<event>
 6    1  0.9906445E-006  0.1430388E+04  0.7818608E-02  0.8932111E-01
         -1   -1    0    0    0  501 -0.00000000000E+00  0.00000000000E+00  0.13128946958E+04  0.13128946958E+04  0.00000000000E+00 0.  1.
          1   -1    0    0  501    0  0.00000000000E+00 -0.00000000000E+00 -0.38959919252E+03  0.38959919252E+03  0.00000000000E+00 0. -1.
         23    2    1    2    0    0 -0.44347894159E+03 -0.76715465360E+02  0.11205472523E+04  0.12111008819E+04  0.92630271761E+02 0.  0.
         11    1    3    3    0    0 -0.91609899946E+02  0.10526511707E+02  0.16377231056E+03  0.18794826661E+03  0.00000000000E+00 0.  1.
        -11    1    3    3    0    0 -0.35186904164E+03 -0.87241977067E+02  0.95677494170E+03  0.10231526153E+04  0.00000000000E+00 0. -1.
         22    1    1    2    0    0  0.44347894159E+03  0.76715465360E+02 -0.19725174903E+03  0.49139300641E+03  0.00000000000E+00 0. -1.
<mgrwt>
<rscale>  0 0.14303884E+04</rscale>
<asrwt>0</asrwt>
<pdfrwt beam="1">  1        1 0.59938338E-01 0.14303884E+04</pdfrwt>
<pdfrwt beam="2">  1       -1 0.20198380E+00 0.14303884E+04</pdfrwt>
<totfact> 0.88147923E+00</totfact>
</mgrwt>
</event>
<event>
 6    1  0.9906445E-006  0.8648959E+03  0.7818608E-02  0.9470559E-01
          2   -1    0    0  501    0  0.00000000000E+00  0.00000000000E+00  0.70407425897E+03  0.70407425897E+03  0.00000000000E+00 0. -1.
         -2   -1    0    0    0  501 -0.00000000000E+00 -0.00000000000E+00 -0.26561292435E+03  0.26561292435E+03  0.00000000000E+00 0.  1.
         23    2    1    2    0    0  0.18096635212E+03 -0.34272724248E+03  0.42417986484E+03  0.58185378646E+03  0.91730516979E+02 0.  0.
         13    1    3    3    0    0  0.66517056790E+02 -0.21480311444E+03  0.26740153684E+03  0.34938299718E+03  0.00000000000E+00 0. -1.
        -13    1    3    3    0    0  0.11444929533E+03 -0.12792412804E+03  0.15677832801E+03  0.23247078928E+03  0.00000000000E+00 0.  1.
         22    1    1    2    0    0 -0.18096635212E+03  0.34272724248E+03  0.14281469775E+02  0.38783339685E+03  0.00000000000E+00 0.  1.
<mgrwt>
<rscale>  0 0.86489588E+03</rscale>
<asrwt>0</asrwt>
<pdfrwt beam="1">  1        2 0.10831912E+00 0.86489588E+03</pdfrwt>
<pdfrwt beam="2">  1       -2 0.40863527E-01 0.86489588E+03</pdfrwt>
<totfact> 0.23154466E+02</totfact>
</mgrwt>
</event>
<event>
 6    1  0.9906445E-006  0.3139690E+04  0.7818608E-02  0.8204929E-01
         -1   -1    0    0    0  501 -0.00000000000E+00  0.00000000000E+00  0.12512994720E+04  0.12512994720E+04  0.00000000000E+00 0.  1.
          1   -1    0    0  501    0  0.00000000000E+00 -0.00000000000E+00 -0.19694837314E+04  0.19694837314E+04  0.00000000000E+00 0. -1.
         23    2    1    2    0    0 -0.46375518514E+03  0.12075622869E+03  0.11726897281E+04  0.12701280891E+04  0.91505333048E+02 0.  0.
         13    1    3    3    0    0 -0.34087735500E+03  0.12698082569E+03  0.91177429485E+03  0.98165873194E+03  0.00000000000E+00 0. -1.
        -13    1    3    3    0    0 -0.12287783015E+03 -0.62245969965E+01  0.26091543320E+03  0.28846935718E+03  0.00000000000E+00 0.  1.
         22    1    1    2    0    0  0.46375518514E+03 -0.12075622869E+03 -0.18908739874E+04  0.19506551143E+04  0.00000000000E+00 0. -1.
<mgrwt>
<rscale>  0 0.31396904E+04</rscale>
<asrwt>0</asrwt>
<pdfrwt beam="1">  1        1 0.30299750E+00 0.31396904E+04</pdfrwt>
<pdfrwt beam="2">  1       -1 0.19250761E+00 0.31396904E+04</pdfrwt>
<totfact> 0.44604277E-01</totfact>
</mgrwt>
</event>
<event>
 6    1  0.9906445E-006  0.4748613E+04  0.7818608E-02  0.7868501E-01
          2   -1    0    0  501    0  0.00000000000E+00  0.00000000000E+00  0.36061339455E+04  0.36061339455E+04  0.00000000000E+00 0. -1.
         -2   -1    0    0    0  501 -0.00000000000E+00 -0.00000000000E+00 -0.15632615824E+04  0.15632615824E+04  0.00000000000E+00 0.  1.
         23    2    1    2    0    0 -0.19813396420E+04  0.95963002610E+03  0.56299793487E+02  0.22040848969E+04  0.90686283255E+02 0.  0.
         13    1    3    3    0    0 -0.17107374781E+04  0.80784590362E+03  0.22878075515E+02  0.18920256683E+04  0.00000000000E+00 0.  1.
        -13    1    3    3    0    0 -0.27060216391E+03  0.15178412248E+03  0.33421717972E+02  0.31205922864E+03  0.00000000000E+00 0. -1.
         22    1    1    2    0    0  0.19813396420E+04 -0.95963002610E+03  0.19865725696E+04  0.29653106310E+04  0.00000000000E+00 0. -1.
<mgrwt>
<rscale>  0 0.47486127E+04</rscale>
<asrwt>0</asrwt>
<pdfrwt beam="1">  1        2 0.55478984E+00 0.47486127E+04</pdfrwt>
<pdfrwt beam="2">  1       -2 0.24050178E+00 0.47486127E+04</pdfrwt>
<totfact> 0.37240842E-02</totfact>
</mgrwt>
</event>
<event>
 6    1  0.9906445E-006  0.2564257E+04  0.7818608E-02  0.8380445E-01
          2   -1    0    0  501    0  0.00000000000E+00  0.00000000000E+00  0.97932054004E+03  0.97932054004E+03  0.00000000000E+00 0. -1.
         -2   -1    0    0    0  501 -0.00000000000E+00 -0.00000000000E+00 -0.16785650778E+04  0.16785650778E+04  0.00000000000E+00 0.  1.
         23    2    1    2    0    0  0.19847812853E+03 -0.12509342268E+04 -0.54619890031E+03  0.13820905816E+04  0.87241790210E+02 0.  0.
         11    1    3    3    0    0  0.10411260224E+03 -0.75517903106E+03 -0.37173446460E+03  0.84812812421E+03  0.00000000000E+00 0.  1.
        -11    1    3    3    0    0  0.94365526293E+02 -0.49575519570E+03 -0.17446443571E+03  0.53396245743E+03  0.00000000000E+00 0. -1.
         22    1    1    2    0    0 -0.19847812853E+03  0.12509342268E+04 -0.15304563741E+03  0.12757950362E+04  0.00000000000E+00 0. -1.
<mgrwt>
<rscale>  0 0.25642568E+04</rscale>
<asrwt>0</asrwt>
<pdfrwt beam="1">  1        2 0.15066470E+00 0.25642568E+04</pdfrwt>
<pdfrwt beam="2">  1       -2 0.25824078E+00 0.25642568E+04</pdfrwt>
<totfact> 0.13179500E+00</totfact>
</mgrwt>
</event>
<event>
 6    1  0.9906445E-006  0.4371188E+04  0.7818608E-02  0.7933584E-01
          1   -1    0    0  501    0  0.00000000000E+00  0.00000000000E+00  0.41470958458E+04  0.41470958458E+04  0.00000000000E+00 0. -1.
         -1   -1    0    0    0  501 -0.00000000000E+00 -0.00000000000E+00 -0.11518473500E+04  0.11518473500E+04  0.00000000000E+00 0.  1.
         23    2    1    2    0    0  0.17518330253E+04  0.12668048949E+04  0.18794405018E+04  0.28660969061E+04  0.92202414712E+02 0.  0.
         13    1    3    3    0    0  0.26199680426E+03  0.22994096607E+03  0.31404437719E+03  0.46918977415E+03  0.00000000000E+00 0.  1.
        -13    1    3    3    0    0  0.14898362210E+04  0.10368639288E+04  0.15653961246E+04  0.23969071319E+04  0.00000000000E+00 0. -1.
         22    1    1    2    0    0 -0.17518330253E+04 -0.12668048949E+04  0.11158079940E+04  0.24328462897E+04  0.00000000000E+00 0. -1.
<mgrwt>
<rscale>  0 0.43711881E+04</rscale>
<asrwt>0</asrwt>
<pdfrwt beam="1">  1        1 0.63801474E+00 0.43711881E+04</pdfrwt>
<pdfrwt beam="2">  1       -1 0.17720729E+00 0.43711881E+04</pdfrwt>
<totfact> 0.11666394E-02</totfact>
</mgrwt>
</event>
<event>
 6    1  0.9906445E-006  0.2547612E+04  0.7818608E-02  0.8386217E-01
         -1   -1    0    0    0  501 -0.00000000000E+00  0.00000000000E+00  0.18920283450E+04  0.18920283450E+04  0.00000000000E+00 0.  1.
          1   -1    0    0  501    0  0.00000000000E+00 -0.00000000000E+00 -0.85758831458E+03  0.85758831458E+03  0.00000000000E+00 0. -1.
         23    2    1    2    0    0 -0.39030804559E+03  0.49255110803E+03  0.17116337575E+04  0.18257452894E+04  0.93320832107E+02 0.  0.
         13    1    3    3    0    0 -0.18094697494E+03  0.29078908751E+03  0.85152707920E+03  0.91782267773E+03  0.00000000000E+00 0. -1.
        -13    1    3    3    0    0 -0.20936107064E+03  0.20176202052E+03  0.86010667829E+03  0.90792261171E+03  0.00000000000E+00 0.  1.
         22    1    1    2    0    0  0.39030804559E+03 -0.49255110803E+03 -0.67719372709E+03  0.92387137010E+03  0.00000000000E+00 0. -1.
<mgrwt>
<rscale>  0 0.25476117E+04</rscale>
<asrwt>0</asrwt>
<pdfrwt beam="1">  1        1 0.13193666E+00 0.25476117E+04</pdfrwt>
<pdfrwt beam="2">  1       -1 0.29108128E+00 0.25476117E+04</pdfrwt>
<totfact> 0.65874720E-01</totfact>
</mgrwt>
</event>
<event>
 6    1  0.9906445E-006  0.3158714E+04  0.7818608E-02  0.8199807E-01
          2   -1    0    0  501    0  0.00000000000E+00  0.00000000000E+00  0.15869185417E+04  0.15869185417E+04  0.00000000000E+00 0. -1.
         -2   -1    0    0    0  501 -0.00000000000E+00 -0.00000000000E+00 -0.15718316405E+04  0.15718316405E+04  0.00000000000E+00 0.  1.
         23    2    1    2    0    0  0.68711588202E+03  0.11558917024E+04 -0.81850163486E+03  0.15766364978E+04  0.87314701235E+02 0.  0.
         11    1    3    3    0    0  0.41941395957E+03  0.71868482378E+03 -0.45707514317E+03  0.94938592360E+03  0.00000000000E+00 0. -1.
        -11    1    3    3    0    0  0.26770192245E+03  0.43720687858E+03 -0.36142649168E+03  0.62725057422E+03  0.00000000000E+00 0.  1.
         22    1    1    2    0    0 -0.68711588202E+03 -0.11558917024E+04  0.83358853604E+03  0.15821136844E+04  0.00000000000E+00 0. -1.
<mgrwt>
<rscale>  0 0.31587142E+04</rscale>
<asrwt>0</asrwt>
<pdfrwt beam="1">  1        2 0.24414131E+00 0.31587142E+04</pdfrwt>
<pdfrwt beam="2">  1       -2 0.24182025E+00 0.31587142E+04</pdfrwt>
<totfact> 0.69170939E-01</totfact>
</mgrwt>
</event>
<event>
 6    1  0.9906445E-006  0.1844023E+04  0.7818608E-02  0.8683232E-01
         -2   -1    0    0    0  501 -0.00000000000E+00  0.00000000000E+00  0.34448684452E+03  0.34448684452E+03  0.00000000000E+00 0.  1.
          2   -1    0    0  501    0  0.00000000000E+00 -0.00000000000E+00 -0.24677443562E+04  0.24677443562E+04  0.00000000000E+00 0. -1.
         23    2    1    2    0    0 -0.44480523964E+03 -0.35107996573E+03 -0.21689945770E+04  0.22437237490E+04  0.93005071550E+02 0.  0.
         13    1    3    3    0    0 -0.90158913401E+02 -0.88622656063E+02 -0.63897706413E+03  0.65136341110E+03  0.00000000000E+00 0.  1.
        -13    1    3    3    0    0 -0.35464632624E+03 -0.26245730967E+03 -0.15300175129E+04  0.15923603379E+04  0.00000000000E+00 0. -1.
         22    1    1    2    0    0  0.44480523964E+03  0.35107996573E+03  0.45737065274E+02  0.56850745175E+03  0.00000000000E+00 0.  1.
<mgrwt>
<rscale>  0 0.18440233E+04</rscale>
<asrwt>0</asrwt>
<pdfrwt beam="1">  1        2 0.37965298E+00 0.18440233E+04</pdfrwt>
<pdfrwt beam="2">  1       -2 0.52997976E-01 0.18440233E+04</pdfrwt>
<totfact> 0.11488770E+01</totfact>
</mgrwt>
</event>
<event>
 6    1  0.9906445E-006  0.3332500E+04  0.7818608E-02  0.8154675E-01
          2   -1    0    0  501    0  0.00000000000E+00  0.00000000000E+00  0.36733673538E+04  0.36733673538E+04  0.00000000000E+00 0. -1.
         -2   -1    0    0    0  501 -0.00000000000E+00 -0.00000000000E+00 -0.75581560549E+03  0.75581560549E+03  0.00000000000E+00 0.  1.
         23    2    1    2    0    0 -0.26046145190E+02 -0.11686030428E+04 -0.11598240354E+03  0.11782383391E+04  0.92098817941E+02 0.  0.
         13    1    3    3    0    0  0.18086240458E+02 -0.81956077105E+03 -0.59555383765E+02  0.82192080718E+03  0.00000000000E+00 0. -1.
        -13    1    3    3    0    0 -0.44132385648E+02 -0.34904227179E+03 -0.56427019775E+02  0.35631753187E+03  0.00000000000E+00 0.  1.
         22    1    1    2    0    0  0.26046145190E+02  0.11686030428E+04  0.30335341518E+04  0.32509446202E+04  0.00000000000E+00 0. -1.
<mgrwt>
<rscale>  0 0.33324996E+04</rscale>
<asrwt>0</asrwt>
<pdfrwt beam="1">  1        2 0.56513343E+00 0.33324996E+04</pdfrwt>
<pdfrwt beam="2">  1       -2 0.11627933E+00 0.33324996E+04</pdfrwt>
<totfact> 0.29143902E-01</totfact>
</mgrwt>
</event>
<event>
 6    1  0.9906445E-006  0.1196161E+04  0.7818608E-02  0.9116224E-01
          2   -1    0    0  501    0  0.00000000000E+00  0.00000000000E+00  0.15955016973E+04  0.15955016973E+04  0.00000000000E+00 0. -1.
         -2   -1    0    0    0  501 -0.00000000000E+00 -0.00000000000E+00 -0.22419292357E+03  0.22419292357E+03  0.00000000000E+00 0.  1.
         23    2    1    2    0    0  0.21483050323E+03 -0.71409003176E+01  0.15330401502E+04  0.15506961530E+04  0.90792727978E+02 0.  0.
         11    1    3    3    0    0  0.12185795788E+03  0.10097660400E+02  0.56674130116E+03  0.57978187889E+03  0.00000000000E+00 0.  1.
        -11    1    3    3    0    0  0.92972545352E+02 -0.17238560718E+02  0.96629884899E+03  0.97091427413E+03  0.00000000000E+00 0. -1.
         22    1    1    2    0    0 -0.21483050323E+03  0.71409003176E+01 -0.16173137643E+03  0.26899846783E+03  0.00000000000E+00 0.  1.
<mgrwt>
<rscale>  0 0.11961608E+04</rscale>
<asrwt>0</asrwt>
<pdfrwt beam="1">  1        2 0.24546179E+00 0.11961608E+04</pdfrwt>
<pdfrwt beam="2">  1       -2 0.34491220E-01 0.11961608E+04</pdfrwt>
<totfact> 0.87183895E+01</totfact>
</mgrwt>
</event>
<event>
 6    1  0.9906445E-006  0.2445528E+04  0.7818608E-02  0.8422652E-01
         -2   -1    0    0    0  501 -0.00000000000E+00  0.00000000000E+00  0.45863270529E+03  0.45863270529E+03  0.00000000000E+00 0.  1.
          2   -1    0    0  501    0  0.00000000000E+00 -0.00000000000E+00 -0.32600206325E+04  0.32600206325E+04  0.00000000000E+00 0. -1.
         23    2    1    2    0    0 -0.10003971184E+04 -0.40731353390E+03 -0.22686320515E+04  0.25142748538E+04  0.90487270877E+02 0.  0.
         11    1    3    3    0    0 -0.93317530427E+03 -0.36047169737E+03 -0.20576423504E+04  0.22879353215E+04  0.00000000000E+00 0.  1.
        -11    1    3    3    0    0 -0.67221814161E+02 -0.46841836529E+02 -0.21098970109E+03  0.22633953237E+03  0.00000000000E+00 0. -1.
         22    1    1    2    0    0  0.10003971184E+04  0.40731353390E+03 -0.53275587570E+03  0.12043784839E+04  0.00000000000E+00 0. -1.
<mgrwt>
<rscale>  0 0.24455282E+04</rscale>
<asrwt>0</asrwt>
<pdfrwt beam="1">  1        2 0.50154164E+00 0.24455282E+04</pdfrwt>
<pdfrwt beam="2">  1       -2 0.70558877E-01 0.24455282E+04</pdfrwt>
<totfact> 0.19397378E+00</totfact>
</mgrwt>
</event>
<event>
 6    1  0.9906445E-006  0.3370512E+04  0.7818608E-02  0.8145182E-01
          2   -1    0    0  501    0  0.00000000000E+00  0.00000000000E+00  0.21006989503E+04  0.21006989503E+04  0.00000000000E+00 0. -1.
         -2   -1    0    0    0  501 -0.00000000000E+00 -0.00000000000E+00 -0.13519726493E+04  0.13519726493E+04  0.00000000000E+00 0.  1.
         23    2    1    2    0    0  0.67440055317E+03 -0.10825975108E+04  0.15009829193E+04  0.19718868428E+04  0.92490649051E+02 0.  0.
         11    1    3    3    0    0  0.14515791467E+03 -0.28284295095E+03  0.42122394958E+03  0.52773153288E+03  0.00000000000E+00 0. -1.
        -11    1    3    3    0    0  0.52924263850E+03 -0.79975455986E+03  0.10797589697E+04  0.14441553099E+04  0.00000000000E+00 0.  1.
         22    1    1    2    0    0 -0.67440055317E+03  0.10825975108E+04 -0.75225661828E+03  0.14807847569E+04  0.00000000000E+00 0.  1.
<mgrwt>
<rscale>  0 0.33705118E+04</rscale>
<asrwt>0</asrwt>
<pdfrwt beam="1">  1        2 0.32318446E+00 0.33705118E+04</pdfrwt>
<pdfrwt beam="2">  1       -2 0.20799579E+00 0.33705118E+04</pdfrwt>
<totfact> 0.57513355E-01</totfact>
</mgrwt>
</event>
<event>
 6    1  0.9906445E-006  0.1489107E+04  0.7818608E-02  0.8891729E-01
          1   -1    0    0  501    0  0.00000000000E+00  0.00000000000E+00  0.42093922022E+03  0.42093922022E+03  0.00000000000E+00 0.  1.
         -1   -1    0    0    0  501 -0.00000000000E+00 -0.00000000000E+00 -0.13169589758E+04  0.13169589758E+04  0.00000000000E+00 0. -1.
         23    2    1    2    0    0  0.22700282071E+03  0.84466098218E+02  0.36858888957E+03  0.45030360619E+03  0.90833726539E+02 0.  0.
         11    1    3    3    0    0  0.11056393866E+03  0.10082903885E+01  0.20449923918E+03  0.23247653647E+03  0.00000000000E+00 0.  1.
        -11    1    3    3    0    0  0.11643888205E+03  0.83457807829E+02  0.16408965039E+03  0.21782706972E+03  0.00000000000E+00 0. -1.
         22    1    1    2    0    0 -0.22700282071E+03 -0.84466098218E+02 -0.12646086451E+04  0.12875945898E+04  0.00000000000E+00 0. -1.
<mgrwt>
<rscale>  0 0.14891067E+04</rscale>
<asrwt>0</asrwt>
<pdfrwt beam="1">  1        1 0.64759880E-01 0.14891067E+04</pdfrwt>
<pdfrwt beam="2">  1       -1 0.20260907E+00 0.14891067E+04</pdfrwt>
<totfact> 0.78330872E+00</totfact>
</mgrwt>
</event>
<event>
 6    1  0.9906445E-006  0.2376655E+04  0.7818608E-02  0.8448296E-01
          2   -1    0    0  501    0  0.00000000000E+00  0.00000000000E+00  0.19365539872E+04  0.19365539872E+04  0.00000000000E+00 0. -1.
         -2   -1    0    0    0  501 -0.00000000000E+00 -0.00000000000E+00 -0.72919337812E+03  0.72919337812E+03  0.00000000000E+00 0.  1.
         23    2    1    2    0    0  0.58427603253E+03  0.68811298941E+03  0.14682993786E+04  0.17260841226E+04  0.92657243523E+02 0.  0.
         11    1    3    3    0    0  0.43681227217E+03  0.45427931728E+03  0.10531075911E+04  0.12272775797E+04  0.00000000000E+00 0. -1.
        -11    1    3    3    0    0  0.14746376036E+03  0.23383367213E+03  0.41519178747E+03  0.49880654288E+03  0.00000000000E+00 0.  1.
         22    1    1    2    0    0 -0.58427603253E+03 -0.68811298941E+03 -0.26093876946E+03  0.93966324276E+03  0.00000000000E+00 0.  1.
<mgrwt>
<rscale>  0 0.23766551E+04</rscale>
<asrwt>0</asrwt>
<pdfrwt beam="1">  1        2 0.29793138E+00 0.23766551E+04</pdfrwt>
<pdfrwt beam="2">  1       -2 0.11218360E+00 0.23766551E+04</pdfrwt>
<totfact> 0.40896502E+00</totfact>
</mgrwt>
</event>
<event>
 6    1  0.9906445E-006  0.2292069E+04  0.7818608E-02  0.8481055E-01
         -1   -1    0    0    0  501 -0.00000000000E+00  0.00000000000E+00  0.54896718411E+03  0.54896718411E+03  0.00000000000E+00 0.  1.
          1   -1    0    0  501    0  0.00000000000E+00 -0.00000000000E+00 -0.23924829618E+04  0.23924829618E+04  0.00000000000E+00 0. -1.
         23    2    1    2    0    0  0.48309748560E+03 -0.72631513554E+03 -0.18733076535E+04  0.20686360692E+04  0.95167039275E+02 0.  0.
         11    1    3    3    0    0  0.45049987860E+03 -0.68880597687E+03 -0.17069579574E+04  0.18950222380E+04  0.00000000000E+00 0.  1.
        -11    1    3    3    0    0  0.32597607001E+02 -0.37509158668E+02 -0.16634969615E+03  0.17361383117E+03  0.00000000000E+00 0. -1.
         22    1    1    2    0    0 -0.48309748560E+03  0.72631513554E+03  0.29791875790E+02  0.87281407675E+03  0.00000000000E+00 0.  1.
<mgrwt>
<rscale>  0 0.22920686E+04</rscale>
<asrwt>0</asrwt>
<pdfrwt beam="1">  1        1 0.36807430E+00 0.22920686E+04</pdfrwt>
<pdfrwt beam="2">  1       -1 0.84456490E-01 0.22920686E+04</pdfrwt>
<totfact> 0.20185512E+00</totfact>
</mgrwt>
</event>
<event>
 6    1  0.9906445E-006  0.4487551E+04  0.7818608E-02  0.7912820E-01
         -2   -1    0    0    0  501 -0.00000000000E+00  0.00000000000E+00  0.18417060496E+04  0.18417060496E+04  0.00000000000E+00 0. -1.
          2   -1    0    0  501    0  0.00000000000E+00 -0.00000000000E+00 -0.27336223698E+04  0.27336223698E+04  0.00000000000E+00 0.  1.
         23    2    1    2    0    0  0.15050109943E+04  0.15996545348E+04  0.17362177022E+02  0.21981998765E+04  0.88478968858E+02 0.  0.
         13    1    3    3    0    0  0.12881356562E+04  0.13447715309E+04 -0.12360092938E+02  0.18622182232E+04  0.00000000000E+00 0. -1.
        -13    1    3    3    0    0  0.21687533814E+03  0.25488300395E+03  0.29722269959E+02  0.33598165326E+03  0.00000000000E+00 0.  1.
         22    1    1    2    0    0 -0.15050109943E+04 -0.15996545348E+04 -0.90927849719E+03  0.23771285429E+04  0.00000000000E+00 0. -1.
<mgrwt>
<rscale>  0 0.44875512E+04</rscale>
<asrwt>0</asrwt>
<pdfrwt beam="1">  1        2 0.42055729E+00 0.44875512E+04</pdfrwt>
<pdfrwt beam="2">  1       -2 0.28333939E+00 0.44875512E+04</pdfrwt>
<totfact> 0.77262338E-02</totfact>
</mgrwt>
</event>
<event>
 6    1  0.9906445E-006  0.4057983E+04  0.7818608E-02  0.7992951E-01
          1   -1    0    0  501    0  0.00000000000E+00  0.00000000000E+00  0.28296344060E+04  0.28296344060E+04  0.00000000000E+00 0. -1.
         -1   -1    0    0    0  501 -0.00000000000E+00 -0.00000000000E+00 -0.14548900780E+04  0.14548900780E+04  0.00000000000E+00 0.  1.
         23    2    1    2    0    0 -0.59703430529E+03 -0.77020237367E+03  0.25655071551E+04  0.27458309575E+04  0.89994589844E+02 0.  0.
         13    1    3    3    0    0 -0.47303957830E+03 -0.56968116698E+03  0.20252688413E+04  0.21563897965E+04  0.00000000000E+00 0.  1.
        -13    1    3    3    0    0 -0.12399472700E+03 -0.20052120669E+03  0.54023831373E+03  0.58944116099E+03  0.00000000000E+00 0. -1.
         22    1    1    2    0    0  0.59703430529E+03  0.77020237367E+03 -0.11907628271E+04  0.15386935265E+04  0.00000000000E+00 0.  1.
<mgrwt>
<rscale>  0 0.40579833E+04</rscale>
<asrwt>0</asrwt>
<pdfrwt beam="1">  1        1 0.43532837E+00 0.40579833E+04</pdfrwt>
<pdfrwt beam="2">  1       -1 0.22382924E+00 0.40579833E+04</pdfrwt>
<totfact> 0.64128922E-02</totfact>
</mgrwt>
</event>
<event>
 6    1  0.9906445E-006  0.3034912E+04  0.7818608E-02  0.8233831E-01
          1   -1    0    0  501    0  0.00000000000E+00  0.00000000000E+00  0.26129286462E+04  0.26129286462E+04  0.00000000000E+00 0. -1.
         -1   -1    0    0    0  501 -0.00000000000E+00 -0.00000000000E+00 -0.88126119559E+03  0.88126119559E+03  0.00000000000E+00 0.  1.
         23    2    1    2    0    0  0.57410585953E+03  0.12147998636E+04  0.16750236964E+04  0.21493683810E+04  0.93508325829E+02 0.  0.
         13    1    3    3    0    0  0.34529198064E+03  0.83314821843E+03  0.11155182618E+04  0.14344837044E+04  0.00000000000E+00 0. -1.
        -13    1    3    3    0    0  0.22881387889E+03  0.38165164518E+03  0.55950543457E+03  0.71488467655E+03  0.00000000000E+00 0.  1.
         22    1    1    2    0    0 -0.57410585953E+03 -0.12147998636E+04  0.56643754191E+02  0.13448214608E+04  0.00000000000E+00 0.  1.
<mgrwt>
<rscale>  0 0.30349119E+04</rscale>
<asrwt>0</asrwt>
<pdfrwt beam="1">  1        1 0.40198902E+00 0.30349119E+04</pdfrwt>
<pdfrwt beam="2">  1       -1 0.13557865E+00 0.30349119E+04</pdfrwt>
<totfact> 0.43665604E-01</totfact>
</mgrwt>
</event>
<event>
 6    1  0.9906445E-006  0.1387572E+04  0.7818608E-02  0.8962864E-01
          1   -1    0    0  501    0  0.00000000000E+00  0.00000000000E+00  0.41342371779E+03  0.41342371779E+03  0.00000000000E+00 0. -1.
         -1   -1    0    0    0  501 -0.00000000000E+00 -0.00000000000E+00 -0.11642759470E+04  0.11642759470E+04  0.00000000000E+00 0.  1.
         23    2    1    2    0    0  0.22926764632E+03 -0.63163925082E+03 -0.55914684734E+03  0.87892734836E+03  0.91303285719E+02 0.  0.
         13    1    3    3    0    0  0.30066440057E+02 -0.87862322578E+02 -0.39746424399E+02  0.10101265663E+03  0.00000000000E+00 0. -1.
        -13    1    3    3    0    0  0.19920120626E+03 -0.54377692824E+03 -0.51940042294E+03  0.77791469173E+03  0.00000000000E+00 0.  1.
         22    1    1    2    0    0 -0.22926764632E+03  0.63163925082E+03 -0.19170538191E+03  0.69877231648E+03  0.00000000000E+00 0. -1.
<mgrwt>
<rscale>  0 0.13875724E+04</rscale>
<asrwt>0</asrwt>
<pdfrwt beam="1">  1        1 0.63603649E-01 0.13875724E+04</pdfrwt>
<pdfrwt beam="2">  1       -1 0.17911938E+00 0.13875724E+04</pdfrwt>
<totfact> 0.11829961E+01</totfact>
</mgrwt>
</event>
<event>
 6    1  0.9906445E-006  0.3147128E+04  0.7818608E-02  0.8202922E-01
          1   -1    0    0  501    0  0.00000000000E+00  0.00000000000E+00  0.24416416217E+04  0.24416416217E+04  0.00000000000E+00 0. -1.
         -1   -1    0    0    0  501 -0.00000000000E+00 -0.00000000000E+00 -0.10141144305E+04  0.10141144305E+04  0.00000000000E+00 0.  1.
         23    2    1    2    0    0  0.13350768796E+04 -0.38781329732E+03  0.15205502045E+04  0.20623850647E+04  0.92356931225E+02 0.  0.
         13    1    3    3    0    0  0.38157840725E+03 -0.70700197058E+02  0.40152087835E+03  0.55840810748E+03  0.00000000000E+00 0.  1.
        -13    1    3    3    0    0  0.95349847233E+03 -0.31711310027E+03  0.11190293261E+04  0.15039769572E+04  0.00000000000E+00 0. -1.
         22    1    1    2    0    0 -0.13350768796E+04  0.38781329732E+03 -0.93023013322E+02  0.13933709876E+04  0.00000000000E+00 0.  1.
<mgrwt>
<rscale>  0 0.31471282E+04</rscale>
<asrwt>0</asrwt>
<pdfrwt beam="1">  1        1 0.37563717E+00 0.31471282E+04</pdfrwt>
<pdfrwt beam="2">  1       -1 0.15601761E+00 0.31471282E+04</pdfrwt>
<totfact> 0.39156572E-01</totfact>
</mgrwt>
</event>
<event>
 6    1  0.9906445E-006  0.4553857E+04  0.7818608E-02  0.7901275E-01
         -2   -1    0    0    0  501 -0.00000000000E+00  0.00000000000E+00  0.25632946319E+04  0.25632946319E+04  0.00000000000E+00 0.  1.
          2   -1    0    0  501    0  0.00000000000E+00 -0.00000000000E+00 -0.20225541825E+04  0.20225541825E+04  0.00000000000E+00 0. -1.
         23    2    1    2    0    0  0.80193025107E+03 -0.17594382158E+04 -0.93850938323E+03  0.21513272947E+04  0.93243250879E+02 0.  0.
         13    1    3    3    0    0  0.25027969505E+03 -0.56973517098E+03 -0.34987656234E+03  0.71389894221E+03  0.00000000000E+00 0.  1.
        -13    1    3    3    0    0  0.55165055601E+03 -0.11897030448E+04 -0.58863282089E+03  0.14374283525E+04  0.00000000000E+00 0. -1.
         22    1    1    2    0    0 -0.80193025107E+03  0.17594382158E+04  0.14792498326E+04  0.24345215197E+04  0.00000000000E+00 0.  1.
<mgrwt>
<rscale>  0 0.45538565E+04</rscale>
<asrwt>0</asrwt>
<pdfrwt beam="1">  1        2 0.31116218E+00 0.45538565E+04</pdfrwt>
<pdfrwt beam="2">  1       -2 0.39435302E+00 0.45538565E+04</pdfrwt>
<totfact> 0.39572938E-02</totfact>
</mgrwt>
</event>
<event>
 6    1  0.9906445E-006  0.2515249E+04  0.7818608E-02  0.8397573E-01
          2   -1    0    0  501    0  0.00000000000E+00  0.00000000000E+00  0.67662886982E+03  0.67662886982E+03  0.00000000000E+00 0.  1.
         -2   -1    0    0    0  501 -0.00000000000E+00 -0.00000000000E+00 -0.23374983148E+04  0.23374983148E+04  0.00000000000E+00 0. -1.
         23    2    1    2    0    0 -0.64754346034E+03  0.44979059719E+03 -0.20031150872E+04  0.21546179096E+04  0.91017414050E+02 0.  0.
         11    1    3    3    0    0 -0.23214272664E+03  0.20079440295E+03 -0.69642037395E+03  0.76105845704E+03  0.00000000000E+00 0. -1.
        -11    1    3    3    0    0 -0.41540073370E+03  0.24899619424E+03 -0.13066947132E+04  0.13935594526E+04  0.00000000000E+00 0.  1.
         22    1    1    2    0    0  0.64754346034E+03 -0.44979059719E+03  0.34224564213E+03  0.85950927506E+03  0.00000000000E+00 0.  1.
<mgrwt>
<rscale>  0 0.25152486E+04</rscale>
<asrwt>0</asrwt>
<pdfrwt beam="1">  1        2 0.10409675E+00 0.25152486E+04</pdfrwt>
<pdfrwt beam="2">  1       -2 0.35961512E+00 0.25152486E+04</pdfrwt>
<totfact> 0.51542212E-01</totfact>
</mgrwt>
</event>
<event>
 6    1  0.9906445E-006  0.1551076E+04  0.7818608E-02  0.8851181E-01
          2   -1    0    0  501    0  0.00000000000E+00  0.00000000000E+00  0.57516385672E+03  0.57516385672E+03  0.00000000000E+00 0.  1.
         -2   -1    0    0    0  501 -0.00000000000E+00 -0.00000000000E+00 -0.10457176397E+04  0.10457176397E+04  0.00000000000E+00 0. -1.
         23    2    1    2    0    0  0.37366059149E+02  0.33928656862E+03  0.48830524288E+03  0.60307884880E+03  0.93544051772E+02 0.  0.
         13    1    3    3    0    0  0.63903642924E+02  0.23771961525E+03  0.37541884262E+03  0.44892493632E+03  0.00000000000E+00 0. -1.
        -13    1    3    3    0    0 -0.26537583775E+02  0.10156695337E+03  0.11288640026E+03  0.15415391248E+03  0.00000000000E+00 0.  1.
         22    1    1    2    0    0 -0.37366059149E+02 -0.33928656862E+03 -0.95885902589E+03  0.10178026476E+04  0.00000000000E+00 0. -1.
<mgrwt>
<rscale>  0 0.15510757E+04</rscale>
<asrwt>0</asrwt>
<pdfrwt beam="1">  1        2 0.88486748E-01 0.15510757E+04</pdfrwt>
<pdfrwt beam="2">  1       -2 0.16087964E+00 0.15510757E+04</pdfrwt>
<totfact> 0.12454332E+01</totfact>
</mgrwt>
</event>
<event>
 6    1  0.9906445E-006  0.6424630E+03  0.7818608E-02  0.9821025E-01
         -2   -1    0    0    0  501 -0.00000000000E+00  0.00000000000E+00  0.95756592167E+02  0.95756592167E+02  0.00000000000E+00 0.  1.
          2   -1    0    0  501    0  0.00000000000E+00 -0.00000000000E+00 -0.10776248998E+04  0.10776248998E+04  0.00000000000E+00 0. -1.
         23    2    1    2    0    0 -0.26437869404E+03 -0.10510960382E+03 -0.25118158686E+03  0.38925955847E+03  0.86525670198E+02 0.  0.
         13    1    3    3    0    0 -0.19879068637E+03 -0.44705612479E+02 -0.20422413054E+03  0.28848539697E+03  0.00000000000E+00 0.  1.
        -13    1    3    3    0    0 -0.65588007674E+02 -0.60403991339E+02 -0.46957456319E+02  0.10077416149E+03  0.00000000000E+00 0. -1.
         22    1    1    2    0    0  0.26437869404E+03  0.10510960382E+03 -0.73068672078E+03  0.78412193350E+03  0.00000000000E+00 0. -1.
<mgrwt>
<rscale>  0 0.64246304E+03</rscale>
<asrwt>0</asrwt>
<pdfrwt beam="1">  1        2 0.16578845E+00 0.64246304E+03</pdfrwt>
<pdfrwt beam="2">  1       -2 0.14731783E-01 0.64246304E+03</pdfrwt>
<totfact> 0.81974048E+02</totfact>
</mgrwt>
</event>
<event>
 6    1  0.1669842E-005  0.3570219E+04  0.7818608E-02  0.8097348E-01
          2   -1    0    0  501    0  0.00000000000E+00  0.00000000000E+00  0.23404597901E+04  0.23404597901E+04  0.00000000000E+00 0. -1.
         -2   -1    0    0    0  501 -0.00000000000E+00 -0.00000000000E+00 -0.13615340844E+04  0.13615340844E+04  0.00000000000E+00 0.  1.
         23    2    1    2    0    0  0.14716090471E+04 -0.58679987771E+03 -0.36049577130E+03  0.16273813380E+04  0.91899587498E+02 0.  0.
         13    1    3    3    0    0  0.64770140899E+03 -0.23558122993E+03 -0.19825318758E+03  0.71716104013E+03  0.00000000000E+00 0.  1.
        -13    1    3    3    0    0  0.82390763808E+03 -0.35121864778E+03 -0.16224258371E+03  0.91022029784E+03  0.00000000000E+00 0. -1.
         22    1    1    2    0    0 -0.14716090471E+04  0.58679987771E+03  0.13394214770E+04  0.20746125366E+04  0.00000000000E+00 0. -1.
<mgrwt>
<rscale>  0 0.35702189E+04</rscale>
<asrwt>0</asrwt>
<pdfrwt beam="1">  1        2 0.36007074E+00 0.35702189E+04</pdfrwt>
<pdfrwt beam="2">  1       -2 0.20946678E+00 0.35702189E+04</pdfrwt>
<totfact> 0.40544502E-01</totfact>
</mgrwt>
</event>
<event>
 6    1  0.9906445E-006  0.3011682E+04  0.7818608E-02  0.8240403E-01
         -1   -1    0    0    0  501 -0.00000000000E+00  0.00000000000E+00  0.14706788535E+04  0.14706788535E+04  0.00000000000E+00 0.  1.
          1   -1    0    0  501    0  0.00000000000E+00 -0.00000000000E+00 -0.15418441050E+04  0.15418441050E+04  0.00000000000E+00 0. -1.
         23    2    1    2    0    0 -0.15007717022E+04 -0.81770355713E+02  0.30374764829E+02  0.15060992239E+04  0.91706884497E+02 0.  0.
         11    1    3    3    0    0 -0.56229211038E+03 -0.46510021168E+02 -0.30080337777E+02  0.56501365133E+03  0.00000000000E+00 0. -1.
        -11    1    3    3    0    0 -0.93847959184E+03 -0.35260334545E+02  0.60455102606E+02  0.94108557258E+03  0.00000000000E+00 0.  1.
         22    1    1    2    0    0  0.15007717022E+04  0.81770355713E+02 -0.10154001639E+03  0.15064237346E+04  0.00000000000E+00 0. -1.
<mgrwt>
<rscale>  0 0.30116823E+04</rscale>
<asrwt>0</asrwt>
<pdfrwt beam="1">  1        1 0.23720679E+00 0.30116823E+04</pdfrwt>
<pdfrwt beam="2">  1       -1 0.22625828E+00 0.30116823E+04</pdfrwt>
<totfact> 0.52006063E-01</totfact>
</mgrwt>
</event>
<event>
 6    1  0.9906445E-006  0.1991491E+04  0.7818608E-02  0.8610609E-01
          1   -1    0    0  501    0  0.00000000000E+00  0.00000000000E+00  0.98804109686E+03  0.98804109686E+03  0.00000000000E+00 0. -1.
         -1   -1    0    0    0  501 -0.00000000000E+00 -0.00000000000E+00 -0.10035104245E+04  0.10035104245E+04  0.00000000000E+00 0.  1.
         23    2    1    2    0    0  0.87132089279E+03 -0.16508240596E+03 -0.45598652217E+03  0.10013456349E+04  0.91197988762E+02 0.  0.
         13    1    3    3    0    0  0.52259252168E+03 -0.10946560781E+03 -0.22519367585E+03  0.57948067669E+03  0.00000000000E+00 0. -1.
        -13    1    3    3    0    0  0.34872837111E+03 -0.55616798146E+02 -0.23079284632E+03  0.42186495821E+03  0.00000000000E+00 0.  1.
         22    1    1    2    0    0 -0.87132089279E+03  0.16508240596E+03  0.44051719451E+03  0.99020588648E+03  0.00000000000E+00 0. -1.
<mgrwt>
<rscale>  0 0.19914914E+04</rscale>
<asrwt>0</asrwt>
<pdfrwt beam="1">  1        1 0.15200632E+00 0.19914914E+04</pdfrwt>
<pdfrwt beam="2">  1       -1 0.15438622E+00 0.19914914E+04</pdfrwt>
<totfact> 0.46309126E+00</totfact>
</mgrwt>
</event>
<event>
 6    1  0.9906445E-006  0.2730722E+04  0.7818608E-02  0.8325105E-01
         -2   -1    0    0    0  501 -0.00000000000E+00  0.00000000000E+00  0.84457415467E+03  0.84457415467E+03  0.00000000000E+00 0. -1.
          2   -1    0    0  501    0  0.00000000000E+00 -0.00000000000E+00 -0.22072793391E+04  0.22072793391E+04  0.00000000000E+00 0.  1.
         23    2    1    2    0    0 -0.10418811414E+04 -0.35930225741E+03  0.21583474997E+03  0.11266514915E+04  0.90246989604E+02 0.  0.
         11    1    3    3    0    0 -0.10673707718E+03 -0.66034068224E+02  0.31680879020E+02  0.12944875398E+03  0.00000000000E+00 0. -1.
        -11    1    3    3    0    0 -0.93514406419E+03 -0.29326818918E+03  0.18415387095E+03  0.99720273754E+03  0.00000000000E+00 0.  1.
         22    1    1    2    0    0  0.10418811414E+04  0.35930225741E+03 -0.15785399344E+04  0.19252020022E+04  0.00000000000E+00 0.  1.
<mgrwt>
<rscale>  0 0.27307223E+04</rscale>
<asrwt>0</asrwt>
<pdfrwt beam="1">  1        2 0.33958144E+00 0.27307223E+04</pdfrwt>
<pdfrwt beam="2">  1       -2 0.12993448E+00 0.27307223E+04</pdfrwt>
<totfact> 0.19464502E+00</totfact>
</mgrwt>
</event>
<event>
 6    1  0.9906445E-006  0.5309929E+03  0.7818608E-02  0.1005992E+00
         -3   -1    0    0    0  501 -0.00000000000E+00  0.00000000000E+00  0.57363357554E+02  0.57363357554E+02  0.00000000000E+00 0.  1.
          3   -1    0    0  501    0  0.00000000000E+00 -0.00000000000E+00 -0.12288047484E+04  0.12288047484E+04  0.00000000000E+00 0. -1.
         23    2    1    2    0    0 -0.44495568368E+02 -0.16894224126E+03 -0.14397303098E+03  0.24395288489E+03  0.90903464797E+02 0.  0.
         11    1    3    3    0    0  0.14778240599E+02 -0.53196973414E+02 -0.84547659362E+02  0.10097831985E+03  0.00000000000E+00 0. -1.
        -11    1    3    3    0    0 -0.59273808967E+02 -0.11574526784E+03 -0.59425371614E+02  0.14297456504E+03  0.00000000000E+00 0.  1.
         22    1    1    2    0    0  0.44495568368E+02  0.16894224126E+03 -0.10274683598E+04  0.10422152210E+04  0.00000000000E+00 0. -1.
<mgrwt>
<rscale>  0 0.53099290E+03</rscale>
<asrwt>0</asrwt>
<pdfrwt beam="1">  1        3 0.18904686E+00 0.53099290E+03</pdfrwt>
<pdfrwt beam="2">  1       -3 0.88251330E-02 0.53099290E+03</pdfrwt>
<totfact> 0.43647322E+01</totfact>
</mgrwt>
</event>
<event>
 6    1  0.9906445E-006  0.2671242E+04  0.7818608E-02  0.8344397E-01
          2   -1    0    0  501    0  0.00000000000E+00  0.00000000000E+00  0.50751151886E+03  0.50751151886E+03  0.00000000000E+00 0. -1.
         -2   -1    0    0    0  501 -0.00000000000E+00 -0.00000000000E+00 -0.35149627178E+04  0.35149627178E+04  0.00000000000E+00 0.  1.
         23    2    1    2    0    0  0.83416313416E+03  0.17183199112E+03  0.40754126507E+02  0.85752398845E+03  0.91280471000E+02 0.  0.
         13    1    3    3    0    0  0.42575728274E+03  0.47276914378E+02 -0.23150082082E+01  0.42838035634E+03  0.00000000000E+00 0. -1.
        -13    1    3    3    0    0  0.40840585142E+03  0.12455507674E+03  0.43069134715E+02  0.42914363211E+03  0.00000000000E+00 0.  1.
         22    1    1    2    0    0 -0.83416313416E+03 -0.17183199112E+03 -0.30482053254E+04  0.31649502482E+04  0.00000000000E+00 0.  1.
<mgrwt>
<rscale>  0 0.26712425E+04</rscale>
<asrwt>0</asrwt>
<pdfrwt beam="1">  1        2 0.78078698E-01 0.26712425E+04</pdfrwt>
<pdfrwt beam="2">  1       -2 0.54076348E+00 0.26712425E+04</pdfrwt>
<totfact> 0.50376093E-02</totfact>
</mgrwt>
</event>
<event>
 6    1  0.9906445E-006  0.2442045E+04  0.7818608E-02  0.8423928E-01
         -2   -1    0    0    0  501 -0.00000000000E+00  0.00000000000E+00  0.21389386388E+04  0.21389386388E+04  0.00000000000E+00 0.  1.
          2   -1    0    0  501    0  0.00000000000E+00 -0.00000000000E+00 -0.69702591534E+03  0.69702591534E+03  0.00000000000E+00 0. -1.
         23    2    1    2    0    0 -0.82745536703E+02 -0.24407832147E+03  0.21059987737E+04  0.21236224082E+04  0.90112413708E+02 0.  0.
         11    1    3    3    0    0 -0.69665550982E+02 -0.11904040768E+03  0.13740488838E+04  0.13809541059E+04  0.00000000000E+00 0. -1.
        -11    1    3    3    0    0 -0.13079985721E+02 -0.12503791379E+03  0.73194988989E+03  0.74266830228E+03  0.00000000000E+00 0.  1.
         22    1    1    2    0    0  0.82745536703E+02  0.24407832147E+03 -0.66408605018E+03  0.71234214596E+03  0.00000000000E+00 0. -1.
<mgrwt>
<rscale>  0 0.24420448E+04</rscale>
<asrwt>0</asrwt>
<pdfrwt beam="1">  1        2 0.10723476E+00 0.24420448E+04</pdfrwt>
<pdfrwt beam="2">  1       -2 0.32906748E+00 0.24420448E+04</pdfrwt>
<totfact> 0.77701522E-01</totfact>
</mgrwt>
</event>
<event>
 6    1  0.9906445E-006  0.3610402E+04  0.7818608E-02  0.8088113E-01
          1   -1    0    0  501    0  0.00000000000E+00  0.00000000000E+00  0.25690089520E+04  0.25690089520E+04  0.00000000000E+00 0. -1.
         -1   -1    0    0    0  501 -0.00000000000E+00 -0.00000000000E+00 -0.12684855357E+04  0.12684855357E+04  0.00000000000E+00 0.  1.
         23    2    1    2    0    0 -0.16879936433E+04 -0.30727809741E+02 -0.23228655496E+02  0.16921305825E+04  0.11180160804E+03 0.  0.
         11    1    3    3    0    0 -0.54812324831E+03  0.34566031082E+02  0.19965737540E+02  0.54957486889E+03  0.00000000000E+00 0.  1.
        -11    1    3    3    0    0 -0.11398703950E+04 -0.65293840823E+02 -0.43194393036E+02  0.11425557136E+04  0.00000000000E+00 0. -1.
         22    1    1    2    0    0  0.16879936433E+04  0.30727809741E+02  0.13237520718E+04  0.21453639052E+04  0.00000000000E+00 0. -1.
<mgrwt>
<rscale>  0 0.36104020E+04</rscale>
<asrwt>0</asrwt>
<pdfrwt beam="1">  1        1 0.39523215E+00 0.36104020E+04</pdfrwt>
<pdfrwt beam="2">  1       -1 0.19515162E+00 0.36104020E+04</pdfrwt>
<totfact> 0.15940970E-01</totfact>
</mgrwt>
</event>
<event>
 6    1  0.9906445E-006  0.2289273E+04  0.7818608E-02  0.8482163E-01
          1   -1    0    0  501    0  0.00000000000E+00  0.00000000000E+00  0.37861272542E+04  0.37861272542E+04  0.00000000000E+00 0.  1.
         -1   -1    0    0    0  501 -0.00000000000E+00 -0.00000000000E+00 -0.34605100333E+03  0.34605100333E+03  0.00000000000E+00 0. -1.
         23    2    1    2    0    0 -0.99068644696E+03 -0.37887100213E+03  0.24907157847E+04  0.27087007666E+04  0.91607043228E+02 0.  0.
         13    1    3    3    0    0 -0.38083775410E+03 -0.18900795926E+03  0.10448234330E+04  0.11280148092E+04  0.00000000000E+00 0.  1.
        -13    1    3    3    0    0 -0.60984869286E+03 -0.18986304286E+03  0.14458923516E+04  0.15806859573E+04  0.00000000000E+00 0. -1.
         22    1    1    2    0    0  0.99068644696E+03  0.37887100213E+03  0.94936046617E+03  0.14234774909E+04  0.00000000000E+00 0. -1.
<mgrwt>
<rscale>  0 0.22892734E+04</rscale>
<asrwt>0</asrwt>
<pdfrwt beam="1">  1        1 0.58248109E+00 0.22892734E+04</pdfrwt>
<pdfrwt beam="2">  1       -1 0.53238618E-01 0.22892734E+04</pdfrwt>
<totfact> 0.47290771E-01</totfact>
</mgrwt>
</event>
<event>
 6    1  0.9906445E-006  0.1461567E+04  0.7818608E-02  0.8910421E-01
         -2   -1    0    0    0  501 -0.00000000000E+00  0.00000000000E+00  0.26195302362E+03  0.26195302362E+03  0.00000000000E+00 0.  1.
          2   -1    0    0  501    0  0.00000000000E+00 -0.00000000000E+00 -0.20387020580E+04  0.20387020580E+04  0.00000000000E+00 0. -1.
         23    2    1    2    0    0 -0.24240521195E+03 -0.68576339801E+03 -0.92486124325E+03  0.11805012826E+04  0.95829192249E+02 0.  0.
         11    1    3    3    0    0 -0.47742895157E+02 -0.26285977907E+03 -0.36593050789E+03  0.45307812140E+03  0.00000000000E+00 0.  1.
        -11    1    3    3    0    0 -0.19466231679E+03 -0.42290361894E+03 -0.55893073537E+03  0.72742316118E+03  0.00000000000E+00 0. -1.
         22    1    1    2    0    0  0.24240521195E+03  0.68576339801E+03 -0.85188779118E+03  0.11201537991E+04  0.00000000000E+00 0. -1.
<mgrwt>
<rscale>  0 0.14615665E+04</rscale>
<asrwt>0</asrwt>
<pdfrwt beam="1">  1        2 0.31364648E+00 0.14615665E+04</pdfrwt>
<pdfrwt beam="2">  1       -2 0.40300464E-01 0.14615665E+04</pdfrwt>
<totfact> 0.35923613E+01</totfact>
</mgrwt>
</event>
<event>
 6    1  0.9906445E-006  0.1637620E+04  0.7818608E-02  0.8797764E-01
         -1   -1    0    0    0  501 -0.00000000000E+00  0.00000000000E+00  0.36505754836E+03  0.36505754836E+03  0.00000000000E+00 0.  1.
          1   -1    0    0  501    0  0.00000000000E+00 -0.00000000000E+00 -0.18365598975E+04  0.18365598975E+04  0.00000000000E+00 0. -1.
         23    2    1    2    0    0  0.14642908351E+03  0.78511431019E+03 -0.96470505378E+03  0.12557371918E+04  0.91510094514E+02 0.  0.
         11    1    3    3    0    0  0.87926132932E+02  0.64652377747E+03 -0.75914380884E+03  0.10010111499E+04  0.00000000000E+00 0. -1.
        -11    1    3    3    0    0  0.58502950579E+02  0.13859053272E+03 -0.20556124494E+03  0.25472604187E+03  0.00000000000E+00 0.  1.
         22    1    1    2    0    0 -0.14642908351E+03 -0.78511431019E+03 -0.50679729539E+03  0.94588025414E+03  0.00000000000E+00 0.  1.
<mgrwt>
<rscale>  0 0.16376203E+04</rscale>
<asrwt>0</asrwt>
<pdfrwt beam="1">  1        1 0.28254768E+00 0.16376203E+04</pdfrwt>
<pdfrwt beam="2">  1       -1 0.56162698E-01 0.16376203E+04</pdfrwt>
<totfact> 0.11806754E+01</totfact>
</mgrwt>
</event>
<event>
 6    1  0.9906445E-006  0.1020805E+04  0.7818608E-02  0.9286016E-01
         -2   -1    0    0    0  501 -0.00000000000E+00  0.00000000000E+00  0.49648665561E+03  0.49648665561E+03  0.00000000000E+00 0.  1.
          2   -1    0    0  501    0  0.00000000000E+00 -0.00000000000E+00 -0.52470865511E+03  0.52470865511E+03  0.00000000000E+00 0. -1.
         23    2    1    2    0    0 -0.35055423356E+03  0.20296276756E+03  0.28973724421E+03  0.50623877241E+03  0.90817775357E+02 0.  0.
         11    1    3    3    0    0 -0.32599229990E+03  0.15681786773E+03  0.24029522431E+03  0.43428633188E+03  0.00000000000E+00 0. -1.
        -11    1    3    3    0    0 -0.24561933665E+02  0.46144899836E+02  0.49442019899E+02  0.71952440528E+02  0.00000000000E+00 0.  1.
         22    1    1    2    0    0  0.35055423356E+03 -0.20296276756E+03 -0.31795924371E+03  0.51495653831E+03  0.00000000000E+00 0. -1.
<mgrwt>
<rscale>  0 0.10208053E+04</rscale>
<asrwt>0</asrwt>
<pdfrwt beam="1">  1        2 0.80724408E-01 0.10208053E+04</pdfrwt>
<pdfrwt beam="2">  1       -2 0.76382562E-01 0.10208053E+04</pdfrwt>
<totfact> 0.89060311E+01</totfact>
</mgrwt>
</event>
<event>
 6    1  0.9906445E-006  0.1126007E+04  0.7818608E-02  0.9180208E-01
          2   -1    0    0  501    0  0.00000000000E+00  0.00000000000E+00  0.29359338150E+04  0.29359338150E+04  0.00000000000E+00 0.  1.
         -2   -1    0    0    0  501 -0.00000000000E+00 -0.00000000000E+00 -0.10796327375E+03  0.10796327375E+03  0.00000000000E+00 0. -1.
         23    2    1    2    0    0 -0.14620297589E+03 -0.50978997478E+03  0.94932554027E+03  0.10918294239E+04  0.98037650372E+02 0.  0.
         13    1    3    3    0    0 -0.11987100051E+03 -0.29626836784E+03  0.49611358636E+03  0.59014633195E+03  0.00000000000E+00 0. -1.
        -13    1    3    3    0    0 -0.26331975385E+02 -0.21352160694E+03  0.45321195390E+03  0.50168309192E+03  0.00000000000E+00 0.  1.
         22    1    1    2    0    0  0.14620297589E+03  0.50978997478E+03  0.18786450009E+04  0.19520676648E+04  0.00000000000E+00 0.  1.
<mgrwt>
<rscale>  0 0.11260072E+04</rscale>
<asrwt>0</asrwt>
<pdfrwt beam="1">  1        2 0.45168206E+00 0.11260072E+04</pdfrwt>
<pdfrwt beam="2">  1       -2 0.16609737E-01 0.11260072E+04</pdfrwt>
<totfact> 0.56759343E+01</totfact>
</mgrwt>
</event>
<event>
 6    1  0.9906445E-006  0.2484412E+04  0.7818608E-02  0.8408560E-01
          2   -1    0    0  501    0  0.00000000000E+00  0.00000000000E+00  0.20267905319E+04  0.20267905319E+04  0.00000000000E+00 0. -1.
         -2   -1    0    0    0  501 -0.00000000000E+00 -0.00000000000E+00 -0.76133930101E+03  0.76133930101E+03  0.00000000000E+00 0.  1.
         23    2    1    2    0    0  0.16468368141E+03  0.11179995296E+04  0.59271830990E+02  0.11352800491E+04  0.91126158722E+02 0.  0.
         11    1    3    3    0    0  0.65812518876E+02  0.23850477889E+03  0.35272831095E+02  0.24991996680E+03  0.00000000000E+00 0.  1.
        -11    1    3    3    0    0  0.98871162534E+02  0.87949475073E+03  0.23998999895E+02  0.88536008230E+03  0.00000000000E+00 0. -1.
         22    1    1    2    0    0 -0.16468368141E+03 -0.11179995296E+04  0.12061793999E+04  0.16528497839E+04  0.00000000000E+00 0. -1.
<mgrwt>
<rscale>  0 0.24844116E+04</rscale>
<asrwt>0</asrwt>
<pdfrwt beam="1">  1        2 0.31181393E+00 0.24844116E+04</pdfrwt>
<pdfrwt beam="2">  1       -2 0.11712912E+00 0.24844116E+04</pdfrwt>
<totfact> 0.32499615E+00</totfact>
</mgrwt>
</event>
<event>
 6    1  0.9906445E-006  0.6044505E+04  0.7818608E-02  0.7684908E-01
          1   -1    0    0  501    0  0.00000000000E+00  0.00000000000E+00  0.25428354398E+04  0.25428354398E+04  0.00000000000E+00 0. -1.
         -1   -1    0    0    0  501 -0.00000000000E+00 -0.00000000000E+00 -0.35920566593E+04  0.35920566593E+04  0.00000000000E+00 0.  1.
         23    2    1    2    0    0  0.17394691352E+04 -0.20755513224E+03 -0.30234680581E+04  0.34954825847E+04  0.90594683125E+02 0.  0.
         13    1    3    3    0    0  0.17052616571E+04 -0.20088337888E+03 -0.29345571463E+04  0.33999848670E+04  0.00000000000E+00 0. -1.
        -13    1    3    3    0    0  0.34207478096E+02 -0.66717533673E+01 -0.88910911828E+02  0.95497717736E+02  0.00000000000E+00 0.  1.
         22    1    1    2    0    0 -0.17394691352E+04  0.20755513224E+03  0.19742468385E+04  0.26394095144E+04  0.00000000000E+00 0. -1.
<mgrwt>
<rscale>  0 0.60445046E+04</rscale>
<asrwt>0</asrwt>
<pdfrwt beam="1">  1        1 0.39120546E+00 0.60445046E+04</pdfrwt>
<pdfrwt beam="2">  1       -1 0.55262410E+00 0.60445046E+04</pdfrwt>
<totfact> 0.62352883E-04</totfact>
</mgrwt>
</event>
<event>
 6    1  0.9906445E-006  0.1538986E+04  0.7818608E-02  0.8858934E-01
          2   -1    0    0  501    0  0.00000000000E+00  0.00000000000E+00  0.45677202203E+03  0.45677202203E+03  0.00000000000E+00 0. -1.
         -2   -1    0    0    0  501 -0.00000000000E+00 -0.00000000000E+00 -0.12963124717E+04  0.12963124717E+04  0.00000000000E+00 0.  1.
         23    2    1    2    0    0  0.60371471229E+03 -0.40514668425E+03 -0.14394373369E+03  0.74686877090E+03  0.92075365208E+02 0.  0.
         11    1    3    3    0    0  0.34793776811E+03 -0.21174403404E+03 -0.37626948904E+02  0.40903791232E+03  0.00000000000E+00 0.  1.
        -11    1    3    3    0    0  0.25577694419E+03 -0.19340265020E+03 -0.10631678478E+03  0.33783085858E+03  0.00000000000E+00 0. -1.
         22    1    1    2    0    0 -0.60371471229E+03  0.40514668425E+03 -0.69559671600E+03  0.10062157228E+04  0.00000000000E+00 0.  1.
<mgrwt>
<rscale>  0 0.15389857E+04</rscale>
<asrwt>0</asrwt>
<pdfrwt beam="1">  1        2 0.70272620E-01 0.15389857E+04</pdfrwt>
<pdfrwt beam="2">  1       -2 0.19943268E+00 0.15389857E+04</pdfrwt>
<totfact> 0.88263336E+00</totfact>
</mgrwt>
</event>
<event>
 6    1  0.9906445E-006  0.4405977E+04  0.7818608E-02  0.7927307E-01
          1   -1    0    0  501    0  0.00000000000E+00  0.00000000000E+00  0.10848662783E+04  0.10848662783E+04  0.00000000000E+00 0. -1.
         -1   -1    0    0    0  501 -0.00000000000E+00 -0.00000000000E+00 -0.44735073806E+04  0.44735073806E+04  0.00000000000E+00 0.  1.
         23    2    1    2    0    0  0.97256918651E+00 -0.20097937629E+04 -0.55972783130E+03  0.20882119610E+04  0.89788827304E+02 0.  0.
         13    1    3    3    0    0  0.20674736521E+02 -0.18078111718E+04 -0.48391325421E+03  0.18715717232E+04  0.00000000000E+00 0. -1.
        -13    1    3    3    0    0 -0.19702167335E+02 -0.20198259111E+03 -0.75814577083E+02  0.21664023774E+03  0.00000000000E+00 0.  1.
         22    1    1    2    0    0 -0.97256918651E+00  0.20097937629E+04 -0.28289132710E+04  0.34701616979E+04  0.00000000000E+00 0.  1.
<mgrwt>
<rscale>  0 0.44059765E+04</rscale>
<asrwt>0</asrwt>
<pdfrwt beam="1">  1        1 0.16690250E+00 0.44059765E+04</pdfrwt>
<pdfrwt beam="2">  1       -1 0.68823191E+00 0.44059765E+04</pdfrwt>
<totfact> 0.21728634E-03</totfact>
</mgrwt>
</event>
<event>
 6    1  0.9906445E-006  0.2413798E+04  0.7818608E-02  0.8434356E-01
          1   -1    0    0  501    0  0.00000000000E+00  0.00000000000E+00  0.21233122596E+04  0.21233122596E+04  0.00000000000E+00 0. -1.
         -1   -1    0    0    0  501 -0.00000000000E+00 -0.00000000000E+00 -0.68600604547E+03  0.68600604547E+03  0.00000000000E+00 0.  1.
         23    2    1    2    0    0 -0.11672641588E+04 -0.68363219779E+02  0.37982102720E+03  0.12327860133E+04  0.91204142727E+02 0.  0.
         11    1    3    3    0    0 -0.77360438271E+03 -0.58187447445E+02  0.20833936512E+03  0.80327754297E+03  0.00000000000E+00 0. -1.
        -11    1    3    3    0    0 -0.39365977613E+03 -0.10175772334E+02  0.17148166208E+03  0.42950847036E+03  0.00000000000E+00 0.  1.
         22    1    1    2    0    0  0.11672641588E+04  0.68363219779E+02  0.10574851869E+04  0.15765322917E+04  0.00000000000E+00 0. -1.
<mgrwt>
<rscale>  0 0.24137979E+04</rscale>
<asrwt>0</asrwt>
<pdfrwt beam="1">  1        1 0.32666342E+00 0.24137979E+04</pdfrwt>
<pdfrwt beam="2">  1       -1 0.10553939E+00 0.24137979E+04</pdfrwt>
<totfact> 0.18496207E+00</totfact>
</mgrwt>
</event>
<event>
 6    1  0.9906445E-006  0.2673558E+04  0.7818608E-02  0.8343636E-01
          2   -1    0    0  501    0  0.00000000000E+00  0.00000000000E+00  0.26575529106E+04  0.26575529106E+04  0.00000000000E+00 0. -1.
         -2   -1    0    0    0  501 -0.00000000000E+00 -0.00000000000E+00 -0.67241497570E+03  0.67241497570E+03  0.00000000000E+00 0.  1.
         23    2    1    2    0    0  0.12654759363E+04  0.93434782162E+02  0.15113486928E+04  0.19754806587E+04  0.90496174302E+02 0.  0.
         11    1    3    3    0    0  0.10100283919E+04  0.89697805656E+02  0.11540085128E+04  0.15362091968E+04  0.00000000000E+00 0. -1.
        -11    1    3    3    0    0  0.25544754447E+03  0.37369765059E+01  0.35734017995E+03  0.43927146182E+03  0.00000000000E+00 0.  1.
         22    1    1    2    0    0 -0.12654759363E+04 -0.93434782162E+02  0.47378924211E+03  0.13544872276E+04  0.00000000000E+00 0.  1.
<mgrwt>
<rscale>  0 0.26735582E+04</rscale>
<asrwt>0</asrwt>
<pdfrwt beam="1">  1        2 0.40885429E+00 0.26735582E+04</pdfrwt>
<pdfrwt beam="2">  1       -2 0.10344846E+00 0.26735582E+04</pdfrwt>
<totfact> 0.18844634E+00</totfact>
</mgrwt>
</event>
<event>
 6    1  0.9906445E-006  0.1420977E+04  0.7818608E-02  0.8938773E-01
         -3   -1    0    0    0  501 -0.00000000000E+00  0.00000000000E+00  0.78069266279E+03  0.78069266279E+03  0.00000000000E+00 0.  1.
          3   -1    0    0  501    0  0.00000000000E+00 -0.00000000000E+00 -0.64659767687E+03  0.64659767687E+03  0.00000000000E+00 0. -1.
         23    2    1    2    0    0  0.28538228720E+03 -0.40957011659E+03  0.57091562634E+03  0.76396311864E+03  0.92218566421E+02 0.  0.
         13    1    3    3    0    0  0.23673765888E+03 -0.31074343042E+03  0.49314590290E+03  0.62912564741E+03  0.00000000000E+00 0.  1.
        -13    1    3    3    0    0  0.48644628324E+02 -0.98826686172E+02  0.77769723435E+02  0.13483747123E+03  0.00000000000E+00 0. -1.
         22    1    1    2    0    0 -0.28538228720E+03  0.40957011659E+03 -0.43682064041E+03  0.66332722102E+03  0.00000000000E+00 0. -1.
<mgrwt>
<rscale>  0 0.14209772E+04</rscale>
<asrwt>0</asrwt>
<pdfrwt beam="1">  1        3 0.99476566E-01 0.14209772E+04</pdfrwt>
<pdfrwt beam="2">  1       -3 0.12010656E+00 0.14209772E+04</pdfrwt>
<totfact> 0.12723505E+00</totfact>
</mgrwt>
</event>
<event>
 6    1  0.9906445E-006  0.1304714E+04  0.7818608E-02  0.9025835E-01
          2   -1    0    0  501    0  0.00000000000E+00  0.00000000000E+00  0.46769267393E+03  0.46769267393E+03  0.00000000000E+00 0. -1.
         -2   -1    0    0    0  501 -0.00000000000E+00 -0.00000000000E+00 -0.90993469164E+03  0.90993469164E+03  0.00000000000E+00 0.  1.
         23    2    1    2    0    0 -0.64589502277E+02 -0.43567372457E+03 -0.72576939564E+03  0.85382284849E+03  0.91043082435E+02 0.  0.
         11    1    3    3    0    0 -0.41094696249E+02 -0.36985291043E+03 -0.66092044378E+03  0.75848255248E+03  0.00000000000E+00 0. -1.
        -11    1    3    3    0    0 -0.23494806028E+02 -0.65820814143E+02 -0.64848951866E+02  0.95340296007E+02  0.00000000000E+00 0.  1.
         22    1    1    2    0    0  0.64589502277E+02  0.43567372457E+03  0.28352737793E+03  0.52380451709E+03  0.00000000000E+00 0. -1.
<mgrwt>
<rscale>  0 0.13047142E+04</rscale>
<asrwt>0</asrwt>
<pdfrwt beam="1">  1        2 0.71952720E-01 0.13047142E+04</pdfrwt>
<pdfrwt beam="2">  1       -2 0.13998995E+00 0.13047142E+04</pdfrwt>
<totfact> 0.23401083E+01</totfact>
</mgrwt>
</event>
<event>
 6    1  0.9906445E-006  0.3980886E+04  0.7818608E-02  0.8008414E-01
         -1   -1    0    0    0  501 -0.00000000000E+00  0.00000000000E+00  0.17744403186E+04  0.17744403186E+04  0.00000000000E+00 0.  1.
          1   -1    0    0  501    0  0.00000000000E+00 -0.00000000000E+00 -0.22327393592E+04  0.22327393592E+04  0.00000000000E+00 0. -1.
         23    2    1    2    0    0  0.99940285613E+03 -0.10222972451E+04 -0.16226128601E+04  0.21633997570E+04  0.59399398943E+02 0.  0.
         11    1    3    3    0    0  0.41498025242E+03 -0.39401999860E+03 -0.67929029266E+03  0.88819799082E+03  0.00000000000E+00 0.  1.
        -11    1    3    3    0    0  0.58442260371E+03 -0.62827724649E+03 -0.94332256745E+03  0.12752017662E+04  0.00000000000E+00 0. -1.
         22    1    1    2    0    0 -0.99940285613E+03  0.10222972451E+04  0.11643138195E+04  0.18437799208E+04  0.00000000000E+00 0.  1.
<mgrwt>
<rscale>  0 0.39808857E+04</rscale>
<asrwt>0</asrwt>
<pdfrwt beam="1">  1        1 0.34349836E+00 0.39808857E+04</pdfrwt>
<pdfrwt beam="2">  1       -1 0.27299082E+00 0.39808857E+04</pdfrwt>
<totfact> 0.80152165E-02</totfact>
</mgrwt>
</event>
<event>
 6    1  0.9906445E-006  0.9826292E+03  0.7818608E-02  0.9327805E-01
         -1   -1    0    0    0  501 -0.00000000000E+00  0.00000000000E+00  0.57542415289E+03  0.57542415289E+03  0.00000000000E+00 0.  1.
          1   -1    0    0  501    0  0.00000000000E+00 -0.00000000000E+00 -0.41949934907E+03  0.41949934907E+03  0.00000000000E+00 0. -1.
         23    2    1    2    0    0  0.69911027213E+02  0.16847885050E+03  0.53573344357E+03  0.57358364197E+03  0.93355219406E+02 0.  0.
         11    1    3    3    0    0 -0.81834044151E+01  0.65819612285E+02  0.10720862639E+03  0.12606696253E+03  0.00000000000E+00 0. -1.
        -11    1    3    3    0    0  0.78094431628E+02  0.10265923822E+03  0.42852481718E+03  0.44751667944E+03  0.00000000000E+00 0.  1.
         22    1    1    2    0    0 -0.69911027213E+02 -0.16847885050E+03 -0.37980863974E+03  0.42133985999E+03  0.00000000000E+00 0. -1.
<mgrwt>
<rscale>  0 0.98262924E+03</rscale>
<asrwt>0</asrwt>
<pdfrwt beam="1">  1        1 0.64538361E-01 0.98262924E+03</pdfrwt>
<pdfrwt beam="2">  1       -1 0.88526793E-01 0.98262924E+03</pdfrwt>
<totfact> 0.70817114E+01</totfact>
</mgrwt>
</event>
<event>
 6    1  0.9906445E-006  0.4738694E+04  0.7818608E-02  0.7870131E-01
         -2   -1    0    0    0  501 -0.00000000000E+00  0.00000000000E+00  0.16027466210E+04  0.16027466210E+04  0.00000000000E+00 0.  1.
          2   -1    0    0  501    0  0.00000000000E+00 -0.00000000000E+00 -0.35026158278E+04  0.35026158278E+04  0.00000000000E+00 0. -1.
         23    2    1    2    0    0 -0.75040175062E+03  0.15380655895E+04  0.81388446137E+03  0.18970595459E+04  0.87626818352E+02 0.  0.
         11    1    3    3    0    0 -0.40512590243E+03  0.73048515842E+03  0.39722979869E+03  0.92494706684E+03  0.00000000000E+00 0. -1.
        -11    1    3    3    0    0 -0.34527584819E+03  0.80758043113E+03  0.41665466269E+03  0.97211247910E+03  0.00000000000E+00 0.  1.
         22    1    1    2    0    0  0.75040175062E+03 -0.15380655895E+04 -0.27137536682E+04  0.32083029029E+04  0.00000000000E+00 0. -1.
<mgrwt>
<rscale>  0 0.47386942E+04</rscale>
<asrwt>0</asrwt>
<pdfrwt beam="1">  1        2 0.53886397E+00 0.47386942E+04</pdfrwt>
<pdfrwt beam="2">  1       -2 0.24657640E+00 0.47386942E+04</pdfrwt>
<totfact> 0.40512571E-02</totfact>
</mgrwt>
</event>
<event>
 6    1  0.9906445E-006  0.2158955E+04  0.7818608E-02  0.8535709E-01
          2   -1    0    0  501    0  0.00000000000E+00  0.00000000000E+00  0.53198289549E+03  0.53198289549E+03  0.00000000000E+00 0. -1.
         -2   -1    0    0    0  501 -0.00000000000E+00 -0.00000000000E+00 -0.21904315733E+04  0.21904315733E+04  0.00000000000E+00 0.  1.
         23    2    1    2    0    0 -0.42725673352E+03 -0.22987922550E+02 -0.20777573922E+04  0.21233347088E+04  0.91639204514E+02 0.  0.
         13    1    3    3    0    0 -0.31026415843E+03  0.15879484656E+02 -0.16033673156E+04  0.16331879116E+04  0.00000000000E+00 0. -1.
        -13    1    3    3    0    0 -0.11699257509E+03 -0.38867407206E+02 -0.47439007657E+03  0.49014679711E+03  0.00000000000E+00 0.  1.
         22    1    1    2    0    0  0.42725673352E+03  0.22987922550E+02  0.41930871437E+03  0.59907976002E+03  0.00000000000E+00 0. -1.
<mgrwt>
<rscale>  0 0.21589554E+04</rscale>
<asrwt>0</asrwt>
<pdfrwt beam="1">  1        2 0.81843523E-01 0.21589554E+04</pdfrwt>
<pdfrwt beam="2">  1       -2 0.33698947E+00 0.21589554E+04</pdfrwt>
<totfact> 0.98752829E-01</totfact>
</mgrwt>
</event>
<event>
 6    1  0.9906445E-006  0.8595048E+03  0.7818608E-02  0.9477668E-01
         -2   -1    0    0    0  501 -0.00000000000E+00  0.00000000000E+00  0.14652746811E+03  0.14652746811E+03  0.00000000000E+00 0.  1.
          2   -1    0    0  501    0  0.00000000000E+00 -0.00000000000E+00 -0.12604265066E+04  0.12604265066E+04  0.00000000000E+00 0. -1.
         23    2    1    2    0    0 -0.20073459882E+03 -0.33614666900E+03 -0.29298413992E+03  0.49745398408E+03  0.91278682028E+02 0.  0.
         11    1    3    3    0    0 -0.15626623542E+03 -0.18517538497E+03 -0.15107754997E+03  0.28554068998E+03  0.00000000000E+00 0. -1.
        -11    1    3    3    0    0 -0.44468363399E+02 -0.15097128403E+03 -0.14190658995E+03  0.21191329410E+03  0.00000000000E+00 0.  1.
         22    1    1    2    0    0  0.20073459882E+03  0.33614666900E+03 -0.82091489854E+03  0.90949999060E+03  0.00000000000E+00 0. -1.
<mgrwt>
<rscale>  0 0.85950475E+03</rscale>
<asrwt>0</asrwt>
<pdfrwt beam="1">  1        2 0.19391177E+00 0.85950475E+03</pdfrwt>
<pdfrwt beam="2">  1       -2 0.22542688E-01 0.85950475E+03</pdfrwt>
<totfact> 0.30229118E+02</totfact>
</mgrwt>
</event>
<event>
 6    1  0.9906445E-006  0.1828015E+04  0.7818608E-02  0.8691542E-01
         -2   -1    0    0    0  501 -0.00000000000E+00  0.00000000000E+00  0.85755779289E+03  0.85755779289E+03  0.00000000000E+00 0.  1.
          2   -1    0    0  501    0  0.00000000000E+00 -0.00000000000E+00 -0.97417267598E+03  0.97417267598E+03  0.00000000000E+00 0. -1.
         23    2    1    2    0    0  0.53894631877E+03  0.72926656350E+03 -0.15057561506E+03  0.92429111196E+03  0.96686031197E+02 0.  0.
         13    1    3    3    0    0  0.21046731945E+03  0.23084793429E+03 -0.18550041937E+02  0.31293987502E+03  0.00000000000E+00 0. -1.
        -13    1    3    3    0    0  0.32847899932E+03  0.49841862922E+03 -0.13202557312E+03  0.61135123693E+03  0.00000000000E+00 0.  1.
         22    1    1    2    0    0 -0.53894631877E+03 -0.72926656350E+03  0.33960731970E+02  0.90743935691E+03  0.00000000000E+00 0. -1.
<mgrwt>
<rscale>  0 0.18280146E+04</rscale>
<asrwt>0</asrwt>
<pdfrwt beam="1">  1        2 0.14987272E+00 0.18280146E+04</pdfrwt>
<pdfrwt beam="2">  1       -2 0.13193197E+00 0.18280146E+04</pdfrwt>
<totfact> 0.10315023E+01</totfact>
</mgrwt>
</event>
<event>
 6    1  0.9906445E-006  0.3946701E+04  0.7818608E-02  0.8015386E-01
          3   -1    0    0  501    0  0.00000000000E+00  0.00000000000E+00  0.12326120004E+04  0.12326120004E+04  0.00000000000E+00 0. -1.
         -3   -1    0    0    0  501 -0.00000000000E+00 -0.00000000000E+00 -0.31592366365E+04  0.31592366365E+04  0.00000000000E+00 0.  1.
         23    2    1    2    0    0  0.18935153744E+04 -0.52033694982E+03 -0.11688428727E+04  0.22870008478E+04  0.89600235810E+02 0.  0.
         13    1    3    3    0    0  0.74538295267E+03 -0.25033303000E+03 -0.46896922064E+03  0.91552962920E+03  0.00000000000E+00 0. -1.
        -13    1    3    3    0    0  0.11481324217E+04 -0.27000391982E+03 -0.69987365210E+03  0.13714712186E+04  0.00000000000E+00 0.  1.
         22    1    1    2    0    0 -0.18935153744E+04  0.52033694982E+03 -0.75778176333E+03  0.21048477891E+04  0.00000000000E+00 0. -1.
<mgrwt>
<rscale>  0 0.39467014E+04</rscale>
<asrwt>0</asrwt>
<pdfrwt beam="1">  1        3 0.18963262E+00 0.39467014E+04</pdfrwt>
<pdfrwt beam="2">  1       -3 0.48603640E+00 0.39467014E+04</pdfrwt>
<totfact> 0.12625276E-03</totfact>
</mgrwt>
</event>
<event>
 6    1  0.9906445E-006  0.3055997E+04  0.7818608E-02  0.8227919E-01
         -2   -1    0    0    0  501 -0.00000000000E+00  0.00000000000E+00  0.63744931882E+03  0.63744931882E+03  0.00000000000E+00 0.  1.
          2   -1    0    0  501    0  0.00000000000E+00 -0.00000000000E+00 -0.36626906225E+04  0.36626906225E+04  0.00000000000E+00 0. -1.
         23    2    1    2    0    0 -0.33047645540E+03 -0.14156745587E+04 -0.85779990959E+03  0.16903216832E+04  0.89540851517E+02 0.  0.
         13    1    3    3    0    0 -0.51349934173E+02 -0.29400516931E+03 -0.13961250320E+03  0.32949583666E+03  0.00000000000E+00 0. -1.
        -13    1    3    3    0    0 -0.27912652123E+03 -0.11216693894E+04 -0.71818740638E+03  0.13608258465E+04  0.00000000000E+00 0.  1.
         22    1    1    2    0    0  0.33047645540E+03  0.14156745587E+04 -0.21674413941E+04  0.26098182581E+04  0.00000000000E+00 0. -1.
<mgrwt>
<rscale>  0 0.30559971E+04</rscale>
<asrwt>0</asrwt>
<pdfrwt beam="1">  1        2 0.56349086E+00 0.30559971E+04</pdfrwt>
<pdfrwt beam="2">  1       -2 0.98069126E-01 0.30559971E+04</pdfrwt>
<totfact> 0.45781164E-01</totfact>
</mgrwt>
</event>
<event>
 6    1  0.9906445E-006  0.3322831E+04  0.7818608E-02  0.8157110E-01
         -2   -1    0    0    0  501 -0.00000000000E+00  0.00000000000E+00  0.13315350944E+04  0.13315350944E+04  0.00000000000E+00 0.  1.
          2   -1    0    0  501    0  0.00000000000E+00 -0.00000000000E+00 -0.20730213968E+04  0.20730213968E+04  0.00000000000E+00 0. -1.
         23    2    1    2    0    0 -0.99243649134E+02 -0.16135543019E+04 -0.75823853463E+03  0.17878662226E+04  0.90184075874E+02 0.  0.
         13    1    3    3    0    0 -0.85840887866E+02 -0.85267344301E+03 -0.36817625648E+03  0.93272418982E+03  0.00000000000E+00 0. -1.
        -13    1    3    3    0    0 -0.13402761269E+02 -0.76088085888E+03 -0.39006227815E+03  0.85514203280E+03  0.00000000000E+00 0.  1.
         22    1    1    2    0    0  0.99243649134E+02  0.16135543019E+04  0.16752232216E+02  0.16166902685E+04  0.00000000000E+00 0.  1.
<mgrwt>
<rscale>  0 0.33228306E+04</rscale>
<asrwt>0</asrwt>
<pdfrwt beam="1">  1        2 0.31892637E+00 0.33228306E+04</pdfrwt>
<pdfrwt beam="2">  1       -2 0.20485155E+00 0.33228306E+04</pdfrwt>
<totfact> 0.62704664E-01</totfact>
</mgrwt>
</event>
<event>
 6    1  0.9906445E-006  0.1695761E+04  0.7818608E-02  0.8763786E-01
         -2   -1    0    0    0  501 -0.00000000000E+00  0.00000000000E+00  0.81165619304E+03  0.81165619304E+03  0.00000000000E+00 0.  1.
          2   -1    0    0  501    0  0.00000000000E+00 -0.00000000000E+00 -0.88572147309E+03  0.88572147309E+03  0.00000000000E+00 0. -1.
         23    2    1    2    0    0 -0.56744896556E+03  0.61653240286E+03 -0.14834431212E+03  0.85617144475E+03  0.94408556694E+02 0.  0.
         11    1    3    3    0    0 -0.18165038446E+03  0.15096992798E+03 -0.70801671993E+02  0.24657992231E+03  0.00000000000E+00 0. -1.
        -11    1    3    3    0    0 -0.38579858110E+03  0.46556247488E+03 -0.77542640131E+02  0.60959152244E+03  0.00000000000E+00 0.  1.
         22    1    1    2    0    0  0.56744896556E+03 -0.61653240286E+03  0.74279032071E+02  0.84120622138E+03  0.00000000000E+00 0.  1.
<mgrwt>
<rscale>  0 0.16957610E+04</rscale>
<asrwt>0</asrwt>
<pdfrwt beam="1">  1        2 0.13626484E+00 0.16957610E+04</pdfrwt>
<pdfrwt beam="2">  1       -2 0.12487018E+00 0.16957610E+04</pdfrwt>
<totfact> 0.13720265E+01</totfact>
</mgrwt>
</event>
<event>
 6    1  0.9906445E-006  0.1696804E+04  0.7818608E-02  0.8763189E-01
         -1   -1    0    0    0  501 -0.00000000000E+00  0.00000000000E+00  0.34094955214E+03  0.34094955214E+03  0.00000000000E+00 0.  1.
          1   -1    0    0  501    0  0.00000000000E+00 -0.00000000000E+00 -0.21111221018E+04  0.21111221018E+04  0.00000000000E+00 0. -1.
         23    2    1    2    0    0  0.54758569876E+03  0.40028666680E+03 -0.16183848639E+04  0.17570040208E+04  0.88397105435E+02 0.  0.
         13    1    3    3    0    0  0.31520786468E+03  0.28354203421E+03 -0.10022446634E+04  0.10882308802E+04  0.00000000000E+00 0. -1.
        -13    1    3    3    0    0  0.23237783407E+03  0.11674463258E+03 -0.61614020047E+03  0.66877314064E+03  0.00000000000E+00 0.  1.
         22    1    1    2    0    0 -0.54758569876E+03 -0.40028666680E+03 -0.15178768574E+03  0.69506763314E+03  0.00000000000E+00 0.  1.
<mgrwt>
<rscale>  0 0.16968042E+04</rscale>
<asrwt>0</asrwt>
<pdfrwt beam="1">  1        1 0.32478802E+00 0.16968042E+04</pdfrwt>
<pdfrwt beam="2">  1       -1 0.52453776E-01 0.16968042E+04</pdfrwt>
<totfact> 0.87335918E+00</totfact>
</mgrwt>
</event>
<event>
 6    1  0.9906445E-006  0.2946346E+04  0.7818608E-02  0.8259220E-01
         -1   -1    0    0    0  501 -0.00000000000E+00  0.00000000000E+00  0.11323970187E+04  0.11323970187E+04  0.00000000000E+00 0.  1.
          1   -1    0    0  501    0  0.00000000000E+00 -0.00000000000E+00 -0.19165002563E+04  0.19165002563E+04  0.00000000000E+00 0. -1.
         23    2    1    2    0    0  0.11899181334E+04 -0.63209323098E+03  0.22054358281E+03  0.13681943712E+04  0.88709349589E+02 0.  0.
         13    1    3    3    0    0  0.82502450092E+03 -0.39248221790E+03  0.15864685127E+03  0.92729528302E+03  0.00000000000E+00 0. -1.
        -13    1    3    3    0    0  0.36489363249E+03 -0.23961101308E+03  0.61896731544E+02  0.44089908822E+03  0.00000000000E+00 0.  1.
         22    1    1    2    0    0 -0.11899181334E+04  0.63209323098E+03 -0.10046468204E+04  0.16807029037E+04  0.00000000000E+00 0. -1.
<mgrwt>
<rscale>  0 0.29463463E+04</rscale>
<asrwt>0</asrwt>
<pdfrwt beam="1">  1        1 0.29484619E+00 0.29463463E+04</pdfrwt>
<pdfrwt beam="2">  1       -1 0.17421493E+00 0.29463463E+04</pdfrwt>
<totfact> 0.66532337E-01</totfact>
</mgrwt>
</event>
<event>
 6    1  0.9906445E-006  0.9861557E+03  0.7818608E-02  0.9323861E-01
         -3   -1    0    0    0  501 -0.00000000000E+00  0.00000000000E+00  0.22409734726E+03  0.22409734726E+03  0.00000000000E+00 0.  1.
          3   -1    0    0  501    0  0.00000000000E+00 -0.00000000000E+00 -0.10849114248E+04  0.10849114248E+04  0.00000000000E+00 0. -1.
         23    2    1    2    0    0 -0.27005376883E+02  0.19090186913E+03 -0.10301114011E+04  0.10524266258E+04  0.96433864201E+02 0.  0.
         11    1    3    3    0    0 -0.13068220817E+02  0.12037338404E+03 -0.84862825207E+03  0.85722251498E+03  0.00000000000E+00 0. -1.
        -11    1    3    3    0    0 -0.13937156066E+02  0.70528485092E+02 -0.18148314899E+03  0.19520411086E+03  0.00000000000E+00 0.  1.
         22    1    1    2    0    0  0.27005376883E+02 -0.19090186913E+03  0.16929732351E+03  0.25658214623E+03  0.00000000000E+00 0.  1.
<mgrwt>
<rscale>  0 0.98615571E+03</rscale>
<asrwt>0</asrwt>
<pdfrwt beam="1">  1        3 0.16690945E+00 0.98615571E+03</pdfrwt>
<pdfrwt beam="2">  1       -3 0.34476515E-01 0.98615571E+03</pdfrwt>
<totfact> 0.53171948E+00</totfact>
</mgrwt>
</event>
<event>
 6    1  0.9906445E-006  0.1409023E+04  0.7818608E-02  0.8947313E-01
         -1   -1    0    0    0  501 -0.00000000000E+00  0.00000000000E+00  0.22992878664E+03  0.22992878664E+03  0.00000000000E+00 0.  1.
          1   -1    0    0  501    0  0.00000000000E+00 -0.00000000000E+00 -0.21586519319E+04  0.21586519319E+04  0.00000000000E+00 0. -1.
         23    2    1    2    0    0  0.62680845934E+02  0.62987708021E+03 -0.45065250139E+03  0.78067311768E+03  0.75424233715E+02 0.  0.
         11    1    3    3    0    0 -0.86546715482E+01  0.27519555924E+03 -0.18196674314E+03  0.33002938472E+03  0.00000000000E+00 0.  1.
        -11    1    3    3    0    0  0.71335517483E+02  0.35468152097E+03 -0.26868575825E+03  0.45064373296E+03  0.00000000000E+00 0. -1.
         22    1    1    2    0    0 -0.62680845934E+02 -0.62987708021E+03 -0.14780706439E+04  0.16079076009E+04  0.00000000000E+00 0. -1.
<mgrwt>
<rscale>  0 0.14090227E+04</rscale>
<asrwt>0</asrwt>
<pdfrwt beam="1">  1        1 0.33210030E+00 0.14090227E+04</pdfrwt>
<pdfrwt beam="2">  1       -1 0.35373659E-01 0.14090227E+04</pdfrwt>
<totfact> 0.17270532E+01</totfact>
</mgrwt>
</event>
<event>
 6    1  0.9906445E-006  0.2613960E+04  0.7818608E-02  0.8363475E-01
          2   -1    0    0  501    0  0.00000000000E+00  0.00000000000E+00  0.11514465189E+04  0.11514465189E+04  0.00000000000E+00 0. -1.
         -2   -1    0    0    0  501 -0.00000000000E+00 -0.00000000000E+00 -0.14835227543E+04  0.14835227543E+04  0.00000000000E+00 0.  1.
         23    2    1    2    0    0  0.97486971118E+03  0.60924933481E+03  0.45662548451E+03  0.12408365289E+04  0.98044645616E+02 0.  0.
         11    1    3    3    0    0  0.27952027597E+03  0.16832086571E+03  0.83077177160E+02  0.33669766241E+03  0.00000000000E+00 0. -1.
        -11    1    3    3    0    0  0.69534943521E+03  0.44092846910E+03  0.37354830736E+03  0.90413886646E+03  0.00000000000E+00 0.  1.
         22    1    1    2    0    0 -0.97486971118E+03 -0.60924933481E+03 -0.78870171989E+03  0.13941327443E+04  0.00000000000E+00 0.  1.
<mgrwt>
<rscale>  0 0.26139603E+04</rscale>
<asrwt>0</asrwt>
<pdfrwt beam="1">  1        2 0.17714562E+00 0.26139603E+04</pdfrwt>
<pdfrwt beam="2">  1       -2 0.22823427E+00 0.26139603E+04</pdfrwt>
<totfact> 0.15699953E+00</totfact>
</mgrwt>
</event>
<event>
 6    1  0.9906445E-006  0.3946616E+04  0.7818608E-02  0.8015403E-01
         -1   -1    0    0    0  501 -0.00000000000E+00  0.00000000000E+00  0.27256641172E+04  0.27256641172E+04  0.00000000000E+00 0.  1.
          1   -1    0    0  501    0  0.00000000000E+00 -0.00000000000E+00 -0.14286219356E+04  0.14286219356E+04  0.00000000000E+00 0. -1.
         23    2    1    2    0    0 -0.18134035442E+04 -0.67601314169E+03  0.24885496798E+03  0.19533492939E+04  0.90655870154E+02 0.  0.
         13    1    3    3    0    0 -0.16359733510E+04 -0.62422421916E+03  0.20171289460E+03  0.17625983016E+04  0.00000000000E+00 0. -1.
        -13    1    3    3    0    0 -0.17743019322E+03 -0.51788922540E+02  0.47142073384E+02  0.19075099225E+03  0.00000000000E+00 0.  1.
         22    1    1    2    0    0  0.18134035442E+04  0.67601314169E+03  0.10481872136E+04  0.22009367589E+04  0.00000000000E+00 0.  1.
<mgrwt>
<rscale>  0 0.39466155E+04</rscale>
<asrwt>0</asrwt>
<pdfrwt beam="1">  1        1 0.21978799E+00 0.39466155E+04</pdfrwt>
<pdfrwt beam="2">  1       -1 0.41933294E+00 0.39466155E+04</pdfrwt>
<totfact> 0.30364406E-02</totfact>
</mgrwt>
</event>
<event>
 6    1  0.9906445E-006  0.1992682E+04  0.7818608E-02  0.8610050E-01
          2   -1    0    0  501    0  0.00000000000E+00  0.00000000000E+00  0.29129873016E+04  0.29129873016E+04  0.00000000000E+00 0.  1.
         -2   -1    0    0    0  501 -0.00000000000E+00 -0.00000000000E+00 -0.34078252074E+03  0.34078252074E+03  0.00000000000E+00 0. -1.
         23    2    1    2    0    0  0.15936224487E+03 -0.82381112112E+03  0.41934754164E+03  0.94317349653E+03  0.98299519338E+02 0.  0.
         11    1    3    3    0    0  0.55086872973E+02 -0.34377816487E+03  0.12178415750E+03  0.36884871050E+03  0.00000000000E+00 0. -1.
        -11    1    3    3    0    0  0.10427537189E+03 -0.48003295624E+03  0.29756338414E+03  0.57432478603E+03  0.00000000000E+00 0.  1.
         22    1    1    2    0    0 -0.15936224487E+03  0.82381112112E+03  0.21528572392E+04  0.23105963258E+04  0.00000000000E+00 0.  1.
<mgrwt>
<rscale>  0 0.19926818E+04</rscale>
<asrwt>0</asrwt>
<pdfrwt beam="1">  1        2 0.44815188E+00 0.19926818E+04</pdfrwt>
<pdfrwt beam="2">  1       -2 0.52428082E-01 0.19926818E+04</pdfrwt>
<totfact> 0.63077327E+00</totfact>
</mgrwt>
</event>
<event>
 6    1  0.9906445E-006  0.1613805E+04  0.7818608E-02  0.8812112E-01
          2   -1    0    0  501    0  0.00000000000E+00  0.00000000000E+00  0.16801458163E+04  0.16801458163E+04  0.00000000000E+00 0. -1.
         -2   -1    0    0    0  501 -0.00000000000E+00 -0.00000000000E+00 -0.38752087686E+03  0.38752087686E+03  0.00000000000E+00 0.  1.
         23    2    1    2    0    0 -0.37480955984E+03 -0.36540756026E+03 -0.13409218082E+03  0.54795401227E+03  0.90928517835E+02 0.  0.
         13    1    3    3    0    0 -0.11766172236E+03 -0.63879545708E+02 -0.49475069091E+02  0.14273282639E+03  0.00000000000E+00 0. -1.
        -13    1    3    3    0    0 -0.25714783748E+03 -0.30152801455E+03 -0.84617111725E+02  0.40522118587E+03  0.00000000000E+00 0.  1.
         22    1    1    2    0    0  0.37480955984E+03  0.36540756026E+03  0.14267171203E+04  0.15197126809E+04  0.00000000000E+00 0. -1.
<mgrwt>
<rscale>  0 0.16138049E+04</rscale>
<asrwt>0</asrwt>
<pdfrwt beam="1">  1        2 0.25848397E+00 0.16138049E+04</pdfrwt>
<pdfrwt beam="2">  1       -2 0.59618598E-01 0.16138049E+04</pdfrwt>
<totfact> 0.25293970E+01</totfact>
</mgrwt>
</event>
<event>
 6    1  0.9906445E-006  0.2425964E+04  0.7818608E-02  0.8429846E-01
          2   -1    0    0  501    0  0.00000000000E+00  0.00000000000E+00  0.27469212737E+04  0.27469212737E+04  0.00000000000E+00 0.  1.
         -2   -1    0    0    0  501 -0.00000000000E+00 -0.00000000000E+00 -0.53562720163E+03  0.53562720163E+03  0.00000000000E+00 0. -1.
         23    2    1    2    0    0 -0.45622457676E+03 -0.11205447210E+04  0.10266608315E+04  0.15892920710E+04  0.89752370099E+02 0.  0.
         13    1    3    3    0    0 -0.14795513367E+03 -0.28561872503E+03  0.23822806869E+03  0.40027664231E+03  0.00000000000E+00 0. -1.
        -13    1    3    3    0    0 -0.30826944309E+03 -0.83492599592E+03  0.78843276280E+03  0.11890154287E+04  0.00000000000E+00 0.  1.
         22    1    1    2    0    0  0.45622457676E+03  0.11205447210E+04  0.11846332406E+04  0.16932564043E+04  0.00000000000E+00 0.  1.
<mgrwt>
<rscale>  0 0.24259643E+04</rscale>
<asrwt>0</asrwt>
<pdfrwt beam="1">  1        2 0.42260327E+00 0.24259643E+04</pdfrwt>
<pdfrwt beam="2">  1       -2 0.82404186E-01 0.24259643E+04</pdfrwt>
<totfact> 0.28879726E+00</totfact>
</mgrwt>
</event>
<event>
 6    1  0.9906445E-006  0.3447447E+04  0.7818608E-02  0.8126358E-01
          1   -1    0    0  501    0  0.00000000000E+00  0.00000000000E+00  0.22984278981E+04  0.22984278981E+04  0.00000000000E+00 0. -1.
         -1   -1    0    0    0  501 -0.00000000000E+00 -0.00000000000E+00 -0.12927198406E+04  0.12927198406E+04  0.00000000000E+00 0.  1.
         23    2    1    2    0    0  0.21760829610E+03 -0.41355127270E+03  0.22301916488E+04  0.22805226623E+04  0.93009661693E+02 0.  0.
         11    1    3    3    0    0  0.17664285147E+03 -0.29962740359E+03  0.18155978312E+04  0.18486142817E+04  0.00000000000E+00 0.  1.
        -11    1    3    3    0    0  0.40965444635E+02 -0.11392386911E+03  0.41459381755E+03  0.43190838052E+03  0.00000000000E+00 0. -1.
         22    1    1    2    0    0 -0.21760829610E+03  0.41355127270E+03 -0.12244835913E+04  0.13106250764E+04  0.00000000000E+00 0.  1.
<mgrwt>
<rscale>  0 0.34474474E+04</rscale>
<asrwt>0</asrwt>
<pdfrwt beam="1">  1        1 0.35360429E+00 0.34474474E+04</pdfrwt>
<pdfrwt beam="2">  1       -1 0.19887998E+00 0.34474474E+04</pdfrwt>
<totfact> 0.23423504E-01</totfact>
</mgrwt>
</event>
<event>
 6    1  0.9906445E-006  0.1485431E+04  0.7818608E-02  0.8894199E-01
          2   -1    0    0  501    0  0.00000000000E+00  0.00000000000E+00  0.59274761141E+03  0.59274761141E+03  0.00000000000E+00 0.  1.
         -2   -1    0    0    0  501 -0.00000000000E+00 -0.00000000000E+00 -0.93062619010E+03  0.93062619010E+03  0.00000000000E+00 0. -1.
         23    2    1    2    0    0 -0.11770698821E+03  0.21213081287E+03 -0.88678211242E+03  0.92324922595E+03  0.84570689114E+02 0.  0.
         11    1    3    3    0    0 -0.10107744471E+03  0.95837031643E+02 -0.49682821401E+03  0.51598416710E+03  0.00000000000E+00 0. -1.
        -11    1    3    3    0    0 -0.16629543499E+02  0.11629378123E+03 -0.38995389841E+03  0.40726505885E+03  0.00000000000E+00 0.  1.
         22    1    1    2    0    0  0.11770698821E+03 -0.21213081287E+03  0.54890353374E+03  0.60012457556E+03  0.00000000000E+00 0.  1.
<mgrwt>
<rscale>  0 0.14854312E+04</rscale>
<asrwt>0</asrwt>
<pdfrwt beam="1">  1        2 0.91191941E-01 0.14854312E+04</pdfrwt>
<pdfrwt beam="2">  1       -2 0.14317326E+00 0.14854312E+04</pdfrwt>
<totfact> 0.16481011E+01</totfact>
</mgrwt>
</event>
<event>
 6    1  0.9906445E-006  0.8438453E+03  0.7818608E-02  0.9498635E-01
          2   -1    0    0  501    0  0.00000000000E+00  0.00000000000E+00  0.16377335295E+04  0.16377335295E+04  0.00000000000E+00 0. -1.
         -2   -1    0    0    0  501 -0.00000000000E+00 -0.00000000000E+00 -0.10869821842E+03  0.10869821842E+03  0.00000000000E+00 0.  1.
         23    2    1    2    0    0  0.30628837416E+03  0.23179377448E+03  0.43855729274E+03  0.59028157147E+03  0.92514391128E+02 0.  0.
         11    1    3    3    0    0  0.12985862514E+03  0.15480555885E+03  0.20916618439E+03  0.29082385780E+03  0.00000000000E+00 0.  1.
        -11    1    3    3    0    0  0.17642974902E+03  0.76988215633E+02  0.22939110835E+03  0.29945771366E+03  0.00000000000E+00 0. -1.
         22    1    1    2    0    0 -0.30628837416E+03 -0.23179377448E+03  0.10904780184E+04  0.11561501765E+04  0.00000000000E+00 0. -1.
<mgrwt>
<rscale>  0 0.84384529E+03</rscale>
<asrwt>0</asrwt>
<pdfrwt beam="1">  1        2 0.25195899E+00 0.84384529E+03</pdfrwt>
<pdfrwt beam="2">  1       -2 0.16722804E-01 0.84384529E+03</pdfrwt>
<totfact> 0.31212563E+02</totfact>
</mgrwt>
</event>
<event>
 6    1  0.9906445E-006  0.2890845E+04  0.7818608E-02  0.8275606E-01
          2   -1    0    0  501    0  0.00000000000E+00  0.00000000000E+00  0.16033619625E+04  0.16033619625E+04  0.00000000000E+00 0. -1.
         -2   -1    0    0    0  501 -0.00000000000E+00 -0.00000000000E+00 -0.13030411089E+04  0.13030411089E+04  0.00000000000E+00 0.  1.
         23    2    1    2    0    0  0.94673386692E+03 -0.57352655008E+03 -0.78198468535E+03  0.13583000393E+04  0.90781221527E+02 0.  0.
         11    1    3    3    0    0  0.41286933168E+03 -0.29200614196E+03 -0.32286214566E+03  0.59997386366E+03  0.00000000000E+00 0. -1.
        -11    1    3    3    0    0  0.53386453525E+03 -0.28152040812E+03 -0.45912253970E+03  0.75832617563E+03  0.00000000000E+00 0.  1.
         22    1    1    2    0    0 -0.94673386692E+03  0.57352655008E+03  0.10823055389E+04  0.15481030321E+04  0.00000000000E+00 0. -1.
<mgrwt>
<rscale>  0 0.28908452E+04</rscale>
<asrwt>0</asrwt>
<pdfrwt beam="1">  1        2 0.24667107E+00 0.28908452E+04</pdfrwt>
<pdfrwt beam="2">  1       -2 0.20046786E+00 0.28908452E+04</pdfrwt>
<totfact> 0.12666675E+00</totfact>
</mgrwt>
</event>
<event>
 6    1  0.9906445E-006  0.3364282E+04  0.7818608E-02  0.8146729E-01
         -1   -1    0    0    0  501 -0.00000000000E+00  0.00000000000E+00  0.13834142528E+04  0.13834142528E+04  0.00000000000E+00 0.  1.
          1   -1    0    0  501    0  0.00000000000E+00 -0.00000000000E+00 -0.20453734876E+04  0.20453734876E+04  0.00000000000E+00 0. -1.
         23    2    1    2    0    0 -0.13829148066E+04  0.74186985745E+03 -0.94487283185E+03  0.18341516217E+04  0.92213095955E+02 0.  0.
         11    1    3    3    0    0 -0.21241586183E+03  0.15194782213E+03 -0.14846437571E+03  0.30041689344E+03  0.00000000000E+00 0. -1.
        -11    1    3    3    0    0 -0.11704989448E+04  0.58992203532E+03 -0.79640845613E+03  0.15337347282E+04  0.00000000000E+00 0.  1.
         22    1    1    2    0    0  0.13829148066E+04 -0.74186985745E+03  0.28291359701E+03  0.15946361187E+04  0.00000000000E+00 0. -1.
<mgrwt>
<rscale>  0 0.33642823E+04</rscale>
<asrwt>0</asrwt>
<pdfrwt beam="1">  1        1 0.31467284E+00 0.33642823E+04</pdfrwt>
<pdfrwt beam="2">  1       -1 0.21283296E+00 0.33642823E+04</pdfrwt>
<totfact> 0.28174297E-01</totfact>
</mgrwt>
</event>
<event>
 6    1  0.9906445E-006  0.2259196E+04  0.7818608E-02  0.8494185E-01
         -2   -1    0    0    0  501 -0.00000000000E+00  0.00000000000E+00  0.60017854865E+03  0.60017854865E+03  0.00000000000E+00 0.  1.
          2   -1    0    0  501    0  0.00000000000E+00 -0.00000000000E+00 -0.21260204663E+04  0.21260204663E+04  0.00000000000E+00 0. -1.
         23    2    1    2    0    0 -0.86720142759E+03 -0.26556744614E+03  0.44635453858E+02  0.91264902697E+03  0.91496110534E+02 0.  0.
         11    1    3    3    0    0 -0.59665830563E+03 -0.13935589052E+03  0.18909416138E+02  0.61300796399E+03  0.00000000000E+00 0. -1.
        -11    1    3    3    0    0 -0.27054312196E+03 -0.12621155561E+03  0.25726037719E+02  0.29964106298E+03  0.00000000000E+00 0.  1.
         22    1    1    2    0    0  0.86720142759E+03  0.26556744614E+03 -0.15704773715E+04  0.18135499879E+04  0.00000000000E+00 0. -1.
<mgrwt>
<rscale>  0 0.22591962E+04</rscale>
<asrwt>0</asrwt>
<pdfrwt beam="1">  1        2 0.32708006E+00 0.22591962E+04</pdfrwt>
<pdfrwt beam="2">  1       -2 0.92335165E-01 0.22591962E+04</pdfrwt>
<totfact> 0.51469562E+00</totfact>
</mgrwt>
</event>
<event>
 6    1  0.9906445E-006  0.4827845E+04  0.7818608E-02  0.7855627E-01
          2   -1    0    0  501    0  0.00000000000E+00  0.00000000000E+00  0.22762148471E+04  0.22762148471E+04  0.00000000000E+00 0. -1.
         -2   -1    0    0    0  501 -0.00000000000E+00 -0.00000000000E+00 -0.25599614854E+04  0.25599614854E+04  0.00000000000E+00 0.  1.
         23    2    1    2    0    0 -0.77936388471E+03 -0.20778648769E+04  0.80726193482E+03  0.23632771801E+04  0.92068924624E+02 0.  0.
         11    1    3    3    0    0 -0.52748804461E+03 -0.13151397195E+04  0.48264411868E+03  0.14969240008E+04  0.00000000000E+00 0.  1.
        -11    1    3    3    0    0 -0.25187584010E+03 -0.76272515746E+03  0.32461781615E+03  0.86635317926E+03  0.00000000000E+00 0. -1.
         22    1    1    2    0    0  0.77936388471E+03  0.20778648769E+04 -0.10910085732E+04  0.24728991525E+04  0.00000000000E+00 0.  1.
<mgrwt>
<rscale>  0 0.48278452E+04</rscale>
<asrwt>0</asrwt>
<pdfrwt beam="1">  1        2 0.35018690E+00 0.48278452E+04</pdfrwt>
<pdfrwt beam="2">  1       -2 0.39384023E+00 0.48278452E+04</pdfrwt>
<totfact> 0.28116812E-02</totfact>
</mgrwt>
</event>
<event>
 6    1  0.9906445E-006  0.1402576E+04  0.7818608E-02  0.8951956E-01
         -1   -1    0    0    0  501 -0.00000000000E+00  0.00000000000E+00  0.26273162646E+03  0.26273162646E+03  0.00000000000E+00 0.  1.
          1   -1    0    0  501    0  0.00000000000E+00 -0.00000000000E+00 -0.18718897854E+04  0.18718897854E+04  0.00000000000E+00 0. -1.
         23    2    1    2    0    0  0.14633201140E+03  0.27151315912E+03 -0.17614513494E+04  0.17906364282E+04  0.92387817062E+02 0.  0.
         13    1    3    3    0    0  0.10562341600E+03  0.14497568807E+03 -0.12195514755E+04  0.12326719180E+04  0.00000000000E+00 0. -1.
        -13    1    3    3    0    0  0.40708595406E+02  0.12653747105E+03 -0.54189987391E+03  0.55796451022E+03  0.00000000000E+00 0.  1.
         22    1    1    2    0    0 -0.14633201140E+03 -0.27151315912E+03  0.15229319042E+03  0.34398498366E+03  0.00000000000E+00 0.  1.
<mgrwt>
<rscale>  0 0.14025757E+04</rscale>
<asrwt>0</asrwt>
<pdfrwt beam="1">  1        1 0.28798302E+00 0.14025757E+04</pdfrwt>
<pdfrwt beam="2">  1       -1 0.40420253E-01 0.14025757E+04</pdfrwt>
<totfact> 0.21217559E+01</totfact>
</mgrwt>
</event>
<event>
 6    1  0.9906445E-006  0.1781467E+04  0.7818608E-02  0.8716217E-01
          1   -1    0    0  501    0  0.00000000000E+00  0.00000000000E+00  0.21191363698E+04  0.21191363698E+04  0.00000000000E+00 0. -1.
         -1   -1    0    0    0  501 -0.00000000000E+00 -0.00000000000E+00 -0.37440084879E+03  0.37440084879E+03  0.00000000000E+00 0.  1.
         23    2    1    2    0    0  0.33320879980E+03  0.36072055767E+02  0.20261714896E+04  0.20558895271E+04  0.94771013256E+02 0.  0.
         13    1    3    3    0    0  0.14360960299E+03  0.48334573910E+00  0.11369077292E+04  0.11459420301E+04  0.00000000000E+00 0. -1.
        -13    1    3    3    0    0  0.18959919681E+03  0.35588710028E+02  0.88926376041E+03  0.90994749700E+03  0.00000000000E+00 0.  1.
         22    1    1    2    0    0 -0.33320879980E+03 -0.36072055767E+02 -0.28143596857E+03  0.43764769150E+03  0.00000000000E+00 0.  1.
<mgrwt>
<rscale>  0 0.17814673E+04</rscale>
<asrwt>0</asrwt>
<pdfrwt beam="1">  1        1 0.32602098E+00 0.17814673E+04</pdfrwt>
<pdfrwt beam="2">  1       -1 0.57600131E-01 0.17814673E+04</pdfrwt>
<totfact> 0.71378649E+00</totfact>
</mgrwt>
</event>
<event>
 6    1  0.9906445E-006  0.3815862E+04  0.7818608E-02  0.8042760E-01
         -2   -1    0    0    0  501 -0.00000000000E+00  0.00000000000E+00  0.19004179583E+04  0.19004179583E+04  0.00000000000E+00 0.  1.
          2   -1    0    0  501    0  0.00000000000E+00 -0.00000000000E+00 -0.19154735472E+04  0.19154735472E+04  0.00000000000E+00 0. -1.
         23    2    1    2    0    0  0.90520745016E+02  0.18706373024E+04 -0.36458173697E+03  0.19107284021E+04  0.10239756451E+03 0.  0.
         11    1    3    3    0    0  0.19804781596E+02  0.78260411968E+03 -0.10439116322E+03  0.78978411764E+03  0.00000000000E+00 0.  1.
        -11    1    3    3    0    0  0.70715963420E+02  0.10880331828E+04 -0.26019057375E+03  0.11209442845E+04  0.00000000000E+00 0. -1.
         22    1    1    2    0    0 -0.90520745016E+02 -0.18706373024E+04  0.34952614804E+03  0.19051631034E+04  0.00000000000E+00 0.  1.
<mgrwt>
<rscale>  0 0.38158618E+04</rscale>
<asrwt>0</asrwt>
<pdfrwt beam="1">  1        2 0.29468824E+00 0.38158618E+04</pdfrwt>
<pdfrwt beam="2">  1       -2 0.29237199E+00 0.38158618E+04</pdfrwt>
<totfact> 0.21097305E-01</totfact>
</mgrwt>
</event>
<event>
 6    1  0.9906445E-006  0.3293632E+04  0.7818608E-02  0.8164518E-01
          2   -1    0    0  501    0  0.00000000000E+00  0.00000000000E+00  0.25114594391E+04  0.25114594391E+04  0.00000000000E+00 0.  1.
         -2   -1    0    0    0  501 -0.00000000000E+00 -0.00000000000E+00 -0.10798515883E+04  0.10798515883E+04  0.00000000000E+00 0. -1.
         23    2    1    2    0    0  0.15317101697E+04  0.30508371486E+03  0.12826292732E+04  0.20224239271E+04  0.76475952065E+02 0.  0.
         11    1    3    3    0    0  0.71819619583E+03  0.10475711952E+03  0.58676580442E+03  0.93331341951E+03  0.00000000000E+00 0. -1.
        -11    1    3    3    0    0  0.81351397386E+03  0.20032659534E+03  0.69586346881E+03  0.10891105076E+04  0.00000000000E+00 0.  1.
         22    1    1    2    0    0 -0.15317101697E+04 -0.30508371486E+03  0.14897857749E+03  0.15688871003E+04  0.00000000000E+00 0. -1.
<mgrwt>
<rscale>  0 0.32936323E+04</rscale>
<asrwt>0</asrwt>
<pdfrwt beam="1">  1        2 0.38637837E+00 0.32936323E+04</pdfrwt>
<pdfrwt beam="2">  1       -2 0.16613101E+00 0.32936323E+04</pdfrwt>
<totfact> 0.65073571E-01</totfact>
</mgrwt>
</event>
<event>
 6    1  0.9906445E-006  0.2648465E+04  0.7818608E-02  0.8351923E-01
          1   -1    0    0  501    0  0.00000000000E+00  0.00000000000E+00  0.16780638981E+04  0.16780638981E+04  0.00000000000E+00 0. -1.
         -1   -1    0    0    0  501 -0.00000000000E+00 -0.00000000000E+00 -0.10450090340E+04  0.10450090340E+04  0.00000000000E+00 0.  1.
         23    2    1    2    0    0 -0.85625070839E+03  0.18562517593E+02 -0.71960340530E+03  0.11220750444E+04  0.87826542746E+02 0.  0.
         11    1    3    3    0    0 -0.11301527734E+03  0.31835926349E+02 -0.90484458633E+02  0.14823432926E+03  0.00000000000E+00 0. -1.
        -11    1    3    3    0    0 -0.74323543106E+03 -0.13273408756E+02 -0.62911894667E+03  0.97384071512E+03  0.00000000000E+00 0.  1.
         22    1    1    2    0    0  0.85625070839E+03 -0.18562517593E+02  0.13526582695E+04  0.16009978878E+04  0.00000000000E+00 0. -1.
<mgrwt>
<rscale>  0 0.26484652E+04</rscale>
<asrwt>0</asrwt>
<pdfrwt beam="1">  1        1 0.25816368E+00 0.26484652E+04</pdfrwt>
<pdfrwt beam="2">  1       -1 0.16077062E+00 0.26484652E+04</pdfrwt>
<totfact> 0.12475949E+00</totfact>
</mgrwt>
</event>
<event>
 6    1  0.9906445E-006  0.1908442E+04  0.7818608E-02  0.8650666E-01
          1   -1    0    0  501    0  0.00000000000E+00  0.00000000000E+00  0.19106956847E+04  0.19106956847E+04  0.00000000000E+00 0. -1.
         -1   -1    0    0    0  501 -0.00000000000E+00 -0.00000000000E+00 -0.47654776951E+03  0.47654776951E+03  0.00000000000E+00 0.  1.
         23    2    1    2    0    0  0.44333821407E+03 -0.76454516216E+03  0.27536611890E+03  0.92989883866E+03  0.88358778061E+02 0.  0.
         13    1    3    3    0    0  0.78167696247E+02 -0.19076093683E+03  0.90116135988E+02  0.22499075919E+03  0.00000000000E+00 0. -1.
        -13    1    3    3    0    0  0.36517051782E+03 -0.57378422534E+03  0.18524998291E+03  0.70490807947E+03  0.00000000000E+00 0.  1.
         22    1    1    2    0    0 -0.44333821407E+03  0.76454516216E+03  0.11587817962E+04  0.14573446155E+04  0.00000000000E+00 0. -1.
<mgrwt>
<rscale>  0 0.19084421E+04</rscale>
<asrwt>0</asrwt>
<pdfrwt beam="1">  1        1 0.29395318E+00 0.19084421E+04</pdfrwt>
<pdfrwt beam="2">  1       -1 0.73315043E-01 0.19084421E+04</pdfrwt>
<totfact> 0.60055027E+00</totfact>
</mgrwt>
</event>
<event>
 6    1  0.9906445E-006  0.7022721E+03  0.7818608E-02  0.9713354E-01
          3   -1    0    0  501    0  0.00000000000E+00  0.00000000000E+00  0.37820215128E+03  0.37820215128E+03  0.00000000000E+00 0. -1.
         -3   -1    0    0    0  501 -0.00000000000E+00 -0.00000000000E+00 -0.32600697854E+03  0.32600697854E+03  0.00000000000E+00 0.  1.
         23    2    1    2    0    0  0.42540490161E+02 -0.18917003089E+03 -0.25986999788E+03  0.33681334242E+03  0.91191106705E+02 0.  0.
         13    1    3    3    0    0  0.59955182200E+02 -0.97964716084E+02 -0.18400215691E+03  0.21690666937E+03  0.00000000000E+00 0.  1.
        -13    1    3    3    0    0 -0.17414692040E+02 -0.91205314802E+02 -0.75867840970E+02  0.11990667304E+03  0.00000000000E+00 0. -1.
         22    1    1    2    0    0 -0.42540490161E+02  0.18917003089E+03  0.31206517062E+03  0.36739578741E+03  0.00000000000E+00 0. -1.
<mgrwt>
<rscale>  0 0.70227214E+03</rscale>
<asrwt>0</asrwt>
<pdfrwt beam="1">  1        3 0.58184946E-01 0.70227214E+03</pdfrwt>
<pdfrwt beam="2">  1       -3 0.50154920E-01 0.70227214E+03</pdfrwt>
<totfact> 0.30101623E+01</totfact>
</mgrwt>
</event>
<event>
 6    1  0.9906445E-006  0.2867357E+04  0.7818608E-02  0.8282656E-01
          2   -1    0    0  501    0  0.00000000000E+00  0.00000000000E+00  0.10564235208E+04  0.10564235208E+04  0.00000000000E+00 0. -1.
         -2   -1    0    0    0  501 -0.00000000000E+00 -0.00000000000E+00 -0.19456540639E+04  0.19456540639E+04  0.00000000000E+00 0.  1.
         23    2    1    2    0    0 -0.91282658868E+03  0.10614255749E+04 -0.76184303714E+03  0.15963378475E+04  0.89515797263E+02 0.  0.
         13    1    3    3    0    0 -0.24827445930E+03  0.34212389007E+03 -0.20512060262E+03  0.46985468489E+03  0.00000000000E+00 0. -1.
        -13    1    3    3    0    0 -0.66455212938E+03  0.71930168485E+03 -0.55672243451E+03  0.11264831626E+04  0.00000000000E+00 0.  1.
         22    1    1    2    0    0  0.91282658868E+03 -0.10614255749E+04 -0.12738750603E+03  0.14057397372E+04  0.00000000000E+00 0. -1.
<mgrwt>
<rscale>  0 0.28673575E+04</rscale>
<asrwt>0</asrwt>
<pdfrwt beam="1">  1        2 0.16252670E+00 0.28673575E+04</pdfrwt>
<pdfrwt beam="2">  1       -2 0.29933139E+00 0.28673575E+04</pdfrwt>
<totfact> 0.64389561E-01</totfact>
</mgrwt>
</event>
<event>
 6    1  0.9906445E-006  0.2984088E+04  0.7818608E-02  0.8248289E-01
          1   -1    0    0  501    0  0.00000000000E+00  0.00000000000E+00  0.13281303104E+04  0.13281303104E+04  0.00000000000E+00 0. -1.
         -1   -1    0    0    0  501 -0.00000000000E+00 -0.00000000000E+00 -0.16761872157E+04  0.16761872157E+04  0.00000000000E+00 0.  1.
         23    2    1    2    0    0  0.92823775001E+03 -0.38328583704E+03 -0.12833970754E+04  0.16319492857E+04  0.87275795028E+02 0.  0.
         13    1    3    3    0    0  0.27255539330E+03 -0.15542061464E+03 -0.38699580869E+03  0.49820454214E+03  0.00000000000E+00 0. -1.
        -13    1    3    3    0    0  0.65568235672E+03 -0.22786522240E+03 -0.89640126676E+03  0.11337447436E+04  0.00000000000E+00 0.  1.
         22    1    1    2    0    0 -0.92823775001E+03  0.38328583704E+03  0.93534017011E+03  0.13723682404E+04  0.00000000000E+00 0. -1.
<mgrwt>
<rscale>  0 0.29840878E+04</rscale>
<asrwt>0</asrwt>
<pdfrwt beam="1">  1        1 0.20432774E+00 0.29840878E+04</pdfrwt>
<pdfrwt beam="2">  1       -1 0.25787495E+00 0.29840878E+04</pdfrwt>
<totfact> 0.45591294E-01</totfact>
</mgrwt>
</event>
<event>
 6    1  0.9906445E-006  0.1214312E+04  0.7818608E-02  0.9100421E-01
         -1   -1    0    0    0  501 -0.00000000000E+00  0.00000000000E+00  0.89789717282E+03  0.89789717282E+03  0.00000000000E+00 0.  1.
          1   -1    0    0  501    0  0.00000000000E+00 -0.00000000000E+00 -0.41055744192E+03  0.41055744192E+03  0.00000000000E+00 0. -1.
         23    2    1    2    0    0  0.27225849812E+03  0.71643020475E+02 -0.33174928241E+03  0.44233440143E+03  0.79653776627E+02 0.  0.
         11    1    3    3    0    0  0.12890746024E+03  0.72269106869E+02 -0.19030715877E+03  0.24094972876E+03  0.00000000000E+00 0.  1.
        -11    1    3    3    0    0  0.14335103789E+03 -0.62608639436E+00 -0.14144212364E+03  0.20138467267E+03  0.00000000000E+00 0. -1.
         22    1    1    2    0    0 -0.27225849812E+03 -0.71643020475E+02  0.81908901330E+03  0.86612021330E+03  0.00000000000E+00 0.  1.
<mgrwt>
<rscale>  0 0.12143119E+04</rscale>
<asrwt>0</asrwt>
<pdfrwt beam="1">  1        1 0.63162684E-01 0.12143119E+04</pdfrwt>
<pdfrwt beam="2">  1       -1 0.13813803E+00 0.12143119E+04</pdfrwt>
<totfact> 0.24872178E+01</totfact>
</mgrwt>
</event>
<event>
 6    1  0.9906445E-006  0.1400133E+04  0.7818608E-02  0.8953722E-01
         -2   -1    0    0    0  501 -0.00000000000E+00  0.00000000000E+00  0.25362131991E+03  0.25362131991E+03  0.00000000000E+00 0.  1.
          2   -1    0    0  501    0  0.00000000000E+00 -0.00000000000E+00 -0.19323807220E+04  0.19323807220E+04  0.00000000000E+00 0. -1.
         23    2    1    2    0    0  0.32640870842E+03  0.52809322888E+03 -0.13379235468E+04  0.14777688998E+04  0.91303892603E+02 0.  0.
         13    1    3    3    0    0  0.25764504898E+03  0.45217024610E+03 -0.11782179201E+04  0.12880358574E+04  0.00000000000E+00 0. -1.
        -13    1    3    3    0    0  0.68763659442E+02  0.75922982779E+02 -0.15970562666E+03  0.18973304236E+03  0.00000000000E+00 0.  1.
         22    1    1    2    0    0 -0.32640870842E+03 -0.52809322888E+03 -0.34083585528E+03  0.70823314210E+03  0.00000000000E+00 0. -1.
<mgrwt>
<rscale>  0 0.14001328E+04</rscale>
<asrwt>0</asrwt>
<pdfrwt beam="1">  1        2 0.29728934E+00 0.14001328E+04</pdfrwt>
<pdfrwt beam="2">  1       -2 0.39018664E-01 0.14001328E+04</pdfrwt>
<totfact> 0.44042063E+01</totfact>
</mgrwt>
</event>
<event>
 6    1  0.9906445E-006  0.2706719E+04  0.7818608E-02  0.8332828E-01
         -2   -1    0    0    0  501 -0.00000000000E+00  0.00000000000E+00  0.17049144247E+04  0.17049144247E+04  0.00000000000E+00 0.  1.
          2   -1    0    0  501    0  0.00000000000E+00 -0.00000000000E+00 -0.10742955368E+04  0.10742955368E+04  0.00000000000E+00 0. -1.
         23    2    1    2    0    0 -0.59434295552E+03 -0.38670828583E+03 -0.86609422116E+03  0.11230285168E+04  0.91032974342E+02 0.  0.
         11    1    3    3    0    0 -0.37765034812E+03 -0.20622086711E+03 -0.47578391902E+03  0.64149603979E+03  0.00000000000E+00 0. -1.
        -11    1    3    3    0    0 -0.21669260740E+03 -0.18048741872E+03 -0.39031030214E+03  0.48153247697E+03  0.00000000000E+00 0.  1.
         22    1    1    2    0    0  0.59434295552E+03  0.38670828583E+03  0.14967131090E+04  0.16561814447E+04  0.00000000000E+00 0.  1.
<mgrwt>
<rscale>  0 0.27067190E+04</rscale>
<asrwt>0</asrwt>
<pdfrwt beam="1">  1        2 0.16527624E+00 0.27067190E+04</pdfrwt>
<pdfrwt beam="2">  1       -2 0.26229453E+00 0.27067190E+04</pdfrwt>
<totfact> 0.10704591E+00</totfact>
</mgrwt>
</event>
<event>
 6    1  0.9906445E-006  0.9230006E+03  0.7818608E-02  0.9397278E-01
          3   -1    0    0  501    0  0.00000000000E+00  0.00000000000E+00  0.14453313538E+04  0.14453313538E+04  0.00000000000E+00 0. -1.
         -3   -1    0    0    0  501 -0.00000000000E+00 -0.00000000000E+00 -0.14735895154E+03  0.14735895154E+03  0.00000000000E+00 0.  1.
         23    2    1    2    0    0 -0.14014979325E+03 -0.25386956741E+03  0.46073568073E+02  0.30764462022E+03  0.91818935250E+02 0.  0.
         13    1    3    3    0    0 -0.38028055228E+02 -0.15709661802E+03  0.77113776290E+01  0.16181763107E+03  0.00000000000E+00 0. -1.
        -13    1    3    3    0    0 -0.10212173803E+03 -0.96772949383E+02  0.38362190444E+02  0.14582698915E+03  0.00000000000E+00 0.  1.
         22    1    1    2    0    0  0.14014979325E+03  0.25386956741E+03  0.12518988342E+04  0.12850456851E+04  0.00000000000E+00 0. -1.
<mgrwt>
<rscale>  0 0.92300057E+03</rscale>
<asrwt>0</asrwt>
<pdfrwt beam="1">  1        3 0.22235866E+00 0.92300057E+03</pdfrwt>
<pdfrwt beam="2">  1       -3 0.22670609E-01 0.92300057E+03</pdfrwt>
<totfact> 0.51886146E+00</totfact>
</mgrwt>
</event>
<event>
 6    1  0.9906445E-006  0.1941924E+04  0.7818608E-02  0.8634265E-01
         -3   -1    0    0    0  501 -0.00000000000E+00  0.00000000000E+00  0.99788600047E+03  0.99788600047E+03  0.00000000000E+00 0.  1.
          3   -1    0    0  501    0  0.00000000000E+00 -0.00000000000E+00 -0.94476447278E+03  0.94476447278E+03  0.00000000000E+00 0. -1.
         23    2    1    2    0    0 -0.11354307538E+03 -0.16150110941E+03 -0.92223511783E+03  0.94751469143E+03  0.91059538796E+02 0.  0.
         11    1    3    3    0    0 -0.17192668426E+02 -0.82304349362E+02 -0.50797923458E+03  0.51489076175E+03  0.00000000000E+00 0. -1.
        -11    1    3    3    0    0 -0.96350406955E+02 -0.79196760046E+02 -0.41425588325E+03  0.43262392968E+03  0.00000000000E+00 0.  1.
         22    1    1    2    0    0  0.11354307538E+03  0.16150110941E+03  0.97535664552E+03  0.99513578183E+03  0.00000000000E+00 0.  1.
<mgrwt>
<rscale>  0 0.19419240E+04</rscale>
<asrwt>0</asrwt>
<pdfrwt beam="1">  1        3 0.14534838E+00 0.19419240E+04</pdfrwt>
<pdfrwt beam="2">  1       -3 0.15352092E+00 0.19419240E+04</pdfrwt>
<totfact> 0.25993465E-01</totfact>
</mgrwt>
</event>
<event>
 6    1  0.9906445E-006  0.1557636E+04  0.7818608E-02  0.8847005E-01
          1   -1    0    0  501    0  0.00000000000E+00  0.00000000000E+00  0.80546780290E+03  0.80546780290E+03  0.00000000000E+00 0. -1.
         -1   -1    0    0    0  501 -0.00000000000E+00 -0.00000000000E+00 -0.75304983068E+03  0.75304983068E+03  0.00000000000E+00 0.  1.
         23    2    1    2    0    0 -0.80848736552E+02  0.53737789384E+03  0.58095756490E+03  0.80045060487E+03  0.88870465480E+02 0.  0.
         13    1    3    3    0    0 -0.15070737060E+02  0.13810577473E+03  0.96127140546E+02  0.16894010560E+03  0.00000000000E+00 0. -1.
        -13    1    3    3    0    0 -0.65777999491E+02  0.39927211911E+03  0.48483042436E+03  0.63151049928E+03  0.00000000000E+00 0.  1.
         22    1    1    2    0    0  0.80848736552E+02 -0.53737789384E+03 -0.52853959268E+03  0.75806702871E+03  0.00000000000E+00 0.  1.
<mgrwt>
<rscale>  0 0.15576359E+04</rscale>
<asrwt>0</asrwt>
<pdfrwt beam="1">  1        1 0.12391812E+00 0.15576359E+04</pdfrwt>
<pdfrwt beam="2">  1       -1 0.11585382E+00 0.15576359E+04</pdfrwt>
<totfact> 0.14202047E+01</totfact>
</mgrwt>
</event>
<event>
 6    1  0.9906445E-006  0.2658080E+04  0.7818608E-02  0.8348736E-01
          2   -1    0    0  501    0  0.00000000000E+00  0.00000000000E+00  0.35966211546E+04  0.35966211546E+04  0.00000000000E+00 0. -1.
         -2   -1    0    0    0  501 -0.00000000000E+00 -0.00000000000E+00 -0.49111284726E+03  0.49111284726E+03  0.00000000000E+00 0.  1.
         23    2    1    2    0    0 -0.68761317329E+03 -0.18655857424E+03 -0.16782722060E+03  0.73775766520E+03  0.92219406179E+02 0.  0.
         11    1    3    3    0    0 -0.25548999372E+03 -0.38821921800E+02 -0.94872114138E+02  0.27528711656E+03  0.00000000000E+00 0.  1.
        -11    1    3    3    0    0 -0.43212317957E+03 -0.14773665244E+03 -0.72955106461E+02  0.46247054863E+03  0.00000000000E+00 0. -1.
         22    1    1    2    0    0  0.68761317329E+03  0.18655857424E+03  0.32733355279E+04  0.33499763367E+04  0.00000000000E+00 0. -1.
<mgrwt>
<rscale>  0 0.26580796E+04</rscale>
<asrwt>0</asrwt>
<pdfrwt beam="1">  1        2 0.55332632E+00 0.26580796E+04</pdfrwt>
<pdfrwt beam="2">  1       -2 0.75555825E-01 0.26580796E+04</pdfrwt>
<totfact> 0.96065692E-01</totfact>
</mgrwt>
</event>
<event>
 6    1  0.9906445E-006  0.2676908E+04  0.7818608E-02  0.8342537E-01
         -2   -1    0    0    0  501 -0.00000000000E+00  0.00000000000E+00  0.10489125377E+04  0.10489125377E+04  0.00000000000E+00 0.  1.
          2   -1    0    0  501    0  0.00000000000E+00 -0.00000000000E+00 -0.17079198210E+04  0.17079198210E+04  0.00000000000E+00 0. -1.
         23    2    1    2    0    0 -0.76681291271E+03 -0.37093208681E+03 -0.13910934938E+04  0.16336481015E+04  0.89846283859E+02 0.  0.
         13    1    3    3    0    0 -0.53124434840E+03 -0.28933697881E+03 -0.92894067277E+03  0.11085428357E+04  0.00000000000E+00 0. -1.
        -13    1    3    3    0    0 -0.23556856430E+03 -0.81595107998E+02 -0.46215282107E+03  0.52510526579E+03  0.00000000000E+00 0.  1.
         22    1    1    2    0    0  0.76681291271E+03  0.37093208681E+03  0.73208621048E+03  0.11231842572E+04  0.00000000000E+00 0.  1.
<mgrwt>
<rscale>  0 0.26769076E+04</rscale>
<asrwt>0</asrwt>
<pdfrwt beam="1">  1        2 0.26275689E+00 0.26769076E+04</pdfrwt>
<pdfrwt beam="2">  1       -2 0.16137116E+00 0.26769076E+04</pdfrwt>
<totfact> 0.21001974E+00</totfact>
</mgrwt>
</event>
<event>
 6    1  0.9906445E-006  0.3846726E+04  0.7818608E-02  0.8036201E-01
          2   -1    0    0  501    0  0.00000000000E+00  0.00000000000E+00  0.21286654096E+04  0.21286654096E+04  0.00000000000E+00 0. -1.
         -2   -1    0    0    0  501 -0.00000000000E+00 -0.00000000000E+00 -0.17378617271E+04  0.17378617271E+04  0.00000000000E+00 0.  1.
         23    2    1    2    0    0  0.11675400326E+04  0.13670993264E+04 -0.48900724691E+03  0.18649833406E+04  0.83213444226E+02 0.  0.
         13    1    3    3    0    0  0.10633493956E+04  0.12439922401E+04 -0.42002597263E+03  0.16895710841E+04  0.00000000000E+00 0.  1.
        -13    1    3    3    0    0  0.10419063697E+03  0.12310708632E+03 -0.68981274281E+02  0.17541225652E+03  0.00000000000E+00 0. -1.
         22    1    1    2    0    0 -0.11675400326E+04 -0.13670993264E+04  0.87981092941E+03  0.20015437960E+04  0.00000000000E+00 0. -1.
<mgrwt>
<rscale>  0 0.38467265E+04</rscale>
<asrwt>0</asrwt>
<pdfrwt beam="1">  1        2 0.32748699E+00 0.38467265E+04</pdfrwt>
<pdfrwt beam="2">  1       -2 0.26736334E+00 0.38467265E+04</pdfrwt>
<totfact> 0.22752488E-01</totfact>
</mgrwt>
</event>
<event>
 6    1  0.9906445E-006  0.2638222E+04  0.7818608E-02  0.8355333E-01
          1   -1    0    0  501    0  0.00000000000E+00  0.00000000000E+00  0.17116374952E+04  0.17116374952E+04  0.00000000000E+00 0. -1.
         -1   -1    0    0    0  501 -0.00000000000E+00 -0.00000000000E+00 -0.10166015498E+04  0.10166015498E+04  0.00000000000E+00 0.  1.
         23    2    1    2    0    0 -0.33212524342E+03  0.97504331752E+03 -0.50149488089E+03  0.11494095208E+04  0.92889625911E+02 0.  0.
         13    1    3    3    0    0 -0.10453757027E+03  0.43362121416E+03 -0.19302767044E+03  0.48601969355E+03  0.00000000000E+00 0.  1.
        -13    1    3    3    0    0 -0.22758767315E+03  0.54142210336E+03 -0.30846721045E+03  0.66338982726E+03  0.00000000000E+00 0. -1.
         22    1    1    2    0    0  0.33212524342E+03 -0.97504331752E+03  0.11965308263E+04  0.15788295242E+04  0.00000000000E+00 0.  1.
<mgrwt>
<rscale>  0 0.26382216E+04</rscale>
<asrwt>0</asrwt>
<pdfrwt beam="1">  1        1 0.26332885E+00 0.26382216E+04</pdfrwt>
<pdfrwt beam="2">  1       -1 0.15640024E+00 0.26382216E+04</pdfrwt>
<totfact> 0.12788464E+00</totfact>
</mgrwt>
</event>
<event>
 6    1  0.9906445E-006  0.4708157E+04  0.7818608E-02  0.7875175E-01
         -1   -1    0    0    0  501 -0.00000000000E+00  0.00000000000E+00  0.30428671710E+04  0.30428671710E+04  0.00000000000E+00 0.  1.
          1   -1    0    0  501    0  0.00000000000E+00 -0.00000000000E+00 -0.18212050306E+04  0.18212050306E+04  0.00000000000E+00 0. -1.
         23    2    1    2    0    0  0.15916027302E+04  0.89274397453E+03  0.21459196800E+04  0.28184810756E+04  0.93130261727E+02 0.  0.
         11    1    3    3    0    0  0.11792470965E+04  0.70538921660E+03  0.15950973615E+04  0.21053582247E+04  0.00000000000E+00 0.  1.
        -11    1    3    3    0    0  0.41235563377E+03  0.18735475793E+03  0.55082231851E+03  0.71312285098E+03  0.00000000000E+00 0. -1.
         22    1    1    2    0    0 -0.15916027302E+04 -0.89274397453E+03 -0.92425753963E+03  0.20455911259E+04  0.00000000000E+00 0. -1.
<mgrwt>
<rscale>  0 0.47081568E+04</rscale>
<asrwt>0</asrwt>
<pdfrwt beam="1">  1        1 0.28018539E+00 0.47081568E+04</pdfrwt>
<pdfrwt beam="2">  1       -1 0.46813341E+00 0.47081568E+04</pdfrwt>
<totfact> 0.70927430E-03</totfact>
</mgrwt>
</event>
<event>
 6    1  0.9906445E-006  0.3160311E+04  0.7818608E-02  0.8199378E-01
         -2   -1    0    0    0  501 -0.00000000000E+00  0.00000000000E+00  0.13101170187E+04  0.13101170187E+04  0.00000000000E+00 0.  1.
          2   -1    0    0  501    0  0.00000000000E+00 -0.00000000000E+00 -0.19058539845E+04  0.19058539845E+04  0.00000000000E+00 0. -1.
         23    2    1    2    0    0 -0.53833183301E+03 -0.15846419115E+03 -0.17997813340E+04  0.18875753909E+04  0.93893257597E+02 0.  0.
         11    1    3    3    0    0 -0.10241503764E+03 -0.86178915432E+00 -0.40683065923E+03  0.41952445448E+03  0.00000000000E+00 0. -1.
        -11    1    3    3    0    0 -0.43591679537E+03 -0.15760240199E+03 -0.13929506748E+04  0.14680509364E+04  0.00000000000E+00 0.  1.
         22    1    1    2    0    0  0.53833183301E+03  0.15846419115E+03  0.12040443682E+04  0.13283956123E+04  0.00000000000E+00 0.  1.
<mgrwt>
<rscale>  0 0.31603112E+04</rscale>
<asrwt>0</asrwt>
<pdfrwt beam="1">  1        2 0.29320830E+00 0.31603112E+04</pdfrwt>
<pdfrwt beam="2">  1       -2 0.20155646E+00 0.31603112E+04</pdfrwt>
<totfact> 0.82723991E-01</totfact>
</mgrwt>
</event>
<event>
 6    1  0.9906445E-006  0.8694340E+03  0.7818608E-02  0.9464618E-01
         -1   -1    0    0    0  501 -0.00000000000E+00  0.00000000000E+00  0.54060519208E+03  0.54060519208E+03  0.00000000000E+00 0.  1.
          1   -1    0    0  501    0  0.00000000000E+00 -0.00000000000E+00 -0.34956910011E+03  0.34956910011E+03  0.00000000000E+00 0. -1.
         23    2    1    2    0    0 -0.38265366535E+03  0.15176272863E+02  0.29655941957E+03  0.49294725443E+03  0.91626194114E+02 0.  0.
         13    1    3    3    0    0 -0.36196324569E+03  0.19461121078E+02  0.24579942588E+03  0.43796516326E+03  0.00000000000E+00 0. -1.
        -13    1    3    3    0    0 -0.20690419656E+02 -0.42848482150E+01  0.50759993688E+02  0.54982091166E+02  0.00000000000E+00 0.  1.
         22    1    1    2    0    0  0.38265366535E+03 -0.15176272863E+02 -0.10552332761E+03  0.39722703776E+03  0.00000000000E+00 0. -1.
<mgrwt>
<rscale>  0 0.86943400E+03</rscale>
<asrwt>0</asrwt>
<pdfrwt beam="1">  1        1 0.53779861E-01 0.86943400E+03</pdfrwt>
<pdfrwt beam="2">  1       -1 0.83170030E-01 0.86943400E+03</pdfrwt>
<totfact> 0.10397105E+02</totfact>
</mgrwt>
</event>
<event>
 6    1  0.9906445E-006  0.2433342E+04  0.7818608E-02  0.8427125E-01
          2   -1    0    0  501    0  0.00000000000E+00  0.00000000000E+00  0.92935682535E+03  0.92935682535E+03  0.00000000000E+00 0. -1.
         -2   -1    0    0    0  501 -0.00000000000E+00 -0.00000000000E+00 -0.15928088913E+04  0.15928088913E+04  0.00000000000E+00 0.  1.
         23    2    1    2    0    0  0.29243670468E+03 -0.11692611618E+04 -0.49120651941E+03  0.13046438814E+04  0.90116157366E+02 0.  0.
         11    1    3    3    0    0  0.15607270448E+03 -0.47350053279E+03 -0.17568928304E+03  0.52860965543E+03  0.00000000000E+00 0.  1.
        -11    1    3    3    0    0  0.13636400021E+03 -0.69576062904E+03 -0.31551723637E+03  0.77603422600E+03  0.00000000000E+00 0. -1.
         22    1    1    2    0    0 -0.29243670468E+03  0.11692611618E+04 -0.17224554651E+03  0.12175218352E+04  0.00000000000E+00 0.  1.
<mgrwt>
<rscale>  0 0.24333416E+04</rscale>
<asrwt>0</asrwt>
<pdfrwt beam="1">  1        2 0.14297797E+00 0.24333416E+04</pdfrwt>
<pdfrwt beam="2">  1       -2 0.24504752E+00 0.24333416E+04</pdfrwt>
<totfact> 0.17319784E+00</totfact>
</mgrwt>
</event>
<event>
 6    1  0.9906445E-006  0.2227394E+04  0.7818608E-02  0.8507112E-01
          2   -1    0    0  501    0  0.00000000000E+00  0.00000000000E+00  0.17120362989E+04  0.17120362989E+04  0.00000000000E+00 0. -1.
         -2   -1    0    0    0  501 -0.00000000000E+00 -0.00000000000E+00 -0.72447130110E+03  0.72447130110E+03  0.00000000000E+00 0.  1.
         23    2    1    2    0    0 -0.43948393849E+02 -0.20042665059E+03  0.16899346764E+04  0.17047798713E+04  0.91065336946E+02 0.  0.
         13    1    3    3    0    0 -0.59655307128E+02 -0.17008551703E+03  0.11783497451E+04  0.11920553513E+04  0.00000000000E+00 0.  1.
        -13    1    3    3    0    0  0.15706913279E+02 -0.30341133566E+02  0.51158493123E+03  0.51272451997E+03  0.00000000000E+00 0. -1.
         22    1    1    2    0    0  0.43948393849E+02  0.20042665059E+03 -0.70236967857E+03  0.73172772871E+03  0.00000000000E+00 0.  1.
<mgrwt>
<rscale>  0 0.22273941E+04</rscale>
<asrwt>0</asrwt>
<pdfrwt beam="1">  1        2 0.26339020E+00 0.22273941E+04</pdfrwt>
<pdfrwt beam="2">  1       -2 0.11145712E+00 0.22273941E+04</pdfrwt>
<totfact> 0.56048760E+00</totfact>
</mgrwt>
</event>
<event>
 6    1  0.9906445E-006  0.3365522E+04  0.7818608E-02  0.8146421E-01
          2   -1    0    0  501    0  0.00000000000E+00  0.00000000000E+00  0.25990387840E+04  0.25990387840E+04  0.00000000000E+00 0. -1.
         -2   -1    0    0    0  501 -0.00000000000E+00 -0.00000000000E+00 -0.10895120846E+04  0.10895120846E+04  0.00000000000E+00 0.  1.
         23    2    1    2    0    0  0.12020609142E+04 -0.45075098908E+03  0.19455441378E+04  0.23327344716E+04  0.91549042676E+02 0.  0.
         13    1    3    3    0    0  0.29689523795E+03 -0.79454861906E+02  0.42053170607E+03  0.52087116757E+03  0.00000000000E+00 0.  1.
        -13    1    3    3    0    0  0.90516567624E+03 -0.37129612717E+03  0.15250124318E+04  0.18118633041E+04  0.00000000000E+00 0. -1.
         22    1    1    2    0    0 -0.12020609142E+04  0.45075098908E+03 -0.43601743842E+03  0.13558163969E+04  0.00000000000E+00 0.  1.
<mgrwt>
<rscale>  0 0.33655218E+04</rscale>
<asrwt>0</asrwt>
<pdfrwt beam="1">  1        2 0.39985212E+00 0.33655218E+04</pdfrwt>
<pdfrwt beam="2">  1       -2 0.16761724E+00 0.33655218E+04</pdfrwt>
<totfact> 0.56100479E-01</totfact>
</mgrwt>
</event>
<event>
 6    1  0.9906445E-006  0.2959508E+04  0.7818608E-02  0.8255389E-01
          2   -1    0    0  501    0  0.00000000000E+00  0.00000000000E+00  0.21788091733E+04  0.21788091733E+04  0.00000000000E+00 0. -1.
         -2   -1    0    0    0  501 -0.00000000000E+00 -0.00000000000E+00 -0.10049857773E+04  0.10049857773E+04  0.00000000000E+00 0.  1.
         23    2    1    2    0    0  0.87734918067E+03 -0.86719588680E+03  0.14639808022E+04  0.19165295438E+04  0.89863296917E+02 0.  0.
         13    1    3    3    0    0  0.45066992582E+03 -0.43501218816E+03  0.81189064407E+03  0.10254293753E+04  0.00000000000E+00 0. -1.
        -13    1    3    3    0    0  0.42667925485E+03 -0.43218369864E+03  0.65209015811E+03  0.89110016844E+03  0.00000000000E+00 0.  1.
         22    1    1    2    0    0 -0.87734918067E+03  0.86719588680E+03 -0.29015740612E+03  0.12672654068E+04  0.00000000000E+00 0. -1.
<mgrwt>
<rscale>  0 0.29595082E+04</rscale>
<asrwt>0</asrwt>
<pdfrwt beam="1">  1        2 0.33520141E+00 0.29595082E+04</pdfrwt>
<pdfrwt beam="2">  1       -2 0.15461320E+00 0.29595082E+04</pdfrwt>
<totfact> 0.12598011E+00</totfact>
</mgrwt>
</event>
<event>
 6    1  0.9906445E-006  0.2273510E+04  0.7818608E-02  0.8488439E-01
          2   -1    0    0  501    0  0.00000000000E+00  0.00000000000E+00  0.13982758052E+04  0.13982758052E+04  0.00000000000E+00 0. -1.
         -2   -1    0    0    0  501 -0.00000000000E+00 -0.00000000000E+00 -0.92414688289E+03  0.92414688289E+03  0.00000000000E+00 0.  1.
         23    2    1    2    0    0 -0.25867580125E+03  0.82775865407E+03  0.98508795247E+03  0.13158559044E+04  0.94767755789E+02 0.  0.
         13    1    3    3    0    0 -0.15275340197E+03  0.38309975522E+03  0.41418318392E+03  0.58450554668E+03  0.00000000000E+00 0.  1.
        -13    1    3    3    0    0 -0.10592239928E+03  0.44465889885E+03  0.57090476856E+03  0.73135035773E+03  0.00000000000E+00 0. -1.
         22    1    1    2    0    0  0.25867580125E+03 -0.82775865407E+03 -0.51095903015E+03  0.10065667837E+04  0.00000000000E+00 0.  1.
<mgrwt>
<rscale>  0 0.22735103E+04</rscale>
<asrwt>0</asrwt>
<pdfrwt beam="1">  1        2 0.21511936E+00 0.22735103E+04</pdfrwt>
<pdfrwt beam="2">  1       -2 0.14217644E+00 0.22735103E+04</pdfrwt>
<totfact> 0.45470908E+00</totfact>
</mgrwt>
</event>
<event>
 6    1  0.9906445E-006  0.2836900E+04  0.7818608E-02  0.8291903E-01
          2   -1    0    0  501    0  0.00000000000E+00  0.00000000000E+00  0.10667727083E+04  0.10667727083E+04  0.00000000000E+00 0.  1.
         -2   -1    0    0    0  501 -0.00000000000E+00 -0.00000000000E+00 -0.18860634117E+04  0.18860634117E+04  0.00000000000E+00 0. -1.
         23    2    1    2    0    0 -0.96980825981E+03 -0.95743061738E+03 -0.61390433474E+01  0.13658839878E+04  0.91651144505E+02 0.  0.
         11    1    3    3    0    0 -0.33144165890E+03 -0.36886646050E+03 -0.34866185634E+02  0.49712341509E+03  0.00000000000E+00 0.  1.
        -11    1    3    3    0    0 -0.63836660091E+03 -0.58856415688E+03  0.28727142287E+02  0.86876057267E+03  0.00000000000E+00 0. -1.
         22    1    1    2    0    0  0.96980825981E+03  0.95743061738E+03 -0.81315165996E+03  0.15869521322E+04  0.00000000000E+00 0. -1.
<mgrwt>
<rscale>  0 0.28369004E+04</rscale>
<asrwt>0</asrwt>
<pdfrwt beam="1">  1        2 0.16411888E+00 0.28369004E+04</pdfrwt>
<pdfrwt beam="2">  1       -2 0.29016360E+00 0.28369004E+04</pdfrwt>
<totfact> 0.72356197E-01</totfact>
</mgrwt>
</event>
<event>
 6    1  0.9906445E-006  0.1250511E+04  0.7818608E-02  0.9069758E-01
          1   -1    0    0  501    0  0.00000000000E+00  0.00000000000E+00  0.12071639763E+04  0.12071639763E+04  0.00000000000E+00 0. -1.
         -1   -1    0    0    0  501 -0.00000000000E+00 -0.00000000000E+00 -0.32385348854E+03  0.32385348854E+03  0.00000000000E+00 0.  1.
         23    2    1    2    0    0 -0.55747180795E+03 -0.17619435723E+03  0.18361683461E+03  0.61921130318E+03  0.88815696004E+02 0.  0.
         11    1    3    3    0    0 -0.29359885476E+03 -0.10242380801E+03  0.14288583950E+03  0.34220941994E+03  0.00000000000E+00 0. -1.
        -11    1    3    3    0    0 -0.26387295319E+03 -0.73770549224E+02  0.40730995101E+02  0.27700188325E+03  0.00000000000E+00 0.  1.
         22    1    1    2    0    0  0.55747180795E+03  0.17619435723E+03  0.69969365318E+03  0.91180616168E+03  0.00000000000E+00 0. -1.
<mgrwt>
<rscale>  0 0.12505107E+04</rscale>
<asrwt>0</asrwt>
<pdfrwt beam="1">  1        1 0.18571753E+00 0.12505107E+04</pdfrwt>
<pdfrwt beam="2">  1       -1 0.49823614E-01 0.12505107E+04</pdfrwt>
<totfact> 0.42059856E+01</totfact>
</mgrwt>
</event>
<event>
 6    1  0.9906445E-006  0.3499438E+04  0.7818608E-02  0.8113923E-01
          1   -1    0    0  501    0  0.00000000000E+00  0.00000000000E+00  0.16494937436E+04  0.16494937436E+04  0.00000000000E+00 0. -1.
         -1   -1    0    0    0  501 -0.00000000000E+00 -0.00000000000E+00 -0.18560342298E+04  0.18560342298E+04  0.00000000000E+00 0.  1.
         23    2    1    2    0    0 -0.51874839488E+03 -0.16528267351E+04 -0.34328799093E+03  0.17678179879E+04  0.79985500289E+02 0.  0.
         11    1    3    3    0    0 -0.12095167242E+03 -0.29469825146E+03 -0.47957048880E+02  0.32214320575E+03  0.00000000000E+00 0.  1.
        -11    1    3    3    0    0 -0.39779672246E+03 -0.13581284837E+04 -0.29533094205E+03  0.14456747822E+04  0.00000000000E+00 0. -1.
         22    1    1    2    0    0  0.51874839488E+03  0.16528267351E+04  0.13674750471E+03  0.17377099855E+04  0.00000000000E+00 0. -1.
<mgrwt>
<rscale>  0 0.34994382E+04</rscale>
<asrwt>0</asrwt>
<pdfrwt beam="1">  1        1 0.25376827E+00 0.34994382E+04</pdfrwt>
<pdfrwt beam="2">  1       -1 0.28554373E+00 0.34994382E+04</pdfrwt>
<totfact> 0.17251209E-01</totfact>
</mgrwt>
</event>
<event>
 6    1  0.9906445E-006  0.3140383E+04  0.7818608E-02  0.8204742E-01
          1   -1    0    0  501    0  0.00000000000E+00  0.00000000000E+00  0.20637061517E+04  0.20637061517E+04  0.00000000000E+00 0. -1.
         -1   -1    0    0    0  501 -0.00000000000E+00 -0.00000000000E+00 -0.11946959398E+04  0.11946959398E+04  0.00000000000E+00 0.  1.
         23    2    1    2    0    0 -0.81795843131E+03  0.96699135417E+03 -0.52572571057E+03  0.13744125565E+04  0.92163323830E+02 0.  0.
         13    1    3    3    0    0 -0.32337958345E+03  0.35963768915E+03 -0.24679528464E+03  0.54297470933E+03  0.00000000000E+00 0.  1.
        -13    1    3    3    0    0 -0.49457884786E+03  0.60735366501E+03 -0.27893042593E+03  0.83143784714E+03  0.00000000000E+00 0. -1.
         22    1    1    2    0    0  0.81795843131E+03 -0.96699135417E+03  0.13947359225E+04  0.18839895350E+04  0.00000000000E+00 0. -1.
<mgrwt>
<rscale>  0 0.31403830E+04</rscale>
<asrwt>0</asrwt>
<pdfrwt beam="1">  1        1 0.31749325E+00 0.31403830E+04</pdfrwt>
<pdfrwt beam="2">  1       -1 0.18379938E+00 0.31403830E+04</pdfrwt>
<totfact> 0.44340518E-01</totfact>
</mgrwt>
</event>
<event>
 6    1  0.9906445E-006  0.1272627E+04  0.7818608E-02  0.9051558E-01
         -1   -1    0    0    0  501 -0.00000000000E+00  0.00000000000E+00  0.12860645559E+03  0.12860645559E+03  0.00000000000E+00 0.  1.
          1   -1    0    0  501    0  0.00000000000E+00 -0.00000000000E+00 -0.31483248841E+04  0.31483248841E+04  0.00000000000E+00 0. -1.
         23    2    1    2    0    0 -0.60299683978E+03 -0.12526380276E+03 -0.18939264533E+04  0.19936917749E+04  0.92483911633E+02 0.  0.
         11    1    3    3    0    0 -0.32314270876E+03 -0.75150732379E+02 -0.11637987926E+04  0.12101638205E+04  0.00000000000E+00 0. -1.
        -11    1    3    3    0    0 -0.27985413102E+03 -0.50113070377E+02 -0.73012766070E+03  0.78352795444E+03  0.00000000000E+00 0.  1.
         22    1    1    2    0    0  0.60299683978E+03  0.12526380276E+03 -0.11257919752E+04  0.12832395647E+04  0.00000000000E+00 0.  1.
<mgrwt>
<rscale>  0 0.12726271E+04</rscale>
<asrwt>0</asrwt>
<pdfrwt beam="1">  1        1 0.48435764E+00 0.12726271E+04</pdfrwt>
<pdfrwt beam="2">  1       -1 0.19785610E-01 0.12726271E+04</pdfrwt>
<totfact> 0.96518282E+00</totfact>
</mgrwt>
</event>
<event>
 6    1  0.9906445E-006  0.4905971E+03  0.7818608E-02  0.1016263E+00
          1   -1    0    0  501    0  0.00000000000E+00  0.00000000000E+00  0.22779775074E+03  0.22779775074E+03  0.00000000000E+00 0. -1.
         -1   -1    0    0    0  501 -0.00000000000E+00 -0.00000000000E+00 -0.26414381735E+03  0.26414381735E+03  0.00000000000E+00 0.  1.
         23    2    1    2    0    0  0.16226360506E+03  0.17745728144E+03 -0.40176066514E+02  0.25145199833E+03  0.61590801934E+02 0.  0.
         11    1    3    3    0    0  0.11433981857E+03  0.15785512544E+03 -0.42983768159E+02  0.19959819404E+03  0.00000000000E+00 0. -1.
        -11    1    3    3    0    0  0.47923786490E+02  0.19602155998E+02  0.28077016447E+01  0.51853804295E+02  0.00000000000E+00 0.  1.
         22    1    1    2    0    0 -0.16226360506E+03 -0.17745728144E+03  0.38299998983E+01  0.24048956976E+03  0.00000000000E+00 0. -1.
<mgrwt>
<rscale>  0 0.49059705E+03</rscale>
<asrwt>0</asrwt>
<pdfrwt beam="1">  1        1 0.35045808E-01 0.49059705E+03</pdfrwt>
<pdfrwt beam="2">  1       -1 0.40637510E-01 0.49059705E+03</pdfrwt>
<totfact> 0.74746238E+02</totfact>
</mgrwt>
</event>
<event>
 6    1  0.1109932E-005  0.2387244E+04  0.7818608E-02  0.8444295E-01
          2   -1    0    0  501    0  0.00000000000E+00  0.00000000000E+00  0.15746815072E+04  0.15746815072E+04  0.00000000000E+00 0. -1.
         -2   -1    0    0    0  501 -0.00000000000E+00 -0.00000000000E+00 -0.90477540633E+03  0.90477540633E+03  0.00000000000E+00 0.  1.
         23    2    1    2    0    0  0.11445929423E+02  0.38140247232E+03 -0.83728127719E+03  0.92471814197E+03  0.92004618191E+02 0.  0.
         13    1    3    3    0    0  0.11063473703E+02  0.29101438355E+03 -0.53394990566E+03  0.60820578231E+03  0.00000000000E+00 0.  1.
        -13    1    3    3    0    0  0.38245571987E+00  0.90388088770E+02 -0.30333137153E+03  0.31651235966E+03  0.00000000000E+00 0. -1.
         22    1    1    2    0    0 -0.11445929423E+02 -0.38140247232E+03  0.15071873780E+04  0.15547387715E+04  0.00000000000E+00 0. -1.
<mgrwt>
<rscale>  0 0.23872437E+04</rscale>
<asrwt>0</asrwt>
<pdfrwt beam="1">  1        2 0.24225869E+00 0.23872437E+04</pdfrwt>
<pdfrwt beam="2">  1       -2 0.13919622E+00 0.23872437E+04</pdfrwt>
<totfact> 0.37820537E+00</totfact>
</mgrwt>
</event>
<event>
 6    1  0.9906445E-006  0.2305884E+04  0.7818608E-02  0.8475605E-01
          2   -1    0    0  501    0  0.00000000000E+00  0.00000000000E+00  0.23217438874E+04  0.23217438874E+04  0.00000000000E+00 0.  1.
         -2   -1    0    0    0  501 -0.00000000000E+00 -0.00000000000E+00 -0.57253312303E+03  0.57253312303E+03  0.00000000000E+00 0. -1.
         23    2    1    2    0    0 -0.44619408521E+02  0.11380286945E+04  0.10839380810E+04  0.15753047043E+04  0.97790320753E+02 0.  0.
         11    1    3    3    0    0  0.30796951677E+02  0.38316842862E+03  0.35624082625E+03  0.52409352525E+03  0.00000000000E+00 0.  1.
        -11    1    3    3    0    0 -0.75416360198E+02  0.75486026588E+03  0.72769725476E+03  0.10512111791E+04  0.00000000000E+00 0. -1.
         22    1    1    2    0    0  0.44619408521E+02 -0.11380286945E+04  0.66527268336E+03  0.13189723061E+04  0.00000000000E+00 0. -1.
<mgrwt>
<rscale>  0 0.23058840E+04</rscale>
<asrwt>0</asrwt>
<pdfrwt beam="1">  1        2 0.35719136E+00 0.23058840E+04</pdfrwt>
<pdfrwt beam="2">  1       -2 0.88082020E-01 0.23058840E+04</pdfrwt>
<totfact> 0.44340024E+00</totfact>
</mgrwt>
</event>
<event>
 6    1  0.9906445E-006  0.9804542E+03  0.7818608E-02  0.9330246E-01
         -2   -1    0    0    0  501 -0.00000000000E+00  0.00000000000E+00  0.22340870782E+03  0.22340870782E+03  0.00000000000E+00 0.  1.
          2   -1    0    0  501    0  0.00000000000E+00 -0.00000000000E+00 -0.10757083731E+04  0.10757083731E+04  0.00000000000E+00 0. -1.
         23    2    1    2    0    0 -0.22434089843E+03  0.19164024158E+03  0.83664070197E+02  0.31774919118E+03  0.83126716247E+02 0.  0.
         11    1    3    3    0    0 -0.56745284204E+02  0.10138202552E+03  0.31636450774E+02  0.12041265464E+03  0.00000000000E+00 0. -1.
        -11    1    3    3    0    0 -0.16759561422E+03  0.90258216050E+02  0.52027619422E+02  0.19733653654E+03  0.00000000000E+00 0.  1.
         22    1    1    2    0    0  0.22434089843E+03 -0.19164024158E+03 -0.93596373547E+03  0.98136788974E+03  0.00000000000E+00 0. -1.
<mgrwt>
<rscale>  0 0.98045422E+03</rscale>
<asrwt>0</asrwt>
<pdfrwt beam="1">  1        2 0.16549360E+00 0.98045422E+03</pdfrwt>
<pdfrwt beam="2">  1       -2 0.34370570E-01 0.98045422E+03</pdfrwt>
<totfact> 0.17854357E+02</totfact>
</mgrwt>
</event>
<event>
 6    1  0.9906445E-006  0.1406621E+04  0.7818608E-02  0.8949040E-01
         -2   -1    0    0    0  501 -0.00000000000E+00  0.00000000000E+00  0.88989456935E+03  0.88989456935E+03  0.00000000000E+00 0.  1.
          2   -1    0    0  501    0  0.00000000000E+00 -0.00000000000E+00 -0.55584767523E+03  0.55584767523E+03  0.00000000000E+00 0. -1.
         23    2    1    2    0    0 -0.52228745614E+03 -0.17839775764E+03  0.61099240036E+03  0.82824021203E+03  0.89778553967E+02 0.  0.
         13    1    3    3    0    0 -0.70701617137E+02  0.29373183150E+01  0.10103771043E+03  0.12335301145E+03  0.00000000000E+00 0.  1.
        -13    1    3    3    0    0 -0.45158583901E+03 -0.18133507596E+03  0.50995468993E+03  0.70488720058E+03  0.00000000000E+00 0. -1.
         22    1    1    2    0    0  0.52228745614E+03  0.17839775764E+03 -0.27694550624E+03  0.61750203255E+03  0.00000000000E+00 0. -1.
<mgrwt>
<rscale>  0 0.14066212E+04</rscale>
<asrwt>0</asrwt>
<pdfrwt beam="1">  1        2 0.85515027E-01 0.14066212E+04</pdfrwt>
<pdfrwt beam="2">  1       -2 0.13690686E+00 0.14066212E+04</pdfrwt>
<totfact> 0.20115711E+01</totfact>
</mgrwt>
</event>
<event>
 6    1  0.9906445E-006  0.8273364E+03  0.7818608E-02  0.9521270E-01
          1   -1    0    0  501    0  0.00000000000E+00  0.00000000000E+00  0.13778812527E+03  0.13778812527E+03  0.00000000000E+00 0.  1.
         -1   -1    0    0    0  501 -0.00000000000E+00 -0.00000000000E+00 -0.12419168866E+04  0.12419168866E+04  0.00000000000E+00 0. -1.
         23    2    1    2    0    0 -0.39644355829E+03  0.41274129550E+02 -0.40754350440E+03  0.57714531387E+03  0.90188450847E+02 0.  0.
         13    1    3    3    0    0 -0.21516666941E+03  0.12713996776E+02 -0.28138084054E+03  0.35444818911E+03  0.00000000000E+00 0. -1.
        -13    1    3    3    0    0 -0.18127688888E+03  0.28560132774E+02 -0.12616266386E+03  0.22269712476E+03  0.00000000000E+00 0.  1.
         22    1    1    2    0    0  0.39644355829E+03 -0.41274129550E+02 -0.69658525688E+03  0.80255969796E+03  0.00000000000E+00 0. -1.
<mgrwt>
<rscale>  0 0.82733645E+03</rscale>
<asrwt>0</asrwt>
<pdfrwt beam="1">  1        1 0.21198174E-01 0.82733645E+03</pdfrwt>
<pdfrwt beam="2">  1       -1 0.19106413E+00 0.82733645E+03</pdfrwt>
<totfact> 0.42860979E+01</totfact>
</mgrwt>
</event>
<event>
 6    1  0.1054435E-005  0.1460876E+04  0.7818608E-02  0.8910895E-01
          1   -1    0    0  501    0  0.00000000000E+00  0.00000000000E+00  0.67289857001E+03  0.67289857001E+03  0.00000000000E+00 0. -1.
         -1   -1    0    0    0  501 -0.00000000000E+00 -0.00000000000E+00 -0.79289783430E+03  0.79289783430E+03  0.00000000000E+00 0.  1.
         23    2    1    2    0    0 -0.10882555610E+03  0.14339977144E+03 -0.76761617070E+03  0.79362518091E+03  0.90553001826E+02 0.  0.
         11    1    3    3    0    0 -0.22766038784E+02  0.86158964720E+02 -0.24069429740E+03  0.25666204341E+03  0.00000000000E+00 0.  1.
        -11    1    3    3    0    0 -0.86059517312E+02  0.57240806717E+02 -0.52692187330E+03  0.53696313750E+03  0.00000000000E+00 0. -1.
         22    1    1    2    0    0  0.10882555610E+03 -0.14339977144E+03  0.64761690641E+03  0.67217122341E+03  0.00000000000E+00 0. -1.
<mgrwt>
<rscale>  0 0.14608762E+04</rscale>
<asrwt>0</asrwt>
<pdfrwt beam="1">  1        1 0.10352286E+00 0.14608762E+04</pdfrwt>
<pdfrwt beam="2">  1       -1 0.12198428E+00 0.14608762E+04</pdfrwt>
<totfact> 0.16692316E+01</totfact>
</mgrwt>
</event>
<event>
 6    1  0.9906445E-006  0.1156165E+04  0.7818608E-02  0.9152114E-01
          2   -1    0    0  501    0  0.00000000000E+00  0.00000000000E+00  0.52158146775E+03  0.52158146775E+03  0.00000000000E+00 0. -1.
         -2   -1    0    0    0  501 -0.00000000000E+00 -0.00000000000E+00 -0.64070463559E+03  0.64070463559E+03  0.00000000000E+00 0.  1.
         23    2    1    2    0    0 -0.12410840702E+03 -0.23350300532E+03 -0.57245098315E+03  0.63746931786E+03  0.93490389436E+02 0.  0.
         13    1    3    3    0    0 -0.70361214215E+02 -0.74493551213E+02 -0.30459102531E+03  0.32136534091E+03  0.00000000000E+00 0. -1.
        -13    1    3    3    0    0 -0.53747192802E+02 -0.15900945411E+03 -0.26785995784E+03  0.31610397695E+03  0.00000000000E+00 0.  1.
         22    1    1    2    0    0  0.12410840702E+03  0.23350300532E+03  0.45332781531E+03  0.52481678548E+03  0.00000000000E+00 0. -1.
<mgrwt>
<rscale>  0 0.11561655E+04</rscale>
<asrwt>0</asrwt>
<pdfrwt beam="1">  1        2 0.80243303E-01 0.11561655E+04</pdfrwt>
<pdfrwt beam="2">  1       -2 0.98569943E-01 0.11561655E+04</pdfrwt>
<totfact> 0.49577215E+01</totfact>
</mgrwt>
</event>
<event>
 6    1  0.9906445E-006  0.2050473E+04  0.7818608E-02  0.8583380E-01
         -1   -1    0    0    0  501 -0.00000000000E+00  0.00000000000E+00  0.48904931887E+03  0.48904931887E+03  0.00000000000E+00 0.  1.
          1   -1    0    0  501    0  0.00000000000E+00 -0.00000000000E+00 -0.21492918014E+04  0.21492918014E+04  0.00000000000E+00 0. -1.
         23    2    1    2    0    0 -0.28989215597E+03  0.48283703567E+03 -0.19305644920E+04  0.20136467519E+04  0.10259102542E+03 0.  0.
         13    1    3    3    0    0 -0.11602096315E+03  0.11607789699E+03 -0.64353052747E+03  0.66412836247E+03  0.00000000000E+00 0. -1.
        -13    1    3    3    0    0 -0.17387119282E+03  0.36675913868E+03 -0.12870339646E+04  0.13495183894E+04  0.00000000000E+00 0.  1.
         22    1    1    2    0    0  0.28989215597E+03 -0.48283703567E+03  0.27032200945E+03  0.62469436839E+03  0.00000000000E+00 0.  1.
<mgrwt>
<rscale>  0 0.20504728E+04</rscale>
<asrwt>0</asrwt>
<pdfrwt beam="1">  1        1 0.33066027E+00 0.20504728E+04</pdfrwt>
<pdfrwt beam="2">  1       -1 0.75238358E-01 0.20504728E+04</pdfrwt>
<totfact> 0.38696216E+00</totfact>
</mgrwt>
</event>
<event>
 6    1  0.9906445E-006  0.3038493E+04  0.7818608E-02  0.8232823E-01
         -2   -1    0    0    0  501 -0.00000000000E+00  0.00000000000E+00  0.11554728924E+04  0.11554728924E+04  0.00000000000E+00 0.  1.
          2   -1    0    0  501    0  0.00000000000E+00 -0.00000000000E+00 -0.19975463638E+04  0.19975463638E+04  0.00000000000E+00 0. -1.
         23    2    1    2    0    0 -0.15046563062E+04 -0.19927996808E+03 -0.43882578211E+03  0.15825697013E+04  0.90860812081E+02 0.  0.
         11    1    3    3    0    0 -0.13120038260E+04 -0.15323582056E+03 -0.40507028377E+03  0.13816356940E+04  0.00000000000E+00 0. -1.
        -11    1    3    3    0    0 -0.19265248014E+03 -0.46044147523E+02 -0.33755498340E+02  0.20093400731E+03  0.00000000000E+00 0.  1.
         22    1    1    2    0    0  0.15046563062E+04  0.19927996808E+03 -0.40324768930E+03  0.15704495549E+04  0.00000000000E+00 0.  1.
<mgrwt>
<rscale>  0 0.30384935E+04</rscale>
<asrwt>0</asrwt>
<pdfrwt beam="1">  1        2 0.30731482E+00 0.30384935E+04</pdfrwt>
<pdfrwt beam="2">  1       -2 0.17776506E+00 0.30384935E+04</pdfrwt>
<totfact> 0.10748359E+00</totfact>
</mgrwt>
</event>
<event>
 6    1  0.9906445E-006  0.3060154E+04  0.7818608E-02  0.8226759E-01
          1   -1    0    0  501    0  0.00000000000E+00  0.00000000000E+00  0.10432668208E+04  0.10432668208E+04  0.00000000000E+00 0. -1.
         -1   -1    0    0    0  501 -0.00000000000E+00 -0.00000000000E+00 -0.22440431699E+04  0.22440431699E+04  0.00000000000E+00 0.  1.
         23    2    1    2    0    0  0.11574296007E+04  0.99840170236E+03 -0.57766719554E+03  0.16366391401E+04  0.91864281094E+02 0.  0.
         13    1    3    3    0    0  0.61276649189E+03  0.47870913144E+03 -0.26555992913E+03  0.82168563458E+03  0.00000000000E+00 0.  1.
        -13    1    3    3    0    0  0.54466310884E+03  0.51969257092E+03 -0.31210726641E+03  0.81495350551E+03  0.00000000000E+00 0. -1.
         22    1    1    2    0    0 -0.11574296007E+04 -0.99840170236E+03 -0.62310915353E+03  0.16506708506E+04  0.00000000000E+00 0. -1.
<mgrwt>
<rscale>  0 0.30601541E+04</rscale>
<asrwt>0</asrwt>
<pdfrwt beam="1">  1        1 0.16050259E+00 0.30601541E+04</pdfrwt>
<pdfrwt beam="2">  1       -1 0.34523741E+00 0.30601541E+04</pdfrwt>
<totfact> 0.19806950E-01</totfact>
</mgrwt>
</event>
<event>
 6    1  0.9906445E-006  0.5197656E+03  0.7818608E-02  0.1008745E+00
          1   -1    0    0  501    0  0.00000000000E+00  0.00000000000E+00  0.60315370892E+03  0.60315370892E+03  0.00000000000E+00 0. -1.
         -1   -1    0    0    0  501 -0.00000000000E+00 -0.00000000000E+00 -0.11197655722E+03  0.11197655722E+03  0.00000000000E+00 0.  1.
         23    2    1    2    0    0  0.46746571531E+02 -0.41947798746E+02  0.58884648698E+03  0.59900895533E+03  0.90148120135E+02 0.  0.
         13    1    3    3    0    0 -0.45599750944E+01  0.25038886966E+02  0.12956527650E+03  0.13204128183E+03  0.00000000000E+00 0. -1.
        -13    1    3    3    0    0  0.51306546625E+02 -0.66986685712E+02  0.45928121048E+03  0.46696767350E+03  0.00000000000E+00 0.  1.
         22    1    1    2    0    0 -0.46746571531E+02  0.41947798746E+02 -0.97669335280E+02  0.11612131081E+03  0.00000000000E+00 0.  1.
<mgrwt>
<rscale>  0 0.51976562E+03</rscale>
<asrwt>0</asrwt>
<pdfrwt beam="1">  1        1 0.92792877E-01 0.51976562E+03</pdfrwt>
<pdfrwt beam="2">  1       -1 0.17227163E-01 0.51976562E+03</pdfrwt>
<totfact> 0.89666898E+02</totfact>
</mgrwt>
</event>
<event>
 6    1  0.9906445E-006  0.1837732E+04  0.7818608E-02  0.8686487E-01
         -2   -1    0    0    0  501 -0.00000000000E+00  0.00000000000E+00  0.28440095696E+03  0.28440095696E+03  0.00000000000E+00 0.  1.
          2   -1    0    0  501    0  0.00000000000E+00 -0.00000000000E+00 -0.29687487949E+04  0.29687487949E+04  0.00000000000E+00 0. -1.
         23    2    1    2    0    0  0.72096203573E+03 -0.83806289404E+02 -0.23364908499E+04  0.24482806723E+04  0.89883300714E+02 0.  0.
         13    1    3    3    0    0  0.52595532720E+03 -0.50640546166E+02 -0.15630096689E+04  0.16499068750E+04  0.00000000000E+00 0.  1.
        -13    1    3    3    0    0  0.19500670853E+03 -0.33165743238E+02 -0.77348118092E+03  0.79837379725E+03  0.00000000000E+00 0. -1.
         22    1    1    2    0    0 -0.72096203573E+03  0.83806289404E+02 -0.34785698812E+03  0.80486907960E+03  0.00000000000E+00 0.  1.
<mgrwt>
<rscale>  0 0.18377323E+04</rscale>
<asrwt>0</asrwt>
<pdfrwt beam="1">  1        2 0.45673059E+00 0.18377323E+04</pdfrwt>
<pdfrwt beam="2">  1       -2 0.43753993E-01 0.18377323E+04</pdfrwt>
<totfact> 0.85196629E+00</totfact>
</mgrwt>
</event>
<event>
 6    1  0.9906445E-006  0.1793980E+04  0.7818608E-02  0.8709507E-01
         -1   -1    0    0    0  501 -0.00000000000E+00  0.00000000000E+00  0.63462326856E+03  0.63462326856E+03  0.00000000000E+00 0. -1.
          1   -1    0    0  501    0  0.00000000000E+00 -0.00000000000E+00 -0.12678247373E+04  0.12678247373E+04  0.00000000000E+00 0.  1.
         23    2    1    2    0    0 -0.12365842630E+03  0.74133939500E+03 -0.83225044701E+03  0.11249545971E+04  0.89479237391E+02 0.  0.
         11    1    3    3    0    0 -0.11240056273E+03  0.60042783678E+03 -0.62371393815E+03  0.87302150622E+03  0.00000000000E+00 0. -1.
        -11    1    3    3    0    0 -0.11257863563E+02  0.14091155823E+03 -0.20853650886E+03  0.25193309084E+03  0.00000000000E+00 0.  1.
         22    1    1    2    0    0  0.12365842630E+03 -0.74133939500E+03  0.19904897826E+03  0.77749340880E+03  0.00000000000E+00 0. -1.
<mgrwt>
<rscale>  0 0.17939800E+04</rscale>
<asrwt>0</asrwt>
<pdfrwt beam="1">  1        1 0.19504996E+00 0.17939800E+04</pdfrwt>
<pdfrwt beam="2">  1       -1 0.97634350E-01 0.17939800E+04</pdfrwt>
<totfact> 0.90664948E+00</totfact>
</mgrwt>
</event>
<event>
 6    1  0.9906445E-006  0.3418113E+04  0.7818608E-02  0.8133475E-01
         -2   -1    0    0    0  501 -0.00000000000E+00  0.00000000000E+00  0.27222456858E+04  0.27222456858E+04  0.00000000000E+00 0.  1.
          2   -1    0    0  501    0  0.00000000000E+00 -0.00000000000E+00 -0.10729647110E+04  0.10729647110E+04  0.00000000000E+00 0. -1.
         23    2    1    2    0    0  0.87434826272E+03  0.14454631911E+04  0.54668039091E+03  0.17778911933E+04  0.90492674728E+02 0.  0.
         11    1    3    3    0    0  0.39730571210E+03  0.73613630495E+03  0.29037262903E+03  0.88547430907E+03  0.00000000000E+00 0.  1.
        -11    1    3    3    0    0  0.47704255062E+03  0.70932688612E+03  0.25630776188E+03  0.89241688424E+03  0.00000000000E+00 0. -1.
         22    1    1    2    0    0 -0.87434826272E+03 -0.14454631911E+04  0.11026005839E+04  0.20173192035E+04  0.00000000000E+00 0.  1.
<mgrwt>
<rscale>  0 0.34181127E+04</rscale>
<asrwt>0</asrwt>
<pdfrwt beam="1">  1        2 0.16507150E+00 0.34181127E+04</pdfrwt>
<pdfrwt beam="2">  1       -2 0.41880702E+00 0.34181127E+04</pdfrwt>
<totfact> 0.10448029E-01</totfact>
</mgrwt>
</event>
<event>
 6    1  0.9906445E-006  0.2251735E+04  0.7818608E-02  0.8497198E-01
          1   -1    0    0  501    0  0.00000000000E+00  0.00000000000E+00  0.49732534570E+03  0.49732534570E+03  0.00000000000E+00 0. -1.
         -1   -1    0    0    0  501 -0.00000000000E+00 -0.00000000000E+00 -0.25487894030E+04  0.25487894030E+04  0.00000000000E+00 0.  1.
         23    2    1    2    0    0 -0.11049820147E+04 -0.10658681092E+03 -0.12661337562E+04  0.16863023782E+04  0.90415823683E+02 0.  0.
         11    1    3    3    0    0 -0.68583292691E+03 -0.76840791554E+02 -0.85043381963E+03  0.10952209788E+04  0.00000000000E+00 0. -1.
        -11    1    3    3    0    0 -0.41914908780E+03 -0.29746019362E+02 -0.41569993654E+03  0.59108139939E+03  0.00000000000E+00 0.  1.
         22    1    1    2    0    0  0.11049820147E+04  0.10658681092E+03 -0.78533030117E+03  0.13598123705E+04  0.00000000000E+00 0. -1.
<mgrwt>
<rscale>  0 0.22517349E+04</rscale>
<asrwt>0</asrwt>
<pdfrwt beam="1">  1        1 0.76511591E-01 0.22517349E+04</pdfrwt>
<pdfrwt beam="2">  1       -1 0.39212145E+00 0.22517349E+04</pdfrwt>
<totfact> 0.32839652E-01</totfact>
</mgrwt>
</event>
<event>
 6    1  0.9906445E-006  0.2848154E+04  0.7818608E-02  0.8288473E-01
         -1   -1    0    0    0  501 -0.00000000000E+00  0.00000000000E+00  0.73166710850E+03  0.73166710850E+03  0.00000000000E+00 0.  1.
          1   -1    0    0  501    0  0.00000000000E+00 -0.00000000000E+00 -0.27717453242E+04  0.27717453242E+04  0.00000000000E+00 0. -1.
         23    2    1    2    0    0  0.94954247463E+03  0.43229518721E+03 -0.22105389857E+04  0.24462620583E+04  0.95944831300E+02 0.  0.
         11    1    3    3    0    0  0.62820233156E+03  0.26765517123E+03 -0.13442884403E+04  0.15077761342E+04  0.00000000000E+00 0. -1.
        -11    1    3    3    0    0  0.32134014307E+03  0.16464001598E+03 -0.86625054537E+03  0.93848592412E+03  0.00000000000E+00 0.  1.
         22    1    1    2    0    0 -0.94954247463E+03 -0.43229518721E+03  0.17046076997E+03  0.10571503744E+04  0.00000000000E+00 0.  1.
<mgrwt>
<rscale>  0 0.28481537E+04</rscale>
<asrwt>0</asrwt>
<pdfrwt beam="1">  1        1 0.42642236E+00 0.28481537E+04</pdfrwt>
<pdfrwt beam="2">  1       -1 0.11256417E+00 0.28481537E+04</pdfrwt>
<totfact> 0.54345203E-01</totfact>
</mgrwt>
</event>
<event>
 6    1  0.9906445E-006  0.7760795E+03  0.7818608E-02  0.9595301E-01
         -2   -1    0    0    0  501 -0.00000000000E+00  0.00000000000E+00  0.12706416181E+03  0.12706416181E+03  0.00000000000E+00 0.  1.
          2   -1    0    0  501    0  0.00000000000E+00 -0.00000000000E+00 -0.11850300572E+04  0.11850300572E+04  0.00000000000E+00 0. -1.
         23    2    1    2    0    0  0.48784654501E+02  0.29322881046E+03 -0.12155367929E+03  0.32963255754E+03  0.74291643157E+02 0.  0.
         11    1    3    3    0    0 -0.14653693689E+02  0.13551894546E+03 -0.58338547766E+02  0.14826834279E+03  0.00000000000E+00 0. -1.
        -11    1    3    3    0    0  0.63438348190E+02  0.15770986500E+03 -0.63215131522E+02  0.18136421475E+03  0.00000000000E+00 0.  1.
         22    1    1    2    0    0 -0.48784654501E+02 -0.29322881046E+03 -0.93641221606E+03  0.98246166143E+03  0.00000000000E+00 0. -1.
<mgrwt>
<rscale>  0 0.77607951E+03</rscale>
<asrwt>0</asrwt>
<pdfrwt beam="1">  1        2 0.18231231E+00 0.77607951E+03</pdfrwt>
<pdfrwt beam="2">  1       -2 0.19548333E-01 0.77607951E+03</pdfrwt>
<totfact> 0.43238885E+02</totfact>
</mgrwt>
</event>
<event>
 6    1  0.9906445E-006  0.3937016E+04  0.7818608E-02  0.8017374E-01
          1   -1    0    0  501    0  0.00000000000E+00  0.00000000000E+00  0.44490171179E+04  0.44490171179E+04  0.00000000000E+00 0. -1.
         -1   -1    0    0    0  501 -0.00000000000E+00 -0.00000000000E+00 -0.87098429533E+03  0.87098429533E+03  0.00000000000E+00 0.  1.
         23    2    1    2    0    0  0.83169642607E+03 -0.14986492411E+04  0.48457879666E+03  0.17834598394E+04  0.90795901334E+02 0.  0.
         13    1    3    3    0    0  0.13518420806E+03 -0.18627867059E+03  0.79115246336E+02  0.24337981722E+03  0.00000000000E+00 0. -1.
        -13    1    3    3    0    0  0.69651221801E+03 -0.13123705705E+04  0.40546355032E+03  0.15400800222E+04  0.00000000000E+00 0.  1.
         22    1    1    2    0    0 -0.83169642607E+03  0.14986492411E+04  0.30934540260E+04  0.35365415739E+04  0.00000000000E+00 0. -1.
<mgrwt>
<rscale>  0 0.39370161E+04</rscale>
<asrwt>0</asrwt>
<pdfrwt beam="1">  1        1 0.68446416E+00 0.39370161E+04</pdfrwt>
<pdfrwt beam="2">  1       -1 0.13399759E+00 0.39370161E+04</pdfrwt>
<totfact> 0.13336643E-02</totfact>
</mgrwt>
</event>
<event>
 6    1  0.9906445E-006  0.8861995E+03  0.7818608E-02  0.9442999E-01
          1   -1    0    0  501    0  0.00000000000E+00  0.00000000000E+00  0.90684688400E+03  0.90684688400E+03  0.00000000000E+00 0.  1.
         -1   -1    0    0    0  501 -0.00000000000E+00 -0.00000000000E+00 -0.21650555722E+03  0.21650555722E+03  0.00000000000E+00 0. -1.
         23    2    1    2    0    0  0.17670226360E+03  0.40091267026E+03  0.36736758414E+03  0.57904857611E+03  0.91562287438E+02 0.  0.
         13    1    3    3    0    0  0.13292687400E+03  0.28829790923E+03  0.31545178761E+03  0.44754337065E+03  0.00000000000E+00 0. -1.
        -13    1    3    3    0    0  0.43775389604E+02  0.11261476102E+03  0.51915796532E+02  0.13150520547E+03  0.00000000000E+00 0.  1.
         22    1    1    2    0    0 -0.17670226360E+03 -0.40091267026E+03  0.32297374264E+03  0.54430386511E+03  0.00000000000E+00 0. -1.
<mgrwt>
<rscale>  0 0.88619950E+03</rscale>
<asrwt>0</asrwt>
<pdfrwt beam="1">  1        1 0.13951490E+00 0.88619950E+03</pdfrwt>
<pdfrwt beam="2">  1       -1 0.33308548E-01 0.88619950E+03</pdfrwt>
<totfact> 0.15335036E+02</totfact>
</mgrwt>
</event>
<event>
 6    1  0.9906445E-006  0.2114156E+04  0.7818608E-02  0.8555033E-01
         -4   -1    0    0    0  501 -0.00000000000E+00  0.00000000000E+00  0.59814328313E+03  0.59814328313E+03  0.00000000000E+00 0.  1.
          4   -1    0    0  501    0  0.00000000000E+00 -0.00000000000E+00 -0.18681370424E+04  0.18681370424E+04  0.00000000000E+00 0. -1.
         23    2    1    2    0    0  0.22304578452E+03  0.10263909344E+04 -0.75381665361E+03  0.12959527745E+04  0.89589476878E+02 0.  0.
         11    1    3    3    0    0  0.13720417430E+02  0.23942229914E+03 -0.17421042375E+03  0.29641281841E+03  0.00000000000E+00 0. -1.
        -11    1    3    3    0    0  0.20932536709E+03  0.78696863527E+03 -0.57960622987E+03  0.99953995613E+03  0.00000000000E+00 0.  1.
         22    1    1    2    0    0 -0.22304578452E+03 -0.10263909344E+04 -0.51617710566E+03  0.11703275510E+04  0.00000000000E+00 0.  1.
<mgrwt>
<rscale>  0 0.21141557E+04</rscale>
<asrwt>0</asrwt>
<pdfrwt beam="1">  1        4 0.28740570E+00 0.21141557E+04</pdfrwt>
<pdfrwt beam="2">  1       -4 0.92022043E-01 0.21141557E+04</pdfrwt>
<totfact> 0.68498202E-02</totfact>
</mgrwt>
</event>
<event>
 6    1  0.9906445E-006  0.1124203E+04  0.7818608E-02  0.9181918E-01
         -1   -1    0    0    0  501 -0.00000000000E+00  0.00000000000E+00  0.44221489517E+03  0.44221489517E+03  0.00000000000E+00 0.  1.
          1   -1    0    0  501    0  0.00000000000E+00 -0.00000000000E+00 -0.71448989771E+03  0.71448989771E+03  0.00000000000E+00 0. -1.
         23    2    1    2    0    0  0.35595386740E+03 -0.42926353661E+03 -0.10195878078E+03  0.57362850715E+03  0.87656897322E+02 0.  0.
         11    1    3    3    0    0  0.94273242973E+02 -0.79302447404E+02 -0.52314158193E+02  0.13383980593E+03  0.00000000000E+00 0.  1.
        -11    1    3    3    0    0  0.26168062443E+03 -0.34996108921E+03 -0.49644622585E+02  0.43978870121E+03  0.00000000000E+00 0. -1.
         22    1    1    2    0    0 -0.35595386740E+03  0.42926353661E+03 -0.17031622176E+03  0.58307628573E+03  0.00000000000E+00 0. -1.
<mgrwt>
<rscale>  0 0.11242030E+04</rscale>
<asrwt>0</asrwt>
<pdfrwt beam="1">  1        1 0.10992152E+00 0.11242030E+04</pdfrwt>
<pdfrwt beam="2">  1       -1 0.68033061E-01 0.11242030E+04</pdfrwt>
<totfact> 0.57478956E+01</totfact>
</mgrwt>
</event>
<event>
 6    1  0.9906445E-006  0.1591280E+04  0.7818608E-02  0.8825923E-01
          1   -1    0    0  501    0  0.00000000000E+00  0.00000000000E+00  0.61339003575E+03  0.61339003575E+03  0.00000000000E+00 0.  1.
         -1   -1    0    0    0  501 -0.00000000000E+00 -0.00000000000E+00 -0.10320399915E+04  0.10320399915E+04  0.00000000000E+00 0. -1.
         23    2    1    2    0    0  0.63794350390E+03  0.39484049504E+03 -0.47669312615E+03  0.89294086433E+03  0.85065386475E+02 0.  0.
         11    1    3    3    0    0  0.48460929082E+03  0.31046004987E+03 -0.32271955641E+03  0.65983294811E+03  0.00000000000E+00 0. -1.
        -11    1    3    3    0    0  0.15333421308E+03  0.84380445173E+02 -0.15397356974E+03  0.23310791622E+03  0.00000000000E+00 0.  1.
         22    1    1    2    0    0 -0.63794350390E+03 -0.39484049504E+03  0.58043170383E+02  0.75248916293E+03  0.00000000000E+00 0. -1.
<mgrwt>
<rscale>  0 0.15912800E+04</rscale>
<asrwt>0</asrwt>
<pdfrwt beam="1">  1        1 0.94367699E-01 0.15912800E+04</pdfrwt>
<pdfrwt beam="2">  1       -1 0.15877538E+00 0.15912800E+04</pdfrwt>
<totfact> 0.95088395E+00</totfact>
</mgrwt>
</event>
<event>
 6    1  0.9906445E-006  0.1442006E+04  0.7818608E-02  0.8923962E-01
         -2   -1    0    0    0  501 -0.00000000000E+00  0.00000000000E+00  0.14375081222E+03  0.14375081222E+03  0.00000000000E+00 0.  1.
          2   -1    0    0  501    0  0.00000000000E+00 -0.00000000000E+00 -0.36162939483E+04  0.36162939483E+04  0.00000000000E+00 0. -1.
         23    2    1    2    0    0  0.49586039641E+02  0.56261360612E+03 -0.58676570979E+03  0.81951688288E+03  0.91219943076E+02 0.  0.
         11    1    3    3    0    0  0.36106810923E+02  0.50736984038E+03 -0.56045545423E+03  0.75686073547E+03  0.00000000000E+00 0. -1.
        -11    1    3    3    0    0  0.13479228717E+02  0.55243765745E+02 -0.26310255564E+02  0.62656147411E+02  0.00000000000E+00 0.  1.
         22    1    1    2    0    0 -0.49586039641E+02 -0.56261360612E+03 -0.28857774263E+04  0.29405278776E+04  0.00000000000E+00 0. -1.
<mgrwt>
<rscale>  0 0.14420058E+04</rscale>
<asrwt>0</asrwt>
<pdfrwt beam="1">  1        2 0.55635285E+00 0.14420058E+04</pdfrwt>
<pdfrwt beam="2">  1       -2 0.22115512E-01 0.14420058E+04</pdfrwt>
<totfact> 0.11875966E+01</totfact>
</mgrwt>
</event>
<event>
 6    1  0.9906445E-006  0.1638981E+04  0.7818608E-02  0.8796952E-01
          2   -1    0    0  501    0  0.00000000000E+00  0.00000000000E+00  0.95254400534E+03  0.95254400534E+03  0.00000000000E+00 0. -1.
         -2   -1    0    0    0  501 -0.00000000000E+00 -0.00000000000E+00 -0.70502258581E+03  0.70502258581E+03  0.00000000000E+00 0.  1.
         23    2    1    2    0    0  0.70951818672E+03  0.40199745471E+03  0.17443591563E+03  0.83881174277E+03  0.90328513047E+02 0.  0.
         11    1    3    3    0    0  0.24364104475E+03  0.15678628055E+03  0.21241745457E+02  0.29050664056E+03  0.00000000000E+00 0.  1.
        -11    1    3    3    0    0  0.46587714196E+03  0.24521117416E+03  0.15319417018E+03  0.54830510221E+03  0.00000000000E+00 0. -1.
         22    1    1    2    0    0 -0.70951818672E+03 -0.40199745471E+03  0.73085503899E+02  0.81875484838E+03  0.00000000000E+00 0. -1.
<mgrwt>
<rscale>  0 0.16389814E+04</rscale>
<asrwt>0</asrwt>
<pdfrwt beam="1">  1        2 0.14654523E+00 0.16389814E+04</pdfrwt>
<pdfrwt beam="2">  1       -2 0.10846501E+00 0.16389814E+04</pdfrwt>
<totfact> 0.17578892E+01</totfact>
</mgrwt>
</event>
<event>
 6    1  0.9906445E-006  0.2881103E+04  0.7818608E-02  0.8278522E-01
         -2   -1    0    0    0  501 -0.00000000000E+00  0.00000000000E+00  0.22122083751E+04  0.22122083751E+04  0.00000000000E+00 0.  1.
          2   -1    0    0  501    0  0.00000000000E+00 -0.00000000000E+00 -0.93806199366E+03  0.93806199366E+03  0.00000000000E+00 0. -1.
         23    2    1    2    0    0 -0.76145166591E+03  0.83956165255E+03  0.16074180681E+04  0.19688549359E+04  0.89019687674E+02 0.  0.
         11    1    3    3    0    0 -0.25829194017E+03  0.22991683445E+03  0.45868259540E+03  0.57442684516E+03  0.00000000000E+00 0. -1.
        -11    1    3    3    0    0 -0.50315972574E+03  0.60964481810E+03  0.11487354727E+04  0.13944280907E+04  0.00000000000E+00 0.  1.
         22    1    1    2    0    0  0.76145166591E+03 -0.83956165255E+03 -0.33327168669E+03  0.11814154329E+04  0.00000000000E+00 0. -1.
<mgrwt>
<rscale>  0 0.28811030E+04</rscale>
<asrwt>0</asrwt>
<pdfrwt beam="1">  1        2 0.14431723E+00 0.28811030E+04</pdfrwt>
<pdfrwt beam="2">  1       -2 0.34033975E+00 0.28811030E+04</pdfrwt>
<totfact> 0.42757982E-01</totfact>
</mgrwt>
</event>
<event>
 6    1  0.1217658E-005  0.4213319E+04  0.7818608E-02  0.7962844E-01
          2   -1    0    0  501    0  0.00000000000E+00  0.00000000000E+00  0.23256725299E+04  0.23256725299E+04  0.00000000000E+00 0. -1.
         -2   -1    0    0    0  501 -0.00000000000E+00 -0.00000000000E+00 -0.19082712626E+04  0.19082712626E+04  0.00000000000E+00 0.  1.
         23    2    1    2    0    0 -0.10296997577E+04 -0.11675539127E+04 -0.12160195064E+04  0.19775025338E+04  0.91373414938E+02 0.  0.
         11    1    3    3    0    0 -0.62485319604E+03 -0.65257706995E+03 -0.73753309667E+03  0.11662990258E+04  0.00000000000E+00 0. -1.
        -11    1    3    3    0    0 -0.40484656166E+03 -0.51497684277E+03 -0.47848640974E+03  0.81120350799E+03  0.00000000000E+00 0.  1.
         22    1    1    2    0    0  0.10296997577E+04  0.11675539127E+04  0.16334207738E+04  0.22564412588E+04  0.00000000000E+00 0. -1.
<mgrwt>
<rscale>  0 0.42133189E+04</rscale>
<asrwt>0</asrwt>
<pdfrwt beam="1">  1        2 0.35779578E+00 0.42133189E+04</pdfrwt>
<pdfrwt beam="2">  1       -2 0.29358019E+00 0.42133189E+04</pdfrwt>
<totfact> 0.11827458E-01</totfact>
</mgrwt>
</event>
<event>
 6    1  0.9906445E-006  0.9714387E+03  0.7818608E-02  0.9340437E-01
          2   -1    0    0  501    0  0.00000000000E+00  0.00000000000E+00  0.35709804464E+03  0.35709804464E+03  0.00000000000E+00 0. -1.
         -2   -1    0    0    0  501 -0.00000000000E+00 -0.00000000000E+00 -0.66066813750E+03  0.66066813750E+03  0.00000000000E+00 0.  1.
         23    2    1    2    0    0  0.43693504615E+03 -0.28706381670E+02  0.55146057723E+02  0.45171532966E+03  0.96277517998E+02 0.  0.
         13    1    3    3    0    0  0.13566864934E+03  0.93211784610E+00 -0.26371179234E+02  0.13821103556E+03  0.00000000000E+00 0. -1.
        -13    1    3    3    0    0  0.30126639681E+03 -0.29638499516E+02  0.81517236957E+02  0.31350429410E+03  0.00000000000E+00 0.  1.
         22    1    1    2    0    0 -0.43693504615E+03  0.28706381670E+02 -0.35871615058E+03  0.56605085248E+03  0.00000000000E+00 0.  1.
<mgrwt>
<rscale>  0 0.97143873E+03</rscale>
<asrwt>0</asrwt>
<pdfrwt beam="1">  1        2 0.54938161E-01 0.97143873E+03</pdfrwt>
<pdfrwt beam="2">  1       -2 0.10164125E+00 0.97143873E+03</pdfrwt>
<totfact> 0.71795901E+01</totfact>
</mgrwt>
</event>
<event>
 6    1  0.9906445E-006  0.2771979E+04  0.7818608E-02  0.8312021E-01
         -1   -1    0    0    0  501 -0.00000000000E+00  0.00000000000E+00  0.10613921967E+04  0.10613921967E+04  0.00000000000E+00 0.  1.
          1   -1    0    0  501    0  0.00000000000E+00 -0.00000000000E+00 -0.18098560520E+04  0.18098560520E+04  0.00000000000E+00 0. -1.
         23    2    1    2    0    0 -0.49164124566E+03 -0.52385951978E+03 -0.16005088242E+04  0.17567436324E+04  0.91541153286E+02 0.  0.
         11    1    3    3    0    0 -0.78635350939E+02 -0.12001999334E+03 -0.38776893095E+03  0.41346470349E+03  0.00000000000E+00 0. -1.
        -11    1    3    3    0    0 -0.41300589472E+03 -0.40383952645E+03 -0.12127398932E+04  0.13432789289E+04  0.00000000000E+00 0.  1.
         22    1    1    2    0    0  0.49164124566E+03  0.52385951978E+03  0.85204496882E+03  0.11145046163E+04  0.00000000000E+00 0.  1.
<mgrwt>
<rscale>  0 0.27719791E+04</rscale>
<asrwt>0</asrwt>
<pdfrwt beam="1">  1        1 0.27843939E+00 0.27719791E+04</pdfrwt>
<pdfrwt beam="2">  1       -1 0.16329111E+00 0.27719791E+04</pdfrwt>
<totfact> 0.96083040E-01</totfact>
</mgrwt>
</event>
<event>
 6    1  0.9906445E-006  0.2032205E+04  0.7818608E-02  0.8591710E-01
          2   -1    0    0  501    0  0.00000000000E+00  0.00000000000E+00  0.11887975506E+04  0.11887975506E+04  0.00000000000E+00 0.  1.
         -2   -1    0    0    0  501 -0.00000000000E+00 -0.00000000000E+00 -0.86849431673E+03  0.86849431673E+03  0.00000000000E+00 0. -1.
         23    2    1    2    0    0 -0.45199828893E+03  0.31724937860E+03 -0.70032368328E+03  0.89684844974E+03  0.94521209405E+02 0.  0.
         11    1    3    3    0    0 -0.10880918960E+03  0.97500873205E+02 -0.24957915252E+03  0.28919822508E+03  0.00000000000E+00 0. -1.
        -11    1    3    3    0    0 -0.34318909934E+03  0.21974850539E+03 -0.45074453076E+03  0.60765022467E+03  0.00000000000E+00 0.  1.
         22    1    1    2    0    0  0.45199828893E+03 -0.31724937860E+03  0.10206269172E+04  0.11604434176E+04  0.00000000000E+00 0.  1.
<mgrwt>
<rscale>  0 0.20322046E+04</rscale>
<asrwt>0</asrwt>
<pdfrwt beam="1">  1        2 0.18289193E+00 0.20322046E+04</pdfrwt>
<pdfrwt beam="2">  1       -2 0.13361451E+00 0.20322046E+04</pdfrwt>
<totfact> 0.72208270E+00</totfact>
</mgrwt>
</event>
<event>
 6    1  0.9906445E-006  0.2230498E+04  0.7818608E-02  0.8505840E-01
         -2   -1    0    0    0  501 -0.00000000000E+00  0.00000000000E+00  0.16417278762E+04  0.16417278762E+04  0.00000000000E+00 0.  1.
          2   -1    0    0  501    0  0.00000000000E+00 -0.00000000000E+00 -0.75760473473E+03  0.75760473473E+03  0.00000000000E+00 0. -1.
         23    2    1    2    0    0 -0.80122058444E+03  0.74568466373E+03  0.22338973740E+03  0.11208300986E+04  0.91417134983E+02 0.  0.
         13    1    3    3    0    0 -0.27115367388E+03  0.20369275608E+03  0.92281087332E+02  0.35146956172E+03  0.00000000000E+00 0. -1.
        -13    1    3    3    0    0 -0.53006691056E+03  0.54199190765E+03  0.13110865007E+03  0.76936053691E+03  0.00000000000E+00 0.  1.
         22    1    1    2    0    0  0.80122058444E+03 -0.74568466373E+03  0.66073340404E+03  0.12785025123E+04  0.00000000000E+00 0.  1.
<mgrwt>
<rscale>  0 0.22304984E+04</rscale>
<asrwt>0</asrwt>
<pdfrwt beam="1">  1        2 0.11655457E+00 0.22304984E+04</pdfrwt>
<pdfrwt beam="2">  1       -2 0.25257352E+00 0.22304984E+04</pdfrwt>
<totfact> 0.20905209E+00</totfact>
</mgrwt>
</event>
<event>
 6    1  0.9906445E-006  0.1818396E+04  0.7818608E-02  0.8696577E-01
         -1   -1    0    0    0  501 -0.00000000000E+00  0.00000000000E+00  0.44012583946E+03  0.44012583946E+03  0.00000000000E+00 0.  1.
          1   -1    0    0  501    0  0.00000000000E+00 -0.00000000000E+00 -0.18781921632E+04  0.18781921632E+04  0.00000000000E+00 0. -1.
         23    2    1    2    0    0 -0.46748651876E+03  0.51914837786E+03 -0.14581243979E+04  0.16194181459E+04  0.91267125062E+02 0.  0.
         11    1    3    3    0    0 -0.21362820170E+03  0.17474699587E+03 -0.53679297474E+03  0.60358944561E+03  0.00000000000E+00 0. -1.
        -11    1    3    3    0    0 -0.25385831707E+03  0.34440138199E+03 -0.92133142316E+03  0.10158287003E+04  0.00000000000E+00 0.  1.
         22    1    1    2    0    0  0.46748651876E+03 -0.51914837786E+03  0.20058074119E+02  0.69889985677E+03  0.00000000000E+00 0.  1.
<mgrwt>
<rscale>  0 0.18183959E+04</rscale>
<asrwt>0</asrwt>
<pdfrwt beam="1">  1        1 0.28895264E+00 0.18183959E+04</pdfrwt>
<pdfrwt beam="2">  1       -1 0.67711668E-01 0.18183959E+04</pdfrwt>
<totfact> 0.75010676E+00</totfact>
</mgrwt>
</event>
<event>
 6    1  0.9906445E-006  0.2650917E+04  0.7818608E-02  0.8351109E-01
          2   -1    0    0  501    0  0.00000000000E+00  0.00000000000E+00  0.23430763622E+04  0.23430763622E+04  0.00000000000E+00 0. -1.
         -2   -1    0    0    0  501 -0.00000000000E+00 -0.00000000000E+00 -0.74980078488E+03  0.74980078488E+03  0.00000000000E+00 0.  1.
         23    2    1    2    0    0  0.53245473779E+03 -0.11807274041E+04  0.47794334861E+03  0.13836108627E+04  0.91235541893E+02 0.  0.
         13    1    3    3    0    0  0.36860136749E+03 -0.71174014654E+03  0.28552723891E+03  0.85086239103E+03  0.00000000000E+00 0. -1.
        -13    1    3    3    0    0  0.16385337030E+03 -0.46898725759E+03  0.19241610970E+03  0.53274847162E+03  0.00000000000E+00 0.  1.
         22    1    1    2    0    0 -0.53245473779E+03  0.11807274041E+04  0.11153322287E+04  0.17092662844E+04  0.00000000000E+00 0.  1.
<mgrwt>
<rscale>  0 0.26509172E+04</rscale>
<asrwt>0</asrwt>
<pdfrwt beam="1">  1        2 0.36047328E+00 0.26509172E+04</pdfrwt>
<pdfrwt beam="2">  1       -2 0.11535397E+00 0.26509172E+04</pdfrwt>
<totfact> 0.22084993E+00</totfact>
</mgrwt>
</event>
<event>
 6    1  0.9906445E-006  0.1855956E+04  0.7818608E-02  0.8677096E-01
          2   -1    0    0  501    0  0.00000000000E+00  0.00000000000E+00  0.11173887161E+04  0.11173887161E+04  0.00000000000E+00 0. -1.
         -2   -1    0    0    0  501 -0.00000000000E+00 -0.00000000000E+00 -0.77067497184E+03  0.77067497184E+03  0.00000000000E+00 0.  1.
         23    2    1    2    0    0  0.17841850041E+03 -0.22717020429E+03  0.10686792222E+04  0.11104560655E+04  0.87166108544E+02 0.  0.
         13    1    3    3    0    0  0.93360099277E+02 -0.16628389569E+03  0.57437808614E+03  0.60520792125E+03  0.00000000000E+00 0. -1.
        -13    1    3    3    0    0  0.85058401129E+02 -0.60886308594E+02  0.49430113606E+03  0.50524814427E+03  0.00000000000E+00 0.  1.
         22    1    1    2    0    0 -0.17841850041E+03  0.22717020429E+03 -0.72196547798E+03  0.77760762239E+03  0.00000000000E+00 0.  1.
<mgrwt>
<rscale>  0 0.18559564E+04</rscale>
<asrwt>0</asrwt>
<pdfrwt beam="1">  1        2 0.17190596E+00 0.18559564E+04</pdfrwt>
<pdfrwt beam="2">  1       -2 0.11856538E+00 0.18559564E+04</pdfrwt>
<totfact> 0.10931055E+01</totfact>
</mgrwt>
</event>
<event>
 6    1  0.9906445E-006  0.1960521E+04  0.7818608E-02  0.8625304E-01
          2   -1    0    0  501    0  0.00000000000E+00  0.00000000000E+00  0.94856291849E+03  0.94856291849E+03  0.00000000000E+00 0. -1.
         -2   -1    0    0    0  501 -0.00000000000E+00 -0.00000000000E+00 -0.10130169003E+04  0.10130169003E+04  0.00000000000E+00 0.  1.
         23    2    1    2    0    0  0.21361981716E+03  0.37181829944E+03  0.84729835361E+03  0.95402108838E+03  0.91430098766E+02 0.  0.
         13    1    3    3    0    0  0.15763267432E+03  0.18320259701E+03  0.46254288645E+03  0.52187850442E+03  0.00000000000E+00 0.  1.
        -13    1    3    3    0    0  0.55987142844E+02  0.18861570243E+03  0.38475546716E+03  0.43214258396E+03  0.00000000000E+00 0. -1.
         22    1    1    2    0    0 -0.21361981716E+03 -0.37181829944E+03 -0.91175233546E+03  0.10075587305E+04  0.00000000000E+00 0.  1.
<mgrwt>
<rscale>  0 0.19605206E+04</rscale>
<asrwt>0</asrwt>
<pdfrwt beam="1">  1        2 0.14593276E+00 0.19605206E+04</pdfrwt>
<pdfrwt beam="2">  1       -2 0.15584875E+00 0.19605206E+04</pdfrwt>
<totfact> 0.68587233E+00</totfact>
</mgrwt>
</event>
<event>
 6    1  0.9906445E-006  0.2794552E+04  0.7818608E-02  0.8304962E-01
          1   -1    0    0  501    0  0.00000000000E+00  0.00000000000E+00  0.22578366019E+04  0.22578366019E+04  0.00000000000E+00 0. -1.
         -1   -1    0    0    0  501 -0.00000000000E+00 -0.00000000000E+00 -0.86471298547E+03  0.86471298547E+03  0.00000000000E+00 0.  1.
         23    2    1    2    0    0  0.78134992832E+03  0.96907771819E+03  0.14027524689E+04  0.18776752768E+04  0.91272240277E+02 0.  0.
         13    1    3    3    0    0  0.38623064639E+03  0.49135857092E+03  0.77185670898E+03  0.99316168705E+03  0.00000000000E+00 0. -1.
        -13    1    3    3    0    0  0.39511928193E+03  0.47771914727E+03  0.63089575987E+03  0.88451358975E+03  0.00000000000E+00 0.  1.
         22    1    1    2    0    0 -0.78134992832E+03 -0.96907771819E+03 -0.96288524005E+01  0.12448743106E+04  0.00000000000E+00 0.  1.
<mgrwt>
<rscale>  0 0.27945523E+04</rscale>
<asrwt>0</asrwt>
<pdfrwt beam="1">  1        1 0.34735947E+00 0.27945523E+04</pdfrwt>
<pdfrwt beam="2">  1       -1 0.13303277E+00 0.27945523E+04</pdfrwt>
<totfact> 0.82376026E-01</totfact>
</mgrwt>
</event>
<event>
 6    1  0.9906445E-006  0.7492068E+03  0.7818608E-02  0.9636596E-01
         -1   -1    0    0    0  501 -0.00000000000E+00  0.00000000000E+00  0.20775422898E+04  0.20775422898E+04  0.00000000000E+00 0.  1.
          1   -1    0    0  501    0  0.00000000000E+00 -0.00000000000E+00 -0.67545046878E+02  0.67545046878E+02  0.00000000000E+00 0. -1.
         23    2    1    2    0    0 -0.26390606634E+03 -0.10032884277E+03  0.34029653069E+03  0.45168462115E+03  0.92222446502E+02 0.  0.
         13    1    3    3    0    0 -0.35162347606E+02 -0.44830775573E+02  0.37695321665E+02  0.68316369949E+02  0.00000000000E+00 0.  1.
        -13    1    3    3    0    0 -0.22874371873E+03 -0.55498067196E+02  0.30260120903E+03  0.38336825120E+03  0.00000000000E+00 0. -1.
         22    1    1    2    0    0  0.26390606634E+03  0.10032884277E+03  0.16697007122E+04  0.16934027155E+04  0.00000000000E+00 0.  1.
<mgrwt>
<rscale>  0 0.74920676E+03</rscale>
<asrwt>0</asrwt>
<pdfrwt beam="1">  1        1 0.10391547E-01 0.74920676E+03</pdfrwt>
<pdfrwt beam="2">  1       -1 0.31962184E+00 0.74920676E+03</pdfrwt>
<totfact> 0.16392123E+01</totfact>
</mgrwt>
</event>
<event>
 6    1  0.1136214E-005  0.4150377E+04  0.7818608E-02  0.7974879E-01
          3   -1    0    0  501    0  0.00000000000E+00  0.00000000000E+00  0.24269601766E+04  0.24269601766E+04  0.00000000000E+00 0. -1.
         -3   -1    0    0    0  501 -0.00000000000E+00 -0.00000000000E+00 -0.17744034511E+04  0.17744034511E+04  0.00000000000E+00 0.  1.
         23    2    1    2    0    0 -0.16634916794E+04  0.12291799199E+04  0.48460839820E+03  0.21262023126E+04  0.88335335917E+02 0.  0.
         13    1    3    3    0    0 -0.76709783856E+03  0.61493792647E+03  0.25193826184E+03  0.10149190288E+04  0.00000000000E+00 0.  1.
        -13    1    3    3    0    0 -0.89639384086E+03  0.61424199338E+03  0.23267013636E+03  0.11112832837E+04  0.00000000000E+00 0. -1.
         22    1    1    2    0    0  0.16634916794E+04 -0.12291799199E+04  0.16794832736E+03  0.20751613151E+04  0.00000000000E+00 0.  1.
<mgrwt>
<rscale>  0 0.41503766E+04</rscale>
<asrwt>0</asrwt>
<pdfrwt beam="1">  1        3 0.37337849E+00 0.41503766E+04</pdfrwt>
<pdfrwt beam="2">  1       -3 0.27298514E+00 0.41503766E+04</pdfrwt>
<totfact> 0.16692982E-03</totfact>
</mgrwt>
</event>
<event>
 6    1  0.9906445E-006  0.4998963E+04  0.7818608E-02  0.7828667E-01
         -1   -1    0    0    0  501 -0.00000000000E+00  0.00000000000E+00  0.38079514408E+04  0.38079514408E+04  0.00000000000E+00 0.  1.
          1   -1    0    0  501    0  0.00000000000E+00 -0.00000000000E+00 -0.16406214925E+04  0.16406214925E+04  0.00000000000E+00 0. -1.
         23    2    1    2    0    0  0.12864416779E+04  0.48299745133E+03  0.33585968508E+04  0.36299647947E+04  0.90845342685E+02 0.  0.
         13    1    3    3    0    0  0.80660064198E+03  0.27946135251E+03  0.19831410439E+04  0.21590626770E+04  0.00000000000E+00 0. -1.
        -13    1    3    3    0    0  0.47984103587E+03  0.20353609882E+03  0.13754558069E+04  0.14709021178E+04  0.00000000000E+00 0.  1.
         22    1    1    2    0    0 -0.12864416779E+04 -0.48299745133E+03 -0.11912669026E+04  0.18186081386E+04  0.00000000000E+00 0. -1.
<mgrwt>
<rscale>  0 0.49989627E+04</rscale>
<asrwt>0</asrwt>
<pdfrwt beam="1">  1        1 0.25240331E+00 0.49989627E+04</pdfrwt>
<pdfrwt beam="2">  1       -1 0.58583868E+00 0.49989627E+04</pdfrwt>
<totfact> 0.19273212E-03</totfact>
</mgrwt>
</event>
<event>
 6    1  0.9906445E-006  0.1449809E+04  0.7818608E-02  0.8918533E-01
          2   -1    0    0  501    0  0.00000000000E+00  0.00000000000E+00  0.83046679089E+03  0.83046679089E+03  0.00000000000E+00 0. -1.
         -2   -1    0    0    0  501 -0.00000000000E+00 -0.00000000000E+00 -0.63276030788E+03  0.63276030788E+03  0.00000000000E+00 0.  1.
         23    2    1    2    0    0  0.62040760275E+03 -0.50736038376E+02  0.46859435735E+03  0.78436041112E+03  0.90337387957E+02 0.  0.
         11    1    3    3    0    0  0.22392556937E+03  0.21726530846E+02  0.18898418742E+03  0.29381920607E+03  0.00000000000E+00 0.  1.
        -11    1    3    3    0    0  0.39648203337E+03 -0.72462569222E+02  0.27961016993E+03  0.49054120505E+03  0.00000000000E+00 0. -1.
         22    1    1    2    0    0 -0.62040760275E+03  0.50736038376E+02 -0.27088787433E+03  0.67886668765E+03  0.00000000000E+00 0.  1.
<mgrwt>
<rscale>  0 0.14498088E+04</rscale>
<asrwt>0</asrwt>
<pdfrwt beam="1">  1        2 0.12776412E+00 0.14498088E+04</pdfrwt>
<pdfrwt beam="2">  1       -2 0.97347740E-01 0.14498088E+04</pdfrwt>
<totfact> 0.27968127E+01</totfact>
</mgrwt>
</event>
<event>
 6    1  0.9906445E-006  0.3903546E+04  0.7818608E-02  0.8024292E-01
          1   -1    0    0  501    0  0.00000000000E+00  0.00000000000E+00  0.17588064057E+04  0.17588064057E+04  0.00000000000E+00 0. -1.
         -1   -1    0    0    0  501 -0.00000000000E+00 -0.00000000000E+00 -0.21659111407E+04  0.21659111407E+04  0.00000000000E+00 0.  1.
         23    2    1    2    0    0  0.33483092901E+03  0.47311096710E+03  0.16690021060E+04  0.17692210019E+04  0.92893408874E+02 0.  0.
         11    1    3    3    0    0  0.11954294874E+03  0.10131299347E+03  0.48447151778E+03  0.50918316035E+03  0.00000000000E+00 0. -1.
        -11    1    3    3    0    0  0.21528798027E+03  0.37179797363E+03  0.11845305882E+04  0.12600378415E+04  0.00000000000E+00 0.  1.
         22    1    1    2    0    0 -0.33483092901E+03 -0.47311096710E+03 -0.20761068410E+04  0.21554965446E+04  0.00000000000E+00 0.  1.
<mgrwt>
<rscale>  0 0.39035463E+04</rscale>
<asrwt>0</asrwt>
<pdfrwt beam="1">  1        1 0.27058560E+00 0.39035463E+04</pdfrwt>
<pdfrwt beam="2">  1       -1 0.33321710E+00 0.39035463E+04</pdfrwt>
<totfact> 0.68722185E-02</totfact>
</mgrwt>
</event>
<event>
 6    1  0.9906445E-006  0.4536070E+04  0.7818608E-02  0.7904352E-01
         -1   -1    0    0    0  501 -0.00000000000E+00  0.00000000000E+00  0.14999665698E+04  0.14999665698E+04  0.00000000000E+00 0.  1.
          1   -1    0    0  501    0  0.00000000000E+00 -0.00000000000E+00 -0.34293975420E+04  0.34293975420E+04  0.00000000000E+00 0. -1.
         23    2    1    2    0    0 -0.82965574546E+03 -0.68351493606E+02 -0.32567006859E+04  0.33626332876E+04  0.90568684386E+02 0.  0.
         13    1    3    3    0    0 -0.56880712030E+03 -0.66192485496E+02 -0.20818843643E+04  0.21592048285E+04  0.00000000000E+00 0. -1.
        -13    1    3    3    0    0 -0.26084862516E+03 -0.21590081102E+01 -0.11748163216E+04  0.12034284591E+04  0.00000000000E+00 0.  1.
         22    1    1    2    0    0  0.82965574546E+03  0.68351493606E+02  0.13272697137E+04  0.15667308242E+04  0.00000000000E+00 0.  1.
<mgrwt>
<rscale>  0 0.45360695E+04</rscale>
<asrwt>0</asrwt>
<pdfrwt beam="1">  1        1 0.52759962E+00 0.45360695E+04</pdfrwt>
<pdfrwt beam="2">  1       -1 0.23076409E+00 0.45360695E+04</pdfrwt>
<totfact> 0.19820026E-02</totfact>
</mgrwt>
</event>
<event>
 6    1  0.9906445E-006  0.1002083E+04  0.7818608E-02  0.9306263E-01
          2   -1    0    0  501    0  0.00000000000E+00  0.00000000000E+00  0.19805925641E+04  0.19805925641E+04  0.00000000000E+00 0. -1.
         -2   -1    0    0    0  501 -0.00000000000E+00 -0.00000000000E+00 -0.12675124481E+03  0.12675124481E+03  0.00000000000E+00 0.  1.
         23    2    1    2    0    0 -0.12487566164E+03 -0.45375326281E+03  0.59836370594E+03  0.76655672961E+03  0.89911849778E+02 0.  0.
         13    1    3    3    0    0 -0.51911361236E+01 -0.81342216785E+02  0.15628008269E+03  0.17625824341E+03  0.00000000000E+00 0.  1.
        -13    1    3    3    0    0 -0.11968452552E+03 -0.37241104603E+03  0.44208362325E+03  0.59029848619E+03  0.00000000000E+00 0. -1.
         22    1    1    2    0    0  0.12487566164E+03  0.45375326281E+03  0.12554776133E+04  0.13407870793E+04  0.00000000000E+00 0. -1.
<mgrwt>
<rscale>  0 0.10020830E+04</rscale>
<asrwt>0</asrwt>
<pdfrwt beam="1">  1        2 0.30470653E+00 0.10020830E+04</pdfrwt>
<pdfrwt beam="2">  1       -2 0.19500193E-01 0.10020830E+04</pdfrwt>
<totfact> 0.15331705E+02</totfact>
</mgrwt>
</event>
<event>
 6    1  0.9906445E-006  0.2556310E+04  0.7818608E-02  0.8383195E-01
          1   -1    0    0  501    0  0.00000000000E+00  0.00000000000E+00  0.18629267741E+04  0.18629267741E+04  0.00000000000E+00 0. -1.
         -1   -1    0    0    0  501 -0.00000000000E+00 -0.00000000000E+00 -0.87694245895E+03  0.87694245895E+03  0.00000000000E+00 0.  1.
         23    2    1    2    0    0 -0.99684236418E+03  0.43704361637E+03  0.12084295352E+04  0.16289310271E+04  0.91719834471E+02 0.  0.
         11    1    3    3    0    0 -0.68605145488E+03  0.30356809665E+03  0.89452469788E+03  0.11674736071E+04  0.00000000000E+00 0. -1.
        -11    1    3    3    0    0 -0.31079090929E+03  0.13347551972E+03  0.31390483727E+03  0.46145742006E+03  0.00000000000E+00 0.  1.
         22    1    1    2    0    0  0.99684236418E+03 -0.43704361637E+03 -0.22244521996E+03  0.11109382060E+04  0.00000000000E+00 0.  1.
<mgrwt>
<rscale>  0 0.25563095E+04</rscale>
<asrwt>0</asrwt>
<pdfrwt beam="1">  1        1 0.28660412E+00 0.25563095E+04</pdfrwt>
<pdfrwt beam="2">  1       -1 0.13491423E+00 0.25563095E+04</pdfrwt>
<totfact> 0.15058697E+00</totfact>
</mgrwt>
</event>
<event>
 6    1  0.9906445E-006  0.1521367E+04  0.7818608E-02  0.8870367E-01
          1   -1    0    0  501    0  0.00000000000E+00  0.00000000000E+00  0.16640084107E+04  0.16640084107E+04  0.00000000000E+00 0. -1.
         -1   -1    0    0    0  501 -0.00000000000E+00 -0.00000000000E+00 -0.34773821203E+03  0.34773821203E+03  0.00000000000E+00 0.  1.
         23    2    1    2    0    0 -0.64292778830E+03  0.25583464700E+03  0.25152321877E+03  0.74190661755E+03  0.91400175148E+02 0.  0.
         13    1    3    3    0    0 -0.23583291304E+03  0.14161683514E+03  0.94052065306E+02  0.29072028112E+03  0.00000000000E+00 0. -1.
        -13    1    3    3    0    0 -0.40709487526E+03  0.11421781186E+03  0.15747115347E+03  0.45118633643E+03  0.00000000000E+00 0.  1.
         22    1    1    2    0    0  0.64292778830E+03 -0.25583464700E+03  0.10647469799E+04  0.12698400052E+04  0.00000000000E+00 0. -1.
<mgrwt>
<rscale>  0 0.15213669E+04</rscale>
<asrwt>0</asrwt>
<pdfrwt beam="1">  1        1 0.25600129E+00 0.15213669E+04</pdfrwt>
<pdfrwt beam="2">  1       -1 0.53498187E-01 0.15213669E+04</pdfrwt>
<totfact> 0.17170461E+01</totfact>
</mgrwt>
</event>
<event>
 6    1  0.9906445E-006  0.2141978E+04  0.7818608E-02  0.8542974E-01
          1   -1    0    0  501    0  0.00000000000E+00  0.00000000000E+00  0.10115218791E+04  0.10115218791E+04  0.00000000000E+00 0. -1.
         -1   -1    0    0    0  501 -0.00000000000E+00 -0.00000000000E+00 -0.11339519354E+04  0.11339519354E+04  0.00000000000E+00 0.  1.
         23    2    1    2    0    0  0.15118855344E+03 -0.19333946071E+03 -0.11035220315E+04  0.11341481551E+04  0.91066118881E+02 0.  0.
         11    1    3    3    0    0  0.83203685523E+02 -0.12544516095E+03 -0.47377685220E+03  0.49711552719E+03  0.00000000000E+00 0.  1.
        -11    1    3    3    0    0  0.67984867915E+02 -0.67894299757E+02 -0.62974517925E+03  0.63703262789E+03  0.00000000000E+00 0. -1.
         22    1    1    2    0    0 -0.15118855344E+03  0.19333946071E+03  0.98109197511E+03  0.10113256594E+04  0.00000000000E+00 0. -1.
<mgrwt>
<rscale>  0 0.21419778E+04</rscale>
<asrwt>0</asrwt>
<pdfrwt beam="1">  1        1 0.15561875E+00 0.21419778E+04</pdfrwt>
<pdfrwt beam="2">  1       -1 0.17445414E+00 0.21419778E+04</pdfrwt>
<totfact> 0.31001379E+00</totfact>
</mgrwt>
</event>
<event>
 6    1  0.9906445E-006  0.4763016E+03  0.7818608E-02  0.1020157E+00
         -2   -1    0    0    0  501 -0.00000000000E+00  0.00000000000E+00  0.41873415268E+02  0.41873415268E+02  0.00000000000E+00 0.  1.
          2   -1    0    0  501    0  0.00000000000E+00 -0.00000000000E+00 -0.13544585501E+04  0.13544585501E+04  0.00000000000E+00 0. -1.
         23    2    1    2    0    0  0.12928452114E+03  0.15943907758E+03 -0.38022053330E+03  0.44163879107E+03  0.91333788745E+02 0.  0.
         11    1    3    3    0    0  0.43219435928E+02  0.95744155079E+02 -0.26126831443E+03  0.28159544563E+03  0.00000000000E+00 0. -1.
        -11    1    3    3    0    0  0.86065085214E+02  0.63694922502E+02 -0.11895221887E+03  0.16004334544E+03  0.00000000000E+00 0.  1.
         22    1    1    2    0    0 -0.12928452114E+03 -0.15943907758E+03 -0.93236460156E+03  0.95469317433E+03  0.00000000000E+00 0.  1.
<mgrwt>
<rscale>  0 0.47630161E+03</rscale>
<asrwt>0</asrwt>
<pdfrwt beam="1">  1        2 0.20837824E+00 0.47630161E+03</pdfrwt>
<pdfrwt beam="2">  1       -2 0.64420638E-02 0.47630161E+03</pdfrwt>
<totfact> 0.21645508E+03</totfact>
</mgrwt>
</event>
<event>
 6    1  0.9906445E-006  0.1624811E+04  0.7818608E-02  0.8805449E-01
         -2   -1    0    0    0  501 -0.00000000000E+00  0.00000000000E+00  0.31638355677E+03  0.31638355677E+03  0.00000000000E+00 0.  1.
          2   -1    0    0  501    0  0.00000000000E+00 -0.00000000000E+00 -0.20860848485E+04  0.20860848485E+04  0.00000000000E+00 0. -1.
         23    2    1    2    0    0  0.42814175129E+03 -0.39947347720E+03 -0.17148761143E+04  0.18143440832E+04  0.90332422689E+02 0.  0.
         13    1    3    3    0    0  0.33858150580E+03 -0.28113886087E+03 -0.11851307690E+04  0.12642038739E+04  0.00000000000E+00 0. -1.
        -13    1    3    3    0    0  0.89560245484E+02 -0.11833461633E+03 -0.52974534534E+03  0.55014020931E+03  0.00000000000E+00 0.  1.
         22    1    1    2    0    0 -0.42814175129E+03  0.39947347720E+03 -0.54825177457E+02  0.58812432211E+03  0.00000000000E+00 0.  1.
<mgrwt>
<rscale>  0 0.16248113E+04</rscale>
<asrwt>0</asrwt>
<pdfrwt beam="1">  1        2 0.32093612E+00 0.16248113E+04</pdfrwt>
<pdfrwt beam="2">  1       -2 0.48674395E-01 0.16248113E+04</pdfrwt>
<totfact> 0.22894961E+01</totfact>
</mgrwt>
</event>
<event>
 6    1  0.1196095E-005  0.4346039E+04  0.7818608E-02  0.7938160E-01
         -1   -1    0    0    0  501 -0.00000000000E+00  0.00000000000E+00  0.20738383262E+04  0.20738383262E+04  0.00000000000E+00 0.  1.
          1   -1    0    0  501    0  0.00000000000E+00 -0.00000000000E+00 -0.22769435522E+04  0.22769435522E+04  0.00000000000E+00 0. -1.
         23    2    1    2    0    0  0.10293152855E+04  0.84746399690E+02  0.18112922217E+04  0.20870528781E+04  0.91314260746E+02 0.  0.
         13    1    3    3    0    0  0.53144687626E+03  0.42225041550E+02  0.84293738674E+03  0.99737764883E+03  0.00000000000E+00 0.  1.
        -13    1    3    3    0    0  0.49786840929E+03  0.42521358141E+02  0.96835483499E+03  0.10896752293E+04  0.00000000000E+00 0. -1.
         22    1    1    2    0    0 -0.10293152855E+04 -0.84746399690E+02 -0.20143974477E+04  0.22637290003E+04  0.00000000000E+00 0. -1.
<mgrwt>
<rscale>  0 0.43460386E+04</rscale>
<asrwt>0</asrwt>
<pdfrwt beam="1">  1        1 0.35029901E+00 0.43460386E+04</pdfrwt>
<pdfrwt beam="2">  1       -1 0.31905205E+00 0.43460386E+04</pdfrwt>
<totfact> 0.36459970E-02</totfact>
</mgrwt>
</event>
<event>
 6    1  0.9906445E-006  0.1588029E+04  0.7818608E-02  0.8827936E-01
          1   -1    0    0  501    0  0.00000000000E+00  0.00000000000E+00  0.12120597674E+04  0.12120597674E+04  0.00000000000E+00 0. -1.
         -1   -1    0    0    0  501 -0.00000000000E+00 -0.00000000000E+00 -0.52015514589E+03  0.52015514589E+03  0.00000000000E+00 0.  1.
         23    2    1    2    0    0 -0.52935843508E+03 -0.30365682406E+03  0.89673917714E+03  0.10884874751E+04  0.90752476632E+02 0.  0.
         13    1    3    3    0    0 -0.30868449916E+03 -0.20055956571E+03  0.60777625772E+03  0.71056473236E+03  0.00000000000E+00 0.  1.
        -13    1    3    3    0    0 -0.22067393592E+03 -0.10309725835E+03  0.28896291941E+03  0.37792274273E+03  0.00000000000E+00 0. -1.
         22    1    1    2    0    0  0.52935843508E+03  0.30365682406E+03 -0.20483455558E+03  0.64372743824E+03  0.00000000000E+00 0.  1.
<mgrwt>
<rscale>  0 0.15880291E+04</rscale>
<asrwt>0</asrwt>
<pdfrwt beam="1">  1        1 0.18647073E+00 0.15880291E+04</pdfrwt>
<pdfrwt beam="2">  1       -1 0.80023869E-01 0.15880291E+04</pdfrwt>
<totfact> 0.15679234E+01</totfact>
</mgrwt>
</event>
<event>
 6    1  0.9906445E-006  0.1369041E+04  0.7818608E-02  0.8976538E-01
         -1   -1    0    0    0  501 -0.00000000000E+00  0.00000000000E+00  0.61014539801E+03  0.61014539801E+03  0.00000000000E+00 0.  1.
          1   -1    0    0  501    0  0.00000000000E+00 -0.00000000000E+00 -0.76796203465E+03  0.76796203465E+03  0.00000000000E+00 0. -1.
         23    2    1    2    0    0 -0.17305140845E+03  0.58679714818E+03 -0.38121584933E+03  0.72681265201E+03  0.93023783364E+02 0.  0.
         11    1    3    3    0    0 -0.59510709404E+02  0.29109323746E+03 -0.13876888005E+03  0.32792316097E+03  0.00000000000E+00 0. -1.
        -11    1    3    3    0    0 -0.11354069904E+03  0.29570391071E+03 -0.24244696928E+03  0.39888949104E+03  0.00000000000E+00 0.  1.
         22    1    1    2    0    0  0.17305140845E+03 -0.58679714818E+03  0.22339921269E+03  0.65129478065E+03  0.00000000000E+00 0.  1.
<mgrwt>
<rscale>  0 0.13690413E+04</rscale>
<asrwt>0</asrwt>
<pdfrwt beam="1">  1        1 0.11814801E+00 0.13690413E+04</pdfrwt>
<pdfrwt beam="2">  1       -1 0.93868523E-01 0.13690413E+04</pdfrwt>
<totfact> 0.25381718E+01</totfact>
</mgrwt>
</event>
<event>
 6    1  0.9906445E-006  0.3873164E+04  0.7818608E-02  0.8030634E-01
          2   -1    0    0  501    0  0.00000000000E+00  0.00000000000E+00  0.28488904985E+04  0.28488904985E+04  0.00000000000E+00 0. -1.
         -2   -1    0    0    0  501 -0.00000000000E+00 -0.00000000000E+00 -0.13164250078E+04  0.13164250078E+04  0.00000000000E+00 0.  1.
         23    2    1    2    0    0  0.51076840622E+03 -0.16077539419E+04  0.17871237461E+04  0.24592651173E+04  0.91741651438E+02 0.  0.
         13    1    3    3    0    0  0.32924709814E+03 -0.10479112284E+04  0.12263060878E+04  0.16463135227E+04  0.00000000000E+00 0. -1.
        -13    1    3    3    0    0  0.18152130808E+03 -0.55984271352E+03  0.56081765836E+03  0.81295159456E+03  0.00000000000E+00 0.  1.
         22    1    1    2    0    0 -0.51076840622E+03  0.16077539419E+04 -0.25465825546E+03  0.17060503890E+04  0.00000000000E+00 0.  1.
<mgrwt>
<rscale>  0 0.38731644E+04</rscale>
<asrwt>0</asrwt>
<pdfrwt beam="1">  1        2 0.43829084E+00 0.38731644E+04</pdfrwt>
<pdfrwt beam="2">  1       -2 0.20252693E+00 0.38731644E+04</pdfrwt>
<totfact> 0.22025926E-01</totfact>
</mgrwt>
</event>
<event>
 6    1  0.9906445E-006  0.2515708E+04  0.7818608E-02  0.8397411E-01
         -2   -1    0    0    0  501 -0.00000000000E+00  0.00000000000E+00  0.33688256696E+03  0.33688256696E+03  0.00000000000E+00 0.  1.
          2   -1    0    0  501    0  0.00000000000E+00 -0.00000000000E+00 -0.46965839724E+04  0.46965839724E+04  0.00000000000E+00 0. -1.
         23    2    1    2    0    0  0.57306873312E+03  0.11110003584E+04 -0.19360895140E+04  0.23064490899E+04  0.92386302223E+02 0.  0.
         13    1    3    3    0    0  0.34584060600E+03  0.65999604741E+03 -0.10700209715E+04  0.13038962332E+04  0.00000000000E+00 0. -1.
        -13    1    3    3    0    0  0.22722812713E+03  0.45100431101E+03 -0.86606854252E+03  0.10025528568E+04  0.00000000000E+00 0.  1.
         22    1    1    2    0    0 -0.57306873312E+03 -0.11110003584E+04 -0.24236118914E+04  0.27270174494E+04  0.00000000000E+00 0.  1.
<mgrwt>
<rscale>  0 0.25157085E+04</rscale>
<asrwt>0</asrwt>
<pdfrwt beam="1">  1        2 0.72255134E+00 0.25157085E+04</pdfrwt>
<pdfrwt beam="2">  1       -2 0.51828090E-01 0.25157085E+04</pdfrwt>
<totfact> 0.24402847E-01</totfact>
</mgrwt>
</event>
<event>
 6    1  0.9906445E-006  0.2563168E+04  0.7818608E-02  0.8380821E-01
          2   -1    0    0  501    0  0.00000000000E+00  0.00000000000E+00  0.40642500361E+04  0.40642500361E+04  0.00000000000E+00 0. -1.
         -2   -1    0    0    0  501 -0.00000000000E+00 -0.00000000000E+00 -0.40412326358E+03  0.40412326358E+03  0.00000000000E+00 0.  1.
         23    2    1    2    0    0 -0.10287290254E+04  0.57467778859E+03  0.96134474860E+03  0.15235537159E+04  0.92164153641E+02 0.  0.
         11    1    3    3    0    0 -0.28329642164E+03  0.11363160683E+03  0.23507987078E+03  0.38526815367E+03  0.00000000000E+00 0. -1.
        -11    1    3    3    0    0 -0.74543260374E+03  0.46104618175E+03  0.72626487782E+03  0.11382855622E+04  0.00000000000E+00 0.  1.
         22    1    1    2    0    0  0.10287290254E+04 -0.57467778859E+03  0.26987820239E+04  0.29448195838E+04  0.00000000000E+00 0. -1.
<mgrwt>
<rscale>  0 0.25631683E+04</rscale>
<asrwt>0</asrwt>
<pdfrwt beam="1">  1        2 0.62526921E+00 0.25631683E+04</pdfrwt>
<pdfrwt beam="2">  1       -2 0.62172812E-01 0.25631683E+04</pdfrwt>
<totfact> 0.64772953E-01</totfact>
</mgrwt>
</event>
<event>
 6    1  0.9906445E-006  0.2591483E+04  0.7818608E-02  0.8371100E-01
          2   -1    0    0  501    0  0.00000000000E+00  0.00000000000E+00  0.11436555845E+04  0.11436555845E+04  0.00000000000E+00 0. -1.
         -2   -1    0    0    0  501 -0.00000000000E+00 -0.00000000000E+00 -0.14680516395E+04  0.14680516395E+04  0.00000000000E+00 0.  1.
         23    2    1    2    0    0  0.11072648803E+04  0.57555886439E+03 -0.50797314731E+03  0.13503571258E+04  0.90133940869E+02 0.  0.
         11    1    3    3    0    0  0.52744114672E+03  0.28474958969E+03 -0.19647688404E+03  0.63077702720E+03  0.00000000000E+00 0. -1.
        -11    1    3    3    0    0  0.57982373356E+03  0.29080927470E+03 -0.31149626327E+03  0.71958009859E+03  0.00000000000E+00 0.  1.
         22    1    1    2    0    0 -0.11072648803E+04 -0.57555886439E+03  0.18357709236E+03  0.12613500982E+04  0.00000000000E+00 0.  1.
<mgrwt>
<rscale>  0 0.25914826E+04</rscale>
<asrwt>0</asrwt>
<pdfrwt beam="1">  1        2 0.17594701E+00 0.25914826E+04</pdfrwt>
<pdfrwt beam="2">  1       -2 0.22585410E+00 0.25914826E+04</pdfrwt>
<totfact> 0.16457843E+00</totfact>
</mgrwt>
</event>
<event>
 6    1  0.9906445E-006  0.5513257E+04  0.7818608E-02  0.7753868E-01
          2   -1    0    0  501    0  0.00000000000E+00  0.00000000000E+00  0.36077211200E+04  0.36077211200E+04  0.00000000000E+00 0.  1.
         -2   -1    0    0    0  501 -0.00000000000E+00 -0.00000000000E+00 -0.21063159810E+04  0.21063159810E+04  0.00000000000E+00 0. -1.
         23    2    1    2    0    0 -0.16291376004E+04 -0.19943989461E+04 -0.26607274963E+03  0.25906263748E+04  0.93988449201E+02 0.  0.
         11    1    3    3    0    0 -0.11292250392E+04 -0.13913545472E+04 -0.22817379970E+03  0.18063997199E+04  0.00000000000E+00 0.  1.
        -11    1    3    3    0    0 -0.49991256119E+03 -0.60304439895E+03 -0.37898949930E+02  0.78422665496E+03  0.00000000000E+00 0. -1.
         22    1    1    2    0    0  0.16291376004E+04  0.19943989461E+04  0.17674778886E+04  0.31234107261E+04  0.00000000000E+00 0.  1.
<mgrwt>
<rscale>  0 0.55132570E+04</rscale>
<asrwt>0</asrwt>
<pdfrwt beam="1">  1        2 0.55503402E+00 0.55132570E+04</pdfrwt>
<pdfrwt beam="2">  1       -2 0.32404861E+00 0.55132570E+04</pdfrwt>
<totfact> 0.10742022E-02</totfact>
</mgrwt>
</event>
<event>
 6    1  0.1003779E-005  0.2681712E+04  0.7818608E-02  0.8340963E-01
         -2   -1    0    0    0  501 -0.00000000000E+00  0.00000000000E+00  0.72464236693E+03  0.72464236693E+03  0.00000000000E+00 0.  1.
          2   -1    0    0  501    0  0.00000000000E+00 -0.00000000000E+00 -0.24810792846E+04  0.24810792846E+04  0.00000000000E+00 0. -1.
         23    2    1    2    0    0  0.90055748763E+03 -0.50069323706E+03  0.14371302934E+03  0.10441788397E+04  0.89210472024E+02 0.  0.
         11    1    3    3    0    0  0.45592834603E+03 -0.26771621819E+03  0.11694109024E+03  0.54149593607E+03  0.00000000000E+00 0.  1.
        -11    1    3    3    0    0  0.44462914160E+03 -0.23297701888E+03  0.26771939104E+02  0.50268290364E+03  0.00000000000E+00 0. -1.
         22    1    1    2    0    0 -0.90055748763E+03  0.50069323706E+03 -0.19001499470E+04  0.21615428118E+04  0.00000000000E+00 0. -1.
<mgrwt>
<rscale>  0 0.26817123E+04</rscale>
<asrwt>0</asrwt>
<pdfrwt beam="1">  1        2 0.38170450E+00 0.26817123E+04</pdfrwt>
<pdfrwt beam="2">  1       -2 0.11148344E+00 0.26817123E+04</pdfrwt>
<totfact> 0.19945072E+00</totfact>
</mgrwt>
</event>
<event>
 6    1  0.9906445E-006  0.1964728E+04  0.7818608E-02  0.8623291E-01
          1   -1    0    0  501    0  0.00000000000E+00  0.00000000000E+00  0.21787456999E+04  0.21787456999E+04  0.00000000000E+00 0. -1.
         -1   -1    0    0    0  501 -0.00000000000E+00 -0.00000000000E+00 -0.44293337129E+03  0.44293337129E+03  0.00000000000E+00 0.  1.
         23    2    1    2    0    0  0.83626876125E+03 -0.21053231093E+03  0.24914725469E+03  0.90300448390E+03  0.98353690441E+02 0.  0.
         13    1    3    3    0    0  0.22648578100E+03 -0.10064387334E+03  0.57301253570E+02  0.25437852091E+03  0.00000000000E+00 0.  1.
        -13    1    3    3    0    0  0.60978298025E+03 -0.10988843759E+03  0.19184600112E+03  0.64862596299E+03  0.00000000000E+00 0. -1.
         22    1    1    2    0    0 -0.83626876125E+03  0.21053231093E+03  0.14866650739E+04  0.17186745873E+04  0.00000000000E+00 0. -1.
<mgrwt>
<rscale>  0 0.19647282E+04</rscale>
<asrwt>0</asrwt>
<pdfrwt beam="1">  1        1 0.33519164E+00 0.19647282E+04</pdfrwt>
<pdfrwt beam="2">  1       -1 0.68143597E-01 0.19647282E+04</pdfrwt>
<totfact> 0.45696300E+00</totfact>
</mgrwt>
</event>
<event>
 6    1  0.9906445E-006  0.6409923E+03  0.7818608E-02  0.9823830E-01
          2   -1    0    0  501    0  0.00000000000E+00  0.00000000000E+00  0.14634577311E+04  0.14634577311E+04  0.00000000000E+00 0.  1.
         -2   -1    0    0    0  501 -0.00000000000E+00 -0.00000000000E+00 -0.70188410070E+02  0.70188410070E+02  0.00000000000E+00 0. -1.
         23    2    1    2    0    0 -0.24895205368E+03  0.11608015067E+02  0.11653223516E+04  0.11959011310E+04  0.10045626323E+03 0.  0.
         11    1    3    3    0    0 -0.19223560462E+03 -0.23078711618E+02  0.71723376351E+03  0.74290741424E+03  0.00000000000E+00 0. -1.
        -11    1    3    3    0    0 -0.56716449065E+02  0.34686726684E+02  0.44808858811E+03  0.45299371673E+03  0.00000000000E+00 0.  1.
         22    1    1    2    0    0  0.24895205368E+03 -0.11608015067E+02  0.22794696938E+03  0.33774501017E+03  0.00000000000E+00 0. -1.
<mgrwt>
<rscale>  0 0.64099227E+03</rscale>
<asrwt>0</asrwt>
<pdfrwt beam="1">  1        2 0.22514732E+00 0.64099227E+03</pdfrwt>
<pdfrwt beam="2">  1       -2 0.10798218E-01 0.64099227E+03</pdfrwt>
<totfact> 0.81947271E+02</totfact>
</mgrwt>
</event>
<event>
 6    1  0.9906445E-006  0.1580353E+04  0.7818608E-02  0.8832710E-01
         -1   -1    0    0    0  501 -0.00000000000E+00  0.00000000000E+00  0.59177967037E+03  0.59177967037E+03  0.00000000000E+00 0.  1.
          1   -1    0    0  501    0  0.00000000000E+00 -0.00000000000E+00 -0.10550863157E+04  0.10550863157E+04  0.00000000000E+00 0. -1.
         23    2    1    2    0    0  0.17428010633E+03 -0.23300068141E+03 -0.99504423778E+03  0.10407243028E+04  0.91275222448E+02 0.  0.
         13    1    3    3    0    0  0.37046688253E+02 -0.71164855303E+02 -0.42417680331E+03  0.43169764211E+03  0.00000000000E+00 0.  1.
        -13    1    3    3    0    0  0.13723341808E+03 -0.16183582611E+03 -0.57086743447E+03  0.60902666065E+03  0.00000000000E+00 0. -1.
         22    1    1    2    0    0 -0.17428010633E+03  0.23300068141E+03  0.53173759245E+03  0.60614168329E+03  0.00000000000E+00 0.  1.
<mgrwt>
<rscale>  0 0.15803527E+04</rscale>
<asrwt>0</asrwt>
<pdfrwt beam="1">  1        1 0.16232097E+00 0.15803527E+04</pdfrwt>
<pdfrwt beam="2">  1       -1 0.91043027E-01 0.15803527E+04</pdfrwt>
<totfact> 0.15524622E+01</totfact>
</mgrwt>
</event>
<event>
 6    1  0.9906445E-006  0.5602045E+03  0.7818608E-02  0.9991592E-01
          2   -1    0    0  501    0  0.00000000000E+00  0.00000000000E+00  0.23877388569E+04  0.23877388569E+04  0.00000000000E+00 0. -1.
         -2   -1    0    0    0  501 -0.00000000000E+00 -0.00000000000E+00 -0.32858398073E+02  0.32858398073E+02  0.00000000000E+00 0.  1.
         23    2    1    2    0    0  0.15261540359E+03 -0.20703385627E+03  0.81404930186E+03  0.85844645132E+03  0.89997582666E+02 0.  0.
         13    1    3    3    0    0 -0.32213152531E+01 -0.53481329660E+02  0.17135603058E+03  0.17953695639E+03  0.00000000000E+00 0. -1.
        -13    1    3    3    0    0  0.15583671884E+03 -0.15355252661E+03  0.64269327127E+03  0.67890949493E+03  0.00000000000E+00 0.  1.
         22    1    1    2    0    0 -0.15261540359E+03  0.20703385627E+03  0.15408311570E+04  0.15621508037E+04  0.00000000000E+00 0. -1.
<mgrwt>
<rscale>  0 0.56020451E+03</rscale>
<asrwt>0</asrwt>
<pdfrwt beam="1">  1        2 0.36734430E+00 0.56020451E+03</pdfrwt>
<pdfrwt beam="2">  1       -2 0.50551401E-02 0.56020451E+03</pdfrwt>
<totfact> 0.86068304E+02</totfact>
</mgrwt>
</event>
<event>
 6    1  0.9906445E-006  0.2459889E+04  0.7818608E-02  0.8417416E-01
         -2   -1    0    0    0  501 -0.00000000000E+00  0.00000000000E+00  0.54274196843E+03  0.54274196843E+03  0.00000000000E+00 0.  1.
          2   -1    0    0  501    0  0.00000000000E+00 -0.00000000000E+00 -0.27872607552E+04  0.27872607552E+04  0.00000000000E+00 0. -1.
         23    2    1    2    0    0 -0.50940049337E+03 -0.24350137775E+01  0.38924595733E+03  0.64742718523E+03  0.90303670623E+02 0.  0.
         13    1    3    3    0    0 -0.47965350584E+03  0.89290021488E+01  0.38536425735E+03  0.61534772576E+03  0.00000000000E+00 0. -1.
        -13    1    3    3    0    0 -0.29746987532E+02 -0.11364015926E+02  0.38816999780E+01  0.32079459470E+02  0.00000000000E+00 0.  1.
         22    1    1    2    0    0  0.50940049337E+03  0.24350137775E+01 -0.26337647441E+04  0.26825755384E+04  0.00000000000E+00 0. -1.
<mgrwt>
<rscale>  0 0.24598889E+04</rscale>
<asrwt>0</asrwt>
<pdfrwt beam="1">  1        2 0.42880934E+00 0.24598889E+04</pdfrwt>
<pdfrwt beam="2">  1       -2 0.83498766E-01 0.24598889E+04</pdfrwt>
<totfact> 0.26428637E+00</totfact>
</mgrwt>
</event>
<event>
 6    1  0.9906445E-006  0.1611514E+04  0.7818608E-02  0.8813506E-01
          1   -1    0    0  501    0  0.00000000000E+00  0.00000000000E+00  0.31277181345E+04  0.31277181345E+04  0.00000000000E+00 0. -1.
         -1   -1    0    0    0  501 -0.00000000000E+00 -0.00000000000E+00 -0.20757754043E+03  0.20757754043E+03  0.00000000000E+00 0.  1.
         23    2    1    2    0    0 -0.40245602949E+03 -0.19356721272E+03  0.28463519049E+04  0.28826546559E+04  0.92409832710E+02 0.  0.
         11    1    3    3    0    0 -0.21978128231E+03 -0.10754134027E+03  0.18444492910E+04  0.18606080025E+04  0.00000000000E+00 0. -1.
        -11    1    3    3    0    0 -0.18267474717E+03 -0.86025872448E+02  0.10019026139E+04  0.10220466534E+04  0.00000000000E+00 0.  1.
         22    1    1    2    0    0  0.40245602949E+03  0.19356721272E+03  0.73788689235E+02  0.45264101910E+03  0.00000000000E+00 0.  1.
<mgrwt>
<rscale>  0 0.16115136E+04</rscale>
<asrwt>0</asrwt>
<pdfrwt beam="1">  1        1 0.48118737E+00 0.16115136E+04</pdfrwt>
<pdfrwt beam="2">  1       -1 0.31935008E-01 0.16115136E+04</pdfrwt>
<totfact> 0.42412544E+00</totfact>
</mgrwt>
</event>
<event>
 6    1  0.9906445E-006  0.8329794E+03  0.7818608E-02  0.9513470E-01
         -2   -1    0    0    0  501 -0.00000000000E+00  0.00000000000E+00  0.14834875849E+04  0.14834875849E+04  0.00000000000E+00 0.  1.
          2   -1    0    0  501    0  0.00000000000E+00 -0.00000000000E+00 -0.11692965093E+03  0.11692965093E+03  0.00000000000E+00 0. -1.
         23    2    1    2    0    0 -0.70557541541E+02 -0.34287332301E+03  0.11064622045E+04  0.11643091405E+04  0.93897191112E+02 0.  0.
         13    1    3    3    0    0 -0.23454641066E+02 -0.29219280504E+03  0.88368392883E+03  0.93103385630E+03  0.00000000000E+00 0.  1.
        -13    1    3    3    0    0 -0.47102900475E+02 -0.50680517967E+02  0.22277827563E+03  0.23327528422E+03  0.00000000000E+00 0. -1.
         22    1    1    2    0    0  0.70557541541E+02  0.34287332301E+03  0.26009572956E+03  0.43610809535E+03  0.00000000000E+00 0. -1.
<mgrwt>
<rscale>  0 0.83297944E+03</rscale>
<asrwt>0</asrwt>
<pdfrwt beam="1">  1        2 0.17989178E-01 0.83297944E+03</pdfrwt>
<pdfrwt beam="2">  1       -2 0.22822885E+00 0.83297944E+03</pdfrwt>
<totfact> 0.28718559E+01</totfact>
</mgrwt>
</event>
<event>
 6    1  0.9906445E-006  0.4975543E+04  0.7818608E-02  0.7832291E-01
         -1   -1    0    0    0  501 -0.00000000000E+00  0.00000000000E+00  0.21054569097E+04  0.21054569097E+04  0.00000000000E+00 0.  1.
          1   -1    0    0  501    0  0.00000000000E+00 -0.00000000000E+00 -0.29395076792E+04  0.29395076792E+04  0.00000000000E+00 0. -1.
         23    2    1    2    0    0 -0.18309428472E+04 -0.11097095988E+04 -0.17000871780E+04  0.27354568136E+04  0.92846447292E+02 0.  0.
         13    1    3    3    0    0 -0.60627402111E+03 -0.41398843448E+03 -0.55845733547E+03  0.92240403734E+03  0.00000000000E+00 0.  1.
        -13    1    3    3    0    0 -0.12246688261E+04 -0.69572116428E+03 -0.11416298425E+04  0.18130527762E+04  0.00000000000E+00 0. -1.
         22    1    1    2    0    0  0.18309428472E+04  0.11097095988E+04  0.86603640853E+03  0.23095077753E+04  0.00000000000E+00 0.  1.
<mgrwt>
<rscale>  0 0.49755429E+04</rscale>
<asrwt>0</asrwt>
<pdfrwt beam="1">  1        1 0.45223195E+00 0.49755429E+04</pdfrwt>
<pdfrwt beam="2">  1       -1 0.32391645E+00 0.49755429E+04</pdfrwt>
<totfact> 0.11040705E-02</totfact>
</mgrwt>
</event>
<event>
 6    1  0.9906445E-006  0.3171175E+04  0.7818608E-02  0.8196471E-01
          2   -1    0    0  501    0  0.00000000000E+00  0.00000000000E+00  0.19320615149E+04  0.19320615149E+04  0.00000000000E+00 0. -1.
         -2   -1    0    0    0  501 -0.00000000000E+00 -0.00000000000E+00 -0.13012465807E+04  0.13012465807E+04  0.00000000000E+00 0.  1.
         23    2    1    2    0    0 -0.72902937173E+03 -0.45806048841E+03  0.16716588016E+04  0.18825086315E+04  0.89957561098E+02 0.  0.
         13    1    3    3    0    0 -0.12245086072E+03 -0.11407943212E+03  0.28903735450E+03  0.33399239874E+03  0.00000000000E+00 0. -1.
        -13    1    3    3    0    0 -0.60657851101E+03 -0.34398105630E+03  0.13826214471E+04  0.15485162328E+04  0.00000000000E+00 0.  1.
         22    1    1    2    0    0  0.72902937173E+03  0.45806048841E+03 -0.10408438675E+04  0.13507994641E+04  0.00000000000E+00 0.  1.
<mgrwt>
<rscale>  0 0.31711755E+04</rscale>
<asrwt>0</asrwt>
<pdfrwt beam="1">  1        2 0.29724023E+00 0.31711755E+04</pdfrwt>
<pdfrwt beam="2">  1       -2 0.20019178E+00 0.31711755E+04</pdfrwt>
<totfact> 0.81589942E-01</totfact>
</mgrwt>
</event>
<event>
 6    1  0.9906445E-006  0.2500637E+04  0.7818608E-02  0.8402759E-01
          1   -1    0    0  501    0  0.00000000000E+00  0.00000000000E+00  0.24987694615E+04  0.24987694615E+04  0.00000000000E+00 0. -1.
         -1   -1    0    0    0  501 -0.00000000000E+00 -0.00000000000E+00 -0.62562665544E+03  0.62562665544E+03  0.00000000000E+00 0.  1.
         23    2    1    2    0    0 -0.57866898907E+02  0.55154541767E+03 -0.46001120617E+03  0.72623878881E+03  0.90893029573E+02 0.  0.
         11    1    3    3    0    0  0.13546189677E+02  0.20878619261E+03 -0.20656015616E+03  0.29401066578E+03  0.00000000000E+00 0.  1.
        -11    1    3    3    0    0 -0.71413088584E+02  0.34275922506E+03 -0.25345105001E+03  0.43222812303E+03  0.00000000000E+00 0. -1.
         22    1    1    2    0    0  0.57866898907E+02 -0.55154541767E+03  0.23331540123E+04  0.23981573282E+04  0.00000000000E+00 0. -1.
<mgrwt>
<rscale>  0 0.25006373E+04</rscale>
<asrwt>0</asrwt>
<pdfrwt beam="1">  1        1 0.38442606E+00 0.25006373E+04</pdfrwt>
<pdfrwt beam="2">  1       -1 0.96250256E-01 0.25006373E+04</pdfrwt>
<totfact> 0.12532897E+00</totfact>
</mgrwt>
</event>
<event>
 6    1  0.9906445E-006  0.1663696E+04  0.7818608E-02  0.8782345E-01
          1   -1    0    0  501    0  0.00000000000E+00  0.00000000000E+00  0.92808823565E+03  0.92808823565E+03  0.00000000000E+00 0. -1.
         -1   -1    0    0    0  501 -0.00000000000E+00 -0.00000000000E+00 -0.74558717329E+03  0.74558717329E+03  0.00000000000E+00 0.  1.
         23    2    1    2    0    0  0.56904076993E+03  0.13739803142E+03  0.68265514655E+03  0.90371454967E+03  0.89422152152E+02 0.  0.
         11    1    3    3    0    0  0.15722885420E+03  0.62610756496E+02  0.24856419937E+03  0.30070779942E+03  0.00000000000E+00 0.  1.
        -11    1    3    3    0    0  0.41181191573E+03  0.74787274921E+02  0.43409094718E+03  0.60300675025E+03  0.00000000000E+00 0. -1.
         22    1    1    2    0    0 -0.56904076993E+03 -0.13739803142E+03 -0.50015408418E+03  0.76996085927E+03  0.00000000000E+00 0.  1.
<mgrwt>
<rscale>  0 0.16636955E+04</rscale>
<asrwt>0</asrwt>
<pdfrwt beam="1">  1        1 0.14278281E+00 0.16636955E+04</pdfrwt>
<pdfrwt beam="2">  1       -1 0.11470572E+00 0.16636955E+04</pdfrwt>
<totfact> 0.11381948E+01</totfact>
</mgrwt>
</event>
<event>
 6    1  0.9906445E-006  0.1224048E+04  0.7818608E-02  0.9092064E-01
         -1   -1    0    0    0  501 -0.00000000000E+00  0.00000000000E+00  0.16593206773E+04  0.16593206773E+04  0.00000000000E+00 0.  1.
          1   -1    0    0  501    0  0.00000000000E+00 -0.00000000000E+00 -0.22573907858E+03  0.22573907858E+03  0.00000000000E+00 0. -1.
         23    2    1    2    0    0 -0.55082544664E+03 -0.58734538951E+02  0.11089595829E+04  0.12430022258E+04  0.91677468179E+02 0.  0.
         11    1    3    3    0    0 -0.18728084900E+03 -0.62639471704E+02  0.36712607113E+03  0.41686853074E+03  0.00000000000E+00 0. -1.
        -11    1    3    3    0    0 -0.36354459764E+03  0.39049327533E+01  0.74183351175E+03  0.82613369507E+03  0.00000000000E+00 0.  1.
         22    1    1    2    0    0  0.55082544664E+03  0.58734538951E+02  0.32462201579E+03  0.64205753003E+03  0.00000000000E+00 0. -1.
<mgrwt>
<rscale>  0 0.12240482E+04</rscale>
<asrwt>0</asrwt>
<pdfrwt beam="1">  1        1 0.34729090E-01 0.12240482E+04</pdfrwt>
<pdfrwt beam="2">  1       -1 0.25528010E+00 0.12240482E+04</pdfrwt>
<totfact> 0.81038169E+00</totfact>
</mgrwt>
</event>
<event>
 6    1  0.9906445E-006  0.2085367E+04  0.7818608E-02  0.8567717E-01
          1   -1    0    0  501    0  0.00000000000E+00  0.00000000000E+00  0.25562380264E+04  0.25562380264E+04  0.00000000000E+00 0. -1.
         -1   -1    0    0    0  501 -0.00000000000E+00 -0.00000000000E+00 -0.42530830439E+03  0.42530830439E+03  0.00000000000E+00 0.  1.
         23    2    1    2    0    0  0.98920357738E+03  0.29315806340E+03  0.87269601957E+03  0.13543962401E+04  0.91243986122E+02 0.  0.
         11    1    3    3    0    0  0.36548851864E+03  0.11301916001E+03  0.38179109273E+03  0.54048092129E+03  0.00000000000E+00 0. -1.
        -11    1    3    3    0    0  0.62371505874E+03  0.18013890339E+03  0.49090492684E+03  0.81391531882E+03  0.00000000000E+00 0.  1.
         22    1    1    2    0    0 -0.98920357738E+03 -0.29315806340E+03  0.12582337024E+04  0.16271500907E+04  0.00000000000E+00 0. -1.
<mgrwt>
<rscale>  0 0.20853674E+04</rscale>
<asrwt>0</asrwt>
<pdfrwt beam="1">  1        1 0.39326738E+00 0.20853674E+04</pdfrwt>
<pdfrwt beam="2">  1       -1 0.65432049E-01 0.20853674E+04</pdfrwt>
<totfact> 0.27002622E+00</totfact>
</mgrwt>
</event>
<event>
 6    1  0.9906445E-006  0.7060692E+03  0.7818608E-02  0.9706909E-01
         -1   -1    0    0    0  501 -0.00000000000E+00  0.00000000000E+00  0.67120858559E+02  0.67120858559E+02  0.00000000000E+00 0.  1.
          1   -1    0    0  501    0  0.00000000000E+00 -0.00000000000E+00 -0.18568507717E+04  0.18568507717E+04  0.00000000000E+00 0. -1.
         23    2    1    2    0    0  0.28464225369E+03  0.13355919932E+03 -0.50502498868E+03  0.60135074155E+03  0.87824841979E+02 0.  0.
         13    1    3    3    0    0  0.14155282500E+03  0.10552875077E+03 -0.22879424923E+03  0.28899883734E+03  0.00000000000E+00 0. -1.
        -13    1    3    3    0    0  0.14308942868E+03  0.28030448558E+02 -0.27623073945E+03  0.31235190421E+03  0.00000000000E+00 0.  1.
         22    1    1    2    0    0 -0.28464225369E+03 -0.13355919932E+03 -0.12847049245E+04  0.13226208887E+04  0.00000000000E+00 0. -1.
<mgrwt>
<rscale>  0 0.70606917E+03</rscale>
<asrwt>0</asrwt>
<pdfrwt beam="1">  1        1 0.28566934E+00 0.70606917E+03</pdfrwt>
<pdfrwt beam="2">  1       -1 0.10326286E-01 0.70606917E+03</pdfrwt>
<totfact> 0.23008124E+02</totfact>
</mgrwt>
</event>
<event>
 6    1  0.9906445E-006  0.1955339E+04  0.7818608E-02  0.8627791E-01
         -1   -1    0    0    0  501 -0.00000000000E+00  0.00000000000E+00  0.70045322881E+03  0.70045322881E+03  0.00000000000E+00 0.  1.
          1   -1    0    0  501    0  0.00000000000E+00 -0.00000000000E+00 -0.13645983615E+04  0.13645983615E+04  0.00000000000E+00 0. -1.
         23    2    1    2    0    0 -0.90027337081E+02  0.64660468292E+03  0.43277011897E+03  0.78856202641E+03  0.91310219750E+02 0.  0.
         13    1    3    3    0    0 -0.27646761052E+02  0.27577873684E+03  0.23669663603E+03  0.36447709475E+03  0.00000000000E+00 0.  1.
        -13    1    3    3    0    0 -0.62380576029E+02  0.37082594608E+03  0.19607348295E+03  0.42408493166E+03  0.00000000000E+00 0. -1.
         22    1    1    2    0    0  0.90027337081E+02 -0.64660468292E+03 -0.10969152517E+04  0.12764895639E+04  0.00000000000E+00 0. -1.
<mgrwt>
<rscale>  0 0.19553387E+04</rscale>
<asrwt>0</asrwt>
<pdfrwt beam="1">  1        1 0.20993821E+00 0.19553387E+04</pdfrwt>
<pdfrwt beam="2">  1       -1 0.10776204E+00 0.19553387E+04</pdfrwt>
<totfact> 0.60707532E+00</totfact>
</mgrwt>
</event>
<event>
 6    1  0.9906445E-006  0.1679587E+04  0.7818608E-02  0.8773093E-01
          2   -1    0    0  501    0  0.00000000000E+00  0.00000000000E+00  0.24598150306E+04  0.24598150306E+04  0.00000000000E+00 0. -1.
         -2   -1    0    0    0  501 -0.00000000000E+00 -0.00000000000E+00 -0.28670982602E+03  0.28670982602E+03  0.00000000000E+00 0.  1.
         23    2    1    2    0    0  0.23874589949E+03  0.46741088866E+03  0.23178347612E+02  0.53345955400E+03  0.92570603300E+02 0.  0.
         13    1    3    3    0    0  0.12235433441E+03  0.24039765604E+03 -0.34407443110E+02  0.27192919725E+03  0.00000000000E+00 0. -1.
        -13    1    3    3    0    0  0.11639156508E+03  0.22701323262E+03  0.57585790722E+02  0.26153035675E+03  0.00000000000E+00 0.  1.
         22    1    1    2    0    0 -0.23874589949E+03 -0.46741088866E+03  0.21499268570E+04  0.22130653026E+04  0.00000000000E+00 0. -1.
<mgrwt>
<rscale>  0 0.16795870E+04</rscale>
<asrwt>0</asrwt>
<pdfrwt beam="1">  1        2 0.37843307E+00 0.16795870E+04</pdfrwt>
<pdfrwt beam="2">  1       -2 0.44109206E-01 0.16795870E+04</pdfrwt>
<totfact> 0.17087082E+01</totfact>
</mgrwt>
</event>
<event>
 6    1  0.9906445E-006  0.9245611E+03  0.7818608E-02  0.9395389E-01
         -2   -1    0    0    0  501 -0.00000000000E+00  0.00000000000E+00  0.19867154304E+03  0.19867154304E+03  0.00000000000E+00 0.  1.
          2   -1    0    0  501    0  0.00000000000E+00 -0.00000000000E+00 -0.10756613532E+04  0.10756613532E+04  0.00000000000E+00 0. -1.
         23    2    1    2    0    0  0.14515772051E+03 -0.43434097682E+03 -0.47050810870E+03  0.66200110581E+03  0.84526538823E+02 0.  0.
         13    1    3    3    0    0  0.12232308896E+03 -0.27560109179E+03 -0.26582548399E+03  0.40197274513E+03  0.00000000000E+00 0. -1.
        -13    1    3    3    0    0  0.22834631552E+02 -0.15873988503E+03 -0.20468262471E+03  0.26002836067E+03  0.00000000000E+00 0.  1.
         22    1    1    2    0    0 -0.14515772051E+03  0.43434097682E+03 -0.40648170146E+03  0.61233179044E+03  0.00000000000E+00 0.  1.
<mgrwt>
<rscale>  0 0.92456109E+03</rscale>
<asrwt>0</asrwt>
<pdfrwt beam="1">  1        2 0.16548636E+00 0.92456109E+03</pdfrwt>
<pdfrwt beam="2">  1       -2 0.30564853E-01 0.92456109E+03</pdfrwt>
<totfact> 0.22342517E+02</totfact>
</mgrwt>
</event>
<event>
 6    1  0.9906445E-006  0.1253656E+04  0.7818608E-02  0.9067146E-01
          2   -1    0    0  501    0  0.00000000000E+00  0.00000000000E+00  0.17390778368E+04  0.17390778368E+04  0.00000000000E+00 0.  1.
         -2   -1    0    0    0  501 -0.00000000000E+00 -0.00000000000E+00 -0.22593204046E+03  0.22593204046E+03  0.00000000000E+00 0. -1.
         23    2    1    2    0    0  0.20461190283E+03  0.28897621042E+03 -0.43952784199E+02  0.36816008141E+03  0.90756362517E+02 0.  0.
         13    1    3    3    0    0  0.59265194153E+02  0.11676165068E+03 -0.56162376972E+02  0.14247757330E+03  0.00000000000E+00 0. -1.
        -13    1    3    3    0    0  0.14534670868E+03  0.17221455974E+03  0.12209592772E+02  0.22568250811E+03  0.00000000000E+00 0.  1.
         22    1    1    2    0    0 -0.20461190283E+03 -0.28897621042E+03  0.15570985805E+04  0.15968497958E+04  0.00000000000E+00 0.  1.
<mgrwt>
<rscale>  0 0.12536561E+04</rscale>
<asrwt>0</asrwt>
<pdfrwt beam="1">  1        2 0.26755043E+00 0.12536561E+04</pdfrwt>
<pdfrwt beam="2">  1       -2 0.34758777E-01 0.12536561E+04</pdfrwt>
<totfact> 0.71196449E+01</totfact>
</mgrwt>
</event>
<event>
 6    1  0.9906445E-006  0.2459954E+04  0.7818608E-02  0.8417392E-01
          2   -1    0    0  501    0  0.00000000000E+00  0.00000000000E+00  0.17752697454E+04  0.17752697454E+04  0.00000000000E+00 0. -1.
         -2   -1    0    0    0  501 -0.00000000000E+00 -0.00000000000E+00 -0.85217698596E+03  0.85217698596E+03  0.00000000000E+00 0.  1.
         23    2    1    2    0    0 -0.81978082278E+03  0.27493560060E+01 -0.51563115267E+03  0.97155583772E+03  0.77440970091E+02 0.  0.
         13    1    3    3    0    0 -0.28110917964E+03  0.17100929513E+02 -0.13858106408E+03  0.31387819929E+03  0.00000000000E+00 0. -1.
        -13    1    3    3    0    0 -0.53867164313E+03 -0.14351573507E+02 -0.37705008859E+03  0.65767763842E+03  0.00000000000E+00 0.  1.
         22    1    1    2    0    0  0.81978082278E+03 -0.27493560060E+01  0.14387239121E+04  0.16558908936E+04  0.00000000000E+00 0. -1.
<mgrwt>
<rscale>  0 0.24599545E+04</rscale>
<asrwt>0</asrwt>
<pdfrwt beam="1">  1        2 0.27311842E+00 0.24599545E+04</pdfrwt>
<pdfrwt beam="2">  1       -2 0.13110415E+00 0.24599545E+04</pdfrwt>
<totfact> 0.33879858E+00</totfact>
</mgrwt>
</event>
<event>
 6    1  0.9906445E-006  0.4145724E+04  0.7818608E-02  0.7975778E-01
          1   -1    0    0  501    0  0.00000000000E+00  0.00000000000E+00  0.18802754069E+04  0.18802754069E+04  0.00000000000E+00 0. -1.
         -1   -1    0    0    0  501 -0.00000000000E+00 -0.00000000000E+00 -0.22851738453E+04  0.22851738453E+04  0.00000000000E+00 0.  1.
         23    2    1    2    0    0 -0.15548177897E+04  0.42097223346E+03  0.11050923454E+04  0.19575660697E+04  0.12712137813E+03 0.  0.
         11    1    3    3    0    0 -0.11267318626E+04  0.26297187273E+03  0.84065750262E+03  0.14301691973E+04  0.00000000000E+00 0.  1.
        -11    1    3    3    0    0 -0.42808592706E+03  0.15800036073E+03  0.26443484276E+03  0.52739687239E+03  0.00000000000E+00 0. -1.
         22    1    1    2    0    0  0.15548177897E+04 -0.42097223346E+03 -0.15099907838E+04  0.22078831825E+04  0.00000000000E+00 0. -1.
<mgrwt>
<rscale>  0 0.41457237E+04</rscale>
<asrwt>0</asrwt>
<pdfrwt beam="1">  1        1 0.28927314E+00 0.41457237E+04</pdfrwt>
<pdfrwt beam="2">  1       -1 0.35156521E+00 0.41457237E+04</pdfrwt>
<totfact> 0.42146054E-02</totfact>
</mgrwt>
</event>
<event>
 6    1  0.9906445E-006  0.1955973E+04  0.7818608E-02  0.8627486E-01
         -1   -1    0    0    0  501 -0.00000000000E+00  0.00000000000E+00  0.17240046529E+04  0.17240046529E+04  0.00000000000E+00 0.  1.
          1   -1    0    0  501    0  0.00000000000E+00 -0.00000000000E+00 -0.55478816299E+03  0.55478816299E+03  0.00000000000E+00 0. -1.
         23    2    1    2    0    0  0.22026463072E+03 -0.51780650291E+03 -0.34292178810E+03  0.66534859503E+03  0.91941928157E+02 0.  0.
         13    1    3    3    0    0  0.96643522153E+02 -0.34055809854E+03 -0.20807732216E+03  0.41062873846E+03  0.00000000000E+00 0. -1.
        -13    1    3    3    0    0  0.12362110856E+03 -0.17724840437E+03 -0.13484446594E+03  0.25471985657E+03  0.00000000000E+00 0.  1.
         22    1    1    2    0    0 -0.22026463072E+03  0.51780650291E+03  0.15121382780E+04  0.16134442209E+04  0.00000000000E+00 0.  1.
<mgrwt>
<rscale>  0 0.19559728E+04</rscale>
<asrwt>0</asrwt>
<pdfrwt beam="1">  1        1 0.85352026E-01 0.19559728E+04</pdfrwt>
<pdfrwt beam="2">  1       -1 0.26523148E+00 0.19559728E+04</pdfrwt>
<totfact> 0.19800967E+00</totfact>
</mgrwt>
</event>
<event>
 6    1  0.9906445E-006  0.2056467E+04  0.7818608E-02  0.8580666E-01
         -2   -1    0    0    0  501 -0.00000000000E+00  0.00000000000E+00  0.14256871421E+04  0.14256871421E+04  0.00000000000E+00 0.  1.
          2   -1    0    0  501    0  0.00000000000E+00 -0.00000000000E+00 -0.74158185113E+03  0.74158185113E+03  0.00000000000E+00 0. -1.
         23    2    1    2    0    0 -0.99112034654E+03  0.26234955172E+03  0.29563357245E+03  0.10708853447E+04  0.90826118354E+02 0.  0.
         11    1    3    3    0    0 -0.50032753635E+03  0.15101155675E+03  0.10719795297E+03  0.53350120433E+03  0.00000000000E+00 0.  1.
        -11    1    3    3    0    0 -0.49079281019E+03  0.11133799497E+03  0.18843561948E+03  0.53738414039E+03  0.00000000000E+00 0. -1.
         22    1    1    2    0    0  0.99112034654E+03 -0.26234955172E+03  0.38847171852E+03  0.10963836485E+04  0.00000000000E+00 0.  1.
<mgrwt>
<rscale>  0 0.20564666E+04</rscale>
<asrwt>0</asrwt>
<pdfrwt beam="1">  1        2 0.11408952E+00 0.20564666E+04</pdfrwt>
<pdfrwt beam="2">  1       -2 0.21933648E+00 0.20564666E+04</pdfrwt>
<totfact> 0.35103780E+00</totfact>
</mgrwt>
</event>
<event>
 6    1  0.9906445E-006  0.2960773E+04  0.7818608E-02  0.8255022E-01
         -2   -1    0    0    0  501 -0.00000000000E+00  0.00000000000E+00  0.77574555735E+03  0.77574555735E+03  0.00000000000E+00 0.  1.
          2   -1    0    0  501    0  0.00000000000E+00 -0.00000000000E+00 -0.28250818052E+04  0.28250818052E+04  0.00000000000E+00 0. -1.
         23    2    1    2    0    0 -0.69438707029E+03 -0.10752814089E+04 -0.12457892795E+03  0.12893139509E+04  0.91689928442E+02 0.  0.
         11    1    3    3    0    0 -0.62014966996E+03 -0.96711350827E+03 -0.83750348701E+02  0.11519150455E+04  0.00000000000E+00 0.  1.
        -11    1    3    3    0    0 -0.74237400327E+02 -0.10816790063E+03 -0.40828579246E+02  0.13739890545E+03  0.00000000000E+00 0. -1.
         22    1    1    2    0    0  0.69438707029E+03  0.10752814089E+04 -0.19247573199E+04  0.23115134116E+04  0.00000000000E+00 0. -1.
<mgrwt>
<rscale>  0 0.29607733E+04</rscale>
<asrwt>0</asrwt>
<pdfrwt beam="1">  1        2 0.43462797E+00 0.29607733E+04</pdfrwt>
<pdfrwt beam="2">  1       -2 0.11934547E+00 0.29607733E+04</pdfrwt>
<totfact> 0.10316447E+00</totfact>
</mgrwt>
</event>
<event>
 6    1  0.9906445E-006  0.1399628E+04  0.7818608E-02  0.8954088E-01
          2   -1    0    0  501    0  0.00000000000E+00  0.00000000000E+00  0.18412371468E+04  0.18412371468E+04  0.00000000000E+00 0.  1.
         -2   -1    0    0    0  501 -0.00000000000E+00 -0.00000000000E+00 -0.26598398895E+03  0.26598398895E+03  0.00000000000E+00 0. -1.
         23    2    1    2    0    0 -0.20426254369E+03  0.66461716804E+03  0.72378569823E+03  0.10079322740E+04  0.92857768328E+02 0.  0.
         13    1    3    3    0    0 -0.82826009537E+02  0.21768949179E+03  0.30313373027E+03  0.38228120686E+03  0.00000000000E+00 0.  1.
        -13    1    3    3    0    0 -0.12143653415E+03  0.44692767625E+03  0.42065196797E+03  0.62565106711E+03  0.00000000000E+00 0. -1.
         22    1    1    2    0    0  0.20426254369E+03 -0.66461716804E+03  0.85146745957E+03  0.10992888617E+04  0.00000000000E+00 0.  1.
<mgrwt>
<rscale>  0 0.13996280E+04</rscale>
<asrwt>0</asrwt>
<pdfrwt beam="1">  1        2 0.28326724E+00 0.13996280E+04</pdfrwt>
<pdfrwt beam="2">  1       -2 0.40920615E-01 0.13996280E+04</pdfrwt>
<totfact> 0.45067271E+01</totfact>
</mgrwt>
</event>
<event>
 6    1  0.9906445E-006  0.3382544E+04  0.7818608E-02  0.8142204E-01
         -1   -1    0    0    0  501 -0.00000000000E+00  0.00000000000E+00  0.14155251229E+04  0.14155251229E+04  0.00000000000E+00 0.  1.
          1   -1    0    0  501    0  0.00000000000E+00 -0.00000000000E+00 -0.20207347649E+04  0.20207347649E+04  0.00000000000E+00 0. -1.
         23    2    1    2    0    0  0.78559511833E+03  0.69835000655E+03  0.10415205197E+04  0.14826548492E+04  0.92994554306E+02 0.  0.
         13    1    3    3    0    0  0.69137366331E+03  0.57353552943E+03  0.86982716236E+03  0.12504158661E+04  0.00000000000E+00 0. -1.
        -13    1    3    3    0    0  0.94221455024E+02  0.12481447712E+03  0.17169335736E+03  0.23223898305E+03  0.00000000000E+00 0.  1.
         22    1    1    2    0    0 -0.78559511833E+03 -0.69835000655E+03 -0.16467301617E+04  0.19536050387E+04  0.00000000000E+00 0. -1.
<mgrwt>
<rscale>  0 0.33825439E+04</rscale>
<asrwt>0</asrwt>
<pdfrwt beam="1">  1        1 0.31088227E+00 0.33825439E+04</pdfrwt>
<pdfrwt beam="2">  1       -1 0.21777310E+00 0.33825439E+04</pdfrwt>
<totfact> 0.27076197E-01</totfact>
</mgrwt>
</event>
<event>
 6    1  0.9906445E-006  0.9792871E+03  0.7818608E-02  0.9331559E-01
          1   -1    0    0  501    0  0.00000000000E+00  0.00000000000E+00  0.65774798472E+03  0.65774798472E+03  0.00000000000E+00 0. -1.
         -1   -1    0    0    0  501 -0.00000000000E+00 -0.00000000000E+00 -0.36450256349E+03  0.36450256349E+03  0.00000000000E+00 0.  1.
         23    2    1    2    0    0 -0.96937711896E+02  0.96779901272E+02  0.63420942694E+03  0.65480024888E+03  0.88195801674E+02 0.  0.
         11    1    3    3    0    0 -0.31105666569E+02 -0.85987675737E+00  0.27559133167E+03  0.27734253906E+03  0.00000000000E+00 0.  1.
        -11    1    3    3    0    0 -0.65832045327E+02  0.97639778029E+02  0.35861809527E+03  0.37745770982E+03  0.00000000000E+00 0. -1.
         22    1    1    2    0    0  0.96937711896E+02 -0.96779901272E+02 -0.34096400571E+03  0.36745029932E+03  0.00000000000E+00 0.  1.
<mgrwt>
<rscale>  0 0.97928714E+03</rscale>
<asrwt>0</asrwt>
<pdfrwt beam="1">  1        1 0.10119200E+00 0.97928714E+03</pdfrwt>
<pdfrwt beam="2">  1       -1 0.56077318E-01 0.97928714E+03</pdfrwt>
<totfact> 0.96636223E+01</totfact>
</mgrwt>
</event>
<event>
 6    1  0.9906445E-006  0.1968318E+04  0.7818608E-02  0.8621578E-01
          1   -1    0    0  501    0  0.00000000000E+00  0.00000000000E+00  0.95857779248E+03  0.95857779248E+03  0.00000000000E+00 0. -1.
         -1   -1    0    0    0  501 -0.00000000000E+00 -0.00000000000E+00 -0.10104224257E+04  0.10104224257E+04  0.00000000000E+00 0.  1.
         23    2    1    2    0    0  0.23564240166E+03  0.11381078209E+03 -0.97287732470E+03  0.10115131664E+04  0.90489564620E+02 0.  0.
         13    1    3    3    0    0  0.54377444301E+02 -0.45291231364E+01 -0.12411494267E+03  0.13558000737E+03  0.00000000000E+00 0. -1.
        -13    1    3    3    0    0  0.18126495736E+03  0.11833990522E+03 -0.84876238203E+03  0.87593315903E+03  0.00000000000E+00 0.  1.
         22    1    1    2    0    0 -0.23564240166E+03 -0.11381078209E+03  0.92103269147E+03  0.95748705179E+03  0.00000000000E+00 0. -1.
<mgrwt>
<rscale>  0 0.19683176E+04</rscale>
<asrwt>0</asrwt>
<pdfrwt beam="1">  1        1 0.14747351E+00 0.19683176E+04</pdfrwt>
<pdfrwt beam="2">  1       -1 0.15544960E+00 0.19683176E+04</pdfrwt>
<totfact> 0.48049272E+00</totfact>
</mgrwt>
</event>
<event>
 6    1  0.9906445E-006  0.3780608E+04  0.7818608E-02  0.8050329E-01
          2   -1    0    0  501    0  0.00000000000E+00  0.00000000000E+00  0.38851606315E+04  0.38851606315E+04  0.00000000000E+00 0. -1.
         -2   -1    0    0    0  501 -0.00000000000E+00 -0.00000000000E+00 -0.91971733419E+03  0.91971733419E+03  0.00000000000E+00 0.  1.
         23    2    1    2    0    0 -0.34119442279E+03 -0.10130378618E+04 -0.49620348764E+03  0.11819429943E+04  0.90066625292E+02 0.  0.
         13    1    3    3    0    0 -0.19740875514E+03 -0.71243795469E+03 -0.33043886626E+03  0.80977027620E+03  0.00000000000E+00 0. -1.
        -13    1    3    3    0    0 -0.14378566765E+03 -0.30059990709E+03 -0.16576462138E+03  0.37217271805E+03  0.00000000000E+00 0.  1.
         22    1    1    2    0    0  0.34119442279E+03  0.10130378618E+04  0.34616467849E+04  0.36229349714E+04  0.00000000000E+00 0. -1.
<mgrwt>
<rscale>  0 0.37806082E+04</rscale>
<asrwt>0</asrwt>
<pdfrwt beam="1">  1        2 0.59771701E+00 0.37806082E+04</pdfrwt>
<pdfrwt beam="2">  1       -2 0.14149498E+00 0.37806082E+04</pdfrwt>
<totfact> 0.11811468E-01</totfact>
</mgrwt>
</event>
<event>
 6    1  0.9906445E-006  0.3188205E+04  0.7818608E-02  0.8191939E-01
          2   -1    0    0  501    0  0.00000000000E+00  0.00000000000E+00  0.92421229368E+03  0.92421229368E+03  0.00000000000E+00 0. -1.
         -2   -1    0    0    0  501 -0.00000000000E+00 -0.00000000000E+00 -0.27495444605E+04  0.27495444605E+04  0.00000000000E+00 0.  1.
         23    2    1    2    0    0 -0.13144556777E+04 -0.87246695560E+03 -0.66084536384E+03  0.17128840322E+04  0.90899921328E+02 0.  0.
         13    1    3    3    0    0 -0.40788002756E+03 -0.28566741464E+03 -0.25269532822E+03  0.55841464663E+03  0.00000000000E+00 0.  1.
        -13    1    3    3    0    0 -0.90657565017E+03 -0.58679954096E+03 -0.40815003562E+03  0.11544693856E+04  0.00000000000E+00 0. -1.
         22    1    1    2    0    0  0.13144556777E+04  0.87246695560E+03 -0.11644868030E+04  0.19608727219E+04  0.00000000000E+00 0. -1.
<mgrwt>
<rscale>  0 0.31882050E+04</rscale>
<asrwt>0</asrwt>
<pdfrwt beam="1">  1        2 0.14218651E+00 0.31882050E+04</pdfrwt>
<pdfrwt beam="2">  1       -2 0.42300684E+00 0.31882050E+04</pdfrwt>
<totfact> 0.12453983E-01</totfact>
</mgrwt>
</event>
<event>
 6    1  0.9906445E-006  0.5079742E+03  0.7818608E-02  0.1011718E+00
         -1   -1    0    0    0  501 -0.00000000000E+00  0.00000000000E+00  0.53098312414E+03  0.53098312414E+03  0.00000000000E+00 0.  1.
          1   -1    0    0  501    0  0.00000000000E+00 -0.00000000000E+00 -0.12149058845E+03  0.12149058845E+03  0.00000000000E+00 0. -1.
         23    2    1    2    0    0 -0.20723356524E+03  0.13235753977E+03  0.22166168089E+03  0.34304730953E+03  0.89907101490E+02 0.  0.
         11    1    3    3    0    0 -0.24240581660E+02  0.19216680157E+02 -0.40822930373E+01  0.31201790203E+02  0.00000000000E+00 0.  1.
        -11    1    3    3    0    0 -0.18299298358E+03  0.11314085962E+03  0.22574397393E+03  0.31184551932E+03  0.00000000000E+00 0. -1.
         22    1    1    2    0    0  0.20723356524E+03 -0.13235753977E+03  0.18783085480E+03  0.30942640306E+03  0.00000000000E+00 0.  1.
<mgrwt>
<rscale>  0 0.50797422E+03</rscale>
<asrwt>0</asrwt>
<pdfrwt beam="1">  1        1 0.18690860E-01 0.50797422E+03</pdfrwt>
<pdfrwt beam="2">  1       -1 0.81689710E-01 0.50797422E+03</pdfrwt>
<totfact> 0.43430978E+02</totfact>
</mgrwt>
</event>
<event>
 6    1  0.9906445E-006  0.1712044E+04  0.7818608E-02  0.8754525E-01
         -1   -1    0    0    0  501 -0.00000000000E+00  0.00000000000E+00  0.51815755469E+03  0.51815755469E+03  0.00000000000E+00 0.  1.
          1   -1    0    0  501    0  0.00000000000E+00 -0.00000000000E+00 -0.14141906697E+04  0.14141906697E+04  0.00000000000E+00 0. -1.
         23    2    1    2    0    0  0.13505154459E+03  0.69811305072E+03 -0.98230797791E+03  0.12160772539E+04  0.91182085066E+02 0.  0.
         11    1    3    3    0    0  0.13657280711E+03  0.52103454206E+03 -0.70864266085E+03  0.89011434459E+03  0.00000000000E+00 0. -1.
        -11    1    3    3    0    0 -0.15212625167E+01  0.17707850866E+03 -0.27366531705E+03  0.32596290928E+03  0.00000000000E+00 0.  1.
         22    1    1    2    0    0 -0.13505154459E+03 -0.69811305072E+03  0.86274862878E+02  0.71627097055E+03  0.00000000000E+00 0.  1.
<mgrwt>
<rscale>  0 0.17120439E+04</rscale>
<asrwt>0</asrwt>
<pdfrwt beam="1">  1        1 0.21756779E+00 0.17120439E+04</pdfrwt>
<pdfrwt beam="2">  1       -1 0.79716547E-01 0.17120439E+04</pdfrwt>
<totfact> 0.11218984E+01</totfact>
</mgrwt>
</event>
<event>
 6    1  0.9906445E-006  0.1060227E+04  0.7818608E-02  0.9244848E-01
         -1   -1    0    0    0  501 -0.00000000000E+00  0.00000000000E+00  0.42709890251E+03  0.42709890251E+03  0.00000000000E+00 0.  1.
          1   -1    0    0  501    0  0.00000000000E+00 -0.00000000000E+00 -0.65797518656E+03  0.65797518656E+03  0.00000000000E+00 0. -1.
         23    2    1    2    0    0  0.35376311385E+03  0.10543055748E+03  0.26729198244E+03  0.46504540836E+03  0.92510998186E+02 0.  0.
         11    1    3    3    0    0  0.13981243845E+03  0.63245139791E+02  0.16112241759E+03  0.22250370582E+03  0.00000000000E+00 0.  1.
        -11    1    3    3    0    0  0.21395067540E+03  0.42185417690E+02  0.10616956484E+03  0.24254170253E+03  0.00000000000E+00 0. -1.
         22    1    1    2    0    0 -0.35376311385E+03 -0.10543055748E+03 -0.49816826649E+03  0.62002868072E+03  0.00000000000E+00 0. -1.
<mgrwt>
<rscale>  0 0.10602273E+04</rscale>
<asrwt>0</asrwt>
<pdfrwt beam="1">  1        1 0.10122695E+00 0.10602273E+04</pdfrwt>
<pdfrwt beam="2">  1       -1 0.65707524E-01 0.10602273E+04</pdfrwt>
<totfact> 0.70168876E+01</totfact>
</mgrwt>
</event>
<event>
 6    1  0.9906445E-006  0.3104229E+04  0.7818608E-02  0.8214578E-01
          2   -1    0    0  501    0  0.00000000000E+00  0.00000000000E+00  0.21800104355E+04  0.21800104355E+04  0.00000000000E+00 0. -1.
         -2   -1    0    0    0  501 -0.00000000000E+00 -0.00000000000E+00 -0.11050679425E+04  0.11050679425E+04  0.00000000000E+00 0.  1.
         23    2    1    2    0    0 -0.11687089834E+04 -0.10085113488E+04  0.38063346161E+03  0.15924352203E+04  0.89399497338E+02 0.  0.
         13    1    3    3    0    0 -0.90750421203E+03 -0.76246314721E+03  0.32731126846E+03  0.12296530454E+04  0.00000000000E+00 0. -1.
        -13    1    3    3    0    0 -0.26120477140E+03 -0.24604820154E+03  0.53322193143E+02  0.36278217482E+03  0.00000000000E+00 0.  1.
         22    1    1    2    0    0  0.11687089834E+04  0.10085113488E+04  0.69430903139E+03  0.16926431578E+04  0.00000000000E+00 0. -1.
<mgrwt>
<rscale>  0 0.31042291E+04</rscale>
<asrwt>0</asrwt>
<pdfrwt beam="1">  1        2 0.33538622E+00 0.31042291E+04</pdfrwt>
<pdfrwt beam="2">  1       -2 0.17001045E+00 0.31042291E+04</pdfrwt>
<totfact> 0.95842981E-01</totfact>
</mgrwt>
</event>
<event>
 6    1  0.1155240E-005  0.2399904E+04  0.7818608E-02  0.8439539E-01
         -2   -1    0    0    0  501 -0.00000000000E+00  0.00000000000E+00  0.64670587754E+03  0.64670587754E+03  0.00000000000E+00 0.  1.
          2   -1    0    0  501    0  0.00000000000E+00 -0.00000000000E+00 -0.22264910503E+04  0.22264910503E+04  0.00000000000E+00 0. -1.
         23    2    1    2    0    0  0.61877007619E+03  0.15303038041E+03 -0.20057522995E+04  0.21065531399E+04  0.90714606264E+02 0.  0.
         13    1    3    3    0    0  0.31664619500E+03  0.11933323054E+03 -0.98572975854E+03  0.10421940268E+04  0.00000000000E+00 0. -1.
        -13    1    3    3    0    0  0.30212388119E+03  0.33697149876E+02 -0.10200225410E+04  0.10643591131E+04  0.00000000000E+00 0.  1.
         22    1    1    2    0    0 -0.61877007619E+03 -0.15303038041E+03  0.42596712674E+03  0.76664378794E+03  0.00000000000E+00 0.  1.
<mgrwt>
<rscale>  0 0.23999040E+04</rscale>
<asrwt>0</asrwt>
<pdfrwt beam="1">  1        2 0.34253709E+00 0.23999040E+04</pdfrwt>
<pdfrwt beam="2">  1       -2 0.99493212E-01 0.23999040E+04</pdfrwt>
<totfact> 0.37503457E+00</totfact>
</mgrwt>
</event>
<event>
 6    1  0.9906445E-006  0.1158538E+04  0.7818608E-02  0.9149943E-01
          2   -1    0    0  501    0  0.00000000000E+00  0.00000000000E+00  0.26528462797E+04  0.26528462797E+04  0.00000000000E+00 0. -1.
         -2   -1    0    0    0  501 -0.00000000000E+00 -0.00000000000E+00 -0.12648779601E+03  0.12648779601E+03  0.00000000000E+00 0.  1.
         23    2    1    2    0    0 -0.79667334338E+02  0.55699055487E+03  0.97866879262E+03  0.11325406029E+04  0.90940909911E+02 0.  0.
         11    1    3    3    0    0  0.64507661943E+01  0.75894153587E+02  0.19015261152E+03  0.20484030512E+03  0.00000000000E+00 0. -1.
        -11    1    3    3    0    0 -0.86118100532E+02  0.48109640129E+03  0.78851618110E+03  0.92770029774E+03  0.00000000000E+00 0.  1.
         22    1    1    2    0    0  0.79667334338E+02 -0.55699055487E+03  0.15476896910E+04  0.16467934728E+04  0.00000000000E+00 0. -1.
<mgrwt>
<rscale>  0 0.11585382E+04</rscale>
<asrwt>0</asrwt>
<pdfrwt beam="1">  1        2 0.40813016E+00 0.11585382E+04</pdfrwt>
<pdfrwt beam="2">  1       -2 0.19459663E-01 0.11585382E+04</pdfrwt>
<totfact> 0.63460451E+01</totfact>
</mgrwt>
</event>
<event>
 6    1  0.9906445E-006  0.1354488E+04  0.7818608E-02  0.8987438E-01
         -1   -1    0    0    0  501 -0.00000000000E+00  0.00000000000E+00  0.29296031175E+03  0.29296031175E+03  0.00000000000E+00 0.  1.
          1   -1    0    0  501    0  0.00000000000E+00 -0.00000000000E+00 -0.15656030822E+04  0.15656030822E+04  0.00000000000E+00 0. -1.
         23    2    1    2    0    0 -0.38610134340E+01 -0.66589685359E+03 -0.78340546928E+03  0.10322543332E+04  0.91604323281E+02 0.  0.
         11    1    3    3    0    0  0.27181435163E+02 -0.77047751120E+02 -0.79454806296E+02  0.11396601517E+03  0.00000000000E+00 0. -1.
        -11    1    3    3    0    0 -0.31042448597E+02 -0.58884910247E+03 -0.70395066298E+03  0.91828831802E+03  0.00000000000E+00 0.  1.
         22    1    1    2    0    0  0.38610134340E+01  0.66589685359E+03 -0.48923730121E+03  0.82630906079E+03  0.00000000000E+00 0.  1.
<mgrwt>
<rscale>  0 0.13544882E+04</rscale>
<asrwt>0</asrwt>
<pdfrwt beam="1">  1        1 0.24086202E+00 0.13544882E+04</pdfrwt>
<pdfrwt beam="2">  1       -1 0.45070816E-01 0.13544882E+04</pdfrwt>
<totfact> 0.28154516E+01</totfact>
</mgrwt>
</event>
<event>
 6    1  0.9906445E-006  0.1318041E+04  0.7818608E-02  0.9015380E-01
          1   -1    0    0  501    0  0.00000000000E+00  0.00000000000E+00  0.96754668389E+03  0.96754668389E+03  0.00000000000E+00 0. -1.
         -1   -1    0    0    0  501 -0.00000000000E+00 -0.00000000000E+00 -0.44887522714E+03  0.44887522714E+03  0.00000000000E+00 0.  1.
         23    2    1    2    0    0 -0.26061518960E+03 -0.58575247576E+03  0.40884048052E+03  0.76596892792E+03  0.92366769551E+02 0.  0.
         11    1    3    3    0    0 -0.10306688217E+02 -0.32438247547E+02  0.29108126253E+00  0.34037515395E+02  0.00000000000E+00 0.  1.
        -11    1    3    3    0    0 -0.25030850138E+03 -0.55331422821E+03  0.40854939925E+03  0.73193141252E+03  0.00000000000E+00 0. -1.
         22    1    1    2    0    0  0.26061518960E+03  0.58575247576E+03  0.10983097623E+03  0.65045298312E+03  0.00000000000E+00 0.  1.
<mgrwt>
<rscale>  0 0.13180406E+04</rscale>
<asrwt>0</asrwt>
<pdfrwt beam="1">  1        1 0.14885334E+00 0.13180406E+04</pdfrwt>
<pdfrwt beam="2">  1       -1 0.69057728E-01 0.13180406E+04</pdfrwt>
<totfact> 0.33413900E+01</totfact>
</mgrwt>
</event>
<event>
 6    1  0.9906445E-006  0.2882094E+04  0.7818608E-02  0.8278225E-01
         -1   -1    0    0    0  501 -0.00000000000E+00  0.00000000000E+00  0.85802970047E+03  0.85802970047E+03  0.00000000000E+00 0. -1.
          1   -1    0    0  501    0  0.00000000000E+00 -0.00000000000E+00 -0.24202142851E+04  0.24202142851E+04  0.00000000000E+00 0.  1.
         23    2    1    2    0    0 -0.49850508255E+03 -0.12396689552E+04 -0.17238460299E+03  0.13503356826E+04  0.91670980560E+02 0.  0.
         13    1    3    3    0    0 -0.21341233543E+03 -0.41862189844E+03 -0.73438516655E+02  0.47558630604E+03  0.00000000000E+00 0.  1.
        -13    1    3    3    0    0 -0.28509274711E+03 -0.82104705672E+03 -0.98946086335E+02  0.87474937657E+03  0.00000000000E+00 0. -1.
         22    1    1    2    0    0  0.49850508255E+03  0.12396689552E+04 -0.13897999817E+04  0.19279083030E+04  0.00000000000E+00 0. -1.
<mgrwt>
<rscale>  0 0.28820935E+04</rscale>
<asrwt>0</asrwt>
<pdfrwt beam="1">  1        1 0.37234065E+00 0.28820935E+04</pdfrwt>
<pdfrwt beam="2">  1       -1 0.13200457E+00 0.28820935E+04</pdfrwt>
<totfact> 0.64496994E-01</totfact>
</mgrwt>
</event>
<event>
 6    1  0.9906445E-006  0.1176432E+04  0.7818608E-02  0.9133740E-01
         -1   -1    0    0    0  501 -0.00000000000E+00  0.00000000000E+00  0.28743387634E+03  0.28743387634E+03  0.00000000000E+00 0. -1.
          1   -1    0    0  501    0  0.00000000000E+00 -0.00000000000E+00 -0.12037476298E+04  0.12037476298E+04  0.00000000000E+00 0.  1.
         23    2    1    2    0    0  0.34096015052E+03  0.53163732796E+02  0.13838675766E+03  0.38146380560E+03  0.85343620513E+02 0.  0.
         13    1    3    3    0    0  0.20919196491E+03  0.14985352002E+02  0.12370489377E+03  0.24349279188E+03  0.00000000000E+00 0.  1.
        -13    1    3    3    0    0  0.13176818561E+03  0.38178380793E+02  0.14681863889E+02  0.13797101372E+03  0.00000000000E+00 0. -1.
         22    1    1    2    0    0 -0.34096015052E+03 -0.53163732796E+02 -0.10547005111E+04  0.11097177005E+04  0.00000000000E+00 0.  1.
<mgrwt>
<rscale>  0 0.11764316E+04</rscale>
<asrwt>0</asrwt>
<pdfrwt beam="1">  1        1 0.18519194E+00 0.11764316E+04</pdfrwt>
<pdfrwt beam="2">  1       -1 0.44220596E-01 0.11764316E+04</pdfrwt>
<totfact> 0.53239029E+01</totfact>
</mgrwt>
</event>
<event>
 6    1  0.9906445E-006  0.2986151E+04  0.7818608E-02  0.8247697E-01
         -1   -1    0    0    0  501 -0.00000000000E+00  0.00000000000E+00  0.11348710830E+04  0.11348710830E+04  0.00000000000E+00 0.  1.
          1   -1    0    0  501    0  0.00000000000E+00 -0.00000000000E+00 -0.19643413262E+04  0.19643413262E+04  0.00000000000E+00 0. -1.
         23    2    1    2    0    0  0.84301186371E+03  0.81061196498E+03  0.54595931568E+03  0.12937852488E+04  0.89710286475E+02 0.  0.
         13    1    3    3    0    0  0.66824343257E+03  0.66971657999E+03  0.47303378222E+03  0.10577478631E+04  0.00000000000E+00 0. -1.
        -13    1    3    3    0    0  0.17476843113E+03  0.14089538498E+03  0.72925533456E+02  0.23603738573E+03  0.00000000000E+00 0.  1.
         22    1    1    2    0    0 -0.84301186371E+03 -0.81061196498E+03 -0.13754295589E+04  0.18054271604E+04  0.00000000000E+00 0. -1.
<mgrwt>
<rscale>  0 0.29861508E+04</rscale>
<asrwt>0</asrwt>
<pdfrwt beam="1">  1        1 0.30220635E+00 0.29861508E+04</pdfrwt>
<pdfrwt beam="2">  1       -1 0.17459556E+00 0.29861508E+04</pdfrwt>
<totfact> 0.61137295E-01</totfact>
</mgrwt>
</event>
<event>
 6    1  0.9906445E-006  0.1580877E+04  0.7818608E-02  0.8832383E-01
         -2   -1    0    0    0  501 -0.00000000000E+00  0.00000000000E+00  0.27301004183E+03  0.27301004183E+03  0.00000000000E+00 0. -1.
          2   -1    0    0  501    0  0.00000000000E+00 -0.00000000000E+00 -0.22885347459E+04  0.22885347459E+04  0.00000000000E+00 0.  1.
         23    2    1    2    0    0  0.30824483102E+03 -0.42238579002E+02 -0.21838884817E+04  0.22077859222E+04  0.90281804580E+02 0.  0.
         13    1    3    3    0    0  0.10876953637E+03  0.28264540145E+02 -0.74960519733E+03  0.75798261730E+03  0.00000000000E+00 0. -1.
        -13    1    3    3    0    0  0.19947529465E+03 -0.70503119147E+02 -0.14342832844E+04  0.14498033049E+04  0.00000000000E+00 0.  1.
         22    1    1    2    0    0 -0.30824483102E+03  0.42238579002E+02  0.16836377757E+03  0.35375886562E+03  0.00000000000E+00 0. -1.
<mgrwt>
<rscale>  0 0.15808769E+04</rscale>
<asrwt>0</asrwt>
<pdfrwt beam="1">  1        2 0.35208227E+00 0.15808769E+04</pdfrwt>
<pdfrwt beam="2">  1       -2 0.42001544E-01 0.15808769E+04</pdfrwt>
<totfact> 0.23769722E+01</totfact>
</mgrwt>
</event>
<event>
 6    1  0.9906445E-006  0.2855549E+04  0.7818608E-02  0.8286227E-01
         -2   -1    0    0    0  501 -0.00000000000E+00  0.00000000000E+00  0.12049721443E+04  0.12049721443E+04  0.00000000000E+00 0.  1.
          2   -1    0    0  501    0  0.00000000000E+00 -0.00000000000E+00 -0.16917741513E+04  0.16917741513E+04  0.00000000000E+00 0. -1.
         23    2    1    2    0    0 -0.89817648932E+03  0.55839596784E+02  0.87895714833E+03  0.12611616487E+04  0.90133063427E+02 0.  0.
         11    1    3    3    0    0 -0.14039801476E+03  0.40032262826E+02  0.15733426260E+03  0.21463516675E+03  0.00000000000E+00 0.  1.
        -11    1    3    3    0    0 -0.75777847457E+03  0.15807333958E+02  0.72162288572E+03  0.10465264820E+04  0.00000000000E+00 0. -1.
         22    1    1    2    0    0  0.89817648932E+03 -0.55839596784E+02 -0.13657591553E+04  0.16355846468E+04  0.00000000000E+00 0. -1.
<mgrwt>
<rscale>  0 0.28555495E+04</rscale>
<asrwt>0</asrwt>
<pdfrwt beam="1">  1        2 0.26027295E+00 0.28555495E+04</pdfrwt>
<pdfrwt beam="2">  1       -2 0.18538033E+00 0.28555495E+04</pdfrwt>
<totfact> 0.14300690E+00</totfact>
</mgrwt>
</event>
<event>
 6    1  0.9906445E-006  0.2052829E+04  0.7818608E-02  0.8582312E-01
         -2   -1    0    0    0  501 -0.00000000000E+00  0.00000000000E+00  0.47733687876E+03  0.47733687876E+03  0.00000000000E+00 0.  1.
          2   -1    0    0  501    0  0.00000000000E+00 -0.00000000000E+00 -0.22070917755E+04  0.22070917755E+04  0.00000000000E+00 0. -1.
         23    2    1    2    0    0  0.44851094546E+03  0.76068981392E+03 -0.18772876232E+03  0.90744929017E+03  0.91711857562E+02 0.  0.
         11    1    3    3    0    0  0.32164850864E+03  0.53466246678E+03 -0.89869203217E+02  0.63039526504E+03  0.00000000000E+00 0. -1.
        -11    1    3    3    0    0  0.12686243682E+03  0.22602734714E+03 -0.97859559107E+02  0.27705402513E+03  0.00000000000E+00 0.  1.
         22    1    1    2    0    0 -0.44851094546E+03 -0.76068981392E+03 -0.15420261344E+04  0.17769793641E+04  0.00000000000E+00 0. -1.
<mgrwt>
<rscale>  0 0.20528286E+04</rscale>
<asrwt>0</asrwt>
<pdfrwt beam="1">  1        2 0.33955258E+00 0.20528286E+04</pdfrwt>
<pdfrwt beam="2">  1       -2 0.73436443E-01 0.20528286E+04</pdfrwt>
<totfact> 0.79189895E+00</totfact>
</mgrwt>
</event>
<event>
 6    1  0.9906445E-006  0.1278322E+04  0.7818608E-02  0.9046934E-01
         -2   -1    0    0    0  501 -0.00000000000E+00  0.00000000000E+00  0.24013019688E+03  0.24013019688E+03  0.00000000000E+00 0.  1.
          2   -1    0    0  501    0  0.00000000000E+00 -0.00000000000E+00 -0.17012732116E+04  0.17012732116E+04  0.00000000000E+00 0. -1.
         23    2    1    2    0    0 -0.96350786506E+02 -0.61575153961E+03 -0.54346722160E+03  0.83209628515E+03  0.92704769108E+02 0.  0.
         13    1    3    3    0    0 -0.25803345687E+01 -0.18931613455E+03 -0.12197450675E+03  0.22522219523E+03  0.00000000000E+00 0. -1.
        -13    1    3    3    0    0 -0.93770451937E+02 -0.42643540506E+03 -0.42149271485E+03  0.60687408992E+03  0.00000000000E+00 0.  1.
         22    1    1    2    0    0  0.96350786506E+02  0.61575153961E+03 -0.91767579315E+03  0.11093071234E+04  0.00000000000E+00 0. -1.
<mgrwt>
<rscale>  0 0.12783224E+04</rscale>
<asrwt>0</asrwt>
<pdfrwt beam="1">  1        2 0.26173434E+00 0.12783224E+04</pdfrwt>
<pdfrwt beam="2">  1       -2 0.36943107E-01 0.12783224E+04</pdfrwt>
<totfact> 0.66345816E+01</totfact>
</mgrwt>
</event>
<event>
 6    1  0.9906445E-006  0.2033577E+04  0.7818608E-02  0.8591081E-01
         -2   -1    0    0    0  501 -0.00000000000E+00  0.00000000000E+00  0.40892844514E+03  0.40892844514E+03  0.00000000000E+00 0.  1.
          2   -1    0    0  501    0  0.00000000000E+00 -0.00000000000E+00 -0.25282135505E+04  0.25282135505E+04  0.00000000000E+00 0. -1.
         23    2    1    2    0    0 -0.41438556538E+03 -0.34657800617E+03  0.17915329570E+03  0.57607215453E+03  0.89059040624E+02 0.  0.
         13    1    3    3    0    0 -0.11049099580E+03 -0.12472671860E+03  0.90064099185E+02  0.18941107794E+03  0.00000000000E+00 0. -1.
        -13    1    3    3    0    0 -0.30389456958E+03 -0.22185128757E+03  0.89089196511E+02  0.38666107659E+03  0.00000000000E+00 0.  1.
         22    1    1    2    0    0  0.41438556538E+03  0.34657800617E+03 -0.22984384011E+04  0.23610698411E+04  0.00000000000E+00 0. -1.
<mgrwt>
<rscale>  0 0.20335766E+04</rscale>
<asrwt>0</asrwt>
<pdfrwt beam="1">  1        2 0.38895593E+00 0.20335766E+04</pdfrwt>
<pdfrwt beam="2">  1       -2 0.62912069E-01 0.20335766E+04</pdfrwt>
<totfact> 0.72764111E+00</totfact>
</mgrwt>
</event>
<event>
 6    1  0.9906445E-006  0.1514934E+04  0.7818608E-02  0.8874582E-01
         -2   -1    0    0    0  501 -0.00000000000E+00  0.00000000000E+00  0.21489734013E+03  0.21489734013E+03  0.00000000000E+00 0.  1.
          2   -1    0    0  501    0  0.00000000000E+00 -0.00000000000E+00 -0.26699088455E+04  0.26699088455E+04  0.00000000000E+00 0. -1.
         23    2    1    2    0    0 -0.73303410746E+03 -0.17694820162E+03 -0.12927577626E+04  0.14993519527E+04  0.90465334607E+02 0.  0.
         11    1    3    3    0    0 -0.27107236390E+03 -0.74247869446E+02 -0.39922233036E+03  0.48823297886E+03  0.00000000000E+00 0. -1.
        -11    1    3    3    0    0 -0.46196174356E+03 -0.10270033218E+03 -0.89353543220E+03  0.10111189739E+04  0.00000000000E+00 0.  1.
         22    1    1    2    0    0  0.73303410746E+03  0.17694820162E+03 -0.11622537428E+04  0.13854542329E+04  0.00000000000E+00 0. -1.
<mgrwt>
<rscale>  0 0.15149341E+04</rscale>
<asrwt>0</asrwt>
<pdfrwt beam="1">  1        2 0.41075520E+00 0.15149341E+04</pdfrwt>
<pdfrwt beam="2">  1       -2 0.33061130E-01 0.15149341E+04</pdfrwt>
<totfact> 0.22898288E+01</totfact>
</mgrwt>
</event>
<event>
 6    1  0.9906445E-006  0.1930399E+04  0.7818608E-02  0.8639871E-01
         -2   -1    0    0    0  501 -0.00000000000E+00  0.00000000000E+00  0.24257797963E+03  0.24257797963E+03  0.00000000000E+00 0. -1.
          2   -1    0    0  501    0  0.00000000000E+00 -0.00000000000E+00 -0.38404551729E+04  0.38404551729E+04  0.00000000000E+00 0.  1.
         23    2    1    2    0    0 -0.29439111609E+03 -0.92418986495E+02 -0.37325361567E+04  0.37463724410E+04  0.90955524467E+02 0.  0.
         13    1    3    3    0    0 -0.95876686517E+02 -0.75289969657E+02 -0.13143219072E+04  0.13199632549E+04  0.00000000000E+00 0. -1.
        -13    1    3    3    0    0 -0.19851442958E+03 -0.17129016838E+02 -0.24182142495E+04  0.24264091861E+04  0.00000000000E+00 0.  1.
         22    1    1    2    0    0  0.29439111609E+03  0.92418986495E+02  0.13465896338E+03  0.33666071157E+03  0.00000000000E+00 0. -1.
<mgrwt>
<rscale>  0 0.19303988E+04</rscale>
<asrwt>0</asrwt>
<pdfrwt beam="1">  1        2 0.59083927E+00 0.19303988E+04</pdfrwt>
<pdfrwt beam="2">  1       -2 0.37319688E-01 0.19303988E+04</pdfrwt>
<totfact> 0.29214692E+00</totfact>
</mgrwt>
</event>
<event>
 6    1  0.1139675E-005  0.2692604E+04  0.7818608E-02  0.8337409E-01
         -2   -1    0    0    0  501 -0.00000000000E+00  0.00000000000E+00  0.88885926964E+03  0.88885926964E+03  0.00000000000E+00 0.  1.
          2   -1    0    0  501    0  0.00000000000E+00 -0.00000000000E+00 -0.20391633456E+04  0.20391633456E+04  0.00000000000E+00 0. -1.
         23    2    1    2    0    0 -0.75582918685E+03  0.52772787067E+03  0.48937760579E+03  0.10469775646E+04  0.83048868190E+02 0.  0.
         11    1    3    3    0    0 -0.32733980612E+03  0.27339921162E+03  0.20421267700E+03  0.47286498605E+03  0.00000000000E+00 0. -1.
        -11    1    3    3    0    0 -0.42848938073E+03  0.25432865905E+03  0.28516492879E+03  0.57411257853E+03  0.00000000000E+00 0.  1.
         22    1    1    2    0    0  0.75582918685E+03 -0.52772787067E+03 -0.16396816818E+04  0.18810450507E+04  0.00000000000E+00 0. -1.
<mgrwt>
<rscale>  0 0.26926041E+04</rscale>
<asrwt>0</asrwt>
<pdfrwt beam="1">  1        2 0.31371744E+00 0.26926041E+04</pdfrwt>
<pdfrwt beam="2">  1       -2 0.13674758E+00 0.26926041E+04</pdfrwt>
<totfact> 0.21291829E+00</totfact>
</mgrwt>
</event>
<event>
 6    1  0.9906445E-006  0.1202926E+04  0.7818608E-02  0.9110299E-01
          2   -1    0    0  501    0  0.00000000000E+00  0.00000000000E+00  0.58027367509E+03  0.58027367509E+03  0.00000000000E+00 0.  1.
         -2   -1    0    0    0  501 -0.00000000000E+00 -0.00000000000E+00 -0.62342586140E+03  0.62342586140E+03  0.00000000000E+00 0. -1.
         23    2    1    2    0    0 -0.30245585521E+03  0.44082805671E+03 -0.28947330522E+03  0.61507145904E+03  0.93323016202E+02 0.  0.
         13    1    3    3    0    0 -0.23133427046E+03  0.27273863777E+03 -0.21937749786E+03  0.41955738080E+03  0.00000000000E+00 0. -1.
        -13    1    3    3    0    0 -0.71121584753E+02  0.16808941894E+03 -0.70095807367E+02  0.19551407824E+03  0.00000000000E+00 0.  1.
         22    1    1    2    0    0  0.30245585521E+03 -0.44082805671E+03  0.24632111892E+03  0.58862807745E+03  0.00000000000E+00 0.  1.
<mgrwt>
<rscale>  0 0.12029258E+04</rscale>
<asrwt>0</asrwt>
<pdfrwt beam="1">  1        2 0.89272873E-01 0.12029258E+04</pdfrwt>
<pdfrwt beam="2">  1       -2 0.95911671E-01 0.12029258E+04</pdfrwt>
<totfact> 0.46445598E+01</totfact>
</mgrwt>
</event>
<event>
 6    1  0.9906445E-006  0.3979710E+04  0.7818608E-02  0.8008652E-01
          2   -1    0    0  501    0  0.00000000000E+00  0.00000000000E+00  0.13753450672E+04  0.13753450672E+04  0.00000000000E+00 0. -1.
         -2   -1    0    0    0  501 -0.00000000000E+00 -0.00000000000E+00 -0.28789309374E+04  0.28789309374E+04  0.00000000000E+00 0.  1.
         23    2    1    2    0    0  0.63442842292E+03 -0.14065174632E+04 -0.20935470861E+04  0.26023543858E+04  0.92293821372E+02 0.  0.
         11    1    3    3    0    0  0.24302974374E+03 -0.63912661373E+03 -0.96014409184E+03  0.11787378682E+04  0.00000000000E+00 0.  1.
        -11    1    3    3    0    0  0.39139867918E+03 -0.76739084952E+03 -0.11334029943E+04  0.14236165177E+04  0.00000000000E+00 0. -1.
         22    1    1    2    0    0 -0.63442842292E+03  0.14065174632E+04  0.58996121593E+03  0.16519216188E+04  0.00000000000E+00 0. -1.
<mgrwt>
<rscale>  0 0.39797103E+04</rscale>
<asrwt>0</asrwt>
<pdfrwt beam="1">  1        2 0.21159155E+00 0.39797103E+04</pdfrwt>
<pdfrwt beam="2">  1       -2 0.44291245E+00 0.39797103E+04</pdfrwt>
<totfact> 0.45668867E-02</totfact>
</mgrwt>
</event>
<event>
 6    1  0.9906445E-006  0.1625848E+04  0.7818608E-02  0.8804824E-01
         -2   -1    0    0    0  501 -0.00000000000E+00  0.00000000000E+00  0.99201207237E+03  0.99201207237E+03  0.00000000000E+00 0.  1.
          2   -1    0    0  501    0  0.00000000000E+00 -0.00000000000E+00 -0.66616684952E+03  0.66616684952E+03  0.00000000000E+00 0. -1.
         23    2    1    2    0    0 -0.14502755603E+03 -0.47655850920E+02  0.97514626416E+03  0.99117373872E+03  0.90614963950E+02 0.  0.
         13    1    3    3    0    0 -0.15726717695E+03 -0.45237232495E+02  0.93209357460E+03  0.94634972604E+03  0.00000000000E+00 0. -1.
        -13    1    3    3    0    0  0.12239620918E+02 -0.24186184242E+01  0.43052689555E+02  0.44824012686E+02  0.00000000000E+00 0.  1.
         22    1    1    2    0    0  0.14502755603E+03  0.47655850920E+02 -0.64930104131E+03  0.66700518317E+03  0.00000000000E+00 0. -1.
<mgrwt>
<rscale>  0 0.16258482E+04</rscale>
<asrwt>0</asrwt>
<pdfrwt beam="1">  1        2 0.10248721E+00 0.16258482E+04</pdfrwt>
<pdfrwt beam="2">  1       -2 0.15261724E+00 0.16258482E+04</pdfrwt>
<totfact> 0.11934432E+01</totfact>
</mgrwt>
</event>
<event>
 6    1  0.9906445E-006  0.2163840E+04  0.7818608E-02  0.8533631E-01
         -2   -1    0    0    0  501 -0.00000000000E+00  0.00000000000E+00  0.71136584462E+03  0.71136584462E+03  0.00000000000E+00 0.  1.
          2   -1    0    0  501    0  0.00000000000E+00 -0.00000000000E+00 -0.16454974072E+04  0.16454974072E+04  0.00000000000E+00 0. -1.
         23    2    1    2    0    0 -0.33707417525E+03 -0.71238523976E+03  0.33632929944E+03  0.86181056666E+03  0.92132110049E+02 0.  0.
         11    1    3    3    0    0 -0.11838383269E+03 -0.31558722083E+03  0.18275622489E+03  0.38341865308E+03  0.00000000000E+00 0.  1.
        -11    1    3    3    0    0 -0.21869034256E+03 -0.39679801893E+03  0.15357307455E+03  0.47839191358E+03  0.00000000000E+00 0. -1.
         22    1    1    2    0    0  0.33707417525E+03  0.71238523976E+03 -0.12704608620E+04  0.14950526851E+04  0.00000000000E+00 0.  1.
<mgrwt>
<rscale>  0 0.21638398E+04</rscale>
<asrwt>0</asrwt>
<pdfrwt beam="1">  1        2 0.25315344E+00 0.21638398E+04</pdfrwt>
<pdfrwt beam="2">  1       -2 0.10944090E+00 0.21638398E+04</pdfrwt>
<totfact> 0.64142877E+00</totfact>
</mgrwt>
</event>
<event>
 6    1  0.9906445E-006  0.3094870E+04  0.7818608E-02  0.8217147E-01
         -1   -1    0    0    0  501 -0.00000000000E+00  0.00000000000E+00  0.16946484856E+04  0.16946484856E+04  0.00000000000E+00 0.  1.
          1   -1    0    0  501    0  0.00000000000E+00 -0.00000000000E+00 -0.14130096848E+04  0.14130096848E+04  0.00000000000E+00 0. -1.
         23    2    1    2    0    0 -0.87763686127E+03  0.33280930132E+03  0.13746910456E+04  0.16669043048E+04  0.88238309268E+02 0.  0.
         13    1    3    3    0    0 -0.34953829002E+03  0.93488607667E+02  0.56846745136E+03  0.67384892908E+03  0.00000000000E+00 0.  1.
        -13    1    3    3    0    0 -0.52809857124E+03  0.23932069366E+03  0.80622359422E+03  0.99305537572E+03  0.00000000000E+00 0. -1.
         22    1    1    2    0    0  0.87763686127E+03 -0.33280930132E+03 -0.10930522448E+04  0.14407538656E+04  0.00000000000E+00 0. -1.
<mgrwt>
<rscale>  0 0.30948698E+04</rscale>
<asrwt>0</asrwt>
<pdfrwt beam="1">  1        1 0.21738611E+00 0.30948698E+04</pdfrwt>
<pdfrwt beam="2">  1       -1 0.26071515E+00 0.30948698E+04</pdfrwt>
<totfact> 0.37698506E-01</totfact>
</mgrwt>
</event>
<event>
 6    1  0.9906445E-006  0.1712896E+04  0.7818608E-02  0.8754043E-01
          2   -1    0    0  501    0  0.00000000000E+00  0.00000000000E+00  0.10318654480E+04  0.10318654480E+04  0.00000000000E+00 0. -1.
         -2   -1    0    0    0  501 -0.00000000000E+00 -0.00000000000E+00 -0.71085160251E+03  0.71085160251E+03  0.00000000000E+00 0.  1.
         23    2    1    2    0    0 -0.41216567988E+03 -0.34536842065E+03 -0.51398362072E+03  0.74955006444E+03  0.92120806944E+02 0.  0.
         11    1    3    3    0    0 -0.25908078424E+03 -0.20209454397E+03 -0.37195618134E+03  0.49630278893E+03  0.00000000000E+00 0.  1.
        -11    1    3    3    0    0 -0.15308489565E+03 -0.14327387668E+03 -0.14202743938E+03  0.25324727550E+03  0.00000000000E+00 0. -1.
         22    1    1    2    0    0  0.41216567988E+03  0.34536842065E+03  0.83499746619E+03  0.99316698606E+03  0.00000000000E+00 0. -1.
<mgrwt>
<rscale>  0 0.17128960E+04</rscale>
<asrwt>0</asrwt>
<pdfrwt beam="1">  1        2 0.15874853E+00 0.17128960E+04</pdfrwt>
<pdfrwt beam="2">  1       -2 0.10936178E+00 0.17128960E+04</pdfrwt>
<totfact> 0.15226260E+01</totfact>
</mgrwt>
</event>
<event>
 6    1  0.9906445E-006  0.2101324E+04  0.7818608E-02  0.8560660E-01
          2   -1    0    0  501    0  0.00000000000E+00  0.00000000000E+00  0.40726612089E+04  0.40726612089E+04  0.00000000000E+00 0. -1.
         -2   -1    0    0    0  501 -0.00000000000E+00 -0.00000000000E+00 -0.27104892897E+03  0.27104892897E+03  0.00000000000E+00 0.  1.
         23    2    1    2    0    0  0.53265974059E+03 -0.59365064002E+02  0.37677342097E+04  0.38066828260E+04  0.88104778932E+02 0.  0.
         13    1    3    3    0    0  0.88497661274E+02 -0.28431668509E+02  0.86850192793E+03  0.87346195947E+03  0.00000000000E+00 0. -1.
        -13    1    3    3    0    0  0.44416207932E+03 -0.30933395493E+02  0.28992322818E+04  0.29332208665E+04  0.00000000000E+00 0.  1.
         22    1    1    2    0    0 -0.53265974059E+03  0.59365064002E+02  0.33878070155E+02  0.53702731188E+03  0.00000000000E+00 0.  1.
<mgrwt>
<rscale>  0 0.21013238E+04</rscale>
<asrwt>0</asrwt>
<pdfrwt beam="1">  1        2 0.62656322E+00 0.21013238E+04</pdfrwt>
<pdfrwt beam="2">  1       -2 0.41699838E-01 0.21013238E+04</pdfrwt>
<totfact> 0.15118665E+00</totfact>
</mgrwt>
</event>
<event>
 6    1  0.9906445E-006  0.3004257E+04  0.7818608E-02  0.8242516E-01
         -2   -1    0    0    0  501 -0.00000000000E+00  0.00000000000E+00  0.98358654168E+03  0.98358654168E+03  0.00000000000E+00 0.  1.
          2   -1    0    0  501    0  0.00000000000E+00 -0.00000000000E+00 -0.22940426954E+04  0.22940426954E+04  0.00000000000E+00 0. -1.
         23    2    1    2    0    0  0.60872717000E+03 -0.24701520987E+03 -0.21279670718E+04  0.22288731250E+04  0.89812401112E+02 0.  0.
         13    1    3    3    0    0  0.68383508032E+02 -0.56185286378E+02 -0.33918372333E+03  0.35054056648E+03  0.00000000000E+00 0. -1.
        -13    1    3    3    0    0  0.54034366197E+03 -0.19082992349E+03 -0.17887833484E+04  0.18783325585E+04  0.00000000000E+00 0.  1.
         22    1    1    2    0    0 -0.60872717000E+03  0.24701520987E+03  0.81751091808E+03  0.10487561121E+04  0.00000000000E+00 0.  1.
<mgrwt>
<rscale>  0 0.30042567E+04</rscale>
<asrwt>0</asrwt>
<pdfrwt beam="1">  1        2 0.35292964E+00 0.30042567E+04</pdfrwt>
<pdfrwt beam="2">  1       -2 0.15132101E+00 0.30042567E+04</pdfrwt>
<totfact> 0.11443849E+00</totfact>
</mgrwt>
</event>
<event>
 6    1  0.9906445E-006  0.3127523E+04  0.7818608E-02  0.8208225E-01
          2   -1    0    0  501    0  0.00000000000E+00  0.00000000000E+00  0.19468370604E+04  0.19468370604E+04  0.00000000000E+00 0. -1.
         -2   -1    0    0    0  501 -0.00000000000E+00 -0.00000000000E+00 -0.12560634028E+04  0.12560634028E+04  0.00000000000E+00 0.  1.
         23    2    1    2    0    0 -0.10709092713E+04  0.10870905582E+04  0.14518183777E+01  0.15284521520E+04  0.86898354333E+02 0.  0.
         11    1    3    3    0    0 -0.40517766790E+03  0.40291941001E+03 -0.41104004270E+02  0.57288963395E+03  0.00000000000E+00 0. -1.
        -11    1    3    3    0    0 -0.66573160339E+03  0.68417114824E+03  0.42555822647E+02  0.95556251804E+03  0.00000000000E+00 0.  1.
         22    1    1    2    0    0  0.10709092713E+04 -0.10870905582E+04  0.68932183919E+03  0.16744483113E+04  0.00000000000E+00 0.  1.
<mgrwt>
<rscale>  0 0.31275235E+04</rscale>
<asrwt>0</asrwt>
<pdfrwt beam="1">  1        2 0.29951339E+00 0.31275235E+04</pdfrwt>
<pdfrwt beam="2">  1       -2 0.19324052E+00 0.31275235E+04</pdfrwt>
<totfact> 0.89336750E-01</totfact>
</mgrwt>
</event>
<event>
 6    1  0.9906445E-006  0.1379753E+04  0.7818608E-02  0.8968606E-01
          2   -1    0    0  501    0  0.00000000000E+00  0.00000000000E+00  0.32584141045E+04  0.32584141045E+04  0.00000000000E+00 0. -1.
         -2   -1    0    0    0  501 -0.00000000000E+00 -0.00000000000E+00 -0.14606180695E+03  0.14606180695E+03  0.00000000000E+00 0.  1.
         23    2    1    2    0    0  0.56744940509E+03 -0.74394971677E+02  0.25001414572E+04  0.25664212878E+04  0.90980664865E+02 0.  0.
         11    1    3    3    0    0  0.19638103160E+03 -0.67228853275E+02  0.83366587342E+03  0.85911816230E+03  0.00000000000E+00 0. -1.
        -11    1    3    3    0    0  0.37106837349E+03 -0.71661184021E+01  0.16664755837E+04  0.17073031255E+04  0.00000000000E+00 0.  1.
         22    1    1    2    0    0 -0.56744940509E+03  0.74394971677E+02  0.61221084036E+03  0.83805462365E+03  0.00000000000E+00 0.  1.
<mgrwt>
<rscale>  0 0.13797534E+04</rscale>
<asrwt>0</asrwt>
<pdfrwt beam="1">  1        2 0.50129442E+00 0.13797534E+04</pdfrwt>
<pdfrwt beam="2">  1       -2 0.22471050E-01 0.13797534E+04</pdfrwt>
<totfact> 0.20389629E+01</totfact>
</mgrwt>
</event>
<event>
 6    1  0.9906445E-006  0.2688715E+04  0.7818608E-02  0.8338676E-01
         -1   -1    0    0    0  501 -0.00000000000E+00  0.00000000000E+00  0.30818413625E+04  0.30818413625E+04  0.00000000000E+00 0.  1.
          1   -1    0    0  501    0  0.00000000000E+00 -0.00000000000E+00 -0.58643425871E+03  0.58643425871E+03  0.00000000000E+00 0. -1.
         23    2    1    2    0    0  0.54231520967E+03  0.24207641642E+03  0.28922561897E+04  0.29539955815E+04  0.90759302138E+02 0.  0.
         13    1    3    3    0    0  0.23344681386E+03  0.96128249570E+02  0.14515873227E+04  0.14733783664E+04  0.00000000000E+00 0. -1.
        -13    1    3    3    0    0  0.30886839581E+03  0.14594816685E+03  0.14406688670E+04  0.14806172151E+04  0.00000000000E+00 0.  1.
         22    1    1    2    0    0 -0.54231520967E+03 -0.24207641642E+03 -0.39684908593E+03  0.71428003964E+03  0.00000000000E+00 0. -1.
<mgrwt>
<rscale>  0 0.26887152E+04</rscale>
<asrwt>0</asrwt>
<pdfrwt beam="1">  1        1 0.90220657E-01 0.26887152E+04</pdfrwt>
<pdfrwt beam="2">  1       -1 0.47412943E+00 0.26887152E+04</pdfrwt>
<totfact> 0.68306746E-02</totfact>
</mgrwt>
</event>
<event>
 6    1  0.9906445E-006  0.1749687E+04  0.7818608E-02  0.8733522E-01
         -2   -1    0    0    0  501 -0.00000000000E+00  0.00000000000E+00  0.85422691168E+03  0.85422691168E+03  0.00000000000E+00 0.  1.
          2   -1    0    0  501    0  0.00000000000E+00 -0.00000000000E+00 -0.89595806260E+03  0.89595806260E+03  0.00000000000E+00 0. -1.
         23    2    1    2    0    0  0.54039928276E+03  0.66486226672E+02  0.66136215627E+03  0.86092010836E+03  0.85625510762E+02 0.  0.
         11    1    3    3    0    0  0.46746834634E+03  0.29858143079E+02  0.54262845442E+03  0.71684294172E+03  0.00000000000E+00 0.  1.
        -11    1    3    3    0    0  0.72930936418E+02  0.36628083593E+02  0.11873370185E+03  0.14407716665E+03  0.00000000000E+00 0. -1.
         22    1    1    2    0    0 -0.54039928276E+03 -0.66486226672E+02 -0.70309330719E+03  0.88926486592E+03  0.00000000000E+00 0. -1.
<mgrwt>
<rscale>  0 0.17496874E+04</rscale>
<asrwt>0</asrwt>
<pdfrwt beam="1">  1        2 0.13783970E+00 0.17496874E+04</pdfrwt>
<pdfrwt beam="2">  1       -2 0.13141953E+00 0.17496874E+04</pdfrwt>
<totfact> 0.11815253E+01</totfact>
</mgrwt>
</event>
<event>
 6    1  0.9906445E-006  0.2131229E+04  0.7818608E-02  0.8547610E-01
          1   -1    0    0  501    0  0.00000000000E+00  0.00000000000E+00  0.10070976920E+04  0.10070976920E+04  0.00000000000E+00 0. -1.
         -1   -1    0    0    0  501 -0.00000000000E+00 -0.00000000000E+00 -0.11275315496E+04  0.11275315496E+04  0.00000000000E+00 0.  1.
         23    2    1    2    0    0  0.66817664187E+03 -0.27270631907E+02 -0.88900296498E+03  0.11158543965E+04  0.87184002195E+02 0.  0.
         13    1    3    3    0    0  0.45002590594E+03  0.59905238656E+01 -0.54033285146E+03  0.70322030172E+03  0.00000000000E+00 0. -1.
        -13    1    3    3    0    0  0.21815073593E+03 -0.33261155772E+02 -0.34867011352E+03  0.41263409473E+03  0.00000000000E+00 0.  1.
         22    1    1    2    0    0 -0.66817664187E+03  0.27270631907E+02  0.76856910741E+03  0.10187748451E+04  0.00000000000E+00 0. -1.
<mgrwt>
<rscale>  0 0.21312291E+04</rscale>
<asrwt>0</asrwt>
<pdfrwt beam="1">  1        1 0.15493811E+00 0.21312291E+04</pdfrwt>
<pdfrwt beam="2">  1       -1 0.17346639E+00 0.21312291E+04</pdfrwt>
<totfact> 0.31801529E+00</totfact>
</mgrwt>
</event>
<event>
 6    1  0.9906445E-006  0.3329056E+04  0.7818608E-02  0.8155541E-01
         -1   -1    0    0    0  501 -0.00000000000E+00  0.00000000000E+00  0.10635585402E+04  0.10635585402E+04  0.00000000000E+00 0.  1.
          1   -1    0    0  501    0  0.00000000000E+00 -0.00000000000E+00 -0.26050777438E+04  0.26050777438E+04  0.00000000000E+00 0. -1.
         23    2    1    2    0    0 -0.38993872837E+03 -0.69463826088E+02 -0.25514949934E+04  0.25837729142E+04  0.94224920596E+02 0.  0.
         13    1    3    3    0    0 -0.36867670311E+03 -0.85093651224E+02 -0.23022557741E+04  0.23331406066E+04  0.00000000000E+00 0.  1.
        -13    1    3    3    0    0 -0.21262025264E+02  0.15629825136E+02 -0.24923921928E+03  0.25063230754E+03  0.00000000000E+00 0. -1.
         22    1    1    2    0    0  0.38993872837E+03  0.69463826088E+02  0.10099757898E+04  0.10848633697E+04  0.00000000000E+00 0.  1.
<mgrwt>
<rscale>  0 0.33290555E+04</rscale>
<asrwt>0</asrwt>
<pdfrwt beam="1">  1        1 0.40078119E+00 0.33290555E+04</pdfrwt>
<pdfrwt beam="2">  1       -1 0.16362439E+00 0.33290555E+04</pdfrwt>
<totfact> 0.25981358E-01</totfact>
</mgrwt>
</event>
<event>
 6    1  0.9906445E-006  0.3058968E+04  0.7818608E-02  0.8227090E-01
          2   -1    0    0  501    0  0.00000000000E+00  0.00000000000E+00  0.15217158447E+04  0.15217158447E+04  0.00000000000E+00 0. -1.
         -2   -1    0    0    0  501 -0.00000000000E+00 -0.00000000000E+00 -0.15372919380E+04  0.15372919380E+04  0.00000000000E+00 0.  1.
         23    2    1    2    0    0  0.15934759029E+03  0.73067760070E+03 -0.13404232489E+04  0.15376592373E+04  0.91542521473E+02 0.  0.
         13    1    3    3    0    0  0.13715010102E+03  0.41732174495E+03 -0.78567162339E+03  0.90013748328E+03  0.00000000000E+00 0. -1.
        -13    1    3    3    0    0  0.22197489268E+02  0.31335585576E+03 -0.55475162552E+03  0.63752175405E+03  0.00000000000E+00 0.  1.
         22    1    1    2    0    0 -0.15934759029E+03 -0.73067760070E+03  0.13248471556E+04  0.15213485454E+04  0.00000000000E+00 0. -1.
<mgrwt>
<rscale>  0 0.30589681E+04</rscale>
<asrwt>0</asrwt>
<pdfrwt beam="1">  1        2 0.23411013E+00 0.30589681E+04</pdfrwt>
<pdfrwt beam="2">  1       -2 0.23650645E+00 0.30589681E+04</pdfrwt>
<totfact> 0.81863667E-01</totfact>
</mgrwt>
</event>
<event>
 6    1  0.9906445E-006  0.1401027E+04  0.7818608E-02  0.8953076E-01
          2   -1    0    0  501    0  0.00000000000E+00  0.00000000000E+00  0.67064791991E+03  0.67064791991E+03  0.00000000000E+00 0. -1.
         -2   -1    0    0    0  501 -0.00000000000E+00 -0.00000000000E+00 -0.73170879259E+03  0.73170879259E+03  0.00000000000E+00 0.  1.
         23    2    1    2    0    0 -0.56977224202E+03  0.24552941606E+03  0.28859186299E+03  0.69018950076E+03  0.90283894662E+02 0.  0.
         13    1    3    3    0    0 -0.95067510838E+02  0.17639334741E+02  0.18706673902E+02  0.98483081773E+02  0.00000000000E+00 0.  1.
        -13    1    3    3    0    0 -0.47470473118E+03  0.22789008132E+03  0.26988518909E+03  0.59170641898E+03  0.00000000000E+00 0. -1.
         22    1    1    2    0    0  0.56977224202E+03 -0.24552941606E+03 -0.34965273567E+03  0.71216721175E+03  0.00000000000E+00 0.  1.
<mgrwt>
<rscale>  0 0.14010267E+04</rscale>
<asrwt>0</asrwt>
<pdfrwt beam="1">  1        2 0.10317660E+00 0.14010267E+04</pdfrwt>
<pdfrwt beam="2">  1       -2 0.11257058E+00 0.14010267E+04</pdfrwt>
<totfact> 0.26143502E+01</totfact>
</mgrwt>
</event>
<event>
 6    1  0.9906445E-006  0.1242897E+04  0.7818608E-02  0.9076116E-01
          2   -1    0    0  501    0  0.00000000000E+00  0.00000000000E+00  0.99121960619E+03  0.99121960619E+03  0.00000000000E+00 0. -1.
         -2   -1    0    0    0  501 -0.00000000000E+00 -0.00000000000E+00 -0.38961942845E+03  0.38961942845E+03  0.00000000000E+00 0.  1.
         23    2    1    2    0    0  0.40210520135E+03 -0.33258956824E+03 -0.65742818953E+02  0.53369613695E+03  0.90581645492E+02 0.  0.
         13    1    3    3    0    0  0.31848273699E+03 -0.29723822863E+03 -0.31901114975E+02  0.43680602040E+03  0.00000000000E+00 0. -1.
        -13    1    3    3    0    0  0.83622464362E+02 -0.35351339612E+02 -0.33841703978E+02  0.96890116557E+02  0.00000000000E+00 0.  1.
         22    1    1    2    0    0 -0.40210520135E+03  0.33258956824E+03  0.66734299670E+03  0.84714289768E+03  0.00000000000E+00 0. -1.
<mgrwt>
<rscale>  0 0.12428973E+04</rscale>
<asrwt>0</asrwt>
<pdfrwt beam="1">  1        2 0.15249532E+00 0.12428973E+04</pdfrwt>
<pdfrwt beam="2">  1       -2 0.59941451E-01 0.12428973E+04</pdfrwt>
<totfact> 0.65175990E+01</totfact>
</mgrwt>
</event>
<event>
 6    1  0.9906445E-006  0.2945237E+04  0.7818608E-02  0.8259544E-01
         -2   -1    0    0    0  501 -0.00000000000E+00  0.00000000000E+00  0.17951720516E+04  0.17951720516E+04  0.00000000000E+00 0.  1.
          2   -1    0    0  501    0  0.00000000000E+00 -0.00000000000E+00 -0.12080206958E+04  0.12080206958E+04  0.00000000000E+00 0. -1.
         23    2    1    2    0    0 -0.41487145137E+03  0.14108672811E+04  0.25144297944E+03  0.14947614695E+04  0.91779480348E+02 0.  0.
         11    1    3    3    0    0 -0.14460057296E+02  0.11361279204E+03  0.36516981291E+02  0.12021002327E+03  0.00000000000E+00 0.  1.
        -11    1    3    3    0    0 -0.40041139408E+03  0.12972544890E+04  0.21492599815E+03  0.13745514463E+04  0.00000000000E+00 0. -1.
         22    1    1    2    0    0  0.41487145137E+03 -0.14108672811E+04  0.33570837641E+03  0.15084312778E+04  0.00000000000E+00 0. -1.
<mgrwt>
<rscale>  0 0.29452368E+04</rscale>
<asrwt>0</asrwt>
<pdfrwt beam="1">  1        2 0.18584934E+00 0.29452368E+04</pdfrwt>
<pdfrwt beam="2">  1       -2 0.27618032E+00 0.29452368E+04</pdfrwt>
<totfact> 0.71571181E-01</totfact>
</mgrwt>
</event>
<event>
 6    1  0.9906445E-006  0.2583578E+04  0.7818608E-02  0.8373801E-01
         -1   -1    0    0    0  501 -0.00000000000E+00  0.00000000000E+00  0.70679790583E+03  0.70679790583E+03  0.00000000000E+00 0.  1.
          1   -1    0    0  501    0  0.00000000000E+00 -0.00000000000E+00 -0.23609566020E+04  0.23609566020E+04  0.00000000000E+00 0. -1.
         23    2    1    2    0    0 -0.13571706978E+03 -0.49100785476E+03  0.57909796937E+03  0.77713381234E+03  0.95261050239E+02 0.  0.
         13    1    3    3    0    0 -0.10944015564E+03 -0.25984082868E+03  0.27109162413E+03  0.39113306252E+03  0.00000000000E+00 0. -1.
        -13    1    3    3    0    0 -0.26276914142E+02 -0.23116702607E+03  0.30800634523E+03  0.38600074982E+03  0.00000000000E+00 0.  1.
         22    1    1    2    0    0  0.13571706978E+03  0.49100785476E+03 -0.22332566655E+04  0.22906206955E+04  0.00000000000E+00 0. -1.
<mgrwt>
<rscale>  0 0.25835783E+04</rscale>
<asrwt>0</asrwt>
<pdfrwt beam="1">  1        1 0.36322410E+00 0.25835783E+04</pdfrwt>
<pdfrwt beam="2">  1       -1 0.10873814E+00 0.25835783E+04</pdfrwt>
<totfact> 0.11687293E+00</totfact>
</mgrwt>
</event>
<event>
 6    1  0.9906445E-006  0.3616519E+04  0.7818608E-02  0.8086718E-01
         -2   -1    0    0    0  501 -0.00000000000E+00  0.00000000000E+00  0.19261236612E+04  0.19261236612E+04  0.00000000000E+00 0.  1.
          2   -1    0    0  501    0  0.00000000000E+00 -0.00000000000E+00 -0.16976078818E+04  0.16976078818E+04  0.00000000000E+00 0. -1.
         23    2    1    2    0    0 -0.12079337515E+03 -0.14842034445E+04 -0.91150541950E+03  0.17483384541E+04  0.91620499563E+02 0.  0.
         13    1    3    3    0    0 -0.10370461933E+03 -0.72126532549E+03 -0.43439819882E+03  0.84833962124E+03  0.00000000000E+00 0. -1.
        -13    1    3    3    0    0 -0.17088755821E+02 -0.76293811906E+03 -0.47710722067E+03  0.89999883284E+03  0.00000000000E+00 0.  1.
         22    1    1    2    0    0  0.12079337515E+03  0.14842034445E+04  0.11400211989E+04  0.18753930890E+04  0.00000000000E+00 0.  1.
<mgrwt>
<rscale>  0 0.36165192E+04</rscale>
<asrwt>0</asrwt>
<pdfrwt beam="1">  1        2 0.26117044E+00 0.36165192E+04</pdfrwt>
<pdfrwt beam="2">  1       -2 0.29632672E+00 0.36165192E+04</pdfrwt>
<totfact> 0.26798633E-01</totfact>
</mgrwt>
</event>
<event>
 6    1  0.9906445E-006  0.2371876E+04  0.7818608E-02  0.8450108E-01
          1   -1    0    0  501    0  0.00000000000E+00  0.00000000000E+00  0.12835270023E+04  0.12835270023E+04  0.00000000000E+00 0. -1.
         -1   -1    0    0    0  501 -0.00000000000E+00 -0.00000000000E+00 -0.10957690402E+04  0.10957690402E+04  0.00000000000E+00 0.  1.
         23    2    1    2    0    0 -0.58377726499E+03 -0.33924402121E+03  0.10699727519E+04  0.12683570988E+04  0.89474237600E+02 0.  0.
         13    1    3    3    0    0 -0.24559496753E+03 -0.15779528281E+03  0.38449847655E+03  0.48275803238E+03  0.00000000000E+00 0. -1.
        -13    1    3    3    0    0 -0.33818229746E+03 -0.18144873840E+03  0.68547427539E+03  0.78559906645E+03  0.00000000000E+00 0.  1.
         22    1    1    2    0    0  0.58377726499E+03  0.33924402121E+03 -0.88221478993E+03  0.11109389437E+04  0.00000000000E+00 0.  1.
<mgrwt>
<rscale>  0 0.23718762E+04</rscale>
<asrwt>0</asrwt>
<pdfrwt beam="1">  1        1 0.19746569E+00 0.23718762E+04</pdfrwt>
<pdfrwt beam="2">  1       -1 0.16857985E+00 0.23718762E+04</pdfrwt>
<totfact> 0.21048389E+00</totfact>
</mgrwt>
</event>
<event>
 6    1  0.9906445E-006  0.1830160E+04  0.7818608E-02  0.8690423E-01
         -1   -1    0    0    0  501 -0.00000000000E+00  0.00000000000E+00  0.22833716722E+03  0.22833716722E+03  0.00000000000E+00 0.  1.
          1   -1    0    0  501    0  0.00000000000E+00 -0.00000000000E+00 -0.36672587459E+04  0.36672587459E+04  0.00000000000E+00 0. -1.
         23    2    1    2    0    0  0.44499208992E+03  0.61353211913E+03 -0.28063889684E+04  0.29084094442E+04  0.92665160942E+02 0.  0.
         13    1    3    3    0    0  0.24896802959E+03  0.27251396078E+03 -0.12807725747E+04  0.13329018444E+04  0.00000000000E+00 0. -1.
        -13    1    3    3    0    0  0.19602406033E+03  0.34101815835E+03 -0.15256163937E+04  0.15755075998E+04  0.00000000000E+00 0.  1.
         22    1    1    2    0    0 -0.44499208992E+03 -0.61353211913E+03 -0.63253261030E+03  0.98718646890E+03  0.00000000000E+00 0.  1.
<mgrwt>
<rscale>  0 0.18301601E+04</rscale>
<asrwt>0</asrwt>
<pdfrwt beam="1">  1        1 0.56419366E+00 0.18301601E+04</pdfrwt>
<pdfrwt beam="2">  1       -1 0.35128795E-01 0.18301601E+04</pdfrwt>
<totfact> 0.13415557E+00</totfact>
</mgrwt>
</event>
<event>
 6    1  0.9906445E-006  0.1204685E+04  0.7818608E-02  0.9108765E-01
         -2   -1    0    0    0  501 -0.00000000000E+00  0.00000000000E+00  0.49325842647E+03  0.49325842647E+03  0.00000000000E+00 0.  1.
          2   -1    0    0  501    0  0.00000000000E+00 -0.00000000000E+00 -0.73555082265E+03  0.73555082265E+03  0.00000000000E+00 0. -1.
         23    2    1    2    0    0 -0.22362301495E+03 -0.50095924675E+03  0.12346834721E+03  0.56945476091E+03  0.89815768337E+02 0.  0.
         11    1    3    3    0    0 -0.10991621365E+03 -0.35036049982E+03  0.82900137866E+02  0.37643922048E+03  0.00000000000E+00 0. -1.
        -11    1    3    3    0    0 -0.11370680130E+03 -0.15059874693E+03  0.40568209340E+02  0.19301554043E+03  0.00000000000E+00 0.  1.
         22    1    1    2    0    0  0.22362301495E+03  0.50095924675E+03 -0.36576074339E+03  0.65935448821E+03  0.00000000000E+00 0. -1.
<mgrwt>
<rscale>  0 0.12046853E+04</rscale>
<asrwt>0</asrwt>
<pdfrwt beam="1">  1        2 0.11316166E+00 0.12046853E+04</pdfrwt>
<pdfrwt beam="2">  1       -2 0.75885912E-01 0.12046853E+04</pdfrwt>
<totfact> 0.59044950E+01</totfact>
</mgrwt>
</event>
<event>
 6    1  0.9906445E-006  0.5406408E+03  0.7818608E-02  0.1003684E+00
         -2   -1    0    0    0  501 -0.00000000000E+00  0.00000000000E+00  0.79973744322E+02  0.79973744322E+02  0.00000000000E+00 0. -1.
          2   -1    0    0  501    0  0.00000000000E+00 -0.00000000000E+00 -0.91371383348E+03  0.91371383348E+03  0.00000000000E+00 0.  1.
         23    2    1    2    0    0  0.15220753465E+03  0.12836831250E+03 -0.11346981606E+03  0.24640260969E+03  0.90516792081E+02 0.  0.
         11    1    3    3    0    0  0.75616522082E+02  0.11865127810E+03 -0.62957617987E+02  0.15414164223E+03  0.00000000000E+00 0. -1.
        -11    1    3    3    0    0  0.76591012565E+02  0.97170344012E+01 -0.50512198070E+02  0.92260967462E+02  0.00000000000E+00 0.  1.
         22    1    1    2    0    0 -0.15220753465E+03 -0.12836831250E+03 -0.72027027310E+03  0.74728496811E+03  0.00000000000E+00 0.  1.
<mgrwt>
<rscale>  0 0.54064079E+03</rscale>
<asrwt>0</asrwt>
<pdfrwt beam="1">  1        2 0.14057137E+00 0.54064079E+03</pdfrwt>
<pdfrwt beam="2">  1       -2 0.12303652E-01 0.54064079E+03</pdfrwt>
<totfact> 0.14097931E+03</totfact>
</mgrwt>
</event>
<event>
 6    1  0.9906445E-006  0.2638311E+04  0.7818608E-02  0.8355303E-01
         -1   -1    0    0    0  501 -0.00000000000E+00  0.00000000000E+00  0.68076143824E+03  0.68076143824E+03  0.00000000000E+00 0.  1.
          1   -1    0    0  501    0  0.00000000000E+00 -0.00000000000E+00 -0.25562128592E+04  0.25562128592E+04  0.00000000000E+00 0. -1.
         23    2    1    2    0    0 -0.23307596877E+03  0.10545977899E+04 -0.13017897677E+02  0.10840322326E+04  0.91953847373E+02 0.  0.
         11    1    3    3    0    0 -0.17328199923E+02  0.20304766165E+03  0.21372836749E+02  0.20490343473E+03  0.00000000000E+00 0.  1.
        -11    1    3    3    0    0 -0.21574776885E+03  0.85155012827E+03 -0.34390734426E+02  0.87912879792E+03  0.00000000000E+00 0. -1.
         22    1    1    2    0    0  0.23307596877E+03 -0.10545977899E+04 -0.18624335233E+04  0.21529420648E+04  0.00000000000E+00 0. -1.
<mgrwt>
<rscale>  0 0.26383109E+04</rscale>
<asrwt>0</asrwt>
<pdfrwt beam="1">  1        1 0.39326352E+00 0.26383109E+04</pdfrwt>
<pdfrwt beam="2">  1       -1 0.10473253E+00 0.26383109E+04</pdfrwt>
<totfact> 0.93037103E-01</totfact>
</mgrwt>
</event>
<event>
 6    1  0.9906445E-006  0.2302866E+04  0.7818608E-02  0.8476792E-01
         -2   -1    0    0    0  501 -0.00000000000E+00  0.00000000000E+00  0.53337217079E+03  0.53337217079E+03  0.00000000000E+00 0.  1.
          2   -1    0    0  501    0  0.00000000000E+00 -0.00000000000E+00 -0.24856911233E+04  0.24856911233E+04  0.00000000000E+00 0. -1.
         23    2    1    2    0    0  0.32377484464E+03  0.66798926265E+03 -0.21285488864E+04  0.22561106123E+04  0.90966632959E+02 0.  0.
         13    1    3    3    0    0  0.12717890068E+03  0.27399081637E+03 -0.73499355486E+03  0.79464518241E+03  0.00000000000E+00 0. -1.
        -13    1    3    3    0    0  0.19659594396E+03  0.39399844628E+03 -0.13935553315E+04  0.14614654299E+04  0.00000000000E+00 0.  1.
         22    1    1    2    0    0 -0.32377484464E+03 -0.66798926265E+03  0.17622993386E+03  0.76295268177E+03  0.00000000000E+00 0.  1.
<mgrwt>
<rscale>  0 0.23028664E+04</rscale>
<asrwt>0</asrwt>
<pdfrwt beam="1">  1        2 0.38241402E+00 0.23028664E+04</pdfrwt>
<pdfrwt beam="2">  1       -2 0.82057257E-01 0.23028664E+04</pdfrwt>
<totfact> 0.41978316E+00</totfact>
</mgrwt>
</event>
<event>
 6    1  0.9906445E-006  0.1427017E+04  0.7818608E-02  0.8934491E-01
          2   -1    0    0  501    0  0.00000000000E+00  0.00000000000E+00  0.38875991105E+03  0.38875991105E+03  0.00000000000E+00 0. -1.
         -2   -1    0    0    0  501 -0.00000000000E+00 -0.00000000000E+00 -0.13095335177E+04  0.13095335177E+04  0.00000000000E+00 0.  1.
         23    2    1    2    0    0 -0.15261243909E+03  0.16391817754E+03 -0.12648227636E+04  0.12877699240E+04  0.91733463616E+02 0.  0.
         11    1    3    3    0    0 -0.12861402258E+03  0.15328249913E+03 -0.89861661923E+03  0.92062420113E+03  0.00000000000E+00 0. -1.
        -11    1    3    3    0    0 -0.23998416510E+02  0.10635678408E+02 -0.36620614436E+03  0.36714572287E+03  0.00000000000E+00 0.  1.
         22    1    1    2    0    0  0.15261243909E+03 -0.16391817754E+03  0.34404915699E+03  0.41052350471E+03  0.00000000000E+00 0. -1.
<mgrwt>
<rscale>  0 0.14270167E+04</rscale>
<asrwt>0</asrwt>
<pdfrwt beam="1">  1        2 0.59809218E-01 0.14270167E+04</pdfrwt>
<pdfrwt beam="2">  1       -2 0.20146669E+00 0.14270167E+04</pdfrwt>
<totfact> 0.10367120E+01</totfact>
</mgrwt>
</event>
<event>
 6    1  0.9906445E-006  0.1067287E+04  0.7818608E-02  0.9237676E-01
          2   -1    0    0  501    0  0.00000000000E+00  0.00000000000E+00  0.73427557755E+03  0.73427557755E+03  0.00000000000E+00 0. -1.
         -2   -1    0    0    0  501 -0.00000000000E+00 -0.00000000000E+00 -0.38783181470E+03  0.38783181470E+03  0.00000000000E+00 0.  1.
         23    2    1    2    0    0 -0.10424421178E+03 -0.19438069565E+03  0.68111797512E+03  0.72128631137E+03  0.87644374651E+02 0.  0.
         11    1    3    3    0    0 -0.87558092911E+02 -0.71008669013E+02  0.33495852036E+03  0.35342023297E+03  0.00000000000E+00 0.  1.
        -11    1    3    3    0    0 -0.16686118866E+02 -0.12337202664E+03  0.34615945476E+03  0.36786607840E+03  0.00000000000E+00 0. -1.
         22    1    1    2    0    0  0.10424421178E+03  0.19438069565E+03 -0.33467421226E+03  0.40082108088E+03  0.00000000000E+00 0.  1.
<mgrwt>
<rscale>  0 0.10672871E+04</rscale>
<asrwt>0</asrwt>
<pdfrwt beam="1">  1        2 0.11296547E+00 0.10672871E+04</pdfrwt>
<pdfrwt beam="2">  1       -2 0.59666433E-01 0.10672871E+04</pdfrwt>
<totfact> 0.10052071E+02</totfact>
</mgrwt>
</event>
<event>
 6    1  0.9906445E-006  0.2134950E+04  0.7818608E-02  0.8546002E-01
         -1   -1    0    0    0  501 -0.00000000000E+00  0.00000000000E+00  0.17336340477E+04  0.17336340477E+04  0.00000000000E+00 0.  1.
          1   -1    0    0  501    0  0.00000000000E+00 -0.00000000000E+00 -0.65729157208E+03  0.65729157208E+03  0.00000000000E+00 0. -1.
         23    2    1    2    0    0 -0.38960706064E+03  0.85515512587E+03 -0.23724067110E+02  0.94412558197E+03  0.87899557324E+02 0.  0.
         11    1    3    3    0    0 -0.23200844999E+03  0.58064618959E+03  0.13386943418E+02  0.62542555801E+03  0.00000000000E+00 0. -1.
        -11    1    3    3    0    0 -0.15759861064E+03  0.27450893627E+03 -0.37111010527E+02  0.31870002396E+03  0.00000000000E+00 0.  1.
         22    1    1    2    0    0  0.38960706064E+03 -0.85515512587E+03  0.11000665428E+04  0.14468000378E+04  0.00000000000E+00 0.  1.
<mgrwt>
<rscale>  0 0.21349502E+04</rscale>
<asrwt>0</asrwt>
<pdfrwt beam="1">  1        1 0.10112178E+00 0.21349502E+04</pdfrwt>
<pdfrwt beam="2">  1       -1 0.26671293E+00 0.21349502E+04</pdfrwt>
<totfact> 0.14906981E+00</totfact>
</mgrwt>
</event>
<event>
 6    1  0.9906445E-006  0.2831728E+04  0.7818608E-02  0.8293485E-01
         -2   -1    0    0    0  501 -0.00000000000E+00  0.00000000000E+00  0.12058575462E+04  0.12058575462E+04  0.00000000000E+00 0.  1.
          2   -1    0    0  501    0  0.00000000000E+00 -0.00000000000E+00 -0.16624443185E+04  0.16624443185E+04  0.00000000000E+00 0. -1.
         23    2    1    2    0    0 -0.48113804772E+03 -0.11739118660E+04 -0.86189097969E+03  0.15364481225E+04  0.90850878253E+02 0.  0.
         11    1    3    3    0    0 -0.14450941551E+03 -0.32083058484E+03 -0.19293566961E+03  0.40129715667E+03  0.00000000000E+00 0. -1.
        -11    1    3    3    0    0 -0.33662863221E+03 -0.85308128117E+03 -0.66895531008E+03  0.11351509658E+04  0.00000000000E+00 0.  1.
         22    1    1    2    0    0  0.48113804772E+03  0.11739118660E+04  0.40530420735E+03  0.13318537422E+04  0.00000000000E+00 0.  1.
<mgrwt>
<rscale>  0 0.28317281E+04</rscale>
<asrwt>0</asrwt>
<pdfrwt beam="1">  1        2 0.25576066E+00 0.28317281E+04</pdfrwt>
<pdfrwt beam="2">  1       -2 0.18551655E+00 0.28317281E+04</pdfrwt>
<totfact> 0.14846468E+00</totfact>
</mgrwt>
</event>
<event>
 6    1  0.1603075E-005  0.3264376E+04  0.7818608E-02  0.8172019E-01
         -2   -1    0    0    0  501 -0.00000000000E+00  0.00000000000E+00  0.11482416801E+04  0.11482416801E+04  0.00000000000E+00 0.  1.
          2   -1    0    0  501    0  0.00000000000E+00 -0.00000000000E+00 -0.23201025632E+04  0.23201025632E+04  0.00000000000E+00 0. -1.
         23    2    1    2    0    0 -0.14552130114E+04  0.18396994123E+03 -0.13439874668E+04  0.19914835835E+04  0.90635008826E+02 0.  0.
         13    1    3    3    0    0 -0.32547404610E+03  0.34691640201E+02 -0.25083460292E+03  0.41237708788E+03  0.00000000000E+00 0. -1.
        -13    1    3    3    0    0 -0.11297389653E+04  0.14927830103E+03 -0.10931528639E+04  0.15791064956E+04  0.00000000000E+00 0.  1.
         22    1    1    2    0    0  0.14552130114E+04 -0.18396994123E+03  0.17212658371E+03  0.14768606598E+04  0.00000000000E+00 0. -1.
<mgrwt>
<rscale>  0 0.32643765E+04</rscale>
<asrwt>0</asrwt>
<pdfrwt beam="1">  1        2 0.35693885E+00 0.32643765E+04</pdfrwt>
<pdfrwt beam="2">  1       -2 0.17665257E+00 0.32643765E+04</pdfrwt>
<totfact> 0.70759567E-01</totfact>
</mgrwt>
</event>
<event>
 6    1  0.9906445E-006  0.3356054E+04  0.7818608E-02  0.8148777E-01
          2   -1    0    0  501    0  0.00000000000E+00  0.00000000000E+00  0.26316549652E+04  0.26316549652E+04  0.00000000000E+00 0. -1.
         -2   -1    0    0    0  501 -0.00000000000E+00 -0.00000000000E+00 -0.10699636836E+04  0.10699636836E+04  0.00000000000E+00 0.  1.
         23    2    1    2    0    0  0.62341103059E+03 -0.12834252569E+04 -0.18990405074E+03  0.14424356302E+04  0.93462804044E+02 0.  0.
         11    1    3    3    0    0  0.18216703784E+02 -0.78024180444E+02  0.14335906001E+01  0.80135361812E+02  0.00000000000E+00 0. -1.
        -11    1    3    3    0    0  0.60519432680E+03 -0.12054010764E+04 -0.19133764134E+03  0.13623002684E+04  0.00000000000E+00 0.  1.
         22    1    1    2    0    0 -0.62341103059E+03  0.12834252569E+04  0.17515953324E+04  0.22591830186E+04  0.00000000000E+00 0. -1.
<mgrwt>
<rscale>  0 0.33560544E+04</rscale>
<asrwt>0</asrwt>
<pdfrwt beam="1">  1        2 0.40486999E+00 0.33560544E+04</pdfrwt>
<pdfrwt beam="2">  1       -2 0.16460980E+00 0.33560544E+04</pdfrwt>
<totfact> 0.56468010E-01</totfact>
</mgrwt>
</event>
<event>
 6    1  0.9906445E-006  0.2660309E+04  0.7818608E-02  0.8347999E-01
         -2   -1    0    0    0  501 -0.00000000000E+00  0.00000000000E+00  0.63828637961E+03  0.63828637961E+03  0.00000000000E+00 0.  1.
          2   -1    0    0  501    0  0.00000000000E+00 -0.00000000000E+00 -0.27719707459E+04  0.27719707459E+04  0.00000000000E+00 0. -1.
         23    2    1    2    0    0 -0.87370503702E+03 -0.96290007955E+03 -0.71738456709E+03  0.14876437540E+04  0.88917191526E+02 0.  0.
         11    1    3    3    0    0 -0.55200805359E+03 -0.67066464976E+03 -0.48030124904E+03  0.99256901699E+03  0.00000000000E+00 0.  1.
        -11    1    3    3    0    0 -0.32169698343E+03 -0.29223542979E+03 -0.23708331805E+03  0.49507473705E+03  0.00000000000E+00 0. -1.
         22    1    1    2    0    0  0.87370503702E+03  0.96290007955E+03 -0.14162997992E+04  0.19226133714E+04  0.00000000000E+00 0.  1.
<mgrwt>
<rscale>  0 0.26603091E+04</rscale>
<asrwt>0</asrwt>
<pdfrwt beam="1">  1        2 0.42645703E+00 0.26603091E+04</pdfrwt>
<pdfrwt beam="2">  1       -2 0.98197906E-01 0.26603091E+04</pdfrwt>
<totfact> 0.18243081E+00</totfact>
</mgrwt>
</event>
<event>
 6    1  0.9906445E-006  0.2613018E+04  0.7818608E-02  0.8363793E-01
          3   -1    0    0  501    0  0.00000000000E+00  0.00000000000E+00  0.75919772364E+03  0.75919772364E+03  0.00000000000E+00 0. -1.
         -3   -1    0    0    0  501 -0.00000000000E+00 -0.00000000000E+00 -0.22483815651E+04  0.22483815651E+04  0.00000000000E+00 0.  1.
         23    2    1    2    0    0  0.65150315916E+03  0.53589069704E+03 -0.18914083428E+04  0.20730100002E+04  0.91157755534E+02 0.  0.
         13    1    3    3    0    0  0.50188529634E+03  0.45967413221E+03 -0.15195058105E+04  0.16649585780E+04  0.00000000000E+00 0. -1.
        -13    1    3    3    0    0  0.14961786282E+03  0.76216564826E+02 -0.37190253229E+03  0.40805142219E+03  0.00000000000E+00 0.  1.
         22    1    1    2    0    0 -0.65150315916E+03 -0.53589069704E+03  0.40222450131E+03  0.93456928851E+03  0.00000000000E+00 0. -1.
<mgrwt>
<rscale>  0 0.26130183E+04</rscale>
<asrwt>0</asrwt>
<pdfrwt beam="1">  1        3 0.11679965E+00 0.26130183E+04</pdfrwt>
<pdfrwt beam="2">  1       -3 0.34590485E+00 0.26130183E+04</pdfrwt>
<totfact> 0.29333954E-02</totfact>
</mgrwt>
</event>
<event>
 6    1  0.9906445E-006  0.3480758E+04  0.7818608E-02  0.8118365E-01
         -1   -1    0    0    0  501 -0.00000000000E+00  0.00000000000E+00  0.81922376235E+03  0.81922376235E+03  0.00000000000E+00 0.  1.
          1   -1    0    0  501    0  0.00000000000E+00 -0.00000000000E+00 -0.36973043831E+04  0.36973043831E+04  0.00000000000E+00 0. -1.
         23    2    1    2    0    0 -0.56742997385E+03 -0.10495477875E+04  0.20206558421E+03  0.12133738987E+04  0.88985303861E+02 0.  0.
         13    1    3    3    0    0 -0.34792872028E+03 -0.67186468518E+03  0.16924808348E+03  0.77530733477E+03  0.00000000000E+00 0. -1.
        -13    1    3    3    0    0 -0.21950125357E+03 -0.37768310234E+03  0.32817500736E+02  0.43806656397E+03  0.00000000000E+00 0.  1.
         22    1    1    2    0    0  0.56742997385E+03  0.10495477875E+04 -0.30801462049E+04  0.33031542467E+04  0.00000000000E+00 0. -1.
<mgrwt>
<rscale>  0 0.34807583E+04</rscale>
<asrwt>0</asrwt>
<pdfrwt beam="1">  1        1 0.56881606E+00 0.34807583E+04</pdfrwt>
<pdfrwt beam="2">  1       -1 0.12603442E+00 0.34807583E+04</pdfrwt>
<totfact> 0.77542374E-02</totfact>
</mgrwt>
</event>
<event>
 6    1  0.9906445E-006  0.7870136E+03  0.7818608E-02  0.9579007E-01
          1   -1    0    0  501    0  0.00000000000E+00  0.00000000000E+00  0.17934730174E+03  0.17934730174E+03  0.00000000000E+00 0. -1.
         -1   -1    0    0    0  501 -0.00000000000E+00 -0.00000000000E+00 -0.86339520388E+03  0.86339520388E+03  0.00000000000E+00 0.  1.
         23    2    1    2    0    0  0.26214968650E+03  0.26079435945E+03 -0.50452688034E+03  0.63169025429E+03  0.88028679001E+02 0.  0.
         11    1    3    3    0    0  0.38818352431E+02  0.76713661287E+02 -0.77016273955E+02  0.11542684596E+03  0.00000000000E+00 0.  1.
        -11    1    3    3    0    0  0.22333133407E+03  0.18408069817E+03 -0.42751060639E+03  0.51626340834E+03  0.00000000000E+00 0. -1.
         22    1    1    2    0    0 -0.26214968650E+03 -0.26079435945E+03 -0.17952102180E+03  0.41105225133E+03  0.00000000000E+00 0. -1.
<mgrwt>
<rscale>  0 0.78701360E+03</rscale>
<asrwt>0</asrwt>
<pdfrwt beam="1">  1        1 0.27591893E-01 0.78701360E+03</pdfrwt>
<pdfrwt beam="2">  1       -1 0.13283003E+00 0.78701360E+03</pdfrwt>
<totfact> 0.83546587E+01</totfact>
</mgrwt>
</event>
<event>
 6    1  0.9906445E-006  0.1681307E+04  0.7818608E-02  0.8772098E-01
          1   -1    0    0  501    0  0.00000000000E+00  0.00000000000E+00  0.36198023979E+03  0.36198023979E+03  0.00000000000E+00 0. -1.
         -1   -1    0    0    0  501 -0.00000000000E+00 -0.00000000000E+00 -0.19523122902E+04  0.19523122902E+04  0.00000000000E+00 0.  1.
         23    2    1    2    0    0  0.23788297815E+03  0.64777886859E+03 -0.14253566136E+03  0.71044710165E+03  0.90625027418E+02 0.  0.
         11    1    3    3    0    0  0.12429131597E+03  0.25844739631E+03 -0.95001721925E+02  0.30210712513E+03  0.00000000000E+00 0. -1.
        -11    1    3    3    0    0  0.11359166218E+03  0.38933147228E+03 -0.47533939440E+02  0.40833997652E+03  0.00000000000E+00 0.  1.
         22    1    1    2    0    0 -0.23788297815E+03 -0.64777886859E+03 -0.14477963890E+04  0.16038454283E+04  0.00000000000E+00 0.  1.
<mgrwt>
<rscale>  0 0.16813072E+04</rscale>
<asrwt>0</asrwt>
<pdfrwt beam="1">  1        1 0.55689269E-01 0.16813072E+04</pdfrwt>
<pdfrwt beam="2">  1       -1 0.30035573E+00 0.16813072E+04</pdfrwt>
<totfact> 0.21483699E+00</totfact>
</mgrwt>
</event>
<event>
 6    1  0.9906445E-006  0.3376013E+04  0.7818608E-02  0.8143819E-01
         -2   -1    0    0    0  501 -0.00000000000E+00  0.00000000000E+00  0.98207314370E+03  0.98207314370E+03  0.00000000000E+00 0.  1.
          2   -1    0    0  501    0  0.00000000000E+00 -0.00000000000E+00 -0.29013778079E+04  0.29013778079E+04  0.00000000000E+00 0. -1.
         23    2    1    2    0    0  0.90826694201E+03 -0.13241733692E+04 -0.15544145843E+04  0.22367789381E+04  0.92689636123E+02 0.  0.
         11    1    3    3    0    0  0.63247180191E+03 -0.84447876223E+03 -0.10242691975E+04  0.14704735119E+04  0.00000000000E+00 0. -1.
        -11    1    3    3    0    0  0.27579514009E+03 -0.47969460695E+03 -0.53014538674E+03  0.76630542626E+03  0.00000000000E+00 0.  1.
         22    1    1    2    0    0 -0.90826694201E+03  0.13241733692E+04 -0.36489007995E+03  0.16466720135E+04  0.00000000000E+00 0.  1.
<mgrwt>
<rscale>  0 0.33760126E+04</rscale>
<asrwt>0</asrwt>
<pdfrwt beam="1">  1        2 0.44636581E+00 0.33760126E+04</pdfrwt>
<pdfrwt beam="2">  1       -2 0.15108818E+00 0.33760126E+04</pdfrwt>
<totfact> 0.48890496E-01</totfact>
</mgrwt>
</event>
<event>
 6    1  0.9906445E-006  0.3319813E+04  0.7818608E-02  0.8157872E-01
         -2   -1    0    0    0  501 -0.00000000000E+00  0.00000000000E+00  0.92361313693E+03  0.92361313693E+03  0.00000000000E+00 0.  1.
          2   -1    0    0  501    0  0.00000000000E+00 -0.00000000000E+00 -0.29831642860E+04  0.29831642860E+04  0.00000000000E+00 0. -1.
         23    2    1    2    0    0 -0.96626983953E+03 -0.12910858461E+04 -0.57397659915E+03  0.17141735353E+04  0.91442373810E+02 0.  0.
         13    1    3    3    0    0 -0.59528814617E+03 -0.86057257028E+03 -0.35117353345E+03  0.11037553969E+04  0.00000000000E+00 0. -1.
        -13    1    3    3    0    0 -0.37098169336E+03 -0.43051327586E+03 -0.22280306570E+03  0.61041813832E+03  0.00000000000E+00 0.  1.
         22    1    1    2    0    0  0.96626983953E+03  0.12910858461E+04 -0.14855745499E+04  0.21926038877E+04  0.00000000000E+00 0. -1.
<mgrwt>
<rscale>  0 0.33198131E+04</rscale>
<asrwt>0</asrwt>
<pdfrwt beam="1">  1        2 0.45894835E+00 0.33198131E+04</pdfrwt>
<pdfrwt beam="2">  1       -2 0.14209433E+00 0.33198131E+04</pdfrwt>
<totfact> 0.51362806E-01</totfact>
</mgrwt>
</event>
<event>
 6    1  0.1030918E-005  0.1311000E+04  0.7818608E-02  0.9020887E-01
         -2   -1    0    0    0  501 -0.00000000000E+00  0.00000000000E+00  0.28355804903E+03  0.28355804903E+03  0.00000000000E+00 0. -1.
          2   -1    0    0  501    0  0.00000000000E+00 -0.00000000000E+00 -0.15153174405E+04  0.15153174405E+04  0.00000000000E+00 0.  1.
         23    2    1    2    0    0  0.36981872671E+03  0.53375766677E+03 -0.70361870624E+03  0.96185952739E+03  0.91822269562E+02 0.  0.
         13    1    3    3    0    0  0.19003748739E+03  0.28539184300E+03 -0.30448836807E+03  0.45855852075E+03  0.00000000000E+00 0. -1.
        -13    1    3    3    0    0  0.17978123932E+03  0.24836582377E+03 -0.39913033818E+03  0.50330100664E+03  0.00000000000E+00 0.  1.
         22    1    1    2    0    0 -0.36981872671E+03 -0.53375766677E+03 -0.52814068521E+03  0.83701596212E+03  0.00000000000E+00 0.  1.
<mgrwt>
<rscale>  0 0.13110003E+04</rscale>
<asrwt>0</asrwt>
<pdfrwt beam="1">  1        2 0.23312576E+00 0.13110003E+04</pdfrwt>
<pdfrwt beam="2">  1       -2 0.43624315E-01 0.13110003E+04</pdfrwt>
<totfact> 0.60706454E+01</totfact>
</mgrwt>
</event>
<event>
 6    1  0.9906445E-006  0.1308937E+04  0.7818608E-02  0.9022508E-01
          1   -1    0    0  501    0  0.00000000000E+00  0.00000000000E+00  0.14664048193E+04  0.14664048193E+04  0.00000000000E+00 0. -1.
         -1   -1    0    0    0  501 -0.00000000000E+00 -0.00000000000E+00 -0.29209475794E+03  0.29209475794E+03  0.00000000000E+00 0.  1.
         23    2    1    2    0    0  0.39886285574E+03 -0.17407468867E+03  0.12414735719E+04  0.13181536767E+04  0.82939199237E+02 0.  0.
         11    1    3    3    0    0  0.27154512674E+03 -0.15809125933E+03  0.90923063125E+03  0.96199269381E+03  0.00000000000E+00 0.  1.
        -11    1    3    3    0    0  0.12731772900E+03 -0.15983429346E+02  0.33224294069E+03  0.35616098294E+03  0.00000000000E+00 0. -1.
         22    1    1    2    0    0 -0.39886285574E+03  0.17407468867E+03 -0.67163510591E+02  0.44034590049E+03  0.00000000000E+00 0.  1.
<mgrwt>
<rscale>  0 0.13089372E+04</rscale>
<asrwt>0</asrwt>
<pdfrwt beam="1">  1        1 0.22560074E+00 0.13089372E+04</pdfrwt>
<pdfrwt beam="2">  1       -1 0.44937656E-01 0.13089372E+04</pdfrwt>
<totfact> 0.33275443E+01</totfact>
</mgrwt>
</event>
<event>
 6    1  0.9906445E-006  0.1249463E+04  0.7818608E-02  0.9070631E-01
          2   -1    0    0  501    0  0.00000000000E+00  0.00000000000E+00  0.72172595364E+03  0.72172595364E+03  0.00000000000E+00 0. -1.
         -2   -1    0    0    0  501 -0.00000000000E+00 -0.00000000000E+00 -0.54077207104E+03  0.54077207104E+03  0.00000000000E+00 0.  1.
         23    2    1    2    0    0 -0.15482082635E+03 -0.15783187082E+03 -0.49597084563E+03  0.55038323379E+03  0.89745398827E+02 0.  0.
         13    1    3    3    0    0 -0.89353122746E+02 -0.98070037048E+02 -0.39152440857E+03  0.41339215670E+03  0.00000000000E+00 0. -1.
        -13    1    3    3    0    0 -0.65467703600E+02 -0.59761833771E+02 -0.10444643706E+03  0.13699107710E+03  0.00000000000E+00 0.  1.
         22    1    1    2    0    0  0.15482082635E+03  0.15783187082E+03  0.67692472823E+03  0.71211479089E+03  0.00000000000E+00 0. -1.
<mgrwt>
<rscale>  0 0.12494627E+04</rscale>
<asrwt>0</asrwt>
<pdfrwt beam="1">  1        2 0.11103476E+00 0.12494627E+04</pdfrwt>
<pdfrwt beam="2">  1       -2 0.83195703E-01 0.12494627E+04</pdfrwt>
<totfact> 0.49057439E+01</totfact>
</mgrwt>
</event>
<event>
 6    1  0.9906445E-006  0.3070624E+04  0.7818608E-02  0.8223846E-01
         -1   -1    0    0    0  501 -0.00000000000E+00  0.00000000000E+00  0.10502186053E+04  0.10502186053E+04  0.00000000000E+00 0.  1.
          1   -1    0    0  501    0  0.00000000000E+00 -0.00000000000E+00 -0.22444688051E+04  0.22444688051E+04  0.00000000000E+00 0. -1.
         23    2    1    2    0    0  0.11299720578E+04 -0.87111483657E+03 -0.12022491288E+04  0.18678931391E+04  0.89128566789E+02 0.  0.
         11    1    3    3    0    0  0.57594655269E+03 -0.50005398421E+03 -0.64484775128E+03  0.99879779786E+03  0.00000000000E+00 0. -1.
        -11    1    3    3    0    0  0.55402550513E+03 -0.37106085236E+03 -0.55740137748E+03  0.86909534121E+03  0.00000000000E+00 0.  1.
         22    1    1    2    0    0 -0.11299720578E+04  0.87111483657E+03  0.79989289760E+01  0.14267942714E+04  0.00000000000E+00 0. -1.
<mgrwt>
<rscale>  0 0.30706240E+04</rscale>
<asrwt>0</asrwt>
<pdfrwt beam="1">  1        1 0.34530289E+00 0.30706240E+04</pdfrwt>
<pdfrwt beam="2">  1       -1 0.16157209E+00 0.30706240E+04</pdfrwt>
<totfact> 0.48855596E-01</totfact>
</mgrwt>
</event>
<event>
 6    1  0.9906445E-006  0.1148106E+04  0.7818608E-02  0.9159533E-01
          1   -1    0    0  501    0  0.00000000000E+00  0.00000000000E+00  0.28307271038E+04  0.28307271038E+04  0.00000000000E+00 0.  1.
         -1   -1    0    0    0  501 -0.00000000000E+00 -0.00000000000E+00 -0.11641421943E+03  0.11641421943E+03  0.00000000000E+00 0. -1.
         23    2    1    2    0    0 -0.33019922274E+03 -0.43694515525E+03  0.17752239530E+04  0.18600163919E+04  0.91040097030E+02 0.  0.
         11    1    3    3    0    0 -0.15992071220E+03 -0.28250368843E+03  0.99347433343E+03  0.10451670772E+04  0.00000000000E+00 0. -1.
        -11    1    3    3    0    0 -0.17027851054E+03 -0.15444146682E+03  0.78174961959E+03  0.81484931463E+03  0.00000000000E+00 0.  1.
         22    1    1    2    0    0  0.33019922274E+03  0.43694515525E+03  0.93908893138E+03  0.10871249314E+04  0.00000000000E+00 0.  1.
<mgrwt>
<rscale>  0 0.11481061E+04</rscale>
<asrwt>0</asrwt>
<pdfrwt beam="1">  1        1 0.43549643E+00 0.11481061E+04</pdfrwt>
<pdfrwt beam="2">  1       -1 0.17909882E-01 0.11481061E+04</pdfrwt>
<totfact> 0.19589209E+01</totfact>
</mgrwt>
</event>
<event>
 6    1  0.9906445E-006  0.4863047E+04  0.7818608E-02  0.7849988E-01
          2   -1    0    0  501    0  0.00000000000E+00  0.00000000000E+00  0.23649892320E+04  0.23649892320E+04  0.00000000000E+00 0. -1.
         -2   -1    0    0    0  501 -0.00000000000E+00 -0.00000000000E+00 -0.24999297346E+04  0.24999297346E+04  0.00000000000E+00 0.  1.
         23    2    1    2    0    0  0.18159817391E+04  0.27823043304E+03  0.15246120311E+04  0.23891733289E+04  0.92225264210E+02 0.  0.
         11    1    3    3    0    0  0.44306649754E+03  0.38563909625E+02  0.33443614201E+03  0.55645541551E+03  0.00000000000E+00 0.  1.
        -11    1    3    3    0    0  0.13729152416E+04  0.23966652341E+03  0.11901758891E+04  0.18327179134E+04  0.00000000000E+00 0. -1.
         22    1    1    2    0    0 -0.18159817391E+04 -0.27823043304E+03 -0.16595525337E+04  0.24757456378E+04  0.00000000000E+00 0. -1.
<mgrwt>
<rscale>  0 0.48630472E+04</rscale>
<asrwt>0</asrwt>
<pdfrwt beam="1">  1        2 0.36384450E+00 0.48630472E+04</pdfrwt>
<pdfrwt beam="2">  1       -2 0.38460457E+00 0.48630472E+04</pdfrwt>
<totfact> 0.28654968E-02</totfact>
</mgrwt>
</event>
<event>
 6    1  0.9906445E-006  0.3551253E+04  0.7818608E-02  0.8101750E-01
         -1   -1    0    0    0  501 -0.00000000000E+00  0.00000000000E+00  0.14274221424E+04  0.14274221424E+04  0.00000000000E+00 0.  1.
          1   -1    0    0  501    0  0.00000000000E+00 -0.00000000000E+00 -0.22087721994E+04  0.22087721994E+04  0.00000000000E+00 0. -1.
         23    2    1    2    0    0 -0.86478233656E+03  0.35965950608E+02  0.11949853426E+04  0.14786393249E+04  0.96136594962E+02 0.  0.
         11    1    3    3    0    0 -0.40015705152E+03  0.35061193362E+02  0.62970356427E+03  0.74691467519E+03  0.00000000000E+00 0.  1.
        -11    1    3    3    0    0 -0.46462528503E+03  0.90475724635E+00  0.56528177831E+03  0.73172464969E+03  0.00000000000E+00 0. -1.
         22    1    1    2    0    0  0.86478233656E+03 -0.35965950608E+02 -0.19763353996E+04  0.21575550169E+04  0.00000000000E+00 0. -1.
<mgrwt>
<rscale>  0 0.35512535E+04</rscale>
<asrwt>0</asrwt>
<pdfrwt beam="1">  1        1 0.33981111E+00 0.35512535E+04</pdfrwt>
<pdfrwt beam="2">  1       -1 0.21960341E+00 0.35512535E+04</pdfrwt>
<totfact> 0.19328414E-01</totfact>
</mgrwt>
</event>
<event>
 6    1  0.9906445E-006  0.2488206E+04  0.7818608E-02  0.8407199E-01
          2   -1    0    0  501    0  0.00000000000E+00  0.00000000000E+00  0.15853576748E+04  0.15853576748E+04  0.00000000000E+00 0.  1.
         -2   -1    0    0    0  501 -0.00000000000E+00 -0.00000000000E+00 -0.97630449397E+03  0.97630449397E+03  0.00000000000E+00 0. -1.
         23    2    1    2    0    0  0.15114726217E+03 -0.12330506318E+04  0.32195978065E+03  0.12866398256E+04  0.92328679225E+02 0.  0.
         11    1    3    3    0    0  0.99183820155E+02 -0.57694390914E+03  0.11398668634E+03  0.59640143288E+03  0.00000000000E+00 0. -1.
        -11    1    3    3    0    0  0.51963442018E+02 -0.65610672262E+03  0.20797309431E+03  0.69023839268E+03  0.00000000000E+00 0.  1.
         22    1    1    2    0    0 -0.15114726217E+03  0.12330506318E+04  0.28709340023E+03  0.12750223433E+04  0.00000000000E+00 0.  1.
<mgrwt>
<rscale>  0 0.24882056E+04</rscale>
<asrwt>0</asrwt>
<pdfrwt beam="1">  1        2 0.24390118E+00 0.24882056E+04</pdfrwt>
<pdfrwt beam="2">  1       -2 0.15020069E+00 0.24882056E+04</pdfrwt>
<totfact> 0.30295658E+00</totfact>
</mgrwt>
</event>
<event>
 6    1  0.9906445E-006  0.2839104E+04  0.7818608E-02  0.8291230E-01
          2   -1    0    0  501    0  0.00000000000E+00  0.00000000000E+00  0.12474567108E+04  0.12474567108E+04  0.00000000000E+00 0. -1.
         -2   -1    0    0    0  501 -0.00000000000E+00 -0.00000000000E+00 -0.16153895784E+04  0.16153895784E+04  0.00000000000E+00 0.  1.
         23    2    1    2    0    0  0.81940870147E+03  0.44044205719E+03  0.89486502263E+03  0.12943826023E+04  0.96036902015E+02 0.  0.
         11    1    3    3    0    0  0.35897587567E+03  0.14608933108E+03  0.33949521735E+03  0.51523079739E+03  0.00000000000E+00 0.  1.
        -11    1    3    3    0    0  0.46043282580E+03  0.29435272611E+03  0.55536980527E+03  0.77915180488E+03  0.00000000000E+00 0. -1.
         22    1    1    2    0    0 -0.81940870147E+03 -0.44044205719E+03 -0.12627978902E+04  0.15684636869E+04  0.00000000000E+00 0.  1.
<mgrwt>
<rscale>  0 0.28391045E+04</rscale>
<asrwt>0</asrwt>
<pdfrwt beam="1">  1        2 0.19191642E+00 0.28391045E+04</pdfrwt>
<pdfrwt beam="2">  1       -2 0.24852147E+00 0.28391045E+04</pdfrwt>
<totfact> 0.10102692E+00</totfact>
</mgrwt>
</event>
<event>
 6    1  0.9906445E-006  0.2058600E+04  0.7818608E-02  0.8579703E-01
          1   -1    0    0  501    0  0.00000000000E+00  0.00000000000E+00  0.74789683313E+03  0.74789683313E+03  0.00000000000E+00 0. -1.
         -1   -1    0    0    0  501 -0.00000000000E+00 -0.00000000000E+00 -0.14165832352E+04  0.14165832352E+04  0.00000000000E+00 0.  1.
         23    2    1    2    0    0 -0.71352033488E+03 -0.16830772576E+03  0.42159754013E+03  0.85064680893E+03  0.91742840990E+02 0.  0.
         11    1    3    3    0    0 -0.37439468135E+03 -0.96838985656E+02  0.17030225833E+03  0.42255416902E+03  0.00000000000E+00 0. -1.
        -11    1    3    3    0    0 -0.33912565353E+03 -0.71468740102E+02  0.25129528180E+03  0.42809263991E+03  0.00000000000E+00 0.  1.
         22    1    1    2    0    0  0.71352033488E+03  0.16830772576E+03 -0.10902839422E+04  0.13138332593E+04  0.00000000000E+00 0.  1.
<mgrwt>
<rscale>  0 0.20585996E+04</rscale>
<asrwt>0</asrwt>
<pdfrwt beam="1">  1        1 0.11506105E+00 0.20585996E+04</pdfrwt>
<pdfrwt beam="2">  1       -1 0.21793588E+00 0.20585996E+04</pdfrwt>
<totfact> 0.25794514E+00</totfact>
</mgrwt>
</event>
<event>
 6    1  0.9906445E-006  0.1444898E+04  0.7818608E-02  0.8921945E-01
         -2   -1    0    0    0  501 -0.00000000000E+00  0.00000000000E+00  0.21877076616E+03  0.21877076616E+03  0.00000000000E+00 0.  1.
          2   -1    0    0  501    0  0.00000000000E+00 -0.00000000000E+00 -0.23857519310E+04  0.23857519310E+04  0.00000000000E+00 0. -1.
         23    2    1    2    0    0 -0.13528352594E+03 -0.24212878331E+03 -0.22845782418E+04  0.23032635851E+04  0.93794560024E+02 0.  0.
         13    1    3    3    0    0 -0.64557124417E+02 -0.79757657035E+02 -0.11937002698E+04  0.11981023497E+04  0.00000000000E+00 0.  1.
        -13    1    3    3    0    0 -0.70726401526E+02 -0.16237112627E+03 -0.10908779720E+04  0.11051612354E+04  0.00000000000E+00 0. -1.
         22    1    1    2    0    0  0.13528352594E+03  0.24212878331E+03  0.11759707694E+03  0.30125911206E+03  0.00000000000E+00 0.  1.
<mgrwt>
<rscale>  0 0.14448983E+04</rscale>
<asrwt>0</asrwt>
<pdfrwt beam="1">  1        2 0.36703876E+00 0.14448983E+04</pdfrwt>
<pdfrwt beam="2">  1       -2 0.33657041E-01 0.14448983E+04</pdfrwt>
<totfact> 0.32521064E+01</totfact>
</mgrwt>
</event>
<event>
 6    1  0.9906445E-006  0.2016630E+04  0.7818608E-02  0.8598885E-01
          1   -1    0    0  501    0  0.00000000000E+00  0.00000000000E+00  0.17784952226E+04  0.17784952226E+04  0.00000000000E+00 0. -1.
         -1   -1    0    0    0  501 -0.00000000000E+00 -0.00000000000E+00 -0.57166232392E+03  0.57166232392E+03  0.00000000000E+00 0.  1.
         23    2    1    2    0    0  0.55877307552E+03 -0.70932988766E+03  0.87189846603E+02  0.91176371884E+03  0.91294962478E+02 0.  0.
         13    1    3    3    0    0  0.51475210086E+03 -0.68277868044E+03  0.92577584143E+02  0.86007386944E+03  0.00000000000E+00 0.  1.
        -13    1    3    3    0    0  0.44020974657E+02 -0.26551207225E+02 -0.53877375398E+01  0.51689849397E+02  0.00000000000E+00 0. -1.
         22    1    1    2    0    0 -0.55877307552E+03  0.70932988766E+03  0.11196430521E+04  0.14383938277E+04  0.00000000000E+00 0. -1.
<mgrwt>
<rscale>  0 0.20166296E+04</rscale>
<asrwt>0</asrwt>
<pdfrwt beam="1">  1        1 0.27361465E+00 0.20166296E+04</pdfrwt>
<pdfrwt beam="2">  1       -1 0.87948051E-01 0.20166296E+04</pdfrwt>
<totfact> 0.49599026E+00</totfact>
</mgrwt>
</event>
<event>
 6    1  0.9906445E-006  0.1510862E+04  0.7818608E-02  0.8877262E-01
          1   -1    0    0  501    0  0.00000000000E+00  0.00000000000E+00  0.82287609978E+03  0.82287609978E+03  0.00000000000E+00 0. -1.
         -1   -1    0    0    0  501 -0.00000000000E+00 -0.00000000000E+00 -0.69351427440E+03  0.69351427440E+03  0.00000000000E+00 0.  1.
         23    2    1    2    0    0  0.80298484565E+02  0.29403045335E+03  0.75563046410E+03  0.81988900162E+03  0.91317153853E+02 0.  0.
         13    1    3    3    0    0  0.57181987465E+02  0.66831381263E+02  0.17238567743E+03  0.19352786620E+03  0.00000000000E+00 0. -1.
        -13    1    3    3    0    0  0.23116497100E+02  0.22719907209E+03  0.58324478667E+03  0.62636113543E+03  0.00000000000E+00 0.  1.
         22    1    1    2    0    0 -0.80298484565E+02 -0.29403045335E+03 -0.62626863872E+03  0.69650137255E+03  0.00000000000E+00 0.  1.
<mgrwt>
<rscale>  0 0.15108624E+04</rscale>
<asrwt>0</asrwt>
<pdfrwt beam="1">  1        1 0.12659632E+00 0.15108624E+04</pdfrwt>
<pdfrwt beam="2">  1       -1 0.10669450E+00 0.15108624E+04</pdfrwt>
<totfact> 0.16747832E+01</totfact>
</mgrwt>
</event>
<event>
 6    1  0.9906445E-006  0.1149132E+04  0.7818608E-02  0.9158585E-01
         -1   -1    0    0    0  501 -0.00000000000E+00  0.00000000000E+00  0.26941814895E+03  0.26941814895E+03  0.00000000000E+00 0.  1.
          1   -1    0    0  501    0  0.00000000000E+00 -0.00000000000E+00 -0.12253290923E+04  0.12253290923E+04  0.00000000000E+00 0. -1.
         23    2    1    2    0    0  0.16683987260E+03 -0.22245253739E+03 -0.11298857254E+04  0.11667412973E+04  0.85573523054E+02 0.  0.
         11    1    3    3    0    0  0.10949933752E+03 -0.14418219412E+03 -0.55666788875E+03  0.58536975356E+03  0.00000000000E+00 0.  1.
        -11    1    3    3    0    0  0.57340535071E+02 -0.78270343271E+02 -0.57321783662E+03  0.58137154369E+03  0.00000000000E+00 0. -1.
         22    1    1    2    0    0 -0.16683987260E+03  0.22245253739E+03  0.17397478205E+03  0.32800594396E+03  0.00000000000E+00 0.  1.
<mgrwt>
<rscale>  0 0.11491317E+04</rscale>
<asrwt>0</asrwt>
<pdfrwt beam="1">  1        1 0.18851217E+00 0.11491317E+04</pdfrwt>
<pdfrwt beam="2">  1       -1 0.41448946E-01 0.11491317E+04</pdfrwt>
<totfact> 0.57994454E+01</totfact>
</mgrwt>
</event>
<event>
 6    1  0.9906445E-006  0.5259824E+04  0.7818608E-02  0.7789631E-01
          2   -1    0    0  501    0  0.00000000000E+00  0.00000000000E+00  0.31365784486E+04  0.31365784486E+04  0.00000000000E+00 0. -1.
         -2   -1    0    0    0  501 -0.00000000000E+00 -0.00000000000E+00 -0.22050894575E+04  0.22050894575E+04  0.00000000000E+00 0.  1.
         23    2    1    2    0    0  0.93677469961E+03 -0.11510084571E+04  0.26699091042E+04  0.30559575579E+04  0.89970355101E+02 0.  0.
         13    1    3    3    0    0  0.50689564442E+03 -0.62698013548E+03  0.13581299160E+04  0.15794189290E+04  0.00000000000E+00 0. -1.
        -13    1    3    3    0    0  0.42987905518E+03 -0.52402832166E+03  0.13117791882E+04  0.14765386289E+04  0.00000000000E+00 0.  1.
         22    1    1    2    0    0 -0.93677469961E+03  0.11510084571E+04 -0.17384201131E+04  0.22857103482E+04  0.00000000000E+00 0.  1.
<mgrwt>
<rscale>  0 0.52598236E+04</rscale>
<asrwt>0</asrwt>
<pdfrwt beam="1">  1        2 0.48255053E+00 0.52598236E+04</pdfrwt>
<pdfrwt beam="2">  1       -2 0.33924453E+00 0.52598236E+04</pdfrwt>
<totfact> 0.18469167E-02</totfact>
</mgrwt>
</event>
<event>
 6    1  0.9906445E-006  0.4190207E+03  0.7818608E-02  0.1037386E+00
          1   -1    0    0  501    0  0.00000000000E+00  0.00000000000E+00  0.13468595896E+04  0.13468595896E+04  0.00000000000E+00 0. -1.
         -1   -1    0    0    0  501 -0.00000000000E+00 -0.00000000000E+00 -0.32590320489E+02  0.32590320489E+02  0.00000000000E+00 0.  1.
         23    2    1    2    0    0  0.19917329932E+03  0.11333683294E+02  0.69017158662E+03  0.72424278801E+03  0.91609723626E+02 0.  0.
         11    1    3    3    0    0  0.72179034002E+02  0.36253329822E+01  0.41287058959E+03  0.41914804036E+03  0.00000000000E+00 0. -1.
        -11    1    3    3    0    0  0.12699426532E+03  0.77083503122E+01  0.27730099703E+03  0.30509474765E+03  0.00000000000E+00 0.  1.
         22    1    1    2    0    0 -0.19917329932E+03 -0.11333683294E+02  0.62409768254E+03  0.65520712213E+03  0.00000000000E+00 0.  1.
<mgrwt>
<rscale>  0 0.41902069E+03</rscale>
<asrwt>0</asrwt>
<pdfrwt beam="1">  1        1 0.20720912E+00 0.41902069E+03</pdfrwt>
<pdfrwt beam="2">  1       -1 0.50138965E-02 0.41902069E+03</pdfrwt>
<totfact> 0.15838095E+03</totfact>
</mgrwt>
</event>
<event>
 6    1  0.9906445E-006  0.2231274E+04  0.7818608E-02  0.8505523E-01
         -2   -1    0    0    0  501 -0.00000000000E+00  0.00000000000E+00  0.78931300931E+03  0.78931300931E+03  0.00000000000E+00 0. -1.
          2   -1    0    0  501    0  0.00000000000E+00 -0.00000000000E+00 -0.15768730921E+04  0.15768730921E+04  0.00000000000E+00 0.  1.
         23    2    1    2    0    0  0.97423850214E+03  0.53981415986E+03 -0.40380101842E+03  0.11881321953E+04  0.89793455838E+02 0.  0.
         11    1    3    3    0    0  0.20795225793E+03  0.14628718660E+03 -0.12009469074E+03  0.28118822395E+03  0.00000000000E+00 0.  1.
        -11    1    3    3    0    0  0.76628624420E+03  0.39352697327E+03 -0.28370632768E+03  0.90694397132E+03  0.00000000000E+00 0. -1.
         22    1    1    2    0    0 -0.97423850214E+03 -0.53981415986E+03 -0.38375906433E+03  0.11780539061E+04  0.00000000000E+00 0. -1.
<mgrwt>
<rscale>  0 0.22312745E+04</rscale>
<asrwt>0</asrwt>
<pdfrwt beam="1">  1        2 0.24259586E+00 0.22312745E+04</pdfrwt>
<pdfrwt beam="2">  1       -2 0.12143277E+00 0.22312745E+04</pdfrwt>
<totfact> 0.54011188E+00</totfact>
</mgrwt>
</event>
<event>
 6    1  0.9906445E-006  0.3055991E+04  0.7818608E-02  0.8227921E-01
         -1   -1    0    0    0  501 -0.00000000000E+00  0.00000000000E+00  0.78940165388E+03  0.78940165388E+03  0.00000000000E+00 0.  1.
          1   -1    0    0  501    0  0.00000000000E+00 -0.00000000000E+00 -0.29576453940E+04  0.29576453940E+04  0.00000000000E+00 0. -1.
         23    2    1    2    0    0 -0.11758150441E+04  0.62827418602E+03 -0.19971483026E+04  0.24029699968E+04  0.91618732476E+02 0.  0.
         11    1    3    3    0    0 -0.89006041594E+03  0.43217218736E+03 -0.15004871305E+04  0.17973430313E+04  0.00000000000E+00 0. -1.
        -11    1    3    3    0    0 -0.28575462813E+03  0.19610199867E+03 -0.49666117214E+03  0.60562696545E+03  0.00000000000E+00 0.  1.
         22    1    1    2    0    0  0.11758150441E+04 -0.62827418602E+03 -0.17109543758E+03  0.13440770512E+04  0.00000000000E+00 0.  1.
<mgrwt>
<rscale>  0 0.30559909E+04</rscale>
<asrwt>0</asrwt>
<pdfrwt beam="1">  1        1 0.45502237E+00 0.30559909E+04</pdfrwt>
<pdfrwt beam="2">  1       -1 0.12144641E+00 0.30559909E+04</pdfrwt>
<totfact> 0.32649119E-01</totfact>
</mgrwt>
</event>
<event>
 6    1  0.9906445E-006  0.6600986E+03  0.7818608E-02  0.9788012E-01
         -1   -1    0    0    0  501 -0.00000000000E+00  0.00000000000E+00  0.10797374695E+03  0.10797374695E+03  0.00000000000E+00 0.  1.
          1   -1    0    0  501    0  0.00000000000E+00 -0.00000000000E+00 -0.10088799949E+04  0.10088799949E+04  0.00000000000E+00 0. -1.
         23    2    1    2    0    0  0.22125807284E+03 -0.14383402873E+03 -0.14268236659E+03  0.31401701070E+03  0.92763476952E+02 0.  0.
         13    1    3    3    0    0  0.22814271340E+03 -0.12725336732E+03 -0.13809371423E+03  0.29548670204E+03  0.00000000000E+00 0.  1.
        -13    1    3    3    0    0 -0.68846405630E+01 -0.16580661414E+02 -0.45886523588E+01  0.18530308661E+02  0.00000000000E+00 0. -1.
         22    1    1    2    0    0 -0.22125807284E+03  0.14383402873E+03 -0.75822388132E+03  0.80283673111E+03  0.00000000000E+00 0. -1.
<mgrwt>
<rscale>  0 0.66009864E+03</rscale>
<asrwt>0</asrwt>
<pdfrwt beam="1">  1        1 0.15521231E+00 0.66009864E+03</pdfrwt>
<pdfrwt beam="2">  1       -1 0.16611345E-01 0.66009864E+03</pdfrwt>
<totfact> 0.42013024E+02</totfact>
</mgrwt>
</event>
<event>
 6    1  0.9906445E-006  0.1739807E+04  0.7818608E-02  0.8738981E-01
         -2   -1    0    0    0  501 -0.00000000000E+00  0.00000000000E+00  0.53626234134E+03  0.53626234134E+03  0.00000000000E+00 0.  1.
          2   -1    0    0  501    0  0.00000000000E+00 -0.00000000000E+00 -0.14111231197E+04  0.14111231197E+04  0.00000000000E+00 0. -1.
         23    2    1    2    0    0  0.38028641855E+03  0.10842657789E+03 -0.13029816733E+04  0.13645805334E+04  0.89133091926E+02 0.  0.
         13    1    3    3    0    0  0.27022924716E+03  0.44958519062E+02 -0.97818510749E+03  0.10158204659E+04  0.00000000000E+00 0. -1.
        -13    1    3    3    0    0  0.11005717139E+03  0.63468058827E+02 -0.32479656584E+03  0.34876006745E+03  0.00000000000E+00 0.  1.
         22    1    1    2    0    0 -0.38028641855E+03 -0.10842657789E+03  0.42812089501E+03  0.58280492763E+03  0.00000000000E+00 0.  1.
<mgrwt>
<rscale>  0 0.17398071E+04</rscale>
<asrwt>0</asrwt>
<pdfrwt beam="1">  1        2 0.21709586E+00 0.17398071E+04</pdfrwt>
<pdfrwt beam="2">  1       -2 0.82501900E-01 0.17398071E+04</pdfrwt>
<totfact> 0.17442292E+01</totfact>
</mgrwt>
</event>
<event>
 6    1  0.9906445E-006  0.4692894E+04  0.7818608E-02  0.7877710E-01
          2   -1    0    0  501    0  0.00000000000E+00  0.00000000000E+00  0.35629119759E+04  0.35629119759E+04  0.00000000000E+00 0. -1.
         -2   -1    0    0    0  501 -0.00000000000E+00 -0.00000000000E+00 -0.15453126827E+04  0.15453126827E+04  0.00000000000E+00 0.  1.
         23    2    1    2    0    0 -0.70714352171E+03  0.18836944982E+04  0.23216518018E+04  0.30733278920E+04  0.83188462408E+02 0.  0.
         13    1    3    3    0    0 -0.33700354412E+03  0.78856160642E+03  0.96615449252E+03  0.12918418244E+04  0.00000000000E+00 0.  1.
        -13    1    3    3    0    0 -0.37013997758E+03  0.10951328918E+04  0.13554973092E+04  0.17814860676E+04  0.00000000000E+00 0. -1.
         22    1    1    2    0    0  0.70714352171E+03 -0.18836944982E+04 -0.30405250853E+03  0.20348967666E+04  0.00000000000E+00 0.  1.
<mgrwt>
<rscale>  0 0.46928938E+04</rscale>
<asrwt>0</asrwt>
<pdfrwt beam="1">  1        2 0.54814030E+00 0.46928938E+04</pdfrwt>
<pdfrwt beam="2">  1       -2 0.23774041E+00 0.46928938E+04</pdfrwt>
<totfact> 0.41794426E-02</totfact>
</mgrwt>
</event>
<event>
 6    1  0.9906445E-006  0.6252789E+03  0.7818608E-02  0.9854305E-01
         -2   -1    0    0    0  501 -0.00000000000E+00  0.00000000000E+00  0.10615860632E+03  0.10615860632E+03  0.00000000000E+00 0.  1.
          2   -1    0    0  501    0  0.00000000000E+00 -0.00000000000E+00 -0.92073025443E+03  0.92073025443E+03  0.00000000000E+00 0. -1.
         23    2    1    2    0    0  0.18402696123E+03 -0.17090795640E+03 -0.70308782253E+03  0.75210877526E+03  0.90882735437E+02 0.  0.
         13    1    3    3    0    0  0.24811409637E+02 -0.79828596966E+02 -0.22787166710E+03  0.24272146095E+03  0.00000000000E+00 0.  1.
        -13    1    3    3    0    0  0.15921555159E+03 -0.91079359435E+02 -0.47521615544E+03  0.50938731430E+03  0.00000000000E+00 0. -1.
         22    1    1    2    0    0 -0.18402696123E+03  0.17090795640E+03 -0.11148382558E+03  0.27478008550E+03  0.00000000000E+00 0.  1.
<mgrwt>
<rscale>  0 0.62527895E+03</rscale>
<asrwt>0</asrwt>
<pdfrwt beam="1">  1        2 0.14165080E+00 0.62527895E+03</pdfrwt>
<pdfrwt beam="2">  1       -2 0.16332094E-01 0.62527895E+03</pdfrwt>
<totfact> 0.86658960E+02</totfact>
</mgrwt>
</event>
<event>
 6    1  0.9906445E-006  0.8977904E+03  0.7818608E-02  0.9428348E-01
         -1   -1    0    0    0  501 -0.00000000000E+00  0.00000000000E+00  0.15678895759E+03  0.15678895759E+03  0.00000000000E+00 0.  1.
          1   -1    0    0  501    0  0.00000000000E+00 -0.00000000000E+00 -0.12852110457E+04  0.12852110457E+04  0.00000000000E+00 0. -1.
         23    2    1    2    0    0 -0.14200306591E+02  0.42382305802E+03 -0.78220518583E+03  0.89455705957E+03  0.92518900135E+02 0.  0.
         11    1    3    3    0    0 -0.17872270809E+02  0.46700593385E+02 -0.15318331846E+03  0.16113811635E+03  0.00000000000E+00 0. -1.
        -11    1    3    3    0    0  0.36719642185E+01  0.37712246463E+03 -0.62902186736E+03  0.73341894322E+03  0.00000000000E+00 0.  1.
         22    1    1    2    0    0  0.14200306591E+02 -0.42382305802E+03 -0.34621690232E+03  0.54744294375E+03  0.00000000000E+00 0. -1.
<mgrwt>
<rscale>  0 0.89779040E+03</rscale>
<asrwt>0</asrwt>
<pdfrwt beam="1">  1        1 0.19772478E+00 0.89779040E+03</pdfrwt>
<pdfrwt beam="2">  1       -1 0.24121377E-01 0.89779040E+03</pdfrwt>
<totfact> 0.13903371E+02</totfact>
</mgrwt>
</event>
<event>
 6    1  0.9906445E-006  0.1812051E+04  0.7818608E-02  0.8699917E-01
          2   -1    0    0  501    0  0.00000000000E+00  0.00000000000E+00  0.11030530677E+04  0.11030530677E+04  0.00000000000E+00 0. -1.
         -2   -1    0    0    0  501 -0.00000000000E+00 -0.00000000000E+00 -0.74419085138E+03  0.74419085138E+03  0.00000000000E+00 0.  1.
         23    2    1    2    0    0 -0.37087188059E+03  0.74976732103E+03 -0.16852079632E+03  0.85839113454E+03  0.93483119183E+02 0.  0.
         11    1    3    3    0    0 -0.25066064412E+03  0.43399981527E+03 -0.67326661550E+02  0.50568713402E+03  0.00000000000E+00 0.  1.
        -11    1    3    3    0    0 -0.12021123647E+03  0.31576750577E+03 -0.10119413477E+03  0.35270400052E+03  0.00000000000E+00 0. -1.
         22    1    1    2    0    0  0.37087188059E+03 -0.74976732103E+03  0.52738301268E+03  0.98885278458E+03  0.00000000000E+00 0. -1.
<mgrwt>
<rscale>  0 0.18120508E+04</rscale>
<asrwt>0</asrwt>
<pdfrwt beam="1">  1        2 0.16970047E+00 0.18120508E+04</pdfrwt>
<pdfrwt beam="2">  1       -2 0.11449090E+00 0.18120508E+04</pdfrwt>
<totfact> 0.12196761E+01</totfact>
</mgrwt>
</event>
<event>
 6    1  0.9906445E-006  0.1953335E+04  0.7818608E-02  0.8628754E-01
          1   -1    0    0  501    0  0.00000000000E+00  0.00000000000E+00  0.60702058727E+03  0.60702058727E+03  0.00000000000E+00 0. -1.
         -1   -1    0    0    0  501 -0.00000000000E+00 -0.00000000000E+00 -0.15714117490E+04  0.15714117490E+04  0.00000000000E+00 0.  1.
         23    2    1    2    0    0 -0.22316152328E+03  0.48141195869E+03  0.42837122303E+03  0.68801440835E+03  0.91122894684E+02 0.  0.
         11    1    3    3    0    0 -0.10874631365E+03  0.26644208535E+03  0.17611719159E+03  0.33739355470E+03  0.00000000000E+00 0.  1.
        -11    1    3    3    0    0 -0.11441520964E+03  0.21496987334E+03  0.25225403144E+03  0.35062085366E+03  0.00000000000E+00 0. -1.
         22    1    1    2    0    0  0.22316152328E+03 -0.48141195869E+03 -0.13927623847E+04  0.14904179279E+04  0.00000000000E+00 0.  1.
<mgrwt>
<rscale>  0 0.19533349E+04</rscale>
<asrwt>0</asrwt>
<pdfrwt beam="1">  1        1 0.93387784E-01 0.19533349E+04</pdfrwt>
<pdfrwt beam="2">  1       -1 0.24175565E+00 0.19533349E+04</pdfrwt>
<totfact> 0.24760261E+00</totfact>
</mgrwt>
</event>
<event>
 6    1  0.9906445E-006  0.1439542E+04  0.7818608E-02  0.8925683E-01
         -1   -1    0    0    0  501 -0.00000000000E+00  0.00000000000E+00  0.45996579957E+03  0.45996579957E+03  0.00000000000E+00 0.  1.
          1   -1    0    0  501    0  0.00000000000E+00 -0.00000000000E+00 -0.11263240778E+04  0.11263240778E+04  0.00000000000E+00 0. -1.
         23    2    1    2    0    0 -0.60983435999E+03  0.36619391003E+03 -0.24047684346E+03  0.75721151989E+03  0.97694663295E+02 0.  0.
         11    1    3    3    0    0 -0.40300218029E+03  0.19394638287E+03 -0.17450748582E+03  0.48008209647E+03  0.00000000000E+00 0. -1.
        -11    1    3    3    0    0 -0.20683217970E+03  0.17224752716E+03 -0.65969357644E+02  0.27712942342E+03  0.00000000000E+00 0.  1.
         22    1    1    2    0    0  0.60983435999E+03 -0.36619391003E+03 -0.42588143478E+03  0.82907835749E+03  0.00000000000E+00 0.  1.
<mgrwt>
<rscale>  0 0.14395424E+04</rscale>
<asrwt>0</asrwt>
<pdfrwt beam="1">  1        1 0.17328063E+00 0.14395424E+04</pdfrwt>
<pdfrwt beam="2">  1       -1 0.70763969E-01 0.14395424E+04</pdfrwt>
<totfact> 0.23761228E+01</totfact>
</mgrwt>
</event>
<event>
 6    1  0.9906445E-006  0.3589876E+04  0.7818608E-02  0.8092815E-01
          2   -1    0    0  501    0  0.00000000000E+00  0.00000000000E+00  0.29310880947E+04  0.29310880947E+04  0.00000000000E+00 0. -1.
         -2   -1    0    0    0  501 -0.00000000000E+00 -0.00000000000E+00 -0.10991832185E+04  0.10991832185E+04  0.00000000000E+00 0.  1.
         23    2    1    2    0    0 -0.87924273035E+03 -0.14889522734E+04  0.14521132369E+04  0.22598791701E+04  0.91511524567E+02 0.  0.
         13    1    3    3    0    0 -0.35420758222E+03 -0.57588478186E+03  0.51204449507E+03  0.84811311641E+03  0.00000000000E+00 0.  1.
        -13    1    3    3    0    0 -0.52503514813E+03 -0.91306749152E+03  0.94006874187E+03  0.14117660537E+04  0.00000000000E+00 0. -1.
         22    1    1    2    0    0  0.87924273035E+03  0.14889522734E+04  0.37979163927E+03  0.17703921432E+04  0.00000000000E+00 0.  1.
<mgrwt>
<rscale>  0 0.35898762E+04</rscale>
<asrwt>0</asrwt>
<pdfrwt beam="1">  1        2 0.45093663E+00 0.35898762E+04</pdfrwt>
<pdfrwt beam="2">  1       -2 0.16910511E+00 0.35898762E+04</pdfrwt>
<totfact> 0.33892558E-01</totfact>
</mgrwt>
</event>
<event>
 6    1  0.9906445E-006  0.3253458E+04  0.7818608E-02  0.8174840E-01
          2   -1    0    0  501    0  0.00000000000E+00  0.00000000000E+00  0.30388848931E+04  0.30388848931E+04  0.00000000000E+00 0. -1.
         -2   -1    0    0    0  501 -0.00000000000E+00 -0.00000000000E+00 -0.87079536954E+03  0.87079536954E+03  0.00000000000E+00 0.  1.
         23    2    1    2    0    0  0.16170577766E+04  0.42364473621E+02  0.89371116218E+03  0.18503816419E+04  0.92314559316E+02 0.  0.
         11    1    3    3    0    0  0.10887072520E+04 -0.18908877769E+01  0.63601061168E+03  0.12608713472E+04  0.00000000000E+00 0.  1.
        -11    1    3    3    0    0  0.52835052456E+03  0.44255361398E+02  0.25770055051E+03  0.58951029469E+03  0.00000000000E+00 0. -1.
         22    1    1    2    0    0 -0.16170577766E+04 -0.42364473621E+02  0.12743783614E+04  0.20592986208E+04  0.00000000000E+00 0.  1.
<mgrwt>
<rscale>  0 0.32534578E+04</rscale>
<asrwt>0</asrwt>
<pdfrwt beam="1">  1        2 0.46752075E+00 0.32534578E+04</pdfrwt>
<pdfrwt beam="2">  1       -2 0.13396852E+00 0.32534578E+04</pdfrwt>
<totfact> 0.55466071E-01</totfact>
</mgrwt>
</event>
<event>
 6    1  0.9906445E-006  0.1869189E+04  0.7818608E-02  0.8670347E-01
         -1   -1    0    0    0  501 -0.00000000000E+00  0.00000000000E+00  0.67864319488E+03  0.67864319488E+03  0.00000000000E+00 0.  1.
          1   -1    0    0  501    0  0.00000000000E+00 -0.00000000000E+00 -0.12870786552E+04  0.12870786552E+04  0.00000000000E+00 0. -1.
         23    2    1    2    0    0 -0.17221325887E+03  0.64451468733E+03  0.38094743877E+03  0.77243432826E+03  0.80481374601E+02 0.  0.
         13    1    3    3    0    0 -0.11674294263E+03  0.34485743694E+03  0.17010923314E+03  0.40186156530E+03  0.00000000000E+00 0. -1.
        -13    1    3    3    0    0 -0.55470316241E+02  0.29965725039E+03  0.21083820564E+03  0.37057276297E+03  0.00000000000E+00 0.  1.
         22    1    1    2    0    0  0.17221325887E+03 -0.64451468733E+03 -0.98938289910E+03  0.11932875218E+04  0.00000000000E+00 0. -1.
<mgrwt>
<rscale>  0 0.18691893E+04</rscale>
<asrwt>0</asrwt>
<pdfrwt beam="1">  1        1 0.19801210E+00 0.18691893E+04</pdfrwt>
<pdfrwt beam="2">  1       -1 0.10440664E+00 0.18691893E+04</pdfrwt>
<totfact> 0.74784200E+00</totfact>
</mgrwt>
</event>
<event>
 6    1  0.9906445E-006  0.2302695E+04  0.7818608E-02  0.8476859E-01
         -2   -1    0    0    0  501 -0.00000000000E+00  0.00000000000E+00  0.33712514165E+03  0.33712514165E+03  0.00000000000E+00 0.  1.
          2   -1    0    0  501    0  0.00000000000E+00 -0.00000000000E+00 -0.39320740240E+04  0.39320740240E+04  0.00000000000E+00 0. -1.
         23    2    1    2    0    0  0.10903003183E+04 -0.30957282765E+03 -0.14430611385E+04  0.18370784898E+04  0.88553985869E+02 0.  0.
         11    1    3    3    0    0  0.44357250410E+03 -0.95273552263E+02 -0.62868466543E+03  0.77529221891E+03  0.00000000000E+00 0. -1.
        -11    1    3    3    0    0  0.64672781425E+03 -0.21429927539E+03 -0.81437647306E+03  0.10617862709E+04  0.00000000000E+00 0.  1.
         22    1    1    2    0    0 -0.10903003183E+04  0.30957282765E+03 -0.21518877438E+04  0.24321206758E+04  0.00000000000E+00 0.  1.
<mgrwt>
<rscale>  0 0.23026950E+04</rscale>
<asrwt>0</asrwt>
<pdfrwt beam="1">  1        2 0.60493444E+00 0.23026950E+04</pdfrwt>
<pdfrwt beam="2">  1       -2 0.51865409E-01 0.23026950E+04</pdfrwt>
<totfact> 0.12405237E+00</totfact>
</mgrwt>
</event>
<event>
 6    1  0.1183354E-005  0.2750562E+04  0.7818608E-02  0.8318783E-01
          2   -1    0    0  501    0  0.00000000000E+00  0.00000000000E+00  0.23668342684E+04  0.23668342684E+04  0.00000000000E+00 0. -1.
         -2   -1    0    0    0  501 -0.00000000000E+00 -0.00000000000E+00 -0.79912539517E+03  0.79912539517E+03  0.00000000000E+00 0.  1.
         23    2    1    2    0    0 -0.11070184266E+04 -0.51594290250E+03  0.15087877307E+04  0.19431928925E+04  0.88720491710E+02 0.  0.
         13    1    3    3    0    0 -0.67833675052E+03 -0.30968485287E+03  0.85224785749E+03  0.11324185913E+04  0.00000000000E+00 0.  1.
        -13    1    3    3    0    0 -0.42868167605E+03 -0.20625804962E+03  0.65653987323E+03  0.81077430124E+03  0.00000000000E+00 0. -1.
         22    1    1    2    0    0  0.11070184266E+04  0.51594290250E+03  0.58921142515E+02  0.12227667711E+04  0.00000000000E+00 0.  1.
<mgrwt>
<rscale>  0 0.27505617E+04</rscale>
<asrwt>0</asrwt>
<pdfrwt beam="1">  1        2 0.36412835E+00 0.27505617E+04</pdfrwt>
<pdfrwt beam="2">  1       -2 0.12294237E+00 0.27505617E+04</pdfrwt>
<totfact> 0.18134477E+00</totfact>
</mgrwt>
</event>
<event>
 6    1  0.9906445E-006  0.1552427E+04  0.7818608E-02  0.8850319E-01
         -2   -1    0    0    0  501 -0.00000000000E+00  0.00000000000E+00  0.64234630034E+03  0.64234630034E+03  0.00000000000E+00 0.  1.
          2   -1    0    0  501    0  0.00000000000E+00 -0.00000000000E+00 -0.93797863635E+03  0.93797863635E+03  0.00000000000E+00 0. -1.
         23    2    1    2    0    0 -0.70255246404E+03  0.32357906803E+03 -0.16286802264E+03  0.79552576434E+03  0.89732217894E+02 0.  0.
         13    1    3    3    0    0 -0.15517978521E+03  0.61177464588E+02 -0.72257605860E+02  0.18178176343E+03  0.00000000000E+00 0. -1.
        -13    1    3    3    0    0 -0.54737267883E+03  0.26240160344E+03 -0.90610416775E+02  0.61374400091E+03  0.00000000000E+00 0.  1.
         22    1    1    2    0    0  0.70255246404E+03 -0.32357906803E+03 -0.13276431337E+03  0.78479917234E+03  0.00000000000E+00 0. -1.
<mgrwt>
<rscale>  0 0.15524266E+04</rscale>
<asrwt>0</asrwt>
<pdfrwt beam="1">  1        2 0.14430441E+00 0.15524266E+04</pdfrwt>
<pdfrwt beam="2">  1       -2 0.98822508E-01 0.15524266E+04</pdfrwt>
<totfact> 0.22611076E+01</totfact>
</mgrwt>
</event>
<event>
 6    1  0.9906445E-006  0.1646516E+04  0.7818608E-02  0.8792470E-01
          2   -1    0    0  501    0  0.00000000000E+00  0.00000000000E+00  0.15337383382E+04  0.15337383382E+04  0.00000000000E+00 0. -1.
         -2   -1    0    0    0  501 -0.00000000000E+00 -0.00000000000E+00 -0.44189676295E+03  0.44189676295E+03  0.00000000000E+00 0.  1.
         23    2    1    2    0    0  0.52037512063E+03 -0.32715453777E+02  0.13082728148E+04  0.14110971941E+04  0.88073639726E+02 0.  0.
         11    1    3    3    0    0  0.34625177442E+03 -0.56671674731E+02  0.93004945576E+03  0.99402915458E+03  0.00000000000E+00 0.  1.
        -11    1    3    3    0    0  0.17412334620E+03  0.23956220954E+02  0.37822335908E+03  0.41706803950E+03  0.00000000000E+00 0. -1.
         22    1    1    2    0    0 -0.52037512063E+03  0.32715453777E+02 -0.21643123957E+03  0.56453790709E+03  0.00000000000E+00 0.  1.
<mgrwt>
<rscale>  0 0.16465163E+04</rscale>
<asrwt>0</asrwt>
<pdfrwt beam="1">  1        2 0.23595974E+00 0.16465163E+04</pdfrwt>
<pdfrwt beam="2">  1       -2 0.67984118E-01 0.16465163E+04</pdfrwt>
<totfact> 0.22997409E+01</totfact>
</mgrwt>
</event>
<event>
 6    1  0.9906445E-006  0.3353444E+03  0.7818608E-02  0.1068796E+00
         -1   -1    0    0    0  501 -0.00000000000E+00  0.00000000000E+00  0.24100421843E+03  0.24100421843E+03  0.00000000000E+00 0.  1.
          1   -1    0    0  501    0  0.00000000000E+00 -0.00000000000E+00 -0.11665342686E+03  0.11665342686E+03  0.00000000000E+00 0. -1.
         23    2    1    2    0    0 -0.11411547371E+03  0.64944362646E+02 -0.22707171303E+02  0.16051263262E+03  0.89490658850E+02 0.  0.
         11    1    3    3    0    0 -0.35411391347E+02  0.48359289724E+02 -0.47355575922E+02  0.76388075710E+02  0.00000000000E+00 0. -1.
        -11    1    3    3    0    0 -0.78704082364E+02  0.16585072922E+02  0.24648404619E+02  0.84124556907E+02  0.00000000000E+00 0.  1.
         22    1    1    2    0    0  0.11411547371E+03 -0.64944362646E+02  0.14705796287E+03  0.19714501267E+03  0.00000000000E+00 0. -1.
<mgrwt>
<rscale>  0 0.33534441E+03</rscale>
<asrwt>0</asrwt>
<pdfrwt beam="1">  1        1 0.17946681E-01 0.33534441E+03</pdfrwt>
<pdfrwt beam="2">  1       -1 0.37077572E-01 0.33534441E+03</pdfrwt>
<totfact> 0.20841565E+03</totfact>
</mgrwt>
</event>
<event>
 6    1  0.9906445E-006  0.1005015E+04  0.7818608E-02  0.9303061E-01
         -2   -1    0    0    0  501 -0.00000000000E+00  0.00000000000E+00  0.69458980853E+03  0.69458980853E+03  0.00000000000E+00 0.  1.
          2   -1    0    0  501    0  0.00000000000E+00 -0.00000000000E+00 -0.36354403595E+03  0.36354403595E+03  0.00000000000E+00 0. -1.
         23    2    1    2    0    0 -0.77775304735E+02 -0.28758646811E+03  0.58739735659E+03  0.66510571661E+03  0.92601215265E+02 0.  0.
         13    1    3    3    0    0 -0.11980645521E+02 -0.16563718526E+03  0.24754166387E+03  0.29808738376E+03  0.00000000000E+00 0. -1.
        -13    1    3    3    0    0 -0.65794659214E+02 -0.12194928285E+03  0.33985569273E+03  0.36701833285E+03  0.00000000000E+00 0.  1.
         22    1    1    2    0    0  0.77775304735E+02  0.28758646811E+03 -0.25635158401E+03  0.39302812786E+03  0.00000000000E+00 0. -1.
<mgrwt>
<rscale>  0 0.10050154E+04</rscale>
<asrwt>0</asrwt>
<pdfrwt beam="1">  1        2 0.55929852E-01 0.10050154E+04</pdfrwt>
<pdfrwt beam="2">  1       -2 0.10685997E+00 0.10050154E+04</pdfrwt>
<totfact> 0.62287285E+01</totfact>
</mgrwt>
</event>
<event>
 6    1  0.9906445E-006  0.2620198E+04  0.7818608E-02  0.8361373E-01
         -2   -1    0    0    0  501 -0.00000000000E+00  0.00000000000E+00  0.18690613579E+04  0.18690613579E+04  0.00000000000E+00 0.  1.
          2   -1    0    0  501    0  0.00000000000E+00 -0.00000000000E+00 -0.91830035702E+03  0.91830035702E+03  0.00000000000E+00 0. -1.
         23    2    1    2    0    0  0.17175972205E+03 -0.12956028635E+04  0.40666097998E+03  0.13716876653E+04  0.89809332994E+02 0.  0.
         13    1    3    3    0    0  0.70522769417E+02 -0.41182496912E+03  0.17088635630E+03  0.45141490113E+03  0.00000000000E+00 0. -1.
        -13    1    3    3    0    0  0.10123695264E+03 -0.88377789441E+03  0.23577462368E+03  0.92027276413E+03  0.00000000000E+00 0.  1.
         22    1    1    2    0    0 -0.17175972205E+03  0.12956028635E+04  0.54410002087E+03  0.14156740496E+04  0.00000000000E+00 0.  1.
<mgrwt>
<rscale>  0 0.26201982E+04</rscale>
<asrwt>0</asrwt>
<pdfrwt beam="1">  1        2 0.14127698E+00 0.26201982E+04</pdfrwt>
<pdfrwt beam="2">  1       -2 0.28754790E+00 0.26201982E+04</pdfrwt>
<totfact> 0.95324064E-01</totfact>
</mgrwt>
</event>
<event>
 6    1  0.9906445E-006  0.1276191E+04  0.7818608E-02  0.9048662E-01
          2   -1    0    0  501    0  0.00000000000E+00  0.00000000000E+00  0.17660069651E+04  0.17660069651E+04  0.00000000000E+00 0. -1.
         -2   -1    0    0    0  501 -0.00000000000E+00 -0.00000000000E+00 -0.23055739209E+03  0.23055739209E+03  0.00000000000E+00 0.  1.
         23    2    1    2    0    0 -0.51936220491E+02  0.57123730160E+03  0.11946920136E+04  0.13293873641E+04  0.10474889417E+03 0.  0.
         11    1    3    3    0    0 -0.92413793071E+01  0.28444649224E+03  0.70522589623E+03  0.76048588071E+03  0.00000000000E+00 0. -1.
        -11    1    3    3    0    0 -0.42694841184E+02  0.28679080936E+03  0.48946611736E+03  0.56890148342E+03  0.00000000000E+00 0.  1.
         22    1    1    2    0    0  0.51936220491E+02 -0.57123730160E+03  0.34075755937E+03  0.66717699302E+03  0.00000000000E+00 0.  1.
<mgrwt>
<rscale>  0 0.12761911E+04</rscale>
<asrwt>0</asrwt>
<pdfrwt beam="1">  1        2 0.27169337E+00 0.12761911E+04</pdfrwt>
<pdfrwt beam="2">  1       -2 0.35470369E-01 0.12761911E+04</pdfrwt>
<totfact> 0.66068299E+01</totfact>
</mgrwt>
</event>
<event>
 6    1  0.9906445E-006  0.1699435E+04  0.7818608E-02  0.8761686E-01
          2   -1    0    0  501    0  0.00000000000E+00  0.00000000000E+00  0.14934379067E+04  0.14934379067E+04  0.00000000000E+00 0. -1.
         -2   -1    0    0    0  501 -0.00000000000E+00 -0.00000000000E+00 -0.48346179563E+03  0.48346179563E+03  0.00000000000E+00 0.  1.
         23    2    1    2    0    0  0.53506534188E+03  0.27274328998E+03  0.12017465928E+04  0.13464556208E+04  0.89800016719E+02 0.  0.
         13    1    3    3    0    0  0.11762150759E+03  0.31323782015E+02  0.30247633822E+03  0.32604897416E+03  0.00000000000E+00 0.  1.
        -13    1    3    3    0    0  0.41744383428E+03  0.24141950796E+03  0.89927025463E+03  0.10204066466E+04  0.00000000000E+00 0. -1.
         22    1    1    2    0    0 -0.53506534188E+03 -0.27274328998E+03 -0.19177048176E+03  0.63044408156E+03  0.00000000000E+00 0.  1.
<mgrwt>
<rscale>  0 0.16994354E+04</rscale>
<asrwt>0</asrwt>
<pdfrwt beam="1">  1        2 0.22975968E+00 0.16994354E+04</pdfrwt>
<pdfrwt beam="2">  1       -2 0.74378738E-01 0.16994354E+04</pdfrwt>
<totfact> 0.19815263E+01</totfact>
</mgrwt>
</event>
<event>
 6    1  0.9906445E-006  0.4542658E+04  0.7818608E-02  0.7903211E-01
          2   -1    0    0  501    0  0.00000000000E+00  0.00000000000E+00  0.26856839353E+04  0.26856839353E+04  0.00000000000E+00 0. -1.
         -2   -1    0    0    0  501 -0.00000000000E+00 -0.00000000000E+00 -0.19209019189E+04  0.19209019189E+04  0.00000000000E+00 0.  1.
         23    2    1    2    0    0  0.14772908138E+04  0.28703786653E+03 -0.13413105296E+04  0.20180718602E+04  0.93387423125E+02 0.  0.
         13    1    3    3    0    0  0.12860482172E+03  0.96352944234E+01 -0.87657842338E+02  0.15593568030E+03  0.00000000000E+00 0. -1.
        -13    1    3    3    0    0  0.13486859921E+04  0.27740257210E+03 -0.12536526872E+04  0.18621361799E+04  0.00000000000E+00 0.  1.
         22    1    1    2    0    0 -0.14772908138E+04 -0.28703786653E+03  0.21060925459E+04  0.25885139941E+04  0.00000000000E+00 0. -1.
<mgrwt>
<rscale>  0 0.45426580E+04</rscale>
<asrwt>0</asrwt>
<pdfrwt beam="1">  1        2 0.41318214E+00 0.45426580E+04</pdfrwt>
<pdfrwt beam="2">  1       -2 0.29552337E+00 0.45426580E+04</pdfrwt>
<totfact> 0.69220544E-02</totfact>
</mgrwt>
</event>
<event>
 6    1  0.9906445E-006  0.2920891E+04  0.7818608E-02  0.8266689E-01
          2   -1    0    0  501    0  0.00000000000E+00  0.00000000000E+00  0.10725016463E+04  0.10725016463E+04  0.00000000000E+00 0. -1.
         -2   -1    0    0    0  501 -0.00000000000E+00 -0.00000000000E+00 -0.19887158482E+04  0.19887158482E+04  0.00000000000E+00 0.  1.
         23    2    1    2    0    0  0.12125907224E+04  0.75709219433E+03 -0.15179068583E+03  0.14401350898E+04  0.85929120678E+02 0.  0.
         11    1    3    3    0    0  0.60765964443E+03  0.42684325931E+03 -0.63683392144E+02  0.74531938518E+03  0.00000000000E+00 0.  1.
        -11    1    3    3    0    0  0.60493107801E+03  0.33024893501E+03 -0.88107293689E+02  0.69481570465E+03  0.00000000000E+00 0. -1.
         22    1    1    2    0    0 -0.12125907224E+04 -0.75709219433E+03 -0.76442351610E+03  0.16210824047E+04  0.00000000000E+00 0. -1.
<mgrwt>
<rscale>  0 0.29208910E+04</rscale>
<asrwt>0</asrwt>
<pdfrwt beam="1">  1        2 0.16500026E+00 0.29208910E+04</pdfrwt>
<pdfrwt beam="2">  1       -2 0.30595628E+00 0.29208910E+04</pdfrwt>
<totfact> 0.57044710E-01</totfact>
</mgrwt>
</event>
<event>
 6    1  0.9906445E-006  0.2233061E+04  0.7818608E-02  0.8504792E-01
         -1   -1    0    0    0  501 -0.00000000000E+00  0.00000000000E+00  0.96437092837E+03  0.96437092837E+03  0.00000000000E+00 0.  1.
          1   -1    0    0  501    0  0.00000000000E+00 -0.00000000000E+00 -0.12926981518E+04  0.12926981518E+04  0.00000000000E+00 0. -1.
         23    2    1    2    0    0  0.88260463400E+03  0.77288152836E+01 -0.85269669816E+03  0.12304172304E+04  0.88228267739E+02 0.  0.
         11    1    3    3    0    0  0.49032598446E+03  0.27174229092E+02 -0.52530889350E+03  0.71910183100E+03  0.00000000000E+00 0.  1.
        -11    1    3    3    0    0  0.39227864954E+03 -0.19445413809E+02 -0.32738780466E+03  0.51131539938E+03  0.00000000000E+00 0. -1.
         22    1    1    2    0    0 -0.88260463400E+03 -0.77288152836E+01  0.52436947476E+03  0.10266518498E+04  0.00000000000E+00 0.  1.
<mgrwt>
<rscale>  0 0.22330611E+04</rscale>
<asrwt>0</asrwt>
<pdfrwt beam="1">  1        1 0.19887664E+00 0.22330611E+04</pdfrwt>
<pdfrwt beam="2">  1       -1 0.14836476E+00 0.22330611E+04</pdfrwt>
<totfact> 0.29911698E+00</totfact>
</mgrwt>
</event>
<event>
 6    1  0.9906445E-006  0.9748388E+03  0.7818608E-02  0.9336580E-01
          1   -1    0    0  501    0  0.00000000000E+00  0.00000000000E+00  0.11690467907E+04  0.11690467907E+04  0.00000000000E+00 0. -1.
         -1   -1    0    0    0  501 -0.00000000000E+00 -0.00000000000E+00 -0.20322339034E+03  0.20322339034E+03  0.00000000000E+00 0.  1.
         23    2    1    2    0    0 -0.24139483642E+03  0.31884365368E+03  0.10383599416E+03  0.42203072123E+03  0.85995775689E+02 0.  0.
         13    1    3    3    0    0 -0.76057140492E+02  0.79457781866E+02  0.66957864140E+02  0.12876949673E+03  0.00000000000E+00 0. -1.
        -13    1    3    3    0    0 -0.16533769592E+03  0.23938587182E+03  0.36878130021E+02  0.29326122450E+03  0.00000000000E+00 0.  1.
         22    1    1    2    0    0  0.24139483642E+03 -0.31884365368E+03  0.86198740617E+03  0.95023945979E+03  0.00000000000E+00 0. -1.
<mgrwt>
<rscale>  0 0.97483876E+03</rscale>
<asrwt>0</asrwt>
<pdfrwt beam="1">  1        1 0.17985335E+00 0.97483876E+03</pdfrwt>
<pdfrwt beam="2">  1       -1 0.31265138E-01 0.97483876E+03</pdfrwt>
<totfact> 0.10713649E+02</totfact>
</mgrwt>
</event>
<event>
 6    1  0.9906445E-006  0.1426897E+04  0.7818608E-02  0.8934576E-01
          2   -1    0    0  501    0  0.00000000000E+00  0.00000000000E+00  0.16878490374E+04  0.16878490374E+04  0.00000000000E+00 0. -1.
         -2   -1    0    0    0  501 -0.00000000000E+00 -0.00000000000E+00 -0.30157263713E+03  0.30157263713E+03  0.00000000000E+00 0.  1.
         23    2    1    2    0    0 -0.33908700632E+03  0.16733780381E+03 -0.14259921383E+03  0.41447958613E+03  0.92069827302E+02 0.  0.
         11    1    3    3    0    0 -0.14337276017E+03  0.12165287187E+03 -0.75082560851E+02  0.20246619603E+03  0.00000000000E+00 0.  1.
        -11    1    3    3    0    0 -0.19571424615E+03  0.45684931939E+02 -0.67516652981E+02  0.21201339010E+03  0.00000000000E+00 0. -1.
         22    1    1    2    0    0  0.33908700632E+03 -0.16733780381E+03  0.15288756141E+04  0.15749420884E+04  0.00000000000E+00 0. -1.
<mgrwt>
<rscale>  0 0.14268975E+04</rscale>
<asrwt>0</asrwt>
<pdfrwt beam="1">  1        2 0.25966908E+00 0.14268975E+04</pdfrwt>
<pdfrwt beam="2">  1       -2 0.46395791E-01 0.14268975E+04</pdfrwt>
<totfact> 0.42612728E+01</totfact>
</mgrwt>
</event>
<event>
 6    1  0.9906445E-006  0.1537343E+04  0.7818608E-02  0.8859993E-01
         -1   -1    0    0    0  501 -0.00000000000E+00  0.00000000000E+00  0.46539439871E+03  0.46539439871E+03  0.00000000000E+00 0.  1.
          1   -1    0    0  501    0  0.00000000000E+00 -0.00000000000E+00 -0.12695812169E+04  0.12695812169E+04  0.00000000000E+00 0. -1.
         23    2    1    2    0    0  0.11208584223E+03 -0.17852641850E+03  0.42776282700E+03  0.48512168559E+03  0.89034238005E+02 0.  0.
         11    1    3    3    0    0  0.45813565058E+02 -0.74798495722E+02  0.27663889263E+03  0.29021160319E+03  0.00000000000E+00 0. -1.
        -11    1    3    3    0    0  0.66272277172E+02 -0.10372792277E+03  0.15112393436E+03  0.19491008240E+03  0.00000000000E+00 0.  1.
         22    1    1    2    0    0 -0.11208584223E+03  0.17852641850E+03 -0.12319496452E+04  0.12498539300E+04  0.00000000000E+00 0. -1.
<mgrwt>
<rscale>  0 0.15373431E+04</rscale>
<asrwt>0</asrwt>
<pdfrwt beam="1">  1        1 0.19532018E+00 0.15373431E+04</pdfrwt>
<pdfrwt beam="2">  1       -1 0.71599140E-01 0.15373431E+04</pdfrwt>
<totfact> 0.18066221E+01</totfact>
</mgrwt>
</event>
<event>
 6    1  0.9906445E-006  0.3264804E+04  0.7818608E-02  0.8171909E-01
         -2   -1    0    0    0  501 -0.00000000000E+00  0.00000000000E+00  0.15359701312E+04  0.15359701312E+04  0.00000000000E+00 0.  1.
          2   -1    0    0  501    0  0.00000000000E+00 -0.00000000000E+00 -0.17348876737E+04  0.17348876737E+04  0.00000000000E+00 0. -1.
         23    2    1    2    0    0  0.43545213701E+03  0.79195353197E+03 -0.14598981192E+04  0.17194452307E+04  0.91544648427E+02 0.  0.
         11    1    3    3    0    0  0.23666363905E+03  0.34699450926E+03 -0.71685221084E+03  0.83083810679E+03  0.00000000000E+00 0. -1.
        -11    1    3    3    0    0  0.19878849796E+03  0.44495902271E+03 -0.74304590834E+03  0.88860712394E+03  0.00000000000E+00 0.  1.
         22    1    1    2    0    0 -0.43545213701E+03 -0.79195353197E+03  0.12609805767E+04  0.15514125742E+04  0.00000000000E+00 0.  1.
<mgrwt>
<rscale>  0 0.32648036E+04</rscale>
<asrwt>0</asrwt>
<pdfrwt beam="1">  1        2 0.26690579E+00 0.32648036E+04</pdfrwt>
<pdfrwt beam="2">  1       -2 0.23630310E+00 0.32648036E+04</pdfrwt>
<totfact> 0.61349494E-01</totfact>
</mgrwt>
</event>
<event>
 6    1  0.9906445E-006  0.2965490E+04  0.7818608E-02  0.8253655E-01
         -2   -1    0    0    0  501 -0.00000000000E+00  0.00000000000E+00  0.11248913885E+04  0.11248913885E+04  0.00000000000E+00 0.  1.
          2   -1    0    0  501    0  0.00000000000E+00 -0.00000000000E+00 -0.19544396425E+04  0.19544396425E+04  0.00000000000E+00 0. -1.
         23    2    1    2    0    0 -0.75373131044E+03  0.11353927844E+04  0.18816446666E+03  0.13784586534E+04  0.86687538081E+02 0.  0.
         11    1    3    3    0    0 -0.61612746164E+03  0.88770879609E+03  0.12152057006E+03  0.10873854903E+04  0.00000000000E+00 0.  1.
        -11    1    3    3    0    0 -0.13760384881E+03  0.24768398833E+03  0.66643896604E+02  0.29107316303E+03  0.00000000000E+00 0. -1.
         22    1    1    2    0    0  0.75373131044E+03 -0.11353927844E+04 -0.10177127207E+04  0.17008723777E+04  0.00000000000E+00 0. -1.
<mgrwt>
<rscale>  0 0.29654897E+04</rscale>
<asrwt>0</asrwt>
<pdfrwt beam="1">  1        2 0.30068302E+00 0.29654897E+04</pdfrwt>
<pdfrwt beam="2">  1       -2 0.17306021E+00 0.29654897E+04</pdfrwt>
<totfact> 0.12329028E+00</totfact>
</mgrwt>
</event>
<event>
 6    1  0.9906445E-006  0.7455744E+03  0.7818608E-02  0.9642319E-01
          2   -1    0    0  501    0  0.00000000000E+00  0.00000000000E+00  0.39895270739E+03  0.39895270739E+03  0.00000000000E+00 0. -1.
         -2   -1    0    0    0  501 -0.00000000000E+00 -0.00000000000E+00 -0.34833778278E+03  0.34833778278E+03  0.00000000000E+00 0.  1.
         23    2    1    2    0    0 -0.14822928485E+03  0.32648909712E+03  0.10540427550E+03  0.38456618109E+03  0.90631313122E+02 0.  0.
         13    1    3    3    0    0 -0.54571717657E+02  0.15429168380E+03  0.36254823621E+01  0.16369832064E+03  0.00000000000E+00 0. -1.
        -13    1    3    3    0    0 -0.93657567190E+02  0.17219741332E+03  0.10177879314E+03  0.22086786045E+03  0.00000000000E+00 0.  1.
         22    1    1    2    0    0  0.14822928485E+03 -0.32648909712E+03 -0.54789350898E+02  0.36272430908E+03  0.00000000000E+00 0.  1.
<mgrwt>
<rscale>  0 0.74557441E+03</rscale>
<asrwt>0</asrwt>
<pdfrwt beam="1">  1        2 0.61377340E-01 0.74557441E+03</pdfrwt>
<pdfrwt beam="2">  1       -2 0.53590428E-01 0.74557441E+03</pdfrwt>
<totfact> 0.26397707E+02</totfact>
</mgrwt>
</event>
<event>
 6    1  0.9906445E-006  0.6689537E+03  0.7818608E-02  0.9771850E-01
         -3   -1    0    0    0  501 -0.00000000000E+00  0.00000000000E+00  0.54303033962E+03  0.54303033962E+03  0.00000000000E+00 0.  1.
          3   -1    0    0  501    0  0.00000000000E+00 -0.00000000000E+00 -0.20601935822E+03  0.20601935822E+03  0.00000000000E+00 0. -1.
         23    2    1    2    0    0  0.82160390870E+02 -0.11938935518E+03  0.50138091979E+03  0.52991132922E+03  0.91755338492E+02 0.  0.
         13    1    3    3    0    0  0.39671427714E+02 -0.69111509521E+02  0.12804806591E+03  0.15081952827E+03  0.00000000000E+00 0.  1.
        -13    1    3    3    0    0  0.42488963157E+02 -0.50277845654E+02  0.37333285388E+03  0.37909180094E+03  0.00000000000E+00 0. -1.
         22    1    1    2    0    0 -0.82160390870E+02  0.11938935518E+03 -0.16436993839E+03  0.21913836863E+03  0.00000000000E+00 0. -1.
<mgrwt>
<rscale>  0 0.66895370E+03</rscale>
<asrwt>0</asrwt>
<pdfrwt beam="1">  1        3 0.31695286E-01 0.66895370E+03</pdfrwt>
<pdfrwt beam="2">  1       -3 0.83543128E-01 0.66895370E+03</pdfrwt>
<totfact> 0.33942000E+01</totfact>
</mgrwt>
</event>
<event>
 6    1  0.9906445E-006  0.1200993E+04  0.7818608E-02  0.9111988E-01
          2   -1    0    0  501    0  0.00000000000E+00  0.00000000000E+00  0.21372777166E+04  0.21372777166E+04  0.00000000000E+00 0. -1.
         -2   -1    0    0    0  501 -0.00000000000E+00 -0.00000000000E+00 -0.16871731149E+03  0.16871731149E+03  0.00000000000E+00 0.  1.
         23    2    1    2    0    0 -0.26188606218E+03  0.65356515845E+02  0.20124503137E+04  0.20325318536E+04  0.91507851713E+02 0.  0.
         11    1    3    3    0    0 -0.25409633288E+03  0.38564112974E+02  0.18308022012E+04  0.18487533197E+04  0.00000000000E+00 0.  1.
        -11    1    3    3    0    0 -0.77897292907E+01  0.26792402871E+02  0.18164811252E+03  0.18377853388E+03  0.00000000000E+00 0. -1.
         22    1    1    2    0    0  0.26188606218E+03 -0.65356515845E+02 -0.43889908629E+02  0.27346317449E+03  0.00000000000E+00 0.  1.
<mgrwt>
<rscale>  0 0.12009925E+04</rscale>
<asrwt>0</asrwt>
<pdfrwt beam="1">  1        2 0.32881194E+00 0.12009925E+04</pdfrwt>
<pdfrwt beam="2">  1       -2 0.25956511E-01 0.12009925E+04</pdfrwt>
<totfact> 0.74211382E+01</totfact>
</mgrwt>
</event>
<event>
 6    1  0.9906445E-006  0.1026851E+04  0.7818608E-02  0.9279576E-01
          3   -1    0    0  501    0  0.00000000000E+00  0.00000000000E+00  0.80605975044E+03  0.80605975044E+03  0.00000000000E+00 0. -1.
         -3   -1    0    0    0  501 -0.00000000000E+00 -0.00000000000E+00 -0.32702993167E+03  0.32702993167E+03  0.00000000000E+00 0.  1.
         23    2    1    2    0    0 -0.50919614479E+03  0.24673264012E+01  0.24193103837E+03  0.57139347130E+03  0.93129319502E+02 0.  0.
         13    1    3    3    0    0 -0.20114353761E+03 -0.22118163148E+02  0.13968575869E+03  0.24588624818E+03  0.00000000000E+00 0. -1.
        -13    1    3    3    0    0 -0.30805260718E+03  0.24585489549E+02  0.10224527967E+03  0.32550722312E+03  0.00000000000E+00 0.  1.
         22    1    1    2    0    0  0.50919614479E+03 -0.24673264012E+01  0.23709878040E+03  0.56169621081E+03  0.00000000000E+00 0.  1.
<mgrwt>
<rscale>  0 0.10268508E+04</rscale>
<asrwt>0</asrwt>
<pdfrwt beam="1">  1        3 0.12400919E+00 0.10268508E+04</pdfrwt>
<pdfrwt beam="2">  1       -3 0.50312297E-01 0.10268508E+04</pdfrwt>
<totfact> 0.53502727E+00</totfact>
</mgrwt>
</event>
<event>
 6    1  0.9906445E-006  0.3788606E+04  0.7818608E-02  0.8048604E-01
         -2   -1    0    0    0  501 -0.00000000000E+00  0.00000000000E+00  0.10520859401E+04  0.10520859401E+04  0.00000000000E+00 0.  1.
          2   -1    0    0  501    0  0.00000000000E+00 -0.00000000000E+00 -0.34107322519E+04  0.34107322519E+04  0.00000000000E+00 0. -1.
         23    2    1    2    0    0 -0.40088074916E+03 -0.70925749781E+03 -0.31930104058E+04  0.32966642508E+04  0.94488928539E+02 0.  0.
         11    1    3    3    0    0 -0.13123071078E+03 -0.30666029077E+03 -0.11887335417E+04  0.12346454822E+04  0.00000000000E+00 0. -1.
        -11    1    3    3    0    0 -0.26965003837E+03 -0.40259720704E+03 -0.20042768641E+04  0.20620187686E+04  0.00000000000E+00 0.  1.
         22    1    1    2    0    0  0.40088074916E+03  0.70925749781E+03  0.83436409399E+03  0.11661539412E+04  0.00000000000E+00 0.  1.
<mgrwt>
<rscale>  0 0.37886058E+04</rscale>
<asrwt>0</asrwt>
<pdfrwt beam="1">  1        2 0.52472803E+00 0.37886058E+04</pdfrwt>
<pdfrwt beam="2">  1       -2 0.16185938E+00 0.37886058E+04</pdfrwt>
<totfact> 0.18333658E-01</totfact>
</mgrwt>
</event>
<event>
 6    1  0.9906445E-006  0.3172430E+04  0.7818608E-02  0.8196137E-01
          2   -1    0    0  501    0  0.00000000000E+00  0.00000000000E+00  0.16346823439E+04  0.16346823439E+04  0.00000000000E+00 0. -1.
         -2   -1    0    0    0  501 -0.00000000000E+00 -0.00000000000E+00 -0.15391845475E+04  0.15391845475E+04  0.00000000000E+00 0.  1.
         23    2    1    2    0    0 -0.83969012317E+03 -0.12707359382E+04 -0.39077947461E+03  0.15750188963E+04  0.90147647070E+02 0.  0.
         13    1    3    3    0    0 -0.23881740824E+03 -0.43542236917E+03 -0.11597729582E+03  0.50997757519E+03  0.00000000000E+00 0. -1.
        -13    1    3    3    0    0 -0.60087271493E+03 -0.83531356901E+03 -0.27480217879E+03  0.10650413211E+04  0.00000000000E+00 0.  1.
         22    1    1    2    0    0  0.83969012317E+03  0.12707359382E+04  0.48627727101E+03  0.15988479952E+04  0.00000000000E+00 0. -1.
<mgrwt>
<rscale>  0 0.31724299E+04</rscale>
<asrwt>0</asrwt>
<pdfrwt beam="1">  1        2 0.25148959E+00 0.31724299E+04</pdfrwt>
<pdfrwt beam="2">  1       -2 0.23679762E+00 0.31724299E+04</pdfrwt>
<totfact> 0.69799926E-01</totfact>
</mgrwt>
</event>
<event>
 6    1  0.9906445E-006  0.5890284E+03  0.7818608E-02  0.9928434E-01
         -2   -1    0    0    0  501 -0.00000000000E+00  0.00000000000E+00  0.19271388769E+03  0.19271388769E+03  0.00000000000E+00 0.  1.
          2   -1    0    0  501    0  0.00000000000E+00 -0.00000000000E+00 -0.45009006643E+03  0.45009006643E+03  0.00000000000E+00 0. -1.
         23    2    1    2    0    0  0.25986828695E+03  0.47884911771E+02 -0.25596866697E+03  0.37855696278E+03  0.89224011694E+02 0.  0.
         11    1    3    3    0    0  0.74587771727E+02  0.12631430538E+02 -0.13421659421E+03  0.15406811121E+03  0.00000000000E+00 0. -1.
        -11    1    3    3    0    0  0.18528051523E+03  0.35253481232E+02 -0.12175207275E+03  0.22448885158E+03  0.00000000000E+00 0.  1.
         22    1    1    2    0    0 -0.25986828695E+03 -0.47884911771E+02 -0.14075117771E+01  0.26424699133E+03  0.00000000000E+00 0.  1.
<mgrwt>
<rscale>  0 0.58902837E+03</rscale>
<asrwt>0</asrwt>
<pdfrwt beam="1">  1        2 0.69244625E-01 0.58902837E+03</pdfrwt>
<pdfrwt beam="2">  1       -2 0.29648291E-01 0.58902837E+03</pdfrwt>
<totfact> 0.73248717E+02</totfact>
</mgrwt>
</event>
<event>
 6    1  0.9906445E-006  0.2915993E+04  0.7818608E-02  0.8268135E-01
         -1   -1    0    0    0  501 -0.00000000000E+00  0.00000000000E+00  0.83881035180E+03  0.83881035180E+03  0.00000000000E+00 0.  1.
          1   -1    0    0  501    0  0.00000000000E+00 -0.00000000000E+00 -0.25342484160E+04  0.25342484160E+04  0.00000000000E+00 0. -1.
         23    2    1    2    0    0 -0.15578856079E+03  0.52723545486E+03  0.71191495211E+03  0.90372771553E+03  0.87484765836E+02 0.  0.
         11    1    3    3    0    0 -0.13106920896E+03  0.30208141321E+03  0.44667443322E+03  0.55493275902E+03  0.00000000000E+00 0. -1.
        -11    1    3    3    0    0 -0.24719351823E+02  0.22515404165E+03  0.26524051889E+03  0.34879495651E+03  0.00000000000E+00 0.  1.
         22    1    1    2    0    0  0.15578856079E+03 -0.52723545486E+03 -0.24073530163E+04  0.24693310522E+04  0.00000000000E+00 0. -1.
<mgrwt>
<rscale>  0 0.29159930E+04</rscale>
<asrwt>0</asrwt>
<pdfrwt beam="1">  1        1 0.38988437E+00 0.29159930E+04</pdfrwt>
<pdfrwt beam="2">  1       -1 0.12904775E+00 0.29159930E+04</pdfrwt>
<totfact> 0.56770735E-01</totfact>
</mgrwt>
</event>
<event>
 6    1  0.9906445E-006  0.1607070E+04  0.7818608E-02  0.8816216E-01
         -1   -1    0    0    0  501 -0.00000000000E+00  0.00000000000E+00  0.31603826434E+03  0.31603826434E+03  0.00000000000E+00 0.  1.
          1   -1    0    0  501    0  0.00000000000E+00 -0.00000000000E+00 -0.20430084068E+04  0.20430084068E+04  0.00000000000E+00 0. -1.
         23    2    1    2    0    0 -0.48280766030E+03 -0.54636441825E+01 -0.18042981642E+04  0.18700551465E+04  0.92093958762E+02 0.  0.
         11    1    3    3    0    0 -0.27159456362E+03 -0.45023512551E+02 -0.94385248258E+03  0.98318270558E+03  0.00000000000E+00 0.  1.
        -11    1    3    3    0    0 -0.21121309669E+03  0.39559868369E+02 -0.86044568164E+03  0.88687244092E+03  0.00000000000E+00 0. -1.
         22    1    1    2    0    0  0.48280766030E+03  0.54636441825E+01  0.77328021738E+02  0.48899152467E+03  0.00000000000E+00 0.  1.
<mgrwt>
<rscale>  0 0.16070704E+04</rscale>
<asrwt>0</asrwt>
<pdfrwt beam="1">  1        1 0.31430900E+00 0.16070704E+04</pdfrwt>
<pdfrwt beam="2">  1       -1 0.48621270E-01 0.16070704E+04</pdfrwt>
<totfact> 0.11316132E+01</totfact>
</mgrwt>
</event>
<event>
 6    1  0.9906445E-006  0.7211613E+03  0.7818608E-02  0.9681713E-01
         -1   -1    0    0    0  501 -0.00000000000E+00  0.00000000000E+00  0.31794472716E+03  0.31794472716E+03  0.00000000000E+00 0.  1.
          1   -1    0    0  501    0  0.00000000000E+00 -0.00000000000E+00 -0.40893398380E+03  0.40893398380E+03  0.00000000000E+00 0. -1.
         23    2    1    2    0    0  0.46551065424E+02  0.17370725890E+03  0.26270865121E+03  0.33008730038E+03  0.87181287937E+02 0.  0.
         11    1    3    3    0    0 -0.18551125633E+01  0.34452509757E+02  0.74268172352E+01  0.35292697338E+02  0.00000000000E+00 0. -1.
        -11    1    3    3    0    0  0.48406177988E+02  0.13925474914E+03  0.25528183397E+03  0.29479460304E+03  0.00000000000E+00 0.  1.
         22    1    1    2    0    0 -0.46551065424E+02 -0.17370725890E+03 -0.35369790785E+03  0.39679141057E+03  0.00000000000E+00 0. -1.
<mgrwt>
<rscale>  0 0.72116130E+03</rscale>
<asrwt>0</asrwt>
<pdfrwt beam="1">  1        1 0.62912921E-01 0.72116130E+03</pdfrwt>
<pdfrwt beam="2">  1       -1 0.48914573E-01 0.72116130E+03</pdfrwt>
<totfact> 0.24703199E+02</totfact>
</mgrwt>
</event>
<event>
 6    1  0.9906445E-006  0.9161253E+03  0.7818608E-02  0.9405646E-01
          1   -1    0    0  501    0  0.00000000000E+00  0.00000000000E+00  0.16820335524E+04  0.16820335524E+04  0.00000000000E+00 0. -1.
         -1   -1    0    0    0  501 -0.00000000000E+00 -0.00000000000E+00 -0.12474268162E+03  0.12474268162E+03  0.00000000000E+00 0.  1.
         23    2    1    2    0    0 -0.37235003251E+03  0.22247065036E+03  0.10467757231E+04  0.11368781425E+04  0.92815728823E+02 0.  0.
         11    1    3    3    0    0 -0.17458565442E+02  0.41549189391E+02  0.11569351754E+03  0.12416169558E+03  0.00000000000E+00 0. -1.
        -11    1    3    3    0    0 -0.35489146707E+03  0.18092146097E+03  0.93108220552E+03  0.10127164469E+04  0.00000000000E+00 0.  1.
         22    1    1    2    0    0  0.37235003251E+03 -0.22247065036E+03  0.51051514771E+03  0.66989809152E+03  0.00000000000E+00 0. -1.
<mgrwt>
<rscale>  0 0.91612527E+03</rscale>
<asrwt>0</asrwt>
<pdfrwt beam="1">  1        1 0.25877438E+00 0.91612527E+03</pdfrwt>
<pdfrwt beam="2">  1       -1 0.19191183E-01 0.91612527E+03</pdfrwt>
<totfact> 0.10850191E+02</totfact>
</mgrwt>
</event>
<event>
 6    1  0.9906445E-006  0.2474499E+04  0.7818608E-02  0.8412127E-01
          2   -1    0    0  501    0  0.00000000000E+00  0.00000000000E+00  0.15079457731E+04  0.15079457731E+04  0.00000000000E+00 0.  1.
         -2   -1    0    0    0  501 -0.00000000000E+00 -0.00000000000E+00 -0.10151466933E+04  0.10151466933E+04  0.00000000000E+00 0. -1.
         23    2    1    2    0    0 -0.12237568568E+04 -0.16391151721E+03  0.18944825868E+03  0.12516879082E+04  0.79900855795E+02 0.  0.
         11    1    3    3    0    0 -0.89036757380E+03 -0.11259365296E+03  0.10211022034E+03  0.90324871672E+03  0.00000000000E+00 0.  1.
        -11    1    3    3    0    0 -0.33338928296E+03 -0.51317864246E+02  0.87338038341E+02  0.34843919143E+03  0.00000000000E+00 0. -1.
         22    1    1    2    0    0  0.12237568568E+04  0.16391151721E+03  0.30335082114E+03  0.12714045582E+04  0.00000000000E+00 0.  1.
<mgrwt>
<rscale>  0 0.24744989E+04</rscale>
<asrwt>0</asrwt>
<pdfrwt beam="1">  1        2 0.23199166E+00 0.24744989E+04</pdfrwt>
<pdfrwt beam="2">  1       -2 0.15617641E+00 0.24744989E+04</pdfrwt>
<totfact> 0.30207464E+00</totfact>
</mgrwt>
</event>
<event>
 6    1  0.9906445E-006  0.1816943E+04  0.7818608E-02  0.8697341E-01
         -2   -1    0    0    0  501 -0.00000000000E+00  0.00000000000E+00  0.57664455185E+03  0.57664455185E+03  0.00000000000E+00 0.  1.
          2   -1    0    0  501    0  0.00000000000E+00 -0.00000000000E+00 -0.14312467800E+04  0.14312467800E+04  0.00000000000E+00 0. -1.
         23    2    1    2    0    0  0.71074574351E+03 -0.19461887697E+03 -0.10112297542E+04  0.12545201079E+04  0.90548694979E+02 0.  0.
         11    1    3    3    0    0  0.30581777499E+03 -0.11657265859E+03 -0.39391935870E+03  0.51213880676E+03  0.00000000000E+00 0.  1.
        -11    1    3    3    0    0  0.40492796852E+03 -0.78046218378E+02 -0.61731039552E+03  0.74238130115E+03  0.00000000000E+00 0. -1.
         22    1    1    2    0    0 -0.71074574351E+03  0.19461887697E+03  0.15662752603E+03  0.75337122397E+03  0.00000000000E+00 0.  1.
<mgrwt>
<rscale>  0 0.18169432E+04</rscale>
<asrwt>0</asrwt>
<pdfrwt beam="1">  1        2 0.22019181E+00 0.18169432E+04</pdfrwt>
<pdfrwt beam="2">  1       -2 0.88714546E-01 0.18169432E+04</pdfrwt>
<totfact> 0.14304498E+01</totfact>
</mgrwt>
</event>
<event>
 6    1  0.9906445E-006  0.3919349E+04  0.7818608E-02  0.8021017E-01
         -2   -1    0    0    0  501 -0.00000000000E+00  0.00000000000E+00  0.90457463638E+03  0.90457463638E+03  0.00000000000E+00 0.  1.
          2   -1    0    0  501    0  0.00000000000E+00 -0.00000000000E+00 -0.42454470458E+04  0.42454470458E+04  0.00000000000E+00 0. -1.
         23    2    1    2    0    0 -0.17149579150E+04 -0.79661523534E+03 -0.10008160307E+04  0.21414438887E+04  0.92047367713E+02 0.  0.
         11    1    3    3    0    0 -0.11888966322E+04 -0.51700791814E+03 -0.71762843463E+03  0.14818107030E+04  0.00000000000E+00 0. -1.
        -11    1    3    3    0    0 -0.52606128287E+03 -0.27960731720E+03 -0.28318759603E+03  0.65963318572E+03  0.00000000000E+00 0.  1.
         22    1    1    2    0    0  0.17149579150E+04  0.79661523534E+03 -0.23400563788E+04  0.30085777935E+04  0.00000000000E+00 0. -1.
<mgrwt>
<rscale>  0 0.39193488E+04</rscale>
<asrwt>0</asrwt>
<pdfrwt beam="1">  1        2 0.65314570E+00 0.39193488E+04</pdfrwt>
<pdfrwt beam="2">  1       -2 0.13916533E+00 0.39193488E+04</pdfrwt>
<totfact> 0.61151375E-02</totfact>
</mgrwt>
</event>
<event>
 6    1  0.9906445E-006  0.2922158E+04  0.7818608E-02  0.8266315E-01
         -1   -1    0    0    0  501 -0.00000000000E+00  0.00000000000E+00  0.83932609399E+03  0.83932609399E+03  0.00000000000E+00 0.  1.
          1   -1    0    0  501    0  0.00000000000E+00 -0.00000000000E+00 -0.25434113787E+04  0.25434113787E+04  0.00000000000E+00 0. -1.
         23    2    1    2    0    0 -0.23828489017E+03  0.14050631180E+04 -0.12182862028E+04  0.18770871805E+04  0.90845784394E+02 0.  0.
         13    1    3    3    0    0 -0.10246733945E+03  0.83539530926E+03 -0.74776229199E+03  0.11258478244E+04  0.00000000000E+00 0.  1.
        -13    1    3    3    0    0 -0.13581755072E+03  0.56966780879E+03 -0.47052391086E+03  0.75123935609E+03  0.00000000000E+00 0. -1.
         22    1    1    2    0    0  0.23828489017E+03 -0.14050631180E+04 -0.48579908190E+03  0.15056502922E+04  0.00000000000E+00 0.  1.
<mgrwt>
<rscale>  0 0.29221578E+04</rscale>
<asrwt>0</asrwt>
<pdfrwt beam="1">  1        1 0.39129406E+00 0.29221578E+04</pdfrwt>
<pdfrwt beam="2">  1       -1 0.12912709E+00 0.29221578E+04</pdfrwt>
<totfact> 0.55826271E-01</totfact>
</mgrwt>
</event>
<event>
 6    1  0.9906445E-006  0.3763526E+04  0.7818608E-02  0.8054028E-01
         -1   -1    0    0    0  501 -0.00000000000E+00  0.00000000000E+00  0.13115836822E+04  0.13115836822E+04  0.00000000000E+00 0.  1.
          1   -1    0    0  501    0  0.00000000000E+00 -0.00000000000E+00 -0.26998139506E+04  0.26998139506E+04  0.00000000000E+00 0. -1.
         23    2    1    2    0    0 -0.76133901333E+03 -0.11430324062E+04  0.67484065529E+03  0.15330066606E+04  0.92408529769E+02 0.  0.
         13    1    3    3    0    0 -0.30941204654E+03 -0.40370386978E+03  0.28230568406E+03  0.58172942875E+03  0.00000000000E+00 0.  1.
        -13    1    3    3    0    0 -0.45192696679E+03 -0.73932853646E+03  0.39253497123E+03  0.95127723182E+03  0.00000000000E+00 0. -1.
         22    1    1    2    0    0  0.76133901333E+03  0.11430324062E+04 -0.20630709237E+04  0.24783909722E+04  0.00000000000E+00 0. -1.
<mgrwt>
<rscale>  0 0.37635260E+04</rscale>
<asrwt>0</asrwt>
<pdfrwt beam="1">  1        1 0.41535599E+00 0.37635260E+04</pdfrwt>
<pdfrwt beam="2">  1       -1 0.20178211E+00 0.37635260E+04</pdfrwt>
<totfact> 0.11459989E-01</totfact>
</mgrwt>
</event>
<event>
 6    1  0.9906445E-006  0.2271620E+04  0.7818608E-02  0.8489196E-01
         -2   -1    0    0    0  501 -0.00000000000E+00  0.00000000000E+00  0.41500239686E+03  0.41500239686E+03  0.00000000000E+00 0.  1.
          2   -1    0    0  501    0  0.00000000000E+00 -0.00000000000E+00 -0.31085721519E+04  0.31085721519E+04  0.00000000000E+00 0. -1.
         23    2    1    2    0    0 -0.52622654488E+03  0.79689981842E+03 -0.40089198598E+03  0.10399612435E+04  0.94028221929E+02 0.  0.
         11    1    3    3    0    0 -0.25409938743E+03  0.46712103512E+03 -0.21002797684E+03  0.57173447613E+03  0.00000000000E+00 0. -1.
        -11    1    3    3    0    0 -0.27212715745E+03  0.32977878331E+03 -0.19086400915E+03  0.46822676742E+03  0.00000000000E+00 0.  1.
         22    1    1    2    0    0  0.52622654488E+03 -0.79689981842E+03 -0.22926777691E+04  0.24836133053E+04  0.00000000000E+00 0. -1.
<mgrwt>
<rscale>  0 0.22716205E+04</rscale>
<asrwt>0</asrwt>
<pdfrwt beam="1">  1        2 0.47824185E+00 0.22716205E+04</pdfrwt>
<pdfrwt beam="2">  1       -2 0.63846526E-01 0.22716205E+04</pdfrwt>
<totfact> 0.30673754E+00</totfact>
</mgrwt>
</event>
<event>
 6    1  0.9906445E-006  0.1717844E+04  0.7818608E-02  0.8751252E-01
          2   -1    0    0  501    0  0.00000000000E+00  0.00000000000E+00  0.23870887189E+04  0.23870887189E+04  0.00000000000E+00 0. -1.
         -2   -1    0    0    0  501 -0.00000000000E+00 -0.00000000000E+00 -0.30905731901E+03  0.30905731901E+03  0.00000000000E+00 0.  1.
         23    2    1    2    0    0 -0.50089486154E+03 -0.11225412523E+03 -0.34535891975E+02  0.52210896058E+03  0.88929117451E+02 0.  0.
         13    1    3    3    0    0 -0.30449641027E+03 -0.87146893505E+02  0.18089511413E+02  0.31723788447E+03  0.00000000000E+00 0.  1.
        -13    1    3    3    0    0 -0.19639845127E+03 -0.25107231727E+02 -0.52625403389E+02  0.20487107611E+03  0.00000000000E+00 0. -1.
         22    1    1    2    0    0  0.50089486154E+03  0.11225412523E+03  0.21125672918E+04  0.21740370773E+04  0.00000000000E+00 0. -1.
<mgrwt>
<rscale>  0 0.17178443E+04</rscale>
<asrwt>0</asrwt>
<pdfrwt beam="1">  1        2 0.36724441E+00 0.17178443E+04</pdfrwt>
<pdfrwt beam="2">  1       -2 0.47547281E-01 0.17178443E+04</pdfrwt>
<totfact> 0.16124276E+01</totfact>
</mgrwt>
</event>
<event>
 6    1  0.9906445E-006  0.2806264E+04  0.7818608E-02  0.8301326E-01
         -2   -1    0    0    0  501 -0.00000000000E+00  0.00000000000E+00  0.98488372706E+03  0.98488372706E+03  0.00000000000E+00 0.  1.
          2   -1    0    0  501    0  0.00000000000E+00 -0.00000000000E+00 -0.19989966953E+04  0.19989966953E+04  0.00000000000E+00 0. -1.
         23    2    1    2    0    0  0.69865395234E+03  0.93361655012E+03  0.31927503336E+03  0.12125304370E+04  0.92392131755E+02 0.  0.
         13    1    3    3    0    0  0.52160920743E+03  0.75305892709E+03  0.23160205751E+03  0.94488804945E+03  0.00000000000E+00 0. -1.
        -13    1    3    3    0    0  0.17704474491E+03  0.18055762303E+03  0.87672975849E+02  0.26764238758E+03  0.00000000000E+00 0.  1.
         22    1    1    2    0    0 -0.69865395234E+03 -0.93361655012E+03 -0.13333880016E+04  0.17713499854E+04  0.00000000000E+00 0. -1.
<mgrwt>
<rscale>  0 0.28062639E+04</rscale>
<asrwt>0</asrwt>
<pdfrwt beam="1">  1        2 0.30753795E+00 0.28062639E+04</pdfrwt>
<pdfrwt beam="2">  1       -2 0.15152058E+00 0.28062639E+04</pdfrwt>
<totfact> 0.16972494E+00</totfact>
</mgrwt>
</event>
<event>
 6    1  0.9906445E-006  0.2589843E+04  0.7818608E-02  0.8371660E-01
          1   -1    0    0  501    0  0.00000000000E+00  0.00000000000E+00  0.19994462591E+04  0.19994462591E+04  0.00000000000E+00 0. -1.
         -1   -1    0    0    0  501 -0.00000000000E+00 -0.00000000000E+00 -0.83864294682E+03  0.83864294682E+03  0.00000000000E+00 0.  1.
         23    2    1    2    0    0  0.98806594345E+03 -0.80588701904E+03  0.81843221106E+03  0.15178823407E+04  0.91691439355E+02 0.  0.
         13    1    3    3    0    0  0.13194599950E+03 -0.14886138805E+03  0.13803221189E+03  0.24212053023E+03  0.00000000000E+00 0. -1.
        -13    1    3    3    0    0  0.85611994395E+03 -0.65702563099E+03  0.68039999916E+03  0.12757618105E+04  0.00000000000E+00 0.  1.
         22    1    1    2    0    0 -0.98806594345E+03  0.80588701904E+03  0.34237110124E+03  0.13202068652E+04  0.00000000000E+00 0.  1.
<mgrwt>
<rscale>  0 0.25898429E+04</rscale>
<asrwt>0</asrwt>
<pdfrwt beam="1">  1        1 0.30760712E+00 0.25898429E+04</pdfrwt>
<pdfrwt beam="2">  1       -1 0.12902199E+00 0.25898429E+04</pdfrwt>
<totfact> 0.13588394E+00</totfact>
</mgrwt>
</event>
<event>
 6    1  0.9906445E-006  0.1606081E+04  0.7818608E-02  0.8816821E-01
          1   -1    0    0  501    0  0.00000000000E+00  0.00000000000E+00  0.65315687614E+03  0.65315687614E+03  0.00000000000E+00 0. -1.
         -1   -1    0    0    0  501 -0.00000000000E+00 -0.00000000000E+00 -0.98731889446E+03  0.98731889446E+03  0.00000000000E+00 0.  1.
         23    2    1    2    0    0  0.72097079582E+03  0.14593464528E+03  0.15480380016E+03  0.75719587116E+03  0.91025060548E+02 0.  0.
         11    1    3    3    0    0  0.14891913779E+03  0.57550268780E+02  0.71077101672E+01  0.15981070860E+03  0.00000000000E+00 0.  1.
        -11    1    3    3    0    0  0.57205165803E+03  0.88384376496E+02  0.14769608999E+03  0.59738516257E+03  0.00000000000E+00 0. -1.
         22    1    1    2    0    0 -0.72097079582E+03 -0.14593464528E+03 -0.48896581848E+03  0.88327989944E+03  0.00000000000E+00 0.  1.
<mgrwt>
<rscale>  0 0.16060811E+04</rscale>
<asrwt>0</asrwt>
<pdfrwt beam="1">  1        1 0.10048567E+00 0.16060811E+04</pdfrwt>
<pdfrwt beam="2">  1       -1 0.15189521E+00 0.16060811E+04</pdfrwt>
<totfact> 0.97804361E+00</totfact>
</mgrwt>
</event>
<event>
 6    1  0.9906445E-006  0.2232909E+04  0.7818608E-02  0.8504854E-01
          1   -1    0    0  501    0  0.00000000000E+00  0.00000000000E+00  0.57627112356E+03  0.57627112356E+03  0.00000000000E+00 0. -1.
         -1   -1    0    0    0  501 -0.00000000000E+00 -0.00000000000E+00 -0.21629931736E+04  0.21629931736E+04  0.00000000000E+00 0.  1.
         23    2    1    2    0    0 -0.79659232488E+03  0.25244153948E+03  0.11017702106E+03  0.84776951248E+03  0.91039043325E+02 0.  0.
         13    1    3    3    0    0 -0.15168359963E+03  0.68456023886E+02  0.53205812372E+02  0.17471405231E+03  0.00000000000E+00 0.  1.
        -13    1    3    3    0    0 -0.64490872525E+03  0.18398551559E+03  0.56971208688E+02  0.67305546018E+03  0.00000000000E+00 0. -1.
         22    1    1    2    0    0  0.79659232488E+03 -0.25244153948E+03 -0.16968990711E+04  0.18914947846E+04  0.00000000000E+00 0.  1.
<mgrwt>
<rscale>  0 0.22329089E+04</rscale>
<asrwt>0</asrwt>
<pdfrwt beam="1">  1        1 0.88657098E-01 0.22329089E+04</pdfrwt>
<pdfrwt beam="2">  1       -1 0.33276817E+00 0.22329089E+04</pdfrwt>
<totfact> 0.66666236E-01</totfact>
</mgrwt>
</event>
<event>
 6    1  0.9906445E-006  0.2458636E+04  0.7818608E-02  0.8417872E-01
          2   -1    0    0  501    0  0.00000000000E+00  0.00000000000E+00  0.16027565547E+04  0.16027565547E+04  0.00000000000E+00 0. -1.
         -2   -1    0    0    0  501 -0.00000000000E+00 -0.00000000000E+00 -0.94288949302E+03  0.94288949302E+03  0.00000000000E+00 0.  1.
         23    2    1    2    0    0  0.99759400518E+03  0.25380326205E+03 -0.36226997035E+03  0.10949999822E+04  0.90418663398E+02 0.  0.
         11    1    3    3    0    0  0.19103132081E+03  0.22059756114E+02 -0.93416980218E+02  0.21379038932E+03  0.00000000000E+00 0. -1.
        -11    1    3    3    0    0  0.80656268437E+03  0.23174350594E+03 -0.26885299013E+03  0.88120959292E+03  0.00000000000E+00 0.  1.
         22    1    1    2    0    0 -0.99759400518E+03 -0.25380326205E+03  0.10221370320E+04  0.14506460654E+04  0.00000000000E+00 0. -1.
<mgrwt>
<rscale>  0 0.24586357E+04</rscale>
<asrwt>0</asrwt>
<pdfrwt beam="1">  1        2 0.24657793E+00 0.24586357E+04</pdfrwt>
<pdfrwt beam="2">  1       -2 0.14505992E+00 0.24586357E+04</pdfrwt>
<totfact> 0.32556339E+00</totfact>
</mgrwt>
</event>
<event>
 6    1  0.9906445E-006  0.3766338E+04  0.7818608E-02  0.8053417E-01
          1   -1    0    0  501    0  0.00000000000E+00  0.00000000000E+00  0.28345110910E+04  0.28345110910E+04  0.00000000000E+00 0. -1.
         -1   -1    0    0    0  501 -0.00000000000E+00 -0.00000000000E+00 -0.12511244133E+04  0.12511244133E+04  0.00000000000E+00 0.  1.
         23    2    1    2    0    0  0.16711154276E+04  0.85515748385E+03  0.93843312446E+03  0.21007208511E+04  0.91925353181E+02 0.  0.
         13    1    3    3    0    0  0.16826654241E+03  0.80521527933E+02  0.12441277633E+03  0.22422284600E+03  0.00000000000E+00 0. -1.
        -13    1    3    3    0    0  0.15028488852E+04  0.77463595592E+03  0.81402034814E+03  0.18764980051E+04  0.00000000000E+00 0.  1.
         22    1    1    2    0    0 -0.16711154276E+04 -0.85515748385E+03  0.64495355319E+03  0.19849146532E+04  0.00000000000E+00 0. -1.
<mgrwt>
<rscale>  0 0.37663383E+04</rscale>
<asrwt>0</asrwt>
<pdfrwt beam="1">  1        1 0.43607863E+00 0.37663383E+04</pdfrwt>
<pdfrwt beam="2">  1       -1 0.19248068E+00 0.37663383E+04</pdfrwt>
<totfact> 0.10661011E-01</totfact>
</mgrwt>
</event>
<event>
 6    1  0.9906445E-006  0.1430351E+04  0.7818608E-02  0.8932138E-01
         -1   -1    0    0    0  501 -0.00000000000E+00  0.00000000000E+00  0.10809699681E+04  0.10809699681E+04  0.00000000000E+00 0.  1.
          1   -1    0    0  501    0  0.00000000000E+00 -0.00000000000E+00 -0.47316361700E+03  0.47316361700E+03  0.00000000000E+00 0. -1.
         23    2    1    2    0    0 -0.69424838591E+03  0.98224826897E+02  0.43989731506E+03  0.83314649622E+03  0.94839329473E+02 0.  0.
         13    1    3    3    0    0 -0.43433706524E+03  0.76754853259E+02  0.32649493667E+03  0.54876127543E+03  0.00000000000E+00 0. -1.
        -13    1    3    3    0    0 -0.25991132068E+03  0.21469973638E+02  0.11340237838E+03  0.28438522079E+03  0.00000000000E+00 0.  1.
         22    1    1    2    0    0  0.69424838591E+03 -0.98224826897E+02  0.16790903607E+03  0.72098708889E+03  0.00000000000E+00 0.  1.
<mgrwt>
<rscale>  0 0.14303505E+04</rscale>
<asrwt>0</asrwt>
<pdfrwt beam="1">  1        1 0.72794403E-01 0.14303505E+04</pdfrwt>
<pdfrwt beam="2">  1       -1 0.16630307E+00 0.14303505E+04</pdfrwt>
<totfact> 0.12188892E+01</totfact>
</mgrwt>
</event>
<event>
 6    1  0.9906445E-006  0.1702334E+04  0.7818608E-02  0.8760034E-01
         -2   -1    0    0    0  501 -0.00000000000E+00  0.00000000000E+00  0.28318150259E+03  0.28318150259E+03  0.00000000000E+00 0.  1.
          2   -1    0    0  501    0  0.00000000000E+00 -0.00000000000E+00 -0.25583782180E+04  0.25583782180E+04  0.00000000000E+00 0. -1.
         23    2    1    2    0    0 -0.30891738890E+03 -0.66769514513E+03 -0.43739930710E+03  0.86197742272E+03  0.10217711801E+03 0.  0.
         13    1    3    3    0    0 -0.23389597642E+02 -0.14706949604E+03 -0.91975506390E+02  0.17503143637E+03  0.00000000000E+00 0. -1.
        -13    1    3    3    0    0 -0.28552779126E+03 -0.52062564909E+03 -0.34542380071E+03  0.68694598635E+03  0.00000000000E+00 0.  1.
         22    1    1    2    0    0  0.30891738890E+03  0.66769514513E+03 -0.18377974083E+04  0.19795822979E+04  0.00000000000E+00 0. -1.
<mgrwt>
<rscale>  0 0.17023341E+04</rscale>
<asrwt>0</asrwt>
<pdfrwt beam="1">  1        2 0.39359665E+00 0.17023341E+04</pdfrwt>
<pdfrwt beam="2">  1       -2 0.43566385E-01 0.17023341E+04</pdfrwt>
<totfact> 0.15329504E+01</totfact>
</mgrwt>
</event>
<event>
 6    1  0.9906445E-006  0.1439561E+04  0.7818608E-02  0.8925670E-01
         -1   -1    0    0    0  501 -0.00000000000E+00  0.00000000000E+00  0.47189183085E+03  0.47189183085E+03  0.00000000000E+00 0.  1.
          1   -1    0    0  501    0  0.00000000000E+00 -0.00000000000E+00 -0.10978868358E+04  0.10978868358E+04  0.00000000000E+00 0. -1.
         23    2    1    2    0    0  0.25801694082E+03  0.21159968434E+03  0.37761331230E+03  0.51215074408E+03  0.91429770182E+02 0.  0.
         13    1    3    3    0    0  0.11226077069E+03  0.38819995081E+02  0.15034450862E+03  0.19160622100E+03  0.00000000000E+00 0.  1.
        -13    1    3    3    0    0  0.14575617013E+03  0.17277968926E+03  0.22726880368E+03  0.32054452308E+03  0.00000000000E+00 0. -1.
         22    1    1    2    0    0 -0.25801694082E+03 -0.21159968434E+03 -0.10036083173E+04  0.10576279226E+04  0.00000000000E+00 0. -1.
<mgrwt>
<rscale>  0 0.14395608E+04</rscale>
<asrwt>0</asrwt>
<pdfrwt beam="1">  1        1 0.16890567E+00 0.14395608E+04</pdfrwt>
<pdfrwt beam="2">  1       -1 0.72598744E-01 0.14395608E+04</pdfrwt>
<totfact> 0.23671752E+01</totfact>
</mgrwt>
</event>
<event>
 6    1  0.9906445E-006  0.1234297E+04  0.7818608E-02  0.9083355E-01
         -1   -1    0    0    0  501 -0.00000000000E+00  0.00000000000E+00  0.11834964934E+04  0.11834964934E+04  0.00000000000E+00 0. -1.
          1   -1    0    0  501    0  0.00000000000E+00 -0.00000000000E+00 -0.32181977401E+03  0.32181977401E+03  0.00000000000E+00 0.  1.
         23    2    1    2    0    0  0.43456384247E+03  0.43316934193E+03  0.43067636262E+03  0.75548780736E+03  0.93799177983E+02 0.  0.
         11    1    3    3    0    0  0.23748568701E+03  0.17457373115E+03  0.22431050600E+03  0.37039255155E+03  0.00000000000E+00 0. -1.
        -11    1    3    3    0    0  0.19707815546E+03  0.25859561077E+03  0.20636585661E+03  0.38509525581E+03  0.00000000000E+00 0.  1.
         22    1    1    2    0    0 -0.43456384247E+03 -0.43316934193E+03  0.43100035678E+03  0.74982846006E+03  0.00000000000E+00 0. -1.
<mgrwt>
<rscale>  0 0.12342975E+04</rscale>
<asrwt>0</asrwt>
<pdfrwt beam="1">  1        1 0.49510735E-01 0.12342975E+04</pdfrwt>
<pdfrwt beam="2">  1       -1 0.18207638E+00 0.12342975E+04</pdfrwt>
<totfact> 0.15878267E+01</totfact>
</mgrwt>
</event>
<event>
 6    1  0.9906445E-006  0.3234859E+04  0.7818608E-02  0.8179671E-01
         -4   -1    0    0    0  501 -0.00000000000E+00  0.00000000000E+00  0.20219968571E+04  0.20219968571E+04  0.00000000000E+00 0.  1.
          4   -1    0    0  501    0  0.00000000000E+00 -0.00000000000E+00 -0.12938095923E+04  0.12938095923E+04  0.00000000000E+00 0. -1.
         23    2    1    2    0    0 -0.48453771422E+03 -0.37103294250E+03  0.18983244421E+04  0.19960855492E+04  0.90992261097E+02 0.  0.
         13    1    3    3    0    0 -0.16830906071E+03 -0.15233686521E+03  0.83799954329E+03  0.86820371743E+03  0.00000000000E+00 0.  1.
        -13    1    3    3    0    0 -0.31622865351E+03 -0.21869607729E+03  0.10603248988E+04  0.11278818318E+04  0.00000000000E+00 0. -1.
         22    1    1    2    0    0  0.48453771422E+03  0.37103294250E+03 -0.11701371773E+04  0.13197209003E+04  0.00000000000E+00 0. -1.
<mgrwt>
<rscale>  0 0.32348595E+04</rscale>
<asrwt>0</asrwt>
<pdfrwt beam="1">  1        4 0.19904763E+00 0.32348595E+04</pdfrwt>
<pdfrwt beam="2">  1       -4 0.31107644E+00 0.32348595E+04</pdfrwt>
<totfact> 0.58385183E-03</totfact>
</mgrwt>
</event>
<event>
 6    1  0.9906445E-006  0.1409943E+04  0.7818608E-02  0.8946652E-01
         -2   -1    0    0    0  501 -0.00000000000E+00  0.00000000000E+00  0.66462088010E+03  0.66462088010E+03  0.00000000000E+00 0.  1.
          2   -1    0    0  501    0  0.00000000000E+00 -0.00000000000E+00 -0.74777240681E+03  0.74777240681E+03  0.00000000000E+00 0. -1.
         23    2    1    2    0    0 -0.54598869784E+03 -0.10350250541E+03 -0.47144130816E+03  0.73446601857E+03  0.91471299330E+02 0.  0.
         13    1    3    3    0    0 -0.15716861180E+03 -0.38938963987E+02 -0.86701761476E+02  0.18367201990E+03  0.00000000000E+00 0.  1.
        -13    1    3    3    0    0 -0.38882008604E+03 -0.64563541421E+02 -0.38473954668E+03  0.55079399867E+03  0.00000000000E+00 0. -1.
         22    1    1    2    0    0  0.54598869784E+03  0.10350250541E+03  0.38828978145E+03  0.67792726835E+03  0.00000000000E+00 0.  1.
<mgrwt>
<rscale>  0 0.14099435E+04</rscale>
<asrwt>0</asrwt>
<pdfrwt beam="1">  1        2 0.11504191E+00 0.14099435E+04</pdfrwt>
<pdfrwt beam="2">  1       -2 0.10224937E+00 0.14099435E+04</pdfrwt>
<totfact> 0.28687627E+01</totfact>
</mgrwt>
</event>
<event>
 6    1  0.9906445E-006  0.1364387E+04  0.7818608E-02  0.8980008E-01
          3   -1    0    0  501    0  0.00000000000E+00  0.00000000000E+00  0.26694852088E+03  0.26694852088E+03  0.00000000000E+00 0. -1.
         -3   -1    0    0    0  501 -0.00000000000E+00 -0.00000000000E+00 -0.17433634722E+04  0.17433634722E+04  0.00000000000E+00 0.  1.
         23    2    1    2    0    0  0.20884761043E+03  0.58617959201E+03 -0.34054899050E+03  0.71516129937E+03  0.90874807867E+02 0.  0.
         13    1    3    3    0    0  0.90232516541E+02  0.13583570549E+03 -0.82857961651E+02  0.18291716086E+03  0.00000000000E+00 0. -1.
        -13    1    3    3    0    0  0.11861509389E+03  0.45034388652E+03 -0.25769102885E+03  0.53224413851E+03  0.00000000000E+00 0.  1.
         22    1    1    2    0    0 -0.20884761043E+03 -0.58617959201E+03 -0.11358659608E+04  0.12951506937E+04  0.00000000000E+00 0. -1.
<mgrwt>
<rscale>  0 0.13643875E+04</rscale>
<asrwt>0</asrwt>
<pdfrwt beam="1">  1        3 0.41069002E-01 0.13643875E+04</pdfrwt>
<pdfrwt beam="2">  1       -3 0.26820977E+00 0.13643875E+04</pdfrwt>
<totfact> 0.87012499E-01</totfact>
</mgrwt>
</event>
<event>
 6    1  0.9906445E-006  0.8260901E+03  0.7818608E-02  0.9523002E-01
          2   -1    0    0  501    0  0.00000000000E+00  0.00000000000E+00  0.85691001356E+03  0.85691001356E+03  0.00000000000E+00 0. -1.
         -2   -1    0    0    0  501 -0.00000000000E+00 -0.00000000000E+00 -0.19909466994E+03  0.19909466994E+03  0.00000000000E+00 0.  1.
         23    2    1    2    0    0  0.38196023423E+03  0.14064537593E+03  0.30059386801E+03  0.51444958479E+03  0.92881427127E+02 0.  0.
         13    1    3    3    0    0  0.21893247541E+02  0.93529372587E+01  0.53192070283E+02  0.58276822702E+02  0.00000000000E+00 0.  1.
        -13    1    3    3    0    0  0.36006698669E+03  0.13129243867E+03  0.24740179772E+03  0.45617276209E+03  0.00000000000E+00 0. -1.
         22    1    1    2    0    0 -0.38196023423E+03 -0.14064537593E+03  0.35722147562E+03  0.54155509871E+03  0.00000000000E+00 0. -1.
<mgrwt>
<rscale>  0 0.82609011E+03</rscale>
<asrwt>0</asrwt>
<pdfrwt beam="1">  1        2 0.13183231E+00 0.82609011E+03</pdfrwt>
<pdfrwt beam="2">  1       -2 0.30629950E-01 0.82609011E+03</pdfrwt>
<totfact> 0.31073172E+02</totfact>
</mgrwt>
</event>
<event>
 6    1  0.9906445E-006  0.2578692E+04  0.7818608E-02  0.8375475E-01
          2   -1    0    0  501    0  0.00000000000E+00  0.00000000000E+00  0.23298955933E+04  0.23298955933E+04  0.00000000000E+00 0. -1.
         -2   -1    0    0    0  501 -0.00000000000E+00 -0.00000000000E+00 -0.71351412768E+03  0.71351412768E+03  0.00000000000E+00 0.  1.
         23    2    1    2    0    0  0.50258320640E+03 -0.11596873584E+04  0.51801918487E+03  0.13689353711E+04  0.90418614161E+02 0.  0.
         13    1    3    3    0    0  0.49737096235E+03 -0.11026763316E+04  0.48908407268E+03  0.13047897136E+04  0.00000000000E+00 0.  1.
        -13    1    3    3    0    0  0.52122440500E+01 -0.57011026799E+02  0.28935112194E+02  0.64145657549E+02  0.00000000000E+00 0. -1.
         22    1    1    2    0    0 -0.50258320640E+03  0.11596873584E+04  0.10983622808E+04  0.16744743499E+04  0.00000000000E+00 0.  1.
<mgrwt>
<rscale>  0 0.25786922E+04</rscale>
<asrwt>0</asrwt>
<pdfrwt beam="1">  1        2 0.35844547E+00 0.25786922E+04</pdfrwt>
<pdfrwt beam="2">  1       -2 0.10977141E+00 0.25786922E+04</pdfrwt>
<totfact> 0.25505379E+00</totfact>
</mgrwt>
</event>
<event>
 6    1  0.9906445E-006  0.8660595E+03  0.7818608E-02  0.9469032E-01
         -2   -1    0    0    0  501 -0.00000000000E+00  0.00000000000E+00  0.18439154966E+03  0.18439154966E+03  0.00000000000E+00 0. -1.
          2   -1    0    0  501    0  0.00000000000E+00 -0.00000000000E+00 -0.10169380623E+04  0.10169380623E+04  0.00000000000E+00 0.  1.
         23    2    1    2    0    0 -0.11817161424E+03 -0.39713786494E+03 -0.27134562276E+03  0.50374130001E+03  0.91890348560E+02 0.  0.
         13    1    3    3    0    0 -0.61693151008E+02 -0.86426692066E+02 -0.92422219472E+02  0.14077458803E+03  0.00000000000E+00 0.  1.
        -13    1    3    3    0    0 -0.56478463227E+02 -0.31071117288E+03 -0.17892340329E+03  0.36296671198E+03  0.00000000000E+00 0. -1.
         22    1    1    2    0    0  0.11817161424E+03  0.39713786494E+03 -0.56120088987E+03  0.69758831196E+03  0.00000000000E+00 0.  1.
<mgrwt>
<rscale>  0 0.86605955E+03</rscale>
<asrwt>0</asrwt>
<pdfrwt beam="1">  1        2 0.15645202E+00 0.86605955E+03</pdfrwt>
<pdfrwt beam="2">  1       -2 0.28367930E-01 0.86605955E+03</pdfrwt>
<totfact> 0.28014909E+02</totfact>
</mgrwt>
</event>
<event>
 6    1  0.9906445E-006  0.1582330E+04  0.7818608E-02  0.8831477E-01
          1   -1    0    0  501    0  0.00000000000E+00  0.00000000000E+00  0.17389858839E+04  0.17389858839E+04  0.00000000000E+00 0. -1.
         -1   -1    0    0    0  501 -0.00000000000E+00 -0.00000000000E+00 -0.35994670210E+03  0.35994670210E+03  0.00000000000E+00 0.  1.
         23    2    1    2    0    0 -0.47335447452E+03 -0.40480776506E+02  0.15266786432E+04  0.16014383022E+04  0.90298418204E+02 0.  0.
         11    1    3    3    0    0 -0.26259681434E+03  0.22000444558E+02  0.80681163483E+03  0.84875563065E+03  0.00000000000E+00 0. -1.
        -11    1    3    3    0    0 -0.21075766019E+03 -0.62481221065E+02  0.71986700840E+03  0.75268267158E+03  0.00000000000E+00 0.  1.
         22    1    1    2    0    0  0.47335447452E+03  0.40480776506E+02 -0.14763946143E+03  0.49749428378E+03  0.00000000000E+00 0.  1.
<mgrwt>
<rscale>  0 0.15823302E+04</rscale>
<asrwt>0</asrwt>
<pdfrwt beam="1">  1        1 0.26753628E+00 0.15823302E+04</pdfrwt>
<pdfrwt beam="2">  1       -1 0.55376417E-01 0.15823302E+04</pdfrwt>
<totfact> 0.14203573E+01</totfact>
</mgrwt>
</event>
<event>
 6    1  0.9906445E-006  0.2519982E+04  0.7818608E-02  0.8395901E-01
         -1   -1    0    0    0  501 -0.00000000000E+00  0.00000000000E+00  0.69169838140E+03  0.69169838140E+03  0.00000000000E+00 0.  1.
          1   -1    0    0  501    0  0.00000000000E+00 -0.00000000000E+00 -0.22951870629E+04  0.22951870629E+04  0.00000000000E+00 0. -1.
         23    2    1    2    0    0 -0.44599957215E+03  0.90037735159E+03 -0.17000627881E+04  0.19774690032E+04  0.10283570095E+03 0.  0.
         13    1    3    3    0    0 -0.24434040604E+03  0.41170432375E+03 -0.87945499303E+03  0.10013210120E+04  0.00000000000E+00 0. -1.
        -13    1    3    3    0    0 -0.20165916611E+03  0.48867302785E+03 -0.82060779505E+03  0.97614799120E+03  0.00000000000E+00 0.  1.
         22    1    1    2    0    0  0.44599957215E+03 -0.90037735159E+03  0.96574106569E+02  0.10094164412E+04  0.00000000000E+00 0.  1.
<mgrwt>
<rscale>  0 0.25199819E+04</rscale>
<asrwt>0</asrwt>
<pdfrwt beam="1">  1        1 0.35310570E+00 0.25199819E+04</pdfrwt>
<pdfrwt beam="2">  1       -1 0.10641513E+00 0.25199819E+04</pdfrwt>
<totfact> 0.13719173E+00</totfact>
</mgrwt>
</event>
<event>
 6    1  0.9906445E-006  0.2427534E+04  0.7818608E-02  0.8429267E-01
         -2   -1    0    0    0  501 -0.00000000000E+00  0.00000000000E+00  0.92104236884E+03  0.92104236884E+03  0.00000000000E+00 0.  1.
          2   -1    0    0  501    0  0.00000000000E+00 -0.00000000000E+00 -0.15995253893E+04  0.15995253893E+04  0.00000000000E+00 0. -1.
         23    2    1    2    0    0 -0.52831009085E+02  0.63949628817E+03  0.72798470128E+03  0.97463824149E+03  0.90616545813E+02 0.  0.
         11    1    3    3    0    0 -0.40025797881E+02  0.16708042373E+03  0.24171314689E+03  0.29655215033E+03  0.00000000000E+00 0.  1.
        -11    1    3    3    0    0 -0.12805211204E+02  0.47241586444E+03  0.48627155440E+03  0.67808609116E+03  0.00000000000E+00 0. -1.
         22    1    1    2    0    0  0.52831009085E+02 -0.63949628817E+03 -0.14064677217E+04  0.15459295166E+04  0.00000000000E+00 0. -1.
<mgrwt>
<rscale>  0 0.24275343E+04</rscale>
<asrwt>0</asrwt>
<pdfrwt beam="1">  1        2 0.24608083E+00 0.24275343E+04</pdfrwt>
<pdfrwt beam="2">  1       -2 0.14169883E+00 0.24275343E+04</pdfrwt>
<totfact> 0.34851255E+00</totfact>
</mgrwt>
</event>
<event>
 6    1  0.9906445E-006  0.1234334E+04  0.7818608E-02  0.9083324E-01
         -2   -1    0    0    0  501 -0.00000000000E+00  0.00000000000E+00  0.28793443205E+03  0.28793443205E+03  0.00000000000E+00 0.  1.
          2   -1    0    0  501    0  0.00000000000E+00 -0.00000000000E+00 -0.13228525824E+04  0.13228525824E+04  0.00000000000E+00 0. -1.
         23    2    1    2    0    0  0.10928669688E+03  0.47021582959E+03 -0.25366288093E+02  0.49175105834E+03  0.90161778464E+02 0.  0.
         11    1    3    3    0    0  0.68964518385E+02  0.13057629953E+03 -0.24729192182E+02  0.14972577514E+03  0.00000000000E+00 0.  1.
        -11    1    3    3    0    0  0.40322178494E+02  0.33963953006E+03 -0.63709591051E+00  0.34202528320E+03  0.00000000000E+00 0. -1.
         22    1    1    2    0    0 -0.10928669688E+03 -0.47021582959E+03 -0.10095518623E+04  0.11190359561E+04  0.00000000000E+00 0. -1.
<mgrwt>
<rscale>  0 0.12343335E+04</rscale>
<asrwt>0</asrwt>
<pdfrwt beam="1">  1        2 0.20351578E+00 0.12343335E+04</pdfrwt>
<pdfrwt beam="2">  1       -2 0.44297605E-01 0.12343335E+04</pdfrwt>
<totfact> 0.76247878E+01</totfact>
</mgrwt>
</event>
<event>
 6    1  0.9906445E-006  0.1111972E+04  0.7818608E-02  0.9193601E-01
         -1   -1    0    0    0  501 -0.00000000000E+00  0.00000000000E+00  0.18216361691E+03  0.18216361691E+03  0.00000000000E+00 0.  1.
          1   -1    0    0  501    0  0.00000000000E+00 -0.00000000000E+00 -0.16969375417E+04  0.16969375417E+04  0.00000000000E+00 0. -1.
         23    2    1    2    0    0 -0.41843076774E+03  0.35755902604E+03 -0.68695452584E+03  0.88500975347E+03  0.91667762460E+02 0.  0.
         13    1    3    3    0    0 -0.30662953844E+03  0.27271066014E+03 -0.44523332738E+03  0.60549607250E+03  0.00000000000E+00 0. -1.
        -13    1    3    3    0    0 -0.11180122930E+03  0.84848365907E+02 -0.24172119845E+03  0.27951368098E+03  0.00000000000E+00 0.  1.
         22    1    1    2    0    0  0.41843076774E+03 -0.35755902604E+03 -0.82781939899E+03  0.99409140517E+03  0.00000000000E+00 0. -1.
<mgrwt>
<rscale>  0 0.11119717E+04</rscale>
<asrwt>0</asrwt>
<pdfrwt beam="1">  1        1 0.26106731E+00 0.11119717E+04</pdfrwt>
<pdfrwt beam="2">  1       -1 0.28025172E-01 0.11119717E+04</pdfrwt>
<totfact> 0.54847873E+01</totfact>
</mgrwt>
</event>
<event>
 6    1  0.9906445E-006  0.1832887E+04  0.7818608E-02  0.8689003E-01
         -1   -1    0    0    0  501 -0.00000000000E+00  0.00000000000E+00  0.10891084585E+04  0.10891084585E+04  0.00000000000E+00 0. -1.
          1   -1    0    0  501    0  0.00000000000E+00 -0.00000000000E+00 -0.77115287891E+03  0.77115287891E+03  0.00000000000E+00 0.  1.
         23    2    1    2    0    0 -0.21089223135E+03  0.46706152673E+03  0.92766508342E+03  0.10637893152E+04  0.91995636502E+02 0.  0.
         11    1    3    3    0    0 -0.18269019015E+02  0.97477331559E+01  0.17373965101E+02  0.27030168715E+02  0.00000000000E+00 0.  1.
        -11    1    3    3    0    0 -0.19262321233E+03  0.45731379357E+03  0.91029111831E+03  0.10367591465E+04  0.00000000000E+00 0. -1.
         22    1    1    2    0    0  0.21089223135E+03 -0.46706152673E+03 -0.60970950387E+03  0.79647202217E+03  0.00000000000E+00 0.  1.
<mgrwt>
<rscale>  0 0.18328875E+04</rscale>
<asrwt>0</asrwt>
<pdfrwt beam="1">  1        1 0.11863890E+00 0.18328875E+04</pdfrwt>
<pdfrwt beam="2">  1       -1 0.16755515E+00 0.18328875E+04</pdfrwt>
<totfact> 0.56585482E+00</totfact>
</mgrwt>
</event>
<event>
 6    1  0.9906445E-006  0.4231609E+04  0.7818608E-02  0.7959387E-01
         -2   -1    0    0    0  501 -0.00000000000E+00  0.00000000000E+00  0.38936862351E+04  0.38936862351E+04  0.00000000000E+00 0.  1.
          2   -1    0    0  501    0  0.00000000000E+00 -0.00000000000E+00 -0.11497145952E+04  0.11497145952E+04  0.00000000000E+00 0. -1.
         23    2    1    2    0    0  0.74975040769E+03 -0.63719047264E+03 -0.85843198946E+03  0.13090402047E+04  0.92430540730E+02 0.  0.
         13    1    3    3    0    0  0.40138432526E+03 -0.34502934370E+03 -0.52240257937E+03  0.74367941985E+03  0.00000000000E+00 0. -1.
        -13    1    3    3    0    0  0.34836608243E+03 -0.29216112894E+03 -0.33602941009E+03  0.56536078489E+03  0.00000000000E+00 0.  1.
         22    1    1    2    0    0 -0.74975040769E+03  0.63719047264E+03  0.36024036294E+04  0.37343606255E+04  0.00000000000E+00 0.  1.
<mgrwt>
<rscale>  0 0.42316086E+04</rscale>
<asrwt>0</asrwt>
<pdfrwt beam="1">  1        2 0.17687917E+00 0.42316086E+04</pdfrwt>
<pdfrwt beam="2">  1       -2 0.59902865E+00 0.42316086E+04</pdfrwt>
<totfact> 0.80666167E-03</totfact>
</mgrwt>
</event>
<event>
 6    1  0.9906445E-006  0.3129731E+04  0.7818608E-02  0.8207626E-01
         -2   -1    0    0    0  501 -0.00000000000E+00  0.00000000000E+00  0.13140070824E+04  0.13140070824E+04  0.00000000000E+00 0.  1.
          2   -1    0    0  501    0  0.00000000000E+00 -0.00000000000E+00 -0.18636153380E+04  0.18636153380E+04  0.00000000000E+00 0. -1.
         23    2    1    2    0    0  0.64885069840E+03 -0.14216901147E+04 -0.32644175879E+03  0.15990112280E+04  0.89792395650E+02 0.  0.
         13    1    3    3    0    0  0.48927994044E+03 -0.11310390016E+04 -0.22913066801E+03  0.12534532087E+04  0.00000000000E+00 0.  1.
        -13    1    3    3    0    0  0.15957075796E+03 -0.29065111310E+03 -0.97311090775E+02  0.34555801934E+03  0.00000000000E+00 0. -1.
         22    1    1    2    0    0 -0.64885069840E+03  0.14216901147E+04 -0.22316649681E+03  0.15786111923E+04  0.00000000000E+00 0. -1.
<mgrwt>
<rscale>  0 0.31297308E+04</rscale>
<asrwt>0</asrwt>
<pdfrwt beam="1">  1        2 0.28671005E+00 0.31297308E+04</pdfrwt>
<pdfrwt beam="2">  1       -2 0.20215494E+00 0.31297308E+04</pdfrwt>
<totfact> 0.86747792E-01</totfact>
</mgrwt>
</event>
<event>
 6    1  0.9906445E-006  0.6884747E+03  0.7818608E-02  0.9737147E-01
         -2   -1    0    0    0  501 -0.00000000000E+00  0.00000000000E+00  0.81570830523E+02  0.81570830523E+02  0.00000000000E+00 0.  1.
          2   -1    0    0  501    0  0.00000000000E+00 -0.00000000000E+00 -0.14527173376E+04  0.14527173376E+04  0.00000000000E+00 0. -1.
         23    2    1    2    0    0  0.28664015698E+03 -0.14574272593E+03 -0.46718894452E+03  0.57483895287E+03  0.93652496465E+02 0.  0.
         11    1    3    3    0    0  0.11622057756E+03 -0.85370462166E+02 -0.13980689427E+03  0.20085145293E+03  0.00000000000E+00 0. -1.
        -11    1    3    3    0    0  0.17041957942E+03 -0.60372263763E+02 -0.32738205025E+03  0.37398749993E+03  0.00000000000E+00 0.  1.
         22    1    1    2    0    0 -0.28664015698E+03  0.14574272593E+03 -0.90395756252E+03  0.95944921523E+03  0.00000000000E+00 0. -1.
<mgrwt>
<rscale>  0 0.68847472E+03</rscale>
<asrwt>0</asrwt>
<pdfrwt beam="1">  1        2 0.22349496E+00 0.68847472E+03</pdfrwt>
<pdfrwt beam="2">  1       -2 0.12549360E-01 0.68847472E+03</pdfrwt>
<totfact> 0.64724552E+02</totfact>
</mgrwt>
</event>
<event>
 6    1  0.9906445E-006  0.7864413E+03  0.7818608E-02  0.9579853E-01
         -1   -1    0    0    0  501 -0.00000000000E+00  0.00000000000E+00  0.36593424089E+03  0.36593424089E+03  0.00000000000E+00 0.  1.
          1   -1    0    0  501    0  0.00000000000E+00 -0.00000000000E+00 -0.42254165665E+03  0.42254165665E+03  0.00000000000E+00 0. -1.
         23    2    1    2    0    0  0.38569022963E+02  0.98067557069E+02 -0.40380847119E+03  0.42563517742E+03  0.83661266834E+02 0.  0.
         11    1    3    3    0    0  0.37955454705E+02  0.11318981427E+03 -0.36125505907E+03  0.38047045654E+03  0.00000000000E+00 0. -1.
        -11    1    3    3    0    0  0.61356825856E+00 -0.15122257200E+02 -0.42553412127E+02  0.45164720884E+02  0.00000000000E+00 0.  1.
         22    1    1    2    0    0 -0.38569022963E+02 -0.98067557069E+02  0.34720105543E+03  0.36284072011E+03  0.00000000000E+00 0.  1.
<mgrwt>
<rscale>  0 0.78644125E+03</rscale>
<asrwt>0</asrwt>
<pdfrwt beam="1">  1        1 0.65006409E-01 0.78644125E+03</pdfrwt>
<pdfrwt beam="2">  1       -1 0.56297576E-01 0.78644125E+03</pdfrwt>
<totfact> 0.18018335E+02</totfact>
</mgrwt>
</event>
<event>
 6    1  0.9906445E-006  0.7829865E+03  0.7818608E-02  0.9584975E-01
         -3   -1    0    0    0  501 -0.00000000000E+00  0.00000000000E+00  0.21356568603E+04  0.21356568603E+04  0.00000000000E+00 0.  1.
          3   -1    0    0  501    0  0.00000000000E+00 -0.00000000000E+00 -0.71765725873E+02  0.71765725873E+02  0.00000000000E+00 0. -1.
         23    2    1    2    0    0  0.11525685841E+03 -0.36535410464E+03  0.90992176367E+03  0.99152247768E+03  0.91604817326E+02 0.  0.
         11    1    3    3    0    0  0.70442694703E+02 -0.18807209169E+03  0.58722213669E+03  0.62061511642E+03  0.00000000000E+00 0. -1.
        -11    1    3    3    0    0  0.44814163706E+02 -0.17728201295E+03  0.32269962698E+03  0.37090736126E+03  0.00000000000E+00 0.  1.
         22    1    1    2    0    0 -0.11525685841E+03  0.36535410464E+03  0.11539693708E+04  0.12159001085E+04  0.00000000000E+00 0.  1.
<mgrwt>
<rscale>  0 0.78298650E+03</rscale>
<asrwt>0</asrwt>
<pdfrwt beam="1">  1        3 0.11040883E-01 0.78298650E+03</pdfrwt>
<pdfrwt beam="2">  1       -3 0.32856255E+00 0.78298650E+03</pdfrwt>
<totfact> 0.46573021E+00</totfact>
</mgrwt>
</event>
<event>
 6    1  0.9906445E-006  0.1679067E+04  0.7818608E-02  0.8773394E-01
          1   -1    0    0  501    0  0.00000000000E+00  0.00000000000E+00  0.24214348010E+04  0.24214348010E+04  0.00000000000E+00 0. -1.
         -1   -1    0    0    0  501 -0.00000000000E+00 -0.00000000000E+00 -0.29107392998E+03  0.29107392998E+03  0.00000000000E+00 0.  1.
         23    2    1    2    0    0 -0.52206474770E+03  0.20164672447E+03  0.20734998045E+04  0.21499732359E+04  0.98845705636E+02 0.  0.
         13    1    3    3    0    0 -0.25743396242E+03  0.12905839582E+03  0.12161852566E+04  0.12498139433E+04  0.00000000000E+00 0. -1.
        -13    1    3    3    0    0 -0.26463078528E+03  0.72588328651E+02  0.85731454795E+03  0.90015929263E+03  0.00000000000E+00 0.  1.
         22    1    1    2    0    0  0.52206474770E+03 -0.20164672447E+03  0.56861066453E+02  0.56253549502E+03  0.00000000000E+00 0.  1.
<mgrwt>
<rscale>  0 0.16790671E+04</rscale>
<asrwt>0</asrwt>
<pdfrwt beam="1">  1        1 0.37252842E+00 0.16790671E+04</pdfrwt>
<pdfrwt beam="2">  1       -1 0.44780606E-01 0.16790671E+04</pdfrwt>
<totfact> 0.72442351E+00</totfact>
</mgrwt>
</event>
<event>
 6    1  0.9906445E-006  0.2190875E+04  0.7818608E-02  0.8522236E-01
         -2   -1    0    0    0  501 -0.00000000000E+00  0.00000000000E+00  0.67432764050E+03  0.67432764050E+03  0.00000000000E+00 0.  1.
          2   -1    0    0  501    0  0.00000000000E+00 -0.00000000000E+00 -0.17795255572E+04  0.17795255572E+04  0.00000000000E+00 0. -1.
         23    2    1    2    0    0 -0.23991891982E+03  0.65697922438E+03  0.38790589592E+03  0.80505309319E+03  0.91960368757E+02 0.  0.
         13    1    3    3    0    0 -0.15444340812E+03  0.40786010914E+03  0.19051581945E+03  0.47591901874E+03  0.00000000000E+00 0.  1.
        -13    1    3    3    0    0 -0.85475511695E+02  0.24911911524E+03  0.19739007647E+03  0.32913407445E+03  0.00000000000E+00 0. -1.
         22    1    1    2    0    0  0.23991891982E+03 -0.65697922438E+03 -0.14931038126E+04  0.16488001045E+04  0.00000000000E+00 0. -1.
<mgrwt>
<rscale>  0 0.21908750E+04</rscale>
<asrwt>0</asrwt>
<pdfrwt beam="1">  1        2 0.27377316E+00 0.21908750E+04</pdfrwt>
<pdfrwt beam="2">  1       -2 0.10374271E+00 0.21908750E+04</pdfrwt>
<totfact> 0.61307521E+00</totfact>
</mgrwt>
</event>
<event>
 6    1  0.9906445E-006  0.3820879E+04  0.7818608E-02  0.8041689E-01
         -1   -1    0    0    0  501 -0.00000000000E+00  0.00000000000E+00  0.17978452427E+04  0.17978452427E+04  0.00000000000E+00 0.  1.
          1   -1    0    0  501    0  0.00000000000E+00 -0.00000000000E+00 -0.20300853097E+04  0.20300853097E+04  0.00000000000E+00 0. -1.
         23    2    1    2    0    0  0.18151412220E+04 -0.52451562463E+03 -0.39112771265E+03  0.19318557701E+04  0.96080864263E+02 0.  0.
         13    1    3    3    0    0  0.90163640168E+03 -0.25871593792E+03 -0.14516131472E+03  0.94918593787E+03  0.00000000000E+00 0. -1.
        -13    1    3    3    0    0  0.91350482035E+03 -0.26579968671E+03 -0.24596639793E+03  0.98266983223E+03  0.00000000000E+00 0.  1.
         22    1    1    2    0    0 -0.18151412220E+04  0.52451562463E+03  0.15888764563E+03  0.18960747824E+04  0.00000000000E+00 0.  1.
<mgrwt>
<rscale>  0 0.38208791E+04</rscale>
<asrwt>0</asrwt>
<pdfrwt beam="1">  1        1 0.31232082E+00 0.38208791E+04</pdfrwt>
<pdfrwt beam="2">  1       -1 0.27659158E+00 0.38208791E+04</pdfrwt>
<totfact> 0.10575103E-01</totfact>
</mgrwt>
</event>
<event>
 6    1  0.9906445E-006  0.3144849E+04  0.7818608E-02  0.8203536E-01
          2   -1    0    0  501    0  0.00000000000E+00  0.00000000000E+00  0.20531710138E+04  0.20531710138E+04  0.00000000000E+00 0.  1.
         -2   -1    0    0    0  501 -0.00000000000E+00 -0.00000000000E+00 -0.12042436011E+04  0.12042436011E+04  0.00000000000E+00 0. -1.
         23    2    1    2    0    0  0.48566969214E+03  0.13772981662E+04 -0.17498656931E+03  0.14738156883E+04  0.93204586591E+02 0.  0.
         13    1    3    3    0    0  0.31833101321E+03  0.10205340367E+04 -0.14111403090E+03  0.10783030760E+04  0.00000000000E+00 0. -1.
        -13    1    3    3    0    0  0.16733867892E+03  0.35676412953E+03 -0.33872538417E+02  0.39551261224E+03  0.00000000000E+00 0.  1.
         22    1    1    2    0    0 -0.48566969214E+03 -0.13772981662E+04  0.10239139820E+04  0.17835989267E+04  0.00000000000E+00 0.  1.
<mgrwt>
<rscale>  0 0.31448485E+04</rscale>
<asrwt>0</asrwt>
<pdfrwt beam="1">  1        2 0.31587246E+00 0.31448485E+04</pdfrwt>
<pdfrwt beam="2">  1       -2 0.18526825E+00 0.31448485E+04</pdfrwt>
<totfact> 0.88083200E-01</totfact>
</mgrwt>
</event>
<event>
 6    1  0.9906445E-006  0.2520443E+04  0.7818608E-02  0.8395739E-01
          2   -1    0    0  501    0  0.00000000000E+00  0.00000000000E+00  0.28231005713E+04  0.28231005713E+04  0.00000000000E+00 0.  1.
         -2   -1    0    0    0  501 -0.00000000000E+00 -0.00000000000E+00 -0.56255819251E+03  0.56255819251E+03  0.00000000000E+00 0. -1.
         23    2    1    2    0    0  0.14724991753E+03  0.42855672170E+03  0.27089918450E+04  0.27481241955E+04  0.90589050047E+02 0.  0.
         11    1    3    3    0    0  0.15399512499E+03  0.42377951762E+03  0.25989762087E+04  0.26377984971E+04  0.00000000000E+00 0.  1.
        -11    1    3    3    0    0 -0.67452074552E+01  0.47772040852E+01  0.11001563630E+03  0.11032569843E+03  0.00000000000E+00 0. -1.
         22    1    1    2    0    0 -0.14724991753E+03 -0.42855672170E+03 -0.44844946623E+03  0.63753456823E+03  0.00000000000E+00 0. -1.
<mgrwt>
<rscale>  0 0.25204431E+04</rscale>
<asrwt>0</asrwt>
<pdfrwt beam="1">  1        2 0.43432316E+00 0.25204431E+04</pdfrwt>
<pdfrwt beam="2">  1       -2 0.86547416E-01 0.25204431E+04</pdfrwt>
<totfact> 0.23049051E+00</totfact>
</mgrwt>
</event>
<event>
 6    1  0.9906445E-006  0.1881960E+04  0.7818608E-02  0.8663889E-01
         -1   -1    0    0    0  501 -0.00000000000E+00  0.00000000000E+00  0.47345949624E+03  0.47345949624E+03  0.00000000000E+00 0.  1.
          1   -1    0    0  501    0  0.00000000000E+00 -0.00000000000E+00 -0.18701564514E+04  0.18701564514E+04  0.00000000000E+00 0. -1.
         23    2    1    2    0    0 -0.71058634696E+03  0.59859495048E+03 -0.86746578232E+03  0.12743477374E+04  0.90644365511E+02 0.  0.
         13    1    3    3    0    0 -0.12211279006E+03  0.61492553209E+02 -0.13263261606E+03  0.19048432597E+03  0.00000000000E+00 0. -1.
        -13    1    3    3    0    0 -0.58847355690E+03  0.53710239727E+03 -0.73483316626E+03  0.10838634114E+04  0.00000000000E+00 0.  1.
         22    1    1    2    0    0  0.71058634696E+03 -0.59859495048E+03 -0.52923117286E+03  0.10692682103E+04  0.00000000000E+00 0.  1.
<mgrwt>
<rscale>  0 0.18819600E+04</rscale>
<asrwt>0</asrwt>
<pdfrwt beam="1">  1        1 0.28771638E+00 0.18819600E+04</pdfrwt>
<pdfrwt beam="2">  1       -1 0.72839922E-01 0.18819600E+04</pdfrwt>
<totfact> 0.65001272E+00</totfact>
</mgrwt>
</event>
<event>
 6    1  0.9906445E-006  0.3041716E+04  0.7818608E-02  0.8231918E-01
          2   -1    0    0  501    0  0.00000000000E+00  0.00000000000E+00  0.11808161489E+04  0.11808161489E+04  0.00000000000E+00 0. -1.
         -2   -1    0    0    0  501 -0.00000000000E+00 -0.00000000000E+00 -0.19588223390E+04  0.19588223390E+04  0.00000000000E+00 0.  1.
         23    2    1    2    0    0 -0.11496025005E+04 -0.40047697085E+03 -0.13280281558E+04  0.18037897405E+04  0.89615466258E+02 0.  0.
         13    1    3    3    0    0 -0.64616293855E+03 -0.19764908312E+03 -0.68268489688E+03  0.96054691277E+03  0.00000000000E+00 0.  1.
        -13    1    3    3    0    0 -0.50343956194E+03 -0.20282788773E+03 -0.64534325896E+03  0.84324282769E+03  0.00000000000E+00 0. -1.
         22    1    1    2    0    0  0.11496025005E+04  0.40047697085E+03  0.55002196571E+03  0.13358487475E+04  0.00000000000E+00 0. -1.
<mgrwt>
<rscale>  0 0.30417160E+04</rscale>
<asrwt>0</asrwt>
<pdfrwt beam="1">  1        2 0.18166403E+00 0.30417160E+04</pdfrwt>
<pdfrwt beam="2">  1       -2 0.30135728E+00 0.30417160E+04</pdfrwt>
<totfact> 0.51732628E-01</totfact>
</mgrwt>
</event>
<event>
 6    1  0.9906445E-006  0.9803772E+03  0.7818608E-02  0.9330332E-01
         -2   -1    0    0    0  501 -0.00000000000E+00  0.00000000000E+00  0.12164904726E+03  0.12164904726E+03  0.00000000000E+00 0.  1.
          2   -1    0    0  501    0  0.00000000000E+00 -0.00000000000E+00 -0.19752302496E+04  0.19752302496E+04  0.00000000000E+00 0. -1.
         23    2    1    2    0    0  0.32649402121E+03  0.31852967694E+03 -0.12923143085E+04  0.13736365802E+04  0.93496960985E+02 0.  0.
         11    1    3    3    0    0  0.31060587992E+03  0.28991927068E+03 -0.11126495643E+04  0.11910156377E+04  0.00000000000E+00 0.  1.
        -11    1    3    3    0    0  0.15888141285E+02  0.28610406256E+02 -0.17966474413E+03  0.18262094256E+03  0.00000000000E+00 0. -1.
         22    1    1    2    0    0 -0.32649402121E+03 -0.31852967694E+03 -0.56126689385E+03  0.72324271660E+03  0.00000000000E+00 0.  1.
<mgrwt>
<rscale>  0 0.98037723E+03</rscale>
<asrwt>0</asrwt>
<pdfrwt beam="1">  1        2 0.30388157E+00 0.98037723E+03</pdfrwt>
<pdfrwt beam="2">  1       -2 0.18715238E-01 0.98037723E+03</pdfrwt>
<totfact> 0.16611434E+02</totfact>
</mgrwt>
</event>
<event>
 6    1  0.9906445E-006  0.2089690E+04  0.7818608E-02  0.8565799E-01
         -2   -1    0    0    0  501 -0.00000000000E+00  0.00000000000E+00  0.10679172526E+04  0.10679172526E+04  0.00000000000E+00 0.  1.
          2   -1    0    0  501    0  0.00000000000E+00 -0.00000000000E+00 -0.10222714299E+04  0.10222714299E+04  0.00000000000E+00 0. -1.
         23    2    1    2    0    0  0.88452785248E+03  0.52445156559E+03  0.19671832561E+03  0.10508322145E+04  0.90062627895E+02 0.  0.
         13    1    3    3    0    0  0.30743877366E+03  0.14436176921E+03  0.37469723462E+02  0.34170586787E+03  0.00000000000E+00 0. -1.
        -13    1    3    3    0    0  0.57708907882E+03  0.38008979638E+03  0.15924860215E+03  0.70912634664E+03  0.00000000000E+00 0.  1.
         22    1    1    2    0    0 -0.88452785248E+03 -0.52445156559E+03 -0.15107250297E+03  0.10393564680E+04  0.00000000000E+00 0. -1.
<mgrwt>
<rscale>  0 0.20896902E+04</rscale>
<asrwt>0</asrwt>
<pdfrwt beam="1">  1        2 0.15727253E+00 0.20896902E+04</pdfrwt>
<pdfrwt beam="2">  1       -2 0.16429496E+00 0.20896902E+04</pdfrwt>
<totfact> 0.52658475E+00</totfact>
</mgrwt>
</event>
<event>
 6    1  0.9906445E-006  0.2312792E+04  0.7818608E-02  0.8472895E-01
         -2   -1    0    0    0  501 -0.00000000000E+00  0.00000000000E+00  0.11355891275E+04  0.11355891275E+04  0.00000000000E+00 0.  1.
          2   -1    0    0  501    0  0.00000000000E+00 -0.00000000000E+00 -0.11775838352E+04  0.11775838352E+04  0.00000000000E+00 0. -1.
         23    2    1    2    0    0  0.77413009211E+03 -0.17592179593E+03  0.81727891368E+03  0.11433109904E+04  0.94812026286E+02 0.  0.
         11    1    3    3    0    0  0.39135170398E+03 -0.13456937721E+03  0.44660709920E+03  0.60887024442E+03  0.00000000000E+00 0. -1.
        -11    1    3    3    0    0  0.38277838813E+03 -0.41352418715E+02  0.37067181448E+03  0.53444074602E+03  0.00000000000E+00 0.  1.
         22    1    1    2    0    0 -0.77413009211E+03  0.17592179593E+03 -0.85927362142E+03  0.11698619723E+04  0.00000000000E+00 0. -1.
<mgrwt>
<rscale>  0 0.23127917E+04</rscale>
<asrwt>0</asrwt>
<pdfrwt beam="1">  1        2 0.18116674E+00 0.23127917E+04</pdfrwt>
<pdfrwt beam="2">  1       -2 0.17470602E+00 0.23127917E+04</pdfrwt>
<totfact> 0.34930815E+00</totfact>
</mgrwt>
</event>
<event>
 6    1  0.9906445E-006  0.2240615E+04  0.7818608E-02  0.8501711E-01
         -2   -1    0    0    0  501 -0.00000000000E+00  0.00000000000E+00  0.11624370246E+04  0.11624370246E+04  0.00000000000E+00 0.  1.
          2   -1    0    0  501    0  0.00000000000E+00 -0.00000000000E+00 -0.10797045058E+04  0.10797045058E+04  0.00000000000E+00 0. -1.
         23    2    1    2    0    0  0.58586225414E+02  0.10632336316E+04 -0.30091445701E+03  0.11102921132E+04  0.91109632517E+02 0.  0.
         13    1    3    3    0    0  0.30563024134E+02  0.50910214752E+03 -0.96957537469E+02  0.51915302091E+03  0.00000000000E+00 0.  1.
        -13    1    3    3    0    0  0.28023201279E+02  0.55413148405E+03 -0.20395691954E+03  0.59113909231E+03  0.00000000000E+00 0. -1.
         22    1    1    2    0    0 -0.58586225414E+02 -0.10632336316E+04  0.38364697580E+03  0.11318494172E+04  0.00000000000E+00 0.  1.
<mgrwt>
<rscale>  0 0.22406146E+04</rscale>
<asrwt>0</asrwt>
<pdfrwt beam="1">  1        2 0.16610839E+00 0.22406146E+04</pdfrwt>
<pdfrwt beam="2">  1       -2 0.17883647E+00 0.22406146E+04</pdfrwt>
<totfact> 0.37737371E+00</totfact>
</mgrwt>
</event>
<event>
 6    1  0.9906445E-006  0.3124034E+04  0.7818608E-02  0.8209173E-01
          2   -1    0    0  501    0  0.00000000000E+00  0.00000000000E+00  0.10151839276E+04  0.10151839276E+04  0.00000000000E+00 0. -1.
         -2   -1    0    0    0  501 -0.00000000000E+00 -0.00000000000E+00 -0.24034035308E+04  0.24034035308E+04  0.00000000000E+00 0.  1.
         23    2    1    2    0    0  0.14848045720E+04  0.39357090554E+03 -0.99699165494E+03  0.18334685409E+04  0.89843507059E+02 0.  0.
         13    1    3    3    0    0  0.54901263073E+03  0.14757860019E+03 -0.42106626793E+03  0.70745396594E+03  0.00000000000E+00 0.  1.
        -13    1    3    3    0    0  0.93579194131E+03  0.24599230534E+03 -0.57592538701E+03  0.11260145750E+04  0.00000000000E+00 0. -1.
         22    1    1    2    0    0 -0.14848045720E+04 -0.39357090554E+03 -0.39122794830E+03  0.15851189174E+04  0.00000000000E+00 0. -1.
<mgrwt>
<rscale>  0 0.31240337E+04</rscale>
<asrwt>0</asrwt>
<pdfrwt beam="1">  1        2 0.15618214E+00 0.31240337E+04</pdfrwt>
<pdfrwt beam="2">  1       -2 0.36975439E+00 0.31240337E+04</pdfrwt>
<totfact> 0.24305112E-01</totfact>
</mgrwt>
</event>
<event>
 6    1  0.9906445E-006  0.3730714E+04  0.7818608E-02  0.8061189E-01
         -2   -1    0    0    0  501 -0.00000000000E+00  0.00000000000E+00  0.85708596170E+03  0.85708596170E+03  0.00000000000E+00 0.  1.
          2   -1    0    0  501    0  0.00000000000E+00 -0.00000000000E+00 -0.40597513127E+04  0.40597513127E+04  0.00000000000E+00 0. -1.
         23    2    1    2    0    0  0.81062477816E+03 -0.10412354177E+04  0.13327593371E+03  0.13293886015E+04  0.90707514193E+02 0.  0.
         11    1    3    3    0    0  0.85044065886E+02 -0.77770814619E+02 -0.50947759714E+01  0.11535488499E+03  0.00000000000E+00 0. -1.
        -11    1    3    3    0    0  0.72558071227E+03 -0.96346460308E+03  0.13837070968E+03  0.12140337165E+04  0.00000000000E+00 0.  1.
         22    1    1    2    0    0 -0.81062477816E+03  0.10412354177E+04 -0.33359412847E+04  0.35874486729E+04  0.00000000000E+00 0. -1.
<mgrwt>
<rscale>  0 0.37307135E+04</rscale>
<asrwt>0</asrwt>
<pdfrwt beam="1">  1        2 0.62457713E+00 0.37307135E+04</pdfrwt>
<pdfrwt beam="2">  1       -2 0.13185938E+00 0.37307135E+04</pdfrwt>
<totfact> 0.10290655E-01</totfact>
</mgrwt>
</event>
<event>
 6    1  0.9906445E-006  0.3574502E+04  0.7818608E-02  0.8096357E-01
          2   -1    0    0  501    0  0.00000000000E+00  0.00000000000E+00  0.30443435224E+04  0.30443435224E+04  0.00000000000E+00 0. -1.
         -2   -1    0    0    0  501 -0.00000000000E+00 -0.00000000000E+00 -0.10492463364E+04  0.10492463364E+04  0.00000000000E+00 0.  1.
         23    2    1    2    0    0 -0.54252977235E+03  0.17004846218E+04  0.10715730024E+04  0.20838925133E+04  0.91393680424E+02 0.  0.
         11    1    3    3    0    0 -0.17689233395E+03  0.44012477970E+03  0.26074177952E+03  0.54128273121E+03  0.00000000000E+00 0. -1.
        -11    1    3    3    0    0 -0.36563743841E+03  0.12603598421E+04  0.81083122287E+03  0.15426097821E+04  0.00000000000E+00 0.  1.
         22    1    1    2    0    0  0.54252977235E+03 -0.17004846218E+04  0.92352418353E+03  0.20096973455E+04  0.00000000000E+00 0. -1.
<mgrwt>
<rscale>  0 0.35745021E+04</rscale>
<asrwt>0</asrwt>
<pdfrwt beam="1">  1        2 0.46836054E+00 0.35745021E+04</pdfrwt>
<pdfrwt beam="2">  1       -2 0.16142251E+00 0.35745021E+04</pdfrwt>
<totfact> 0.32761460E-01</totfact>
</mgrwt>
</event>
<event>
 6    1  0.9906445E-006  0.3606984E+04  0.7818608E-02  0.8088894E-01
          1   -1    0    0  501    0  0.00000000000E+00  0.00000000000E+00  0.15558234013E+04  0.15558234013E+04  0.00000000000E+00 0. -1.
         -1   -1    0    0    0  501 -0.00000000000E+00 -0.00000000000E+00 -0.20905865244E+04  0.20905865244E+04  0.00000000000E+00 0.  1.
         23    2    1    2    0    0 -0.13674675262E+04 -0.26820891376E+03  0.88823799476E+03  0.16547182733E+04  0.84984540235E+02 0.  0.
         11    1    3    3    0    0 -0.11776229744E+04 -0.21792364073E+03  0.73050772295E+03  0.14028286126E+04  0.00000000000E+00 0. -1.
        -11    1    3    3    0    0 -0.18984455176E+03 -0.50285273021E+02  0.15773027181E+03  0.25188966068E+03  0.00000000000E+00 0.  1.
         22    1    1    2    0    0  0.13674675262E+04  0.26820891376E+03 -0.14230011179E+04  0.19916916524E+04  0.00000000000E+00 0.  1.
<mgrwt>
<rscale>  0 0.36069840E+04</rscale>
<asrwt>0</asrwt>
<pdfrwt beam="1">  1        1 0.23935745E+00 0.36069840E+04</pdfrwt>
<pdfrwt beam="2">  1       -1 0.32162869E+00 0.36069840E+04</pdfrwt>
<totfact> 0.11555087E-01</totfact>
</mgrwt>
</event>
<event>
 6    1  0.9906445E-006  0.1184959E+04  0.7818608E-02  0.9126125E-01
          2   -1    0    0  501    0  0.00000000000E+00  0.00000000000E+00  0.12147555657E+04  0.12147555657E+04  0.00000000000E+00 0. -1.
         -2   -1    0    0    0  501 -0.00000000000E+00 -0.00000000000E+00 -0.28897341830E+03  0.28897341830E+03  0.00000000000E+00 0.  1.
         23    2    1    2    0    0 -0.19880541293E+03  0.88515263225E+02  0.11601899107E+04  0.11838766063E+04  0.90358431476E+02 0.  0.
         11    1    3    3    0    0 -0.40816117187E+02  0.25783381183E+02  0.49353507920E+03  0.49589072644E+03  0.00000000000E+00 0. -1.
        -11    1    3    3    0    0 -0.15798929574E+03  0.62731882041E+02  0.66665483146E+03  0.68798587988E+03  0.00000000000E+00 0.  1.
         22    1    1    2    0    0  0.19880541293E+03 -0.88515263225E+02 -0.23440776326E+03  0.31985237768E+03  0.00000000000E+00 0.  1.
<mgrwt>
<rscale>  0 0.11849592E+04</rscale>
<asrwt>0</asrwt>
<pdfrwt beam="1">  1        2 0.18688547E+00 0.11849592E+04</pdfrwt>
<pdfrwt beam="2">  1       -2 0.44457450E-01 0.11849592E+04</pdfrwt>
<totfact> 0.87916808E+01</totfact>
</mgrwt>
</event>
<event>
 6    1  0.9906445E-006  0.1468209E+04  0.7818608E-02  0.8905873E-01
          4   -1    0    0  501    0  0.00000000000E+00  0.00000000000E+00  0.19390206359E+04  0.19390206359E+04  0.00000000000E+00 0. -1.
         -4   -1    0    0    0  501 -0.00000000000E+00 -0.00000000000E+00 -0.27792874245E+03  0.27792874245E+03  0.00000000000E+00 0.  1.
         23    2    1    2    0    0 -0.26754707065E+03 -0.47107420571E+03  0.91922818416E+02  0.55689397917E+03  0.90491752042E+02 0.  0.
         11    1    3    3    0    0 -0.23295263442E+03 -0.38057919189E+03  0.10695216010E+03  0.45885315269E+03  0.00000000000E+00 0.  1.
        -11    1    3    3    0    0 -0.34594436223E+02 -0.90495013825E+02 -0.15029341687E+02  0.98040826477E+02  0.00000000000E+00 0. -1.
         22    1    1    2    0    0  0.26754707065E+03  0.47107420571E+03  0.15691690750E+04  0.16600553992E+04  0.00000000000E+00 0. -1.
<mgrwt>
<rscale>  0 0.14682092E+04</rscale>
<asrwt>0</asrwt>
<pdfrwt beam="1">  1        4 0.29831086E+00 0.14682092E+04</pdfrwt>
<pdfrwt beam="2">  1       -4 0.42758269E-01 0.14682092E+04</pdfrwt>
<totfact> 0.32879426E-01</totfact>
</mgrwt>
</event>
<event>
 6    1  0.9906445E-006  0.2571791E+04  0.7818608E-02  0.8377847E-01
          2   -1    0    0  501    0  0.00000000000E+00  0.00000000000E+00  0.27450396727E+04  0.27450396727E+04  0.00000000000E+00 0. -1.
         -2   -1    0    0    0  501 -0.00000000000E+00 -0.00000000000E+00 -0.60236923750E+03  0.60236923750E+03  0.00000000000E+00 0.  1.
         23    2    1    2    0    0  0.94550588022E+03 -0.65782439508E+03  0.33336732374E+03  0.12025797670E+04  0.91378439574E+02 0.  0.
         13    1    3    3    0    0  0.29913976653E+03 -0.16228221528E+03  0.11689036551E+03  0.35983812314E+03  0.00000000000E+00 0.  1.
        -13    1    3    3    0    0  0.64636611368E+03 -0.49554217980E+03  0.21647695823E+03  0.84274164388E+03  0.00000000000E+00 0. -1.
         22    1    1    2    0    0 -0.94550588022E+03  0.65782439508E+03  0.18093031115E+04  0.21448291432E+04  0.00000000000E+00 0. -1.
<mgrwt>
<rscale>  0 0.25717912E+04</rscale>
<asrwt>0</asrwt>
<pdfrwt beam="1">  1        2 0.42231379E+00 0.25717912E+04</pdfrwt>
<pdfrwt beam="2">  1       -2 0.92672192E-01 0.25717912E+04</pdfrwt>
<totfact> 0.21847970E+00</totfact>
</mgrwt>
</event>
<event>
 6    1  0.9906445E-006  0.2003156E+04  0.7818608E-02  0.8605147E-01
         -2   -1    0    0    0  501 -0.00000000000E+00  0.00000000000E+00  0.96667468775E+03  0.96667468775E+03  0.00000000000E+00 0.  1.
          2   -1    0    0  501    0  0.00000000000E+00 -0.00000000000E+00 -0.10377413157E+04  0.10377413157E+04  0.00000000000E+00 0. -1.
         23    2    1    2    0    0 -0.27022993436E+03 -0.72474832830E+03 -0.66902738278E+03  0.10267445754E+04  0.91227339128E+02 0.  0.
         11    1    3    3    0    0 -0.40076212847E+02 -0.71803306483E+02 -0.10740977903E+03  0.13527260731E+03  0.00000000000E+00 0.  1.
        -11    1    3    3    0    0 -0.23015372151E+03 -0.65294502182E+03 -0.56161760375E+03  0.89147196809E+03  0.00000000000E+00 0. -1.
         22    1    1    2    0    0  0.27022993436E+03  0.72474832830E+03  0.59796075486E+03  0.97767142802E+03  0.00000000000E+00 0. -1.
<mgrwt>
<rscale>  0 0.20031558E+04</rscale>
<asrwt>0</asrwt>
<pdfrwt beam="1">  1        2 0.15965251E+00 0.20031558E+04</pdfrwt>
<pdfrwt beam="2">  1       -2 0.14871918E+00 0.20031558E+04</pdfrwt>
<totfact> 0.67835917E+00</totfact>
</mgrwt>
</event>
<event>
 6    1  0.9906445E-006  0.5174025E+04  0.7818608E-02  0.7802209E-01
          1   -1    0    0  501    0  0.00000000000E+00  0.00000000000E+00  0.35209276853E+04  0.35209276853E+04  0.00000000000E+00 0. -1.
         -1   -1    0    0    0  501 -0.00000000000E+00 -0.00000000000E+00 -0.19008156779E+04  0.19008156779E+04  0.00000000000E+00 0.  1.
         23    2    1    2    0    0  0.42261614994E+03 -0.36016298891E+03  0.34571325484E+04  0.35026377755E+04  0.91564953900E+02 0.  0.
         13    1    3    3    0    0  0.21789915056E+03 -0.21685273347E+03  0.21455331133E+04  0.21674449216E+04  0.00000000000E+00 0.  1.
        -13    1    3    3    0    0  0.20471699938E+03 -0.14331025543E+03  0.13115994350E+04  0.13351928539E+04  0.00000000000E+00 0. -1.
         22    1    1    2    0    0 -0.42261614994E+03  0.36016298891E+03 -0.18370205410E+04  0.19191055877E+04  0.00000000000E+00 0.  1.
<mgrwt>
<rscale>  0 0.51740253E+04</rscale>
<asrwt>0</asrwt>
<pdfrwt beam="1">  1        1 0.54168118E+00 0.51740253E+04</pdfrwt>
<pdfrwt beam="2">  1       -1 0.29243318E+00 0.51740253E+04</pdfrwt>
<totfact> 0.63262830E-03</totfact>
</mgrwt>
</event>
<event>
 6    1  0.9906445E-006  0.7553281E+03  0.7818608E-02  0.9627028E-01
          1   -1    0    0  501    0  0.00000000000E+00  0.00000000000E+00  0.91392675269E+03  0.91392675269E+03  0.00000000000E+00 0. -1.
         -1   -1    0    0    0  501 -0.00000000000E+00 -0.00000000000E+00 -0.15606297699E+03  0.15606297699E+03  0.00000000000E+00 0.  1.
         23    2    1    2    0    0 -0.23758792553E+03  0.28568080640E+03  0.41425053800E+03  0.56389526951E+03  0.91174674293E+02 0.  0.
         11    1    3    3    0    0 -0.13117564735E+03  0.20103129264E+03  0.31256815953E+03  0.39410593174E+03  0.00000000000E+00 0.  1.
        -11    1    3    3    0    0 -0.10641227819E+03  0.84649513758E+02  0.10168237847E+03  0.16978933777E+03  0.00000000000E+00 0. -1.
         22    1    1    2    0    0  0.23758792553E+03 -0.28568080640E+03  0.34361323769E+03  0.50609446018E+03  0.00000000000E+00 0.  1.
<mgrwt>
<rscale>  0 0.75532809E+03</rscale>
<asrwt>0</asrwt>
<pdfrwt beam="1">  1        1 0.14060411E+00 0.75532809E+03</pdfrwt>
<pdfrwt beam="2">  1       -1 0.24009690E-01 0.75532809E+03</pdfrwt>
<totfact> 0.26892947E+02</totfact>
</mgrwt>
</event>
<event>
 6    1  0.9906445E-006  0.3161969E+04  0.7818608E-02  0.8198934E-01
          2   -1    0    0  501    0  0.00000000000E+00  0.00000000000E+00  0.22869801723E+04  0.22869801723E+04  0.00000000000E+00 0. -1.
         -2   -1    0    0    0  501 -0.00000000000E+00 -0.00000000000E+00 -0.10929314695E+04  0.10929314695E+04  0.00000000000E+00 0.  1.
         23    2    1    2    0    0  0.25264234013E+03 -0.68065626293E+03  0.20972270932E+04  0.22210965983E+04  0.88246917917E+02 0.  0.
         11    1    3    3    0    0  0.12576407387E+03 -0.22397740412E+03  0.69729161867E+03  0.74310031712E+03  0.00000000000E+00 0. -1.
        -11    1    3    3    0    0  0.12687826626E+03 -0.45667885882E+03  0.13999354745E+04  0.14779962812E+04  0.00000000000E+00 0.  1.
         22    1    1    2    0    0 -0.25264234013E+03  0.68065626293E+03 -0.90317839030E+03  0.11588150435E+04  0.00000000000E+00 0.  1.
<mgrwt>
<rscale>  0 0.31619694E+04</rscale>
<asrwt>0</asrwt>
<pdfrwt beam="1">  1        2 0.35184310E+00 0.31619694E+04</pdfrwt>
<pdfrwt beam="2">  1       -2 0.16814330E+00 0.31619694E+04</pdfrwt>
<totfact> 0.85591381E-01</totfact>
</mgrwt>
</event>
<event>
 6    1  0.1006142E-005  0.2545133E+04  0.7818608E-02  0.8387081E-01
         -2   -1    0    0    0  501 -0.00000000000E+00  0.00000000000E+00  0.71566189746E+03  0.71566189746E+03  0.00000000000E+00 0.  1.
          2   -1    0    0  501    0  0.00000000000E+00 -0.00000000000E+00 -0.22628351460E+04  0.22628351460E+04  0.00000000000E+00 0. -1.
         23    2    1    2    0    0 -0.96107546756E+03  0.38886119878E+03  0.85743247563E+02  0.10442542021E+04  0.90751571612E+02 0.  0.
         11    1    3    3    0    0 -0.45989285609E+03  0.14012770840E+03  0.54936841905E+02  0.48389592925E+03  0.00000000000E+00 0.  1.
        -11    1    3    3    0    0 -0.50118261147E+03  0.24873349038E+03  0.30806405658E+02  0.56035827281E+03  0.00000000000E+00 0. -1.
         22    1    1    2    0    0  0.96107546756E+03 -0.38886119878E+03 -0.16329164961E+04  0.19342428414E+04  0.00000000000E+00 0. -1.
<mgrwt>
<rscale>  0 0.25451325E+04</rscale>
<asrwt>0</asrwt>
<pdfrwt beam="1">  1        2 0.34812848E+00 0.25451325E+04</pdfrwt>
<pdfrwt beam="2">  1       -2 0.11010183E+00 0.25451325E+04</pdfrwt>
<totfact> 0.27716772E+00</totfact>
</mgrwt>
</event>
<event>
 6    1  0.9906445E-006  0.1576352E+04  0.7818608E-02  0.8835209E-01
         -2   -1    0    0    0  501 -0.00000000000E+00  0.00000000000E+00  0.86636081697E+03  0.86636081697E+03  0.00000000000E+00 0. -1.
          2   -1    0    0  501    0  0.00000000000E+00 -0.00000000000E+00 -0.71704679434E+03  0.71704679434E+03  0.00000000000E+00 0.  1.
         23    2    1    2    0    0  0.41457306122E+03 -0.24471996795E+03 -0.54879778316E+03  0.73539889721E+03  0.88734691208E+02 0.  0.
         11    1    3    3    0    0  0.20461500892E+03 -0.12525914403E+03 -0.20708763081E+03  0.31692655596E+03  0.00000000000E+00 0.  1.
        -11    1    3    3    0    0  0.20995805230E+03 -0.11946082391E+03 -0.34171015235E+03  0.41847234125E+03  0.00000000000E+00 0. -1.
         22    1    1    2    0    0 -0.41457306122E+03  0.24471996795E+03  0.69811180579E+03  0.84800871410E+03  0.00000000000E+00 0. -1.
<mgrwt>
<rscale>  0 0.15763518E+04</rscale>
<asrwt>0</asrwt>
<pdfrwt beam="1">  1        2 0.11031489E+00 0.15763518E+04</pdfrwt>
<pdfrwt beam="2">  1       -2 0.13328628E+00 0.15763518E+04</pdfrwt>
<totfact> 0.15554157E+01</totfact>
</mgrwt>
</event>
<event>
 6    1  0.9906445E-006  0.1148824E+04  0.7818608E-02  0.9158869E-01
         -1   -1    0    0    0  501 -0.00000000000E+00  0.00000000000E+00  0.44713026439E+03  0.44713026439E+03  0.00000000000E+00 0.  1.
          1   -1    0    0  501    0  0.00000000000E+00 -0.00000000000E+00 -0.73792607762E+03  0.73792607762E+03  0.00000000000E+00 0. -1.
         23    2    1    2    0    0 -0.26984615861E+03  0.49996827741E+03 -0.20031792214E+03  0.60975513699E+03  0.94280588827E+02 0.  0.
         13    1    3    3    0    0 -0.24598721767E+03  0.45575228719E+03 -0.15126512507E+03  0.53953776198E+03  0.00000000000E+00 0.  1.
        -13    1    3    3    0    0 -0.23858940935E+02  0.44215990211E+02 -0.49052797070E+02  0.70217375009E+02  0.00000000000E+00 0. -1.
         22    1    1    2    0    0  0.26984615861E+03 -0.49996827741E+03 -0.90477891085E+02  0.57530120502E+03  0.00000000000E+00 0.  1.
<mgrwt>
<rscale>  0 0.11488239E+04</rscale>
<asrwt>0</asrwt>
<pdfrwt beam="1">  1        1 0.11352709E+00 0.11488239E+04</pdfrwt>
<pdfrwt beam="2">  1       -1 0.68789272E-01 0.11488239E+04</pdfrwt>
<totfact> 0.53373230E+01</totfact>
</mgrwt>
</event>
<event>
 6    1  0.9906445E-006  0.2102459E+04  0.7818608E-02  0.8560161E-01
          1   -1    0    0  501    0  0.00000000000E+00  0.00000000000E+00  0.13203442868E+04  0.13203442868E+04  0.00000000000E+00 0. -1.
         -1   -1    0    0    0  501 -0.00000000000E+00 -0.00000000000E+00 -0.83696625359E+03  0.83696625359E+03  0.00000000000E+00 0.  1.
         23    2    1    2    0    0 -0.25433278716E+01 -0.10328724005E+04  0.52685407489E+02  0.10382359218E+04  0.91248084943E+02 0.  0.
         11    1    3    3    0    0 -0.28789462732E+02 -0.20811137079E+03 -0.12658193958E+02  0.21047423997E+03  0.00000000000E+00 0. -1.
        -11    1    3    3    0    0  0.26246134861E+02 -0.82476102966E+03  0.65343601446E+02  0.82776168182E+03  0.00000000000E+00 0.  1.
         22    1    1    2    0    0  0.25433278716E+01  0.10328724005E+04  0.43069262574E+03  0.11190746186E+04  0.00000000000E+00 0.  1.
<mgrwt>
<rscale>  0 0.21024591E+04</rscale>
<asrwt>0</asrwt>
<pdfrwt beam="1">  1        1 0.20312989E+00 0.21024591E+04</pdfrwt>
<pdfrwt beam="2">  1       -1 0.12876404E+00 0.21024591E+04</pdfrwt>
<totfact> 0.41791154E+00</totfact>
</mgrwt>
</event>
<event>
 6    1  0.9906445E-006  0.2867702E+04  0.7818608E-02  0.8282552E-01
         -1   -1    0    0    0  501 -0.00000000000E+00  0.00000000000E+00  0.71038490104E+03  0.71038490104E+03  0.00000000000E+00 0.  1.
          1   -1    0    0  501    0  0.00000000000E+00 -0.00000000000E+00 -0.28941049458E+04  0.28941049458E+04  0.00000000000E+00 0. -1.
         23    2    1    2    0    0  0.99708723227E+03 -0.10196282829E+04 -0.12614031436E+04  0.19061102514E+04  0.91069290909E+02 0.  0.
         13    1    3    3    0    0  0.71675830126E+03 -0.72146549443E+03 -0.95231419316E+03  0.13932541924E+04  0.00000000000E+00 0. -1.
        -13    1    3    3    0    0  0.28032893101E+03 -0.29816278847E+03 -0.30908895044E+03  0.51285605902E+03  0.00000000000E+00 0.  1.
         22    1    1    2    0    0 -0.99708723227E+03  0.10196282829E+04 -0.92231690116E+03  0.16983795954E+04  0.00000000000E+00 0.  1.
<mgrwt>
<rscale>  0 0.28677018E+04</rscale>
<asrwt>0</asrwt>
<pdfrwt beam="1">  1        1 0.44524692E+00 0.28677018E+04</pdfrwt>
<pdfrwt beam="2">  1       -1 0.10928998E+00 0.28677018E+04</pdfrwt>
<totfact> 0.47558122E-01</totfact>
</mgrwt>
</event>
<event>
 6    1  0.9906445E-006  0.1749840E+04  0.7818608E-02  0.8733438E-01
          1   -1    0    0  501    0  0.00000000000E+00  0.00000000000E+00  0.12178341941E+04  0.12178341941E+04  0.00000000000E+00 0. -1.
         -1   -1    0    0    0  501 -0.00000000000E+00 -0.00000000000E+00 -0.62856253149E+03  0.62856253149E+03  0.00000000000E+00 0.  1.
         23    2    1    2    0    0  0.21318241045E+03 -0.30000382575E+03  0.11302070418E+04  0.11921336898E+04  0.91464427351E+02 0.  0.
         11    1    3    3    0    0  0.10618166176E+03 -0.88573857459E+02  0.50286681892E+03  0.52153131362E+03  0.00000000000E+00 0. -1.
        -11    1    3    3    0    0  0.10700074869E+03 -0.21142996829E+03  0.62734022287E+03  0.67060237619E+03  0.00000000000E+00 0.  1.
         22    1    1    2    0    0 -0.21318241045E+03  0.30000382575E+03 -0.54093537915E+03  0.65426303580E+03  0.00000000000E+00 0.  1.
<mgrwt>
<rscale>  0 0.17498399E+04</rscale>
<asrwt>0</asrwt>
<pdfrwt beam="1">  1        1 0.18735911E+00 0.17498399E+04</pdfrwt>
<pdfrwt beam="2">  1       -1 0.96701928E-01 0.17498399E+04</pdfrwt>
<totfact> 0.10109942E+01</totfact>
</mgrwt>
</event>
<event>
 6    1  0.9906445E-006  0.4314341E+04  0.7818608E-02  0.7943972E-01
         -2   -1    0    0    0  501 -0.00000000000E+00  0.00000000000E+00  0.13991280907E+04  0.13991280907E+04  0.00000000000E+00 0.  1.
          2   -1    0    0  501    0  0.00000000000E+00 -0.00000000000E+00 -0.33259173314E+04  0.33259173314E+04  0.00000000000E+00 0. -1.
         23    2    1    2    0    0 -0.41258032188E+03  0.16210145495E+04  0.52619768612E+03  0.17560294985E+04  0.94047343815E+02 0.  0.
         11    1    3    3    0    0 -0.10545215465E+03  0.52378380277E+03  0.20437314297E+03  0.57204721005E+03  0.00000000000E+00 0. -1.
        -11    1    3    3    0    0 -0.30712816722E+03  0.10972307467E+04  0.32182454316E+03  0.11839822884E+04  0.00000000000E+00 0.  1.
         22    1    1    2    0    0  0.41258032188E+03 -0.16210145495E+04 -0.24529869268E+04  0.29690159236E+04  0.00000000000E+00 0. -1.
<mgrwt>
<rscale>  0 0.43143409E+04</rscale>
<asrwt>0</asrwt>
<pdfrwt beam="1">  1        2 0.51167959E+00 0.43143409E+04</pdfrwt>
<pdfrwt beam="2">  1       -2 0.21525048E+00 0.43143409E+04</pdfrwt>
<totfact> 0.87104881E-02</totfact>
</mgrwt>
</event>
<event>
 6    1  0.9906445E-006  0.1065664E+04  0.7818608E-02  0.9239320E-01
          2   -1    0    0  501    0  0.00000000000E+00  0.00000000000E+00  0.18957528664E+04  0.18957528664E+04  0.00000000000E+00 0. -1.
         -2   -1    0    0    0  501 -0.00000000000E+00 -0.00000000000E+00 -0.14976105541E+03  0.14976105541E+03  0.00000000000E+00 0.  1.
         23    2    1    2    0    0 -0.36539481768E+03 -0.21743802841E+03  0.14833995947E+04  0.15457666446E+04  0.90152609938E+02 0.  0.
         13    1    3    3    0    0 -0.21121591075E+03 -0.17447868581E+03  0.97612438992E+03  0.10138411105E+04  0.00000000000E+00 0. -1.
        -13    1    3    3    0    0 -0.15417890693E+03 -0.42959342602E+02  0.50727520480E+03  0.53192553414E+03  0.00000000000E+00 0.  1.
         22    1    1    2    0    0  0.36539481768E+03  0.21743802841E+03  0.26259221626E+03  0.49974727715E+03  0.00000000000E+00 0.  1.
<mgrwt>
<rscale>  0 0.10656640E+04</rscale>
<asrwt>0</asrwt>
<pdfrwt beam="1">  1        2 0.29165427E+00 0.10656640E+04</pdfrwt>
<pdfrwt beam="2">  1       -2 0.23040164E-01 0.10656640E+04</pdfrwt>
<totfact> 0.12645967E+02</totfact>
</mgrwt>
</event>
<event>
 6    1  0.9906445E-006  0.2404698E+04  0.7818608E-02  0.8437747E-01
          1   -1    0    0  501    0  0.00000000000E+00  0.00000000000E+00  0.85208805161E+03  0.85208805161E+03  0.00000000000E+00 0. -1.
         -1   -1    0    0    0  501 -0.00000000000E+00 -0.00000000000E+00 -0.16965889051E+04  0.16965889051E+04  0.00000000000E+00 0.  1.
         23    2    1    2    0    0 -0.87823848758E+03 -0.21211943474E+03 -0.12607902612E+04  0.15538933789E+04  0.93247276641E+02 0.  0.
         11    1    3    3    0    0 -0.23821385339E+03 -0.64635347696E+02 -0.27713181409E+03  0.37111401280E+03  0.00000000000E+00 0. -1.
        -11    1    3    3    0    0 -0.64002463419E+03 -0.14748408705E+03 -0.98365844708E+03  0.11827793661E+04  0.00000000000E+00 0.  1.
         22    1    1    2    0    0  0.87823848758E+03  0.21211943474E+03  0.41628940772E+03  0.99478357779E+03  0.00000000000E+00 0. -1.
<mgrwt>
<rscale>  0 0.24046980E+04</rscale>
<asrwt>0</asrwt>
<pdfrwt beam="1">  1        1 0.13109047E+00 0.24046980E+04</pdfrwt>
<pdfrwt beam="2">  1       -1 0.26101367E+00 0.24046980E+04</pdfrwt>
<totfact> 0.10558987E+00</totfact>
</mgrwt>
</event>
<event>
 6    1  0.9906445E-006  0.1648498E+04  0.7818608E-02  0.8791295E-01
         -1   -1    0    0    0  501 -0.00000000000E+00  0.00000000000E+00  0.64852101782E+03  0.64852101782E+03  0.00000000000E+00 0.  1.
          1   -1    0    0  501    0  0.00000000000E+00 -0.00000000000E+00 -0.10475940966E+04  0.10475940966E+04  0.00000000000E+00 0. -1.
         23    2    1    2    0    0 -0.43924912880E+03  0.13922100507E+03  0.50003782178E+03  0.68580689566E+03  0.89280398317E+02 0.  0.
         13    1    3    3    0    0 -0.28775927613E+03  0.46879869077E+02  0.32425911103E+03  0.43605859034E+03  0.00000000000E+00 0.  1.
        -13    1    3    3    0    0 -0.15148985267E+03  0.92341135993E+02  0.17577871075E+03  0.24974830532E+03  0.00000000000E+00 0. -1.
         22    1    1    2    0    0  0.43924912880E+03 -0.13922100507E+03 -0.89911090053E+03  0.10103082187E+04  0.00000000000E+00 0. -1.
<mgrwt>
<rscale>  0 0.16484985E+04</rscale>
<asrwt>0</asrwt>
<pdfrwt beam="1">  1        1 0.16116832E+00 0.16484985E+04</pdfrwt>
<pdfrwt beam="2">  1       -1 0.99772466E-01 0.16484985E+04</pdfrwt>
<totfact> 0.12728728E+01</totfact>
</mgrwt>
</event>
<event>
 6    1  0.9906445E-006  0.3668858E+04  0.7818608E-02  0.8074899E-01
          2   -1    0    0  501    0  0.00000000000E+00  0.00000000000E+00  0.29513243758E+04  0.29513243758E+04  0.00000000000E+00 0. -1.
         -2   -1    0    0    0  501 -0.00000000000E+00 -0.00000000000E+00 -0.11402098706E+04  0.11402098706E+04  0.00000000000E+00 0.  1.
         23    2    1    2    0    0 -0.12218506976E+03 -0.98479039844E+03 -0.81308298762E+03  0.12859765832E+04  0.88828529985E+02 0.  0.
         13    1    3    3    0    0 -0.11440116179E+03 -0.57134252545E+03 -0.46637898886E+03  0.74634393443E+03  0.00000000000E+00 0.  1.
        -13    1    3    3    0    0 -0.77839079739E+01 -0.41344787299E+03 -0.34670399876E+03  0.53963264881E+03  0.00000000000E+00 0. -1.
         22    1    1    2    0    0  0.12218506976E+03  0.98479039844E+03  0.26241974928E+04  0.28055576632E+04  0.00000000000E+00 0. -1.
<mgrwt>
<rscale>  0 0.36688577E+04</rscale>
<asrwt>0</asrwt>
<pdfrwt beam="1">  1        2 0.45404990E+00 0.36688577E+04</pdfrwt>
<pdfrwt beam="2">  1       -2 0.17541690E+00 0.36688577E+04</pdfrwt>
<totfact> 0.29518564E-01</totfact>
</mgrwt>
</event>
<event>
 6    1  0.9906445E-006  0.3774093E+04  0.7818608E-02  0.8051737E-01
         -2   -1    0    0    0  501 -0.00000000000E+00  0.00000000000E+00  0.14174784113E+04  0.14174784113E+04  0.00000000000E+00 0.  1.
          2   -1    0    0  501    0  0.00000000000E+00 -0.00000000000E+00 -0.25121689037E+04  0.25121689037E+04  0.00000000000E+00 0. -1.
         23    2    1    2    0    0  0.55294020518E+01 -0.18447381297E+04 -0.95583511503E+03  0.20796824079E+04  0.91481195332E+02 0.  0.
         13    1    3    3    0    0 -0.13241006567E+02 -0.10704632296E+04 -0.50709522812E+03  0.11845726742E+04  0.00000000000E+00 0. -1.
        -13    1    3    3    0    0  0.18770408619E+02 -0.77427490014E+03 -0.44873988691E+03  0.89510973368E+03  0.00000000000E+00 0.  1.
         22    1    1    2    0    0 -0.55294020518E+01  0.18447381297E+04 -0.13885537738E+03  0.18499649071E+04  0.00000000000E+00 0.  1.
<mgrwt>
<rscale>  0 0.37740934E+04</rscale>
<asrwt>0</asrwt>
<pdfrwt beam="1">  1        2 0.38648752E+00 0.37740934E+04</pdfrwt>
<pdfrwt beam="2">  1       -2 0.21807360E+00 0.37740934E+04</pdfrwt>
<totfact> 0.27974979E-01</totfact>
</mgrwt>
</event>
<event>
 6    1  0.9906445E-006  0.1337963E+04  0.7818608E-02  0.8999991E-01
          2   -1    0    0  501    0  0.00000000000E+00  0.00000000000E+00  0.95870962960E+03  0.95870962960E+03  0.00000000000E+00 0. -1.
         -2   -1    0    0    0  501 -0.00000000000E+00 -0.00000000000E+00 -0.46681073566E+03  0.46681073566E+03  0.00000000000E+00 0.  1.
         23    2    1    2    0    0  0.19697845936E+03  0.45490747026E+03 -0.22838660292E+03  0.55113342750E+03  0.76461065687E+02 0.  0.
         13    1    3    3    0    0  0.66373351062E+02  0.23946583322E+03 -0.13208404787E+03  0.28141695527E+03  0.00000000000E+00 0.  1.
        -13    1    3    3    0    0  0.13060510830E+03  0.21544163703E+03 -0.96302555046E+02  0.26971647222E+03  0.00000000000E+00 0. -1.
         22    1    1    2    0    0 -0.19697845936E+03 -0.45490747026E+03  0.72028549686E+03  0.87438693776E+03  0.00000000000E+00 0. -1.
<mgrwt>
<rscale>  0 0.13379626E+04</rscale>
<asrwt>0</asrwt>
<pdfrwt beam="1">  1        2 0.14749379E+00 0.13379626E+04</pdfrwt>
<pdfrwt beam="2">  1       -2 0.71817036E-01 0.13379626E+04</pdfrwt>
<totfact> 0.46044760E+01</totfact>
</mgrwt>
</event>
<event>
 6    1  0.9906445E-006  0.2579759E+04  0.7818608E-02  0.8375109E-01
         -1   -1    0    0    0  501 -0.00000000000E+00  0.00000000000E+00  0.54289394305E+03  0.54289394305E+03  0.00000000000E+00 0.  1.
          1   -1    0    0  501    0  0.00000000000E+00 -0.00000000000E+00 -0.30646663914E+04  0.30646663914E+04  0.00000000000E+00 0. -1.
         23    2    1    2    0    0  0.10702583454E+04  0.38153049339E+03 -0.21114441966E+04  0.23995091279E+04  0.91809674206E+02 0.  0.
         13    1    3    3    0    0  0.34939927281E+03  0.15487842020E+03 -0.77916437805E+03  0.86785039316E+03  0.00000000000E+00 0. -1.
        -13    1    3    3    0    0  0.72085907264E+03  0.22665207319E+03 -0.13322798185E+04  0.15316587347E+04  0.00000000000E+00 0.  1.
         22    1    1    2    0    0 -0.10702583454E+04 -0.38153049339E+03 -0.41032825176E+03  0.12080512065E+04  0.00000000000E+00 0.  1.
<mgrwt>
<rscale>  0 0.25797588E+04</rscale>
<asrwt>0</asrwt>
<pdfrwt beam="1">  1        1 0.47148713E+00 0.25797588E+04</pdfrwt>
<pdfrwt beam="2">  1       -1 0.83522147E-01 0.25797588E+04</pdfrwt>
<totfact> 0.67229734E-01</totfact>
</mgrwt>
</event>
<event>
 6    1  0.9906445E-006  0.3656712E+04  0.7818608E-02  0.8077623E-01
          2   -1    0    0  501    0  0.00000000000E+00  0.00000000000E+00  0.12968195943E+04  0.12968195943E+04  0.00000000000E+00 0. -1.
         -2   -1    0    0    0  501 -0.00000000000E+00 -0.00000000000E+00 -0.25777574595E+04  0.25777574595E+04  0.00000000000E+00 0.  1.
         23    2    1    2    0    0  0.53506425900E+03  0.41456022564E+03  0.11574997568E+04  0.13439384035E+04  0.90613484571E+02 0.  0.
         11    1    3    3    0    0  0.19106826756E+03  0.15065530790E+03  0.50447770893E+03  0.56009094214E+03  0.00000000000E+00 0.  1.
        -11    1    3    3    0    0  0.34399599144E+03  0.26390491773E+03  0.65302204783E+03  0.78384746136E+03  0.00000000000E+00 0. -1.
         22    1    1    2    0    0 -0.53506425900E+03 -0.41456022564E+03 -0.24384376220E+04  0.25306386503E+04  0.00000000000E+00 0.  1.
<mgrwt>
<rscale>  0 0.36567124E+04</rscale>
<asrwt>0</asrwt>
<pdfrwt beam="1">  1        2 0.19951071E+00 0.36567124E+04</pdfrwt>
<pdfrwt beam="2">  1       -2 0.39657807E+00 0.36567124E+04</pdfrwt>
<totfact> 0.10517458E-01</totfact>
</mgrwt>
</event>
<event>
 6    1  0.9906445E-006  0.1732606E+04  0.7818608E-02  0.8742984E-01
         -1   -1    0    0    0  501 -0.00000000000E+00  0.00000000000E+00  0.70417022069E+03  0.70417022069E+03  0.00000000000E+00 0.  1.
          1   -1    0    0  501    0  0.00000000000E+00 -0.00000000000E+00 -0.10657656885E+04  0.10657656885E+04  0.00000000000E+00 0. -1.
         23    2    1    2    0    0  0.30304299135E+03 -0.66474371702E+03  0.28977446821E+03  0.79116011388E+03  0.90806494482E+02 0.  0.
         13    1    3    3    0    0  0.13029080567E+02 -0.65451024953E+02  0.50508925402E+02  0.83694355563E+02  0.00000000000E+00 0. -1.
        -13    1    3    3    0    0  0.29001391078E+03 -0.59929269207E+03  0.23926554281E+03  0.70746575832E+03  0.00000000000E+00 0.  1.
         22    1    1    2    0    0 -0.30304299135E+03  0.66474371702E+03 -0.65136993601E+03  0.97877579530E+03  0.00000000000E+00 0. -1.
<mgrwt>
<rscale>  0 0.17326055E+04</rscale>
<asrwt>0</asrwt>
<pdfrwt beam="1">  1        1 0.16396395E+00 0.17326055E+04</pdfrwt>
<pdfrwt beam="2">  1       -1 0.10833388E+00 0.17326055E+04</pdfrwt>
<totfact> 0.10108297E+01</totfact>
</mgrwt>
</event>
<event>
 6    1  0.9906445E-006  0.1585313E+04  0.7818608E-02  0.8829622E-01
         -2   -1    0    0    0  501 -0.00000000000E+00  0.00000000000E+00  0.33215370557E+03  0.33215370557E+03  0.00000000000E+00 0.  1.
          2   -1    0    0  501    0  0.00000000000E+00 -0.00000000000E+00 -0.18916059737E+04  0.18916059737E+04  0.00000000000E+00 0. -1.
         23    2    1    2    0    0  0.28775721013E+03 -0.54311752295E+03 -0.86375465064E+02  0.62759674163E+03  0.92930583904E+02 0.  0.
         11    1    3    3    0    0  0.12392500291E+03 -0.21999680983E+03  0.10059572538E+02  0.25269981733E+03  0.00000000000E+00 0.  1.
        -11    1    3    3    0    0  0.16383220722E+03 -0.32312071312E+03 -0.96435037602E+02  0.37489692430E+03  0.00000000000E+00 0. -1.
         22    1    1    2    0    0 -0.28775721013E+03  0.54311752295E+03 -0.14730768030E+04  0.15961629376E+04  0.00000000000E+00 0. -1.
<mgrwt>
<rscale>  0 0.15853125E+04</rscale>
<asrwt>0</asrwt>
<pdfrwt beam="1">  1        2 0.29101630E+00 0.15853125E+04</pdfrwt>
<pdfrwt beam="2">  1       -2 0.51100571E-01 0.15853125E+04</pdfrwt>
<totfact> 0.26669519E+01</totfact>
</mgrwt>
</event>
<event>
 6    1  0.9906445E-006  0.3247260E+04  0.7818608E-02  0.8176446E-01
          2   -1    0    0  501    0  0.00000000000E+00  0.00000000000E+00  0.14310863796E+04  0.14310863796E+04  0.00000000000E+00 0. -1.
         -2   -1    0    0    0  501 -0.00000000000E+00 -0.00000000000E+00 -0.18420786519E+04  0.18420786519E+04  0.00000000000E+00 0.  1.
         23    2    1    2    0    0  0.23691176946E+03  0.14972780274E+04  0.37629311907E+03  0.15650119455E+04  0.98474364301E+02 0.  0.
         13    1    3    3    0    0  0.19951915617E+03  0.10805290966E+04  0.30712412827E+03  0.11409102736E+04  0.00000000000E+00 0. -1.
        -13    1    3    3    0    0  0.37392613288E+02  0.41674893081E+03  0.69168990804E+02  0.42410167195E+03  0.00000000000E+00 0.  1.
         22    1    1    2    0    0 -0.23691176946E+03 -0.14972780274E+04 -0.78728539138E+03  0.17081530860E+04  0.00000000000E+00 0.  1.
<mgrwt>
<rscale>  0 0.32472596E+04</rscale>
<asrwt>0</asrwt>
<pdfrwt beam="1">  1        2 0.22016714E+00 0.32472596E+04</pdfrwt>
<pdfrwt beam="2">  1       -2 0.28339671E+00 0.32472596E+04</pdfrwt>
<totfact> 0.46777915E-01</totfact>
</mgrwt>
</event>
<event>
 6    1  0.9906445E-006  0.1812840E+04  0.7818608E-02  0.8699501E-01
         -2   -1    0    0    0  501 -0.00000000000E+00  0.00000000000E+00  0.45132219997E+03  0.45132219997E+03  0.00000000000E+00 0.  1.
          2   -1    0    0  501    0  0.00000000000E+00 -0.00000000000E+00 -0.18204231130E+04  0.18204231130E+04  0.00000000000E+00 0. -1.
         23    2    1    2    0    0  0.24912497828E+03 -0.80597125616E+03 -0.27861228402E+03  0.89304361553E+03  0.90824962803E+02 0.  0.
         13    1    3    3    0    0  0.18662004959E+03 -0.48922251643E+03 -0.20199720259E+03  0.56122061913E+03  0.00000000000E+00 0.  1.
        -13    1    3    3    0    0  0.62504928699E+02 -0.31674873973E+03 -0.76615081429E+02  0.33182299639E+03  0.00000000000E+00 0. -1.
         22    1    1    2    0    0 -0.24912497828E+03  0.80597125616E+03 -0.10904886290E+04  0.13787016975E+04  0.00000000000E+00 0. -1.
<mgrwt>
<rscale>  0 0.18128402E+04</rscale>
<asrwt>0</asrwt>
<pdfrwt beam="1">  1        2 0.28006510E+00 0.18128402E+04</pdfrwt>
<pdfrwt beam="2">  1       -2 0.69434184E-01 0.18128402E+04</pdfrwt>
<totfact> 0.14999829E+01</totfact>
</mgrwt>
</event>
<event>
 6    1  0.9906445E-006  0.3790585E+04  0.7818608E-02  0.8048178E-01
         -2   -1    0    0    0  501 -0.00000000000E+00  0.00000000000E+00  0.11992330652E+04  0.11992330652E+04  0.00000000000E+00 0.  1.
          2   -1    0    0  501    0  0.00000000000E+00 -0.00000000000E+00 -0.29953589878E+04  0.29953589878E+04  0.00000000000E+00 0. -1.
         23    2    1    2    0    0  0.14699018010E+04  0.50276294055E+03 -0.20979566387E+04  0.26120360002E+04  0.89040045848E+02 0.  0.
         13    1    3    3    0    0  0.60143913819E+03  0.22110419228E+03 -0.93514925896E+03  0.11336314380E+04  0.00000000000E+00 0.  1.
        -13    1    3    3    0    0  0.86846266280E+03  0.28165874827E+03 -0.11628073797E+04  0.14784045622E+04  0.00000000000E+00 0. -1.
         22    1    1    2    0    0 -0.14699018010E+04 -0.50276294055E+03  0.30183071609E+03  0.15825560528E+04  0.00000000000E+00 0.  1.
<mgrwt>
<rscale>  0 0.37905849E+04</rscale>
<asrwt>0</asrwt>
<pdfrwt beam="1">  1        2 0.46082446E+00 0.37905849E+04</pdfrwt>
<pdfrwt beam="2">  1       -2 0.18449739E+00 0.37905849E+04</pdfrwt>
<totfact> 0.23738439E-01</totfact>
</mgrwt>
</event>
<event>
 6    1  0.9906445E-006  0.4126333E+04  0.7818608E-02  0.7979535E-01
          2   -1    0    0  501    0  0.00000000000E+00  0.00000000000E+00  0.28007233900E+04  0.28007233900E+04  0.00000000000E+00 0. -1.
         -2   -1    0    0    0  501 -0.00000000000E+00 -0.00000000000E+00 -0.15198415176E+04  0.15198415176E+04  0.00000000000E+00 0.  1.
         23    2    1    2    0    0  0.37971612942E+03 -0.16060470080E+04 -0.65396154578E+03  0.17774977863E+04  0.90891946871E+02 0.  0.
         11    1    3    3    0    0  0.17119022370E+03 -0.66216220274E+03 -0.22547544667E+03  0.72014168917E+03  0.00000000000E+00 0.  1.
        -11    1    3    3    0    0  0.20852590572E+03 -0.94388480525E+03 -0.42848609911E+03  0.10573560971E+04  0.00000000000E+00 0. -1.
         22    1    1    2    0    0 -0.37971612942E+03  0.16060470080E+04  0.19348434181E+04  0.25430671213E+04  0.00000000000E+00 0. -1.
<mgrwt>
<rscale>  0 0.41263328E+04</rscale>
<asrwt>0</asrwt>
<pdfrwt beam="1">  1        2 0.43088052E+00 0.41263328E+04</pdfrwt>
<pdfrwt beam="2">  1       -2 0.23382177E+00 0.41263328E+04</pdfrwt>
<totfact> 0.14594118E-01</totfact>
</mgrwt>
</event>
<event>
 6    1  0.9906445E-006  0.8785489E+03  0.7818608E-02  0.9452801E-01
          2   -1    0    0  501    0  0.00000000000E+00  0.00000000000E+00  0.97034374608E+03  0.97034374608E+03  0.00000000000E+00 0. -1.
         -2   -1    0    0    0  501 -0.00000000000E+00 -0.00000000000E+00 -0.19885945699E+03  0.19885945699E+03  0.00000000000E+00 0.  1.
         23    2    1    2    0    0 -0.96407058747E+02 -0.18573914321E+03 -0.11662701508E+03  0.25676962253E+03  0.92387380685E+02 0.  0.
         11    1    3    3    0    0 -0.38621118448E+02 -0.36937299408E+02 -0.74483291171E+02  0.91671781598E+02  0.00000000000E+00 0.  1.
        -11    1    3    3    0    0 -0.57785940298E+02 -0.14880184380E+03 -0.42143723914E+02  0.16509784093E+03  0.00000000000E+00 0. -1.
         22    1    1    2    0    0  0.96407058747E+02  0.18573914321E+03  0.88811130418E+03  0.91243358055E+03  0.00000000000E+00 0.  1.
<mgrwt>
<rscale>  0 0.87854887E+03</rscale>
<asrwt>0</asrwt>
<pdfrwt beam="1">  1        2 0.14928365E+00 0.87854887E+03</pdfrwt>
<pdfrwt beam="2">  1       -2 0.30593763E-01 0.87854887E+03</pdfrwt>
<totfact> 0.26076751E+02</totfact>
</mgrwt>
</event>
<event>
 6    1  0.9906445E-006  0.2750054E+04  0.7818608E-02  0.8318944E-01
         -1   -1    0    0    0  501 -0.00000000000E+00  0.00000000000E+00  0.13347041958E+04  0.13347041958E+04  0.00000000000E+00 0.  1.
          1   -1    0    0  501    0  0.00000000000E+00 -0.00000000000E+00 -0.14165683039E+04  0.14165683039E+04  0.00000000000E+00 0. -1.
         23    2    1    2    0    0  0.12162382521E+04  0.60418067711E+03 -0.23956526261E+03  0.13841077581E+04  0.11871391810E+03 0.  0.
         13    1    3    3    0    0  0.33544359979E+03  0.13682639122E+03 -0.11007299117E+03  0.37862901811E+03  0.00000000000E+00 0.  1.
        -13    1    3    3    0    0  0.88079465233E+03  0.46735428588E+03 -0.12949227145E+03  0.10054787399E+04  0.00000000000E+00 0. -1.
         22    1    1    2    0    0 -0.12162382521E+04 -0.60418067711E+03  0.15770115454E+03  0.13671647416E+04  0.00000000000E+00 0.  1.
<mgrwt>
<rscale>  0 0.27500543E+04</rscale>
<asrwt>0</asrwt>
<pdfrwt beam="1">  1        1 0.21793358E+00 0.27500543E+04</pdfrwt>
<pdfrwt beam="2">  1       -1 0.20533911E+00 0.27500543E+04</pdfrwt>
<totfact> 0.89949515E-01</totfact>
</mgrwt>
</event>
<event>
 6    1  0.9906445E-006  0.1533050E+04  0.7818608E-02  0.8862767E-01
          2   -1    0    0  501    0  0.00000000000E+00  0.00000000000E+00  0.27651716107E+04  0.27651716107E+04  0.00000000000E+00 0. -1.
         -2   -1    0    0    0  501 -0.00000000000E+00 -0.00000000000E+00 -0.21248623816E+03  0.21248623816E+03  0.00000000000E+00 0.  1.
         23    2    1    2    0    0  0.36275764015E+03  0.13636484332E+03  0.25593601385E+04  0.25900587925E+04  0.88835544901E+02 0.  0.
         11    1    3    3    0    0  0.14713374239E+03  0.42745310330E+02  0.74982620059E+03  0.76532008389E+03  0.00000000000E+00 0.  1.
        -11    1    3    3    0    0  0.21562389776E+03  0.93619532988E+02  0.18095339379E+04  0.18247387086E+04  0.00000000000E+00 0. -1.
         22    1    1    2    0    0 -0.36275764015E+03 -0.13636484332E+03 -0.66747659775E+01  0.38759905634E+03  0.00000000000E+00 0.  1.
<mgrwt>
<rscale>  0 0.15330504E+04</rscale>
<asrwt>0</asrwt>
<pdfrwt beam="1">  1        2 0.42541099E+00 0.15330504E+04</pdfrwt>
<pdfrwt beam="2">  1       -2 0.32690192E-01 0.15330504E+04</pdfrwt>
<totfact> 0.20503161E+01</totfact>
</mgrwt>
</event>
<event>
 6    1  0.9906445E-006  0.1298367E+04  0.7818608E-02  0.9030861E-01
         -1   -1    0    0    0  501 -0.00000000000E+00  0.00000000000E+00  0.44127291550E+03  0.44127291550E+03  0.00000000000E+00 0.  1.
          1   -1    0    0  501    0  0.00000000000E+00 -0.00000000000E+00 -0.95505400958E+03  0.95505400958E+03  0.00000000000E+00 0. -1.
         23    2    1    2    0    0  0.27543890520E+03  0.21244363889E+03 -0.84391204741E+03  0.91675906070E+03  0.85209984137E+02 0.  0.
         13    1    3    3    0    0  0.95197271316E+02  0.30573983363E+02 -0.19461054064E+03  0.21879339901E+03  0.00000000000E+00 0. -1.
        -13    1    3    3    0    0  0.18024163388E+03  0.18186965552E+03 -0.64930150678E+03  0.69796566168E+03  0.00000000000E+00 0.  1.
         22    1    1    2    0    0 -0.27543890520E+03 -0.21244363889E+03  0.33013095334E+03  0.47956786438E+03  0.00000000000E+00 0.  1.
<mgrwt>
<rscale>  0 0.12983674E+04</rscale>
<asrwt>0</asrwt>
<pdfrwt beam="1">  1        1 0.14693138E+00 0.12983674E+04</pdfrwt>
<pdfrwt beam="2">  1       -1 0.67888142E-01 0.12983674E+04</pdfrwt>
<totfact> 0.35456115E+01</totfact>
</mgrwt>
</event>
<event>
 6    1  0.9906445E-006  0.1865200E+04  0.7818608E-02  0.8672375E-01
         -2   -1    0    0    0  501 -0.00000000000E+00  0.00000000000E+00  0.28484810521E+03  0.28484810521E+03  0.00000000000E+00 0.  1.
          2   -1    0    0  501    0  0.00000000000E+00 -0.00000000000E+00 -0.30533571991E+04  0.30533571991E+04  0.00000000000E+00 0. -1.
         23    2    1    2    0    0  0.20850363007E+03 -0.56815393358E+03 -0.12282170584E+03  0.62417980494E+03  0.90788773949E+02 0.  0.
         11    1    3    3    0    0  0.15010284000E+03 -0.40679915432E+03 -0.12924658095E+03  0.45246115106E+03  0.00000000000E+00 0. -1.
        -11    1    3    3    0    0  0.58400790065E+02 -0.16135477927E+03  0.64248751025E+01  0.17171865389E+03  0.00000000000E+00 0.  1.
         22    1    1    2    0    0 -0.20850363007E+03  0.56815393358E+03 -0.26456873881E+04  0.27140254994E+04  0.00000000000E+00 0. -1.
<mgrwt>
<rscale>  0 0.18652003E+04</rscale>
<asrwt>0</asrwt>
<pdfrwt beam="1">  1        2 0.46974727E+00 0.18652003E+04</pdfrwt>
<pdfrwt beam="2">  1       -2 0.43822785E-01 0.18652003E+04</pdfrwt>
<totfact> 0.75001016E+00</totfact>
</mgrwt>
</event>
<event>
 6    1  0.9906445E-006  0.1751176E+04  0.7818608E-02  0.8732703E-01
         -1   -1    0    0    0  501 -0.00000000000E+00  0.00000000000E+00  0.57999343138E+03  0.57999343138E+03  0.00000000000E+00 0.  1.
          1   -1    0    0  501    0  0.00000000000E+00 -0.00000000000E+00 -0.13218334427E+04  0.13218334427E+04  0.00000000000E+00 0. -1.
         23    2    1    2    0    0  0.16665453489E+03 -0.22176869152E+03 -0.12711937234E+04  0.13041894932E+04  0.89563749356E+02 0.  0.
         11    1    3    3    0    0  0.86493337377E+02 -0.75929417783E+02 -0.69419031874E+03  0.70366652082E+03  0.00000000000E+00 0. -1.
        -11    1    3    3    0    0  0.80161197513E+02 -0.14583927374E+03 -0.57700340465E+03  0.60052297236E+03  0.00000000000E+00 0.  1.
         22    1    1    2    0    0 -0.16665453489E+03  0.22176869152E+03  0.52935371208E+03  0.59763738088E+03  0.00000000000E+00 0.  1.
<mgrwt>
<rscale>  0 0.17511764E+04</rscale>
<asrwt>0</asrwt>
<pdfrwt beam="1">  1        1 0.20335899E+00 0.17511764E+04</pdfrwt>
<pdfrwt beam="2">  1       -1 0.89229760E-01 0.17511764E+04</pdfrwt>
<totfact> 0.10179795E+01</totfact>
</mgrwt>
</event>
<event>
 6    1  0.9906445E-006  0.1572835E+04  0.7818608E-02  0.8837412E-01
         -2   -1    0    0    0  501 -0.00000000000E+00  0.00000000000E+00  0.24658908192E+03  0.24658908192E+03  0.00000000000E+00 0.  1.
          2   -1    0    0  501    0  0.00000000000E+00 -0.00000000000E+00 -0.25080299189E+04  0.25080299189E+04  0.00000000000E+00 0. -1.
         23    2    1    2    0    0  0.70700919144E+02  0.58667434170E+03 -0.20362414666E+04  0.21222424045E+04  0.91913599729E+02 0.  0.
         13    1    3    3    0    0  0.34124409027E+01  0.39048210043E+03 -0.13097681216E+04  0.13667408122E+04  0.00000000000E+00 0. -1.
        -13    1    3    3    0    0  0.67288478241E+02  0.19619224127E+03 -0.72647334505E+03  0.75550159226E+03  0.00000000000E+00 0.  1.
         22    1    1    2    0    0 -0.70700919144E+02 -0.58667434170E+03 -0.22519937034E+03  0.63237659632E+03  0.00000000000E+00 0.  1.
<mgrwt>
<rscale>  0 0.15728354E+04</rscale>
<asrwt>0</asrwt>
<pdfrwt beam="1">  1        2 0.38585075E+00 0.15728354E+04</pdfrwt>
<pdfrwt beam="2">  1       -2 0.37936782E-01 0.15728354E+04</pdfrwt>
<totfact> 0.21754346E+01</totfact>
</mgrwt>
</event>
<event>
 6    1  0.9906445E-006  0.1342701E+04  0.7818608E-02  0.8996372E-01
          1   -1    0    0  501    0  0.00000000000E+00  0.00000000000E+00  0.13605456212E+04  0.13605456212E+04  0.00000000000E+00 0. -1.
         -1   -1    0    0    0  501 -0.00000000000E+00 -0.00000000000E+00 -0.33127272872E+03  0.33127272872E+03  0.00000000000E+00 0.  1.
         23    2    1    2    0    0  0.13823879979E+03  0.51138172950E+03  0.37409497258E+01  0.53754931513E+03  0.91236135699E+02 0.  0.
         13    1    3    3    0    0  0.13761173506E+03  0.40923288423E+03  0.27659562231E+02  0.43263563716E+03  0.00000000000E+00 0.  1.
        -13    1    3    3    0    0  0.62706473324E+00  0.10214884527E+03 -0.23918612506E+02  0.10491367797E+03  0.00000000000E+00 0. -1.
         22    1    1    2    0    0 -0.13823879979E+03 -0.51138172950E+03  0.10255319427E+04  0.11542690348E+04  0.00000000000E+00 0. -1.
<mgrwt>
<rscale>  0 0.13427012E+04</rscale>
<asrwt>0</asrwt>
<pdfrwt beam="1">  1        1 0.20931471E+00 0.13427012E+04</pdfrwt>
<pdfrwt beam="2">  1       -1 0.50965036E-01 0.13427012E+04</pdfrwt>
<totfact> 0.31041146E+01</totfact>
</mgrwt>
</event>
<event>
 6    1  0.9906445E-006  0.2234890E+04  0.7818608E-02  0.8504045E-01
          1   -1    0    0  501    0  0.00000000000E+00  0.00000000000E+00  0.16816570620E+04  0.16816570620E+04  0.00000000000E+00 0. -1.
         -1   -1    0    0    0  501 -0.00000000000E+00 -0.00000000000E+00 -0.74253154943E+03  0.74253154943E+03  0.00000000000E+00 0.  1.
         23    2    1    2    0    0 -0.34922095778E+03 -0.74865927902E+03  0.12835896103E+04  0.15291458706E+04  0.90767904605E+02 0.  0.
         13    1    3    3    0    0 -0.20985829826E+02 -0.59114459958E+02  0.60069936186E+02  0.86852297972E+02  0.00000000000E+00 0. -1.
        -13    1    3    3    0    0 -0.32823512795E+03 -0.68954481906E+03  0.12235196741E+04  0.14422935726E+04  0.00000000000E+00 0.  1.
         22    1    1    2    0    0  0.34922095778E+03  0.74865927902E+03 -0.34446409768E+03  0.89504274088E+03  0.00000000000E+00 0.  1.
<mgrwt>
<rscale>  0 0.22348901E+04</rscale>
<asrwt>0</asrwt>
<pdfrwt beam="1">  1        1 0.25871647E+00 0.22348901E+04</pdfrwt>
<pdfrwt beam="2">  1       -1 0.11423562E+00 0.22348901E+04</pdfrwt>
<totfact> 0.31097732E+00</totfact>
</mgrwt>
</event>
<event>
 6    1  0.9906445E-006  0.3163779E+04  0.7818608E-02  0.8198449E-01
          1   -1    0    0  501    0  0.00000000000E+00  0.00000000000E+00  0.38953582115E+04  0.38953582115E+04  0.00000000000E+00 0. -1.
         -1   -1    0    0    0  501 -0.00000000000E+00 -0.00000000000E+00 -0.64239888593E+03  0.64239888593E+03  0.00000000000E+00 0.  1.
         23    2    1    2    0    0 -0.10588519203E+04  0.48396548458E+02  0.33093358656E+04  0.34763015264E+04  0.97256442848E+02 0.  0.
         11    1    3    3    0    0 -0.99183009058E+03  0.68949731167E+02  0.30803295804E+04  0.32368057276E+04  0.00000000000E+00 0. -1.
        -11    1    3    3    0    0 -0.67021829738E+02 -0.20553182709E+02  0.22900628522E+03  0.23949579882E+03  0.00000000000E+00 0.  1.
         22    1    1    2    0    0  0.10588519203E+04 -0.48396548458E+02 -0.56376540060E+02  0.10614555711E+04  0.00000000000E+00 0.  1.
<mgrwt>
<rscale>  0 0.31637786E+04</rscale>
<asrwt>0</asrwt>
<pdfrwt beam="1">  1        1 0.59928587E+00 0.31637786E+04</pdfrwt>
<pdfrwt beam="2">  1       -1 0.98830600E-01 0.31637786E+04</pdfrwt>
<totfact> 0.97070080E-02</totfact>
</mgrwt>
</event>
<event>
 6    1  0.9906445E-006  0.2084363E+04  0.7818608E-02  0.8568163E-01
         -2   -1    0    0    0  501 -0.00000000000E+00  0.00000000000E+00  0.50616273542E+03  0.50616273542E+03  0.00000000000E+00 0.  1.
          2   -1    0    0  501    0  0.00000000000E+00 -0.00000000000E+00 -0.21458366124E+04  0.21458366124E+04  0.00000000000E+00 0. -1.
         23    2    1    2    0    0 -0.17527660262E+03  0.31532339666E+03  0.41946180206E+03  0.56149929363E+03  0.95825473934E+02 0.  0.
         13    1    3    3    0    0  0.82481393888E+01  0.44102961917E+02  0.38410403884E+02  0.59063204956E+02  0.00000000000E+00 0.  1.
        -13    1    3    3    0    0 -0.18352474201E+03  0.27122043474E+03  0.38105139817E+03  0.50243608867E+03  0.00000000000E+00 0. -1.
         22    1    1    2    0    0  0.17527660262E+03 -0.31532339666E+03 -0.20591356791E+04  0.20905000542E+04  0.00000000000E+00 0. -1.
<mgrwt>
<rscale>  0 0.20843632E+04</rscale>
<asrwt>0</asrwt>
<pdfrwt beam="1">  1        2 0.33012871E+00 0.20843632E+04</pdfrwt>
<pdfrwt beam="2">  1       -2 0.77871190E-01 0.20843632E+04</pdfrwt>
<totfact> 0.75047369E+00</totfact>
</mgrwt>
</event>
<event>
 6    1  0.9906445E-006  0.3613475E+04  0.7818608E-02  0.8087412E-01
          2   -1    0    0  501    0  0.00000000000E+00  0.00000000000E+00  0.48006282724E+04  0.48006282724E+04  0.00000000000E+00 0. -1.
         -2   -1    0    0    0  501 -0.00000000000E+00 -0.00000000000E+00 -0.67997361379E+03  0.67997361379E+03  0.00000000000E+00 0.  1.
         23    2    1    2    0    0 -0.64288540322E+03 -0.35300851143E+03  0.45641003880E+04  0.46235366812E+04  0.90346225378E+02 0.  0.
         13    1    3    3    0    0 -0.19984659639E+03 -0.15366297826E+03  0.14440143602E+04  0.14658541692E+04  0.00000000000E+00 0. -1.
        -13    1    3    3    0    0 -0.44303880682E+03 -0.19934553316E+03  0.31200860278E+04  0.31576825120E+04  0.00000000000E+00 0.  1.
         22    1    1    2    0    0  0.64288540322E+03  0.35300851143E+03 -0.44344572930E+03  0.85706520501E+03  0.00000000000E+00 0.  1.
<mgrwt>
<rscale>  0 0.36134751E+04</rscale>
<asrwt>0</asrwt>
<pdfrwt beam="1">  1        2 0.73855818E+00 0.36134751E+04</pdfrwt>
<pdfrwt beam="2">  1       -2 0.10461133E+00 0.36134751E+04</pdfrwt>
<totfact> 0.35624744E-02</totfact>
</mgrwt>
</event>
<event>
 6    1  0.9906445E-006  0.3687900E+04  0.7818608E-02  0.8070649E-01
          2   -1    0    0  501    0  0.00000000000E+00  0.00000000000E+00  0.15893995831E+04  0.15893995831E+04  0.00000000000E+00 0. -1.
         -2   -1    0    0    0  501 -0.00000000000E+00 -0.00000000000E+00 -0.21392683295E+04  0.21392683295E+04  0.00000000000E+00 0.  1.
         23    2    1    2    0    0  0.71588468595E+03  0.57195730351E+03  0.13418534135E+04  0.16267072158E+04  0.77328790965E+02 0.  0.
         13    1    3    3    0    0  0.88886993574E+02  0.56884601997E+02  0.19654161566E+03  0.22308151483E+03  0.00000000000E+00 0.  1.
        -13    1    3    3    0    0  0.62699769238E+03  0.51507270152E+03  0.11453117979E+04  0.14036257010E+04  0.00000000000E+00 0. -1.
         22    1    1    2    0    0 -0.71588468595E+03 -0.57195730351E+03 -0.18917221599E+04  0.21019606968E+04  0.00000000000E+00 0.  1.
<mgrwt>
<rscale>  0 0.36879003E+04</rscale>
<asrwt>0</asrwt>
<pdfrwt beam="1">  1        2 0.24452301E+00 0.36879003E+04</pdfrwt>
<pdfrwt beam="2">  1       -2 0.32911821E+00 0.36879003E+04</pdfrwt>
<totfact> 0.19227541E-01</totfact>
</mgrwt>
</event>
<event>
 6    1  0.9906445E-006  0.7945130E+03  0.7818608E-02  0.9567993E-01
          2   -1    0    0  501    0  0.00000000000E+00  0.00000000000E+00  0.17103629045E+04  0.17103629045E+04  0.00000000000E+00 0.  1.
         -2   -1    0    0    0  501 -0.00000000000E+00 -0.00000000000E+00 -0.92268558626E+02  0.92268558626E+02  0.00000000000E+00 0. -1.
         23    2    1    2    0    0 -0.30158067865E+03 -0.23487256422E+03  0.10179007197E+04  0.10910498332E+04  0.90287519455E+02 0.  0.
         11    1    3    3    0    0 -0.27778358688E+03 -0.18058676537E+03  0.90085786069E+03  0.95985425254E+03  0.00000000000E+00 0.  1.
        -11    1    3    3    0    0 -0.23797091773E+02 -0.54285798853E+02  0.11704285901E+03  0.13119558064E+03  0.00000000000E+00 0. -1.
         22    1    1    2    0    0  0.30158067865E+03  0.23487256422E+03  0.60019362614E+03  0.71158162991E+03  0.00000000000E+00 0.  1.
<mgrwt>
<rscale>  0 0.79451298E+03</rscale>
<asrwt>0</asrwt>
<pdfrwt beam="1">  1        2 0.26313273E+00 0.79451298E+03</pdfrwt>
<pdfrwt beam="2">  1       -2 0.14195164E-01 0.79451298E+03</pdfrwt>
<totfact> 0.37728785E+02</totfact>
</mgrwt>
</event>
<event>
 6    1  0.9906445E-006  0.3490346E+04  0.7818608E-02  0.8116082E-01
          2   -1    0    0  501    0  0.00000000000E+00  0.00000000000E+00  0.22773576678E+04  0.22773576678E+04  0.00000000000E+00 0. -1.
         -2   -1    0    0    0  501 -0.00000000000E+00 -0.00000000000E+00 -0.13373520158E+04  0.13373520158E+04  0.00000000000E+00 0.  1.
         23    2    1    2    0    0 -0.29424125249E+03  0.50958349182E+03  0.21704850097E+04  0.22507695457E+04  0.93301236414E+02 0.  0.
         11    1    3    3    0    0 -0.12166825633E+03  0.30187904610E+03  0.12197008056E+04  0.12623803620E+04  0.00000000000E+00 0. -1.
        -11    1    3    3    0    0 -0.17257299616E+03  0.20770444572E+03  0.95078420413E+03  0.98838918377E+03  0.00000000000E+00 0.  1.
         22    1    1    2    0    0  0.29424125249E+03 -0.50958349182E+03 -0.12304793577E+04  0.13639401378E+04  0.00000000000E+00 0.  1.
<mgrwt>
<rscale>  0 0.34903460E+04</rscale>
<asrwt>0</asrwt>
<pdfrwt beam="1">  1        2 0.35036272E+00 0.34903460E+04</pdfrwt>
<pdfrwt beam="2">  1       -2 0.20574646E+00 0.34903460E+04</pdfrwt>
<totfact> 0.46846302E-01</totfact>
</mgrwt>
</event>
<event>
 6    1  0.1335966E-005  0.3323442E+04  0.7818608E-02  0.8156956E-01
          2   -1    0    0  501    0  0.00000000000E+00  0.00000000000E+00  0.23405343035E+04  0.23405343035E+04  0.00000000000E+00 0.  1.
         -2   -1    0    0    0  501 -0.00000000000E+00 -0.00000000000E+00 -0.11797805040E+04  0.11797805040E+04  0.00000000000E+00 0. -1.
         23    2    1    2    0    0 -0.45344885967E+03 -0.10010706821E+04 -0.73803157651E+03  0.13264268698E+04  0.83422143512E+02 0.  0.
         13    1    3    3    0    0 -0.21202299761E+03 -0.41140413544E+03 -0.35155478176E+03  0.58120381860E+03  0.00000000000E+00 0. -1.
        -13    1    3    3    0    0 -0.24142586206E+03 -0.58966654667E+03 -0.38647679475E+03  0.74522305118E+03  0.00000000000E+00 0.  1.
         22    1    1    2    0    0  0.45344885967E+03  0.10010706821E+04  0.18987853760E+04  0.21938879377E+04  0.00000000000E+00 0.  1.
<mgrwt>
<rscale>  0 0.33234420E+04</rscale>
<asrwt>0</asrwt>
<pdfrwt beam="1">  1        2 0.36008220E+00 0.33234420E+04</pdfrwt>
<pdfrwt beam="2">  1       -2 0.18150469E+00 0.33234420E+04</pdfrwt>
<totfact> 0.63447133E-01</totfact>
</mgrwt>
</event>
<event>
 6    1  0.9906445E-006  0.2244198E+04  0.7818608E-02  0.8500254E-01
         -2   -1    0    0    0  501 -0.00000000000E+00  0.00000000000E+00  0.71043084518E+03  0.71043084518E+03  0.00000000000E+00 0. -1.
          2   -1    0    0  501    0  0.00000000000E+00 -0.00000000000E+00 -0.17723132756E+04  0.17723132756E+04  0.00000000000E+00 0.  1.
         23    2    1    2    0    0 -0.11154566524E+04 -0.57375644027E+02 -0.63132822831E+03  0.12857009182E+04  0.83162559953E+02 0.  0.
         13    1    3    3    0    0 -0.20596338844E+03 -0.95252255719E+01 -0.80553929805E+02  0.22136075286E+03  0.00000000000E+00 0. -1.
        -13    1    3    3    0    0 -0.90949326394E+03 -0.47850418455E+02 -0.55077429851E+03  0.10643401654E+04  0.00000000000E+00 0.  1.
         22    1    1    2    0    0  0.11154566524E+04  0.57375644027E+02 -0.43055420211E+03  0.11970432026E+04  0.00000000000E+00 0. -1.
<mgrwt>
<rscale>  0 0.22441979E+04</rscale>
<asrwt>0</asrwt>
<pdfrwt beam="1">  1        2 0.27266358E+00 0.22441979E+04</pdfrwt>
<pdfrwt beam="2">  1       -2 0.10929705E+00 0.22441979E+04</pdfrwt>
<totfact> 0.54333258E+00</totfact>
</mgrwt>
</event>
<event>
 6    1  0.9906445E-006  0.9320882E+03  0.7818608E-02  0.9386335E-01
          1   -1    0    0  501    0  0.00000000000E+00  0.00000000000E+00  0.11489998126E+04  0.11489998126E+04  0.00000000000E+00 0. -1.
         -1   -1    0    0    0  501 -0.00000000000E+00 -0.00000000000E+00 -0.18903146003E+03  0.18903146003E+03  0.00000000000E+00 0.  1.
         23    2    1    2    0    0  0.80484192391E+02 -0.45474520531E+03  0.45933040605E+03  0.65692242637E+03  0.85391717210E+02 0.  0.
         13    1    3    3    0    0  0.10348411614E+02 -0.26462826095E+03  0.22868150629E+03  0.34990061079E+03  0.00000000000E+00 0.  1.
        -13    1    3    3    0    0  0.70135780777E+02 -0.19011694437E+03  0.23064889976E+03  0.30702181558E+03  0.00000000000E+00 0. -1.
         22    1    1    2    0    0 -0.80484192391E+02  0.45474520531E+03  0.50063794657E+03  0.68110884631E+03  0.00000000000E+00 0.  1.
<mgrwt>
<rscale>  0 0.93208822E+03</rscale>
<asrwt>0</asrwt>
<pdfrwt beam="1">  1        1 0.17676920E+00 0.93208822E+03</pdfrwt>
<pdfrwt beam="2">  1       -1 0.29081764E-01 0.93208822E+03</pdfrwt>
<totfact> 0.12618227E+02</totfact>
</mgrwt>
</event>
<event>
 6    1  0.9906445E-006  0.1825446E+04  0.7818608E-02  0.8692884E-01
         -2   -1    0    0    0  501 -0.00000000000E+00  0.00000000000E+00  0.45718713208E+03  0.45718713208E+03  0.00000000000E+00 0.  1.
          2   -1    0    0  501    0  0.00000000000E+00 -0.00000000000E+00 -0.18221488271E+04  0.18221488271E+04  0.00000000000E+00 0. -1.
         23    2    1    2    0    0  0.67130767924E+03 -0.59492972208E+03 -0.48949310505E+03  0.10259243642E+04  0.91224595106E+02 0.  0.
         11    1    3    3    0    0  0.43560963502E+03 -0.36067917325E+03 -0.35303321096E+03  0.66669158400E+03  0.00000000000E+00 0.  1.
        -11    1    3    3    0    0  0.23569804422E+03 -0.23425054882E+03 -0.13645989410E+03  0.35923278020E+03  0.00000000000E+00 0. -1.
         22    1    1    2    0    0 -0.67130767924E+03  0.59492972208E+03 -0.87546859001E+03  0.12534115950E+04  0.00000000000E+00 0.  1.
<mgrwt>
<rscale>  0 0.18254457E+04</rscale>
<asrwt>0</asrwt>
<pdfrwt beam="1">  1        2 0.28033059E+00 0.18254457E+04</pdfrwt>
<pdfrwt beam="2">  1       -2 0.70336483E-01 0.18254457E+04</pdfrwt>
<totfact> 0.14535619E+01</totfact>
</mgrwt>
</event>
<event>
 6    1  0.9906445E-006  0.1144383E+04  0.7818608E-02  0.9162981E-01
         -1   -1    0    0    0  501 -0.00000000000E+00  0.00000000000E+00  0.45227865338E+03  0.45227865338E+03  0.00000000000E+00 0.  1.
          1   -1    0    0  501    0  0.00000000000E+00 -0.00000000000E+00 -0.72389721486E+03  0.72389721486E+03  0.00000000000E+00 0. -1.
         23    2    1    2    0    0  0.45285016234E+03  0.30907265479E+03  0.18290375003E+02  0.55597721705E+03  0.90426503818E+02 0.  0.
         13    1    3    3    0    0  0.13779279454E+03  0.69186725128E+02 -0.29926887247E+02  0.15706455915E+03  0.00000000000E+00 0. -1.
        -13    1    3    3    0    0  0.31505736781E+03  0.23988592966E+03  0.48217262250E+02  0.39891265791E+03  0.00000000000E+00 0.  1.
         22    1    1    2    0    0 -0.45285016234E+03 -0.30907265479E+03 -0.28990893649E+03  0.62019865118E+03  0.00000000000E+00 0. -1.
<mgrwt>
<rscale>  0 0.11443833E+04</rscale>
<asrwt>0</asrwt>
<pdfrwt beam="1">  1        1 0.11136880E+00 0.11443833E+04</pdfrwt>
<pdfrwt beam="2">  1       -1 0.69581331E-01 0.11443833E+04</pdfrwt>
<totfact> 0.53724238E+01</totfact>
</mgrwt>
</event>
<event>
 6    1  0.9906445E-006  0.2068992E+04  0.7818608E-02  0.8575027E-01
          2   -1    0    0  501    0  0.00000000000E+00  0.00000000000E+00  0.16634588448E+04  0.16634588448E+04  0.00000000000E+00 0. -1.
         -2   -1    0    0    0  501 -0.00000000000E+00 -0.00000000000E+00 -0.64334758973E+03  0.64334758973E+03  0.00000000000E+00 0.  1.
         23    2    1    2    0    0  0.23486416925E+03 -0.39069069646E+03  0.15438886800E+04  0.16124411207E+04  0.92594347340E+02 0.  0.
         13    1    3    3    0    0  0.72336305002E+02 -0.19140108432E+03  0.78184765859E+03  0.80817861723E+03  0.00000000000E+00 0. -1.
        -13    1    3    3    0    0  0.16252786424E+03 -0.19928961214E+03  0.76204102141E+03  0.80426250346E+03  0.00000000000E+00 0.  1.
         22    1    1    2    0    0 -0.23486416925E+03  0.39069069646E+03 -0.52377742488E+03  0.69436531388E+03  0.00000000000E+00 0.  1.
<mgrwt>
<rscale>  0 0.20689923E+04</rscale>
<asrwt>0</asrwt>
<pdfrwt beam="1">  1        2 0.25591674E+00 0.20689923E+04</pdfrwt>
<pdfrwt beam="2">  1       -2 0.98976553E-01 0.20689923E+04</pdfrwt>
<totfact> 0.80368572E+00</totfact>
</mgrwt>
</event>
<event>
 6    1  0.9906445E-006  0.2381312E+04  0.7818608E-02  0.8446533E-01
          2   -1    0    0  501    0  0.00000000000E+00  0.00000000000E+00  0.23318802251E+04  0.23318802251E+04  0.00000000000E+00 0.  1.
         -2   -1    0    0    0  501 -0.00000000000E+00 -0.00000000000E+00 -0.60794774868E+03  0.60794774868E+03  0.00000000000E+00 0. -1.
         23    2    1    2    0    0 -0.11210153282E+04 -0.38940341412E+03  0.95101350716E+03  0.15235956065E+04  0.92771204002E+02 0.  0.
         13    1    3    3    0    0 -0.57876249211E+03 -0.15355822416E+03  0.46336933280E+03  0.75713756283E+03  0.00000000000E+00 0. -1.
        -13    1    3    3    0    0 -0.54225283612E+03 -0.23584518996E+03  0.48764417436E+03  0.76645804366E+03  0.00000000000E+00 0.  1.
         22    1    1    2    0    0  0.11210153282E+04  0.38940341412E+03  0.77291896922E+03  0.14162323672E+04  0.00000000000E+00 0. -1.
<mgrwt>
<rscale>  0 0.23813117E+04</rscale>
<asrwt>0</asrwt>
<pdfrwt beam="1">  1        2 0.35875080E+00 0.23813117E+04</pdfrwt>
<pdfrwt beam="2">  1       -2 0.93530424E-01 0.23813117E+04</pdfrwt>
<totfact> 0.37845886E+00</totfact>
</mgrwt>
</event>
<event>
 6    1  0.9906445E-006  0.4822966E+04  0.7818608E-02  0.7856412E-01
         -2   -1    0    0    0  501 -0.00000000000E+00  0.00000000000E+00  0.27942616489E+04  0.27942616489E+04  0.00000000000E+00 0.  1.
          2   -1    0    0  501    0  0.00000000000E+00 -0.00000000000E+00 -0.20811397812E+04  0.20811397812E+04  0.00000000000E+00 0. -1.
         23    2    1    2    0    0 -0.70908334359E+03  0.11503492121E+04  0.23746656485E+04  0.27337127895E+04  0.89700476252E+02 0.  0.
         13    1    3    3    0    0 -0.82201198292E+02  0.14605291042E+03  0.23989899749E+03  0.29264315922E+03  0.00000000000E+00 0. -1.
        -13    1    3    3    0    0 -0.62688214530E+03  0.10042963017E+04  0.21347666510E+04  0.24410696303E+04  0.00000000000E+00 0.  1.
         22    1    1    2    0    0  0.70908334359E+03 -0.11503492121E+04 -0.16615437808E+04  0.21416886406E+04  0.00000000000E+00 0. -1.
<mgrwt>
<rscale>  0 0.48229655E+04</rscale>
<asrwt>0</asrwt>
<pdfrwt beam="1">  1        2 0.32017535E+00 0.48229655E+04</pdfrwt>
<pdfrwt beam="2">  1       -2 0.42988641E+00 0.48229655E+04</pdfrwt>
<totfact> 0.20992943E-02</totfact>
</mgrwt>
</event>
<event>
 6    1  0.9906445E-006  0.2143955E+04  0.7818608E-02  0.8542124E-01
         -1   -1    0    0    0  501 -0.00000000000E+00  0.00000000000E+00  0.62609141055E+03  0.62609141055E+03  0.00000000000E+00 0.  1.
          1   -1    0    0  501    0  0.00000000000E+00 -0.00000000000E+00 -0.18354116100E+04  0.18354116100E+04  0.00000000000E+00 0. -1.
         23    2    1    2    0    0  0.20441886352E+03 -0.58905070576E+03 -0.16041483027E+04  0.17234941881E+04  0.91502095931E+02 0.  0.
         11    1    3    3    0    0  0.12500312853E+03 -0.35435440101E+03 -0.84084413083E+03  0.92098408022E+03  0.00000000000E+00 0. -1.
        -11    1    3    3    0    0  0.79415734983E+02 -0.23469630475E+03 -0.76330417185E+03  0.80251010785E+03  0.00000000000E+00 0.  1.
         22    1    1    2    0    0 -0.20441886352E+03  0.58905070576E+03  0.39482810324E+03  0.73800883248E+03  0.00000000000E+00 0.  1.
<mgrwt>
<rscale>  0 0.21439547E+04</rscale>
<asrwt>0</asrwt>
<pdfrwt beam="1">  1        1 0.28237102E+00 0.21439547E+04</pdfrwt>
<pdfrwt beam="2">  1       -1 0.96321754E-01 0.21439547E+04</pdfrwt>
<totfact> 0.36646840E+00</totfact>
</mgrwt>
</event>
<event>
 6    1  0.9906445E-006  0.4360718E+04  0.7818608E-02  0.7935485E-01
          2   -1    0    0  501    0  0.00000000000E+00  0.00000000000E+00  0.32189753509E+04  0.32189753509E+04  0.00000000000E+00 0. -1.
         -2   -1    0    0    0  501 -0.00000000000E+00 -0.00000000000E+00 -0.14768567765E+04  0.14768567765E+04  0.00000000000E+00 0.  1.
         23    2    1    2    0    0  0.14130301330E+04  0.80694886471E+03  0.24326628246E+04  0.29281579524E+04  0.91869194743E+02 0.  0.
         13    1    3    3    0    0  0.20374658841E+03  0.13493505693E+03  0.41864109386E+03  0.48474788019E+03  0.00000000000E+00 0.  1.
        -13    1    3    3    0    0  0.12092835446E+04  0.67201380778E+03  0.20140217308E+04  0.24434100722E+04  0.00000000000E+00 0. -1.
         22    1    1    2    0    0 -0.14130301330E+04 -0.80694886471E+03 -0.69054425023E+03  0.17676741749E+04  0.00000000000E+00 0.  1.
<mgrwt>
<rscale>  0 0.43607181E+04</rscale>
<asrwt>0</asrwt>
<pdfrwt beam="1">  1        2 0.49522698E+00 0.43607181E+04</pdfrwt>
<pdfrwt beam="2">  1       -2 0.22720874E+00 0.43607181E+04</pdfrwt>
<totfact> 0.85868263E-02</totfact>
</mgrwt>
</event>
<event>
 6    1  0.9906445E-006  0.3639276E+04  0.7818608E-02  0.8081554E-01
         -2   -1    0    0    0  501 -0.00000000000E+00  0.00000000000E+00  0.19967787447E+04  0.19967787447E+04  0.00000000000E+00 0.  1.
          2   -1    0    0  501    0  0.00000000000E+00 -0.00000000000E+00 -0.16582121198E+04  0.16582121198E+04  0.00000000000E+00 0. -1.
         23    2    1    2    0    0 -0.41647184912E+03  0.78862032116E+03 -0.14220112286E+04  0.16814141139E+04  0.98319254475E+02 0.  0.
         13    1    3    3    0    0 -0.94906429367E+02  0.27749684830E+03 -0.45328972252E+03  0.53989193705E+03  0.00000000000E+00 0.  1.
        -13    1    3    3    0    0 -0.32156541975E+03  0.51112347287E+03 -0.96872150613E+03  0.11415221768E+04  0.00000000000E+00 0. -1.
         22    1    1    2    0    0  0.41647184912E+03 -0.78862032116E+03  0.17605778536E+04  0.19735767506E+04  0.00000000000E+00 0.  1.
<mgrwt>
<rscale>  0 0.36392761E+04</rscale>
<asrwt>0</asrwt>
<pdfrwt beam="1">  1        2 0.25510956E+00 0.36392761E+04</pdfrwt>
<pdfrwt beam="2">  1       -2 0.30719673E+00 0.36392761E+04</pdfrwt>
<totfact> 0.24133390E-01</totfact>
</mgrwt>
</event>
<event>
 6    1  0.9906445E-006  0.2910614E+04  0.7818608E-02  0.8269727E-01
         -2   -1    0    0    0  501 -0.00000000000E+00  0.00000000000E+00  0.16837279827E+04  0.16837279827E+04  0.00000000000E+00 0.  1.
          2   -1    0    0  501    0  0.00000000000E+00 -0.00000000000E+00 -0.12578743654E+04  0.12578743654E+04  0.00000000000E+00 0. -1.
         23    2    1    2    0    0 -0.75773911866E+03  0.81593268131E+03 -0.73203771258E+03  0.13351693292E+04  0.82965128978E+02 0.  0.
         11    1    3    3    0    0 -0.51798787606E+03  0.54095204267E+03 -0.53613800192E+03  0.92107790622E+03  0.00000000000E+00 0.  1.
        -11    1    3    3    0    0 -0.23975124260E+03  0.27498063864E+03 -0.19589971066E+03  0.41409142299E+03  0.00000000000E+00 0. -1.
         22    1    1    2    0    0  0.75773911866E+03 -0.81593268131E+03  0.11578913299E+04  0.16064330189E+04  0.00000000000E+00 0.  1.
<mgrwt>
<rscale>  0 0.29106139E+04</rscale>
<asrwt>0</asrwt>
<pdfrwt beam="1">  1        2 0.19351913E+00 0.29106139E+04</pdfrwt>
<pdfrwt beam="2">  1       -2 0.25903507E+00 0.29106139E+04</pdfrwt>
<totfact> 0.85343669E-01</totfact>
</mgrwt>
</event>
<event>
 6    1  0.9906445E-006  0.2024658E+04  0.7818608E-02  0.8595178E-01
          1   -1    0    0  501    0  0.00000000000E+00  0.00000000000E+00  0.24140754891E+04  0.24140754891E+04  0.00000000000E+00 0.  1.
         -1   -1    0    0    0  501 -0.00000000000E+00 -0.00000000000E+00 -0.42451437248E+03  0.42451437248E+03  0.00000000000E+00 0. -1.
         23    2    1    2    0    0 -0.46040456911E+03  0.42005670801E+03 -0.11814422849E+03  0.64067225007E+03  0.89904772257E+02 0.  0.
         11    1    3    3    0    0 -0.25156400016E+03  0.28888334740E+03 -0.72646606872E+02  0.38989173378E+03  0.00000000000E+00 0.  1.
        -11    1    3    3    0    0 -0.20884056896E+03  0.13117336061E+03 -0.45497621615E+02  0.25078051629E+03  0.00000000000E+00 0. -1.
         22    1    1    2    0    0  0.46040456911E+03 -0.42005670801E+03  0.21077053451E+04  0.21979176115E+04  0.00000000000E+00 0.  1.
<mgrwt>
<rscale>  0 0.20246577E+04</rscale>
<asrwt>0</asrwt>
<pdfrwt beam="1">  1        1 0.37139622E+00 0.20246577E+04</pdfrwt>
<pdfrwt beam="2">  1       -1 0.65309905E-01 0.20246577E+04</pdfrwt>
<totfact> 0.34189722E+00</totfact>
</mgrwt>
</event>
<event>
 6    1  0.9906445E-006  0.2578359E+04  0.7818608E-02  0.8375589E-01
         -1   -1    0    0    0  501 -0.00000000000E+00  0.00000000000E+00  0.73214663163E+03  0.73214663163E+03  0.00000000000E+00 0.  1.
          1   -1    0    0  501    0  0.00000000000E+00 -0.00000000000E+00 -0.22700152294E+04  0.22700152294E+04  0.00000000000E+00 0. -1.
         23    2    1    2    0    0  0.16069780939E+03  0.93730901413E+03 -0.17805407173E+04  0.20207028799E+04  0.92427858929E+02 0.  0.
         11    1    3    3    0    0  0.99115861749E+02  0.32621712307E+03 -0.66145810668E+03  0.74415616125E+03  0.00000000000E+00 0.  1.
        -11    1    3    3    0    0  0.61581947641E+02  0.61109189106E+03 -0.11190826106E+04  0.12765467187E+04  0.00000000000E+00 0. -1.
         22    1    1    2    0    0 -0.16069780939E+03 -0.93730901413E+03  0.24267211956E+03  0.98145898107E+03  0.00000000000E+00 0.  1.
<mgrwt>
<rscale>  0 0.25783592E+04</rscale>
<asrwt>0</asrwt>
<pdfrwt beam="1">  1        1 0.34923311E+00 0.25783592E+04</pdfrwt>
<pdfrwt beam="2">  1       -1 0.11263795E+00 0.25783592E+04</pdfrwt>
<totfact> 0.12416840E+00</totfact>
</mgrwt>
</event>
<event>
 6    1  0.9906445E-006  0.1265389E+04  0.7818608E-02  0.9057472E-01
          1   -1    0    0  501    0  0.00000000000E+00  0.00000000000E+00  0.35708155882E+03  0.35708155882E+03  0.00000000000E+00 0. -1.
         -1   -1    0    0    0  501 -0.00000000000E+00 -0.00000000000E+00 -0.11210381935E+04  0.11210381935E+04  0.00000000000E+00 0.  1.
         23    2    1    2    0    0 -0.34513562147E+03 -0.32887044891E+03 -0.86404875122E+03  0.99099266295E+03  0.90619226174E+02 0.  0.
         11    1    3    3    0    0 -0.15799676250E+03 -0.21283711737E+03 -0.46955177215E+03  0.53920449017E+03  0.00000000000E+00 0. -1.
        -11    1    3    3    0    0 -0.18713885896E+03 -0.11603333155E+03 -0.39449697907E+03  0.45178817278E+03  0.00000000000E+00 0.  1.
         22    1    1    2    0    0  0.34513562147E+03  0.32887044891E+03  0.10009211656E+03  0.48712708934E+03  0.00000000000E+00 0. -1.
<mgrwt>
<rscale>  0 0.12653886E+04</rscale>
<asrwt>0</asrwt>
<pdfrwt beam="1">  1        1 0.54935625E-01 0.12653886E+04</pdfrwt>
<pdfrwt beam="2">  1       -1 0.17246741E+00 0.12653886E+04</pdfrwt>
<totfact> 0.16215433E+01</totfact>
</mgrwt>
</event>
<event>
 6    1  0.9906445E-006  0.3233942E+04  0.7818608E-02  0.8179910E-01
          2   -1    0    0  501    0  0.00000000000E+00  0.00000000000E+00  0.25198230991E+04  0.25198230991E+04  0.00000000000E+00 0. -1.
         -2   -1    0    0    0  501 -0.00000000000E+00 -0.00000000000E+00 -0.10376103304E+04  0.10376103304E+04  0.00000000000E+00 0.  1.
         23    2    1    2    0    0 -0.84821913387E+03  0.13404954969E+04  0.40542505297E+03  0.16401761017E+04  0.96975743730E+02 0.  0.
         11    1    3    3    0    0 -0.47088105484E+03  0.71054209795E+03  0.17142548672E+03  0.86947440345E+03  0.00000000000E+00 0.  1.
        -11    1    3    3    0    0 -0.37733807903E+03  0.62995339891E+03  0.23399956625E+03  0.77070169825E+03  0.00000000000E+00 0. -1.
         22    1    1    2    0    0  0.84821913387E+03 -0.13404954969E+04  0.10767877158E+04  0.19172573278E+04  0.00000000000E+00 0. -1.
<mgrwt>
<rscale>  0 0.32339415E+04</rscale>
<asrwt>0</asrwt>
<pdfrwt beam="1">  1        2 0.38766509E+00 0.32339415E+04</pdfrwt>
<pdfrwt beam="2">  1       -2 0.15963236E+00 0.32339415E+04</pdfrwt>
<totfact> 0.72141006E-01</totfact>
</mgrwt>
</event>
<event>
 6    1  0.9906445E-006  0.3713255E+04  0.7818608E-02  0.8065031E-01
         -1   -1    0    0    0  501 -0.00000000000E+00  0.00000000000E+00  0.19399773003E+04  0.19399773003E+04  0.00000000000E+00 0.  1.
          1   -1    0    0  501    0  0.00000000000E+00 -0.00000000000E+00 -0.17768592324E+04  0.17768592324E+04  0.00000000000E+00 0. -1.
         23    2    1    2    0    0  0.11035735208E+04 -0.13963211760E+04  0.60831160756E+03  0.18822290461E+04  0.71804091459E+02 0.  0.
         13    1    3    3    0    0  0.77094012719E+03 -0.92325290796E+03  0.42040125250E+03  0.12741592620E+04  0.00000000000E+00 0. -1.
        -13    1    3    3    0    0  0.33263339363E+03 -0.47306826805E+03  0.18791035505E+03  0.60806978409E+03  0.00000000000E+00 0.  1.
         22    1    1    2    0    0 -0.11035735208E+04  0.13963211760E+04 -0.44519353960E+03  0.18346074867E+04  0.00000000000E+00 0.  1.
<mgrwt>
<rscale>  0 0.37132555E+04</rscale>
<asrwt>0</asrwt>
<pdfrwt beam="1">  1        1 0.27336296E+00 0.37132555E+04</pdfrwt>
<pdfrwt beam="2">  1       -1 0.29845805E+00 0.37132555E+04</pdfrwt>
<totfact> 0.11440542E-01</totfact>
</mgrwt>
</event>
<event>
 6    1  0.9906445E-006  0.1704308E+04  0.7818608E-02  0.8758911E-01
          2   -1    0    0  501    0  0.00000000000E+00  0.00000000000E+00  0.31371530166E+03  0.31371530166E+03  0.00000000000E+00 0. -1.
         -2   -1    0    0    0  501 -0.00000000000E+00 -0.00000000000E+00 -0.23147296471E+04  0.23147296471E+04  0.00000000000E+00 0.  1.
         23    2    1    2    0    0 -0.69615605525E+03 -0.48567943710E+03 -0.10647324392E+04  0.13646642808E+04  0.90197910976E+02 0.  0.
         13    1    3    3    0    0 -0.24884791263E+03 -0.18290527506E+03 -0.45721249621E+03  0.55174531258E+03  0.00000000000E+00 0. -1.
        -13    1    3    3    0    0 -0.44730814262E+03 -0.30277416204E+03 -0.60751994302E+03  0.81291896818E+03  0.00000000000E+00 0.  1.
         22    1    1    2    0    0  0.69615605525E+03  0.48567943710E+03 -0.93628190619E+03  0.12637806680E+04  0.00000000000E+00 0. -1.
<mgrwt>
<rscale>  0 0.17043076E+04</rscale>
<asrwt>0</asrwt>
<pdfrwt beam="1">  1        2 0.48263892E-01 0.17043076E+04</pdfrwt>
<pdfrwt beam="2">  1       -2 0.35611225E+00 0.17043076E+04</pdfrwt>
<totfact> 0.14210347E+00</totfact>
</mgrwt>
</event>
<event>
 6    1  0.9906445E-006  0.4029283E+04  0.7818608E-02  0.7998665E-01
          2   -1    0    0  501    0  0.00000000000E+00  0.00000000000E+00  0.35998705778E+04  0.35998705778E+04  0.00000000000E+00 0. -1.
         -2   -1    0    0    0  501 -0.00000000000E+00 -0.00000000000E+00 -0.11274794501E+04  0.11274794501E+04  0.00000000000E+00 0.  1.
         23    2    1    2    0    0 -0.99282021536E+03 -0.10057459682E+04  0.29197066449E+04  0.32450180460E+04  0.90765047204E+02 0.  0.
         11    1    3    3    0    0 -0.48950567666E+03 -0.51131912613E+03  0.13612631769E+04  0.15343078221E+04  0.00000000000E+00 0. -1.
        -11    1    3    3    0    0 -0.50331453871E+03 -0.49442684207E+03  0.15584434680E+04  0.17107102239E+04  0.00000000000E+00 0.  1.
         22    1    1    2    0    0  0.99282021536E+03  0.10057459682E+04 -0.44731551720E+03  0.14823319819E+04  0.00000000000E+00 0.  1.
<mgrwt>
<rscale>  0 0.40292829E+04</rscale>
<asrwt>0</asrwt>
<pdfrwt beam="1">  1        2 0.55382624E+00 0.40292829E+04</pdfrwt>
<pdfrwt beam="2">  1       -2 0.17345838E+00 0.40292829E+04</pdfrwt>
<totfact> 0.10924982E-01</totfact>
</mgrwt>
</event>
<event>
 6    1  0.9906445E-006  0.4732768E+04  0.7818608E-02  0.7871107E-01
          2   -1    0    0  501    0  0.00000000000E+00  0.00000000000E+00  0.28590883652E+04  0.28590883652E+04  0.00000000000E+00 0. -1.
         -2   -1    0    0    0  501 -0.00000000000E+00 -0.00000000000E+00 -0.19585871391E+04  0.19585871391E+04  0.00000000000E+00 0.  1.
         23    2    1    2    0    0 -0.18636343640E+04  0.14446230963E+04  0.25829435317E+03  0.23738059086E+04  0.90385759958E+02 0.  0.
         13    1    3    3    0    0 -0.11440501991E+04  0.93838964735E+03  0.17786314722E+03  0.14903225448E+04  0.00000000000E+00 0.  1.
        -13    1    3    3    0    0 -0.71958416487E+03  0.50623344899E+03  0.80431205947E+02  0.88348336379E+03  0.00000000000E+00 0. -1.
         22    1    1    2    0    0  0.18636343640E+04 -0.14446230963E+04  0.64220687300E+03  0.24438695957E+04  0.00000000000E+00 0. -1.
<mgrwt>
<rscale>  0 0.47327682E+04</rscale>
<asrwt>0</asrwt>
<pdfrwt beam="1">  1        2 0.43985975E+00 0.47327682E+04</pdfrwt>
<pdfrwt beam="2">  1       -2 0.30132110E+00 0.47327682E+04</pdfrwt>
<totfact> 0.49368659E-02</totfact>
</mgrwt>
</event>
<event>
 6    1  0.9906445E-006  0.1604471E+04  0.7818608E-02  0.8817806E-01
          1   -1    0    0  501    0  0.00000000000E+00  0.00000000000E+00  0.11787010546E+04  0.11787010546E+04  0.00000000000E+00 0. -1.
         -1   -1    0    0    0  501 -0.00000000000E+00 -0.00000000000E+00 -0.54600936032E+03  0.54600936032E+03  0.00000000000E+00 0.  1.
         23    2    1    2    0    0  0.49536694762E+03 -0.48624815378E+02  0.99026868689E+03  0.11118367811E+04  0.88295923561E+02 0.  0.
         11    1    3    3    0    0  0.90316932803E+02 -0.27606126577E+02  0.25802507545E+03  0.27476569316E+03  0.00000000000E+00 0.  1.
        -11    1    3    3    0    0  0.40505001482E+03 -0.21018688801E+02  0.73224361145E+03  0.83707108795E+03  0.00000000000E+00 0. -1.
         22    1    1    2    0    0 -0.49536694762E+03  0.48624815378E+02 -0.35757699257E+03  0.61287363386E+03  0.00000000000E+00 0.  1.
<mgrwt>
<rscale>  0 0.16044710E+04</rscale>
<asrwt>0</asrwt>
<pdfrwt beam="1">  1        1 0.18133862E+00 0.16044710E+04</pdfrwt>
<pdfrwt beam="2">  1       -1 0.84001440E-01 0.16044710E+04</pdfrwt>
<totfact> 0.14926245E+01</totfact>
</mgrwt>
</event>
<event>
 6    1  0.9906445E-006  0.3096605E+04  0.7818608E-02  0.8216670E-01
         -1   -1    0    0    0  501 -0.00000000000E+00  0.00000000000E+00  0.11125283584E+04  0.11125283584E+04  0.00000000000E+00 0.  1.
          1   -1    0    0  501    0  0.00000000000E+00 -0.00000000000E+00 -0.21547677893E+04  0.21547677893E+04  0.00000000000E+00 0. -1.
         23    2    1    2    0    0 -0.10082766740E+04 -0.48777449136E+02  0.71472082121E+03  0.12409915264E+04  0.10115841824E+03 0.  0.
         13    1    3    3    0    0 -0.29908843423E+03  0.77942209376E+01  0.26224374415E+03  0.39785226243E+03  0.00000000000E+00 0.  1.
        -13    1    3    3    0    0 -0.70918823975E+03 -0.56571670074E+02  0.45247707705E+03  0.84313926401E+03  0.00000000000E+00 0. -1.
         22    1    1    2    0    0  0.10082766740E+04  0.48777449136E+02 -0.17569602521E+04  0.20263046213E+04  0.00000000000E+00 0. -1.
<mgrwt>
<rscale>  0 0.30966048E+04</rscale>
<asrwt>0</asrwt>
<pdfrwt beam="1">  1        1 0.33150274E+00 0.30966048E+04</pdfrwt>
<pdfrwt beam="2">  1       -1 0.17115821E+00 0.30966048E+04</pdfrwt>
<totfact> 0.47630146E-01</totfact>
</mgrwt>
</event>
<event>
 6    1  0.9906445E-006  0.2519104E+04  0.7818608E-02  0.8396211E-01
          1   -1    0    0  501    0  0.00000000000E+00  0.00000000000E+00  0.10529916487E+04  0.10529916487E+04  0.00000000000E+00 0. -1.
         -1   -1    0    0    0  501 -0.00000000000E+00 -0.00000000000E+00 -0.15066318293E+04  0.15066318293E+04  0.00000000000E+00 0.  1.
         23    2    1    2    0    0  0.97659608092E+03 -0.18286892529E+01 -0.10326738873E+04  0.14242718661E+04  0.91606449258E+02 0.  0.
         11    1    3    3    0    0  0.70553137213E+03  0.39746318030E+02 -0.74442610278E+03  0.10264134203E+04  0.00000000000E+00 0.  1.
        -11    1    3    3    0    0  0.27106470878E+03 -0.41575007283E+02 -0.28824778454E+03  0.39785844577E+03  0.00000000000E+00 0. -1.
         22    1    1    2    0    0 -0.97659608092E+03  0.18286892529E+01  0.57903370672E+03  0.11353516120E+04  0.00000000000E+00 0. -1.
<mgrwt>
<rscale>  0 0.25191036E+04</rscale>
<asrwt>0</asrwt>
<pdfrwt beam="1">  1        1 0.16199872E+00 0.25191036E+04</pdfrwt>
<pdfrwt beam="2">  1       -1 0.23178951E+00 0.25191036E+04</pdfrwt>
<totfact> 0.11214026E+00</totfact>
</mgrwt>
</event>
<event>
 6    1  0.9906445E-006  0.4113312E+04  0.7818608E-02  0.7982070E-01
          4   -1    0    0  501    0  0.00000000000E+00  0.00000000000E+00  0.28193099877E+04  0.28193099877E+04  0.00000000000E+00 0. -1.
         -4   -1    0    0    0  501 -0.00000000000E+00 -0.00000000000E+00 -0.15003083288E+04  0.15003083288E+04  0.00000000000E+00 0.  1.
         23    2    1    2    0    0  0.73653351591E+03 -0.18630879042E+04  0.17643122630E+03  0.20133127530E+04  0.93392210682E+02 0.  0.
         13    1    3    3    0    0  0.62202075910E+03 -0.14831678741E+04  0.15836288276E+03  0.16160988739E+04  0.00000000000E+00 0. -1.
        -13    1    3    3    0    0  0.11451275681E+03 -0.37992003010E+03  0.18068343537E+02  0.39721387914E+03  0.00000000000E+00 0.  1.
         22    1    1    2    0    0 -0.73653351591E+03  0.18630879042E+04  0.11425704326E+04  0.23063055635E+04  0.00000000000E+00 0. -1.
<mgrwt>
<rscale>  0 0.41133122E+04</rscale>
<asrwt>0</asrwt>
<pdfrwt beam="1">  1        4 0.43374000E+00 0.41133122E+04</pdfrwt>
<pdfrwt beam="2">  1       -4 0.23081667E+00 0.41133122E+04</pdfrwt>
<totfact> 0.49669494E-04</totfact>
</mgrwt>
</event>
<event>
 6    1  0.9906445E-006  0.1217737E+04  0.7818608E-02  0.9097471E-01
         -2   -1    0    0    0  501 -0.00000000000E+00  0.00000000000E+00  0.25549727220E+03  0.25549727220E+03  0.00000000000E+00 0.  1.
          2   -1    0    0  501    0  0.00000000000E+00 -0.00000000000E+00 -0.14509777390E+04  0.14509777390E+04  0.00000000000E+00 0. -1.
         23    2    1    2    0    0  0.15339924516E+03 -0.48579442175E+03 -0.14204767278E+03  0.53632621719E+03  0.89110724840E+02 0.  0.
         11    1    3    3    0    0  0.40327799198E+02 -0.15461851396E+03 -0.87420438838E+02  0.18214156411E+03  0.00000000000E+00 0.  1.
        -11    1    3    3    0    0  0.11307144596E+03 -0.33117590779E+03 -0.54627233940E+02  0.35418465308E+03  0.00000000000E+00 0. -1.
         22    1    1    2    0    0 -0.15339924516E+03  0.48579442175E+03 -0.10534327941E+04  0.11701487941E+04  0.00000000000E+00 0. -1.
<mgrwt>
<rscale>  0 0.12177370E+04</rscale>
<asrwt>0</asrwt>
<pdfrwt beam="1">  1        2 0.22322734E+00 0.12177370E+04</pdfrwt>
<pdfrwt beam="2">  1       -2 0.39307273E-01 0.12177370E+04</pdfrwt>
<totfact> 0.81582932E+01</totfact>
</mgrwt>
</event>
<event>
 6    1  0.9906445E-006  0.3939302E+04  0.7818608E-02  0.8016904E-01
          2   -1    0    0  501    0  0.00000000000E+00  0.00000000000E+00  0.34535536780E+04  0.34535536780E+04  0.00000000000E+00 0. -1.
         -2   -1    0    0    0  501 -0.00000000000E+00 -0.00000000000E+00 -0.11233428898E+04  0.11233428898E+04  0.00000000000E+00 0.  1.
         23    2    1    2    0    0  0.54910801629E+03  0.17873070721E+04  0.18813033193E+04  0.26540070496E+04  0.92005740928E+02 0.  0.
         13    1    3    3    0    0  0.31905521479E+03  0.11689618822E+04  0.11873841775E+04  0.16965109186E+04  0.00000000000E+00 0. -1.
        -13    1    3    3    0    0  0.23005280150E+03  0.61834518995E+03  0.69391914184E+03  0.95749613097E+03  0.00000000000E+00 0.  1.
         22    1    1    2    0    0 -0.54910801629E+03 -0.17873070721E+04  0.44890746880E+03  0.19228895182E+04  0.00000000000E+00 0.  1.
<mgrwt>
<rscale>  0 0.39393020E+04</rscale>
<asrwt>0</asrwt>
<pdfrwt beam="1">  1        2 0.53131594E+00 0.39393020E+04</pdfrwt>
<pdfrwt beam="2">  1       -2 0.17282199E+00 0.39393020E+04</pdfrwt>
<totfact> 0.14108980E-01</totfact>
</mgrwt>
</event>
<event>
 6    1  0.9906445E-006  0.2414741E+04  0.7818608E-02  0.8434005E-01
          1   -1    0    0  501    0  0.00000000000E+00  0.00000000000E+00  0.13148140381E+04  0.13148140381E+04  0.00000000000E+00 0. -1.
         -1   -1    0    0    0  501 -0.00000000000E+00 -0.00000000000E+00 -0.11087066635E+04  0.11087066635E+04  0.00000000000E+00 0.  1.
         23    2    1    2    0    0 -0.69281657249E+03  0.96419034687E+03 -0.10475920018E+03  0.11962082494E+04  0.10139949575E+03 0.  0.
         13    1    3    3    0    0 -0.12740628009E+03  0.19504262772E+03  0.18374543434E+02  0.23369127215E+03  0.00000000000E+00 0.  1.
        -13    1    3    3    0    0 -0.56541029240E+03  0.76914771915E+03 -0.12313374362E+03  0.96251697722E+03  0.00000000000E+00 0. -1.
         22    1    1    2    0    0  0.69281657249E+03 -0.96419034687E+03  0.31086657473E+03  0.12273124522E+04  0.00000000000E+00 0. -1.
<mgrwt>
<rscale>  0 0.24147406E+04</rscale>
<asrwt>0</asrwt>
<pdfrwt beam="1">  1        1 0.20227908E+00 0.24147406E+04</pdfrwt>
<pdfrwt beam="2">  1       -1 0.17057026E+00 0.24147406E+04</pdfrwt>
<totfact> 0.19255147E+00</totfact>
</mgrwt>
</event>
<event>
 6    1  0.9906445E-006  0.3579567E+04  0.7818608E-02  0.8095188E-01
          3   -1    0    0  501    0  0.00000000000E+00  0.00000000000E+00  0.15334730392E+04  0.15334730392E+04  0.00000000000E+00 0.  1.
         -3   -1    0    0    0  501 -0.00000000000E+00 -0.00000000000E+00 -0.20889342432E+04  0.20889342432E+04  0.00000000000E+00 0. -1.
         23    2    1    2    0    0 -0.16476825379E+03 -0.15669845937E+04 -0.11346490505E+04  0.19437030632E+04  0.89240324489E+02 0.  0.
         11    1    3    3    0    0 -0.10152444836E+03 -0.56247486330E+03 -0.42074140797E+03  0.70972425479E+03  0.00000000000E+00 0.  1.
        -11    1    3    3    0    0 -0.63243805436E+02 -0.10045097304E+04 -0.71390764252E+03  0.12339788084E+04  0.00000000000E+00 0. -1.
         22    1    1    2    0    0  0.16476825379E+03  0.15669845937E+04  0.57918784650E+03  0.16787042193E+04  0.00000000000E+00 0.  1.
<mgrwt>
<rscale>  0 0.35795666E+04</rscale>
<asrwt>0</asrwt>
<pdfrwt beam="1">  1        3 0.23591893E+00 0.35795666E+04</pdfrwt>
<pdfrwt beam="2">  1       -3 0.32137450E+00 0.35795666E+04</pdfrwt>
<totfact> 0.54248616E-03</totfact>
</mgrwt>
</event>
<event>
 6    1  0.9906445E-006  0.1225771E+04  0.7818608E-02  0.9090594E-01
         -1   -1    0    0    0  501 -0.00000000000E+00  0.00000000000E+00  0.30025619551E+03  0.30025619551E+03  0.00000000000E+00 0.  1.
          1   -1    0    0  501    0  0.00000000000E+00 -0.00000000000E+00 -0.12510268284E+04  0.12510268284E+04  0.00000000000E+00 0. -1.
         23    2    1    2    0    0 -0.27578106684E+03 -0.52756481881E+03 -0.64303705823E+03  0.88114886729E+03  0.92449084333E+02 0.  0.
         13    1    3    3    0    0 -0.25326351853E+03 -0.40451819754E+03 -0.51540218620E+03  0.70243632843E+03  0.00000000000E+00 0.  1.
        -13    1    3    3    0    0 -0.22517548319E+02 -0.12304662127E+03 -0.12763487203E+03  0.17871253886E+03  0.00000000000E+00 0. -1.
         22    1    1    2    0    0  0.27578106684E+03  0.52756481881E+03 -0.30773357463E+03  0.67013415659E+03  0.00000000000E+00 0.  1.
<mgrwt>
<rscale>  0 0.12257709E+04</rscale>
<asrwt>0</asrwt>
<pdfrwt beam="1">  1        1 0.19246567E+00 0.12257709E+04</pdfrwt>
<pdfrwt beam="2">  1       -1 0.46193261E-01 0.12257709E+04</pdfrwt>
<totfact> 0.45174455E+01</totfact>
</mgrwt>
</event>
<event>
 6    1  0.9906445E-006  0.2559602E+04  0.7818608E-02  0.8382054E-01
          1   -1    0    0  501    0  0.00000000000E+00  0.00000000000E+00  0.19689730735E+04  0.19689730735E+04  0.00000000000E+00 0. -1.
         -1   -1    0    0    0  501 -0.00000000000E+00 -0.00000000000E+00 -0.83185045115E+03  0.83185045115E+03  0.00000000000E+00 0.  1.
         23    2    1    2    0    0 -0.12065508062E+04  0.32773837709E+03  0.27920250191E+03  0.12845108179E+04  0.94003789291E+02 0.  0.
         13    1    3    3    0    0 -0.15965617410E+03  0.74793759616E+02  0.51635448270E+02  0.18371287359E+03  0.00000000000E+00 0.  1.
        -13    1    3    3    0    0 -0.10468946321E+04  0.25294461748E+03  0.22756705364E+03  0.11007979443E+04  0.00000000000E+00 0. -1.
         22    1    1    2    0    0  0.12065508062E+04 -0.32773837709E+03  0.85792012045E+03  0.15163127068E+04  0.00000000000E+00 0.  1.
<mgrwt>
<rscale>  0 0.25596024E+04</rscale>
<asrwt>0</asrwt>
<pdfrwt beam="1">  1        1 0.30291893E+00 0.25596024E+04</pdfrwt>
<pdfrwt beam="2">  1       -1 0.12797699E+00 0.25596024E+04</pdfrwt>
<totfact> 0.14584471E+00</totfact>
</mgrwt>
</event>
<event>
 6    1  0.9906445E-006  0.1069580E+04  0.7818608E-02  0.9235359E-01
         -1   -1    0    0    0  501 -0.00000000000E+00  0.00000000000E+00  0.44450069994E+03  0.44450069994E+03  0.00000000000E+00 0.  1.
          1   -1    0    0  501    0  0.00000000000E+00 -0.00000000000E+00 -0.64341966921E+03  0.64341966921E+03  0.00000000000E+00 0. -1.
         23    2    1    2    0    0 -0.69043101971E+02 -0.50268920975E+03  0.58942608553E+02  0.51874905502E+03  0.90349097676E+02 0.  0.
         11    1    3    3    0    0 -0.40107189882E+02 -0.39342144343E+03  0.80775294045E+02  0.40362565201E+03  0.00000000000E+00 0.  1.
        -11    1    3    3    0    0 -0.28935912089E+02 -0.10926776631E+03 -0.21832685491E+02  0.11512340300E+03  0.00000000000E+00 0. -1.
         22    1    1    2    0    0  0.69043101971E+02  0.50268920975E+03 -0.25786157782E+03  0.56917131414E+03  0.00000000000E+00 0. -1.
<mgrwt>
<rscale>  0 0.10695803E+04</rscale>
<asrwt>0</asrwt>
<pdfrwt beam="1">  1        1 0.98987641E-01 0.10695803E+04</pdfrwt>
<pdfrwt beam="2">  1       -1 0.68384723E-01 0.10695803E+04</pdfrwt>
<totfact> 0.66842520E+01</totfact>
</mgrwt>
</event>
<event>
 6    1  0.9906445E-006  0.2343677E+04  0.7818608E-02  0.8460896E-01
          1   -1    0    0  501    0  0.00000000000E+00  0.00000000000E+00  0.15316213322E+04  0.15316213322E+04  0.00000000000E+00 0. -1.
         -1   -1    0    0    0  501 -0.00000000000E+00 -0.00000000000E+00 -0.89656980840E+03  0.89656980840E+03  0.00000000000E+00 0.  1.
         23    2    1    2    0    0  0.25981913746E+03 -0.11050077554E+04  0.61179499690E+03  0.12928105922E+04  0.92292931398E+02 0.  0.
         11    1    3    3    0    0  0.21738876075E+03 -0.80216027360E+03  0.41286985755E+03  0.92799811267E+03  0.00000000000E+00 0. -1.
        -11    1    3    3    0    0  0.42430376709E+02 -0.30284748184E+03  0.19892513935E+03  0.36481247948E+03  0.00000000000E+00 0.  1.
         22    1    1    2    0    0 -0.25981913746E+03  0.11050077554E+04  0.23256526911E+02  0.11353805485E+04  0.00000000000E+00 0.  1.
<mgrwt>
<rscale>  0 0.23436770E+04</rscale>
<asrwt>0</asrwt>
<pdfrwt beam="1">  1        1 0.23563405E+00 0.23436770E+04</pdfrwt>
<pdfrwt beam="2">  1       -1 0.13793382E+00 0.23436770E+04</pdfrwt>
<totfact> 0.24406606E+00</totfact>
</mgrwt>
</event>
<event>
 6    1  0.9906445E-006  0.2269601E+04  0.7818608E-02  0.8490004E-01
          2   -1    0    0  501    0  0.00000000000E+00  0.00000000000E+00  0.16722840853E+04  0.16722840853E+04  0.00000000000E+00 0. -1.
         -2   -1    0    0    0  501 -0.00000000000E+00 -0.00000000000E+00 -0.77006762271E+03  0.77006762271E+03  0.00000000000E+00 0.  1.
         23    2    1    2    0    0 -0.79883903544E+03 -0.46265071117E+03  0.11593395170E+04  0.14840710862E+04  0.78799670691E+02 0.  0.
         13    1    3    3    0    0 -0.23722752645E+03 -0.10657125048E+03  0.28939141510E+03  0.38907804084E+03  0.00000000000E+00 0.  1.
        -13    1    3    3    0    0 -0.56161150899E+03 -0.35607946069E+03  0.86994810192E+03  0.10949930454E+04  0.00000000000E+00 0. -1.
         22    1    1    2    0    0  0.79883903544E+03  0.46265071117E+03 -0.25712305440E+03  0.95828062184E+03  0.00000000000E+00 0.  1.
<mgrwt>
<rscale>  0 0.22696007E+04</rscale>
<asrwt>0</asrwt>
<pdfrwt beam="1">  1        2 0.25727447E+00 0.22696007E+04</pdfrwt>
<pdfrwt beam="2">  1       -2 0.11847194E+00 0.22696007E+04</pdfrwt>
<totfact> 0.50634151E+00</totfact>
</mgrwt>
</event>
<event>
 6    1  0.9906445E-006  0.2488982E+04  0.7818608E-02  0.8406921E-01
         -2   -1    0    0    0  501 -0.00000000000E+00  0.00000000000E+00  0.17910777762E+04  0.17910777762E+04  0.00000000000E+00 0.  1.
          2   -1    0    0  501    0  0.00000000000E+00 -0.00000000000E+00 -0.86470743786E+03  0.86470743786E+03  0.00000000000E+00 0. -1.
         23    2    1    2    0    0  0.45303259896E+03 -0.14386125065E+02 -0.77192976172E+03  0.89803986101E+03  0.71795115479E+02 0.  0.
         13    1    3    3    0    0  0.20828643059E+03  0.16173458391E+02 -0.30047527121E+03  0.36596476133E+03  0.00000000000E+00 0.  1.
        -13    1    3    3    0    0  0.24474616837E+03 -0.30559583456E+02 -0.47145449052E+03  0.53207509968E+03  0.00000000000E+00 0. -1.
         22    1    1    2    0    0 -0.45303259896E+03  0.14386125065E+02  0.16983001001E+04  0.17577453531E+04  0.00000000000E+00 0.  1.
<mgrwt>
<rscale>  0 0.24889823E+04</rscale>
<asrwt>0</asrwt>
<pdfrwt beam="1">  1        2 0.13303191E+00 0.24889823E+04</pdfrwt>
<pdfrwt beam="2">  1       -2 0.27555043E+00 0.24889823E+04</pdfrwt>
<totfact> 0.12405559E+00</totfact>
</mgrwt>
</event>
<event>
 6    1  0.9906445E-006  0.9030718E+03  0.7818608E-02  0.9421750E-01
          2   -1    0    0  501    0  0.00000000000E+00  0.00000000000E+00  0.17542653763E+04  0.17542653763E+04  0.00000000000E+00 0. -1.
         -2   -1    0    0    0  501 -0.00000000000E+00 -0.00000000000E+00 -0.11622224322E+03  0.11622224322E+03  0.00000000000E+00 0.  1.
         23    2    1    2    0    0  0.12885148923E+03 -0.25423378498E+03  0.11268647376E+03  0.31873040210E+03  0.87483164975E+02 0.  0.
         13    1    3    3    0    0  0.53030879707E+02 -0.28899427540E+02  0.22248667074E+02  0.64361901007E+02  0.00000000000E+00 0. -1.
        -13    1    3    3    0    0  0.75820609518E+02 -0.22533435744E+03  0.90437806685E+02  0.25436850109E+03  0.00000000000E+00 0.  1.
         22    1    1    2    0    0 -0.12885148923E+03  0.25423378498E+03  0.15253566593E+04  0.15517572175E+04  0.00000000000E+00 0. -1.
<mgrwt>
<rscale>  0 0.90307177E+03</rscale>
<asrwt>0</asrwt>
<pdfrwt beam="1">  1        2 0.26988696E+00 0.90307177E+03</pdfrwt>
<pdfrwt beam="2">  1       -2 0.17880346E-01 0.90307177E+03</pdfrwt>
<totfact> 0.23904416E+02</totfact>
</mgrwt>
</event>
<event>
 6    1  0.9906445E-006  0.1696131E+04  0.7818608E-02  0.8763574E-01
          1   -1    0    0  501    0  0.00000000000E+00  0.00000000000E+00  0.71630659450E+03  0.71630659450E+03  0.00000000000E+00 0. -1.
         -1   -1    0    0    0  501 -0.00000000000E+00 -0.00000000000E+00 -0.10040601001E+04  0.10040601001E+04  0.00000000000E+00 0.  1.
         23    2    1    2    0    0 -0.66737090287E+03  0.13936287093E+02 -0.67116760517E+03  0.95057158300E+03  0.86846059601E+02 0.  0.
         13    1    3    3    0    0 -0.33342771581E+03 -0.44167726920E+01 -0.27591674737E+03  0.43280896597E+03  0.00000000000E+00 0.  1.
        -13    1    3    3    0    0 -0.33394318707E+03  0.18353059785E+02 -0.39525085780E+03  0.51776261702E+03  0.00000000000E+00 0. -1.
         22    1    1    2    0    0  0.66737090287E+03 -0.13936287093E+02  0.38341409958E+03  0.76979511161E+03  0.00000000000E+00 0. -1.
<mgrwt>
<rscale>  0 0.16961307E+04</rscale>
<asrwt>0</asrwt>
<pdfrwt beam="1">  1        1 0.11020101E+00 0.16961307E+04</pdfrwt>
<pdfrwt beam="2">  1       -1 0.15447078E+00 0.16961307E+04</pdfrwt>
<totfact> 0.80653554E+00</totfact>
</mgrwt>
</event>
<event>
 6    1  0.9906445E-006  0.1895195E+04  0.7818608E-02  0.8657252E-01
         -1   -1    0    0    0  501 -0.00000000000E+00  0.00000000000E+00  0.21280811032E+04  0.21280811032E+04  0.00000000000E+00 0.  1.
          1   -1    0    0  501    0  0.00000000000E+00 -0.00000000000E+00 -0.42194851404E+03  0.42194851404E+03  0.00000000000E+00 0. -1.
         23    2    1    2    0    0 -0.47898442452E+03  0.29778209340E+03  0.18757919856E+04  0.19610605476E+04  0.95197920605E+02 0.  0.
         11    1    3    3    0    0 -0.94051282345E+02  0.50608012828E+02  0.24382949702E+03  0.26619473753E+03  0.00000000000E+00 0. -1.
        -11    1    3    3    0    0 -0.38493314218E+03  0.24717408057E+03  0.16319624886E+04  0.16948658101E+04  0.00000000000E+00 0.  1.
         22    1    1    2    0    0  0.47898442452E+03 -0.29778209340E+03 -0.16965939650E+03  0.58896906957E+03  0.00000000000E+00 0. -1.
<mgrwt>
<rscale>  0 0.18951946E+04</rscale>
<asrwt>0</asrwt>
<pdfrwt beam="1">  1        1 0.64915157E-01 0.18951946E+04</pdfrwt>
<pdfrwt beam="2">  1       -1 0.32739709E+00 0.18951946E+04</pdfrwt>
<totfact> 0.11463841E+00</totfact>
</mgrwt>
</event>
<event>
 6    1  0.9906445E-006  0.1371336E+04  0.7818608E-02  0.8974832E-01
          2   -1    0    0  501    0  0.00000000000E+00  0.00000000000E+00  0.15590239892E+04  0.15590239892E+04  0.00000000000E+00 0. -1.
         -2   -1    0    0    0  501 -0.00000000000E+00 -0.00000000000E+00 -0.30156079414E+03  0.30156079414E+03  0.00000000000E+00 0.  1.
         23    2    1    2    0    0  0.20990862659E+03 -0.64269298428E+03  0.75947201049E+03  0.10208758317E+04  0.90960570887E+02 0.  0.
         13    1    3    3    0    0  0.11112392135E+03 -0.28354399651E+03  0.27981386680E+03  0.41357166720E+03  0.00000000000E+00 0.  1.
        -13    1    3    3    0    0  0.98784705233E+02 -0.35914898777E+03  0.47965814369E+03  0.60730416450E+03  0.00000000000E+00 0. -1.
         22    1    1    2    0    0 -0.20990862659E+03  0.64269298428E+03  0.49799118458E+03  0.83970895165E+03  0.00000000000E+00 0.  1.
<mgrwt>
<rscale>  0 0.13713359E+04</rscale>
<asrwt>0</asrwt>
<pdfrwt beam="1">  1        2 0.23984984E+00 0.13713359E+04</pdfrwt>
<pdfrwt beam="2">  1       -2 0.46393969E-01 0.13713359E+04</pdfrwt>
<totfact> 0.50499959E+01</totfact>
</mgrwt>
</event>
<event>
 6    1  0.1379578E-005  0.4653411E+04  0.7818608E-02  0.7884316E-01
         -2   -1    0    0    0  501 -0.00000000000E+00  0.00000000000E+00  0.24302623890E+04  0.24302623890E+04  0.00000000000E+00 0. -1.
          2   -1    0    0  501    0  0.00000000000E+00 -0.00000000000E+00 -0.22275612401E+04  0.22275612401E+04  0.00000000000E+00 0.  1.
         23    2    1    2    0    0  0.19853343560E+04  0.96449612967E+03  0.83530801679E+03  0.23617407171E+04  0.90963961626E+02 0.  0.
         11    1    3    3    0    0  0.55127869223E+03  0.24373986518E+03  0.26490974256E+03  0.65840298457E+03  0.00000000000E+00 0. -1.
        -11    1    3    3    0    0  0.14340556638E+04  0.72075626449E+03  0.57039827422E+03  0.17033377325E+04  0.00000000000E+00 0.  1.
         22    1    1    2    0    0 -0.19853343560E+04 -0.96449612967E+03 -0.63260686792E+03  0.22960829120E+04  0.00000000000E+00 0.  1.
<mgrwt>
<rscale>  0 0.46534109E+04</rscale>
<asrwt>0</asrwt>
<pdfrwt beam="1">  1        2 0.34270173E+00 0.46534109E+04</pdfrwt>
<pdfrwt beam="2">  1       -2 0.37388652E+00 0.46534109E+04</pdfrwt>
<totfact> 0.40879566E-02</totfact>
</mgrwt>
</event>
<event>
 6    1  0.9906445E-006  0.3491765E+04  0.7818608E-02  0.8115744E-01
          1   -1    0    0  501    0  0.00000000000E+00  0.00000000000E+00  0.15764180059E+04  0.15764180059E+04  0.00000000000E+00 0. -1.
         -1   -1    0    0    0  501 -0.00000000000E+00 -0.00000000000E+00 -0.19335639396E+04  0.19335639396E+04  0.00000000000E+00 0.  1.
         23    2    1    2    0    0  0.14272659167E+04 -0.89138739550E+03  0.28447321761E+03  0.17090559001E+04  0.91036103351E+02 0.  0.
         13    1    3    3    0    0  0.34014975379E+03 -0.25879770349E+03  0.67477889982E+02  0.43270240578E+03  0.00000000000E+00 0. -1.
        -13    1    3    3    0    0  0.10871161630E+04 -0.63258969201E+03  0.21699532762E+03  0.12763534943E+04  0.00000000000E+00 0.  1.
         22    1    1    2    0    0 -0.14272659167E+04  0.89138739550E+03 -0.64161915128E+03  0.18009260455E+04  0.00000000000E+00 0.  1.
<mgrwt>
<rscale>  0 0.34917646E+04</rscale>
<asrwt>0</asrwt>
<pdfrwt beam="1">  1        1 0.24252585E+00 0.34917646E+04</pdfrwt>
<pdfrwt beam="2">  1       -1 0.29747137E+00 0.34917646E+04</pdfrwt>
<totfact> 0.16216580E-01</totfact>
</mgrwt>
</event>
<event>
 6    1  0.9906445E-006  0.3457141E+04  0.7818608E-02  0.8124023E-01
         -2   -1    0    0    0  501 -0.00000000000E+00  0.00000000000E+00  0.10302170597E+04  0.10302170597E+04  0.00000000000E+00 0.  1.
          2   -1    0    0  501    0  0.00000000000E+00 -0.00000000000E+00 -0.29003161245E+04  0.29003161245E+04  0.00000000000E+00 0. -1.
         23    2    1    2    0    0 -0.61630638735E+03  0.93727933397E+03 -0.24291222797E+04  0.26772043894E+04  0.91990109285E+02 0.  0.
         13    1    3    3    0    0 -0.24832953013E+03  0.44942338065E+03 -0.11648545311E+04  0.12730023603E+04  0.00000000000E+00 0. -1.
        -13    1    3    3    0    0 -0.36797685721E+03  0.48785595332E+03 -0.12642677486E+04  0.14042020292E+04  0.00000000000E+00 0.  1.
         22    1    1    2    0    0  0.61630638735E+03 -0.93727933397E+03  0.55902321485E+03  0.12533287947E+04  0.00000000000E+00 0.  1.
<mgrwt>
<rscale>  0 0.34571405E+04</rscale>
<asrwt>0</asrwt>
<pdfrwt beam="1">  1        2 0.44620248E+00 0.34571405E+04</pdfrwt>
<pdfrwt beam="2">  1       -2 0.15849493E+00 0.34571405E+04</pdfrwt>
<totfact> 0.42773182E-01</totfact>
</mgrwt>
</event>
<event>
 6    1  0.9906445E-006  0.1153653E+04  0.7818608E-02  0.9154420E-01
          1   -1    0    0  501    0  0.00000000000E+00  0.00000000000E+00  0.11878161186E+04  0.11878161186E+04  0.00000000000E+00 0. -1.
         -1   -1    0    0    0  501 -0.00000000000E+00 -0.00000000000E+00 -0.28011805907E+03  0.28011805907E+03  0.00000000000E+00 0.  1.
         23    2    1    2    0    0 -0.43642048844E+03  0.37010534329E+03  0.49579089663E+03  0.76287508886E+03  0.93429011320E+02 0.  0.
         11    1    3    3    0    0 -0.22083528701E+03  0.18744162808E+03  0.31234891965E+03  0.42598642646E+03  0.00000000000E+00 0. -1.
        -11    1    3    3    0    0 -0.21558520144E+03  0.18266371521E+03  0.18344197698E+03  0.33688866240E+03  0.00000000000E+00 0.  1.
         22    1    1    2    0    0  0.43642048844E+03 -0.37010534329E+03  0.41190716288E+03  0.70505908880E+03  0.00000000000E+00 0.  1.
<mgrwt>
<rscale>  0 0.11536529E+04</rscale>
<asrwt>0</asrwt>
<pdfrwt beam="1">  1        1 0.18274094E+00 0.11536529E+04</pdfrwt>
<pdfrwt beam="2">  1       -1 0.43095087E-01 0.11536529E+04</pdfrwt>
<totfact> 0.57463992E+01</totfact>
</mgrwt>
</event>
<event>
 6    1  0.1446664E-005  0.3888587E+04  0.7818608E-02  0.8027407E-01
         -2   -1    0    0    0  501 -0.00000000000E+00  0.00000000000E+00  0.21963947619E+04  0.21963947619E+04  0.00000000000E+00 0. -1.
          2   -1    0    0  501    0  0.00000000000E+00 -0.00000000000E+00 -0.17211282965E+04  0.17211282965E+04  0.00000000000E+00 0.  1.
         23    2    1    2    0    0  0.11007013649E+04  0.43935233109E+03  0.17893664197E+04  0.21479376111E+04  0.85028417821E+02 0.  0.
         11    1    3    3    0    0  0.55246128080E+03  0.18515642696E+03  0.82962244930E+03  0.10137898094E+04  0.00000000000E+00 0. -1.
        -11    1    3    3    0    0  0.54824008410E+03  0.25419590413E+03  0.95974397041E+03  0.11341478018E+04  0.00000000000E+00 0.  1.
         22    1    1    2    0    0 -0.11007013649E+04 -0.43935233109E+03 -0.13140999543E+04  0.17695854473E+04  0.00000000000E+00 0.  1.
<mgrwt>
<rscale>  0 0.38885870E+04</rscale>
<asrwt>0</asrwt>
<pdfrwt beam="1">  1        2 0.26478897E+00 0.38885870E+04</pdfrwt>
<pdfrwt beam="2">  1       -2 0.33790689E+00 0.38885870E+04</pdfrwt>
<totfact> 0.14076983E-01</totfact>
</mgrwt>
</event>
<event>
 6    1  0.9906445E-006  0.2497831E+04  0.7818608E-02  0.8403759E-01
         -2   -1    0    0    0  501 -0.00000000000E+00  0.00000000000E+00  0.66151450891E+03  0.66151450891E+03  0.00000000000E+00 0.  1.
          2   -1    0    0  501    0  0.00000000000E+00 -0.00000000000E+00 -0.23579075029E+04  0.23579075029E+04  0.00000000000E+00 0. -1.
         23    2    1    2    0    0  0.66091513820E+03  0.57376346580E+03 -0.19235291805E+04  0.21152073350E+04  0.90134496392E+02 0.  0.
         13    1    3    3    0    0  0.27028293029E+03  0.19433957217E+03 -0.80652730652E+03  0.87252909859E+03  0.00000000000E+00 0.  1.
        -13    1    3    3    0    0  0.39063220791E+03  0.37942389363E+03 -0.11170018740E+04  0.12426782364E+04  0.00000000000E+00 0. -1.
         22    1    1    2    0    0 -0.66091513820E+03 -0.57376346580E+03  0.22713618645E+03  0.90421467682E+03  0.00000000000E+00 0.  1.
<mgrwt>
<rscale>  0 0.24978311E+04</rscale>
<asrwt>0</asrwt>
<pdfrwt beam="1">  1        2 0.36275500E+00 0.24978311E+04</pdfrwt>
<pdfrwt beam="2">  1       -2 0.10177146E+00 0.24978311E+04</pdfrwt>
<totfact> 0.29689867E+00</totfact>
</mgrwt>
</event>
<event>
 6    1  0.9906445E-006  0.7027059E+03  0.7818608E-02  0.9712616E-01
         -2   -1    0    0    0  501 -0.00000000000E+00  0.00000000000E+00  0.71625423196E+02  0.71625423196E+02  0.00000000000E+00 0.  1.
          2   -1    0    0  501    0  0.00000000000E+00 -0.00000000000E+00 -0.17235347392E+04  0.17235347392E+04  0.00000000000E+00 0. -1.
         23    2    1    2    0    0  0.32998266847E+03  0.11108820353E+02 -0.58976144709E+03  0.68287869495E+03  0.97430899433E+02 0.  0.
         13    1    3    3    0    0  0.25564728455E+03 -0.32865000026E+02 -0.43362358365E+03  0.50444529398E+03  0.00000000000E+00 0. -1.
        -13    1    3    3    0    0  0.74335383918E+02  0.43973820379E+02 -0.15613786345E+03  0.17843340097E+03  0.00000000000E+00 0.  1.
         22    1    1    2    0    0 -0.32998266847E+03 -0.11108820353E+02 -0.10621478689E+04  0.11122814674E+04  0.00000000000E+00 0. -1.
<mgrwt>
<rscale>  0 0.70270593E+03</rscale>
<asrwt>0</asrwt>
<pdfrwt beam="1">  1        2 0.26515916E+00 0.70270593E+03</pdfrwt>
<pdfrwt beam="2">  1       -2 0.11019297E-01 0.70270593E+03</pdfrwt>
<totfact> 0.56837335E+02</totfact>
</mgrwt>
</event>
<event>
 6    1  0.9906445E-006  0.1091550E+04  0.7818608E-02  0.9213467E-01
          2   -1    0    0  501    0  0.00000000000E+00  0.00000000000E+00  0.13003925488E+04  0.13003925488E+04  0.00000000000E+00 0. -1.
         -2   -1    0    0    0  501 -0.00000000000E+00 -0.00000000000E+00 -0.22906197887E+03  0.22906197887E+03  0.00000000000E+00 0.  1.
         23    2    1    2    0    0  0.40406838441E+03 -0.12901207907E+03  0.10121621307E+04  0.11011832584E+04  0.90647746711E+02 0.  0.
         11    1    3    3    0    0  0.18611551017E+03 -0.10682080471E+03  0.49090106228E+03  0.53575509367E+03  0.00000000000E+00 0. -1.
        -11    1    3    3    0    0  0.21795287424E+03 -0.22191274358E+02  0.52126106842E+03  0.56542816476E+03  0.00000000000E+00 0.  1.
         22    1    1    2    0    0 -0.40406838441E+03  0.12901207907E+03  0.59168439174E+02  0.42827126920E+03  0.00000000000E+00 0.  1.
<mgrwt>
<rscale>  0 0.10915503E+04</rscale>
<asrwt>0</asrwt>
<pdfrwt beam="1">  1        2 0.20006039E+00 0.10915503E+04</pdfrwt>
<pdfrwt beam="2">  1       -2 0.35240305E-01 0.10915503E+04</pdfrwt>
<totfact> 0.12397578E+02</totfact>
</mgrwt>
</event>
<event>
 6    1  0.9906445E-006  0.2379827E+04  0.7818608E-02  0.8447095E-01
         -1   -1    0    0    0  501 -0.00000000000E+00  0.00000000000E+00  0.71727485909E+03  0.71727485909E+03  0.00000000000E+00 0.  1.
          1   -1    0    0  501    0  0.00000000000E+00 -0.00000000000E+00 -0.19739907823E+04  0.19739907823E+04  0.00000000000E+00 0. -1.
         23    2    1    2    0    0  0.11872078208E+03  0.23516781403E+03 -0.19396800787E+04  0.19592556944E+04  0.83219849927E+02 0.  0.
         13    1    3    3    0    0  0.94044507010E+02  0.11250220337E+03 -0.86831624271E+03  0.88061013645E+03  0.00000000000E+00 0.  1.
        -13    1    3    3    0    0  0.24676275072E+02  0.12266561067E+03 -0.10713638360E+04  0.10786455579E+04  0.00000000000E+00 0. -1.
         22    1    1    2    0    0 -0.11872078208E+03 -0.23516781403E+03  0.68296415548E+03  0.73200994701E+03  0.00000000000E+00 0.  1.
<mgrwt>
<rscale>  0 0.23798269E+04</rscale>
<asrwt>0</asrwt>
<pdfrwt beam="1">  1        1 0.30369089E+00 0.23798269E+04</pdfrwt>
<pdfrwt beam="2">  1       -1 0.11034998E+00 0.23798269E+04</pdfrwt>
<totfact> 0.21099574E+00</totfact>
</mgrwt>
</event>
<event>
 6    1  0.9906445E-006  0.7122409E+03  0.7818608E-02  0.9696525E-01
         -2   -1    0    0    0  501 -0.00000000000E+00  0.00000000000E+00  0.11543604210E+03  0.11543604210E+03  0.00000000000E+00 0.  1.
          2   -1    0    0  501    0  0.00000000000E+00 -0.00000000000E+00 -0.10986323387E+04  0.10986323387E+04  0.00000000000E+00 0. -1.
         23    2    1    2    0    0 -0.25681898355E+03  0.10773578477E+03 -0.13725993907E+03  0.32346672426E+03  0.90705243509E+02 0.  0.
         11    1    3    3    0    0 -0.15169419245E+03  0.46799697340E+02 -0.12360030829E+03  0.20119238531E+03  0.00000000000E+00 0. -1.
        -11    1    3    3    0    0 -0.10512479109E+03  0.60936087425E+02 -0.13659630776E+02  0.12227433895E+03  0.00000000000E+00 0.  1.
         22    1    1    2    0    0  0.25681898355E+03 -0.10773578477E+03 -0.84593635757E+03  0.89060165658E+03  0.00000000000E+00 0. -1.
<mgrwt>
<rscale>  0 0.71224088E+03</rscale>
<asrwt>0</asrwt>
<pdfrwt beam="1">  1        2 0.16902036E+00 0.71224088E+03</pdfrwt>
<pdfrwt beam="2">  1       -2 0.17759391E-01 0.71224088E+03</pdfrwt>
<totfact> 0.57737860E+02</totfact>
</mgrwt>
</event>
<event>
 6    1  0.9906445E-006  0.3128193E+04  0.7818608E-02  0.8208043E-01
         -1   -1    0    0    0  501 -0.00000000000E+00  0.00000000000E+00  0.11936796344E+04  0.11936796344E+04  0.00000000000E+00 0.  1.
          1   -1    0    0  501    0  0.00000000000E+00 -0.00000000000E+00 -0.20494595239E+04  0.20494595239E+04  0.00000000000E+00 0. -1.
         23    2    1    2    0    0  0.13853604538E+04 -0.69917546663E+03 -0.23667034976E+03  0.15724008358E+04  0.91441860648E+02 0.  0.
         11    1    3    3    0    0  0.10306272148E+04 -0.52261052029E+03 -0.21633150169E+03  0.11756332466E+04  0.00000000000E+00 0.  1.
        -11    1    3    3    0    0  0.35473323898E+03 -0.17656494634E+03 -0.20338848073E+02  0.39676758922E+03  0.00000000000E+00 0. -1.
         22    1    1    2    0    0 -0.13853604538E+04  0.69917546663E+03 -0.61910953979E+03  0.16707383225E+04  0.00000000000E+00 0. -1.
<mgrwt>
<rscale>  0 0.31281931E+04</rscale>
<asrwt>0</asrwt>
<pdfrwt beam="1">  1        1 0.31530146E+00 0.31281931E+04</pdfrwt>
<pdfrwt beam="2">  1       -1 0.18364302E+00 0.31281931E+04</pdfrwt>
<totfact> 0.45503815E-01</totfact>
</mgrwt>
</event>
<event>
 6    1  0.9906445E-006  0.1320541E+04  0.7818608E-02  0.9013432E-01
          2   -1    0    0  501    0  0.00000000000E+00  0.00000000000E+00  0.22991740250E+04  0.22991740250E+04  0.00000000000E+00 0. -1.
         -2   -1    0    0    0  501 -0.00000000000E+00 -0.00000000000E+00 -0.18961479107E+03  0.18961479107E+03  0.00000000000E+00 0.  1.
         23    2    1    2    0    0  0.10582878126E+02 -0.90261831219E+02  0.22863627477E+04  0.22899957630E+04  0.91470131520E+02 0.  0.
         13    1    3    3    0    0 -0.38217098339E+02 -0.54032156212E+02  0.99056220961E+03  0.99277062387E+03  0.00000000000E+00 0.  1.
        -13    1    3    3    0    0  0.48799976465E+02 -0.36229675007E+02  0.12958005381E+04  0.12972251391E+04  0.00000000000E+00 0. -1.
         22    1    1    2    0    0 -0.10582878126E+02  0.90261831219E+02 -0.17680351376E+03  0.19879305310E+03  0.00000000000E+00 0.  1.
<mgrwt>
<rscale>  0 0.13205414E+04</rscale>
<asrwt>0</asrwt>
<pdfrwt beam="1">  1        2 0.35371906E+00 0.13205414E+04</pdfrwt>
<pdfrwt beam="2">  1       -2 0.29171508E-01 0.13205414E+04</pdfrwt>
<totfact> 0.48124495E+01</totfact>
</mgrwt>
</event>
<event>
 6    1  0.9906445E-006  0.2134845E+04  0.7818608E-02  0.8546047E-01
          3   -1    0    0  501    0  0.00000000000E+00  0.00000000000E+00  0.13898782398E+04  0.13898782398E+04  0.00000000000E+00 0. -1.
         -3   -1    0    0    0  501 -0.00000000000E+00 -0.00000000000E+00 -0.81977727044E+03  0.81977727044E+03  0.00000000000E+00 0.  1.
         23    2    1    2    0    0  0.17641737780E+03  0.14687317314E+03 -0.79133731706E+03  0.82900022093E+03  0.91278676356E+02 0.  0.
         13    1    3    3    0    0  0.68217866191E+02  0.11198707271E+03 -0.47869125269E+03  0.49632660328E+03  0.00000000000E+00 0. -1.
        -13    1    3    3    0    0  0.10819951161E+03  0.34886100423E+02 -0.31264606437E+03  0.33267361765E+03  0.00000000000E+00 0.  1.
         22    1    1    2    0    0 -0.17641737780E+03 -0.14687317314E+03  0.13614382864E+04  0.13806552893E+04  0.00000000000E+00 0. -1.
<mgrwt>
<rscale>  0 0.21348448E+04</rscale>
<asrwt>0</asrwt>
<pdfrwt beam="1">  1        3 0.21382742E+00 0.21348448E+04</pdfrwt>
<pdfrwt beam="2">  1       -3 0.12611958E+00 0.21348448E+04</pdfrwt>
<totfact> 0.14511802E-01</totfact>
</mgrwt>
</event>
<event>
 6    1  0.9906445E-006  0.7025779E+03  0.7818608E-02  0.9712834E-01
         -2   -1    0    0    0  501 -0.00000000000E+00  0.00000000000E+00  0.10938797987E+03  0.10938797987E+03  0.00000000000E+00 0. -1.
          2   -1    0    0  501    0  0.00000000000E+00 -0.00000000000E+00 -0.11281307120E+04  0.11281307120E+04  0.00000000000E+00 0.  1.
         23    2    1    2    0    0  0.29550528123E+03 -0.14309144051E+03 -0.33605891089E+03  0.47998603161E+03  0.98246971304E+02 0.  0.
         13    1    3    3    0    0  0.22047400904E+03 -0.14500706777E+03 -0.28921640245E+03  0.39151240825E+03  0.00000000000E+00 0.  1.
        -13    1    3    3    0    0  0.75031272186E+02  0.19156272622E+01 -0.46842508445E+02  0.88473623364E+02  0.00000000000E+00 0. -1.
         22    1    1    2    0    0 -0.29550528123E+03  0.14309144051E+03 -0.68268382125E+03  0.75753266027E+03  0.00000000000E+00 0.  1.
<mgrwt>
<rscale>  0 0.70257794E+03</rscale>
<asrwt>0</asrwt>
<pdfrwt beam="1">  1        2 0.17355857E+00 0.70257794E+03</pdfrwt>
<pdfrwt beam="2">  1       -2 0.16828920E-01 0.70257794E+03</pdfrwt>
<totfact> 0.60789592E+02</totfact>
</mgrwt>
</event>
<event>
 6    1  0.9906445E-006  0.2123755E+04  0.7818608E-02  0.8550851E-01
          2   -1    0    0  501    0  0.00000000000E+00  0.00000000000E+00  0.17583494569E+04  0.17583494569E+04  0.00000000000E+00 0. -1.
         -2   -1    0    0    0  501 -0.00000000000E+00 -0.00000000000E+00 -0.64127379507E+03  0.64127379507E+03  0.00000000000E+00 0.  1.
         23    2    1    2    0    0 -0.59556964887E+03  0.73457029034E+03  0.10994172219E+04  0.14537857719E+04  0.10236271205E+03 0.  0.
         11    1    3    3    0    0 -0.86589597787E+02  0.12777532871E+03  0.23746636185E+03  0.28322176132E+03  0.00000000000E+00 0. -1.
        -11    1    3    3    0    0 -0.50898005108E+03  0.60679496163E+03  0.86195086004E+03  0.11705640106E+04  0.00000000000E+00 0.  1.
         22    1    1    2    0    0  0.59556964887E+03 -0.73457029034E+03  0.17658439926E+02  0.94583748001E+03  0.00000000000E+00 0.  1.
<mgrwt>
<rscale>  0 0.21237546E+04</rscale>
<asrwt>0</asrwt>
<pdfrwt beam="1">  1        2 0.27051530E+00 0.21237546E+04</pdfrwt>
<pdfrwt beam="2">  1       -2 0.98657508E-01 0.21237546E+04</pdfrwt>
<totfact> 0.71389622E+00</totfact>
</mgrwt>
</event>
<event>
 6    1  0.9906445E-006  0.1107593E+04  0.7818608E-02  0.9197822E-01
          2   -1    0    0  501    0  0.00000000000E+00  0.00000000000E+00  0.80126230560E+03  0.80126230560E+03  0.00000000000E+00 0. -1.
         -2   -1    0    0    0  501 -0.00000000000E+00 -0.00000000000E+00 -0.38275950181E+03  0.38275950181E+03  0.00000000000E+00 0.  1.
         23    2    1    2    0    0  0.34607123365E+02  0.13953982080E+03  0.77827650038E+03  0.79658648721E+03  0.90369828925E+02 0.  0.
         13    1    3    3    0    0  0.33408934425E+02  0.19822350614E+02  0.34137073418E+03  0.34357395221E+03  0.00000000000E+00 0. -1.
        -13    1    3    3    0    0  0.11981889395E+01  0.11971747018E+03  0.43690576620E+03  0.45301253500E+03  0.00000000000E+00 0.  1.
         22    1    1    2    0    0 -0.34607123365E+02 -0.13953982080E+03 -0.35977369659E+03  0.38743532020E+03  0.00000000000E+00 0.  1.
<mgrwt>
<rscale>  0 0.11075934E+04</rscale>
<asrwt>0</asrwt>
<pdfrwt beam="1">  1        2 0.12327112E+00 0.11075934E+04</pdfrwt>
<pdfrwt beam="2">  1       -2 0.58886077E-01 0.11075934E+04</pdfrwt>
<totfact> 0.91949026E+01</totfact>
</mgrwt>
</event>
<event>
 6    1  0.9906445E-006  0.1633668E+04  0.7818608E-02  0.8800127E-01
          1   -1    0    0  501    0  0.00000000000E+00  0.00000000000E+00  0.37101232653E+03  0.37101232653E+03  0.00000000000E+00 0. -1.
         -1   -1    0    0    0  501 -0.00000000000E+00 -0.00000000000E+00 -0.17983708637E+04  0.17983708637E+04  0.00000000000E+00 0.  1.
         23    2    1    2    0    0 -0.23387178068E+03  0.37697049036E+03 -0.16227371928E+04  0.16846403930E+04  0.89075789987E+02 0.  0.
         11    1    3    3    0    0 -0.96806742501E+02  0.22286493065E+03 -0.77624465385E+03  0.81338556991E+03  0.00000000000E+00 0. -1.
        -11    1    3    3    0    0 -0.13706503818E+03  0.15410555971E+03 -0.84649253892E+03  0.87125482304E+03  0.00000000000E+00 0.  1.
         22    1    1    2    0    0  0.23387178068E+03 -0.37697049036E+03  0.19537865563E+03  0.48474279724E+03  0.00000000000E+00 0. -1.
<mgrwt>
<rscale>  0 0.16336680E+04</rscale>
<asrwt>0</asrwt>
<pdfrwt beam="1">  1        1 0.57078820E-01 0.16336680E+04</pdfrwt>
<pdfrwt beam="2">  1       -1 0.27667244E+00 0.16336680E+04</pdfrwt>
<totfact> 0.29705959E+00</totfact>
</mgrwt>
</event>
<event>
 6    1  0.9906445E-006  0.2815818E+04  0.7818608E-02  0.8298374E-01
          2   -1    0    0  501    0  0.00000000000E+00  0.00000000000E+00  0.11151713194E+04  0.11151713194E+04  0.00000000000E+00 0. -1.
         -2   -1    0    0    0  501 -0.00000000000E+00 -0.00000000000E+00 -0.17774915665E+04  0.17774915665E+04  0.00000000000E+00 0.  1.
         23    2    1    2    0    0 -0.22375088585E+03  0.40169720188E+03 -0.16969906796E+04  0.17604226265E+04  0.88799528845E+02 0.  0.
         13    1    3    3    0    0 -0.11999713141E+03  0.26843857244E+03 -0.12008550670E+04  0.12363298389E+04  0.00000000000E+00 0. -1.
        -13    1    3    3    0    0 -0.10375375443E+03  0.13325862944E+03 -0.49613561266E+03  0.52409278761E+03  0.00000000000E+00 0.  1.
         22    1    1    2    0    0  0.22375088585E+03 -0.40169720188E+03  0.10346704326E+04  0.11322402594E+04  0.00000000000E+00 0. -1.
<mgrwt>
<rscale>  0 0.28158179E+04</rscale>
<asrwt>0</asrwt>
<pdfrwt beam="1">  1        2 0.17156482E+00 0.28158179E+04</pdfrwt>
<pdfrwt beam="2">  1       -2 0.27346024E+00 0.28158179E+04</pdfrwt>
<totfact> 0.85539841E-01</totfact>
</mgrwt>
</event>
<event>
 6    1  0.9906445E-006  0.1191746E+04  0.7818608E-02  0.9120112E-01
          2   -1    0    0  501    0  0.00000000000E+00  0.00000000000E+00  0.56743358986E+03  0.56743358986E+03  0.00000000000E+00 0. -1.
         -2   -1    0    0    0  501 -0.00000000000E+00 -0.00000000000E+00 -0.62573732244E+03  0.62573732244E+03  0.00000000000E+00 0.  1.
         23    2    1    2    0    0  0.94350893315E+02  0.48431972795E+03 -0.35747544284E+03  0.61613416982E+03  0.91460007876E+02 0.  0.
         13    1    3    3    0    0  0.83734110773E+02  0.19406195538E+03 -0.15336366542E+03  0.26113570745E+03  0.00000000000E+00 0.  1.
        -13    1    3    3    0    0  0.10616782541E+02  0.29025777256E+03 -0.20411177742E+03  0.35499846237E+03  0.00000000000E+00 0. -1.
         22    1    1    2    0    0 -0.94350893315E+02 -0.48431972795E+03  0.29917171026E+03  0.57703674248E+03  0.00000000000E+00 0. -1.
<mgrwt>
<rscale>  0 0.11917456E+04</rscale>
<asrwt>0</asrwt>
<pdfrwt beam="1">  1        2 0.87297475E-01 0.11917456E+04</pdfrwt>
<pdfrwt beam="2">  1       -2 0.96267281E-01 0.11917456E+04</pdfrwt>
<totfact> 0.47329852E+01</totfact>
</mgrwt>
</event>
<event>
 6    1  0.1602482E-005  0.3720332E+04  0.7818608E-02  0.8063471E-01
         -2   -1    0    0    0  501 -0.00000000000E+00  0.00000000000E+00  0.17393213483E+04  0.17393213483E+04  0.00000000000E+00 0. -1.
          2   -1    0    0  501    0  0.00000000000E+00 -0.00000000000E+00 -0.19894071545E+04  0.19894071545E+04  0.00000000000E+00 0.  1.
         23    2    1    2    0    0 -0.99268061779E+03 -0.24030667121E+03 -0.16822771625E+04  0.19696565354E+04  0.79550682020E+02 0.  0.
         13    1    3    3    0    0 -0.33537451447E+03 -0.97790099959E+02 -0.51079735211E+03  0.61883188632E+03  0.00000000000E+00 0. -1.
        -13    1    3    3    0    0 -0.65730610332E+03 -0.14251657125E+03 -0.11714798104E+04  0.13508246491E+04  0.00000000000E+00 0.  1.
         22    1    1    2    0    0  0.99268061779E+03  0.24030667121E+03  0.14321913563E+04  0.17590719673E+04  0.00000000000E+00 0. -1.
<mgrwt>
<rscale>  0 0.37203324E+04</rscale>
<asrwt>0</asrwt>
<pdfrwt beam="1">  1        2 0.30606264E+00 0.37203324E+04</pdfrwt>
<pdfrwt beam="2">  1       -2 0.26758790E+00 0.37203324E+04</pdfrwt>
<totfact> 0.27407241E-01</totfact>
</mgrwt>
</event>
<event>
 6    1  0.9906445E-006  0.1114315E+04  0.7818608E-02  0.9191351E-01
         -2   -1    0    0    0  501 -0.00000000000E+00  0.00000000000E+00  0.47814301638E+03  0.47814301638E+03  0.00000000000E+00 0.  1.
          2   -1    0    0  501    0  0.00000000000E+00 -0.00000000000E+00 -0.64922942744E+03  0.64922942744E+03  0.00000000000E+00 0. -1.
         23    2    1    2    0    0  0.35563739358E+03  0.38421096027E+03  0.96269044641E+02  0.53951620511E+03  0.87829316947E+02 0.  0.
         11    1    3    3    0    0  0.16891600568E+03  0.20015847614E+03  0.51786770212E+01  0.26195963667E+03  0.00000000000E+00 0. -1.
        -11    1    3    3    0    0  0.18672138790E+03  0.18405248413E+03  0.91090367620E+02  0.27755656844E+03  0.00000000000E+00 0.  1.
         22    1    1    2    0    0 -0.35563739358E+03 -0.38421096027E+03 -0.26735545570E+03  0.58785623871E+03  0.00000000000E+00 0. -1.
<mgrwt>
<rscale>  0 0.11143151E+04</rscale>
<asrwt>0</asrwt>
<pdfrwt beam="1">  1        2 0.99881451E-01 0.11143151E+04</pdfrwt>
<pdfrwt beam="2">  1       -2 0.73560464E-01 0.11143151E+04</pdfrwt>
<totfact> 0.74503037E+01</totfact>
</mgrwt>
</event>
<event>
 6    1  0.9906445E-006  0.3351820E+04  0.7818608E-02  0.8149833E-01
          2   -1    0    0  501    0  0.00000000000E+00  0.00000000000E+00  0.18621152532E+04  0.18621152532E+04  0.00000000000E+00 0. -1.
         -2   -1    0    0    0  501 -0.00000000000E+00 -0.00000000000E+00 -0.15083248777E+04  0.15083248777E+04  0.00000000000E+00 0.  1.
         23    2    1    2    0    0  0.44522724730E+03 -0.13309704500E+04  0.10956843679E+04  0.17829527021E+04  0.93201198047E+02 0.  0.
         11    1    3    3    0    0  0.29564578311E+03 -0.92878462708E+03  0.81128631967E+03  0.12681611905E+04  0.00000000000E+00 0.  1.
        -11    1    3    3    0    0  0.14958146418E+03 -0.40218582290E+03  0.28439804828E+03  0.51479151162E+03  0.00000000000E+00 0. -1.
         22    1    1    2    0    0 -0.44522724730E+03  0.13309704500E+04 -0.74189399254E+03  0.15874874288E+04  0.00000000000E+00 0.  1.
<mgrwt>
<rscale>  0 0.33518203E+04</rscale>
<asrwt>0</asrwt>
<pdfrwt beam="1">  1        2 0.28647927E+00 0.33518203E+04</pdfrwt>
<pdfrwt beam="2">  1       -2 0.23204998E+00 0.33518203E+04</pdfrwt>
<totfact> 0.55029994E-01</totfact>
</mgrwt>
</event>
<event>
 6    1  0.9906445E-006  0.1143526E+04  0.7818608E-02  0.9163777E-01
          1   -1    0    0  501    0  0.00000000000E+00  0.00000000000E+00  0.14863007534E+04  0.14863007534E+04  0.00000000000E+00 0. -1.
         -1   -1    0    0    0  501 -0.00000000000E+00 -0.00000000000E+00 -0.21995056216E+03  0.21995056216E+03  0.00000000000E+00 0.  1.
         23    2    1    2    0    0 -0.96107469231E+02 -0.55897889808E+03  0.58993029287E+03  0.82350676980E+03  0.91932558507E+02 0.  0.
         13    1    3    3    0    0 -0.71986230890E+02 -0.17392426443E+03  0.17686559436E+03  0.25828880282E+03  0.00000000000E+00 0.  1.
        -13    1    3    3    0    0 -0.24121238341E+02 -0.38505463365E+03  0.41306469851E+03  0.56521796698E+03  0.00000000000E+00 0. -1.
         22    1    1    2    0    0  0.96107469231E+02  0.55897889808E+03  0.67641989835E+03  0.88274454573E+03  0.00000000000E+00 0. -1.
<mgrwt>
<rscale>  0 0.11435256E+04</rscale>
<asrwt>0</asrwt>
<pdfrwt beam="1">  1        1 0.22866165E+00 0.11435256E+04</pdfrwt>
<pdfrwt beam="2">  1       -1 0.33838549E-01 0.11435256E+04</pdfrwt>
<totfact> 0.54751136E+01</totfact>
</mgrwt>
</event>
<event>
 6    1  0.9906445E-006  0.9011008E+03  0.7818608E-02  0.9424206E-01
         -2   -1    0    0    0  501 -0.00000000000E+00  0.00000000000E+00  0.11931071402E+03  0.11931071402E+03  0.00000000000E+00 0.  1.
          2   -1    0    0  501    0  0.00000000000E+00 -0.00000000000E+00 -0.17014034405E+04  0.17014034405E+04  0.00000000000E+00 0. -1.
         23    2    1    2    0    0 -0.13820641479E+03  0.23817126581E+03 -0.90697473637E+02  0.30411059223E+03  0.91818601803E+02 0.  0.
         11    1    3    3    0    0 -0.30017932973E+02  0.72603950113E+02  0.14808570847E+02  0.79948130951E+02  0.00000000000E+00 0.  1.
        -11    1    3    3    0    0 -0.10818848182E+03  0.16556731569E+03 -0.10550604448E+03  0.22416246128E+03  0.00000000000E+00 0. -1.
         22    1    1    2    0    0  0.13820641479E+03 -0.23817126581E+03 -0.14913952529E+04  0.15166035623E+04  0.00000000000E+00 0. -1.
<mgrwt>
<rscale>  0 0.90110079E+03</rscale>
<asrwt>0</asrwt>
<pdfrwt beam="1">  1        2 0.26175436E+00 0.90110079E+03</pdfrwt>
<pdfrwt beam="2">  1       -2 0.18355496E-01 0.90110079E+03</pdfrwt>
<totfact> 0.24426650E+02</totfact>
</mgrwt>
</event>
<event>
 6    1  0.9906445E-006  0.1453116E+04  0.7818608E-02  0.8916243E-01
         -1   -1    0    0    0  501 -0.00000000000E+00  0.00000000000E+00  0.10851079111E+04  0.10851079111E+04  0.00000000000E+00 0.  1.
          1   -1    0    0  501    0  0.00000000000E+00 -0.00000000000E+00 -0.48648282378E+03  0.48648282378E+03  0.00000000000E+00 0. -1.
         23    2    1    2    0    0  0.46767469779E+03  0.48419823687E+02 -0.29457681606E+03  0.56219797560E+03  0.90702596029E+02 0.  0.
         11    1    3    3    0    0  0.44865518011E+02  0.29127320864E+02 -0.17332027642E+02  0.56229126876E+02  0.00000000000E+00 0.  1.
        -11    1    3    3    0    0  0.42280917978E+03  0.19292502823E+02 -0.27724478842E+03  0.50596884873E+03  0.00000000000E+00 0. -1.
         22    1    1    2    0    0 -0.46767469779E+03 -0.48419823687E+02  0.89320190334E+03  0.10093927592E+04  0.00000000000E+00 0.  1.
<mgrwt>
<rscale>  0 0.14531158E+04</rscale>
<asrwt>0</asrwt>
<pdfrwt beam="1">  1        1 0.74843511E-01 0.14531158E+04</pdfrwt>
<pdfrwt beam="2">  1       -1 0.16693968E+00 0.14531158E+04</pdfrwt>
<totfact> 0.11585135E+01</totfact>
</mgrwt>
</event>
<event>
 6    1  0.9906445E-006  0.1477892E+04  0.7818608E-02  0.8899289E-01
         -2   -1    0    0    0  501 -0.00000000000E+00  0.00000000000E+00  0.16774994089E+03  0.16774994089E+03  0.00000000000E+00 0.  1.
          2   -1    0    0  501    0  0.00000000000E+00 -0.00000000000E+00 -0.32550909163E+04  0.32550909163E+04  0.00000000000E+00 0. -1.
         23    2    1    2    0    0 -0.53781182075E+03 -0.45505125360E+03 -0.20439586065E+04  0.21638889257E+04  0.91297863896E+02 0.  0.
         11    1    3    3    0    0 -0.42131413146E+03 -0.39028043955E+03 -0.17290366272E+04  0.18219198877E+04  0.00000000000E+00 0.  1.
        -11    1    3    3    0    0 -0.11649768929E+03 -0.64770814048E+02 -0.31492197927E+03  0.34196903806E+03  0.00000000000E+00 0. -1.
         22    1    1    2    0    0  0.53781182075E+03  0.45505125360E+03 -0.10433823690E+04  0.12589519315E+04  0.00000000000E+00 0.  1.
<mgrwt>
<rscale>  0 0.14778922E+04</rscale>
<asrwt>0</asrwt>
<pdfrwt beam="1">  1        2 0.50078322E+00 0.14778922E+04</pdfrwt>
<pdfrwt beam="2">  1       -2 0.25807683E-01 0.14778922E+04</pdfrwt>
<totfact> 0.15806415E+01</totfact>
</mgrwt>
</event>
<event>
 6    1  0.9906445E-006  0.9699778E+03  0.7818608E-02  0.9342100E-01
         -2   -1    0    0    0  501 -0.00000000000E+00  0.00000000000E+00  0.22606362204E+03  0.22606362204E+03  0.00000000000E+00 0.  1.
          2   -1    0    0  501    0  0.00000000000E+00 -0.00000000000E+00 -0.10404779566E+04  0.10404779566E+04  0.00000000000E+00 0. -1.
         23    2    1    2    0    0 -0.23765911565E+03  0.25695620435E+02 -0.95533605501E+03  0.98905094553E+03  0.91720633935E+02 0.  0.
         11    1    3    3    0    0 -0.14799797382E+03  0.40396736529E+02 -0.44530654277E+03  0.47099173412E+03  0.00000000000E+00 0. -1.
        -11    1    3    3    0    0 -0.89661141831E+02 -0.14701116094E+02 -0.51002951224E+03  0.51805921141E+03  0.00000000000E+00 0.  1.
         22    1    1    2    0    0  0.23765911565E+03 -0.25695620435E+02  0.14092172045E+03  0.27749063310E+03  0.00000000000E+00 0.  1.
<mgrwt>
<rscale>  0 0.96997776E+03</rscale>
<asrwt>0</asrwt>
<pdfrwt beam="1">  1        2 0.16007353E+00 0.96997776E+03</pdfrwt>
<pdfrwt beam="2">  1       -2 0.34779020E-01 0.96997776E+03</pdfrwt>
<totfact> 0.18377418E+02</totfact>
</mgrwt>
</event>
<event>
 6    1  0.9906445E-006  0.3989374E+04  0.7818608E-02  0.8006694E-01
         -2   -1    0    0    0  501 -0.00000000000E+00  0.00000000000E+00  0.24462821013E+04  0.24462821013E+04  0.00000000000E+00 0.  1.
          2   -1    0    0  501    0  0.00000000000E+00 -0.00000000000E+00 -0.16264583230E+04  0.16264583230E+04  0.00000000000E+00 0. -1.
         23    2    1    2    0    0 -0.19008062245E+04  0.23265291275E+02 -0.20326445429E+03  0.19139641254E+04  0.91305302049E+02 0.  0.
         11    1    3    3    0    0 -0.47220289567E+02  0.14851686205E+02 -0.34618087187E+01  0.49621693336E+02  0.00000000000E+00 0.  1.
        -11    1    3    3    0    0 -0.18535859349E+04  0.84136050700E+01 -0.19980264557E+03  0.18643424321E+04  0.00000000000E+00 0. -1.
         22    1    1    2    0    0  0.19008062245E+04 -0.23265291275E+02  0.10230882326E+04  0.21587762989E+04  0.00000000000E+00 0.  1.
<mgrwt>
<rscale>  0 0.39893738E+04</rscale>
<asrwt>0</asrwt>
<pdfrwt beam="1">  1        2 0.25022435E+00 0.39893738E+04</pdfrwt>
<pdfrwt beam="2">  1       -2 0.37635110E+00 0.39893738E+04</pdfrwt>
<totfact> 0.89909136E-02</totfact>
</mgrwt>
</event>
<event>
 6    1  0.9906445E-006  0.2244591E+04  0.7818608E-02  0.8500094E-01
         -3   -1    0    0    0  501 -0.00000000000E+00  0.00000000000E+00  0.51974099116E+03  0.51974099116E+03  0.00000000000E+00 0.  1.
          3   -1    0    0  501    0  0.00000000000E+00 -0.00000000000E+00 -0.24234138000E+04  0.24234138000E+04  0.00000000000E+00 0. -1.
         23    2    1    2    0    0  0.66436650254E+03  0.72567787707E+03 -0.16564391605E+04  0.19287013877E+04  0.90039543829E+02 0.  0.
         13    1    3    3    0    0  0.43228388887E+03  0.49337239388E+03 -0.11798848711E+04  0.13499681436E+04  0.00000000000E+00 0. -1.
        -13    1    3    3    0    0  0.23208261366E+03  0.23230548319E+03 -0.47655428934E+03  0.57873324406E+03  0.00000000000E+00 0.  1.
         22    1    1    2    0    0 -0.66436650254E+03 -0.72567787707E+03 -0.24723364836E+03  0.10144534035E+04  0.00000000000E+00 0.  1.
<mgrwt>
<rscale>  0 0.22445913E+04</rscale>
<asrwt>0</asrwt>
<pdfrwt beam="1">  1        3 0.37283289E+00 0.22445913E+04</pdfrwt>
<pdfrwt beam="2">  1       -3 0.79960152E-01 0.22445913E+04</pdfrwt>
<totfact> 0.53822565E-02</totfact>
</mgrwt>
</event>
<event>
 6    1  0.9906445E-006  0.1053282E+04  0.7818608E-02  0.9251962E-01
          1   -1    0    0  501    0  0.00000000000E+00  0.00000000000E+00  0.78639259799E+03  0.78639259799E+03  0.00000000000E+00 0. -1.
         -1   -1    0    0    0  501 -0.00000000000E+00 -0.00000000000E+00 -0.35268735785E+03  0.35268735785E+03  0.00000000000E+00 0.  1.
         23    2    1    2    0    0  0.34201077091E+03  0.33190881785E+03 -0.38255287139E+01  0.49211163786E+03  0.12257405378E+03 0.  0.
         13    1    3    3    0    0  0.64022286595E+01  0.52311666615E+02  0.15299484234E+02  0.54877802559E+02  0.00000000000E+00 0. -1.
        -13    1    3    3    0    0  0.33560854225E+03  0.27959715124E+03 -0.19125012948E+02  0.43723383530E+03  0.00000000000E+00 0.  1.
         22    1    1    2    0    0 -0.34201077091E+03 -0.33190881785E+03  0.43753076885E+03  0.64696831798E+03  0.00000000000E+00 0. -1.
<mgrwt>
<rscale>  0 0.10532820E+04</rscale>
<asrwt>0</asrwt>
<pdfrwt beam="1">  1        1 0.12098348E+00 0.10532820E+04</pdfrwt>
<pdfrwt beam="2">  1       -1 0.54259594E-01 0.10532820E+04</pdfrwt>
<totfact> 0.77898042E+01</totfact>
</mgrwt>
</event>
<event>
 6    1  0.9906445E-006  0.8546575E+03  0.7818608E-02  0.9484107E-01
          2   -1    0    0  501    0  0.00000000000E+00  0.00000000000E+00  0.42912497215E+03  0.42912497215E+03  0.00000000000E+00 0. -1.
         -2   -1    0    0    0  501 -0.00000000000E+00 -0.00000000000E+00 -0.42554007702E+03  0.42554007702E+03  0.00000000000E+00 0.  1.
         23    2    1    2    0    0 -0.55655224263E+02 -0.38117103525E+03 -0.17030522032E+03  0.43202260649E+03  0.96181091425E+02 0.  0.
         11    1    3    3    0    0 -0.92983090726E+01 -0.82981005257E+02  0.38753564596E+01  0.83590215771E+02  0.00000000000E+00 0. -1.
        -11    1    3    3    0    0 -0.46356915191E+02 -0.29819002999E+03 -0.17418057678E+03  0.34843239072E+03  0.00000000000E+00 0.  1.
         22    1    1    2    0    0  0.55655224263E+02  0.38117103525E+03  0.17389011545E+03  0.42264244268E+03  0.00000000000E+00 0.  1.
<mgrwt>
<rscale>  0 0.85465753E+03</rscale>
<asrwt>0</asrwt>
<pdfrwt beam="1">  1        2 0.66019227E-01 0.85465753E+03</pdfrwt>
<pdfrwt beam="2">  1       -2 0.65467704E-01 0.85465753E+03</pdfrwt>
<totfact> 0.15876993E+02</totfact>
</mgrwt>
</event>
<event>
 6    1  0.9906445E-006  0.5719700E+03  0.7818608E-02  0.9965329E-01
         -2   -1    0    0    0  501 -0.00000000000E+00  0.00000000000E+00  0.10895269619E+03  0.10895269619E+03  0.00000000000E+00 0.  1.
          2   -1    0    0  501    0  0.00000000000E+00 -0.00000000000E+00 -0.75066916579E+03  0.75066916579E+03  0.00000000000E+00 0. -1.
         23    2    1    2    0    0 -0.71666980601E+02  0.25495259213E+03 -0.19603823959E+03  0.34119533387E+03  0.88579253375E+02 0.  0.
         13    1    3    3    0    0 -0.84791541102E+02  0.21853928657E+03 -0.13983144523E+03  0.27295028538E+03  0.00000000000E+00 0.  1.
        -13    1    3    3    0    0  0.13124560501E+02  0.36413305567E+02 -0.56206794360E+02  0.68245048486E+02  0.00000000000E+00 0. -1.
         22    1    1    2    0    0  0.71666980601E+02 -0.25495259213E+03 -0.44567823001E+03  0.51842652811E+03  0.00000000000E+00 0. -1.
<mgrwt>
<rscale>  0 0.57197003E+03</rscale>
<asrwt>0</asrwt>
<pdfrwt beam="1">  1        2 0.11548757E+00 0.57197003E+03</pdfrwt>
<pdfrwt beam="2">  1       -2 0.16761953E-01 0.57197003E+03</pdfrwt>
<totfact> 0.10907598E+03</totfact>
</mgrwt>
</event>
<event>
 6    1  0.9906445E-006  0.1098095E+04  0.7818608E-02  0.9207051E-01
         -2   -1    0    0    0  501 -0.00000000000E+00  0.00000000000E+00  0.32965589941E+03  0.32965589941E+03  0.00000000000E+00 0.  1.
          2   -1    0    0  501    0  0.00000000000E+00 -0.00000000000E+00 -0.91444787203E+03  0.91444787203E+03  0.00000000000E+00 0. -1.
         23    2    1    2    0    0  0.41013394556E+03 -0.33324755705E+03 -0.44645687010E+03  0.69784340480E+03  0.91640019590E+02 0.  0.
         11    1    3    3    0    0  0.27650317744E+03 -0.18158830807E+03 -0.23831159502E+03  0.40770177469E+03  0.00000000000E+00 0.  1.
        -11    1    3    3    0    0  0.13363076812E+03 -0.15165924898E+03 -0.20814527508E+03  0.29014163011E+03  0.00000000000E+00 0. -1.
         22    1    1    2    0    0 -0.41013394556E+03  0.33324755705E+03 -0.13833510252E+03  0.54626036664E+03  0.00000000000E+00 0. -1.
<mgrwt>
<rscale>  0 0.10980950E+04</rscale>
<asrwt>0</asrwt>
<pdfrwt beam="1">  1        2 0.14068429E+00 0.10980950E+04</pdfrwt>
<pdfrwt beam="2">  1       -2 0.50716292E-01 0.10980950E+04</pdfrwt>
<totfact> 0.10463426E+02</totfact>
</mgrwt>
</event>
<event>
 6    1  0.9906445E-006  0.2297714E+04  0.7818608E-02  0.8478823E-01
          1   -1    0    0  501    0  0.00000000000E+00  0.00000000000E+00  0.94841720247E+03  0.94841720247E+03  0.00000000000E+00 0. -1.
         -1   -1    0    0    0  501 -0.00000000000E+00 -0.00000000000E+00 -0.13916581219E+04  0.13916581219E+04  0.00000000000E+00 0.  1.
         23    2    1    2    0    0 -0.22633758408E+03  0.37979138295E+03 -0.12998961333E+04  0.13760585445E+04  0.91306976154E+02 0.  0.
         11    1    3    3    0    0 -0.11916105728E+03  0.27973428608E+03 -0.91387276447E+03  0.96312722837E+03  0.00000000000E+00 0. -1.
        -11    1    3    3    0    0 -0.10717652680E+03  0.10005709686E+03 -0.38602336885E+03  0.41293131611E+03  0.00000000000E+00 0.  1.
         22    1    1    2    0    0  0.22633758408E+03 -0.37979138295E+03  0.85665521386E+03  0.96401677992E+03  0.00000000000E+00 0. -1.
<mgrwt>
<rscale>  0 0.22977141E+04</rscale>
<asrwt>0</asrwt>
<pdfrwt beam="1">  1        1 0.14591034E+00 0.22977141E+04</pdfrwt>
<pdfrwt beam="2">  1       -1 0.21410125E+00 0.22977141E+04</pdfrwt>
<totfact> 0.18121436E+00</totfact>
</mgrwt>
</event>
<event>
 6    1  0.9906445E-006  0.2614736E+04  0.7818608E-02  0.8363213E-01
          2   -1    0    0  501    0  0.00000000000E+00  0.00000000000E+00  0.29770784268E+04  0.29770784268E+04  0.00000000000E+00 0. -1.
         -2   -1    0    0    0  501 -0.00000000000E+00 -0.00000000000E+00 -0.57412380436E+03  0.57412380436E+03  0.00000000000E+00 0.  1.
         23    2    1    2    0    0  0.11383353204E+04  0.63005579333E+03  0.10528957748E+04  0.16762524994E+04  0.91952839709E+02 0.  0.
         11    1    3    3    0    0  0.51164613202E+03  0.24543299862E+03  0.41840066546E+03  0.70503775649E+03  0.00000000000E+00 0. -1.
        -11    1    3    3    0    0  0.62668918843E+03  0.38462279471E+03  0.63449510933E+03  0.97121474292E+03  0.00000000000E+00 0.  1.
         22    1    1    2    0    0 -0.11383353204E+04 -0.63005579333E+03  0.13500588477E+04  0.18749497318E+04  0.00000000000E+00 0.  1.
<mgrwt>
<rscale>  0 0.26147364E+04</rscale>
<asrwt>0</asrwt>
<pdfrwt beam="1">  1        2 0.45801206E+00 0.26147364E+04</pdfrwt>
<pdfrwt beam="2">  1       -2 0.88326741E-01 0.26147364E+04</pdfrwt>
<totfact> 0.17543117E+00</totfact>
</mgrwt>
</event>
<event>
 6    1  0.9906445E-006  0.2546652E+04  0.7818608E-02  0.8386552E-01
          2   -1    0    0  501    0  0.00000000000E+00  0.00000000000E+00  0.29317020651E+04  0.29317020651E+04  0.00000000000E+00 0. -1.
         -2   -1    0    0    0  501 -0.00000000000E+00 -0.00000000000E+00 -0.55304359876E+03  0.55304359876E+03  0.00000000000E+00 0.  1.
         23    2    1    2    0    0 -0.42635210063E+03 -0.11636587615E+04  0.15810367212E+04  0.20109484338E+04  0.91425722608E+02 0.  0.
         11    1    3    3    0    0 -0.21334250548E+03 -0.71252670425E+03  0.94734800899E+03  0.12044407744E+04  0.00000000000E+00 0. -1.
        -11    1    3    3    0    0 -0.21300959515E+03 -0.45113205725E+03  0.63368871224E+03  0.80650765944E+03  0.00000000000E+00 0.  1.
         22    1    1    2    0    0  0.42635210063E+03  0.11636587615E+04  0.79762174511E+03  0.14737972300E+04  0.00000000000E+00 0.  1.
<mgrwt>
<rscale>  0 0.25466520E+04</rscale>
<asrwt>0</asrwt>
<pdfrwt beam="1">  1        2 0.45103108E+00 0.25466520E+04</pdfrwt>
<pdfrwt beam="2">  1       -2 0.85083633E-01 0.25466520E+04</pdfrwt>
<totfact> 0.20512517E+00</totfact>
</mgrwt>
</event>
<event>
 6    1  0.9906445E-006  0.2359332E+04  0.7818608E-02  0.8454888E-01
          2   -1    0    0  501    0  0.00000000000E+00  0.00000000000E+00  0.68689822570E+03  0.68689822570E+03  0.00000000000E+00 0.  1.
         -2   -1    0    0    0  501 -0.00000000000E+00 -0.00000000000E+00 -0.20259362697E+04  0.20259362697E+04  0.00000000000E+00 0. -1.
         23    2    1    2    0    0  0.52277758320E+03  0.93843064509E+03 -0.12261637567E+04  0.16327006695E+04  0.91024396136E+02 0.  0.
         13    1    3    3    0    0  0.28840565709E+03  0.59293378662E+03 -0.78837813241E+03  0.10277589104E+04  0.00000000000E+00 0. -1.
        -13    1    3    3    0    0  0.23437192611E+03  0.34549685848E+03 -0.43778562428E+03  0.60494175901E+03  0.00000000000E+00 0.  1.
         22    1    1    2    0    0 -0.52277758320E+03 -0.93843064509E+03 -0.11287428727E+03  0.10801338259E+04  0.00000000000E+00 0.  1.
<mgrwt>
<rscale>  0 0.23593321E+04</rscale>
<asrwt>0</asrwt>
<pdfrwt beam="1">  1        2 0.10567665E+00 0.23593321E+04</pdfrwt>
<pdfrwt beam="2">  1       -2 0.31168250E+00 0.23593321E+04</pdfrwt>
<totfact> 0.10206564E+00</totfact>
</mgrwt>
</event>
<event>
 6    1  0.9906445E-006  0.5707919E+03  0.7818608E-02  0.9967928E-01
         -1   -1    0    0    0  501 -0.00000000000E+00  0.00000000000E+00  0.74079242908E+02  0.74079242908E+02  0.00000000000E+00 0.  1.
          1   -1    0    0  501    0  0.00000000000E+00 -0.00000000000E+00 -0.10995096183E+04  0.10995096183E+04  0.00000000000E+00 0. -1.
         23    2    1    2    0    0  0.98900701459E+02 -0.23830458859E+03 -0.31253209444E+03  0.41543690765E+03  0.91329559806E+02 0.  0.
         13    1    3    3    0    0  0.67179805493E+02 -0.18084908878E+03 -0.28524349580E+03  0.34435936328E+03  0.00000000000E+00 0. -1.
        -13    1    3    3    0    0  0.31720895966E+02 -0.57455499805E+02 -0.27288598636E+02  0.71077544374E+02  0.00000000000E+00 0.  1.
         22    1    1    2    0    0 -0.98900701459E+02  0.23830458859E+03 -0.71289828095E+03  0.75815195355E+03  0.00000000000E+00 0.  1.
<mgrwt>
<rscale>  0 0.57079187E+03</rscale>
<asrwt>0</asrwt>
<pdfrwt beam="1">  1        1 0.16915533E+00 0.57079187E+03</pdfrwt>
<pdfrwt beam="2">  1       -1 0.11396807E-01 0.57079187E+03</pdfrwt>
<totfact> 0.66137833E+02</totfact>
</mgrwt>
</event>
<event>
 6    1  0.9906445E-006  0.2069590E+04  0.7818608E-02  0.8574759E-01
          1   -1    0    0  501    0  0.00000000000E+00  0.00000000000E+00  0.15584218999E+04  0.15584218999E+04  0.00000000000E+00 0. -1.
         -1   -1    0    0    0  501 -0.00000000000E+00 -0.00000000000E+00 -0.68710567961E+03  0.68710567961E+03  0.00000000000E+00 0.  1.
         23    2    1    2    0    0  0.51958113220E+03  0.59691058343E+03 -0.28311467312E+03  0.84589281101E+03  0.95466915842E+02 0.  0.
         11    1    3    3    0    0  0.21842751210E+03  0.22998956903E+03 -0.66309326605E+02  0.32404121142E+03  0.00000000000E+00 0. -1.
        -11    1    3    3    0    0  0.30115362010E+03  0.36692101441E+03 -0.21680534651E+03  0.52185159959E+03  0.00000000000E+00 0.  1.
         22    1    1    2    0    0 -0.51958113220E+03 -0.59691058343E+03  0.11544308934E+04  0.13996347685E+04  0.00000000000E+00 0.  1.
<mgrwt>
<rscale>  0 0.20695899E+04</rscale>
<asrwt>0</asrwt>
<pdfrwt beam="1">  1        1 0.23975722E+00 0.20695899E+04</pdfrwt>
<pdfrwt beam="2">  1       -1 0.10570857E+00 0.20695899E+04</pdfrwt>
<totfact> 0.46059603E+00</totfact>
</mgrwt>
</event>
<event>
 6    1  0.9906445E-006  0.3864719E+04  0.7818608E-02  0.8032407E-01
          1   -1    0    0  501    0  0.00000000000E+00  0.00000000000E+00  0.27141976403E+04  0.27141976403E+04  0.00000000000E+00 0.  1.
         -1   -1    0    0    0  501 -0.00000000000E+00 -0.00000000000E+00 -0.13757335720E+04  0.13757335720E+04  0.00000000000E+00 0. -1.
         23    2    1    2    0    0  0.75112564835E+03  0.14078806161E+04 -0.48167885467E+03  0.16693449550E+04  0.91545021668E+02 0.  0.
         13    1    3    3    0    0  0.47572964494E+03  0.84072389620E+03 -0.33079108126E+03  0.10210573462E+04  0.00000000000E+00 0. -1.
        -13    1    3    3    0    0  0.27539600342E+03  0.56715671988E+03 -0.15088777341E+03  0.64828760883E+03  0.00000000000E+00 0.  1.
         22    1    1    2    0    0 -0.75112564835E+03 -0.14078806161E+04  0.18201429230E+04  0.24205862573E+04  0.00000000000E+00 0.  1.
<mgrwt>
<rscale>  0 0.38647188E+04</rscale>
<asrwt>0</asrwt>
<pdfrwt beam="1">  1        1 0.41756887E+00 0.38647188E+04</pdfrwt>
<pdfrwt beam="2">  1       -1 0.21165132E+00 0.38647188E+04</pdfrwt>
<totfact> 0.95060597E-02</totfact>
</mgrwt>
</event>
<event>
 6    1  0.9906445E-006  0.3664281E+04  0.7818608E-02  0.8075924E-01
          1   -1    0    0  501    0  0.00000000000E+00  0.00000000000E+00  0.18277439980E+04  0.18277439980E+04  0.00000000000E+00 0. -1.
         -1   -1    0    0    0  501 -0.00000000000E+00 -0.00000000000E+00 -0.18365474385E+04  0.18365474385E+04  0.00000000000E+00 0.  1.
         23    2    1    2    0    0  0.48340139526E+03 -0.95853923950E+02  0.17592935440E+04  0.18287991782E+04  0.80794656353E+02 0.  0.
         13    1    3    3    0    0  0.79605054914E+02 -0.62915351317E+00  0.20008830326E+03  0.21534319052E+03  0.00000000000E+00 0.  1.
        -13    1    3    3    0    0  0.40379634035E+03 -0.95224770437E+02  0.15592052407E+04  0.16134559876E+04  0.00000000000E+00 0. -1.
         22    1    1    2    0    0 -0.48340139526E+03  0.95853923950E+02 -0.17680969845E+04  0.18354922583E+04  0.00000000000E+00 0.  1.
<mgrwt>
<rscale>  0 0.36642809E+04</rscale>
<asrwt>0</asrwt>
<pdfrwt beam="1">  1        1 0.28119139E+00 0.36642809E+04</pdfrwt>
<pdfrwt beam="2">  1       -1 0.28254576E+00 0.36642809E+04</pdfrwt>
<totfact> 0.13450928E-01</totfact>
</mgrwt>
</event>
<event>
 6    1  0.9906445E-006  0.1027452E+04  0.7818608E-02  0.9278938E-01
          2   -1    0    0  501    0  0.00000000000E+00  0.00000000000E+00  0.13965326499E+04  0.13965326499E+04  0.00000000000E+00 0. -1.
         -2   -1    0    0    0  501 -0.00000000000E+00 -0.00000000000E+00 -0.18897830800E+03  0.18897830800E+03  0.00000000000E+00 0.  1.
         23    2    1    2    0    0 -0.28451855930E+03  0.12179291763E+03  0.12334966633E+04  0.12749351549E+04  0.90339944436E+02 0.  0.
         11    1    3    3    0    0 -0.40051362378E+02  0.56516303342E+02  0.25197647489E+03  0.26132422022E+03  0.00000000000E+00 0.  1.
        -11    1    3    3    0    0 -0.24446719692E+03  0.65276614288E+02  0.98152018841E+03  0.10136109347E+04  0.00000000000E+00 0. -1.
         22    1    1    2    0    0  0.28451855930E+03 -0.12179291763E+03 -0.25942321360E+02  0.31057580300E+03  0.00000000000E+00 0.  1.
<mgrwt>
<rscale>  0 0.10274519E+04</rscale>
<asrwt>0</asrwt>
<pdfrwt beam="1">  1        2 0.21485117E+00 0.10274519E+04</pdfrwt>
<pdfrwt beam="2">  1       -2 0.29073587E-01 0.10274519E+04</pdfrwt>
<totfact> 0.15737793E+02</totfact>
</mgrwt>
</event>
<event>
 6    1  0.9906445E-006  0.3179181E+04  0.7818608E-02  0.8194337E-01
         -1   -1    0    0    0  501 -0.00000000000E+00  0.00000000000E+00  0.68898037380E+03  0.68898037380E+03  0.00000000000E+00 0.  1.
          1   -1    0    0  501    0  0.00000000000E+00 -0.00000000000E+00 -0.36674461666E+04  0.36674461666E+04  0.00000000000E+00 0. -1.
         23    2    1    2    0    0 -0.31561876875E+03  0.72551158768E+02 -0.36211551155E+04  0.36367540848E+04  0.91307310105E+02 0.  0.
         11    1    3    3    0    0 -0.27880978891E+03  0.65702320921E+02 -0.27689625875E+04  0.27837394821E+04  0.00000000000E+00 0.  1.
        -11    1    3    3    0    0 -0.36808979845E+02  0.68488378465E+01 -0.85219252796E+03  0.85301460262E+03  0.00000000000E+00 0. -1.
         22    1    1    2    0    0  0.31561876875E+03 -0.72551158768E+02  0.64268932271E+03  0.71967245560E+03  0.00000000000E+00 0.  1.
<mgrwt>
<rscale>  0 0.31791813E+04</rscale>
<asrwt>0</asrwt>
<pdfrwt beam="1">  1        1 0.56422248E+00 0.31791813E+04</pdfrwt>
<pdfrwt beam="2">  1       -1 0.10599698E+00 0.31791813E+04</pdfrwt>
<totfact> 0.12786339E-01</totfact>
</mgrwt>
</event>
<event>
 6    1  0.9906445E-006  0.1853142E+04  0.7818608E-02  0.8678538E-01
          1   -1    0    0  501    0  0.00000000000E+00  0.00000000000E+00  0.31763843026E+04  0.31763843026E+04  0.00000000000E+00 0. -1.
         -1   -1    0    0    0  501 -0.00000000000E+00 -0.00000000000E+00 -0.27028662527E+03  0.27028662527E+03  0.00000000000E+00 0.  1.
         23    2    1    2    0    0 -0.69619518722E+03 -0.41497831377E+03  0.63030235965E+03  0.10308606978E+04  0.92184457118E+02 0.  0.
         13    1    3    3    0    0 -0.57695800420E+03 -0.36162647012E+03  0.48826879706E+03  0.83789060186E+03  0.00000000000E+00 0. -1.
        -13    1    3    3    0    0 -0.11923718302E+03 -0.53351843653E+02  0.14203356259E+03  0.19297009597E+03  0.00000000000E+00 0.  1.
         22    1    1    2    0    0  0.69619518722E+03  0.41497831377E+03  0.22757953177E+04  0.24158102301E+04  0.00000000000E+00 0. -1.
<mgrwt>
<rscale>  0 0.18531424E+04</rscale>
<asrwt>0</asrwt>
<pdfrwt beam="1">  1        1 0.48867448E+00 0.18531424E+04</pdfrwt>
<pdfrwt beam="2">  1       -1 0.41582560E-01 0.18531424E+04</pdfrwt>
<totfact> 0.23674725E+00</totfact>
</mgrwt>
</event>
<event>
 6    1  0.9906445E-006  0.1188394E+04  0.7818608E-02  0.9123076E-01
         -4   -1    0    0    0  501 -0.00000000000E+00  0.00000000000E+00  0.70206315643E+03  0.70206315643E+03  0.00000000000E+00 0. -1.
          4   -1    0    0  501    0  0.00000000000E+00 -0.00000000000E+00 -0.50290353606E+03  0.50290353606E+03  0.00000000000E+00 0.  1.
         23    2    1    2    0    0  0.40904581320E+03 -0.22414429866E+03 -0.26737658456E+03  0.54525829143E+03  0.90869260338E+02 0.  0.
         11    1    3    3    0    0  0.17287042153E+03 -0.54092332790E+02 -0.13291968683E+03  0.22467266468E+03  0.00000000000E+00 0.  1.
        -11    1    3    3    0    0  0.23617539167E+03 -0.17005196587E+03 -0.13445689773E+03  0.32058562675E+03  0.00000000000E+00 0. -1.
         22    1    1    2    0    0 -0.40904581320E+03  0.22414429866E+03  0.46653620493E+03  0.65970840107E+03  0.00000000000E+00 0. -1.
<mgrwt>
<rscale>  0 0.11883939E+04</rscale>
<asrwt>0</asrwt>
<pdfrwt beam="1">  1        4 0.77369775E-01 0.11883939E+04</pdfrwt>
<pdfrwt beam="2">  1       -4 0.10800972E+00 0.11883939E+04</pdfrwt>
<totfact> 0.20203841E+00</totfact>
</mgrwt>
</event>
<event>
 6    1  0.9906445E-006  0.4201398E+04  0.7818608E-02  0.7965106E-01
         -1   -1    0    0    0  501 -0.00000000000E+00  0.00000000000E+00  0.12380645481E+04  0.12380645481E+04  0.00000000000E+00 0.  1.
          1   -1    0    0  501    0  0.00000000000E+00 -0.00000000000E+00 -0.35643836961E+04  0.35643836961E+04  0.00000000000E+00 0. -1.
         23    2    1    2    0    0  0.10535274608E+04 -0.16443071731E+04 -0.28185126129E+03  0.19751677257E+04  0.90450104130E+02 0.  0.
         11    1    3    3    0    0  0.47446274197E+03 -0.74701735240E+03 -0.17310506986E+03  0.90172899672E+03  0.00000000000E+00 0.  1.
        -11    1    3    3    0    0  0.57906471881E+03 -0.89728982065E+03 -0.10874619143E+03  0.10734387290E+04  0.00000000000E+00 0. -1.
         22    1    1    2    0    0 -0.10535274608E+04  0.16443071731E+04 -0.20444678867E+04  0.28272805184E+04  0.00000000000E+00 0. -1.
<mgrwt>
<rscale>  0 0.42013984E+04</rscale>
<asrwt>0</asrwt>
<pdfrwt beam="1">  1        1 0.54836671E+00 0.42013984E+04</pdfrwt>
<pdfrwt beam="2">  1       -1 0.19047147E+00 0.42013984E+04</pdfrwt>
<totfact> 0.29941280E-02</totfact>
</mgrwt>
</event>
<event>
 6    1  0.9906445E-006  0.2273199E+04  0.7818608E-02  0.8488564E-01
          1   -1    0    0  501    0  0.00000000000E+00  0.00000000000E+00  0.52286735078E+03  0.52286735078E+03  0.00000000000E+00 0. -1.
         -1   -1    0    0    0  501 -0.00000000000E+00 -0.00000000000E+00 -0.24707187916E+04  0.24707187916E+04  0.00000000000E+00 0.  1.
         23    2    1    2    0    0  0.10397062779E+04  0.43792632056E+03 -0.11376308802E+04  0.16046203533E+04  0.88509049875E+02 0.  0.
         13    1    3    3    0    0  0.62136549903E+03  0.30396597481E+03 -0.66931738618E+03  0.96253631655E+03  0.00000000000E+00 0. -1.
        -13    1    3    3    0    0  0.41834077888E+03  0.13396034576E+03 -0.46831349402E+03  0.64208403671E+03  0.00000000000E+00 0.  1.
         22    1    1    2    0    0 -0.10397062779E+04 -0.43792632056E+03 -0.81022056067E+03  0.13889657892E+04  0.00000000000E+00 0.  1.
<mgrwt>
<rscale>  0 0.22731988E+04</rscale>
<asrwt>0</asrwt>
<pdfrwt beam="1">  1        1 0.80441130E-01 0.22731988E+04</pdfrwt>
<pdfrwt beam="2">  1       -1 0.38011059E+00 0.22731988E+04</pdfrwt>
<totfact> 0.36885032E-01</totfact>
</mgrwt>
</event>
<event>
 6    1  0.9906445E-006  0.3747425E+04  0.7818608E-02  0.8057532E-01
         -2   -1    0    0    0  501 -0.00000000000E+00  0.00000000000E+00  0.10384453852E+04  0.10384453852E+04  0.00000000000E+00 0.  1.
          2   -1    0    0  501    0  0.00000000000E+00 -0.00000000000E+00 -0.33808210312E+04  0.33808210312E+04  0.00000000000E+00 0. -1.
         23    2    1    2    0    0 -0.31713346884E+03 -0.14242959865E+04 -0.25559226831E+04  0.29445477885E+04  0.91805350154E+02 0.  0.
         13    1    3    3    0    0 -0.19981986393E+02 -0.22924937451E+03 -0.37481849062E+03  0.43982207358E+03  0.00000000000E+00 0. -1.
        -13    1    3    3    0    0 -0.29715148244E+03 -0.11950466120E+04 -0.21811041925E+04  0.25047257149E+04  0.00000000000E+00 0.  1.
         22    1    1    2    0    0  0.31713346884E+03  0.14242959865E+04  0.21354703713E+03  0.14747186279E+04  0.00000000000E+00 0.  1.
<mgrwt>
<rscale>  0 0.37474247E+04</rscale>
<asrwt>0</asrwt>
<pdfrwt beam="1">  1        2 0.52012631E+00 0.37474247E+04</pdfrwt>
<pdfrwt beam="2">  1       -2 0.15976083E+00 0.37474247E+04</pdfrwt>
<totfact> 0.19982506E-01</totfact>
</mgrwt>
</event>
<event>
 6    1  0.9906445E-006  0.2581096E+04  0.7818608E-02  0.8374651E-01
         -1   -1    0    0    0  501 -0.00000000000E+00  0.00000000000E+00  0.38051217915E+03  0.38051217915E+03  0.00000000000E+00 0. -1.
          1   -1    0    0  501    0  0.00000000000E+00 -0.00000000000E+00 -0.43770332200E+04  0.43770332200E+04  0.00000000000E+00 0.  1.
         23    2    1    2    0    0  0.78021354095E+03 -0.56366844301E+03 -0.42030121814E+03  0.10540600808E+04  0.89074445056E+02 0.  0.
         11    1    3    3    0    0  0.57590783729E+03 -0.38678894661E+03 -0.33710768570E+03  0.77130870476E+03  0.00000000000E+00 0.  1.
        -11    1    3    3    0    0  0.20430570366E+03 -0.17687949640E+03 -0.83193532437E+02  0.28275137601E+03  0.00000000000E+00 0. -1.
         22    1    1    2    0    0 -0.78021354095E+03  0.56366844301E+03 -0.35762198227E+04  0.37034853184E+04  0.00000000000E+00 0.  1.
<mgrwt>
<rscale>  0 0.25810962E+04</rscale>
<asrwt>0</asrwt>
<pdfrwt beam="1">  1        1 0.67338971E+00 0.25810962E+04</pdfrwt>
<pdfrwt beam="2">  1       -1 0.58540337E-01 0.25810962E+04</pdfrwt>
<totfact> 0.11209201E-01</totfact>
</mgrwt>
</event>
<event>
 6    1  0.9906445E-006  0.3518833E+04  0.7818608E-02  0.8109341E-01
          1   -1    0    0  501    0  0.00000000000E+00  0.00000000000E+00  0.16285656626E+04  0.16285656626E+04  0.00000000000E+00 0. -1.
         -1   -1    0    0    0  501 -0.00000000000E+00 -0.00000000000E+00 -0.19007804171E+04  0.19007804171E+04  0.00000000000E+00 0.  1.
         23    2    1    2    0    0  0.11176982512E+03 -0.58612808715E+03 -0.17939278052E+04  0.18948280354E+04  0.12711288199E+03 0.  0.
         13    1    3    3    0    0  0.11074150486E+03 -0.28611513724E+03 -0.80899952083E+03  0.86522007453E+03  0.00000000000E+00 0. -1.
        -13    1    3    3    0    0  0.10283202558E+01 -0.30001294990E+03 -0.98492828441E+03  0.10296079608E+04  0.00000000000E+00 0.  1.
         22    1    1    2    0    0 -0.11176982512E+03  0.58612808715E+03  0.15217130508E+04  0.16345180443E+04  0.00000000000E+00 0. -1.
<mgrwt>
<rscale>  0 0.35188326E+04</rscale>
<asrwt>0</asrwt>
<pdfrwt beam="1">  1        1 0.25054857E+00 0.35188326E+04</pdfrwt>
<pdfrwt beam="2">  1       -1 0.29242775E+00 0.35188326E+04</pdfrwt>
<totfact> 0.16063519E-01</totfact>
</mgrwt>
</event>
<event>
 6    1  0.9906445E-006  0.1730268E+04  0.7818608E-02  0.8744287E-01
         -1   -1    0    0    0  501 -0.00000000000E+00  0.00000000000E+00  0.25939467082E+03  0.25939467082E+03  0.00000000000E+00 0.  1.
          1   -1    0    0  501    0  0.00000000000E+00 -0.00000000000E+00 -0.28853973828E+04  0.28853973828E+04  0.00000000000E+00 0. -1.
         23    2    1    2    0    0 -0.12244600508E+03 -0.51047082777E+03 -0.25608611000E+04  0.26158148143E+04  0.94361427874E+02 0.  0.
         11    1    3    3    0    0 -0.32963011118E+02 -0.28648139967E+03 -0.12378174772E+04  0.12709643029E+04  0.00000000000E+00 0. -1.
        -11    1    3    3    0    0 -0.89482993966E+02 -0.22398942809E+03 -0.13230436228E+04  0.13448505114E+04  0.00000000000E+00 0.  1.
         22    1    1    2    0    0  0.12244600508E+03  0.51047082777E+03 -0.65141612040E+02  0.52897723938E+03  0.00000000000E+00 0.  1.
<mgrwt>
<rscale>  0 0.17302678E+04</rscale>
<asrwt>0</asrwt>
<pdfrwt beam="1">  1        1 0.44390727E+00 0.17302678E+04</pdfrwt>
<pdfrwt beam="2">  1       -1 0.39906874E-01 0.17302678E+04</pdfrwt>
<totfact> 0.42156538E+00</totfact>
</mgrwt>
</event>
<event>
 6    1  0.9906445E-006  0.2135775E+04  0.7818608E-02  0.8545646E-01
          2   -1    0    0  501    0  0.00000000000E+00  0.00000000000E+00  0.11164603330E+04  0.11164603330E+04  0.00000000000E+00 0. -1.
         -2   -1    0    0    0  501 -0.00000000000E+00 -0.00000000000E+00 -0.10214276784E+04  0.10214276784E+04  0.00000000000E+00 0.  1.
         23    2    1    2    0    0 -0.81968678681E+03 -0.36080066382E+03  0.62629121043E+03  0.10965911274E+04  0.90597311530E+02 0.  0.
         13    1    3    3    0    0 -0.14713988709E+03 -0.10290341030E+03  0.13639095012E+03  0.22548115109E+03  0.00000000000E+00 0.  1.
        -13    1    3    3    0    0 -0.67254689972E+03 -0.25789725352E+03  0.48990026032E+03  0.87110997627E+03  0.00000000000E+00 0. -1.
         22    1    1    2    0    0  0.81968678681E+03  0.36080066382E+03 -0.53125855590E+03  0.10412968840E+04  0.00000000000E+00 0.  1.
<mgrwt>
<rscale>  0 0.21357748E+04</rscale>
<asrwt>0</asrwt>
<pdfrwt beam="1">  1        2 0.17176313E+00 0.21357748E+04</pdfrwt>
<pdfrwt beam="2">  1       -2 0.15714272E+00 0.21357748E+04</pdfrwt>
<totfact> 0.51732214E+00</totfact>
</mgrwt>
</event>
<event>
 6    1  0.9906445E-006  0.2606455E+04  0.7818608E-02  0.8366012E-01
          1   -1    0    0  501    0  0.00000000000E+00  0.00000000000E+00  0.11289948333E+04  0.11289948333E+04  0.00000000000E+00 0. -1.
         -1   -1    0    0    0  501 -0.00000000000E+00 -0.00000000000E+00 -0.15043487589E+04  0.15043487589E+04  0.00000000000E+00 0.  1.
         23    2    1    2    0    0 -0.21718959273E+03  0.12534344613E+03  0.11025777657E+04  0.11342890960E+04  0.89731406824E+02 0.  0.
         13    1    3    3    0    0 -0.18065668993E+03  0.12801968795E+03  0.82079885652E+03  0.85013919036E+03  0.00000000000E+00 0.  1.
        -13    1    3    3    0    0 -0.36532902802E+02 -0.26762418290E+01  0.28177890914E+03  0.28414990567E+03  0.00000000000E+00 0. -1.
         22    1    1    2    0    0  0.21718959273E+03 -0.12534344613E+03 -0.14779316912E+04  0.14990544962E+04  0.00000000000E+00 0.  1.
<mgrwt>
<rscale>  0 0.26064550E+04</rscale>
<asrwt>0</asrwt>
<pdfrwt beam="1">  1        1 0.17369151E+00 0.26064550E+04</pdfrwt>
<pdfrwt beam="2">  1       -1 0.23143827E+00 0.26064550E+04</pdfrwt>
<totfact> 0.98017526E-01</totfact>
</mgrwt>
</event>
<event>
 6    1  0.9906445E-006  0.3858974E+04  0.7818608E-02  0.8033616E-01
         -2   -1    0    0    0  501 -0.00000000000E+00  0.00000000000E+00  0.24811285809E+04  0.24811285809E+04  0.00000000000E+00 0.  1.
          2   -1    0    0  501    0  0.00000000000E+00 -0.00000000000E+00 -0.15004949356E+04  0.15004949356E+04  0.00000000000E+00 0. -1.
         23    2    1    2    0    0  0.11891736154E+04  0.15107692263E+04  0.64474467240E+03  0.20298604814E+04  0.89890703225E+02 0.  0.
         11    1    3    3    0    0  0.22188644421E+03  0.28507907591E+03  0.84582007227E+02  0.37102262680E+03  0.00000000000E+00 0. -1.
        -11    1    3    3    0    0  0.96728717119E+03  0.12256901504E+04  0.56016266517E+03  0.16588378546E+04  0.00000000000E+00 0.  1.
         22    1    1    2    0    0 -0.11891736154E+04 -0.15107692263E+04  0.33588897288E+03  0.19517630350E+04  0.00000000000E+00 0. -1.
<mgrwt>
<rscale>  0 0.38589744E+04</rscale>
<asrwt>0</asrwt>
<pdfrwt beam="1">  1        2 0.23084538E+00 0.38589744E+04</pdfrwt>
<pdfrwt beam="2">  1       -2 0.38171209E+00 0.38589744E+04</pdfrwt>
<totfact> 0.98747325E-02</totfact>
</mgrwt>
</event>
<event>
 6    1  0.9906445E-006  0.2004201E+04  0.7818608E-02  0.8604659E-01
          1   -1    0    0  501    0  0.00000000000E+00  0.00000000000E+00  0.16591330358E+04  0.16591330358E+04  0.00000000000E+00 0. -1.
         -1   -1    0    0    0  501 -0.00000000000E+00 -0.00000000000E+00 -0.60525918779E+03  0.60525918779E+03  0.00000000000E+00 0.  1.
         23    2    1    2    0    0 -0.74165377261E+03  0.10503553448E+03 -0.22024767531E+03  0.78639748812E+03  0.93963763820E+02 0.  0.
         13    1    3    3    0    0 -0.26685472907E+03  0.83029097101E+02 -0.88957245846E+02  0.29328939459E+03  0.00000000000E+00 0.  1.
        -13    1    3    3    0    0 -0.47479904353E+03  0.22006437381E+02 -0.13129042947E+03  0.49310809352E+03  0.00000000000E+00 0. -1.
         22    1    1    2    0    0  0.74165377261E+03 -0.10503553448E+03  0.12741215233E+04  0.14779947355E+04  0.00000000000E+00 0. -1.
<mgrwt>
<rscale>  0 0.20042011E+04</rscale>
<asrwt>0</asrwt>
<pdfrwt beam="1">  1        1 0.25525123E+00 0.20042011E+04</pdfrwt>
<pdfrwt beam="2">  1       -1 0.93116799E-01 0.20042011E+04</pdfrwt>
<totfact> 0.52779340E+00</totfact>
</mgrwt>
</event>
<event>
 6    1  0.9906445E-006  0.3121642E+04  0.7818608E-02  0.8209823E-01
         -2   -1    0    0    0  501 -0.00000000000E+00  0.00000000000E+00  0.12978302981E+04  0.12978302981E+04  0.00000000000E+00 0.  1.
          2   -1    0    0  501    0  0.00000000000E+00 -0.00000000000E+00 -0.18771039499E+04  0.18771039499E+04  0.00000000000E+00 0. -1.
         23    2    1    2    0    0 -0.11048420451E+04 -0.83276802615E+03 -0.10217052317E+04  0.17223764236E+04  0.92306197253E+02 0.  0.
         13    1    3    3    0    0 -0.29324930117E+03 -0.17381773253E+03 -0.23582237940E+03  0.41451170237E+03  0.00000000000E+00 0. -1.
        -13    1    3    3    0    0 -0.81159274398E+03 -0.65895029362E+03 -0.78588285233E+03  0.13078647213E+04  0.00000000000E+00 0.  1.
         22    1    1    2    0    0  0.11048420451E+04  0.83276802615E+03  0.44243157997E+03  0.14525578243E+04  0.00000000000E+00 0. -1.
<mgrwt>
<rscale>  0 0.31216421E+04</rscale>
<asrwt>0</asrwt>
<pdfrwt beam="1">  1        2 0.28878522E+00 0.31216421E+04</pdfrwt>
<pdfrwt beam="2">  1       -2 0.19966620E+00 0.31216421E+04</pdfrwt>
<totfact> 0.88589668E-01</totfact>
</mgrwt>
</event>
<event>
 6    1  0.9906445E-006  0.1268152E+04  0.7818608E-02  0.9055209E-01
         -1   -1    0    0    0  501 -0.00000000000E+00  0.00000000000E+00  0.58738068147E+03  0.58738068147E+03  0.00000000000E+00 0.  1.
          1   -1    0    0  501    0  0.00000000000E+00 -0.00000000000E+00 -0.68448353416E+03  0.68448353416E+03  0.00000000000E+00 0. -1.
         23    2    1    2    0    0 -0.46052485308E+03  0.15428453660E+03  0.35502266664E+03  0.60830988947E+03  0.90072022615E+02 0.  0.
         11    1    3    3    0    0 -0.23071836501E+03  0.55047312619E+02  0.12387849579E+03  0.26759494072E+03  0.00000000000E+00 0.  1.
        -11    1    3    3    0    0 -0.22980648807E+03  0.99237223985E+02  0.23114417085E+03  0.34071494875E+03  0.00000000000E+00 0. -1.
         22    1    1    2    0    0  0.46052485308E+03 -0.15428453660E+03 -0.45212551932E+03  0.66355432616E+03  0.00000000000E+00 0. -1.
<mgrwt>
<rscale>  0 0.12681520E+04</rscale>
<asrwt>0</asrwt>
<pdfrwt beam="1">  1        1 0.10530516E+00 0.12681520E+04</pdfrwt>
<pdfrwt beam="2">  1       -1 0.90366258E-01 0.12681520E+04</pdfrwt>
<totfact> 0.33249355E+01</totfact>
</mgrwt>
</event>
<event>
 6    1  0.9906445E-006  0.2718534E+04  0.7818608E-02  0.8329016E-01
         -2   -1    0    0    0  501 -0.00000000000E+00  0.00000000000E+00  0.29570740181E+04  0.29570740181E+04  0.00000000000E+00 0.  1.
          2   -1    0    0  501    0  0.00000000000E+00 -0.00000000000E+00 -0.62480932728E+03  0.62480932728E+03  0.00000000000E+00 0. -1.
         23    2    1    2    0    0  0.96995592200E+03 -0.34165954073E+03  0.23355448728E+04  0.25535076883E+04  0.89921793295E+02 0.  0.
         11    1    3    3    0    0  0.59785514718E+03 -0.25466010047E+03  0.15014790426E+04  0.16360690264E+04  0.00000000000E+00 0. -1.
        -11    1    3    3    0    0  0.37210077481E+03 -0.86999440264E+02  0.83406583026E+03  0.91743866194E+03  0.00000000000E+00 0.  1.
         22    1    1    2    0    0 -0.96995592200E+03  0.34165954073E+03 -0.32801820323E+01  0.10283756570E+04  0.00000000000E+00 0. -1.
<mgrwt>
<rscale>  0 0.27185345E+04</rscale>
<asrwt>0</asrwt>
<pdfrwt beam="1">  1        2 0.96124514E-01 0.27185345E+04</pdfrwt>
<pdfrwt beam="2">  1       -2 0.45493446E+00 0.27185345E+04</pdfrwt>
<totfact> 0.13294689E-01</totfact>
</mgrwt>
</event>
<event>
 6    1  0.9906445E-006  0.1058162E+04  0.7818608E-02  0.9246958E-01
          1   -1    0    0  501    0  0.00000000000E+00  0.00000000000E+00  0.24879532114E+04  0.24879532114E+04  0.00000000000E+00 0. -1.
         -1   -1    0    0    0  501 -0.00000000000E+00 -0.00000000000E+00 -0.11251284841E+03  0.11251284841E+03  0.00000000000E+00 0.  1.
         23    2    1    2    0    0  0.13758755824E+03  0.66747507375E+02  0.24311709599E+04  0.24377040699E+04  0.91778702697E+02 0.  0.
         13    1    3    3    0    0  0.12409846136E+03  0.53820312550E+02  0.14357699001E+04  0.14421276851E+04  0.00000000000E+00 0.  1.
        -13    1    3    3    0    0  0.13489096882E+02  0.12927194825E+02  0.99540105978E+03  0.99557638477E+03  0.00000000000E+00 0. -1.
         22    1    1    2    0    0 -0.13758755824E+03 -0.66747507375E+02 -0.55730596914E+02  0.16276198990E+03  0.00000000000E+00 0.  1.
<mgrwt>
<rscale>  0 0.10581620E+04</rscale>
<asrwt>0</asrwt>
<pdfrwt beam="1">  1        1 0.38276199E+00 0.10581620E+04</pdfrwt>
<pdfrwt beam="2">  1       -1 0.17309671E-01 0.10581620E+04</pdfrwt>
<totfact> 0.36257309E+01</totfact>
</mgrwt>
</event>
<event>
 6    1  0.9906445E-006  0.1345878E+04  0.7818608E-02  0.8993954E-01
         -1   -1    0    0    0  501 -0.00000000000E+00  0.00000000000E+00  0.65445725143E+03  0.65445725143E+03  0.00000000000E+00 0.  1.
          1   -1    0    0  501    0  0.00000000000E+00 -0.00000000000E+00 -0.69194243227E+03  0.69194243227E+03  0.00000000000E+00 0. -1.
         23    2    1    2    0    0  0.24399705650E+03 -0.43943055298E+03 -0.46157549915E+03  0.68876272264E+03  0.93318659486E+02 0.  0.
         11    1    3    3    0    0  0.22719133871E+03 -0.34134902339E+03 -0.39256668204E+03  0.56766509493E+03  0.00000000000E+00 0. -1.
        -11    1    3    3    0    0  0.16805717782E+02 -0.98081529593E+02 -0.69008817110E+02  0.12109762771E+03  0.00000000000E+00 0.  1.
         22    1    1    2    0    0 -0.24399705650E+03  0.43943055298E+03  0.42409031831E+03  0.65763696106E+03  0.00000000000E+00 0.  1.
<mgrwt>
<rscale>  0 0.13458778E+04</rscale>
<asrwt>0</asrwt>
<pdfrwt beam="1">  1        1 0.10645268E+00 0.13458778E+04</pdfrwt>
<pdfrwt beam="2">  1       -1 0.10068573E+00 0.13458778E+04</pdfrwt>
<totfact> 0.25485759E+01</totfact>
</mgrwt>
</event>
<event>
 6    1  0.9906445E-006  0.3556289E+04  0.7818608E-02  0.8100578E-01
          2   -1    0    0  501    0  0.00000000000E+00  0.00000000000E+00  0.33806779833E+04  0.33806779833E+04  0.00000000000E+00 0. -1.
         -2   -1    0    0    0  501 -0.00000000000E+00 -0.00000000000E+00 -0.93525544488E+03  0.93525544488E+03  0.00000000000E+00 0.  1.
         23    2    1    2    0    0  0.82845100606E+03  0.15641899821E+04  0.10357692459E+04  0.20531599586E+04  0.98114806242E+02 0.  0.
         11    1    3    3    0    0  0.37243010739E+03  0.68767820938E+03  0.51360057699E+03  0.93562335223E+03  0.00000000000E+00 0.  1.
        -11    1    3    3    0    0  0.45602089867E+03  0.87651177271E+03  0.52216866890E+03  0.11175366063E+04  0.00000000000E+00 0. -1.
         22    1    1    2    0    0 -0.82845100606E+03 -0.15641899821E+04  0.14096532925E+04  0.22627734696E+04  0.00000000000E+00 0. -1.
<mgrwt>
<rscale>  0 0.35562888E+04</rscale>
<asrwt>0</asrwt>
<pdfrwt beam="1">  1        2 0.52010430E+00 0.35562888E+04</pdfrwt>
<pdfrwt beam="2">  1       -2 0.14388546E+00 0.35562888E+04</pdfrwt>
<totfact> 0.26841778E-01</totfact>
</mgrwt>
</event>
<event>
 6    1  0.9906445E-006  0.9015678E+03  0.7818608E-02  0.9423624E-01
         -1   -1    0    0    0  501 -0.00000000000E+00  0.00000000000E+00  0.40127222546E+03  0.40127222546E+03  0.00000000000E+00 0.  1.
          1   -1    0    0  501    0  0.00000000000E+00 -0.00000000000E+00 -0.50640467293E+03  0.50640467293E+03  0.00000000000E+00 0. -1.
         23    2    1    2    0    0 -0.34536393502E+02 -0.43642255423E+03 -0.13876732782E+03  0.46859978274E+03  0.93123449205E+02 0.  0.
         11    1    3    3    0    0  0.12479033618E+01 -0.27035674475E+03 -0.43512451123E+02  0.27383874834E+03  0.00000000000E+00 0.  1.
        -11    1    3    3    0    0 -0.35784296863E+02 -0.16606580949E+03 -0.95254876702E+02  0.19476103439E+03  0.00000000000E+00 0. -1.
         22    1    1    2    0    0  0.34536393502E+02  0.43642255423E+03  0.33634880351E+02  0.43907711566E+03  0.00000000000E+00 0.  1.
<mgrwt>
<rscale>  0 0.90156781E+03</rscale>
<asrwt>0</asrwt>
<pdfrwt beam="1">  1        1 0.77908411E-01 0.90156781E+03</pdfrwt>
<pdfrwt beam="2">  1       -1 0.61734189E-01 0.90156781E+03</pdfrwt>
<totfact> 0.11682994E+02</totfact>
</mgrwt>
</event>
<event>
 6    1  0.9906445E-006  0.1485256E+04  0.7818608E-02  0.8894317E-01
         -2   -1    0    0    0  501 -0.00000000000E+00  0.00000000000E+00  0.52494612469E+03  0.52494612469E+03  0.00000000000E+00 0.  1.
          2   -1    0    0  501    0  0.00000000000E+00 -0.00000000000E+00 -0.10505763510E+04  0.10505763510E+04  0.00000000000E+00 0. -1.
         23    2    1    2    0    0  0.43956450442E+03  0.13100473080E+02 -0.89480462159E+03  0.10013462745E+04  0.92900348447E+02 0.  0.
         11    1    3    3    0    0  0.26348291785E+03  0.12368704501E+02 -0.63381927470E+03  0.68651518981E+03  0.00000000000E+00 0. -1.
        -11    1    3    3    0    0  0.17608158657E+03  0.73176857956E+00 -0.26098534688E+03  0.31483108471E+03  0.00000000000E+00 0.  1.
         22    1    1    2    0    0 -0.43956450442E+03 -0.13100473080E+02  0.36917439523E+03  0.57417620121E+03  0.00000000000E+00 0.  1.
<mgrwt>
<rscale>  0 0.14852555E+04</rscale>
<asrwt>0</asrwt>
<pdfrwt beam="1">  1        2 0.16162713E+00 0.14852555E+04</pdfrwt>
<pdfrwt beam="2">  1       -2 0.80760944E-01 0.14852555E+04</pdfrwt>
<totfact> 0.30618396E+01</totfact>
</mgrwt>
</event>
<event>
 6    1  0.9906445E-006  0.4125389E+04  0.7818608E-02  0.7979718E-01
          2   -1    0    0  501    0  0.00000000000E+00  0.00000000000E+00  0.23875051776E+04  0.23875051776E+04  0.00000000000E+00 0. -1.
         -2   -1    0    0    0  501 -0.00000000000E+00 -0.00000000000E+00 -0.17820730634E+04  0.17820730634E+04  0.00000000000E+00 0.  1.
         23    2    1    2    0    0  0.17445274139E+04 -0.37201519683E+03 -0.74218184944E+03  0.19339945142E+04  0.87918591026E+02 0.  0.
         11    1    3    3    0    0  0.59813569402E+03 -0.12262611415E+03 -0.29920177622E+03  0.67994497956E+03  0.00000000000E+00 0.  1.
        -11    1    3    3    0    0  0.11463917199E+04 -0.24938908269E+03 -0.44298007322E+03  0.12540495346E+04  0.00000000000E+00 0. -1.
         22    1    1    2    0    0 -0.17445274139E+04  0.37201519683E+03  0.13476139637E+04  0.22355837268E+04  0.00000000000E+00 0. -1.
<mgrwt>
<rscale>  0 0.41253890E+04</rscale>
<asrwt>0</asrwt>
<pdfrwt beam="1">  1        2 0.36730849E+00 0.41253890E+04</pdfrwt>
<pdfrwt beam="2">  1       -2 0.27416508E+00 0.41253890E+04</pdfrwt>
<totfact> 0.14428062E-01</totfact>
</mgrwt>
</event>
<event>
 6    1  0.9906445E-006  0.3488544E+04  0.7818608E-02  0.8116510E-01
         -2   -1    0    0    0  501 -0.00000000000E+00  0.00000000000E+00  0.65722530684E+03  0.65722530684E+03  0.00000000000E+00 0.  1.
          2   -1    0    0  501    0  0.00000000000E+00 -0.00000000000E+00 -0.46292868538E+04  0.46292868538E+04  0.00000000000E+00 0. -1.
         23    2    1    2    0    0  0.16597897786E+04  0.58115093360E+02 -0.27892792690E+04  0.32475777845E+04  0.91668708379E+02 0.  0.
         11    1    3    3    0    0  0.27364814269E+03 -0.10488290548E+02 -0.40787434169E+03  0.49127872826E+03  0.00000000000E+00 0. -1.
        -11    1    3    3    0    0  0.13861416359E+04  0.68603383908E+02 -0.23814049274E+04  0.27562990562E+04  0.00000000000E+00 0.  1.
         22    1    1    2    0    0 -0.16597897786E+04 -0.58115093360E+02 -0.11827822779E+04  0.20389343762E+04  0.00000000000E+00 0. -1.
<mgrwt>
<rscale>  0 0.34885438E+04</rscale>
<asrwt>0</asrwt>
<pdfrwt beam="1">  1        2 0.71219798E+00 0.34885438E+04</pdfrwt>
<pdfrwt beam="2">  1       -2 0.10111158E+00 0.34885438E+04</pdfrwt>
<totfact> 0.59997762E-02</totfact>
</mgrwt>
</event>
<event>
 6    1  0.9906445E-006  0.3180477E+04  0.7818608E-02  0.8193992E-01
          1   -1    0    0  501    0  0.00000000000E+00  0.00000000000E+00  0.14095317202E+04  0.14095317202E+04  0.00000000000E+00 0. -1.
         -1   -1    0    0    0  501 -0.00000000000E+00 -0.00000000000E+00 -0.17941120413E+04  0.17941120413E+04  0.00000000000E+00 0.  1.
         23    2    1    2    0    0  0.14914740187E+04  0.21794480262E+03  0.31406899817E+03  0.15422872204E+04  0.89531273852E+02 0.  0.
         13    1    3    3    0    0  0.60611833151E+03  0.71693553090E+02  0.16875371793E+03  0.63324340870E+03  0.00000000000E+00 0. -1.
        -13    1    3    3    0    0  0.88535568719E+03  0.14625124953E+03  0.14531528025E+03  0.90904381165E+03  0.00000000000E+00 0.  1.
         22    1    1    2    0    0 -0.14914740187E+04 -0.21794480262E+03 -0.69864931929E+03  0.16613565411E+04  0.00000000000E+00 0.  1.
<mgrwt>
<rscale>  0 0.31804766E+04</rscale>
<asrwt>0</asrwt>
<pdfrwt beam="1">  1        1 0.21685103E+00 0.31804766E+04</pdfrwt>
<pdfrwt beam="2">  1       -1 0.27601724E+00 0.31804766E+04</pdfrwt>
<totfact> 0.29942254E-01</totfact>
</mgrwt>
</event>
<event>
 6    1  0.9906445E-006  0.2888856E+04  0.7818608E-02  0.8276201E-01
         -2   -1    0    0    0  501 -0.00000000000E+00  0.00000000000E+00  0.15348173929E+04  0.15348173929E+04  0.00000000000E+00 0.  1.
          2   -1    0    0  501    0  0.00000000000E+00 -0.00000000000E+00 -0.13593623150E+04  0.13593623150E+04  0.00000000000E+00 0. -1.
         23    2    1    2    0    0  0.17400315643E+03 -0.84761706807E+03  0.12446536916E+04  0.15187097997E+04  0.92654471802E+02 0.  0.
         11    1    3    3    0    0  0.54835255767E+02 -0.25471582988E+03  0.30344365525E+03  0.39995638660E+03  0.00000000000E+00 0. -1.
        -11    1    3    3    0    0  0.11916790066E+03 -0.59290123819E+03  0.94121003638E+03  0.11187534131E+04  0.00000000000E+00 0.  1.
         22    1    1    2    0    0 -0.17400315643E+03  0.84761706807E+03 -0.10691986138E+04  0.13754699082E+04  0.00000000000E+00 0. -1.
<mgrwt>
<rscale>  0 0.28888565E+04</rscale>
<asrwt>0</asrwt>
<pdfrwt beam="1">  1        2 0.20913266E+00 0.28888565E+04</pdfrwt>
<pdfrwt beam="2">  1       -2 0.23612575E+00 0.28888565E+04</pdfrwt>
<totfact> 0.10328355E+00</totfact>
</mgrwt>
</event>
<event>
 6    1  0.9906445E-006  0.4886282E+04  0.7818608E-02  0.7846293E-01
          1   -1    0    0  501    0  0.00000000000E+00  0.00000000000E+00  0.30025830659E+04  0.30025830659E+04  0.00000000000E+00 0. -1.
         -1   -1    0    0    0  501 -0.00000000000E+00 -0.00000000000E+00 -0.19879343223E+04  0.19879343223E+04  0.00000000000E+00 0.  1.
         23    2    1    2    0    0 -0.10306931884E+04 -0.14335426237E+04 -0.12157935130E+04  0.21458301360E+04  0.95185103817E+02 0.  0.
         11    1    3    3    0    0 -0.19702722078E+03 -0.25691421597E+03 -0.26701489921E+03  0.41966843638E+03  0.00000000000E+00 0. -1.
        -11    1    3    3    0    0 -0.83366596761E+03 -0.11766284077E+04 -0.94877861377E+03  0.17261616997E+04  0.00000000000E+00 0.  1.
         22    1    1    2    0    0  0.10306931884E+04  0.14335426237E+04  0.22304422566E+04  0.28446872522E+04  0.00000000000E+00 0. -1.
<mgrwt>
<rscale>  0 0.48862820E+04</rscale>
<asrwt>0</asrwt>
<pdfrwt beam="1">  1        1 0.46193585E+00 0.48862820E+04</pdfrwt>
<pdfrwt beam="2">  1       -1 0.30583605E+00 0.48862820E+04</pdfrwt>
<totfact> 0.13120339E-02</totfact>
</mgrwt>
</event>
<event>
 6    1  0.9906445E-006  0.3907796E+04  0.7818608E-02  0.8023410E-01
          1   -1    0    0  501    0  0.00000000000E+00  0.00000000000E+00  0.34895446425E+04  0.34895446425E+04  0.00000000000E+00 0. -1.
         -1   -1    0    0    0  501 -0.00000000000E+00 -0.00000000000E+00 -0.10940446855E+04  0.10940446855E+04  0.00000000000E+00 0.  1.
         23    2    1    2    0    0 -0.70587754408E+03 -0.18116904920E+04  0.14114216887E+04  0.24043932413E+04  0.92250362050E+02 0.  0.
         11    1    3    3    0    0 -0.54131896244E+03 -0.14617531355E+04  0.11622393898E+04  0.19443633527E+04  0.00000000000E+00 0. -1.
        -11    1    3    3    0    0 -0.16455858163E+03 -0.34993735654E+03  0.24918229890E+03  0.46002988857E+03  0.00000000000E+00 0.  1.
         22    1    1    2    0    0  0.70587754408E+03  0.18116904920E+04  0.98407826837E+03  0.21791960867E+04  0.00000000000E+00 0.  1.
<mgrwt>
<rscale>  0 0.39077962E+04</rscale>
<asrwt>0</asrwt>
<pdfrwt beam="1">  1        1 0.53685302E+00 0.39077962E+04</pdfrwt>
<pdfrwt beam="2">  1       -1 0.16831457E+00 0.39077962E+04</pdfrwt>
<totfact> 0.50772441E-02</totfact>
</mgrwt>
</event>
<event>
 6    1  0.9906445E-006  0.4281704E+04  0.7818608E-02  0.7950010E-01
         -1   -1    0    0    0  501 -0.00000000000E+00  0.00000000000E+00  0.16469190097E+04  0.16469190097E+04  0.00000000000E+00 0.  1.
          1   -1    0    0  501    0  0.00000000000E+00 -0.00000000000E+00 -0.27829220042E+04  0.27829220042E+04  0.00000000000E+00 0. -1.
         23    2    1    2    0    0 -0.11842573139E+04 -0.15896502793E+04  0.26557475359E+03  0.20021108848E+04  0.92003530456E+02 0.  0.
         13    1    3    3    0    0 -0.22954877695E+03 -0.27132040203E+03  0.19855769056E+02  0.35595175673E+03  0.00000000000E+00 0. -1.
        -13    1    3    3    0    0 -0.95470853693E+03 -0.13183298772E+04  0.24571898454E+03  0.16461591281E+04  0.00000000000E+00 0.  1.
         22    1    1    2    0    0  0.11842573139E+04  0.15896502793E+04 -0.14015777481E+04  0.24277301291E+04  0.00000000000E+00 0. -1.
<mgrwt>
<rscale>  0 0.42817039E+04</rscale>
<asrwt>0</asrwt>
<pdfrwt beam="1">  1        1 0.42814185E+00 0.42817039E+04</pdfrwt>
<pdfrwt beam="2">  1       -1 0.25337216E+00 0.42817039E+04</pdfrwt>
<totfact> 0.43441304E-02</totfact>
</mgrwt>
</event>
<event>
 6    1  0.9906445E-006  0.1026278E+04  0.7818608E-02  0.9280184E-01
         -2   -1    0    0    0  501 -0.00000000000E+00  0.00000000000E+00  0.97139182891E+03  0.97139182891E+03  0.00000000000E+00 0. -1.
          2   -1    0    0  501    0  0.00000000000E+00 -0.00000000000E+00 -0.27106653588E+03  0.27106653588E+03  0.00000000000E+00 0.  1.
         23    2    1    2    0    0 -0.39957723207E+03 -0.18998331243E+03  0.48730253283E+02  0.45484696364E+03  0.93570825331E+02 0.  0.
         13    1    3    3    0    0 -0.16061555478E+03 -0.12782939403E+03  0.19042302344E+02  0.20615605665E+03  0.00000000000E+00 0. -1.
        -13    1    3    3    0    0 -0.23896167729E+03 -0.62153918396E+02  0.29687950939E+02  0.24869090698E+03  0.00000000000E+00 0.  1.
         22    1    1    2    0    0  0.39957723207E+03  0.18998331243E+03  0.65159503976E+03  0.78761140115E+03  0.00000000000E+00 0. -1.
<mgrwt>
<rscale>  0 0.10262784E+04</rscale>
<asrwt>0</asrwt>
<pdfrwt beam="1">  1        2 0.41702544E-01 0.10262784E+04</pdfrwt>
<pdfrwt beam="2">  1       -2 0.14944490E+00 0.10262784E+04</pdfrwt>
<totfact> 0.37054116E+01</totfact>
</mgrwt>
</event>
<event>
 6    1  0.9906445E-006  0.7889267E+03  0.7818608E-02  0.9576185E-01
         -1   -1    0    0    0  501 -0.00000000000E+00  0.00000000000E+00  0.84562384258E+03  0.84562384258E+03  0.00000000000E+00 0.  1.
          1   -1    0    0  501    0  0.00000000000E+00 -0.00000000000E+00 -0.18400772811E+03  0.18400772811E+03  0.00000000000E+00 0. -1.
         23    2    1    2    0    0  0.22880966043E+03  0.31349341935E+03  0.30106181349E+03  0.49988503824E+03  0.92816222942E+02 0.  0.
         13    1    3    3    0    0  0.19053938580E+02  0.90177102432E+02  0.59161793642E+02  0.10952205351E+03  0.00000000000E+00 0.  1.
        -13    1    3    3    0    0  0.20975572185E+03  0.22331631691E+03  0.24190001984E+03  0.39036298473E+03  0.00000000000E+00 0. -1.
         22    1    1    2    0    0 -0.22880966043E+03 -0.31349341935E+03  0.36055430098E+03  0.52974653244E+03  0.00000000000E+00 0.  1.
<mgrwt>
<rscale>  0 0.78892667E+03</rscale>
<asrwt>0</asrwt>
<pdfrwt beam="1">  1        1 0.28308882E-01 0.78892667E+03</pdfrwt>
<pdfrwt beam="2">  1       -1 0.13009597E+00 0.78892667E+03</pdfrwt>
<totfact> 0.85151788E+01</totfact>
</mgrwt>
</event>
<event>
 6    1  0.9906445E-006  0.3676017E+04  0.7818608E-02  0.8073298E-01
         -2   -1    0    0    0  501 -0.00000000000E+00  0.00000000000E+00  0.13598217086E+04  0.13598217086E+04  0.00000000000E+00 0.  1.
          2   -1    0    0  501    0  0.00000000000E+00 -0.00000000000E+00 -0.24843515733E+04  0.24843515733E+04  0.00000000000E+00 0. -1.
         23    2    1    2    0    0 -0.47017887570E+03 -0.16986739131E+04 -0.11034520505E+04  0.20815032865E+04  0.92131786169E+02 0.  0.
         13    1    3    3    0    0 -0.24937969480E+03 -0.72971036567E+03 -0.48339248235E+03  0.91012951932E+03  0.00000000000E+00 0. -1.
        -13    1    3    3    0    0 -0.22079918090E+03 -0.96896354739E+03 -0.62005956817E+03  0.11713737672E+04  0.00000000000E+00 0.  1.
         22    1    1    2    0    0  0.47017887570E+03  0.16986739131E+04 -0.21077814138E+02  0.17626699953E+04  0.00000000000E+00 0. -1.
<mgrwt>
<rscale>  0 0.36760170E+04</rscale>
<asrwt>0</asrwt>
<pdfrwt beam="1">  1        2 0.38220793E+00 0.36760170E+04</pdfrwt>
<pdfrwt beam="2">  1       -2 0.20920334E+00 0.36760170E+04</pdfrwt>
<totfact> 0.33358982E-01</totfact>
</mgrwt>
</event>
<event>
 6    1  0.9906445E-006  0.2436407E+04  0.7818608E-02  0.8425998E-01
         -2   -1    0    0    0  501 -0.00000000000E+00  0.00000000000E+00  0.84225543179E+03  0.84225543179E+03  0.00000000000E+00 0.  1.
          2   -1    0    0  501    0  0.00000000000E+00 -0.00000000000E+00 -0.17619596149E+04  0.17619596149E+04  0.00000000000E+00 0. -1.
         23    2    1    2    0    0  0.10777974818E+02 -0.11497670210E+04 -0.88508447421E+03  0.14538764480E+04  0.91114391097E+02 0.  0.
         13    1    3    3    0    0 -0.20070485508E+02 -0.83857203208E+03 -0.60704704739E+03  0.10354284114E+04  0.00000000000E+00 0. -1.
        -13    1    3    3    0    0  0.30848460326E+02 -0.31119498891E+03 -0.27803742683E+03  0.41844803661E+03  0.00000000000E+00 0.  1.
         22    1    1    2    0    0 -0.10777974818E+02  0.11497670210E+04 -0.34619708846E+02  0.11503385986E+04  0.00000000000E+00 0.  1.
<mgrwt>
<rscale>  0 0.24364072E+04</rscale>
<asrwt>0</asrwt>
<pdfrwt beam="1">  1        2 0.27107071E+00 0.24364072E+04</pdfrwt>
<pdfrwt beam="2">  1       -2 0.12957776E+00 0.24364072E+04</pdfrwt>
<totfact> 0.35569167E+00</totfact>
</mgrwt>
</event>
<event>
 6    1  0.9906445E-006  0.2816945E+04  0.7818608E-02  0.8298027E-01
          2   -1    0    0  501    0  0.00000000000E+00  0.00000000000E+00  0.15012495171E+04  0.15012495171E+04  0.00000000000E+00 0. -1.
         -2   -1    0    0    0  501 -0.00000000000E+00 -0.00000000000E+00 -0.13214291494E+04  0.13214291494E+04  0.00000000000E+00 0.  1.
         23    2    1    2    0    0 -0.12621224693E+04  0.55813101767E+03 -0.18494222856E+03  0.13952631306E+04  0.89956740482E+02 0.  0.
         11    1    3    3    0    0 -0.50161294507E+03  0.26850302341E+03 -0.87896742801E+02  0.57570414071E+03  0.00000000000E+00 0. -1.
        -11    1    3    3    0    0 -0.76050952427E+03  0.28962799426E+03 -0.97045485760E+02  0.81955898987E+03  0.00000000000E+00 0.  1.
         22    1    1    2    0    0  0.12621224693E+04 -0.55813101767E+03  0.36476259634E+03  0.14274155359E+04  0.00000000000E+00 0.  1.
<mgrwt>
<rscale>  0 0.28169451E+04</rscale>
<asrwt>0</asrwt>
<pdfrwt beam="1">  1        2 0.23096146E+00 0.28169451E+04</pdfrwt>
<pdfrwt beam="2">  1       -2 0.20329679E+00 0.28169451E+04</pdfrwt>
<totfact> 0.13937645E+00</totfact>
</mgrwt>
</event>
<event>
 6    1  0.9906445E-006  0.2152608E+04  0.7818608E-02  0.8538417E-01
          1   -1    0    0  501    0  0.00000000000E+00  0.00000000000E+00  0.20653492848E+04  0.20653492848E+04  0.00000000000E+00 0. -1.
         -1   -1    0    0    0  501 -0.00000000000E+00 -0.00000000000E+00 -0.56088838030E+03  0.56088838030E+03  0.00000000000E+00 0.  1.
         23    2    1    2    0    0 -0.34628284421E+03 -0.50246391818E+03 -0.32520452982E+03  0.69749263301E+03  0.91412196216E+02 0.  0.
         11    1    3    3    0    0 -0.27130895897E+03 -0.33463520448E+03 -0.19912617542E+03  0.47459509587E+03  0.00000000000E+00 0.  1.
        -11    1    3    3    0    0 -0.74973885245E+02 -0.16782871371E+03 -0.12607835440E+03  0.22289753713E+03  0.00000000000E+00 0. -1.
         22    1    1    2    0    0  0.34628284421E+03  0.50246391818E+03  0.18296654343E+04  0.19287450321E+04  0.00000000000E+00 0. -1.
<mgrwt>
<rscale>  0 0.21526081E+04</rscale>
<asrwt>0</asrwt>
<pdfrwt beam="1">  1        1 0.31774604E+00 0.21526081E+04</pdfrwt>
<pdfrwt beam="2">  1       -1 0.86290521E-01 0.21526081E+04</pdfrwt>
<totfact> 0.32629408E+00</totfact>
</mgrwt>
</event>
<event>
 6    1  0.9906445E-006  0.2478317E+04  0.7818608E-02  0.8410751E-01
         -1   -1    0    0    0  501 -0.00000000000E+00  0.00000000000E+00  0.82081386624E+03  0.82081386624E+03  0.00000000000E+00 0.  1.
          1   -1    0    0  501    0  0.00000000000E+00 -0.00000000000E+00 -0.18707206590E+04  0.18707206590E+04  0.00000000000E+00 0. -1.
         23    2    1    2    0    0 -0.34924466244E+03 -0.11867100278E+04 -0.56514037877E+03  0.13629070377E+04  0.88766104882E+02 0.  0.
         13    1    3    3    0    0 -0.12120000732E+03 -0.50795570296E+03 -0.27631067717E+03  0.59080963792E+03  0.00000000000E+00 0. -1.
        -13    1    3    3    0    0 -0.22804465512E+03 -0.67875432488E+03 -0.28882970160E+03  0.77209739981E+03  0.00000000000E+00 0.  1.
         22    1    1    2    0    0  0.34924466244E+03  0.11867100278E+04 -0.48476641398E+03  0.13286274875E+04  0.00000000000E+00 0. -1.
<mgrwt>
<rscale>  0 0.24783167E+04</rscale>
<asrwt>0</asrwt>
<pdfrwt beam="1">  1        1 0.28780317E+00 0.24783167E+04</pdfrwt>
<pdfrwt beam="2">  1       -1 0.12627906E+00 0.24783167E+04</pdfrwt>
<totfact> 0.17709422E+00</totfact>
</mgrwt>
</event>
<event>
 6    1  0.9906445E-006  0.1228961E+04  0.7818608E-02  0.9087878E-01
          1   -1    0    0  501    0  0.00000000000E+00  0.00000000000E+00  0.37534034574E+04  0.37534034574E+04  0.00000000000E+00 0. -1.
         -1   -1    0    0    0  501 -0.00000000000E+00 -0.00000000000E+00 -0.10059843775E+03  0.10059843775E+03  0.00000000000E+00 0.  1.
         23    2    1    2    0    0  0.17552417152E+03  0.55939071060E+03  0.23787043156E+04  0.24514829805E+04  0.88362213467E+02 0.  0.
         13    1    3    3    0    0  0.15552410155E+03  0.44137509416E+03  0.20133036449E+04  0.20669763633E+04  0.00000000000E+00 0. -1.
        -13    1    3    3    0    0  0.20000069975E+02  0.11801561645E+03  0.36540067076E+03  0.38450661726E+03  0.00000000000E+00 0.  1.
         22    1    1    2    0    0 -0.17552417152E+03 -0.55939071060E+03  0.12741007041E+04  0.14025189147E+04  0.00000000000E+00 0.  1.
<mgrwt>
<rscale>  0 0.12289614E+04</rscale>
<asrwt>0</asrwt>
<pdfrwt beam="1">  1        1 0.57744658E+00 0.12289614E+04</pdfrwt>
<pdfrwt beam="2">  1       -1 0.15476686E-01 0.12289614E+04</pdfrwt>
<totfact> 0.49427935E+00</totfact>
</mgrwt>
</event>
<event>
 6    1  0.9906445E-006  0.3757314E+04  0.7818608E-02  0.8055378E-01
         -2   -1    0    0    0  501 -0.00000000000E+00  0.00000000000E+00  0.13261407564E+04  0.13261407564E+04  0.00000000000E+00 0.  1.
          2   -1    0    0  501    0  0.00000000000E+00 -0.00000000000E+00 -0.26613701422E+04  0.26613701422E+04  0.00000000000E+00 0. -1.
         23    2    1    2    0    0 -0.37418910201E+03 -0.96130153175E+03 -0.23328974712E+04  0.25524291144E+04  0.91463947772E+02 0.  0.
         13    1    3    3    0    0 -0.21103661762E+03 -0.60383082503E+03 -0.13489501575E+04  0.14929215139E+04  0.00000000000E+00 0. -1.
        -13    1    3    3    0    0 -0.16315248439E+03 -0.35747070672E+03 -0.98394731368E+03  0.10595076005E+04  0.00000000000E+00 0.  1.
         22    1    1    2    0    0  0.37418910201E+03  0.96130153175E+03  0.99766808538E+03  0.14350817843E+04  0.00000000000E+00 0.  1.
<mgrwt>
<rscale>  0 0.37573136E+04</rscale>
<asrwt>0</asrwt>
<pdfrwt beam="1">  1        2 0.40944156E+00 0.37573136E+04</pdfrwt>
<pdfrwt beam="2">  1       -2 0.20402166E+00 0.37573136E+04</pdfrwt>
<totfact> 0.28194415E-01</totfact>
</mgrwt>
</event>
<event>
 6    1  0.9906445E-006  0.2311879E+04  0.7818608E-02  0.8473252E-01
          2   -1    0    0  501    0  0.00000000000E+00  0.00000000000E+00  0.98115444868E+03  0.98115444868E+03  0.00000000000E+00 0. -1.
         -2   -1    0    0    0  501 -0.00000000000E+00 -0.00000000000E+00 -0.13618609396E+04  0.13618609396E+04  0.00000000000E+00 0.  1.
         23    2    1    2    0    0  0.28115930501E+03 -0.45640481056E+03  0.84504411162E+03  0.10051736766E+04  0.94438676680E+02 0.  0.
         13    1    3    3    0    0  0.17940886615E+03 -0.29312894778E+03  0.45443669839E+03  0.56975857529E+03  0.00000000000E+00 0.  1.
        -13    1    3    3    0    0  0.10175043887E+03 -0.16327586278E+03  0.39060741323E+03  0.43541510131E+03  0.00000000000E+00 0. -1.
         22    1    1    2    0    0 -0.28115930501E+03  0.45640481056E+03 -0.12257506025E+04  0.13378417116E+04  0.00000000000E+00 0.  1.
<mgrwt>
<rscale>  0 0.23118788E+04</rscale>
<asrwt>0</asrwt>
<pdfrwt beam="1">  1        2 0.15094684E+00 0.23118788E+04</pdfrwt>
<pdfrwt beam="2">  1       -2 0.20951707E+00 0.23118788E+04</pdfrwt>
<totfact> 0.27053960E+00</totfact>
</mgrwt>
</event>
<event>
 6    1  0.9906445E-006  0.1989176E+04  0.7818608E-02  0.8611698E-01
         -2   -1    0    0    0  501 -0.00000000000E+00  0.00000000000E+00  0.50755165048E+03  0.50755165048E+03  0.00000000000E+00 0.  1.
          2   -1    0    0  501    0  0.00000000000E+00 -0.00000000000E+00 -0.19489742833E+04  0.19489742833E+04  0.00000000000E+00 0. -1.
         23    2    1    2    0    0 -0.62469519378E+03 -0.49911238533E+03  0.38077908825E+01  0.80484550588E+03  0.91676227783E+02 0.  0.
         13    1    3    3    0    0 -0.91921289985E+02 -0.38275337627E+02 -0.11628232189E+02  0.10024839553E+03  0.00000000000E+00 0.  1.
        -13    1    3    3    0    0 -0.53277390379E+03 -0.46083704770E+03  0.15436023072E+02  0.70459711035E+03  0.00000000000E+00 0. -1.
         22    1    1    2    0    0  0.62469519378E+03  0.49911238533E+03 -0.14452304237E+04  0.16516804279E+04  0.00000000000E+00 0. -1.
<mgrwt>
<rscale>  0 0.19891758E+04</rscale>
<asrwt>0</asrwt>
<pdfrwt beam="1">  1        2 0.29984220E+00 0.19891758E+04</pdfrwt>
<pdfrwt beam="2">  1       -2 0.78084868E-01 0.19891758E+04</pdfrwt>
<totfact> 0.96793853E+00</totfact>
</mgrwt>
</event>
<event>
 6    1  0.9906445E-006  0.2522258E+04  0.7818608E-02  0.8395098E-01
         -2   -1    0    0    0  501 -0.00000000000E+00  0.00000000000E+00  0.11340358570E+04  0.11340358570E+04  0.00000000000E+00 0.  1.
          2   -1    0    0  501    0  0.00000000000E+00 -0.00000000000E+00 -0.14024661912E+04  0.14024661912E+04  0.00000000000E+00 0. -1.
         23    2    1    2    0    0  0.10506031936E+04 -0.37399217100E+02 -0.83147585101E+03  0.13439476362E+04  0.98373705869E+02 0.  0.
         13    1    3    3    0    0  0.74607514836E+03 -0.67119944488E+02 -0.61379020339E+03  0.96843772527E+03  0.00000000000E+00 0.  1.
        -13    1    3    3    0    0  0.30452804527E+03  0.29720727388E+02 -0.21768564762E+03  0.37550991088E+03  0.00000000000E+00 0. -1.
         22    1    1    2    0    0 -0.10506031936E+04  0.37399217100E+02  0.56304551679E+03  0.11925544121E+04  0.00000000000E+00 0.  1.
<mgrwt>
<rscale>  0 0.25222585E+04</rscale>
<asrwt>0</asrwt>
<pdfrwt beam="1">  1        2 0.21576403E+00 0.25222585E+04</pdfrwt>
<pdfrwt beam="2">  1       -2 0.17446706E+00 0.25222585E+04</pdfrwt>
<totfact> 0.25450775E+00</totfact>
</mgrwt>
</event>
<event>
 6    1  0.9906445E-006  0.3655936E+03  0.7818608E-02  0.1056391E+00
          2   -1    0    0  501    0  0.00000000000E+00  0.00000000000E+00  0.80763163830E+03  0.80763163830E+03  0.00000000000E+00 0. -1.
         -2   -1    0    0    0  501 -0.00000000000E+00 -0.00000000000E+00 -0.41373656871E+02  0.41373656871E+02  0.00000000000E+00 0.  1.
         23    2    1    2    0    0 -0.14464532102E+03  0.62902788316E+02  0.56265180991E+03  0.59145044131E+03  0.91419558380E+02 0.  0.
         11    1    3    3    0    0 -0.15033220401E+03  0.48032776034E+02  0.43374685535E+03  0.46156608807E+03  0.00000000000E+00 0.  1.
        -11    1    3    3    0    0  0.56868829921E+01  0.14870012282E+02  0.12890495457E+03  0.12988435323E+03  0.00000000000E+00 0. -1.
         22    1    1    2    0    0  0.14464532102E+03 -0.62902788316E+02  0.20360617152E+03  0.25755485387E+03  0.00000000000E+00 0.  1.
<mgrwt>
<rscale>  0 0.36559362E+03</rscale>
<asrwt>0</asrwt>
<pdfrwt beam="1">  1        2 0.12425101E+00 0.36559362E+03</pdfrwt>
<pdfrwt beam="2">  1       -2 0.63651786E-02 0.36559362E+03</pdfrwt>
<totfact> 0.47562210E+03</totfact>
</mgrwt>
</event>
<event>
 6    1  0.9906445E-006  0.4586505E+04  0.7818608E-02  0.7895665E-01
         -1   -1    0    0    0  501 -0.00000000000E+00  0.00000000000E+00  0.18924117042E+04  0.18924117042E+04  0.00000000000E+00 0.  1.
          1   -1    0    0  501    0  0.00000000000E+00 -0.00000000000E+00 -0.27789976052E+04  0.27789976052E+04  0.00000000000E+00 0. -1.
         23    2    1    2    0    0  0.95532965592E+03 -0.38666412643E+03 -0.25289604951E+04  0.27324512887E+04  0.92113849155E+02 0.  0.
         11    1    3    3    0    0  0.69704029816E+03 -0.25071963111E+03 -0.17338998626E+04  0.18855063628E+04  0.00000000000E+00 0. -1.
        -11    1    3    3    0    0  0.25828935777E+03 -0.13594449532E+03 -0.79506063251E+03  0.84694492590E+03  0.00000000000E+00 0.  1.
         22    1    1    2    0    0 -0.95532965592E+03  0.38666412643E+03  0.16423745942E+04  0.19389580206E+04  0.00000000000E+00 0.  1.
<mgrwt>
<rscale>  0 0.45865052E+04</rscale>
<asrwt>0</asrwt>
<pdfrwt beam="1">  1        1 0.42753809E+00 0.45865052E+04</pdfrwt>
<pdfrwt beam="2">  1       -1 0.29114026E+00 0.45865052E+04</pdfrwt>
<totfact> 0.24262110E-02</totfact>
</mgrwt>
</event>
<event>
 6    1  0.9906445E-006  0.2216112E+04  0.7818608E-02  0.8511752E-01
         -1   -1    0    0    0  501 -0.00000000000E+00  0.00000000000E+00  0.55137895371E+03  0.55137895371E+03  0.00000000000E+00 0.  1.
          1   -1    0    0  501    0  0.00000000000E+00 -0.00000000000E+00 -0.22267585967E+04  0.22267585967E+04  0.00000000000E+00 0. -1.
         23    2    1    2    0    0  0.11617983156E+03 -0.10493727777E+04 -0.12521718400E+04  0.16406904859E+04  0.96176785344E+02 0.  0.
         11    1    3    3    0    0  0.43782214640E+02 -0.28385265906E+03 -0.40617940626E+03  0.49746449567E+03  0.00000000000E+00 0. -1.
        -11    1    3    3    0    0  0.72397616918E+02 -0.76552011864E+03 -0.84599243369E+03  0.11432259903E+04  0.00000000000E+00 0.  1.
         22    1    1    2    0    0 -0.11617983156E+03  0.10493727777E+04 -0.42320780300E+03  0.11374470644E+04  0.00000000000E+00 0. -1.
<mgrwt>
<rscale>  0 0.22161118E+04</rscale>
<asrwt>0</asrwt>
<pdfrwt beam="1">  1        1 0.34257825E+00 0.22161118E+04</pdfrwt>
<pdfrwt beam="2">  1       -1 0.84827530E-01 0.22161118E+04</pdfrwt>
<totfact> 0.26147312E+00</totfact>
</mgrwt>
</event>
<event>
 6    1  0.9906445E-006  0.8175651E+03  0.7818608E-02  0.9534935E-01
          1   -1    0    0  501    0  0.00000000000E+00  0.00000000000E+00  0.72443613153E+03  0.72443613153E+03  0.00000000000E+00 0. -1.
         -1   -1    0    0    0  501 -0.00000000000E+00 -0.00000000000E+00 -0.23066652777E+03  0.23066652777E+03  0.00000000000E+00 0.  1.
         23    2    1    2    0    0  0.10744823979E+03  0.36309196845E+03  0.80075086814E+02  0.39427821695E+03  0.75248860738E+02 0.  0.
         11    1    3    3    0    0  0.10434455450E+03  0.22605380299E+03  0.53239522327E+02  0.25460273886E+03  0.00000000000E+00 0. -1.
        -11    1    3    3    0    0  0.31036852860E+01  0.13703816547E+03  0.26835564487E+02  0.13967547809E+03  0.00000000000E+00 0.  1.
         22    1    1    2    0    0 -0.10744823979E+03 -0.36309196845E+03  0.41369451694E+03  0.56082444235E+03  0.00000000000E+00 0. -1.
<mgrwt>
<rscale>  0 0.81756508E+03</rscale>
<asrwt>0</asrwt>
<pdfrwt beam="1">  1        1 0.11145171E+00 0.81756508E+03</pdfrwt>
<pdfrwt beam="2">  1       -1 0.35487158E-01 0.81756508E+03</pdfrwt>
<totfact> 0.19753205E+02</totfact>
</mgrwt>
</event>
<event>
 6    1  0.9906445E-006  0.3987465E+04  0.7818608E-02  0.8007080E-01
         -1   -1    0    0    0  501 -0.00000000000E+00  0.00000000000E+00  0.17926406837E+04  0.17926406837E+04  0.00000000000E+00 0.  1.
          1   -1    0    0  501    0  0.00000000000E+00 -0.00000000000E+00 -0.22173825114E+04  0.22173825114E+04  0.00000000000E+00 0. -1.
         23    2    1    2    0    0 -0.46178310466E+03 -0.13643593437E+04 -0.15972672524E+04  0.21527305616E+04  0.90918319245E+02 0.  0.
         13    1    3    3    0    0 -0.22058383401E+03 -0.63184782637E+03 -0.67536050141E+03  0.95078951949E+03  0.00000000000E+00 0. -1.
        -13    1    3    3    0    0 -0.24119927065E+03 -0.73251151735E+03 -0.92190675100E+03  0.12019410421E+04  0.00000000000E+00 0.  1.
         22    1    1    2    0    0  0.46178310466E+03  0.13643593437E+04  0.11725254247E+04  0.18572926334E+04  0.00000000000E+00 0.  1.
<mgrwt>
<rscale>  0 0.39874654E+04</rscale>
<asrwt>0</asrwt>
<pdfrwt beam="1">  1        1 0.34113577E+00 0.39874654E+04</pdfrwt>
<pdfrwt beam="2">  1       -1 0.27579088E+00 0.39874654E+04</pdfrwt>
<totfact> 0.78708850E-02</totfact>
</mgrwt>
</event>
<event>
 6    1  0.9906445E-006  0.1054776E+04  0.7818608E-02  0.9250427E-01
          3   -1    0    0  501    0  0.00000000000E+00  0.00000000000E+00  0.26336287818E+03  0.26336287818E+03  0.00000000000E+00 0. -1.
         -3   -1    0    0    0  501 -0.00000000000E+00 -0.00000000000E+00 -0.10561026582E+04  0.10561026582E+04  0.00000000000E+00 0.  1.
         23    2    1    2    0    0 -0.33603658962E+03 -0.81367513721E+02  0.92981582989E+02  0.36865346519E+03  0.87855226199E+02 0.  0.
         13    1    3    3    0    0 -0.27200081294E+03 -0.37146890260E+02  0.95856892298E+02  0.29077977492E+03  0.00000000000E+00 0.  1.
        -13    1    3    3    0    0 -0.64035776671E+02 -0.44220623461E+02 -0.28753093095E+01  0.77873690273E+02  0.00000000000E+00 0. -1.
         22    1    1    2    0    0  0.33603658962E+03  0.81367513721E+02 -0.88572136298E+03  0.95081207117E+03  0.00000000000E+00 0.  1.
<mgrwt>
<rscale>  0 0.10547763E+04</rscale>
<asrwt>0</asrwt>
<pdfrwt beam="1">  1        3 0.40517366E-01 0.10547763E+04</pdfrwt>
<pdfrwt beam="2">  1       -3 0.16247733E+00 0.10547763E+04</pdfrwt>
<totfact> 0.41318414E+00</totfact>
</mgrwt>
</event>
<event>
 6    1  0.9906445E-006  0.3357108E+04  0.7818608E-02  0.8148514E-01
         -2   -1    0    0    0  501 -0.00000000000E+00  0.00000000000E+00  0.32367165130E+04  0.32367165130E+04  0.00000000000E+00 0.  1.
          2   -1    0    0  501    0  0.00000000000E+00 -0.00000000000E+00 -0.87049426746E+03  0.87049426746E+03  0.00000000000E+00 0. -1.
         23    2    1    2    0    0  0.21473315312E+03  0.47298889738E+03  0.31352660843E+04  0.31791713147E+04  0.86069768826E+02 0.  0.
         13    1    3    3    0    0  0.19027432668E+03  0.32560255750E+03  0.22536810031E+04  0.22850162819E+04  0.00000000000E+00 0. -1.
        -13    1    3    3    0    0  0.24458826442E+02  0.14738633988E+03  0.88158508120E+03  0.89415503285E+03  0.00000000000E+00 0.  1.
         22    1    1    2    0    0 -0.21473315312E+03 -0.47298889738E+03 -0.76904383873E+03  0.92803946575E+03  0.00000000000E+00 0. -1.
<mgrwt>
<rscale>  0 0.33571078E+04</rscale>
<asrwt>0</asrwt>
<pdfrwt beam="1">  1        2 0.13392220E+00 0.33571078E+04</pdfrwt>
<pdfrwt beam="2">  1       -2 0.49795638E+00 0.33571078E+04</pdfrwt>
<totfact> 0.43289113E-02</totfact>
</mgrwt>
</event>
<event>
 6    1  0.9906445E-006  0.5011260E+04  0.7818608E-02  0.7826773E-01
         -2   -1    0    0    0  501 -0.00000000000E+00  0.00000000000E+00  0.18973662511E+04  0.18973662511E+04  0.00000000000E+00 0.  1.
          2   -1    0    0  501    0  0.00000000000E+00 -0.00000000000E+00 -0.33088923348E+04  0.33088923348E+04  0.00000000000E+00 0. -1.
         23    2    1    2    0    0 -0.92339424600E+03  0.20252116683E+04 -0.18995656628E+04  0.29275919000E+04  0.91133914616E+02 0.  0.
         13    1    3    3    0    0 -0.52567873240E+03  0.10555190489E+04 -0.97822575972E+03  0.15321175638E+04  0.00000000000E+00 0. -1.
        -13    1    3    3    0    0 -0.39771551360E+03  0.96969261936E+03 -0.92133990307E+03  0.13954743361E+04  0.00000000000E+00 0.  1.
         22    1    1    2    0    0  0.92339424600E+03 -0.20252116683E+04  0.48803957910E+03  0.22786666860E+04  0.00000000000E+00 0.  1.
<mgrwt>
<rscale>  0 0.50112596E+04</rscale>
<asrwt>0</asrwt>
<pdfrwt beam="1">  1        2 0.50906035E+00 0.50112596E+04</pdfrwt>
<pdfrwt beam="2">  1       -2 0.29190250E+00 0.50112596E+04</pdfrwt>
<totfact> 0.28432628E-02</totfact>
</mgrwt>
</event>
<event>
 6    1  0.9906445E-006  0.1145861E+04  0.7818608E-02  0.9161610E-01
          2   -1    0    0  501    0  0.00000000000E+00  0.00000000000E+00  0.97386968626E+03  0.97386968626E+03  0.00000000000E+00 0. -1.
         -2   -1    0    0    0  501 -0.00000000000E+00 -0.00000000000E+00 -0.33705692807E+03  0.33705692807E+03  0.00000000000E+00 0.  1.
         23    2    1    2    0    0  0.36185682178E+02 -0.56515553083E+03  0.39147466309E+03  0.69375487281E+03  0.85634304360E+02 0.  0.
         13    1    3    3    0    0 -0.13402224163E+01 -0.33255877057E+03  0.27177750101E+03  0.42948823283E+03  0.00000000000E+00 0. -1.
        -13    1    3    3    0    0  0.37525904594E+02 -0.23259676025E+03  0.11969716207E+03  0.26426663998E+03  0.00000000000E+00 0.  1.
         22    1    1    2    0    0 -0.36185682178E+02  0.56515553083E+03  0.24533809510E+03  0.61717174152E+03  0.00000000000E+00 0.  1.
<mgrwt>
<rscale>  0 0.11458613E+04</rscale>
<asrwt>0</asrwt>
<pdfrwt beam="1">  1        2 0.14982610E+00 0.11458613E+04</pdfrwt>
<pdfrwt beam="2">  1       -2 0.51854912E-01 0.11458613E+04</pdfrwt>
<totfact> 0.91056902E+01</totfact>
</mgrwt>
</event>
<event>
 6    1  0.9906445E-006  0.1495183E+04  0.7818608E-02  0.8887663E-01
          1   -1    0    0  501    0  0.00000000000E+00  0.00000000000E+00  0.10294771027E+04  0.10294771027E+04  0.00000000000E+00 0. -1.
         -1   -1    0    0    0  501 -0.00000000000E+00 -0.00000000000E+00 -0.54289002427E+03  0.54289002427E+03  0.00000000000E+00 0.  1.
         23    2    1    2    0    0  0.21649039606E+03  0.24060367848E+03  0.94983774434E+03  0.10072482004E+04  0.87172099488E+02 0.  0.
         11    1    3    3    0    0  0.42306747217E+02  0.10556989967E+03  0.36240316930E+03  0.37983012215E+03  0.00000000000E+00 0.  1.
        -11    1    3    3    0    0  0.17418364884E+03  0.13503377881E+03  0.58743457504E+03  0.62741807824E+03  0.00000000000E+00 0. -1.
         22    1    1    2    0    0 -0.21649039606E+03 -0.24060367848E+03 -0.46325066592E+03  0.56511892656E+03  0.00000000000E+00 0.  1.
<mgrwt>
<rscale>  0 0.14951827E+04</rscale>
<asrwt>0</asrwt>
<pdfrwt beam="1">  1        1 0.15838109E+00 0.14951827E+04</pdfrwt>
<pdfrwt beam="2">  1       -1 0.83521542E-01 0.14951827E+04</pdfrwt>
<totfact> 0.19756662E+01</totfact>
</mgrwt>
</event>
<event>
 6    1  0.9906445E-006  0.7331870E+03  0.7818608E-02  0.9662103E-01
         -1   -1    0    0    0  501 -0.00000000000E+00  0.00000000000E+00  0.87965011156E+02  0.87965011156E+02  0.00000000000E+00 0.  1.
          1   -1    0    0  501    0  0.00000000000E+00 -0.00000000000E+00 -0.15277756277E+04  0.15277756277E+04  0.00000000000E+00 0. -1.
         23    2    1    2    0    0 -0.56020947445E+02 -0.35022318636E+03 -0.58176150809E+03  0.68727798515E+03  0.90055259439E+02 0.  0.
         13    1    3    3    0    0  0.71976347222E+01 -0.15392695053E+03 -0.30940501427E+03  0.34565412611E+03  0.00000000000E+00 0.  1.
        -13    1    3    3    0    0 -0.63218582167E+02 -0.19629623584E+03 -0.27235649383E+03  0.34162385904E+03  0.00000000000E+00 0. -1.
         22    1    1    2    0    0  0.56020947445E+02  0.35022318636E+03 -0.85804910847E+03  0.92846265373E+03  0.00000000000E+00 0. -1.
<mgrwt>
<rscale>  0 0.73318702E+03</rscale>
<asrwt>0</asrwt>
<pdfrwt beam="1">  1        1 0.23504240E+00 0.73318702E+03</pdfrwt>
<pdfrwt beam="2">  1       -1 0.13533079E-01 0.73318702E+03</pdfrwt>
<totfact> 0.24817520E+02</totfact>
</mgrwt>
</event>
<event>
 6    1  0.9906445E-006  0.1438966E+04  0.7818608E-02  0.8926086E-01
          2   -1    0    0  501    0  0.00000000000E+00  0.00000000000E+00  0.24876107304E+03  0.24876107304E+03  0.00000000000E+00 0. -1.
         -2   -1    0    0    0  501 -0.00000000000E+00 -0.00000000000E+00 -0.20809342599E+04  0.20809342599E+04  0.00000000000E+00 0.  1.
         23    2    1    2    0    0  0.45807525039E+03  0.33322102022E+03 -0.16301507297E+04  0.17282950865E+04  0.93505726236E+02 0.  0.
         13    1    3    3    0    0  0.12822683938E+03  0.44537885688E+02 -0.37662952433E+03  0.40034428208E+03  0.00000000000E+00 0.  1.
        -13    1    3    3    0    0  0.32984841102E+03  0.28868313454E+03 -0.12535212054E+04  0.13279508044E+04  0.00000000000E+00 0. -1.
         22    1    1    2    0    0 -0.45807525039E+03 -0.33322102022E+03 -0.20202245716E+03  0.60140024654E+03  0.00000000000E+00 0. -1.
<mgrwt>
<rscale>  0 0.14389655E+04</rscale>
<asrwt>0</asrwt>
<pdfrwt beam="1">  1        2 0.38270934E-01 0.14389655E+04</pdfrwt>
<pdfrwt beam="2">  1       -2 0.32014373E+00 0.14389655E+04</pdfrwt>
<totfact> 0.31576642E+00</totfact>
</mgrwt>
</event>
<event>
 6    1  0.9906445E-006  0.4257398E+04  0.7818608E-02  0.7954543E-01
         -2   -1    0    0    0  501 -0.00000000000E+00  0.00000000000E+00  0.23911476851E+04  0.23911476851E+04  0.00000000000E+00 0.  1.
          2   -1    0    0  501    0  0.00000000000E+00 -0.00000000000E+00 -0.18950558609E+04  0.18950558609E+04  0.00000000000E+00 0. -1.
         23    2    1    2    0    0  0.27677932069E+03  0.28279277855E+03 -0.18565641059E+04  0.19005027112E+04  0.92204814535E+02 0.  0.
         13    1    3    3    0    0  0.21749220300E+03  0.25938513983E+03 -0.16484549451E+04  0.16828509189E+04  0.00000000000E+00 0.  1.
        -13    1    3    3    0    0  0.59287117683E+02  0.23407638722E+02 -0.20810916085E+03  0.21765179232E+03  0.00000000000E+00 0. -1.
         22    1    1    2    0    0 -0.27677932069E+03 -0.28279277855E+03  0.23526559301E+04  0.23857008349E+04  0.00000000000E+00 0.  1.
<mgrwt>
<rscale>  0 0.42573975E+04</rscale>
<asrwt>0</asrwt>
<pdfrwt beam="1">  1        2 0.29154706E+00 0.42573975E+04</pdfrwt>
<pdfrwt beam="2">  1       -2 0.36786887E+00 0.42573975E+04</pdfrwt>
<totfact> 0.70724515E-02</totfact>
</mgrwt>
</event>
<event>
 6    1  0.9906445E-006  0.1570331E+04  0.7818608E-02  0.8838985E-01
         -1   -1    0    0    0  501 -0.00000000000E+00  0.00000000000E+00  0.60401246249E+03  0.60401246249E+03  0.00000000000E+00 0.  1.
          1   -1    0    0  501    0  0.00000000000E+00 -0.00000000000E+00 -0.10206498786E+04  0.10206498786E+04  0.00000000000E+00 0. -1.
         23    2    1    2    0    0  0.65626032383E+03  0.15120252004E+03  0.20273252491E+03  0.70969844097E+03  0.95034655556E+02 0.  0.
         11    1    3    3    0    0  0.25760395397E+03  0.10093569774E+03  0.58550797283E+02  0.28280029710E+03  0.00000000000E+00 0. -1.
        -11    1    3    3    0    0  0.39865636986E+03  0.50266822298E+02  0.14418172763E+03  0.42689814387E+03  0.00000000000E+00 0.  1.
         22    1    1    2    0    0 -0.65626032383E+03 -0.15120252004E+03 -0.61936994105E+03  0.91496390015E+03  0.00000000000E+00 0. -1.
<mgrwt>
<rscale>  0 0.15703315E+04</rscale>
<asrwt>0</asrwt>
<pdfrwt beam="1">  1        1 0.15702306E+00 0.15703315E+04</pdfrwt>
<pdfrwt beam="2">  1       -1 0.92924995E-01 0.15703315E+04</pdfrwt>
<totfact> 0.15782143E+01</totfact>
</mgrwt>
</event>
<event>
 6    1  0.9906445E-006  0.2486131E+04  0.7818608E-02  0.8407943E-01
         -2   -1    0    0    0  501 -0.00000000000E+00  0.00000000000E+00  0.14276409871E+04  0.14276409871E+04  0.00000000000E+00 0.  1.
          2   -1    0    0  501    0  0.00000000000E+00 -0.00000000000E+00 -0.10823534598E+04  0.10823534598E+04  0.00000000000E+00 0. -1.
         23    2    1    2    0    0 -0.96276870134E+03  0.74859732667E+01 -0.61809923908E+03  0.11479762115E+04  0.93931361481E+02 0.  0.
         11    1    3    3    0    0 -0.90040690711E+02 -0.73546502655E+00 -0.27461780633E+02  0.94138282798E+02  0.00000000000E+00 0.  1.
        -11    1    3    3    0    0 -0.87272801063E+03  0.82214382933E+01 -0.59063745845E+03  0.10538379287E+04  0.00000000000E+00 0. -1.
         22    1    1    2    0    0  0.96276870134E+03 -0.74859732667E+01  0.96338676632E+03  0.13620182354E+04  0.00000000000E+00 0. -1.
<mgrwt>
<rscale>  0 0.24861313E+04</rscale>
<asrwt>0</asrwt>
<pdfrwt beam="1">  1        2 0.16651592E+00 0.24861313E+04</pdfrwt>
<pdfrwt beam="2">  1       -2 0.21963707E+00 0.24861313E+04</pdfrwt>
<totfact> 0.19818993E+00</totfact>
</mgrwt>
</event>
<event>
 6    1  0.9906445E-006  0.2805556E+04  0.7818608E-02  0.8301545E-01
         -2   -1    0    0    0  501 -0.00000000000E+00  0.00000000000E+00  0.94368679786E+03  0.94368679786E+03  0.00000000000E+00 0.  1.
          2   -1    0    0  501    0  0.00000000000E+00 -0.00000000000E+00 -0.20852114455E+04  0.20852114455E+04  0.00000000000E+00 0. -1.
         23    2    1    2    0    0  0.32657960382E+03 -0.22524289792E+03  0.87956612797E+03  0.96923892105E+03  0.91645577662E+02 0.  0.
         13    1    3    3    0    0  0.30044062769E+03 -0.17194690545E+03  0.77919061774E+03  0.85262437676E+03  0.00000000000E+00 0.  1.
        -13    1    3    3    0    0  0.26138976128E+02 -0.53295992473E+02  0.10037551023E+03  0.11661454429E+03  0.00000000000E+00 0. -1.
         22    1    1    2    0    0 -0.32657960382E+03  0.22524289792E+03 -0.20210907756E+04  0.20596593223E+04  0.00000000000E+00 0. -1.
<mgrwt>
<rscale>  0 0.28055563E+04</rscale>
<asrwt>0</asrwt>
<pdfrwt beam="1">  1        2 0.32080176E+00 0.28055563E+04</pdfrwt>
<pdfrwt beam="2">  1       -2 0.14518259E+00 0.28055563E+04</pdfrwt>
<totfact> 0.17012125E+00</totfact>
</mgrwt>
</event>
<event>
 6    1  0.9906445E-006  0.3290563E+04  0.7818608E-02  0.8165301E-01
          2   -1    0    0  501    0  0.00000000000E+00  0.00000000000E+00  0.15437960418E+04  0.15437960418E+04  0.00000000000E+00 0. -1.
         -2   -1    0    0    0  501 -0.00000000000E+00 -0.00000000000E+00 -0.17534383347E+04  0.17534383347E+04  0.00000000000E+00 0.  1.
         23    2    1    2    0    0 -0.43731491195E+03  0.80990442780E+03  0.12602591837E+04  0.15629334034E+04  0.85545889193E+02 0.  0.
         11    1    3    3    0    0 -0.32213465393E+03  0.55208415956E+03  0.92892234270E+03  0.11275922904E+04  0.00000000000E+00 0. -1.
        -11    1    3    3    0    0 -0.11518025802E+03  0.25782026824E+03  0.33133684099E+03  0.43534111309E+03  0.00000000000E+00 0.  1.
         22    1    1    2    0    0  0.43731491195E+03 -0.80990442780E+03 -0.14699014765E+04  0.17343009731E+04  0.00000000000E+00 0.  1.
<mgrwt>
<rscale>  0 0.32905630E+04</rscale>
<asrwt>0</asrwt>
<pdfrwt beam="1">  1        2 0.23750708E+00 0.32905630E+04</pdfrwt>
<pdfrwt beam="2">  1       -2 0.26975974E+00 0.32905630E+04</pdfrwt>
<totfact> 0.48745158E-01</totfact>
</mgrwt>
</event>
<event>
 6    1  0.9906445E-006  0.2828677E+04  0.7818608E-02  0.8294420E-01
          2   -1    0    0  501    0  0.00000000000E+00  0.00000000000E+00  0.17875480884E+04  0.17875480884E+04  0.00000000000E+00 0. -1.
         -2   -1    0    0    0  501 -0.00000000000E+00 -0.00000000000E+00 -0.11190489655E+04  0.11190489655E+04  0.00000000000E+00 0.  1.
         23    2    1    2    0    0  0.12408510814E+04  0.41235514765E+03  0.88479055005E+03  0.15812555298E+04  0.88128084261E+02 0.  0.
         13    1    3    3    0    0  0.58837935986E+03  0.17109026200E+03  0.45953859836E+03  0.76592288923E+03  0.00000000000E+00 0. -1.
        -13    1    3    3    0    0  0.65247172152E+03  0.24126488565E+03  0.42525195169E+03  0.81533264062E+03  0.00000000000E+00 0.  1.
         22    1    1    2    0    0 -0.12408510814E+04 -0.41235514765E+03 -0.21629142712E+03  0.13253415241E+04  0.00000000000E+00 0.  1.
<mgrwt>
<rscale>  0 0.28286773E+04</rscale>
<asrwt>0</asrwt>
<pdfrwt beam="1">  1        2 0.27500740E+00 0.28286773E+04</pdfrwt>
<pdfrwt beam="2">  1       -2 0.17216138E+00 0.28286773E+04</pdfrwt>
<totfact> 0.15661180E+00</totfact>
</mgrwt>
</event>
<event>
 6    1  0.9906445E-006  0.4220854E+04  0.7818608E-02  0.7961417E-01
         -1   -1    0    0    0  501 -0.00000000000E+00  0.00000000000E+00  0.14607229253E+04  0.14607229253E+04  0.00000000000E+00 0.  1.
          1   -1    0    0  501    0  0.00000000000E+00 -0.00000000000E+00 -0.30491081332E+04  0.30491081332E+04  0.00000000000E+00 0. -1.
         23    2    1    2    0    0 -0.17732071323E+04  0.32334174814E+03 -0.19652394148E+04  0.26684097288E+04  0.97113868740E+02 0.  0.
         11    1    3    3    0    0 -0.28381767313E+03  0.47631564479E+02 -0.26337653971E+03  0.39011336709E+03  0.00000000000E+00 0.  1.
        -11    1    3    3    0    0 -0.14893894591E+04  0.27571018366E+03 -0.17018628751E+04  0.22782963617E+04  0.00000000000E+00 0. -1.
         22    1    1    2    0    0  0.17732071323E+04 -0.32334174814E+03  0.37685420687E+03  0.18414213296E+04  0.00000000000E+00 0.  1.
<mgrwt>
<rscale>  0 0.42208540E+04</rscale>
<asrwt>0</asrwt>
<pdfrwt beam="1">  1        1 0.46909355E+00 0.42208540E+04</pdfrwt>
<pdfrwt beam="2">  1       -1 0.22472661E+00 0.42208540E+04</pdfrwt>
<totfact> 0.43258357E-02</totfact>
</mgrwt>
</event>
<event>
 6    1  0.9906445E-006  0.4006344E+04  0.7818608E-02  0.8003268E-01
         -1   -1    0    0    0  501 -0.00000000000E+00  0.00000000000E+00  0.17577355584E+04  0.17577355584E+04  0.00000000000E+00 0.  1.
          1   -1    0    0  501    0  0.00000000000E+00 -0.00000000000E+00 -0.22828791418E+04  0.22828791418E+04  0.00000000000E+00 0. -1.
         23    2    1    2    0    0  0.11516904438E+04 -0.14845462874E+04 -0.95911095441E+03  0.21122484910E+04  0.10691728977E+03 0.  0.
         13    1    3    3    0    0  0.39205299280E+03 -0.46939067191E+03 -0.26203584824E+03  0.66535399436E+03  0.00000000000E+00 0. -1.
        -13    1    3    3    0    0  0.75963745103E+03 -0.10151556155E+04 -0.69707510617E+03  0.14468944966E+04  0.00000000000E+00 0.  1.
         22    1    1    2    0    0 -0.11516904438E+04  0.14845462874E+04  0.43396737095E+03  0.19283662092E+04  0.00000000000E+00 0.  1.
<mgrwt>
<rscale>  0 0.40063439E+04</rscale>
<asrwt>0</asrwt>
<pdfrwt beam="1">  1        1 0.35121217E+00 0.40063439E+04</pdfrwt>
<pdfrwt beam="2">  1       -1 0.27042086E+00 0.40063439E+04</pdfrwt>
<totfact> 0.76803439E-02</totfact>
</mgrwt>
</event>
<event>
 6    1  0.9906445E-006  0.5350085E+04  0.7818608E-02  0.7776661E-01
         -2   -1    0    0    0  501 -0.00000000000E+00  0.00000000000E+00  0.30774268802E+04  0.30774268802E+04  0.00000000000E+00 0.  1.
          2   -1    0    0  501    0  0.00000000000E+00 -0.00000000000E+00 -0.23252715801E+04  0.23252715801E+04  0.00000000000E+00 0. -1.
         23    2    1    2    0    0  0.37738461866E+03  0.20608364715E+04  0.20545881531E+04  0.29357575512E+04  0.88734479804E+02 0.  0.
         11    1    3    3    0    0  0.21543502972E+03  0.13062428034E+04  0.12474063288E+04  0.18189846241E+04  0.00000000000E+00 0. -1.
        -11    1    3    3    0    0  0.16194958894E+03  0.75459366809E+03  0.80718182433E+03  0.11167729271E+04  0.00000000000E+00 0.  1.
         22    1    1    2    0    0 -0.37738461866E+03 -0.20608364715E+04 -0.13024328530E+04  0.24669409092E+04  0.00000000000E+00 0. -1.
<mgrwt>
<rscale>  0 0.53500853E+04</rscale>
<asrwt>0</asrwt>
<pdfrwt beam="1">  1        2 0.35773409E+00 0.53500853E+04</pdfrwt>
<pdfrwt beam="2">  1       -2 0.47345029E+00 0.53500853E+04</pdfrwt>
<totfact> 0.76054481E-03</totfact>
</mgrwt>
</event>
<event>
 6    1  0.9906445E-006  0.1974515E+04  0.7818608E-02  0.8618629E-01
         -2   -1    0    0    0  501 -0.00000000000E+00  0.00000000000E+00  0.54159490513E+03  0.54159490513E+03  0.00000000000E+00 0.  1.
          2   -1    0    0  501    0  0.00000000000E+00 -0.00000000000E+00 -0.17996430748E+04  0.17996430748E+04  0.00000000000E+00 0. -1.
         23    2    1    2    0    0  0.76328516272E+03 -0.50772827360E+03 -0.10566369119E+04  0.14026439600E+04  0.10264636208E+03 0.  0.
         11    1    3    3    0    0  0.21591110693E+03 -0.12432867555E+03 -0.35464009543E+03  0.43341068624E+03  0.00000000000E+00 0. -1.
        -11    1    3    3    0    0  0.54737405580E+03 -0.38339959804E+03 -0.70199681644E+03  0.96923327379E+03  0.00000000000E+00 0.  1.
         22    1    1    2    0    0 -0.76328516272E+03  0.50772827360E+03 -0.20141125781E+03  0.93859401991E+03  0.00000000000E+00 0.  1.
<mgrwt>
<rscale>  0 0.19745152E+04</rscale>
<asrwt>0</asrwt>
<pdfrwt beam="1">  1        2 0.27686817E+00 0.19745152E+04</pdfrwt>
<pdfrwt beam="2">  1       -2 0.83322293E-01 0.19745152E+04</pdfrwt>
<totfact> 0.10132203E+01</totfact>
</mgrwt>
</event>
<event>
 6    1  0.9906445E-006  0.4349802E+04  0.7818608E-02  0.7937473E-01
         -2   -1    0    0    0  501 -0.00000000000E+00  0.00000000000E+00  0.95569001419E+03  0.95569001419E+03  0.00000000000E+00 0.  1.
          2   -1    0    0  501    0  0.00000000000E+00 -0.00000000000E+00 -0.49495059679E+04  0.49495059679E+04  0.00000000000E+00 0. -1.
         23    2    1    2    0    0 -0.12594130275E+04 -0.11008232273E+03 -0.43987552282E+04  0.45777114784E+04  0.90307978014E+02 0.  0.
         11    1    3    3    0    0 -0.37053766617E+03 -0.14776113506E+02 -0.11591282761E+04  0.12170024059E+04  0.00000000000E+00 0.  1.
        -11    1    3    3    0    0 -0.88887536134E+03 -0.95306209228E+02 -0.32396269521E+04  0.33607090725E+04  0.00000000000E+00 0. -1.
         22    1    1    2    0    0  0.12594130275E+04  0.11008232273E+03  0.40493927440E+03  0.13274845037E+04  0.00000000000E+00 0.  1.
<mgrwt>
<rscale>  0 0.43498016E+04</rscale>
<asrwt>0</asrwt>
<pdfrwt beam="1">  1        2 0.76146246E+00 0.43498016E+04</pdfrwt>
<pdfrwt beam="2">  1       -2 0.14702923E+00 0.43498016E+04</pdfrwt>
<totfact> 0.94868694E-03</totfact>
</mgrwt>
</event>
<event>
 6    1  0.9906445E-006  0.3125029E+04  0.7818608E-02  0.8208902E-01
          1   -1    0    0  501    0  0.00000000000E+00  0.00000000000E+00  0.21875042963E+04  0.21875042963E+04  0.00000000000E+00 0.  1.
         -1   -1    0    0    0  501 -0.00000000000E+00 -0.00000000000E+00 -0.11160899363E+04  0.11160899363E+04  0.00000000000E+00 0. -1.
         23    2    1    2    0    0  0.11180979944E+04  0.58705150111E+03  0.15064664459E+04  0.19679135420E+04  0.92032418034E+02 0.  0.
         11    1    3    3    0    0  0.44672269556E+03  0.22732315694E+03  0.66798303505E+03  0.83512772647E+03  0.00000000000E+00 0.  1.
        -11    1    3    3    0    0  0.67137529889E+03  0.35972834418E+03  0.83848341082E+03  0.11327858155E+04  0.00000000000E+00 0. -1.
         22    1    1    2    0    0 -0.11180979944E+04 -0.58705150111E+03 -0.43505208588E+03  0.13356806907E+04  0.00000000000E+00 0. -1.
<mgrwt>
<rscale>  0 0.31250290E+04</rscale>
<asrwt>0</asrwt>
<pdfrwt beam="1">  1        1 0.33653912E+00 0.31250290E+04</pdfrwt>
<pdfrwt beam="2">  1       -1 0.17170614E+00 0.31250290E+04</pdfrwt>
<totfact> 0.44719255E-01</totfact>
</mgrwt>
</event>
<event>
 6    1  0.9906445E-006  0.1112049E+04  0.7818608E-02  0.9193527E-01
         -2   -1    0    0    0  501 -0.00000000000E+00  0.00000000000E+00  0.62559671625E+03  0.62559671625E+03  0.00000000000E+00 0.  1.
          2   -1    0    0  501    0  0.00000000000E+00 -0.00000000000E+00 -0.49418914224E+03  0.49418914224E+03  0.00000000000E+00 0. -1.
         23    2    1    2    0    0  0.84162166350E+02 -0.42045647058E+03  0.41667541330E+03  0.60476677725E+03  0.90871012533E+02 0.  0.
         11    1    3    3    0    0  0.59253380600E+02 -0.96440221155E+02  0.10057951467E+03  0.15141967554E+03  0.00000000000E+00 0.  1.
        -11    1    3    3    0    0  0.24908785750E+02 -0.32401624943E+03  0.31609589863E+03  0.45334710171E+03  0.00000000000E+00 0. -1.
         22    1    1    2    0    0 -0.84162166350E+02  0.42045647058E+03 -0.28526783929E+03  0.51501908124E+03  0.00000000000E+00 0. -1.
<mgrwt>
<rscale>  0 0.11120487E+04</rscale>
<asrwt>0</asrwt>
<pdfrwt beam="1">  1        2 0.76029098E-01 0.11120487E+04</pdfrwt>
<pdfrwt beam="2">  1       -2 0.96245649E-01 0.11120487E+04</pdfrwt>
<totfact> 0.56006767E+01</totfact>
</mgrwt>
</event>
<event>
 6    1  0.9906445E-006  0.1195949E+04  0.7818608E-02  0.9116410E-01
          1   -1    0    0  501    0  0.00000000000E+00  0.00000000000E+00  0.28052127420E+04  0.28052127420E+04  0.00000000000E+00 0. -1.
         -1   -1    0    0    0  501 -0.00000000000E+00 -0.00000000000E+00 -0.12746751177E+03  0.12746751177E+03  0.00000000000E+00 0.  1.
         23    2    1    2    0    0 -0.58290350487E+03  0.51821123895E+02  0.16056899733E+04  0.17113021801E+04  0.88616795633E+02 0.  0.
         11    1    3    3    0    0 -0.20938680001E+03 -0.23662254953E+02  0.55776777174E+03  0.59624459873E+03  0.00000000000E+00 0.  1.
        -11    1    3    3    0    0 -0.37351670485E+03  0.75483378848E+02  0.10479222015E+04  0.11150575813E+04  0.00000000000E+00 0. -1.
         22    1    1    2    0    0  0.58290350487E+03 -0.51821123895E+02  0.10720552570E+04  0.12213780737E+04  0.00000000000E+00 0.  1.
<mgrwt>
<rscale>  0 0.11959490E+04</rscale>
<asrwt>0</asrwt>
<pdfrwt beam="1">  1        1 0.43157115E+00 0.11959490E+04</pdfrwt>
<pdfrwt beam="2">  1       -1 0.19610389E-01 0.11959490E+04</pdfrwt>
<totfact> 0.17472873E+01</totfact>
</mgrwt>
</event>
<event>
 6    1  0.9906445E-006  0.1535250E+04  0.7818608E-02  0.8861345E-01
          2   -1    0    0  501    0  0.00000000000E+00  0.00000000000E+00  0.30794543230E+04  0.30794543230E+04  0.00000000000E+00 0. -1.
         -2   -1    0    0    0  501 -0.00000000000E+00 -0.00000000000E+00 -0.19134819655E+03  0.19134819655E+03  0.00000000000E+00 0.  1.
         23    2    1    2    0    0 -0.39411559790E+03 -0.57424348074E+03  0.77453958733E+03  0.10454382359E+04  0.89145123611E+02 0.  0.
         13    1    3    3    0    0 -0.23066595347E+03 -0.29609594644E+03  0.35921991549E+03  0.51953685074E+03  0.00000000000E+00 0. -1.
        -13    1    3    3    0    0 -0.16344964443E+03 -0.27814753430E+03  0.41531967184E+03  0.52590138517E+03  0.00000000000E+00 0.  1.
         22    1    1    2    0    0  0.39411559790E+03  0.57424348074E+03  0.21135665391E+04  0.22253642836E+04  0.00000000000E+00 0. -1.
<mgrwt>
<rscale>  0 0.15352499E+04</rscale>
<asrwt>0</asrwt>
<pdfrwt beam="1">  1        2 0.47376217E+00 0.15352499E+04</pdfrwt>
<pdfrwt beam="2">  1       -2 0.29438186E-01 0.15352499E+04</pdfrwt>
<totfact> 0.15998839E+01</totfact>
</mgrwt>
</event>
<event>
 6    1  0.9906445E-006  0.9811125E+03  0.7818608E-02  0.9329506E-01
          2   -1    0    0  501    0  0.00000000000E+00  0.00000000000E+00  0.46188093621E+03  0.46188093621E+03  0.00000000000E+00 0.  1.
         -2   -1    0    0    0  501 -0.00000000000E+00 -0.00000000000E+00 -0.52101180073E+03  0.52101180073E+03  0.00000000000E+00 0. -1.
         23    2    1    2    0    0  0.11005128886E+03 -0.33350320909E+03 -0.36734425698E+03  0.51563352413E+03  0.87180567885E+02 0.  0.
         11    1    3    3    0    0  0.66385465858E+02 -0.15958595809E+03 -0.23973870312E+03  0.29554924103E+03  0.00000000000E+00 0.  1.
        -11    1    3    3    0    0  0.43665823000E+02 -0.17391725100E+03 -0.12760555387E+03  0.22008428311E+03  0.00000000000E+00 0. -1.
         22    1    1    2    0    0 -0.11005128886E+03  0.33350320909E+03  0.30821339247E+03  0.46725921281E+03  0.00000000000E+00 0.  1.
<mgrwt>
<rscale>  0 0.98111247E+03</rscale>
<asrwt>0</asrwt>
<pdfrwt beam="1">  1        2 0.71058605E-01 0.98111247E+03</pdfrwt>
<pdfrwt beam="2">  1       -2 0.80155662E-01 0.98111247E+03</pdfrwt>
<totfact> 0.92905411E+01</totfact>
</mgrwt>
</event>
<event>
 6    1  0.9906445E-006  0.2142225E+04  0.7818608E-02  0.8542868E-01
          2   -1    0    0  501    0  0.00000000000E+00  0.00000000000E+00  0.10969041075E+04  0.10969041075E+04  0.00000000000E+00 0. -1.
         -2   -1    0    0    0  501 -0.00000000000E+00 -0.00000000000E+00 -0.10459268873E+04  0.10459268873E+04  0.00000000000E+00 0.  1.
         23    2    1    2    0    0  0.94255057488E+03  0.49592019511E+03 -0.73795399517E+02  0.10704939990E+04  0.78569808276E+02 0.  0.
         13    1    3    3    0    0  0.18586121818E+03  0.94454713387E+02 -0.45723011585E+02  0.21344010657E+03  0.00000000000E+00 0.  1.
        -13    1    3    3    0    0  0.75668935670E+03  0.40146548172E+03 -0.28072387932E+02  0.85705389242E+03  0.00000000000E+00 0. -1.
         22    1    1    2    0    0 -0.94255057488E+03 -0.49592019511E+03  0.12477261970E+03  0.10723369959E+04  0.00000000000E+00 0. -1.
<mgrwt>
<rscale>  0 0.21422245E+04</rscale>
<asrwt>0</asrwt>
<pdfrwt beam="1">  1        2 0.16875448E+00 0.21422245E+04</pdfrwt>
<pdfrwt beam="2">  1       -2 0.16091183E+00 0.21422245E+04</pdfrwt>
<totfact> 0.49840115E+00</totfact>
</mgrwt>
</event>
<event>
 6    1  0.9906445E-006  0.1965148E+04  0.7818608E-02  0.8623091E-01
          2   -1    0    0  501    0  0.00000000000E+00  0.00000000000E+00  0.14596492297E+04  0.14596492297E+04  0.00000000000E+00 0. -1.
         -2   -1    0    0    0  501 -0.00000000000E+00 -0.00000000000E+00 -0.66142707020E+03  0.66142707020E+03  0.00000000000E+00 0.  1.
         23    2    1    2    0    0  0.73436911742E+03 -0.60864616444E+03  0.15498660482E+03  0.97064154170E+03  0.91520493333E+02 0.  0.
         13    1    3    3    0    0  0.26612940351E+03 -0.27543300589E+03  0.77195872575E+02  0.39070116828E+03  0.00000000000E+00 0. -1.
        -13    1    3    3    0    0  0.46823971390E+03 -0.33321315854E+03  0.77790732240E+02  0.57994037342E+03  0.00000000000E+00 0.  1.
         22    1    1    2    0    0 -0.73436911742E+03  0.60864616444E+03  0.64323555474E+03  0.11504347582E+04  0.00000000000E+00 0. -1.
<mgrwt>
<rscale>  0 0.19651478E+04</rscale>
<asrwt>0</asrwt>
<pdfrwt beam="1">  1        2 0.22456142E+00 0.19651478E+04</pdfrwt>
<pdfrwt beam="2">  1       -2 0.10175801E+00 0.19651478E+04</pdfrwt>
<totfact> 0.98795222E+00</totfact>
</mgrwt>
</event>
<event>
 6    1  0.9906445E-006  0.3209628E+04  0.7818608E-02  0.8186279E-01
          2   -1    0    0  501    0  0.00000000000E+00  0.00000000000E+00  0.27617105762E+04  0.27617105762E+04  0.00000000000E+00 0.  1.
         -2   -1    0    0    0  501 -0.00000000000E+00 -0.00000000000E+00 -0.93254825227E+03  0.93254825227E+03  0.00000000000E+00 0. -1.
         23    2    1    2    0    0 -0.78815976463E+03 -0.28290920278E+03 -0.65854473479E+03  0.10693931478E+04  0.93204641589E+02 0.  0.
         11    1    3    3    0    0 -0.40366799799E+03 -0.17988236893E+03 -0.30462732407E+03  0.53675257412E+03  0.00000000000E+00 0. -1.
        -11    1    3    3    0    0 -0.38449176665E+03 -0.10302683385E+03 -0.35391741072E+03  0.53264057367E+03  0.00000000000E+00 0.  1.
         22    1    1    2    0    0  0.78815976463E+03  0.28290920278E+03  0.24877070587E+04  0.26248656807E+04  0.00000000000E+00 0.  1.
<mgrwt>
<rscale>  0 0.32096282E+04</rscale>
<asrwt>0</asrwt>
<pdfrwt beam="1">  1        2 0.42487855E+00 0.32096282E+04</pdfrwt>
<pdfrwt beam="2">  1       -2 0.14346896E+00 0.32096282E+04</pdfrwt>
<totfact> 0.69108270E-01</totfact>
</mgrwt>
</event>
<event>
 6    1  0.9906445E-006  0.1680591E+04  0.7818608E-02  0.8772512E-01
         -1   -1    0    0    0  501 -0.00000000000E+00  0.00000000000E+00  0.54713470416E+03  0.54713470416E+03  0.00000000000E+00 0.  1.
          1   -1    0    0  501    0  0.00000000000E+00 -0.00000000000E+00 -0.12905354434E+04  0.12905354434E+04  0.00000000000E+00 0. -1.
         23    2    1    2    0    0  0.19381312068E+03  0.51073727007E+03  0.32175421671E+03  0.64060241139E+03  0.91812791688E+02 0.  0.
         11    1    3    3    0    0  0.10564451180E+03  0.38574798488E+03  0.21503563724E+03  0.45409536003E+03  0.00000000000E+00 0. -1.
        -11    1    3    3    0    0  0.88168608875E+02  0.12498928519E+03  0.10671857947E+03  0.18650705136E+03  0.00000000000E+00 0.  1.
         22    1    1    2    0    0 -0.19381312068E+03 -0.51073727007E+03 -0.10651549559E+04  0.11970677361E+04  0.00000000000E+00 0. -1.
<mgrwt>
<rscale>  0 0.16805912E+04</rscale>
<asrwt>0</asrwt>
<pdfrwt beam="1">  1        1 0.19854391E+00 0.16805912E+04</pdfrwt>
<pdfrwt beam="2">  1       -1 0.84174572E-01 0.16805912E+04</pdfrwt>
<totfact> 0.12246952E+01</totfact>
</mgrwt>
</event>
<event>
 6    1  0.1009693E-005  0.3487625E+04  0.7818608E-02  0.8116729E-01
         -1   -1    0    0    0  501 -0.00000000000E+00  0.00000000000E+00  0.16004348929E+04  0.16004348929E+04  0.00000000000E+00 0.  1.
          1   -1    0    0  501    0  0.00000000000E+00 -0.00000000000E+00 -0.19000344937E+04  0.19000344937E+04  0.00000000000E+00 0. -1.
         23    2    1    2    0    0 -0.13065726162E+03  0.83029528019E+03  0.13825631385E+04  0.16200085245E+04  0.80530834748E+02 0.  0.
         11    1    3    3    0    0 -0.81256187492E+02  0.27708998652E+03  0.45643954249E+03  0.54010969681E+03  0.00000000000E+00 0.  1.
        -11    1    3    3    0    0 -0.49401074126E+02  0.55320529368E+03  0.92612359598E+03  0.10798988277E+04  0.00000000000E+00 0. -1.
         22    1    1    2    0    0  0.13065726162E+03 -0.83029528019E+03 -0.16821627393E+04  0.18804608621E+04  0.00000000000E+00 0. -1.
<mgrwt>
<rscale>  0 0.34876247E+04</rscale>
<asrwt>0</asrwt>
<pdfrwt beam="1">  1        1 0.29231300E+00 0.34876247E+04</pdfrwt>
<pdfrwt beam="2">  1       -1 0.24622075E+00 0.34876247E+04</pdfrwt>
<totfact> 0.21000565E-01</totfact>
</mgrwt>
</event>
<event>
 6    1  0.9906445E-006  0.3820083E+03  0.7818608E-02  0.1050194E+00
          2   -1    0    0  501    0  0.00000000000E+00  0.00000000000E+00  0.30222155985E+03  0.30222155985E+03  0.00000000000E+00 0. -1.
         -2   -1    0    0    0  501 -0.00000000000E+00 -0.00000000000E+00 -0.12071471813E+03  0.12071471813E+03  0.00000000000E+00 0.  1.
         23    2    1    2    0    0  0.24427888436E+02  0.82824717924E+02 -0.88576878542E+02  0.13938404014E+03  0.64229211420E+02 0.  0.
         11    1    3    3    0    0  0.37170968700E+02  0.63542256095E+02 -0.35990966994E+02  0.81942961436E+02  0.00000000000E+00 0. -1.
        -11    1    3    3    0    0 -0.12743080265E+02  0.19282461829E+02 -0.52585911548E+02  0.57441078700E+02  0.00000000000E+00 0.  1.
         22    1    1    2    0    0 -0.24427888436E+02 -0.82824717924E+02  0.27008372027E+03  0.28355223785E+03  0.00000000000E+00 0. -1.
<mgrwt>
<rscale>  0 0.38200833E+03</rscale>
<asrwt>0</asrwt>
<pdfrwt beam="1">  1        2 0.46495624E-01 0.38200833E+03</pdfrwt>
<pdfrwt beam="2">  1       -2 0.18571495E-01 0.38200833E+03</pdfrwt>
<totfact> 0.26039869E+03</totfact>
</mgrwt>
</event>
<event>
 6    1  0.9906445E-006  0.3121956E+04  0.7818608E-02  0.8209738E-01
         -2   -1    0    0    0  501 -0.00000000000E+00  0.00000000000E+00  0.14222983971E+04  0.14222983971E+04  0.00000000000E+00 0.  1.
          2   -1    0    0  501    0  0.00000000000E+00 -0.00000000000E+00 -0.17131789559E+04  0.17131789559E+04  0.00000000000E+00 0. -1.
         23    2    1    2    0    0  0.40666380334E+02 -0.53010265516E+03 -0.16181662852E+04  0.17056696809E+04  0.90467420917E+02 0.  0.
         13    1    3    3    0    0  0.47058022669E+01 -0.20382834607E+03 -0.75984650259E+03  0.78672412365E+03  0.00000000000E+00 0.  1.
        -13    1    3    3    0    0  0.35960578067E+02 -0.32627430909E+03 -0.85831978265E+03  0.91894555728E+03  0.00000000000E+00 0. -1.
         22    1    1    2    0    0 -0.40666380334E+02  0.53010265516E+03  0.13272857264E+04  0.14298076721E+04  0.00000000000E+00 0.  1.
<mgrwt>
<rscale>  0 0.31219556E+04</rscale>
<asrwt>0</asrwt>
<pdfrwt beam="1">  1        2 0.26356599E+00 0.31219556E+04</pdfrwt>
<pdfrwt beam="2">  1       -2 0.21881514E+00 0.31219556E+04</pdfrwt>
<totfact> 0.82186038E-01</totfact>
</mgrwt>
</event>
<event>
 6    1  0.9906445E-006  0.2259956E+04  0.7818608E-02  0.8493879E-01
         -1   -1    0    0    0  501 -0.00000000000E+00  0.00000000000E+00  0.78609746605E+03  0.78609746605E+03  0.00000000000E+00 0.  1.
          1   -1    0    0  501    0  0.00000000000E+00 -0.00000000000E+00 -0.16242905174E+04  0.16242905174E+04  0.00000000000E+00 0. -1.
         23    2    1    2    0    0 -0.55943591475E+03  0.47651595159E+03  0.49320223323E+03  0.88964822971E+03  0.90496049304E+02 0.  0.
         11    1    3    3    0    0 -0.15597772912E+03  0.13124010152E+03  0.89697998084E+02  0.22270776162E+03  0.00000000000E+00 0.  1.
        -11    1    3    3    0    0 -0.40345818563E+03  0.34527585007E+03  0.40350423514E+03  0.66694046809E+03  0.00000000000E+00 0. -1.
         22    1    1    2    0    0  0.55943591475E+03 -0.47651595159E+03 -0.13313952846E+04  0.15207397538E+04  0.00000000000E+00 0. -1.
<mgrwt>
<rscale>  0 0.22599563E+04</rscale>
<asrwt>0</asrwt>
<pdfrwt beam="1">  1        1 0.24989085E+00 0.22599563E+04</pdfrwt>
<pdfrwt beam="2">  1       -1 0.12093807E+00 0.22599563E+04</pdfrwt>
<totfact> 0.29579654E+00</totfact>
</mgrwt>
</event>
<event>
 6    1  0.9906445E-006  0.3472050E+04  0.7818608E-02  0.8120446E-01
         -2   -1    0    0    0  501 -0.00000000000E+00  0.00000000000E+00  0.10825049356E+04  0.10825049356E+04  0.00000000000E+00 0.  1.
          2   -1    0    0  501    0  0.00000000000E+00 -0.00000000000E+00 -0.27840827539E+04  0.27840827539E+04  0.00000000000E+00 0. -1.
         23    2    1    2    0    0 -0.72365984648E+03  0.43713281600E+02 -0.26066209786E+04  0.27069767434E+04  0.87497078437E+02 0.  0.
         13    1    3    3    0    0 -0.54645004987E+03  0.57084114824E+01 -0.20502280335E+04  0.21218094241E+04  0.00000000000E+00 0. -1.
        -13    1    3    3    0    0 -0.17720979661E+03  0.38004870118E+02 -0.55639294515E+03  0.58516731930E+03  0.00000000000E+00 0.  1.
         22    1    1    2    0    0  0.72365984648E+03 -0.43713281600E+02  0.90504316032E+03  0.11596109462E+04  0.00000000000E+00 0.  1.
<mgrwt>
<rscale>  0 0.34720503E+04</rscale>
<asrwt>0</asrwt>
<pdfrwt beam="1">  1        2 0.42832042E+00 0.34720503E+04</pdfrwt>
<pdfrwt beam="2">  1       -2 0.16653922E+00 0.34720503E+04</pdfrwt>
<totfact> 0.43921095E-01</totfact>
</mgrwt>
</event>
<event>
 6    1  0.9906445E-006  0.1676257E+04  0.7818608E-02  0.8775023E-01
         -1   -1    0    0    0  501 -0.00000000000E+00  0.00000000000E+00  0.36387764416E+03  0.36387764416E+03  0.00000000000E+00 0.  1.
          1   -1    0    0  501    0  0.00000000000E+00 -0.00000000000E+00 -0.19304816413E+04  0.19304816413E+04  0.00000000000E+00 0. -1.
         23    2    1    2    0    0 -0.48836182587E+03  0.28505286289E+03  0.56773794590E+02  0.57531656863E+03  0.89518058407E+02 0.  0.
         13    1    3    3    0    0 -0.28671229195E+03  0.12341750201E+03  0.75661669867E+01  0.31223879490E+03  0.00000000000E+00 0. -1.
        -13    1    3    3    0    0 -0.20164953392E+03  0.16163536088E+03  0.49207627604E+02  0.26307777373E+03  0.00000000000E+00 0.  1.
         22    1    1    2    0    0  0.48836182587E+03 -0.28505286289E+03 -0.16233777918E+04  0.17190427169E+04  0.00000000000E+00 0. -1.
<mgrwt>
<rscale>  0 0.16762567E+04</rscale>
<asrwt>0</asrwt>
<pdfrwt beam="1">  1        1 0.29699717E+00 0.16762567E+04</pdfrwt>
<pdfrwt beam="2">  1       -1 0.55981177E-01 0.16762567E+04</pdfrwt>
<totfact> 0.10226890E+01</totfact>
</mgrwt>
</event>
<event>
 6    1  0.9906445E-006  0.2486304E+04  0.7818608E-02  0.8407881E-01
          1   -1    0    0  501    0  0.00000000000E+00  0.00000000000E+00  0.97225157307E+03  0.97225157307E+03  0.00000000000E+00 0. -1.
         -1   -1    0    0    0  501 -0.00000000000E+00 -0.00000000000E+00 -0.15895343715E+04  0.15895343715E+04  0.00000000000E+00 0.  1.
         23    2    1    2    0    0  0.43215664183E+03  0.16235981187E+03  0.87840233230E+03  0.99647636437E+03  0.90853815440E+02 0.  0.
         11    1    3    3    0    0  0.33340858197E+03  0.14871878672E+03  0.61980936033E+03  0.71933455582E+03  0.00000000000E+00 0.  1.
        -11    1    3    3    0    0  0.98748059865E+02  0.13641025153E+02  0.25859297197E+03  0.27714180855E+03  0.00000000000E+00 0. -1.
         22    1    1    2    0    0 -0.43215664183E+03 -0.16235981187E+03 -0.14956851308E+04  0.15653095802E+04  0.00000000000E+00 0.  1.
<mgrwt>
<rscale>  0 0.24863043E+04</rscale>
<asrwt>0</asrwt>
<pdfrwt beam="1">  1        1 0.14957717E+00 0.24863043E+04</pdfrwt>
<pdfrwt beam="2">  1       -1 0.24454375E+00 0.24863043E+04</pdfrwt>
<totfact> 0.10712369E+00</totfact>
</mgrwt>
</event>
<event>
 6    1  0.9906445E-006  0.1410248E+04  0.7818608E-02  0.8946434E-01
          2   -1    0    0  501    0  0.00000000000E+00  0.00000000000E+00  0.97124845624E+03  0.97124845624E+03  0.00000000000E+00 0.  1.
         -2   -1    0    0    0  501 -0.00000000000E+00 -0.00000000000E+00 -0.51191849172E+03  0.51191849172E+03  0.00000000000E+00 0. -1.
         23    2    1    2    0    0 -0.31732943770E+03  0.38224895488E+03  0.75381368610E+03  0.90564387672E+03  0.71718355635E+02 0.  0.
         11    1    3    3    0    0 -0.18873659580E+03  0.24128798699E+03  0.40195042772E+03  0.50537663342E+03  0.00000000000E+00 0.  1.
        -11    1    3    3    0    0 -0.12859284190E+03  0.14096096789E+03  0.35186325839E+03  0.40026724330E+03  0.00000000000E+00 0. -1.
         22    1    1    2    0    0  0.31732943770E+03 -0.38224895488E+03 -0.29448372158E+03  0.57752307124E+03  0.00000000000E+00 0. -1.
<mgrwt>
<rscale>  0 0.14102483E+04</rscale>
<asrwt>0</asrwt>
<pdfrwt beam="1">  1        2 0.14942284E+00 0.14102483E+04</pdfrwt>
<pdfrwt beam="2">  1       -2 0.78756691E-01 0.14102483E+04</pdfrwt>
<totfact> 0.36624384E+01</totfact>
</mgrwt>
</event>
<event>
 6    1  0.9906445E-006  0.2014388E+04  0.7818608E-02  0.8599923E-01
          1   -1    0    0  501    0  0.00000000000E+00  0.00000000000E+00  0.18987480274E+04  0.18987480274E+04  0.00000000000E+00 0. -1.
         -1   -1    0    0    0  501 -0.00000000000E+00 -0.00000000000E+00 -0.53426785424E+03  0.53426785424E+03  0.00000000000E+00 0.  1.
         23    2    1    2    0    0 -0.90410303833E+02 -0.73324226226E+03  0.15068511479E+04  0.16806278616E+04  0.89952148386E+02 0.  0.
         11    1    3    3    0    0 -0.53105378715E+02 -0.40835294772E+03  0.73789877610E+03  0.84502480136E+03  0.00000000000E+00 0. -1.
        -11    1    3    3    0    0 -0.37304925118E+02 -0.32488931454E+03  0.76895237184E+03  0.83560306025E+03  0.00000000000E+00 0.  1.
         22    1    1    2    0    0  0.90410303833E+02  0.73324226226E+03 -0.14237097478E+03  0.75238802001E+03  0.00000000000E+00 0.  1.
<mgrwt>
<rscale>  0 0.20143883E+04</rscale>
<asrwt>0</asrwt>
<pdfrwt beam="1">  1        1 0.29211508E+00 0.20143883E+04</pdfrwt>
<pdfrwt beam="2">  1       -1 0.82195056E-01 0.20143883E+04</pdfrwt>
<totfact> 0.47606201E+00</totfact>
</mgrwt>
</event>
<event>
 6    1  0.9906445E-006  0.3601134E+04  0.7818608E-02  0.8090232E-01
         -1   -1    0    0    0  501 -0.00000000000E+00  0.00000000000E+00  0.16521384876E+04  0.16521384876E+04  0.00000000000E+00 0.  1.
          1   -1    0    0  501    0  0.00000000000E+00 -0.00000000000E+00 -0.19623308234E+04  0.19623308234E+04  0.00000000000E+00 0. -1.
         23    2    1    2    0    0  0.83201180284E+02 -0.49103561982E+03 -0.18907106007E+04  0.19573403473E+04  0.91412488874E+02 0.  0.
         11    1    3    3    0    0  0.31426903645E+02 -0.89757562645E+02 -0.24998846196E+03  0.26746644918E+03  0.00000000000E+00 0. -1.
        -11    1    3    3    0    0  0.51774276639E+02 -0.40127805718E+03 -0.16407221388E+04  0.16898738981E+04  0.00000000000E+00 0.  1.
         22    1    1    2    0    0 -0.83201180284E+02  0.49103561982E+03  0.15805182650E+04  0.16571289637E+04  0.00000000000E+00 0.  1.
<mgrwt>
<rscale>  0 0.36011344E+04</rscale>
<asrwt>0</asrwt>
<pdfrwt beam="1">  1        1 0.30189705E+00 0.36011344E+04</pdfrwt>
<pdfrwt beam="2">  1       -1 0.25417515E+00 0.36011344E+04</pdfrwt>
<totfact> 0.16743234E-01</totfact>
</mgrwt>
</event>
<event>
 6    1  0.9906445E-006  0.2800163E+04  0.7818608E-02  0.8303218E-01
          1   -1    0    0  501    0  0.00000000000E+00  0.00000000000E+00  0.15220112459E+04  0.15220112459E+04  0.00000000000E+00 0. -1.
         -1   -1    0    0    0  501 -0.00000000000E+00 -0.00000000000E+00 -0.12879196464E+04  0.12879196464E+04  0.00000000000E+00 0.  1.
         23    2    1    2    0    0  0.11429881962E+04 -0.23417371060E+03  0.89147683151E+03  0.14707465560E+04  0.84292037168E+02 0.  0.
         13    1    3    3    0    0  0.54708874337E+03 -0.14981750791E+03  0.40714801557E+03  0.69822695836E+03  0.00000000000E+00 0.  1.
        -13    1    3    3    0    0  0.59589945284E+03 -0.84356202693E+02  0.48432881594E+03  0.77251959766E+03  0.00000000000E+00 0. -1.
         22    1    1    2    0    0 -0.11429881962E+04  0.23417371060E+03 -0.65738523195E+03  0.13391843363E+04  0.00000000000E+00 0.  1.
<mgrwt>
<rscale>  0 0.28001630E+04</rscale>
<asrwt>0</asrwt>
<pdfrwt beam="1">  1        1 0.23415558E+00 0.28001630E+04</pdfrwt>
<pdfrwt beam="2">  1       -1 0.19814148E+00 0.28001630E+04</pdfrwt>
<totfact> 0.84767937E-01</totfact>
</mgrwt>
</event>
<event>
 6    1  0.9906445E-006  0.1686275E+04  0.7818608E-02  0.8769231E-01
         -1   -1    0    0    0  501 -0.00000000000E+00  0.00000000000E+00  0.41236497846E+03  0.41236497846E+03  0.00000000000E+00 0.  1.
          1   -1    0    0  501    0  0.00000000000E+00 -0.00000000000E+00 -0.17239122247E+04  0.17239122247E+04  0.00000000000E+00 0. -1.
         23    2    1    2    0    0  0.77962754841E+03  0.19513146388E+03 -0.96704115495E+03  0.12618746361E+04  0.10613010582E+03 0.  0.
         13    1    3    3    0    0  0.65607355634E+03  0.17087086948E+03 -0.86967186493E+03  0.11027050911E+04  0.00000000000E+00 0. -1.
        -13    1    3    3    0    0  0.12355399207E+03  0.24260594396E+02 -0.97369290029E+02  0.15916954494E+03  0.00000000000E+00 0.  1.
         22    1    1    2    0    0 -0.77962754841E+03 -0.19513146388E+03 -0.34450609132E+03  0.87440256712E+03  0.00000000000E+00 0.  1.
<mgrwt>
<rscale>  0 0.16862752E+04</rscale>
<asrwt>0</asrwt>
<pdfrwt beam="1">  1        1 0.26521726E+00 0.16862752E+04</pdfrwt>
<pdfrwt beam="2">  1       -1 0.63440767E-01 0.16862752E+04</pdfrwt>
<totfact> 0.11020075E+01</totfact>
</mgrwt>
</event>
<event>
 6    1  0.9906445E-006  0.1988678E+04  0.7818608E-02  0.8611932E-01
         -2   -1    0    0    0  501 -0.00000000000E+00  0.00000000000E+00  0.39593676237E+03  0.39593676237E+03  0.00000000000E+00 0.  1.
          2   -1    0    0  501    0  0.00000000000E+00 -0.00000000000E+00 -0.24971422840E+04  0.24971422840E+04  0.00000000000E+00 0. -1.
         23    2    1    2    0    0 -0.98335299954E+03 -0.90482811155E+02 -0.91126903585E+03  0.13467546622E+04  0.90369263189E+02 0.  0.
         13    1    3    3    0    0 -0.85472894508E+03 -0.74169505883E+02 -0.74770303665E+03  0.11380344969E+04  0.00000000000E+00 0. -1.
        -13    1    3    3    0    0 -0.12862405446E+03 -0.16313305272E+02 -0.16356599920E+03  0.20872016532E+03  0.00000000000E+00 0.  1.
         22    1    1    2    0    0  0.98335299954E+03  0.90482811155E+02 -0.11899364858E+04  0.15463243842E+04  0.00000000000E+00 0.  1.
<mgrwt>
<rscale>  0 0.19886784E+04</rscale>
<asrwt>0</asrwt>
<pdfrwt beam="1">  1        2 0.38417574E+00 0.19886784E+04</pdfrwt>
<pdfrwt beam="2">  1       -2 0.60913347E-01 0.19886784E+04</pdfrwt>
<totfact> 0.81553869E+00</totfact>
</mgrwt>
</event>
<event>
 6    1  0.9906445E-006  0.6419241E+03  0.7818608E-02  0.9822052E-01
          1   -1    0    0  501    0  0.00000000000E+00  0.00000000000E+00  0.17202775524E+03  0.17202775524E+03  0.00000000000E+00 0. -1.
         -1   -1    0    0    0  501 -0.00000000000E+00 -0.00000000000E+00 -0.59883734878E+03  0.59883734878E+03  0.00000000000E+00 0.  1.
         23    2    1    2    0    0 -0.21366797816E+03 -0.10496383779E+03 -0.46482302599E+03  0.52979160241E+03  0.89147542632E+02 0.  0.
         11    1    3    3    0    0 -0.14857535815E+03 -0.73862867227E+02 -0.22638193326E+03  0.28067621899E+03  0.00000000000E+00 0. -1.
        -11    1    3    3    0    0 -0.65092620011E+02 -0.31100970567E+02 -0.23844109273E+03  0.24911538341E+03  0.00000000000E+00 0.  1.
         22    1    1    2    0    0  0.21366797816E+03  0.10496383779E+03  0.38013432444E+02  0.24107350161E+03  0.00000000000E+00 0. -1.
<mgrwt>
<rscale>  0 0.64192412E+03</rscale>
<asrwt>0</asrwt>
<pdfrwt beam="1">  1        1 0.26465808E-01 0.64192412E+03</pdfrwt>
<pdfrwt beam="2">  1       -1 0.92128823E-01 0.64192412E+03</pdfrwt>
<totfact> 0.21122222E+02</totfact>
</mgrwt>
</event>
<event>
 6    1  0.9906445E-006  0.7291523E+04  0.7818608E-02  0.7548096E-01
         -2   -1    0    0    0  501 -0.00000000000E+00  0.00000000000E+00  0.32626205692E+04  0.32626205692E+04  0.00000000000E+00 0.  1.
          2   -1    0    0  501    0  0.00000000000E+00 -0.00000000000E+00 -0.40738958981E+04  0.40738958981E+04  0.00000000000E+00 0. -1.
         23    2    1    2    0    0  0.63070211432E+03 -0.30777901334E+04  0.14541926212E+04  0.34631558727E+04  0.90527104343E+02 0.  0.
         13    1    3    3    0    0  0.43075125266E+03 -0.19354208737E+04  0.88650331389E+03  0.21719320260E+04  0.00000000000E+00 0. -1.
        -13    1    3    3    0    0  0.19995086166E+03 -0.11423692597E+04  0.56768930734E+03  0.12912238467E+04  0.00000000000E+00 0.  1.
         22    1    1    2    0    0 -0.63070211432E+03  0.30777901334E+04 -0.22654679502E+04  0.38733605945E+04  0.00000000000E+00 0.  1.
<mgrwt>
<rscale>  0 0.72915229E+04</rscale>
<asrwt>0</asrwt>
<pdfrwt beam="1">  1        2 0.62675321E+00 0.72915229E+04</pdfrwt>
<pdfrwt beam="2">  1       -2 0.50194163E+00 0.72915229E+04</pdfrwt>
<totfact> 0.29408106E-04</totfact>
</mgrwt>
</event>
<event>
 6    1  0.9906445E-006  0.1031279E+04  0.7818608E-02  0.9274889E-01
         -1   -1    0    0    0  501 -0.00000000000E+00  0.00000000000E+00  0.88293778002E+03  0.88293778002E+03  0.00000000000E+00 0.  1.
          1   -1    0    0  501    0  0.00000000000E+00 -0.00000000000E+00 -0.30113572909E+03  0.30113572909E+03  0.00000000000E+00 0. -1.
         23    2    1    2    0    0  0.14512351542E+03 -0.49056827119E+03  0.28223978024E+03  0.59123658596E+03  0.90461835066E+02 0.  0.
         11    1    3    3    0    0  0.11683369567E+03 -0.29594716683E+03  0.13533744400E+03  0.34576156777E+03  0.00000000000E+00 0.  1.
        -11    1    3    3    0    0  0.28289819750E+02 -0.19462110437E+03  0.14690233624E+03  0.24547501820E+03  0.00000000000E+00 0. -1.
         22    1    1    2    0    0 -0.14512351542E+03  0.49056827119E+03  0.29956227068E+03  0.59283692315E+03  0.00000000000E+00 0.  1.
<mgrwt>
<rscale>  0 0.10312790E+04</rscale>
<asrwt>0</asrwt>
<pdfrwt beam="1">  1        1 0.46328574E-01 0.10312790E+04</pdfrwt>
<pdfrwt beam="2">  1       -1 0.13583658E+00 0.10312790E+04</pdfrwt>
<totfact> 0.39594794E+01</totfact>
</mgrwt>
</event>
<event>
 6    1  0.1675515E-005  0.3487140E+04  0.7818608E-02  0.8116844E-01
          2   -1    0    0  501    0  0.00000000000E+00  0.00000000000E+00  0.15185624551E+04  0.15185624551E+04  0.00000000000E+00 0. -1.
         -2   -1    0    0    0  501 -0.00000000000E+00 -0.00000000000E+00 -0.20019172399E+04  0.20019172399E+04  0.00000000000E+00 0.  1.
         23    2    1    2    0    0 -0.64093903043E+03 -0.53341901213E+03 -0.17863788445E+04  0.19734792478E+04  0.90179167646E+02 0.  0.
         11    1    3    3    0    0 -0.46874548229E+03 -0.34622765777E+03 -0.11855076238E+04  0.13209936580E+04  0.00000000000E+00 0. -1.
        -11    1    3    3    0    0 -0.17219354815E+03 -0.18719135436E+03 -0.60087122068E+03  0.65248558989E+03  0.00000000000E+00 0.  1.
         22    1    1    2    0    0  0.64093903043E+03  0.53341901213E+03  0.13030240598E+04  0.15470004472E+04  0.00000000000E+00 0. -1.
<mgrwt>
<rscale>  0 0.34871400E+04</rscale>
<asrwt>0</asrwt>
<pdfrwt beam="1">  1        2 0.23362499E+00 0.34871400E+04</pdfrwt>
<pdfrwt beam="2">  1       -2 0.30798727E+00 0.34871400E+04</pdfrwt>
<totfact> 0.28935524E-01</totfact>
</mgrwt>
</event>
<event>
 6    1  0.9906445E-006  0.1715107E+04  0.7818608E-02  0.8752795E-01
          1   -1    0    0  501    0  0.00000000000E+00  0.00000000000E+00  0.12571511937E+04  0.12571511937E+04  0.00000000000E+00 0. -1.
         -1   -1    0    0    0  501 -0.00000000000E+00 -0.00000000000E+00 -0.58497168714E+03  0.58497168714E+03  0.00000000000E+00 0.  1.
         23    2    1    2    0    0  0.10254234505E+03  0.90029387448E+01  0.12488409392E+04  0.12563461372E+04  0.90586640963E+02 0.  0.
         11    1    3    3    0    0  0.15321652594E+02 -0.12455347840E+02  0.69407288974E+03  0.69435370310E+03  0.00000000000E+00 0. -1.
        -11    1    3    3    0    0  0.87220692453E+02  0.21458286585E+02  0.55476804950E+03  0.56199243412E+03  0.00000000000E+00 0.  1.
         22    1    1    2    0    0 -0.10254234505E+03 -0.90029387448E+01 -0.57666143268E+03  0.58577674363E+03  0.00000000000E+00 0.  1.
<mgrwt>
<rscale>  0 0.17151068E+04</rscale>
<asrwt>0</asrwt>
<pdfrwt beam="1">  1        1 0.19340788E+00 0.17151068E+04</pdfrwt>
<pdfrwt beam="2">  1       -1 0.89995644E-01 0.17151068E+04</pdfrwt>
<totfact> 0.11150098E+01</totfact>
</mgrwt>
</event>
<event>
 6    1  0.2577491E-005  0.4703203E+04  0.7818608E-02  0.7875997E-01
         -2   -1    0    0    0  501 -0.00000000000E+00  0.00000000000E+00  0.17577836159E+04  0.17577836159E+04  0.00000000000E+00 0.  1.
          2   -1    0    0  501    0  0.00000000000E+00 -0.00000000000E+00 -0.31460238160E+04  0.31460238160E+04  0.00000000000E+00 0. -1.
         23    2    1    2    0    0 -0.77492135387E+03  0.61179324466E+03  0.15299470950E+04  0.18231238766E+04  0.90821127552E+02 0.  0.
         11    1    3    3    0    0 -0.50242305179E+03  0.38305685498E+03  0.10548494701E+04  0.12295807748E+04  0.00000000000E+00 0. -1.
        -11    1    3    3    0    0 -0.27249830209E+03  0.22873638968E+03  0.47509762491E+03  0.59354310188E+03  0.00000000000E+00 0.  1.
         22    1    1    2    0    0  0.77492135387E+03 -0.61179324466E+03 -0.29181872951E+04  0.30806835553E+04  0.00000000000E+00 0. -1.
<mgrwt>
<rscale>  0 0.47032028E+04</rscale>
<asrwt>0</asrwt>
<pdfrwt beam="1">  1        2 0.48400366E+00 0.47032028E+04</pdfrwt>
<pdfrwt beam="2">  1       -2 0.27042825E+00 0.47032028E+04</pdfrwt>
<totfact> 0.50438154E-02</totfact>
</mgrwt>
</event>
<event>
 6    1  0.9906445E-006  0.1859181E+04  0.7818608E-02  0.8675446E-01
          2   -1    0    0  501    0  0.00000000000E+00  0.00000000000E+00  0.85971412723E+03  0.85971412723E+03  0.00000000000E+00 0. -1.
         -2   -1    0    0    0  501 -0.00000000000E+00 -0.00000000000E+00 -0.10051458467E+04  0.10051458467E+04  0.00000000000E+00 0.  1.
         23    2    1    2    0    0  0.67206419991E+03 -0.63159820291E+03  0.27011043618E+02  0.92660463276E+03  0.85322741739E+02 0.  0.
         13    1    3    3    0    0  0.35705305765E+03 -0.36357700284E+03  0.52110707029E+02  0.51224081130E+03  0.00000000000E+00 0. -1.
        -13    1    3    3    0    0  0.31501114226E+03 -0.26802120006E+03 -0.25099663410E+02  0.41436382146E+03  0.00000000000E+00 0.  1.
         22    1    1    2    0    0 -0.67206419991E+03  0.63159820291E+03 -0.17244276308E+03  0.93825534118E+03  0.00000000000E+00 0.  1.
<mgrwt>
<rscale>  0 0.18591806E+04</rscale>
<asrwt>0</asrwt>
<pdfrwt beam="1">  1        2 0.13226371E+00 0.18591806E+04</pdfrwt>
<pdfrwt beam="2">  1       -2 0.15463782E+00 0.18591806E+04</pdfrwt>
<totfact> 0.81084393E+00</totfact>
</mgrwt>
</event>
<event>
 6    1  0.9906445E-006  0.2089965E+04  0.7818608E-02  0.8565677E-01
          2   -1    0    0  501    0  0.00000000000E+00  0.00000000000E+00  0.19522871614E+04  0.19522871614E+04  0.00000000000E+00 0. -1.
         -2   -1    0    0    0  501 -0.00000000000E+00 -0.00000000000E+00 -0.55933807920E+03  0.55933807920E+03  0.00000000000E+00 0.  1.
         23    2    1    2    0    0 -0.40028601188E+03  0.91206281996E+03  0.10695834275E+04  0.14644133110E+04  0.91706915232E+02 0.  0.
         13    1    3    3    0    0 -0.50168854014E+02  0.16123039829E+03  0.14098215354E+03  0.21997300485E+03  0.00000000000E+00 0.  1.
        -13    1    3    3    0    0 -0.35011715786E+03  0.75083242167E+03  0.92860127395E+03  0.12444403062E+04  0.00000000000E+00 0. -1.
         22    1    1    2    0    0  0.40028601188E+03 -0.91206281996E+03  0.32336565476E+03  0.10472119296E+04  0.00000000000E+00 0.  1.
<mgrwt>
<rscale>  0 0.20899651E+04</rscale>
<asrwt>0</asrwt>
<pdfrwt beam="1">  1        2 0.30035187E+00 0.20899651E+04</pdfrwt>
<pdfrwt beam="2">  1       -2 0.86052013E-01 0.20899651E+04</pdfrwt>
<totfact> 0.76734512E+00</totfact>
</mgrwt>
</event>
<event>
 6    1  0.9906445E-006  0.5518990E+03  0.7818608E-02  0.1001055E+00
          2   -1    0    0  501    0  0.00000000000E+00  0.00000000000E+00  0.27292945668E+03  0.27292945668E+03  0.00000000000E+00 0. -1.
         -2   -1    0    0    0  501 -0.00000000000E+00 -0.00000000000E+00 -0.27900292365E+03  0.27900292365E+03  0.00000000000E+00 0.  1.
         23    2    1    2    0    0 -0.12539155551E+03 -0.23664173121E+03  0.15709731008E+02  0.28323764861E+03  0.90853832050E+02 0.  0.
         11    1    3    3    0    0 -0.52547123075E+02 -0.31222391878E+02 -0.15509935179E+02  0.63060256798E+02  0.00000000000E+00 0.  1.
        -11    1    3    3    0    0 -0.72844432432E+02 -0.20541933933E+03  0.31219666187E+02  0.22017739181E+03  0.00000000000E+00 0. -1.
         22    1    1    2    0    0  0.12539155551E+03  0.23664173121E+03 -0.21783197981E+02  0.26869473172E+03  0.00000000000E+00 0.  1.
<mgrwt>
<rscale>  0 0.55189896E+03</rscale>
<asrwt>0</asrwt>
<pdfrwt beam="1">  1        2 0.41989147E-01 0.55189896E+03</pdfrwt>
<pdfrwt beam="2">  1       -2 0.42923527E-01 0.55189896E+03</pdfrwt>
<totfact> 0.63197001E+02</totfact>
</mgrwt>
</event>
<event>
 6    1  0.9906445E-006  0.2154485E+04  0.7818608E-02  0.8537615E-01
          2   -1    0    0  501    0  0.00000000000E+00  0.00000000000E+00  0.18502555439E+04  0.18502555439E+04  0.00000000000E+00 0.  1.
         -2   -1    0    0    0  501 -0.00000000000E+00 -0.00000000000E+00 -0.62718420350E+03  0.62718420350E+03  0.00000000000E+00 0. -1.
         23    2    1    2    0    0  0.53840553282E+03 -0.90220078684E+03  0.34935319366E+03  0.11109734370E+04  0.91474292706E+02 0.  0.
         11    1    3    3    0    0  0.36247237302E+03 -0.52692660708E+03  0.19382355916E+03  0.66828544989E+03  0.00000000000E+00 0. -1.
        -11    1    3    3    0    0  0.17593315980E+03 -0.37527417976E+03  0.15552963450E+03  0.44268798710E+03  0.00000000000E+00 0.  1.
         22    1    1    2    0    0 -0.53840553282E+03  0.90220078684E+03  0.87371814676E+03  0.13664663104E+04  0.00000000000E+00 0.  1.
<mgrwt>
<rscale>  0 0.21544847E+04</rscale>
<asrwt>0</asrwt>
<pdfrwt beam="1">  1        2 0.28465470E+00 0.21544847E+04</pdfrwt>
<pdfrwt beam="2">  1       -2 0.96489878E-01 0.21544847E+04</pdfrwt>
<totfact> 0.66712843E+00</totfact>
</mgrwt>
</event>
<event>
 6    1  0.9906445E-006  0.3940924E+04  0.7818608E-02  0.8016571E-01
         -2   -1    0    0    0  501 -0.00000000000E+00  0.00000000000E+00  0.13069476198E+04  0.13069476198E+04  0.00000000000E+00 0.  1.
          2   -1    0    0  501    0  0.00000000000E+00 -0.00000000000E+00 -0.29708307554E+04  0.29708307554E+04  0.00000000000E+00 0. -1.
         23    2    1    2    0    0  0.16875423465E+04 -0.18427992823E+03 -0.19161547056E+04  0.25615618363E+04  0.90509239157E+02 0.  0.
         13    1    3    3    0    0  0.13111845464E+04 -0.15842234845E+03 -0.14372477778E+04  0.19519179619E+04  0.00000000000E+00 0. -1.
        -13    1    3    3    0    0  0.37635780006E+03 -0.25857579786E+02 -0.47890692784E+03  0.60964387443E+03  0.00000000000E+00 0.  1.
         22    1    1    2    0    0 -0.16875423465E+04  0.18427992823E+03  0.25227156998E+03  0.17162165388E+04  0.00000000000E+00 0. -1.
<mgrwt>
<rscale>  0 0.39409238E+04</rscale>
<asrwt>0</asrwt>
<pdfrwt beam="1">  1        2 0.45705089E+00 0.39409238E+04</pdfrwt>
<pdfrwt beam="2">  1       -2 0.20106886E+00 0.39409238E+04</pdfrwt>
<totfact> 0.18825970E-01</totfact>
</mgrwt>
</event>
<event>
 6    1  0.9906445E-006  0.2063829E+04  0.7818608E-02  0.8577346E-01
          2   -1    0    0  501    0  0.00000000000E+00  0.00000000000E+00  0.23582588588E+04  0.23582588588E+04  0.00000000000E+00 0. -1.
         -2   -1    0    0    0  501 -0.00000000000E+00 -0.00000000000E+00 -0.45153975402E+03  0.45153975402E+03  0.00000000000E+00 0.  1.
         23    2    1    2    0    0  0.46103067858E+03  0.97316526915E+02  0.22020333955E+04  0.22537137963E+04  0.90857072578E+02 0.  0.
         11    1    3    3    0    0  0.37889013588E+03  0.88963228075E+02  0.16339628741E+04  0.16796746307E+04  0.00000000000E+00 0. -1.
        -11    1    3    3    0    0  0.82140542702E+02  0.83532988402E+01  0.56807052139E+03  0.57403916559E+03  0.00000000000E+00 0.  1.
         22    1    1    2    0    0 -0.46103067858E+03 -0.97316526915E+02 -0.29531429065E+03  0.55608481661E+03  0.00000000000E+00 0.  1.
<mgrwt>
<rscale>  0 0.20638291E+04</rscale>
<asrwt>0</asrwt>
<pdfrwt beam="1">  1        2 0.36280905E+00 0.20638291E+04</pdfrwt>
<pdfrwt beam="2">  1       -2 0.69467656E-01 0.20638291E+04</pdfrwt>
<totfact> 0.73390246E+00</totfact>
</mgrwt>
</event>
<event>
 6    1  0.9906445E-006  0.3860960E+04  0.7818608E-02  0.8033198E-01
          1   -1    0    0  501    0  0.00000000000E+00  0.00000000000E+00  0.29990072479E+04  0.29990072479E+04  0.00000000000E+00 0. -1.
         -1   -1    0    0    0  501 -0.00000000000E+00 -0.00000000000E+00 -0.12426622588E+04  0.12426622588E+04  0.00000000000E+00 0.  1.
         23    2    1    2    0    0 -0.97736669408E+03  0.15502165659E+04  0.15416971780E+04  0.23965432946E+04  0.90401981245E+02 0.  0.
         13    1    3    3    0    0 -0.34224122093E+03  0.47709257419E+03  0.52434934391E+03  0.78720303106E+03  0.00000000000E+00 0.  1.
        -13    1    3    3    0    0 -0.63512547314E+03  0.10731239917E+04  0.10173478341E+04  0.16093402635E+04  0.00000000000E+00 0. -1.
         22    1    1    2    0    0  0.97736669408E+03 -0.15502165659E+04  0.21464781107E+03  0.18451262122E+04  0.00000000000E+00 0.  1.
<mgrwt>
<rscale>  0 0.38609600E+04</rscale>
<asrwt>0</asrwt>
<pdfrwt beam="1">  1        1 0.46138573E+00 0.38609600E+04</pdfrwt>
<pdfrwt beam="2">  1       -1 0.19117881E+00 0.38609600E+04</pdfrwt>
<totfact> 0.82124762E-02</totfact>
</mgrwt>
</event>
<event>
 6    1  0.1677795E-005  0.2856821E+04  0.7818608E-02  0.8285842E-01
         -1   -1    0    0    0  501 -0.00000000000E+00  0.00000000000E+00  0.85936156278E+03  0.85936156278E+03  0.00000000000E+00 0.  1.
          1   -1    0    0  501    0  0.00000000000E+00 -0.00000000000E+00 -0.23742703581E+04  0.23742703581E+04  0.00000000000E+00 0. -1.
         23    2    1    2    0    0 -0.63469926580E+03  0.19441617498E+02  0.68819834666E+03  0.94083838164E+03  0.91316819536E+02 0.  0.
         11    1    3    3    0    0 -0.20894815434E+03 -0.20489273770E+02  0.27715631073E+03  0.34769924090E+03  0.00000000000E+00 0.  1.
        -11    1    3    3    0    0 -0.42575111146E+03  0.39930891268E+02  0.41104203593E+03  0.59313914075E+03  0.00000000000E+00 0. -1.
         22    1    1    2    0    0  0.63469926580E+03 -0.19441617498E+02 -0.22031071420E+04  0.22927935392E+04  0.00000000000E+00 0. -1.
<mgrwt>
<rscale>  0 0.28568211E+04</rscale>
<asrwt>0</asrwt>
<pdfrwt beam="1">  1        1 0.36527236E+00 0.28568211E+04</pdfrwt>
<pdfrwt beam="2">  1       -1 0.13220947E+00 0.28568211E+04</pdfrwt>
<totfact> 0.69254411E-01</totfact>
</mgrwt>
</event>
<event>
 6    1  0.9906445E-006  0.2839983E+04  0.7818608E-02  0.8290962E-01
         -2   -1    0    0    0  501 -0.00000000000E+00  0.00000000000E+00  0.97575662209E+03  0.97575662209E+03  0.00000000000E+00 0.  1.
          2   -1    0    0  501    0  0.00000000000E+00 -0.00000000000E+00 -0.20664742910E+04  0.20664742910E+04  0.00000000000E+00 0. -1.
         23    2    1    2    0    0  0.11586124397E+04  0.72412276693E+03 -0.13670999009E+03  0.13758374367E+04  0.86616763809E+02 0.  0.
         11    1    3    3    0    0  0.27339140129E+03  0.21297533676E+03 -0.46607006105E+02  0.34967637236E+03  0.00000000000E+00 0.  1.
        -11    1    3    3    0    0  0.88522103840E+03  0.51114743017E+03 -0.90102983986E+02  0.10261610643E+04  0.00000000000E+00 0. -1.
         22    1    1    2    0    0 -0.11586124397E+04 -0.72412276693E+03 -0.95400767881E+03  0.16663934764E+04  0.00000000000E+00 0.  1.
<mgrwt>
<rscale>  0 0.28399831E+04</rscale>
<asrwt>0</asrwt>
<pdfrwt beam="1">  1        2 0.31791912E+00 0.28399831E+04</pdfrwt>
<pdfrwt beam="2">  1       -2 0.15011640E+00 0.28399831E+04</pdfrwt>
<totfact> 0.15910042E+00</totfact>
</mgrwt>
</event>
<event>
 6    1  0.9906445E-006  0.2353453E+04  0.7818608E-02  0.8457139E-01
          1   -1    0    0  501    0  0.00000000000E+00  0.00000000000E+00  0.13343223630E+04  0.13343223630E+04  0.00000000000E+00 0. -1.
         -1   -1    0    0    0  501 -0.00000000000E+00 -0.00000000000E+00 -0.10377440811E+04  0.10377440811E+04  0.00000000000E+00 0.  1.
         23    2    1    2    0    0  0.10541800434E+04  0.24781233584E+03  0.60781277382E+03  0.12453129543E+04  0.93067010599E+02 0.  0.
         11    1    3    3    0    0  0.44796348756E+03  0.76759676994E+02  0.29686734775E+03  0.54285684702E+03  0.00000000000E+00 0.  1.
        -11    1    3    3    0    0  0.60621655589E+03  0.17105265885E+03  0.31094542606E+03  0.70245610733E+03  0.00000000000E+00 0. -1.
         22    1    1    2    0    0 -0.10541800434E+04 -0.24781233584E+03 -0.31123449188E+03  0.11267534898E+04  0.00000000000E+00 0.  1.
<mgrwt>
<rscale>  0 0.23534529E+04</rscale>
<asrwt>0</asrwt>
<pdfrwt beam="1">  1        1 0.20528036E+00 0.23534529E+04</pdfrwt>
<pdfrwt beam="2">  1       -1 0.15965294E+00 0.23534529E+04</pdfrwt>
<totfact> 0.22618877E+00</totfact>
</mgrwt>
</event>
<event>
 6    1  0.9906445E-006  0.1747072E+04  0.7818608E-02  0.8734963E-01
         -2   -1    0    0    0  501 -0.00000000000E+00  0.00000000000E+00  0.57937563618E+03  0.57937563618E+03  0.00000000000E+00 0.  1.
          2   -1    0    0  501    0  0.00000000000E+00 -0.00000000000E+00 -0.13170480092E+04  0.13170480092E+04  0.00000000000E+00 0. -1.
         23    2    1    2    0    0 -0.65241048569E+03 -0.22222928600E+03 -0.94817234738E+03  0.11757742601E+04  0.91591554843E+02 0.  0.
         11    1    3    3    0    0 -0.44545913842E+03 -0.11851229641E+03 -0.57981528730E+03  0.74071909371E+03  0.00000000000E+00 0. -1.
        -11    1    3    3    0    0 -0.20695134727E+03 -0.10371698959E+03 -0.36835706008E+03  0.43505516637E+03  0.00000000000E+00 0.  1.
         22    1    1    2    0    0  0.65241048569E+03  0.22222928600E+03  0.21049997432E+03  0.72064938534E+03  0.00000000000E+00 0.  1.
<mgrwt>
<rscale>  0 0.17470724E+04</rscale>
<asrwt>0</asrwt>
<pdfrwt beam="1">  1        2 0.20262277E+00 0.17470724E+04</pdfrwt>
<pdfrwt beam="2">  1       -2 0.89134713E-01 0.17470724E+04</pdfrwt>
<totfact> 0.16554832E+01</totfact>
</mgrwt>
</event>
<event>
 6    1  0.9906445E-006  0.1313559E+04  0.7818608E-02  0.9018882E-01
         -3   -1    0    0    0  501 -0.00000000000E+00  0.00000000000E+00  0.20961398226E+04  0.20961398226E+04  0.00000000000E+00 0.  1.
          3   -1    0    0  501    0  0.00000000000E+00 -0.00000000000E+00 -0.20578735765E+03  0.20578735765E+03  0.00000000000E+00 0. -1.
         23    2    1    2    0    0  0.28322956486E+03  0.58512882962E+03  0.10698100597E+04  0.12550821237E+04  0.90237684118E+02 0.  0.
         13    1    3    3    0    0  0.20356148429E+03  0.36631217945E+03  0.61637088268E+03  0.74534217358E+03  0.00000000000E+00 0. -1.
        -13    1    3    3    0    0  0.79668080569E+02  0.21881665018E+03  0.45343917702E+03  0.50973995008E+03  0.00000000000E+00 0.  1.
         22    1    1    2    0    0 -0.28322956486E+03 -0.58512882962E+03  0.82054240523E+03  0.10468450566E+04  0.00000000000E+00 0. -1.
<mgrwt>
<rscale>  0 0.13135586E+04</rscale>
<asrwt>0</asrwt>
<pdfrwt beam="1">  1        3 0.31659595E-01 0.13135586E+04</pdfrwt>
<pdfrwt beam="2">  1       -3 0.32248304E+00 0.13135586E+04</pdfrwt>
<totfact> 0.72179004E-01</totfact>
</mgrwt>
</event>
<event>
 6    1  0.9906445E-006  0.2172595E+04  0.7818608E-02  0.8529922E-01
          2   -1    0    0  501    0  0.00000000000E+00  0.00000000000E+00  0.26350562460E+04  0.26350562460E+04  0.00000000000E+00 0. -1.
         -2   -1    0    0    0  501 -0.00000000000E+00 -0.00000000000E+00 -0.44782428106E+03  0.44782428106E+03  0.00000000000E+00 0.  1.
         23    2    1    2    0    0 -0.55177680345E+03 -0.92289346974E+03  0.12976522920E+04  0.16873369083E+04  0.83751859380E+02 0.  0.
         11    1    3    3    0    0 -0.50018969767E+02 -0.12816481334E+03  0.14153954618E+03  0.19738682794E+03  0.00000000000E+00 0. -1.
        -11    1    3    3    0    0 -0.50175783368E+03 -0.79472865640E+03  0.11561127458E+04  0.14899500804E+04  0.00000000000E+00 0.  1.
         22    1    1    2    0    0  0.55177680345E+03  0.92289346974E+03  0.88957967295E+03  0.13955436188E+04  0.00000000000E+00 0. -1.
<mgrwt>
<rscale>  0 0.21725949E+04</rscale>
<asrwt>0</asrwt>
<pdfrwt beam="1">  1        2 0.40539326E+00 0.21725949E+04</pdfrwt>
<pdfrwt beam="2">  1       -2 0.68896045E-01 0.21725949E+04</pdfrwt>
<totfact> 0.51182360E+00</totfact>
</mgrwt>
</event>
<event>
 6    1  0.9906445E-006  0.3036949E+04  0.7818608E-02  0.8233258E-01
          1   -1    0    0  501    0  0.00000000000E+00  0.00000000000E+00  0.16237303968E+04  0.16237303968E+04  0.00000000000E+00 0. -1.
         -1   -1    0    0    0  501 -0.00000000000E+00 -0.00000000000E+00 -0.14200416317E+04  0.14200416317E+04  0.00000000000E+00 0.  1.
         23    2    1    2    0    0  0.95155698641E+03 -0.10889918895E+04 -0.35758119270E+03  0.14925183422E+04  0.91556860122E+02 0.  0.
         11    1    3    3    0    0  0.51824103901E+03 -0.65715214994E+03 -0.18969729825E+03  0.85814205563E+03  0.00000000000E+00 0.  1.
        -11    1    3    3    0    0  0.43331594740E+03 -0.43183973954E+03 -0.16788389446E+03  0.63437628655E+03  0.00000000000E+00 0. -1.
         22    1    1    2    0    0 -0.95155698641E+03  0.10889918895E+04  0.56126995788E+03  0.15512536863E+04  0.00000000000E+00 0. -1.
<mgrwt>
<rscale>  0 0.30369490E+04</rscale>
<asrwt>0</asrwt>
<pdfrwt beam="1">  1        1 0.24980468E+00 0.30369490E+04</pdfrwt>
<pdfrwt beam="2">  1       -1 0.21846794E+00 0.30369490E+04</pdfrwt>
<totfact> 0.51384792E-01</totfact>
</mgrwt>
</event>
<event>
 6    1  0.9906445E-006  0.5111421E+04  0.7818608E-02  0.7811546E-01
          2   -1    0    0  501    0  0.00000000000E+00  0.00000000000E+00  0.38148405165E+04  0.38148405165E+04  0.00000000000E+00 0. -1.
         -2   -1    0    0    0  501 -0.00000000000E+00 -0.00000000000E+00 -0.17121704463E+04  0.17121704463E+04  0.00000000000E+00 0.  1.
         23    2    1    2    0    0 -0.17493382221E+03  0.16205406584E+04 -0.10762865770E+04  0.19545441355E+04  0.71387071845E+02 0.  0.
         11    1    3    3    0    0 -0.80124981565E+02  0.57549271307E+03 -0.41868690043E+03  0.71617776848E+03  0.00000000000E+00 0.  1.
        -11    1    3    3    0    0 -0.94808840648E+02  0.10450479453E+04 -0.65759967662E+03  0.12383663670E+04  0.00000000000E+00 0. -1.
         22    1    1    2    0    0  0.17493382221E+03 -0.16205406584E+04  0.31789566472E+04  0.35724668274E+04  0.00000000000E+00 0. -1.
<mgrwt>
<rscale>  0 0.51114214E+04</rscale>
<asrwt>0</asrwt>
<pdfrwt beam="1">  1        2 0.58689854E+00 0.51114214E+04</pdfrwt>
<pdfrwt beam="2">  1       -2 0.26341084E+00 0.51114214E+04</pdfrwt>
<totfact> 0.18295938E-02</totfact>
</mgrwt>
</event>
<event>
 6    1  0.9906445E-006  0.3854834E+04  0.7818608E-02  0.8034489E-01
         -1   -1    0    0    0  501 -0.00000000000E+00  0.00000000000E+00  0.10774177537E+04  0.10774177537E+04  0.00000000000E+00 0.  1.
          1   -1    0    0  501    0  0.00000000000E+00 -0.00000000000E+00 -0.34480006261E+04  0.34480006261E+04  0.00000000000E+00 0. -1.
         23    2    1    2    0    0  0.15058258790E+04 -0.60526411961E+03  0.32330934552E+02  0.16257889214E+04  0.91038976607E+02 0.  0.
         11    1    3    3    0    0  0.13340064925E+04 -0.54903447561E+03  0.25964775826E+01  0.14425737136E+04  0.00000000000E+00 0.  1.
        -11    1    3    3    0    0  0.17181938654E+03 -0.56229643997E+02  0.29734456969E+02  0.18321520785E+03  0.00000000000E+00 0. -1.
         22    1    1    2    0    0 -0.15058258790E+04  0.60526411961E+03 -0.24029138070E+04  0.28996294584E+04  0.00000000000E+00 0. -1.
<mgrwt>
<rscale>  0 0.38548344E+04</rscale>
<asrwt>0</asrwt>
<pdfrwt beam="1">  1        1 0.53046163E+00 0.38548344E+04</pdfrwt>
<pdfrwt beam="2">  1       -1 0.16575658E+00 0.38548344E+04</pdfrwt>
<totfact> 0.57433509E-02</totfact>
</mgrwt>
</event>
<event>
 6    1  0.9906445E-006  0.3323743E+04  0.7818608E-02  0.8156880E-01
          1   -1    0    0  501    0  0.00000000000E+00  0.00000000000E+00  0.23030575072E+04  0.23030575072E+04  0.00000000000E+00 0. -1.
         -1   -1    0    0    0  501 -0.00000000000E+00 -0.00000000000E+00 -0.11991956410E+04  0.11991956410E+04  0.00000000000E+00 0.  1.
         23    2    1    2    0    0  0.17123330962E+03 -0.14506200730E+04  0.13847124064E+04  0.20148068573E+04  0.91644864451E+02 0.  0.
         13    1    3    3    0    0  0.80227346236E+02 -0.94722388328E+03  0.85795816370E+03  0.12805318125E+04  0.00000000000E+00 0. -1.
        -13    1    3    3    0    0  0.91005963381E+02 -0.50339618972E+03  0.52675424268E+03  0.73427504478E+03  0.00000000000E+00 0.  1.
         22    1    1    2    0    0 -0.17123330962E+03  0.14506200730E+04 -0.28085054026E+03  0.14874462910E+04  0.00000000000E+00 0.  1.
<mgrwt>
<rscale>  0 0.33237428E+04</rscale>
<asrwt>0</asrwt>
<pdfrwt beam="1">  1        1 0.35431654E+00 0.33237428E+04</pdfrwt>
<pdfrwt beam="2">  1       -1 0.18449164E+00 0.33237428E+04</pdfrwt>
<totfact> 0.29637097E-01</totfact>
</mgrwt>
</event>
<event>
 6    1  0.9906445E-006  0.4496306E+04  0.7818608E-02  0.7911284E-01
          2   -1    0    0  501    0  0.00000000000E+00  0.00000000000E+00  0.25952283747E+04  0.25952283747E+04  0.00000000000E+00 0. -1.
         -2   -1    0    0    0  501 -0.00000000000E+00 -0.00000000000E+00 -0.19474942689E+04  0.19474942689E+04  0.00000000000E+00 0.  1.
         23    2    1    2    0    0  0.78422214224E+03 -0.17892823507E+04  0.14461296802E+04  0.24322792797E+04  0.90309156312E+02 0.  0.
         13    1    3    3    0    0  0.58955107437E+03 -0.13978150276E+04  0.10833000453E+04  0.18641341982E+04  0.00000000000E+00 0. -1.
        -13    1    3    3    0    0  0.19467106787E+03 -0.39146732310E+03  0.36282963490E+03  0.56814508154E+03  0.00000000000E+00 0.  1.
         22    1    1    2    0    0 -0.78422214224E+03  0.17892823507E+04 -0.79839557432E+03  0.21104433639E+04  0.00000000000E+00 0. -1.
<mgrwt>
<rscale>  0 0.44963062E+04</rscale>
<asrwt>0</asrwt>
<pdfrwt beam="1">  1        2 0.39926591E+00 0.44963062E+04</pdfrwt>
<pdfrwt beam="2">  1       -2 0.29961450E+00 0.44963062E+04</pdfrwt>
<totfact> 0.74185475E-02</totfact>
</mgrwt>
</event>
<event>
 6    1  0.9906445E-006  0.2760763E+04  0.7818608E-02  0.8315554E-01
          2   -1    0    0  501    0  0.00000000000E+00  0.00000000000E+00  0.22118944245E+04  0.22118944245E+04  0.00000000000E+00 0.  1.
         -2   -1    0    0    0  501 -0.00000000000E+00 -0.00000000000E+00 -0.86145759751E+03  0.86145759751E+03  0.00000000000E+00 0. -1.
         23    2    1    2    0    0 -0.96716531418E+03 -0.98256324646E+03  0.69935766055E+03  0.15486411119E+04  0.91372194943E+02 0.  0.
         11    1    3    3    0    0 -0.38656669774E+03 -0.34981604242E+03  0.30082302457E+03  0.60191325575E+03  0.00000000000E+00 0. -1.
        -11    1    3    3    0    0 -0.58059861644E+03 -0.63274720404E+03  0.39853463598E+03  0.94672785620E+03  0.00000000000E+00 0.  1.
         22    1    1    2    0    0  0.96716531418E+03  0.98256324646E+03  0.65107916642E+03  0.15247109100E+04  0.00000000000E+00 0. -1.
<mgrwt>
<rscale>  0 0.27607631E+04</rscale>
<asrwt>0</asrwt>
<pdfrwt beam="1">  1        2 0.34029145E+00 0.27607631E+04</pdfrwt>
<pdfrwt beam="2">  1       -2 0.13253194E+00 0.27607631E+04</pdfrwt>
<totfact> 0.18354574E+00</totfact>
</mgrwt>
</event>
<event>
 6    1  0.9906445E-006  0.1473944E+04  0.7818608E-02  0.8901967E-01
          2   -1    0    0  501    0  0.00000000000E+00  0.00000000000E+00  0.62665702737E+03  0.62665702737E+03  0.00000000000E+00 0. -1.
         -2   -1    0    0    0  501 -0.00000000000E+00 -0.00000000000E+00 -0.86670687483E+03  0.86670687483E+03  0.00000000000E+00 0.  1.
         23    2    1    2    0    0 -0.11838517366E+03 -0.38813677328E+03 -0.74035185382E+03  0.84918434519E+03  0.91257769819E+02 0.  0.
         13    1    3    3    0    0 -0.91190410086E+02 -0.21037921109E+03 -0.33752715046E+03  0.40804372395E+03  0.00000000000E+00 0. -1.
        -13    1    3    3    0    0 -0.27194763573E+02 -0.17775756219E+03 -0.40282470335E+03  0.44114062124E+03  0.00000000000E+00 0.  1.
         22    1    1    2    0    0  0.11838517366E+03  0.38813677328E+03  0.50030200635E+03  0.64417955702E+03  0.00000000000E+00 0. -1.
<mgrwt>
<rscale>  0 0.14739443E+04</rscale>
<asrwt>0</asrwt>
<pdfrwt beam="1">  1        2 0.96408774E-01 0.14739443E+04</pdfrwt>
<pdfrwt beam="2">  1       -2 0.13333952E+00 0.14739443E+04</pdfrwt>
<totfact> 0.18532565E+01</totfact>
</mgrwt>
</event>
<event>
 6    1  0.9906445E-006  0.3838597E+04  0.7818608E-02  0.8037923E-01
         -1   -1    0    0    0  501 -0.00000000000E+00  0.00000000000E+00  0.11097169804E+04  0.11097169804E+04  0.00000000000E+00 0.  1.
          1   -1    0    0  501    0  0.00000000000E+00 -0.00000000000E+00 -0.33195004467E+04  0.33195004467E+04  0.00000000000E+00 0. -1.
         23    2    1    2    0    0  0.27034255048E+03  0.16912081443E+04 -0.21022038863E+04  0.27131628102E+04  0.93387222834E+02 0.  0.
         13    1    3    3    0    0  0.24007190025E+03  0.16211013177E+04 -0.20139022983E+04  0.25964218584E+04  0.00000000000E+00 0.  1.
        -13    1    3    3    0    0  0.30270650230E+02  0.70106826619E+02 -0.88301587975E+02  0.11674095187E+03  0.00000000000E+00 0. -1.
         22    1    1    2    0    0 -0.27034255048E+03 -0.16912081443E+04 -0.10757958008E+03  0.17160546169E+04  0.00000000000E+00 0.  1.
<mgrwt>
<rscale>  0 0.38385966E+04</rscale>
<asrwt>0</asrwt>
<pdfrwt beam="1">  1        1 0.51069237E+00 0.38385966E+04</pdfrwt>
<pdfrwt beam="2">  1       -1 0.17072569E+00 0.38385966E+04</pdfrwt>
<totfact> 0.66444541E-02</totfact>
</mgrwt>
</event>
<event>
 6    1  0.9906445E-006  0.1999660E+04  0.7818608E-02  0.8606780E-01
          1   -1    0    0  501    0  0.00000000000E+00  0.00000000000E+00  0.24308444074E+04  0.24308444074E+04  0.00000000000E+00 0. -1.
         -1   -1    0    0    0  501 -0.00000000000E+00 -0.00000000000E+00 -0.41123992796E+03  0.41123992796E+03  0.00000000000E+00 0.  1.
         23    2    1    2    0    0  0.88624600606E+03  0.36018976769E+03  0.60916875840E+03  0.11378256768E+04  0.91608092546E+02 0.  0.
         13    1    3    3    0    0  0.74221701782E+03  0.26586369836E+03  0.48635184330E+03  0.92634104040E+03  0.00000000000E+00 0. -1.
        -13    1    3    3    0    0  0.14402898824E+03  0.94326069327E+02  0.12281691510E+03  0.21148463642E+03  0.00000000000E+00 0.  1.
         22    1    1    2    0    0 -0.88624600606E+03 -0.36018976769E+03  0.14104357211E+04  0.17042586586E+04  0.00000000000E+00 0. -1.
<mgrwt>
<rscale>  0 0.19996603E+04</rscale>
<asrwt>0</asrwt>
<pdfrwt beam="1">  1        1 0.37397605E+00 0.19996603E+04</pdfrwt>
<pdfrwt beam="2">  1       -1 0.63267683E-01 0.19996603E+04</pdfrwt>
<totfact> 0.35569764E+00</totfact>
</mgrwt>
</event>
<event>
 6    1  0.9906445E-006  0.3434130E+04  0.7818608E-02  0.8129580E-01
         -2   -1    0    0    0  501 -0.00000000000E+00  0.00000000000E+00  0.65675679045E+03  0.65675679045E+03  0.00000000000E+00 0.  1.
          2   -1    0    0  501    0  0.00000000000E+00 -0.00000000000E+00 -0.44892007056E+04  0.44892007056E+04  0.00000000000E+00 0. -1.
         23    2    1    2    0    0 -0.83433543311E+03 -0.24548189021E+03  0.29882345201E+03  0.92413951888E+03  0.91440808793E+02 0.  0.
         13    1    3    3    0    0 -0.61369719222E+03 -0.21273011058E+03  0.19542881783E+03  0.67828516608E+03  0.00000000000E+00 0.  1.
        -13    1    3    3    0    0 -0.22063824089E+03 -0.32751779635E+02  0.10339463417E+03  0.24585435279E+03  0.00000000000E+00 0. -1.
         22    1    1    2    0    0  0.83433543311E+03  0.24548189021E+03 -0.41312673671E+04  0.42218179771E+04  0.00000000000E+00 0. -1.
<mgrwt>
<rscale>  0 0.34341305E+04</rscale>
<asrwt>0</asrwt>
<pdfrwt beam="1">  1        2 0.69064627E+00 0.34341305E+04</pdfrwt>
<pdfrwt beam="2">  1       -2 0.10103951E+00 0.34341305E+04</pdfrwt>
<totfact> 0.83596953E-02</totfact>
</mgrwt>
</event>
<event>
 6    1  0.9906445E-006  0.1386893E+04  0.7818608E-02  0.8963361E-01
         -1   -1    0    0    0  501 -0.00000000000E+00  0.00000000000E+00  0.34429217122E+03  0.34429217122E+03  0.00000000000E+00 0.  1.
          1   -1    0    0  501    0  0.00000000000E+00 -0.00000000000E+00 -0.13966863159E+04  0.13966863159E+04  0.00000000000E+00 0. -1.
         23    2    1    2    0    0  0.45808624754E+02 -0.66816503001E+03 -0.31692119417E+03  0.74626073903E+03  0.89011852440E+02 0.  0.
         13    1    3    3    0    0  0.68077032373E+02 -0.49721167649E+03 -0.21480354532E+03  0.54588872186E+03  0.00000000000E+00 0. -1.
        -13    1    3    3    0    0 -0.22268407620E+02 -0.17095335353E+03 -0.10211764885E+03  0.20037201717E+03  0.00000000000E+00 0.  1.
         22    1    1    2    0    0 -0.45808624754E+02  0.66816503001E+03 -0.73547295050E+03  0.99471774808E+03  0.00000000000E+00 0.  1.
<mgrwt>
<rscale>  0 0.13868932E+04</rscale>
<asrwt>0</asrwt>
<pdfrwt beam="1">  1        1 0.21487482E+00 0.13868932E+04</pdfrwt>
<pdfrwt beam="2">  1       -1 0.52968026E-01 0.13868932E+04</pdfrwt>
<totfact> 0.27090537E+01</totfact>
</mgrwt>
</event>
<event>
 6    1  0.9906445E-006  0.4969751E+04  0.7818608E-02  0.7833190E-01
          2   -1    0    0  501    0  0.00000000000E+00  0.00000000000E+00  0.25223979933E+04  0.25223979933E+04  0.00000000000E+00 0. -1.
         -2   -1    0    0    0  501 -0.00000000000E+00 -0.00000000000E+00 -0.24479111492E+04  0.24479111492E+04  0.00000000000E+00 0.  1.
         23    2    1    2    0    0 -0.14952914848E+04 -0.13090997064E+04  0.15276798910E+04  0.25083163120E+04  0.90588109724E+02 0.  0.
         11    1    3    3    0    0 -0.12055098587E+04 -0.10199920218E+04  0.11810712218E+04  0.19719449726E+04  0.00000000000E+00 0.  1.
        -11    1    3    3    0    0 -0.28978162607E+03 -0.28910768464E+03  0.34660866921E+03  0.53637133937E+03  0.00000000000E+00 0. -1.
         22    1    1    2    0    0  0.14952914848E+04  0.13090997064E+04 -0.14531930469E+04  0.24619928305E+04  0.00000000000E+00 0.  1.
<mgrwt>
<rscale>  0 0.49697510E+04</rscale>
<asrwt>0</asrwt>
<pdfrwt beam="1">  1        2 0.38806123E+00 0.49697510E+04</pdfrwt>
<pdfrwt beam="2">  1       -2 0.37660171E+00 0.49697510E+04</pdfrwt>
<totfact> 0.25969317E-02</totfact>
</mgrwt>
</event>
<event>
 6    1  0.9906445E-006  0.3064283E+04  0.7818608E-02  0.8225609E-01
          1   -1    0    0  501    0  0.00000000000E+00  0.00000000000E+00  0.26728205396E+04  0.26728205396E+04  0.00000000000E+00 0. -1.
         -1   -1    0    0    0  501 -0.00000000000E+00 -0.00000000000E+00 -0.87826984232E+03  0.87826984232E+03  0.00000000000E+00 0.  1.
         23    2    1    2    0    0 -0.11629330851E+04  0.20956031310E+03  0.20258178392E+04  0.23470084178E+04  0.90452808187E+02 0.  0.
         13    1    3    3    0    0 -0.10222020296E+04  0.15474691654E+03  0.17831323969E+04  0.20611658697E+04  0.00000000000E+00 0. -1.
        -13    1    3    3    0    0 -0.14073105552E+03  0.54813396561E+02  0.24268544229E+03  0.28584254814E+03  0.00000000000E+00 0.  1.
         22    1    1    2    0    0  0.11629330851E+04 -0.20956031310E+03 -0.23126714193E+03  0.12040819641E+04  0.00000000000E+00 0.  1.
<mgrwt>
<rscale>  0 0.30642831E+04</rscale>
<asrwt>0</asrwt>
<pdfrwt beam="1">  1        1 0.41120316E+00 0.30642831E+04</pdfrwt>
<pdfrwt beam="2">  1       -1 0.13511844E+00 0.30642831E+04</pdfrwt>
<totfact> 0.39879051E-01</totfact>
</mgrwt>
</event>
<event>
 6    1  0.9906445E-006  0.1636290E+04  0.7818608E-02  0.8798559E-01
         -1   -1    0    0    0  501 -0.00000000000E+00  0.00000000000E+00  0.41146560612E+03  0.41146560612E+03  0.00000000000E+00 0.  1.
          1   -1    0    0  501    0  0.00000000000E+00 -0.00000000000E+00 -0.16267725227E+04  0.16267725227E+04  0.00000000000E+00 0. -1.
         23    2    1    2    0    0 -0.65168176032E+03  0.70723700302E+02 -0.45818658030E+01  0.66144979827E+03  0.88339592595E+02 0.  0.
         13    1    3    3    0    0 -0.33091301940E+03  0.31627104373E+02  0.41637771885E+02  0.33501851321E+03  0.00000000000E+00 0.  1.
        -13    1    3    3    0    0 -0.32076874092E+03  0.39096595929E+02 -0.46219637688E+02  0.32643128507E+03  0.00000000000E+00 0. -1.
         22    1    1    2    0    0  0.65168176032E+03 -0.70723700302E+02 -0.12107250508E+04  0.13767883305E+04  0.00000000000E+00 0. -1.
<mgrwt>
<rscale>  0 0.16362896E+04</rscale>
<asrwt>0</asrwt>
<pdfrwt beam="1">  1        1 0.25027269E+00 0.16362896E+04</pdfrwt>
<pdfrwt beam="2">  1       -1 0.63302402E-01 0.16362896E+04</pdfrwt>
<totfact> 0.12951115E+01</totfact>
</mgrwt>
</event>
<event>
 6    1  0.9906445E-006  0.8870187E+03  0.7818608E-02  0.9441956E-01
          2   -1    0    0  501    0  0.00000000000E+00  0.00000000000E+00  0.19285039621E+04  0.19285039621E+04  0.00000000000E+00 0. -1.
         -2   -1    0    0    0  501 -0.00000000000E+00 -0.00000000000E+00 -0.10199644429E+03  0.10199644429E+03  0.00000000000E+00 0.  1.
         23    2    1    2    0    0  0.31420757587E+03 -0.30223120768E+03  0.80034563695E+03  0.91556618889E+03  0.87396819252E+02 0.  0.
         11    1    3    3    0    0  0.14926415719E+03 -0.94763897408E+02  0.27103915598E+03  0.32360811014E+03  0.00000000000E+00 0. -1.
        -11    1    3    3    0    0  0.16494341869E+03 -0.20746731027E+03  0.52930648097E+03  0.59195807875E+03  0.00000000000E+00 0.  1.
         22    1    1    2    0    0 -0.31420757587E+03  0.30223120768E+03  0.10261618809E+04  0.11149342175E+04  0.00000000000E+00 0.  1.
<mgrwt>
<rscale>  0 0.88701871E+03</rscale>
<asrwt>0</asrwt>
<pdfrwt beam="1">  1        2 0.29669289E+00 0.88701871E+03</pdfrwt>
<pdfrwt beam="2">  1       -2 0.15691762E-01 0.88701871E+03</pdfrwt>
<totfact> 0.24032207E+02</totfact>
</mgrwt>
</event>
<event>
 6    1  0.9906445E-006  0.2638781E+04  0.7818608E-02  0.8355146E-01
         -1   -1    0    0    0  501 -0.00000000000E+00  0.00000000000E+00  0.21319835275E+04  0.21319835275E+04  0.00000000000E+00 0.  1.
          1   -1    0    0  501    0  0.00000000000E+00 -0.00000000000E+00 -0.81651226823E+03  0.81651226823E+03  0.00000000000E+00 0. -1.
         23    2    1    2    0    0 -0.80088160249E+03 -0.17539790038E+03  0.18112801818E+04  0.19903714550E+04  0.93096011140E+02 0.  0.
         13    1    3    3    0    0 -0.68118676426E+03 -0.17958467382E+03  0.15138499728E+04  0.16697328538E+04  0.00000000000E+00 0. -1.
        -13    1    3    3    0    0 -0.11969483823E+03  0.41867734323E+01  0.29743020901E+03  0.32063860124E+03  0.00000000000E+00 0.  1.
         22    1    1    2    0    0  0.80088160249E+03  0.17539790038E+03 -0.49580892251E+03  0.95812434073E+03  0.00000000000E+00 0. -1.
<mgrwt>
<rscale>  0 0.26387806E+04</rscale>
<asrwt>0</asrwt>
<pdfrwt beam="1">  1        1 0.12561727E+00 0.26387806E+04</pdfrwt>
<pdfrwt beam="2">  1       -1 0.32799747E+00 0.26387806E+04</pdfrwt>
<totfact> 0.40743567E-01</totfact>
</mgrwt>
</event>
<event>
 6    1  0.9906445E-006  0.4542679E+04  0.7818608E-02  0.7903207E-01
         -2   -1    0    0    0  501 -0.00000000000E+00  0.00000000000E+00  0.21635354277E+04  0.21635354277E+04  0.00000000000E+00 0.  1.
          2   -1    0    0  501    0  0.00000000000E+00 -0.00000000000E+00 -0.23845147445E+04  0.23845147445E+04  0.00000000000E+00 0. -1.
         23    2    1    2    0    0 -0.37814489427E+03 -0.66075915338E+03 -0.22520645601E+04  0.23789712237E+04  0.90072639576E+02 0.  0.
         11    1    3    3    0    0 -0.29354890397E+03 -0.43747287423E+03 -0.16052602991E+04  0.16895011402E+04  0.00000000000E+00 0. -1.
        -11    1    3    3    0    0 -0.84595990303E+02 -0.22328627914E+03 -0.64680426093E+03  0.68947008346E+03  0.00000000000E+00 0.  1.
         22    1    1    2    0    0  0.37814489427E+03  0.66075915338E+03  0.20310852432E+04  0.21690789486E+04  0.00000000000E+00 0.  1.
<mgrwt>
<rscale>  0 0.45426786E+04</rscale>
<asrwt>0</asrwt>
<pdfrwt beam="1">  1        2 0.36684842E+00 0.45426786E+04</pdfrwt>
<pdfrwt beam="2">  1       -2 0.33285161E+00 0.45426786E+04</pdfrwt>
<totfact> 0.61055474E-02</totfact>
</mgrwt>
</event>
<event>
 6    1  0.9906445E-006  0.9188612E+03  0.7818608E-02  0.9402306E-01
         -2   -1    0    0    0  501 -0.00000000000E+00  0.00000000000E+00  0.21531377719E+03  0.21531377719E+03  0.00000000000E+00 0.  1.
          2   -1    0    0  501    0  0.00000000000E+00 -0.00000000000E+00 -0.98032028822E+03  0.98032028822E+03  0.00000000000E+00 0. -1.
         23    2    1    2    0    0 -0.21988488215E+03 -0.22556590533E+03 -0.81336888329E+03  0.87693631189E+03  0.90658787573E+02 0.  0.
         11    1    3    3    0    0 -0.93361050849E+02 -0.13182717691E+03 -0.31075324260E+03  0.35023173496E+03  0.00000000000E+00 0.  1.
        -11    1    3    3    0    0 -0.12652383131E+03 -0.93738728416E+02 -0.50261564069E+03  0.52670457693E+03  0.00000000000E+00 0. -1.
         22    1    1    2    0    0  0.21988488215E+03  0.22556590533E+03  0.48362372260E+02  0.31869775352E+03  0.00000000000E+00 0.  1.
<mgrwt>
<rscale>  0 0.91886117E+03</rscale>
<asrwt>0</asrwt>
<pdfrwt beam="1">  1        2 0.15081851E+00 0.91886117E+03</pdfrwt>
<pdfrwt beam="2">  1       -2 0.33125196E-01 0.91886117E+03</pdfrwt>
<totfact> 0.22083730E+02</totfact>
</mgrwt>
</event>
<event>
 6    1  0.9906445E-006  0.7184984E+03  0.7818608E-02  0.9686110E-01
          1   -1    0    0  501    0  0.00000000000E+00  0.00000000000E+00  0.52629660847E+03  0.52629660847E+03  0.00000000000E+00 0. -1.
         -1   -1    0    0    0  501 -0.00000000000E+00 -0.00000000000E+00 -0.24522289494E+03  0.24522289494E+03  0.00000000000E+00 0.  1.
         23    2    1    2    0    0 -0.84715961465E+02  0.54846628529E+02 -0.22092431450E+03  0.25947754523E+03  0.91302228649E+02 0.  0.
         13    1    3    3    0    0 -0.60842833267E+02 -0.12783786998E+02 -0.12601541858E+03  0.14051747681E+03  0.00000000000E+00 0. -1.
        -13    1    3    3    0    0 -0.23873128197E+02  0.67630415527E+02 -0.94908895914E+02  0.11896006842E+03  0.00000000000E+00 0.  1.
         22    1    1    2    0    0  0.84715961465E+02 -0.54846628529E+02  0.50199802803E+03  0.51204195818E+03  0.00000000000E+00 0. -1.
<mgrwt>
<rscale>  0 0.71849837E+03</rscale>
<asrwt>0</asrwt>
<pdfrwt beam="1">  1        1 0.80968708E-01 0.71849837E+03</pdfrwt>
<pdfrwt beam="2">  1       -1 0.37726600E-01 0.71849837E+03</pdfrwt>
<totfact> 0.28310163E+02</totfact>
</mgrwt>
</event>
<event>
 6    1  0.9906445E-006  0.1961309E+04  0.7818608E-02  0.8624926E-01
          1   -1    0    0  501    0  0.00000000000E+00  0.00000000000E+00  0.16118171250E+04  0.16118171250E+04  0.00000000000E+00 0. -1.
         -1   -1    0    0    0  501 -0.00000000000E+00 -0.00000000000E+00 -0.59664561625E+03  0.59664561625E+03  0.00000000000E+00 0.  1.
         23    2    1    2    0    0  0.55536041493E+03  0.51033047445E+03 -0.19347629202E+03  0.78379018592E+03  0.89619173954E+02 0.  0.
         13    1    3    3    0    0  0.36359719750E+03  0.38759756299E+03 -0.14725190482E+03  0.55146887160E+03  0.00000000000E+00 0. -1.
        -13    1    3    3    0    0  0.19176321744E+03  0.12273291146E+03 -0.46224387191E+02  0.23232131432E+03  0.00000000000E+00 0.  1.
         22    1    1    2    0    0 -0.55536041493E+03 -0.51033047445E+03  0.12086478008E+04  0.14246725553E+04  0.00000000000E+00 0. -1.
<mgrwt>
<rscale>  0 0.19613094E+04</rscale>
<asrwt>0</asrwt>
<pdfrwt beam="1">  1        1 0.24797186E+00 0.19613094E+04</pdfrwt>
<pdfrwt beam="2">  1       -1 0.91791634E-01 0.19613094E+04</pdfrwt>
<totfact> 0.58936061E+00</totfact>
</mgrwt>
</event>
<event>
 6    1  0.9906445E-006  0.1819416E+04  0.7818608E-02  0.8696042E-01
         -2   -1    0    0    0  501 -0.00000000000E+00  0.00000000000E+00  0.63782661994E+03  0.63782661994E+03  0.00000000000E+00 0.  1.
          2   -1    0    0  501    0  0.00000000000E+00 -0.00000000000E+00 -0.12974823363E+04  0.12974823363E+04  0.00000000000E+00 0. -1.
         23    2    1    2    0    0  0.35202072123E+03  0.79280618217E+03 -0.61366799892E+03  0.10666461328E+04  0.93195112926E+02 0.  0.
         11    1    3    3    0    0  0.60400543957E+02  0.23639380743E+03 -0.16035495662E+03  0.29196570006E+03  0.00000000000E+00 0. -1.
        -11    1    3    3    0    0  0.29162017727E+03  0.55641237474E+03 -0.45331304231E+03  0.77468043275E+03  0.00000000000E+00 0.  1.
         22    1    1    2    0    0 -0.35202072123E+03 -0.79280618217E+03 -0.45987717441E+02  0.86866282344E+03  0.00000000000E+00 0.  1.
<mgrwt>
<rscale>  0 0.18194161E+04</rscale>
<asrwt>0</asrwt>
<pdfrwt beam="1">  1        2 0.19961267E+00 0.18194161E+04</pdfrwt>
<pdfrwt beam="2">  1       -2 0.98127173E-01 0.18194161E+04</pdfrwt>
<totfact> 0.13507278E+01</totfact>
</mgrwt>
</event>
<event>
 6    1  0.9906445E-006  0.8175423E+03  0.7818608E-02  0.9534967E-01
          2   -1    0    0  501    0  0.00000000000E+00  0.00000000000E+00  0.53868273748E+03  0.53868273748E+03  0.00000000000E+00 0. -1.
         -2   -1    0    0    0  501 -0.00000000000E+00 -0.00000000000E+00 -0.31018971205E+03  0.31018971205E+03  0.00000000000E+00 0.  1.
         23    2    1    2    0    0 -0.53385606373E+02 -0.14864878457E+03  0.50163783390E+03  0.53334975539E+03  0.88740977273E+02 0.  0.
         11    1    3    3    0    0 -0.70593708182E+02 -0.73472216092E+02  0.24407248320E+03  0.26448632333E+03  0.00000000000E+00 0.  1.
        -11    1    3    3    0    0  0.17208101809E+02 -0.75176568474E+02  0.25756535070E+03  0.26886343206E+03  0.00000000000E+00 0. -1.
         22    1    1    2    0    0  0.53385606373E+02  0.14864878457E+03 -0.27314480847E+03  0.31552269414E+03  0.00000000000E+00 0.  1.
<mgrwt>
<rscale>  0 0.81754228E+03</rscale>
<asrwt>0</asrwt>
<pdfrwt beam="1">  1        2 0.82874267E-01 0.81754228E+03</pdfrwt>
<pdfrwt beam="2">  1       -2 0.47721494E-01 0.81754228E+03</pdfrwt>
<totfact> 0.23625519E+02</totfact>
</mgrwt>
</event>
<event>
 6    1  0.9906445E-006  0.9277657E+03  0.7818608E-02  0.9391523E-01
         -2   -1    0    0    0  501 -0.00000000000E+00  0.00000000000E+00  0.26413185922E+03  0.26413185922E+03  0.00000000000E+00 0.  1.
          2   -1    0    0  501    0  0.00000000000E+00 -0.00000000000E+00 -0.81469644360E+03  0.81469644360E+03  0.00000000000E+00 0. -1.
         23    2    1    2    0    0  0.30927635827E+03 -0.22955407131E+03  0.12694255700E+02  0.39647395325E+03  0.93185374607E+02 0.  0.
         13    1    3    3    0    0  0.25060198849E+03 -0.17342005363E+03 -0.27265388612E+02  0.30597266717E+03  0.00000000000E+00 0. -1.
        -13    1    3    3    0    0  0.58674369779E+02 -0.56134017675E+02  0.39959644312E+02  0.90501286084E+02  0.00000000000E+00 0.  1.
         22    1    1    2    0    0 -0.30927635827E+03  0.22955407131E+03 -0.56325884008E+03  0.68235434956E+03  0.00000000000E+00 0. -1.
<mgrwt>
<rscale>  0 0.92776567E+03</rscale>
<asrwt>0</asrwt>
<pdfrwt beam="1">  1        2 0.12533792E+00 0.92776567E+03</pdfrwt>
<pdfrwt beam="2">  1       -2 0.40635670E-01 0.92776567E+03</pdfrwt>
<totfact> 0.19297564E+02</totfact>
</mgrwt>
</event>
<event>
 6    1  0.9906445E-006  0.3105605E+04  0.7818608E-02  0.8214201E-01
         -1   -1    0    0    0  501 -0.00000000000E+00  0.00000000000E+00  0.15552077620E+04  0.15552077620E+04  0.00000000000E+00 0. -1.
          1   -1    0    0  501    0  0.00000000000E+00 -0.00000000000E+00 -0.15504004794E+04  0.15504004794E+04  0.00000000000E+00 0.  1.
         23    2    1    2    0    0 -0.19787207541E+03 -0.86521266059E+03 -0.12697304319E+04  0.15524847139E+04  0.10122801467E+03 0.  0.
         11    1    3    3    0    0 -0.74695046194E+02 -0.35063187066E+03 -0.60021992294E+03  0.69913232978E+03  0.00000000000E+00 0.  1.
        -11    1    3    3    0    0 -0.12317702922E+03 -0.51458078992E+03 -0.66951050894E+03  0.85335238411E+03  0.00000000000E+00 0. -1.
         22    1    1    2    0    0  0.19787207541E+03  0.86521266059E+03  0.12745377145E+04  0.15531235276E+04  0.00000000000E+00 0. -1.
<mgrwt>
<rscale>  0 0.31056045E+04</rscale>
<asrwt>0</asrwt>
<pdfrwt beam="1">  1        1 0.23852315E+00 0.31056045E+04</pdfrwt>
<pdfrwt beam="2">  1       -1 0.23926273E+00 0.31056045E+04</pdfrwt>
<totfact> 0.41743678E-01</totfact>
</mgrwt>
</event>
<event>
 6    1  0.9906445E-006  0.8931087E+03  0.7818608E-02  0.9434237E-01
         -2   -1    0    0    0  501 -0.00000000000E+00  0.00000000000E+00  0.15381172946E+03  0.15381172946E+03  0.00000000000E+00 0.  1.
          2   -1    0    0  501    0  0.00000000000E+00 -0.00000000000E+00 -0.12964602804E+04  0.12964602804E+04  0.00000000000E+00 0. -1.
         23    2    1    2    0    0 -0.32347410551E+02 -0.32053038698E+03 -0.10683737586E+04  0.11196622267E+04  0.91841874176E+02 0.  0.
         13    1    3    3    0    0 -0.27999325349E+02 -0.16323693950E+03 -0.69546893279E+03  0.71491768555E+03  0.00000000000E+00 0. -1.
        -13    1    3    3    0    0 -0.43480852016E+01 -0.15729344748E+03 -0.37290482580E+03  0.40474454112E+03  0.00000000000E+00 0.  1.
         22    1    1    2    0    0  0.32347410551E+02  0.32053038698E+03 -0.74274792314E+02  0.33060978316E+03  0.00000000000E+00 0.  1.
<mgrwt>
<rscale>  0 0.89310872E+03</rscale>
<asrwt>0</asrwt>
<pdfrwt beam="1">  1        2 0.19945543E+00 0.89310872E+03</pdfrwt>
<pdfrwt beam="2">  1       -2 0.23663343E-01 0.89310872E+03</pdfrwt>
<totfact> 0.26361753E+02</totfact>
</mgrwt>
</event>
<event>
 6    1  0.9906445E-006  0.2767475E+04  0.7818608E-02  0.8313438E-01
         -1   -1    0    0    0  501 -0.00000000000E+00  0.00000000000E+00  0.53692554756E+03  0.53692554756E+03  0.00000000000E+00 0.  1.
          1   -1    0    0  501    0  0.00000000000E+00 -0.00000000000E+00 -0.35660991220E+04  0.35660991220E+04  0.00000000000E+00 0. -1.
         23    2    1    2    0    0 -0.13341867976E+04 -0.20723764589E+03 -0.19546560746E+04  0.23774552823E+04  0.92797611851E+02 0.  0.
         13    1    3    3    0    0 -0.11038666210E+04 -0.14590412533E+03 -0.15650807929E+04  0.19207517848E+04  0.00000000000E+00 0.  1.
        -13    1    3    3    0    0 -0.23032017661E+03 -0.61333520564E+02 -0.38957528169E+03  0.45670349747E+03  0.00000000000E+00 0. -1.
         22    1    1    2    0    0  0.13341867976E+04  0.20723764589E+03 -0.10745174998E+04  0.17255693872E+04  0.00000000000E+00 0. -1.
<mgrwt>
<rscale>  0 0.27674752E+04</rscale>
<asrwt>0</asrwt>
<pdfrwt beam="1">  1        1 0.54863064E+00 0.27674752E+04</pdfrwt>
<pdfrwt beam="2">  1       -1 0.82603929E-01 0.27674752E+04</pdfrwt>
<totfact> 0.27995405E-01</totfact>
</mgrwt>
</event>
<event>
 6    1  0.9906445E-006  0.1995940E+04  0.7818608E-02  0.8608521E-01
         -4   -1    0    0    0  501 -0.00000000000E+00  0.00000000000E+00  0.77584652880E+03  0.77584652880E+03  0.00000000000E+00 0.  1.
          4   -1    0    0  501    0  0.00000000000E+00 -0.00000000000E+00 -0.12836873291E+04  0.12836873291E+04  0.00000000000E+00 0. -1.
         23    2    1    2    0    0 -0.29415833399E+03  0.48573856186E+03 -0.10986411243E+04  0.12400729993E+04  0.91091424023E+02 0.  0.
         11    1    3    3    0    0 -0.18815359199E+03  0.34230710500E+03 -0.66574629603E+03  0.77187697141E+03  0.00000000000E+00 0.  1.
        -11    1    3    3    0    0 -0.10600474199E+03  0.14343145687E+03 -0.43289482829E+03  0.46819602786E+03  0.00000000000E+00 0. -1.
         22    1    1    2    0    0  0.29415833399E+03 -0.48573856186E+03  0.59080032403E+03  0.81946085862E+03  0.00000000000E+00 0.  1.
<mgrwt>
<rscale>  0 0.19959402E+04</rscale>
<asrwt>0</asrwt>
<pdfrwt beam="1">  1        4 0.19749035E+00 0.19959402E+04</pdfrwt>
<pdfrwt beam="2">  1       -4 0.11936101E+00 0.19959402E+04</pdfrwt>
<totfact> 0.13636183E-01</totfact>
</mgrwt>
</event>
<event>
 6    1  0.9906445E-006  0.5251806E+03  0.7818608E-02  0.1007408E+00
         -2   -1    0    0    0  501 -0.00000000000E+00  0.00000000000E+00  0.61853035743E+02  0.61853035743E+02  0.00000000000E+00 0.  1.
          2   -1    0    0  501    0  0.00000000000E+00 -0.00000000000E+00 -0.11147985196E+04  0.11147985196E+04  0.00000000000E+00 0. -1.
         23    2    1    2    0    0  0.10201871539E+03  0.19206175376E+03 -0.82804322624E+03  0.86379925627E+03  0.11488270137E+03 0.  0.
         11    1    3    3    0    0  0.59345069617E+02  0.73262599262E+02 -0.55547882675E+03  0.56342343997E+03  0.00000000000E+00 0. -1.
        -11    1    3    3    0    0  0.42673645775E+02  0.11879915450E+03 -0.27256439949E+03  0.30037581630E+03  0.00000000000E+00 0.  1.
         22    1    1    2    0    0 -0.10201871539E+03 -0.19206175376E+03 -0.22490225761E+03  0.31285229906E+03  0.00000000000E+00 0.  1.
<mgrwt>
<rscale>  0 0.52518063E+03</rscale>
<asrwt>0</asrwt>
<pdfrwt beam="1">  1        2 0.17150746E+00 0.52518063E+03</pdfrwt>
<pdfrwt beam="2">  1       -2 0.95158521E-02 0.52518063E+03</pdfrwt>
<totfact> 0.16025195E+03</totfact>
</mgrwt>
</event>
<event>
 6    1  0.9906445E-006  0.1176609E+04  0.7818608E-02  0.9133581E-01
         -2   -1    0    0    0  501 -0.00000000000E+00  0.00000000000E+00  0.50420238779E+03  0.50420238779E+03  0.00000000000E+00 0.  1.
          2   -1    0    0  501    0  0.00000000000E+00 -0.00000000000E+00 -0.68643448086E+03  0.68643448086E+03  0.00000000000E+00 0. -1.
         23    2    1    2    0    0  0.64263057299E+01 -0.44240267820E+03  0.29527837463E+03  0.53965478453E+03  0.90975495900E+02 0.  0.
         11    1    3    3    0    0 -0.12689466312E+02 -0.26878011592E+03  0.22725409571E+03  0.35220476613E+03  0.00000000000E+00 0. -1.
        -11    1    3    3    0    0  0.19115772042E+02 -0.17362256229E+03  0.68024278921E+02  0.18745001840E+03  0.00000000000E+00 0.  1.
         22    1    1    2    0    0 -0.64263057299E+01  0.44240267820E+03 -0.47751046770E+03  0.65098208412E+03  0.00000000000E+00 0. -1.
<mgrwt>
<rscale>  0 0.11766085E+04</rscale>
<asrwt>0</asrwt>
<pdfrwt beam="1">  1        2 0.10560530E+00 0.11766085E+04</pdfrwt>
<pdfrwt beam="2">  1       -2 0.77569598E-01 0.11766085E+04</pdfrwt>
<totfact> 0.61517298E+01</totfact>
</mgrwt>
</event>
<event>
 6    1  0.9906445E-006  0.6081756E+04  0.7818608E-02  0.7680347E-01
          2   -1    0    0  501    0  0.00000000000E+00  0.00000000000E+00  0.26795739293E+04  0.26795739293E+04  0.00000000000E+00 0. -1.
         -2   -1    0    0    0  501 -0.00000000000E+00 -0.00000000000E+00 -0.34508990053E+04  0.34508990053E+04  0.00000000000E+00 0.  1.
         23    2    1    2    0    0 -0.28513500724E+02 -0.17678699929E+04  0.21072063380E+04  0.27522899270E+04  0.92757533282E+02 0.  0.
         13    1    3    3    0    0 -0.55311965560E+02 -0.11081348331E+04  0.12823991972E+04  0.16957505485E+04  0.00000000000E+00 0.  1.
        -13    1    3    3    0    0  0.26798464836E+02 -0.65973515975E+03  0.82480714077E+03  0.10565393784E+04  0.00000000000E+00 0. -1.
         22    1    1    2    0    0  0.28513500724E+02  0.17678699929E+04 -0.28785314140E+04  0.33781830076E+04  0.00000000000E+00 0.  1.
<mgrwt>
<rscale>  0 0.60817560E+04</rscale>
<asrwt>0</asrwt>
<pdfrwt beam="1">  1        2 0.41224215E+00 0.60817560E+04</pdfrwt>
<pdfrwt beam="2">  1       -2 0.53090754E+00 0.60817560E+04</pdfrwt>
<totfact> 0.20084595E-03</totfact>
</mgrwt>
</event>
<event>
 6    1  0.9906445E-006  0.1349969E+04  0.7818608E-02  0.8990851E-01
         -2   -1    0    0    0  501 -0.00000000000E+00  0.00000000000E+00  0.95557269116E+03  0.95557269116E+03  0.00000000000E+00 0.  1.
          2   -1    0    0  501    0  0.00000000000E+00 -0.00000000000E+00 -0.47678650637E+03  0.47678650637E+03  0.00000000000E+00 0. -1.
         23    2    1    2    0    0  0.59913933346E+02  0.15362679802E+03  0.93081331242E+03  0.95119457229E+03  0.10567317212E+03 0.  0.
         13    1    3    3    0    0 -0.12960981677E+02 -0.10234948769E+02  0.78913965506E+02  0.80623539826E+02  0.00000000000E+00 0.  1.
        -13    1    3    3    0    0  0.72874915023E+02  0.16386174679E+03  0.85189934691E+03  0.87057103246E+03  0.00000000000E+00 0. -1.
         22    1    1    2    0    0 -0.59913933346E+02 -0.15362679802E+03 -0.45202712762E+03  0.48116462524E+03  0.00000000000E+00 0. -1.
<mgrwt>
<rscale>  0 0.13499691E+04</rscale>
<asrwt>0</asrwt>
<pdfrwt beam="1">  1        2 0.73351770E-01 0.13499691E+04</pdfrwt>
<pdfrwt beam="2">  1       -2 0.14701118E+00 0.13499691E+04</pdfrwt>
<totfact> 0.20067815E+01</totfact>
</mgrwt>
</event>
<event>
 6    1  0.9906445E-006  0.1562404E+04  0.7818608E-02  0.8843983E-01
          1   -1    0    0  501    0  0.00000000000E+00  0.00000000000E+00  0.15915126715E+04  0.15915126715E+04  0.00000000000E+00 0. -1.
         -1   -1    0    0    0  501 -0.00000000000E+00 -0.00000000000E+00 -0.38345690900E+03  0.38345690900E+03  0.00000000000E+00 0.  1.
         23    2    1    2    0    0 -0.11320985933E+03 -0.66915270290E+03  0.10883296301E+04  0.12858279704E+04  0.91161250642E+02 0.  0.
         11    1    3    3    0    0 -0.83009122080E+02 -0.23938250493E+03  0.42837569417E+03  0.49769491998E+03  0.00000000000E+00 0. -1.
        -11    1    3    3    0    0 -0.30200737252E+02 -0.42977019797E+03  0.65995393592E+03  0.78813305040E+03  0.00000000000E+00 0.  1.
         22    1    1    2    0    0  0.11320985933E+03  0.66915270290E+03  0.11972613242E+03  0.68914161014E+03  0.00000000000E+00 0.  1.
<mgrwt>
<rscale>  0 0.15624040E+04</rscale>
<asrwt>0</asrwt>
<pdfrwt beam="1">  1        1 0.24484810E+00 0.15624040E+04</pdfrwt>
<pdfrwt beam="2">  1       -1 0.58993372E-01 0.15624040E+04</pdfrwt>
<totfact> 0.15852953E+01</totfact>
</mgrwt>
</event>
<event>
 6    1  0.9906445E-006  0.1489293E+04  0.7818608E-02  0.8891605E-01
          2   -1    0    0  501    0  0.00000000000E+00  0.00000000000E+00  0.79973506159E+03  0.79973506159E+03  0.00000000000E+00 0. -1.
         -2   -1    0    0    0  501 -0.00000000000E+00 -0.00000000000E+00 -0.69335237382E+03  0.69335237382E+03  0.00000000000E+00 0.  1.
         23    2    1    2    0    0  0.65911890435E+03 -0.26389222800E+03 -0.16657514234E+03  0.73244112136E+03  0.68160693534E+02 0.  0.
         13    1    3    3    0    0  0.40016767768E+03 -0.13242930621E+03 -0.12051123626E+03  0.43840010204E+03  0.00000000000E+00 0.  1.
        -13    1    3    3    0    0  0.25895122667E+03 -0.13146292179E+03 -0.46063906083E+02  0.29404101932E+03  0.00000000000E+00 0. -1.
         22    1    1    2    0    0 -0.65911890435E+03  0.26389222800E+03  0.27295783011E+03  0.76064631405E+03  0.00000000000E+00 0.  1.
<mgrwt>
<rscale>  0 0.14892927E+04</rscale>
<asrwt>0</asrwt>
<pdfrwt beam="1">  1        2 0.12303616E+00 0.14892927E+04</pdfrwt>
<pdfrwt beam="2">  1       -2 0.10666960E+00 0.14892927E+04</pdfrwt>
<totfact> 0.23585930E+01</totfact>
</mgrwt>
</event>
<event>
 6    1  0.9906445E-006  0.1399304E+04  0.7818608E-02  0.8954323E-01
          2   -1    0    0  501    0  0.00000000000E+00  0.00000000000E+00  0.79178849850E+03  0.79178849850E+03  0.00000000000E+00 0.  1.
         -2   -1    0    0    0  501 -0.00000000000E+00 -0.00000000000E+00 -0.61823667995E+03  0.61823667995E+03  0.00000000000E+00 0. -1.
         23    2    1    2    0    0 -0.66266433127E+03 -0.20293548490E+03  0.14649285235E+02  0.69899997351E+03  0.89886230553E+02 0.  0.
         11    1    3    3    0    0 -0.54458135374E+03 -0.20176672808E+03  0.11799290363E+02  0.58087682571E+03  0.00000000000E+00 0. -1.
        -11    1    3    3    0    0 -0.11808297753E+03 -0.11687568264E+01  0.28499948715E+01  0.11812314780E+03  0.00000000000E+00 0.  1.
         22    1    1    2    0    0  0.66266433127E+03  0.20293548490E+03  0.15890253331E+03  0.71102520494E+03  0.00000000000E+00 0.  1.
<mgrwt>
<rscale>  0 0.13993037E+04</rscale>
<asrwt>0</asrwt>
<pdfrwt beam="1">  1        2 0.12181362E+00 0.13993037E+04</pdfrwt>
<pdfrwt beam="2">  1       -2 0.95113335E-01 0.13993037E+04</pdfrwt>
<totfact> 0.31601343E+01</totfact>
</mgrwt>
</event>
<event>
 6    1  0.9906445E-006  0.4631625E+04  0.7818608E-02  0.7887990E-01
          2   -1    0    0  501    0  0.00000000000E+00  0.00000000000E+00  0.32466762432E+04  0.32466762432E+04  0.00000000000E+00 0.  1.
         -2   -1    0    0    0  501 -0.00000000000E+00 -0.00000000000E+00 -0.16518396220E+04  0.16518396220E+04  0.00000000000E+00 0. -1.
         23    2    1    2    0    0  0.20297356968E+04 -0.74654364160E+03 -0.75397669771E+02  0.21659644944E+04  0.92536341648E+02 0.  0.
         11    1    3    3    0    0  0.26480385632E+03 -0.80841078591E+02 -0.36451483635E+02  0.27925807592E+03  0.00000000000E+00 0. -1.
        -11    1    3    3    0    0  0.17649318405E+04 -0.66570256301E+03 -0.38946186137E+02  0.18867064184E+04  0.00000000000E+00 0.  1.
         22    1    1    2    0    0 -0.20297356968E+04  0.74654364160E+03  0.16702342910E+04  0.27325513709E+04  0.00000000000E+00 0.  1.
<mgrwt>
<rscale>  0 0.46316254E+04</rscale>
<asrwt>0</asrwt>
<pdfrwt beam="1">  1        2 0.49948865E+00 0.46316254E+04</pdfrwt>
<pdfrwt beam="2">  1       -2 0.25412917E+00 0.46316254E+04</pdfrwt>
<totfact> 0.54852623E-02</totfact>
</mgrwt>
</event>
<event>
 6    1  0.9906445E-006  0.8880517E+03  0.7818608E-02  0.9440642E-01
         -2   -1    0    0    0  501 -0.00000000000E+00  0.00000000000E+00  0.89174642363E+02  0.89174642363E+02  0.00000000000E+00 0.  1.
          2   -1    0    0  501    0  0.00000000000E+00 -0.00000000000E+00 -0.22109307241E+04  0.22109307241E+04  0.00000000000E+00 0. -1.
         23    2    1    2    0    0  0.13919673477E+03  0.11191589138E+03 -0.21117274183E+04  0.21212158145E+04  0.90900740572E+02 0.  0.
         11    1    3    3    0    0  0.13673683269E+03  0.12606895479E+03 -0.19464754368E+04  0.19553406273E+04  0.00000000000E+00 0. -1.
        -11    1    3    3    0    0  0.24599020743E+01 -0.14153063412E+02 -0.16525198156E+03  0.16587518721E+03  0.00000000000E+00 0.  1.
         22    1    1    2    0    0 -0.13919673477E+03 -0.11191589138E+03 -0.10028663410E+02  0.17888955197E+03  0.00000000000E+00 0.  1.
<mgrwt>
<rscale>  0 0.88805170E+03</rscale>
<asrwt>0</asrwt>
<pdfrwt beam="1">  1        2 0.34014320E+00 0.88805170E+03</pdfrwt>
<pdfrwt beam="2">  1       -2 0.13719175E-01 0.88805170E+03</pdfrwt>
<totfact> 0.21087977E+02</totfact>
</mgrwt>
</event>
<event>
 6    1  0.9906445E-006  0.3286279E+04  0.7818608E-02  0.8166395E-01
         -2   -1    0    0    0  501 -0.00000000000E+00  0.00000000000E+00  0.10391066020E+04  0.10391066020E+04  0.00000000000E+00 0. -1.
          2   -1    0    0  501    0  0.00000000000E+00 -0.00000000000E+00 -0.25982972768E+04  0.25982972768E+04  0.00000000000E+00 0.  1.
         23    2    1    2    0    0  0.13591207110E+04 -0.62133702176E+03 -0.27475985336E+02  0.14974462409E+04  0.91222326151E+02 0.  0.
         13    1    3    3    0    0  0.80351567256E+03 -0.34364155460E+03 -0.55515163500E+02  0.87567624581E+03  0.00000000000E+00 0. -1.
        -13    1    3    3    0    0  0.55560503847E+03 -0.27769546716E+03  0.28039178164E+02  0.62176999507E+03  0.00000000000E+00 0.  1.
         22    1    1    2    0    0 -0.13591207110E+04  0.62133702176E+03 -0.15317146895E+04  0.21399576378E+04  0.00000000000E+00 0.  1.
<mgrwt>
<rscale>  0 0.32862793E+04</rscale>
<asrwt>0</asrwt>
<pdfrwt beam="1">  1        2 0.39973804E+00 0.32862793E+04</pdfrwt>
<pdfrwt beam="2">  1       -2 0.15986256E+00 0.32862793E+04</pdfrwt>
<totfact> 0.64377363E-01</totfact>
</mgrwt>
</event>
<event>
 6    1  0.9906445E-006  0.2125401E+04  0.7818608E-02  0.8550136E-01
          3   -1    0    0  501    0  0.00000000000E+00  0.00000000000E+00  0.90578166872E+03  0.90578166872E+03  0.00000000000E+00 0. -1.
         -3   -1    0    0    0  501 -0.00000000000E+00 -0.00000000000E+00 -0.12468037118E+04  0.12468037118E+04  0.00000000000E+00 0.  1.
         23    2    1    2    0    0  0.59086253084E+03 -0.27028862438E+03 -0.10199367301E+04  0.12128515761E+04  0.92539405103E+02 0.  0.
         11    1    3    3    0    0  0.43090367189E+03 -0.16083665577E+03 -0.66719289262E+03  0.81036581878E+03  0.00000000000E+00 0.  1.
        -11    1    3    3    0    0  0.15995885895E+03 -0.10945196861E+03 -0.35274383745E+03  0.40248575733E+03  0.00000000000E+00 0. -1.
         22    1    1    2    0    0 -0.59086253084E+03  0.27028862438E+03  0.67891468703E+03  0.93973380438E+03  0.00000000000E+00 0. -1.
<mgrwt>
<rscale>  0 0.21254006E+04</rscale>
<asrwt>0</asrwt>
<pdfrwt beam="1">  1        3 0.13935103E+00 0.21254006E+04</pdfrwt>
<pdfrwt beam="2">  1       -3 0.19181595E+00 0.21254006E+04</pdfrwt>
<totfact> 0.15503533E-01</totfact>
</mgrwt>
</event>
<event>
 6    1  0.9906445E-006  0.1544652E+04  0.7818608E-02  0.8855291E-01
         -1   -1    0    0    0  501 -0.00000000000E+00  0.00000000000E+00  0.72090170132E+03  0.72090170132E+03  0.00000000000E+00 0.  1.
          1   -1    0    0  501    0  0.00000000000E+00 -0.00000000000E+00 -0.82741858781E+03  0.82741858781E+03  0.00000000000E+00 0. -1.
         23    2    1    2    0    0 -0.71045822963E+03 -0.23634606500E+03  0.12725174761E+03  0.76393636987E+03  0.82434285645E+02 0.  0.
         13    1    3    3    0    0 -0.34909780883E+03 -0.73061310898E+02  0.55321884859E+02  0.36092623377E+03  0.00000000000E+00 0. -1.
        -13    1    3    3    0    0 -0.36136042081E+03 -0.16328475410E+03  0.71929862752E+02  0.40301013610E+03  0.00000000000E+00 0.  1.
         22    1    1    2    0    0  0.71045822963E+03  0.23634606500E+03 -0.23376863410E+03  0.78438391925E+03  0.00000000000E+00 0. -1.
<mgrwt>
<rscale>  0 0.15446520E+04</rscale>
<asrwt>0</asrwt>
<pdfrwt beam="1">  1        1 0.12729517E+00 0.15446520E+04</pdfrwt>
<pdfrwt beam="2">  1       -1 0.11090795E+00 0.15446520E+04</pdfrwt>
<totfact> 0.15106707E+01</totfact>
</mgrwt>
</event>
<event>
 6    1  0.9906445E-006  0.2311680E+04  0.7818608E-02  0.8473330E-01
          1   -1    0    0  501    0  0.00000000000E+00  0.00000000000E+00  0.73799747649E+03  0.73799747649E+03  0.00000000000E+00 0. -1.
         -1   -1    0    0    0  501 -0.00000000000E+00 -0.00000000000E+00 -0.18102582769E+04  0.18102582769E+04  0.00000000000E+00 0.  1.
         23    2    1    2    0    0  0.96235499085E+02 -0.44640818393E+03 -0.17052881967E+04  0.17677013206E+04  0.90656423796E+02 0.  0.
         13    1    3    3    0    0  0.85720485484E+02 -0.32444745775E+03 -0.13779033851E+04  0.14181790766E+04  0.00000000000E+00 0.  1.
        -13    1    3    3    0    0  0.10515013601E+02 -0.12196072619E+03 -0.32738481155E+03  0.34952224404E+03  0.00000000000E+00 0. -1.
         22    1    1    2    0    0 -0.96235499085E+02  0.44640818393E+03  0.63302739632E+03  0.78055443273E+03  0.00000000000E+00 0. -1.
<mgrwt>
<rscale>  0 0.23116799E+04</rscale>
<asrwt>0</asrwt>
<pdfrwt beam="1">  1        1 0.11353807E+00 0.23116799E+04</pdfrwt>
<pdfrwt beam="2">  1       -1 0.27850127E+00 0.23116799E+04</pdfrwt>
<totfact> 0.10322870E+00</totfact>
</mgrwt>
</event>
<event>
 6    1  0.9906445E-006  0.2012901E+04  0.7818608E-02  0.8600613E-01
         -2   -1    0    0    0  501 -0.00000000000E+00  0.00000000000E+00  0.25749994715E+04  0.25749994715E+04  0.00000000000E+00 0.  1.
          2   -1    0    0  501    0  0.00000000000E+00 -0.00000000000E+00 -0.39337576639E+03  0.39337576639E+03  0.00000000000E+00 0. -1.
         23    2    1    2    0    0  0.33921013049E+03  0.13969115623E+03  0.24718558391E+04  0.25006019773E+04  0.91443030714E+02 0.  0.
         11    1    3    3    0    0  0.18738946048E+03  0.10101113503E+03  0.16765681219E+04  0.16900292088E+04  0.00000000000E+00 0. -1.
        -11    1    3    3    0    0  0.15182067000E+03  0.38680021199E+02  0.79528771717E+03  0.81057276845E+03  0.00000000000E+00 0.  1.
         22    1    1    2    0    0 -0.33921013049E+03 -0.13969115623E+03 -0.29023213396E+03  0.46777326061E+03  0.00000000000E+00 0. -1.
<mgrwt>
<rscale>  0 0.20129008E+04</rscale>
<asrwt>0</asrwt>
<pdfrwt beam="1">  1        2 0.60519350E-01 0.20129008E+04</pdfrwt>
<pdfrwt beam="2">  1       -2 0.39615375E+00 0.20129008E+04</pdfrwt>
<totfact> 0.59315862E-01</totfact>
</mgrwt>
</event>
<event>
 6    1  0.9906445E-006  0.2821770E+04  0.7818608E-02  0.8296541E-01
          1   -1    0    0  501    0  0.00000000000E+00  0.00000000000E+00  0.13664404042E+04  0.13664404042E+04  0.00000000000E+00 0.  1.
         -1   -1    0    0    0  501 -0.00000000000E+00 -0.00000000000E+00 -0.14567748292E+04  0.14567748292E+04  0.00000000000E+00 0. -1.
         23    2    1    2    0    0 -0.58549590327E+03 -0.11251353617E+04  0.56983274304E+03  0.13933356145E+04  0.89105244916E+02 0.  0.
         13    1    3    3    0    0 -0.19160083598E+03 -0.39116364624E+03  0.24096364271E+03  0.49777842018E+03  0.00000000000E+00 0. -1.
        -13    1    3    3    0    0 -0.39389506729E+03 -0.73397171543E+03  0.32886910033E+03  0.89555719428E+03  0.00000000000E+00 0.  1.
         22    1    1    2    0    0  0.58549590327E+03  0.11251353617E+04 -0.66016716807E+03  0.14298796189E+04  0.00000000000E+00 0. -1.
<mgrwt>
<rscale>  0 0.28217696E+04</rscale>
<asrwt>0</asrwt>
<pdfrwt beam="1">  1        1 0.21022160E+00 0.28217696E+04</pdfrwt>
<pdfrwt beam="2">  1       -1 0.22411920E+00 0.28217696E+04</pdfrwt>
<totfact> 0.72411967E-01</totfact>
</mgrwt>
</event>
<event>
 6    1  0.9906445E-006  0.2199204E+04  0.7818608E-02  0.8518759E-01
         -2   -1    0    0    0  501 -0.00000000000E+00  0.00000000000E+00  0.57416766402E+03  0.57416766402E+03  0.00000000000E+00 0.  1.
          2   -1    0    0  501    0  0.00000000000E+00 -0.00000000000E+00 -0.21058739446E+04  0.21058739446E+04  0.00000000000E+00 0. -1.
         23    2    1    2    0    0 -0.97845882769E+03  0.58866435174E+02 -0.16527429154E+03  0.99838072861E+03  0.92744558531E+02 0.  0.
         13    1    3    3    0    0 -0.46452093307E+03  0.31280490228E+02 -0.12537519783E+03  0.48215879807E+03  0.00000000000E+00 0.  1.
        -13    1    3    3    0    0 -0.51393789462E+03  0.27585944946E+02 -0.39899093706E+02  0.51622193054E+03  0.00000000000E+00 0. -1.
         22    1    1    2    0    0  0.97845882769E+03 -0.58866435174E+02 -0.13664319890E+04  0.16816608800E+04  0.00000000000E+00 0. -1.
<mgrwt>
<rscale>  0 0.21992042E+04</rscale>
<asrwt>0</asrwt>
<pdfrwt beam="1">  1        2 0.32398061E+00 0.21992042E+04</pdfrwt>
<pdfrwt beam="2">  1       -2 0.88333486E-01 0.21992042E+04</pdfrwt>
<totfact> 0.58807698E+00</totfact>
</mgrwt>
</event>
<event>
 6    1  0.9906445E-006  0.3464251E+04  0.7818608E-02  0.8122315E-01
          2   -1    0    0  501    0  0.00000000000E+00  0.00000000000E+00  0.29952526433E+04  0.29952526433E+04  0.00000000000E+00 0. -1.
         -2   -1    0    0    0  501 -0.00000000000E+00 -0.00000000000E+00 -0.10016712871E+04  0.10016712871E+04  0.00000000000E+00 0.  1.
         23    2    1    2    0    0  0.13355600677E+04 -0.58032563209E+03  0.20768271451E+04  0.25383532618E+04  0.97610230903E+02 0.  0.
         11    1    3    3    0    0  0.12457561465E+04 -0.51332733054E+03  0.19226797595E+04  0.23477884876E+04  0.00000000000E+00 0. -1.
        -11    1    3    3    0    0  0.89803921278E+02 -0.66998301548E+02  0.15414738562E+03  0.19056477424E+03  0.00000000000E+00 0.  1.
         22    1    1    2    0    0 -0.13355600677E+04  0.58032563209E+03 -0.83245788921E+02  0.14585706686E+04  0.00000000000E+00 0.  1.
<mgrwt>
<rscale>  0 0.34642509E+04</rscale>
<asrwt>0</asrwt>
<pdfrwt beam="1">  1        2 0.46080810E+00 0.34642509E+04</pdfrwt>
<pdfrwt beam="2">  1       -2 0.15410328E+00 0.34642509E+04</pdfrwt>
<totfact> 0.40255353E-01</totfact>
</mgrwt>
</event>
<event>
 6    1  0.9906445E-006  0.2284925E+04  0.7818608E-02  0.8483889E-01
         -1   -1    0    0    0  501 -0.00000000000E+00  0.00000000000E+00  0.89550526384E+03  0.89550526384E+03  0.00000000000E+00 0.  1.
          1   -1    0    0  501    0  0.00000000000E+00 -0.00000000000E+00 -0.14575244722E+04  0.14575244722E+04  0.00000000000E+00 0. -1.
         23    2    1    2    0    0 -0.10077925330E+04  0.53265353277E+03 -0.23928077269E+03  0.11683248473E+04  0.91444437578E+02 0.  0.
         11    1    3    3    0    0 -0.55203514598E+03  0.24092036255E+03 -0.13417700191E+03  0.61708094391E+03  0.00000000000E+00 0. -1.
        -11    1    3    3    0    0 -0.45575738700E+03  0.29173317022E+03 -0.10510377078E+03  0.55124390340E+03  0.00000000000E+00 0.  1.
         22    1    1    2    0    0  0.10077925330E+04 -0.53265353277E+03 -0.32273843566E+03  0.11847048887E+04  0.00000000000E+00 0.  1.
<mgrwt>
<rscale>  0 0.22849252E+04</rscale>
<asrwt>0</asrwt>
<pdfrwt beam="1">  1        1 0.22423453E+00 0.22849252E+04</pdfrwt>
<pdfrwt beam="2">  1       -1 0.13777004E+00 0.22849252E+04</pdfrwt>
<totfact> 0.27702197E+00</totfact>
</mgrwt>
</event>
<event>
 6    1  0.9906445E-006  0.1675462E+04  0.7818608E-02  0.8775485E-01
          2   -1    0    0  501    0  0.00000000000E+00  0.00000000000E+00  0.22067987875E+04  0.22067987875E+04  0.00000000000E+00 0. -1.
         -2   -1    0    0    0  501 -0.00000000000E+00 -0.00000000000E+00 -0.31801396175E+03  0.31801396175E+03  0.00000000000E+00 0.  1.
         23    2    1    2    0    0  0.72689086018E+01  0.81355686836E+03  0.66226275441E+03  0.10529825938E+04  0.90844767752E+02 0.  0.
         13    1    3    3    0    0  0.20304571483E+02  0.23646222332E+03  0.24203413220E+03  0.33897961566E+03  0.00000000000E+00 0.  1.
        -13    1    3    3    0    0 -0.13035662881E+02  0.57709464503E+03  0.42022862221E+03  0.71400297812E+03  0.00000000000E+00 0. -1.
         22    1    1    2    0    0 -0.72689086018E+01 -0.81355686836E+03  0.12265220714E+04  0.14718301555E+04  0.00000000000E+00 0. -1.
<mgrwt>
<rscale>  0 0.16754615E+04</rscale>
<asrwt>0</asrwt>
<pdfrwt beam="1">  1        2 0.33950750E+00 0.16754615E+04</pdfrwt>
<pdfrwt beam="2">  1       -2 0.48925226E-01 0.16754615E+04</pdfrwt>
<totfact> 0.19314567E+01</totfact>
</mgrwt>
</event>
<event>
 6    1  0.9906445E-006  0.1306072E+04  0.7818608E-02  0.9024764E-01
          1   -1    0    0  501    0  0.00000000000E+00  0.00000000000E+00  0.46732761074E+03  0.46732761074E+03  0.00000000000E+00 0. -1.
         -1   -1    0    0    0  501 -0.00000000000E+00 -0.00000000000E+00 -0.91254158366E+03  0.91254158366E+03  0.00000000000E+00 0.  1.
         23    2    1    2    0    0 -0.45246544126E+03  0.34253393489E+03 -0.55815473060E+03  0.80124143250E+03  0.91633278760E+02 0.  0.
         11    1    3    3    0    0 -0.20362780599E+03  0.19979735366E+03 -0.31710654704E+03  0.42654405174E+03  0.00000000000E+00 0.  1.
        -11    1    3    3    0    0 -0.24883763527E+03  0.14273658124E+03 -0.24104818356E+03  0.37469738076E+03  0.00000000000E+00 0. -1.
         22    1    1    2    0    0  0.45246544126E+03 -0.34253393489E+03  0.11294075768E+03  0.57862776190E+03  0.00000000000E+00 0. -1.
<mgrwt>
<rscale>  0 0.13060718E+04</rscale>
<asrwt>0</asrwt>
<pdfrwt beam="1">  1        1 0.71896557E-01 0.13060718E+04</pdfrwt>
<pdfrwt beam="2">  1       -1 0.14039101E+00 0.13060718E+04</pdfrwt>
<totfact> 0.19878756E+01</totfact>
</mgrwt>
</event>
<event>
 6    1  0.9906445E-006  0.2262898E+04  0.7818608E-02  0.8492695E-01
          1   -1    0    0  501    0  0.00000000000E+00  0.00000000000E+00  0.88569775192E+03  0.88569775192E+03  0.00000000000E+00 0. -1.
         -1   -1    0    0    0  501 -0.00000000000E+00 -0.00000000000E+00 -0.14453883838E+04  0.14453883838E+04  0.00000000000E+00 0.  1.
         23    2    1    2    0    0 -0.75726386184E+03 -0.83816670960E+03 -0.28064623192E+03  0.11675407921E+04  0.91745322455E+02 0.  0.
         13    1    3    3    0    0 -0.24999426104E+03 -0.32772657184E+03 -0.73556800300E+02  0.41870328314E+03  0.00000000000E+00 0.  1.
        -13    1    3    3    0    0 -0.50726960079E+03 -0.51044013776E+03 -0.20708943162E+03  0.74883750895E+03  0.00000000000E+00 0. -1.
         22    1    1    2    0    0  0.75726386184E+03  0.83816670960E+03 -0.27904439997E+03  0.11635453436E+04  0.00000000000E+00 0.  1.
<mgrwt>
<rscale>  0 0.22628984E+04</rscale>
<asrwt>0</asrwt>
<pdfrwt beam="1">  1        1 0.13626119E+00 0.22628984E+04</pdfrwt>
<pdfrwt beam="2">  1       -1 0.22236744E+00 0.22628984E+04</pdfrwt>
<totfact> 0.17988514E+00</totfact>
</mgrwt>
</event>
<event>
 6    1  0.9906445E-006  0.3482140E+04  0.7818608E-02  0.8118036E-01
         -2   -1    0    0    0  501 -0.00000000000E+00  0.00000000000E+00  0.10736060889E+04  0.10736060889E+04  0.00000000000E+00 0. -1.
          2   -1    0    0  501    0  0.00000000000E+00 -0.00000000000E+00 -0.28234978063E+04  0.28234978063E+04  0.00000000000E+00 0.  1.
         23    2    1    2    0    0  0.81671803029E+03 -0.51457728379E+03 -0.24955930728E+04  0.26773134896E+04  0.90579329404E+02 0.  0.
         13    1    3    3    0    0  0.80782554493E+03 -0.50589675963E+03 -0.24243113493E+04  0.26049566524E+04  0.00000000000E+00 0. -1.
        -13    1    3    3    0    0  0.88924853606E+01 -0.86805241520E+01 -0.71281723511E+02  0.72356837287E+02  0.00000000000E+00 0.  1.
         22    1    1    2    0    0 -0.81671803029E+03  0.51457728379E+03  0.74570135544E+03  0.12197904056E+04  0.00000000000E+00 0. -1.
<mgrwt>
<rscale>  0 0.34821398E+04</rscale>
<asrwt>0</asrwt>
<pdfrwt beam="1">  1        2 0.43438427E+00 0.34821398E+04</pdfrwt>
<pdfrwt beam="2">  1       -2 0.16517017E+00 0.34821398E+04</pdfrwt>
<totfact> 0.42492211E-01</totfact>
</mgrwt>
</event>
<event>
 6    1  0.9906445E-006  0.2400231E+04  0.7818608E-02  0.8439417E-01
         -1   -1    0    0    0  501 -0.00000000000E+00  0.00000000000E+00  0.47734386363E+03  0.47734386363E+03  0.00000000000E+00 0. -1.
          1   -1    0    0  501    0  0.00000000000E+00 -0.00000000000E+00 -0.30172746778E+04  0.30172746778E+04  0.00000000000E+00 0.  1.
         23    2    1    2    0    0  0.12352518877E+03  0.56022216798E+03  0.25881330501E+03  0.63768382142E+03  0.10270822504E+03 0.  0.
         11    1    3    3    0    0  0.74738152217E+02  0.49795407867E+03  0.22881288414E+03  0.55308172254E+03  0.00000000000E+00 0.  1.
        -11    1    3    3    0    0  0.48787036552E+02  0.62268089311E+02  0.30000420865E+02  0.84602098875E+02  0.00000000000E+00 0. -1.
         22    1    1    2    0    0 -0.12352518877E+03 -0.56022216798E+03 -0.27987441192E+04  0.28569347200E+04  0.00000000000E+00 0.  1.
<mgrwt>
<rscale>  0 0.24002313E+04</rscale>
<asrwt>0</asrwt>
<pdfrwt beam="1">  1        1 0.46419611E+00 0.24002313E+04</pdfrwt>
<pdfrwt beam="2">  1       -1 0.73437517E-01 0.24002313E+04</pdfrwt>
<totfact> 0.97232023E-01</totfact>
</mgrwt>
</event>
<event>
 6    1  0.9906445E-006  0.3705946E+04  0.7818608E-02  0.8066645E-01
          2   -1    0    0  501    0  0.00000000000E+00  0.00000000000E+00  0.15782484204E+04  0.15782484204E+04  0.00000000000E+00 0.  1.
         -2   -1    0    0    0  501 -0.00000000000E+00 -0.00000000000E+00 -0.21755186526E+04  0.21755186526E+04  0.00000000000E+00 0. -1.
         23    2    1    2    0    0 -0.10901583944E+04  0.13261767600E+04 -0.10021702514E+04  0.19899263349E+04  0.90947686703E+02 0.  0.
         11    1    3    3    0    0 -0.85701373011E+03  0.10013372937E+04 -0.73592649768E+03  0.15095485151E+04  0.00000000000E+00 0.  1.
        -11    1    3    3    0    0 -0.23314466434E+03  0.32483946627E+03 -0.26624375374E+03  0.48037781981E+03  0.00000000000E+00 0. -1.
         22    1    1    2    0    0  0.10901583944E+04 -0.13261767600E+04  0.40490001919E+03  0.17638407381E+04  0.00000000000E+00 0.  1.
<mgrwt>
<rscale>  0 0.37059460E+04</rscale>
<asrwt>0</asrwt>
<pdfrwt beam="1">  1        2 0.24280745E+00 0.37059460E+04</pdfrwt>
<pdfrwt beam="2">  1       -2 0.33469518E+00 0.37059460E+04</pdfrwt>
<totfact> 0.17980368E-01</totfact>
</mgrwt>
</event>
<event>
 6    1  0.9906445E-006  0.3928470E+04  0.7818608E-02  0.8019134E-01
          1   -1    0    0  501    0  0.00000000000E+00  0.00000000000E+00  0.14748632710E+04  0.14748632710E+04  0.00000000000E+00 0. -1.
         -1   -1    0    0    0  501 -0.00000000000E+00 -0.00000000000E+00 -0.26159845457E+04  0.26159845457E+04  0.00000000000E+00 0.  1.
         23    2    1    2    0    0  0.16869722697E+04  0.16088251203E+03  0.46120742799E+03  0.17586351564E+04  0.91250755782E+02 0.  0.
         11    1    3    3    0    0  0.12028176602E+04  0.12361960112E+03  0.28702064586E+03  0.12427521799E+04  0.00000000000E+00 0. -1.
        -11    1    3    3    0    0  0.48415460954E+03  0.37262910909E+02  0.17418678214E+03  0.51588297660E+03  0.00000000000E+00 0.  1.
         22    1    1    2    0    0 -0.16869722697E+04 -0.16088251203E+03 -0.16023287026E+04  0.23322126603E+04  0.00000000000E+00 0.  1.
<mgrwt>
<rscale>  0 0.39284702E+04</rscale>
<asrwt>0</asrwt>
<pdfrwt beam="1">  1        1 0.22690204E+00 0.39284702E+04</pdfrwt>
<pdfrwt beam="2">  1       -1 0.40245916E+00 0.39284702E+04</pdfrwt>
<totfact> 0.36867703E-02</totfact>
</mgrwt>
</event>
<event>
 6    1  0.9906445E-006  0.1139925E+04  0.7818608E-02  0.9167129E-01
          2   -1    0    0  501    0  0.00000000000E+00  0.00000000000E+00  0.16656221580E+04  0.16656221580E+04  0.00000000000E+00 0. -1.
         -2   -1    0    0    0  501 -0.00000000000E+00 -0.00000000000E+00 -0.19503656125E+03  0.19503656125E+03  0.00000000000E+00 0.  1.
         23    2    1    2    0    0 -0.18830822306E+03 -0.41143755957E+03  0.12971504318E+04  0.13760757968E+04  0.79022170212E+02 0.  0.
         13    1    3    3    0    0 -0.75221696642E+02 -0.83624953368E+02  0.30660045684E+03  0.32658119451E+03  0.00000000000E+00 0. -1.
        -13    1    3    3    0    0 -0.11308652642E+03 -0.32781260621E+03  0.99054997498E+03  0.10494946023E+04  0.00000000000E+00 0.  1.
         22    1    1    2    0    0  0.18830822306E+03  0.41143755957E+03  0.17343516490E+03  0.48458292244E+03  0.00000000000E+00 0.  1.
<mgrwt>
<rscale>  0 0.11399249E+04</rscale>
<asrwt>0</asrwt>
<pdfrwt beam="1">  1        2 0.25624955E+00 0.11399249E+04</pdfrwt>
<pdfrwt beam="2">  1       -2 0.30005626E-01 0.11399249E+04</pdfrwt>
<totfact> 0.10403788E+02</totfact>
</mgrwt>
</event>
<event>
 6    1  0.9906445E-006  0.3491234E+04  0.7818608E-02  0.8115871E-01
          1   -1    0    0  501    0  0.00000000000E+00  0.00000000000E+00  0.20566958679E+04  0.20566958679E+04  0.00000000000E+00 0. -1.
         -1   -1    0    0    0  501 -0.00000000000E+00 -0.00000000000E+00 -0.14815893777E+04  0.14815893777E+04  0.00000000000E+00 0.  1.
         23    2    1    2    0    0 -0.13973987309E+04 -0.54422934571E+03  0.11908354040E+04  0.19171649882E+04  0.92324637338E+02 0.  0.
         13    1    3    3    0    0 -0.39951630865E+03 -0.12196200963E+03  0.36622704820E+03  0.55552701419E+03  0.00000000000E+00 0.  1.
        -13    1    3    3    0    0 -0.99788242222E+03 -0.42226733608E+03  0.82460835579E+03  0.13616379740E+04  0.00000000000E+00 0. -1.
         22    1    1    2    0    0  0.13973987309E+04  0.54422934571E+03 -0.61572891374E+03  0.16211202574E+04  0.00000000000E+00 0. -1.
<mgrwt>
<rscale>  0 0.34912340E+04</rscale>
<asrwt>0</asrwt>
<pdfrwt beam="1">  1        1 0.31641475E+00 0.34912340E+04</pdfrwt>
<pdfrwt beam="2">  1       -1 0.22793683E+00 0.34912340E+04</pdfrwt>
<totfact> 0.21692428E-01</totfact>
</mgrwt>
</event>
<event>
 6    1  0.9906445E-006  0.2100738E+04  0.7818608E-02  0.8560918E-01
         -2   -1    0    0    0  501 -0.00000000000E+00  0.00000000000E+00  0.16060806800E+04  0.16060806800E+04  0.00000000000E+00 0.  1.
          2   -1    0    0  501    0  0.00000000000E+00 -0.00000000000E+00 -0.68693613705E+03  0.68693613705E+03  0.00000000000E+00 0. -1.
         23    2    1    2    0    0  0.22668852179E+03 -0.82723644804E+03  0.11186892288E+04  0.14123773287E+04  0.87385931066E+02 0.  0.
         13    1    3    3    0    0  0.22604609501E+03 -0.71385621908E+03  0.97074195917E+03  0.12259802159E+04  0.00000000000E+00 0.  1.
        -13    1    3    3    0    0  0.64242677744E+00 -0.11338022897E+03  0.14794726965E+03  0.18639711272E+03  0.00000000000E+00 0. -1.
         22    1    1    2    0    0 -0.22668852179E+03  0.82723644804E+03 -0.19954468585E+03  0.88063948840E+03  0.00000000000E+00 0. -1.
<mgrwt>
<rscale>  0 0.21007378E+04</rscale>
<asrwt>0</asrwt>
<pdfrwt beam="1">  1        2 0.10568248E+00 0.21007378E+04</pdfrwt>
<pdfrwt beam="2">  1       -2 0.24708933E+00 0.21007378E+04</pdfrwt>
<totfact> 0.25889333E+00</totfact>
</mgrwt>
</event>
<event>
 6    1  0.9906445E-006  0.3513482E+04  0.7818608E-02  0.8110602E-01
          2   -1    0    0  501    0  0.00000000000E+00  0.00000000000E+00  0.32922367712E+04  0.32922367712E+04  0.00000000000E+00 0. -1.
         -2   -1    0    0    0  501 -0.00000000000E+00 -0.00000000000E+00 -0.93739902258E+03  0.93739902258E+03  0.00000000000E+00 0.  1.
         23    2    1    2    0    0 -0.79767623157E+03  0.14958304021E+04  0.62930600397E+03  0.18106988859E+04  0.93853324807E+02 0.  0.
         13    1    3    3    0    0 -0.53309251941E+03  0.90275000799E+03  0.38816893792E+03  0.11179536375E+04  0.00000000000E+00 0. -1.
        -13    1    3    3    0    0 -0.26458371216E+03  0.59308039413E+03  0.24113706605E+03  0.69274524846E+03  0.00000000000E+00 0.  1.
         22    1    1    2    0    0  0.79767623157E+03 -0.14958304021E+04  0.17255317447E+04  0.24189369079E+04  0.00000000000E+00 0.  1.
<mgrwt>
<rscale>  0 0.35134823E+04</rscale>
<asrwt>0</asrwt>
<pdfrwt beam="1">  1        2 0.50649796E+00 0.35134823E+04</pdfrwt>
<pdfrwt beam="2">  1       -2 0.14421524E+00 0.35134823E+04</pdfrwt>
<totfact> 0.30715399E-01</totfact>
</mgrwt>
</event>
<event>
 6    1  0.9906445E-006  0.1839746E+04  0.7818608E-02  0.8685444E-01
         -2   -1    0    0    0  501 -0.00000000000E+00  0.00000000000E+00  0.34119389577E+03  0.34119389577E+03  0.00000000000E+00 0.  1.
          2   -1    0    0  501    0  0.00000000000E+00 -0.00000000000E+00 -0.24800161136E+04  0.24800161136E+04  0.00000000000E+00 0. -1.
         23    2    1    2    0    0  0.32533317497E+03 -0.23551271769E+03  0.19311629378E+03  0.45493759546E+03  0.91468015747E+02 0.  0.
         13    1    3    3    0    0  0.73308188187E+02 -0.51590408734E+02  0.88232633737E+02  0.12578019870E+03  0.00000000000E+00 0. -1.
        -13    1    3    3    0    0  0.25202498679E+03 -0.18392230895E+03  0.10488366004E+03  0.32915739676E+03  0.00000000000E+00 0.  1.
         22    1    1    2    0    0 -0.32533317497E+03  0.23551271769E+03 -0.23319385116E+04  0.23662724139E+04  0.00000000000E+00 0. -1.
<mgrwt>
<rscale>  0 0.18397460E+04</rscale>
<asrwt>0</asrwt>
<pdfrwt beam="1">  1        2 0.38154094E+00 0.18397460E+04</pdfrwt>
<pdfrwt beam="2">  1       -2 0.52491368E-01 0.18397460E+04</pdfrwt>
<totfact> 0.11533507E+01</totfact>
</mgrwt>
</event>
<event>
 6    1  0.9906445E-006  0.2082185E+04  0.7818608E-02  0.8569132E-01
         -1   -1    0    0    0  501 -0.00000000000E+00  0.00000000000E+00  0.74862048434E+03  0.74862048434E+03  0.00000000000E+00 0.  1.
          1   -1    0    0  501    0  0.00000000000E+00 -0.00000000000E+00 -0.14478273753E+04  0.14478273753E+04  0.00000000000E+00 0. -1.
         23    2    1    2    0    0  0.10187133212E+04 -0.17392371214E+03 -0.46516138950E+03  0.11368235936E+04  0.89255118561E+02 0.  0.
         11    1    3    3    0    0  0.75925382650E+03 -0.10675923602E+03 -0.37915995014E+03  0.85535149227E+03  0.00000000000E+00 0. -1.
        -11    1    3    3    0    0  0.25945949472E+03 -0.67164476118E+02 -0.86001439355E+02  0.28147210132E+03  0.00000000000E+00 0.  1.
         22    1    1    2    0    0 -0.10187133212E+04  0.17392371214E+03 -0.23404550149E+03  0.10596242661E+04  0.00000000000E+00 0.  1.
<mgrwt>
<rscale>  0 0.20821847E+04</rscale>
<asrwt>0</asrwt>
<pdfrwt beam="1">  1        1 0.22274267E+00 0.20821847E+04</pdfrwt>
<pdfrwt beam="2">  1       -1 0.11517238E+00 0.20821847E+04</pdfrwt>
<totfact> 0.44805464E+00</totfact>
</mgrwt>
</event>
<event>
 6    1  0.9906445E-006  0.1726023E+04  0.7818608E-02  0.8746660E-01
          2   -1    0    0  501    0  0.00000000000E+00  0.00000000000E+00  0.19792665411E+04  0.19792665411E+04  0.00000000000E+00 0. -1.
         -2   -1    0    0    0  501 -0.00000000000E+00 -0.00000000000E+00 -0.37629541465E+03  0.37629541465E+03  0.00000000000E+00 0.  1.
         23    2    1    2    0    0  0.35350468407E+03 -0.76993439122E+03  0.10105202996E+04  0.13217522485E+04  0.90073315793E+02 0.  0.
         13    1    3    3    0    0  0.30806143964E+03 -0.58051815465E+03  0.77954471405E+03  0.10196044035E+04  0.00000000000E+00 0.  1.
        -13    1    3    3    0    0  0.45443244428E+02 -0.18941623657E+03  0.23097558553E+03  0.30214784502E+03  0.00000000000E+00 0. -1.
         22    1    1    2    0    0 -0.35350468407E+03  0.76993439122E+03  0.59245082685E+03  0.10338097072E+04  0.00000000000E+00 0.  1.
<mgrwt>
<rscale>  0 0.17260231E+04</rscale>
<asrwt>0</asrwt>
<pdfrwt beam="1">  1        2 0.30450254E+00 0.17260231E+04</pdfrwt>
<pdfrwt beam="2">  1       -2 0.57891604E-01 0.17260231E+04</pdfrwt>
<totfact> 0.18197913E+01</totfact>
</mgrwt>
</event>
<event>
 6    1  0.9906445E-006  0.1532116E+04  0.7818608E-02  0.8863372E-01
         -2   -1    0    0    0  501 -0.00000000000E+00  0.00000000000E+00  0.89713522005E+03  0.89713522005E+03  0.00000000000E+00 0.  1.
          2   -1    0    0  501    0  0.00000000000E+00 -0.00000000000E+00 -0.65413241269E+03  0.65413241269E+03  0.00000000000E+00 0. -1.
         23    2    1    2    0    0  0.17835148955E+03  0.70436830282E+03 -0.11497557908E+03  0.74127227165E+03  0.91220815026E+02 0.  0.
         13    1    3    3    0    0  0.11813689731E+03  0.36498447882E+03 -0.21946589155E+02  0.38425466694E+03  0.00000000000E+00 0. -1.
        -13    1    3    3    0    0  0.60214592237E+02  0.33938382400E+03 -0.93028989928E+02  0.35701760471E+03  0.00000000000E+00 0.  1.
         22    1    1    2    0    0 -0.17835148955E+03 -0.70436830282E+03  0.35797838644E+03  0.80999536110E+03  0.00000000000E+00 0.  1.
<mgrwt>
<rscale>  0 0.15321165E+04</rscale>
<asrwt>0</asrwt>
<pdfrwt beam="1">  1        2 0.10063576E+00 0.15321165E+04</pdfrwt>
<pdfrwt beam="2">  1       -2 0.13802080E+00 0.15321165E+04</pdfrwt>
<totfact> 0.16017105E+01</totfact>
</mgrwt>
</event>
<event>
 6    1  0.9906445E-006  0.2500969E+04  0.7818608E-02  0.8402640E-01
          1   -1    0    0  501    0  0.00000000000E+00  0.00000000000E+00  0.42549351612E+04  0.42549351612E+04  0.00000000000E+00 0. -1.
         -1   -1    0    0    0  501 -0.00000000000E+00 -0.00000000000E+00 -0.36750547725E+03  0.36750547725E+03  0.00000000000E+00 0.  1.
         23    2    1    2    0    0 -0.10804226095E+04  0.22962543831E+03  0.30232747461E+04  0.32200125250E+04  0.90827381554E+02 0.  0.
         13    1    3    3    0    0 -0.73886200527E+03  0.15373476345E+03  0.21843819568E+04  0.23110767995E+04  0.00000000000E+00 0. -1.
        -13    1    3    3    0    0 -0.34156060419E+03  0.75890674862E+02  0.83889278939E+03  0.90893572543E+03  0.00000000000E+00 0.  1.
         22    1    1    2    0    0  0.10804226095E+04 -0.22962543831E+03  0.86415493779E+03  0.14024281135E+04  0.00000000000E+00 0.  1.
<mgrwt>
<rscale>  0 0.25009694E+04</rscale>
<asrwt>0</asrwt>
<pdfrwt beam="1">  1        1 0.65460537E+00 0.25009694E+04</pdfrwt>
<pdfrwt beam="2">  1       -1 0.56539307E-01 0.25009694E+04</pdfrwt>
<totfact> 0.15856378E-01</totfact>
</mgrwt>
</event>
<event>
 6    1  0.9906445E-006  0.2144393E+04  0.7818608E-02  0.8541936E-01
         -1   -1    0    0    0  501 -0.00000000000E+00  0.00000000000E+00  0.48765034205E+03  0.48765034205E+03  0.00000000000E+00 0.  1.
          1   -1    0    0  501    0  0.00000000000E+00 -0.00000000000E+00 -0.23574387663E+04  0.23574387663E+04  0.00000000000E+00 0. -1.
         23    2    1    2    0    0  0.29402112380E+03 -0.73924651406E+03 -0.18863752687E+04  0.20493448321E+04  0.92025849557E+02 0.  0.
         13    1    3    3    0    0  0.12309068758E+03 -0.37032523896E+03 -0.10267263826E+04  0.10983893503E+04  0.00000000000E+00 0. -1.
        -13    1    3    3    0    0  0.17093043622E+03 -0.36892127510E+03 -0.85964888602E+03  0.95095548186E+03  0.00000000000E+00 0.  1.
         22    1    1    2    0    0 -0.29402112380E+03  0.73924651406E+03  0.16586844379E+02  0.79574427626E+03  0.00000000000E+00 0.  1.
<mgrwt>
<rscale>  0 0.21443935E+04</rscale>
<asrwt>0</asrwt>
<pdfrwt beam="1">  1        1 0.36268289E+00 0.21443935E+04</pdfrwt>
<pdfrwt beam="2">  1       -1 0.75023129E-01 0.21443935E+04</pdfrwt>
<totfact> 0.27821111E+00</totfact>
</mgrwt>
</event>
<event>
 6    1  0.9906445E-006  0.1178377E+04  0.7818608E-02  0.9131996E-01
          2   -1    0    0  501    0  0.00000000000E+00  0.00000000000E+00  0.36599007493E+03  0.36599007493E+03  0.00000000000E+00 0.  1.
         -2   -1    0    0    0  501 -0.00000000000E+00 -0.00000000000E+00 -0.94850454770E+03  0.94850454770E+03  0.00000000000E+00 0. -1.
         23    2    1    2    0    0 -0.95598115249E+02 -0.38232784571E+03 -0.77615159602E+03  0.87539450108E+03  0.92685766246E+02 0.  0.
         11    1    3    3    0    0 -0.55395926743E+02 -0.21714571538E+03 -0.53783433600E+03  0.58265490934E+03  0.00000000000E+00 0.  1.
        -11    1    3    3    0    0 -0.40202188506E+02 -0.16518213033E+03 -0.23831726003E+03  0.29273959174E+03  0.00000000000E+00 0. -1.
         22    1    1    2    0    0  0.95598115249E+02  0.38232784571E+03  0.19363712325E+03  0.43910012155E+03  0.00000000000E+00 0.  1.
<mgrwt>
<rscale>  0 0.11783773E+04</rscale>
<asrwt>0</asrwt>
<pdfrwt beam="1">  1        2 0.56306166E-01 0.11783773E+04</pdfrwt>
<pdfrwt beam="2">  1       -2 0.14592378E+00 0.11783773E+04</pdfrwt>
<totfact> 0.27957337E+01</totfact>
</mgrwt>
</event>
<event>
 6    1  0.9906445E-006  0.3072338E+04  0.7818608E-02  0.8223371E-01
         -1   -1    0    0    0  501 -0.00000000000E+00  0.00000000000E+00  0.76753070730E+03  0.76753070730E+03  0.00000000000E+00 0.  1.
          1   -1    0    0  501    0  0.00000000000E+00 -0.00000000000E+00 -0.30745547865E+04  0.30745547865E+04  0.00000000000E+00 0. -1.
         23    2    1    2    0    0 -0.13729831104E+04 -0.51004965316E+03 -0.58091673787E+03  0.15783099255E+04  0.91458703554E+02 0.  0.
         13    1    3    3    0    0 -0.27880031797E+03 -0.68505495935E+02 -0.97350025485E+02  0.30314954682E+03  0.00000000000E+00 0. -1.
        -13    1    3    3    0    0 -0.10941827924E+04 -0.44154415722E+03 -0.48356671238E+03  0.12751603786E+04  0.00000000000E+00 0.  1.
         22    1    1    2    0    0  0.13729831104E+04  0.51004965316E+03 -0.17261073413E+04  0.22637755683E+04  0.00000000000E+00 0. -1.
<mgrwt>
<rscale>  0 0.30723380E+04</rscale>
<asrwt>0</asrwt>
<pdfrwt beam="1">  1        1 0.47300843E+00 0.30723380E+04</pdfrwt>
<pdfrwt beam="2">  1       -1 0.11808165E+00 0.30723380E+04</pdfrwt>
<totfact> 0.28679383E-01</totfact>
</mgrwt>
</event>
<event>
 6    1  0.9906445E-006  0.3698094E+04  0.7818608E-02  0.8068384E-01
         -2   -1    0    0    0  501 -0.00000000000E+00  0.00000000000E+00  0.12786670775E+04  0.12786670775E+04  0.00000000000E+00 0.  1.
          2   -1    0    0  501    0  0.00000000000E+00 -0.00000000000E+00 -0.26738586973E+04  0.26738586973E+04  0.00000000000E+00 0. -1.
         23    2    1    2    0    0  0.16499876542E+03 -0.65729210132E+03 -0.25349978428E+04  0.26264730892E+04  0.11353116947E+03 0.  0.
         13    1    3    3    0    0  0.69498170232E+02 -0.48510085909E+03 -0.18348491744E+04  0.18991641140E+04  0.00000000000E+00 0. -1.
        -13    1    3    3    0    0  0.95500595183E+02 -0.17219124223E+03 -0.70014866838E+03  0.72730897520E+03  0.00000000000E+00 0.  1.
         22    1    1    2    0    0 -0.16499876542E+03  0.65729210132E+03  0.11398062230E+04  0.13260526856E+04  0.00000000000E+00 0.  1.
<mgrwt>
<rscale>  0 0.36980942E+04</rscale>
<asrwt>0</asrwt>
<pdfrwt beam="1">  1        2 0.41136287E+00 0.36980942E+04</pdfrwt>
<pdfrwt beam="2">  1       -2 0.19671801E+00 0.36980942E+04</pdfrwt>
<totfact> 0.31103391E-01</totfact>
</mgrwt>
</event>
<event>
 6    1  0.9906445E-006  0.2797346E+04  0.7818608E-02  0.8304093E-01
          1   -1    0    0  501    0  0.00000000000E+00  0.00000000000E+00  0.23626731600E+04  0.23626731600E+04  0.00000000000E+00 0. -1.
         -1   -1    0    0    0  501 -0.00000000000E+00 -0.00000000000E+00 -0.82799679053E+03  0.82799679053E+03  0.00000000000E+00 0.  1.
         23    2    1    2    0    0  0.10479326202E+04 -0.88645978170E+03  0.10656706634E+04  0.17401734585E+04  0.92606596980E+02 0.  0.
         13    1    3    3    0    0  0.94357037427E+03 -0.78934014514E+03  0.98802257046E+03  0.15778376075E+04  0.00000000000E+00 0. -1.
        -13    1    3    3    0    0  0.10436224594E+03 -0.97119636558E+02  0.77648092930E+02  0.16233585100E+03  0.00000000000E+00 0.  1.
         22    1    1    2    0    0 -0.10479326202E+04  0.88645978170E+03  0.46900570610E+03  0.14504964920E+04  0.00000000000E+00 0.  1.
<mgrwt>
<rscale>  0 0.27973457E+04</rscale>
<asrwt>0</asrwt>
<pdfrwt beam="1">  1        1 0.36348818E+00 0.27973457E+04</pdfrwt>
<pdfrwt beam="2">  1       -1 0.12738412E+00 0.27973457E+04</pdfrwt>
<totfact> 0.77884672E-01</totfact>
</mgrwt>
</event>
<event>
 6    1  0.9906445E-006  0.4800554E+04  0.7818608E-02  0.7860032E-01
         -1   -1    0    0    0  501 -0.00000000000E+00  0.00000000000E+00  0.46715553953E+04  0.46715553953E+04  0.00000000000E+00 0.  1.
          1   -1    0    0  501    0  0.00000000000E+00 -0.00000000000E+00 -0.12332789117E+04  0.12332789117E+04  0.00000000000E+00 0. -1.
         23    2    1    2    0    0 -0.40833174949E+03 -0.18460300593E+04  0.35369046635E+04  0.40116123668E+04  0.93687699863E+02 0.  0.
         11    1    3    3    0    0 -0.22327227083E+03 -0.86458062837E+03  0.15959832078E+04  0.18288008556E+04  0.00000000000E+00 0.  1.
        -11    1    3    3    0    0 -0.18505947866E+03 -0.98144943088E+03  0.19409214557E+04  0.21828115112E+04  0.00000000000E+00 0. -1.
         22    1    1    2    0    0  0.40833174949E+03  0.18460300593E+04 -0.98628179905E+02  0.18932219403E+04  0.00000000000E+00 0. -1.
<mgrwt>
<rscale>  0 0.48005544E+04</rscale>
<asrwt>0</asrwt>
<pdfrwt beam="1">  1        1 0.18973522E+00 0.48005544E+04</pdfrwt>
<pdfrwt beam="2">  1       -1 0.71870082E+00 0.48005544E+04</pdfrwt>
<totfact> 0.12777037E-03</totfact>
</mgrwt>
</event>
<event>
 6    1  0.9906445E-006  0.3672854E+04  0.7818608E-02  0.8074004E-01
          2   -1    0    0  501    0  0.00000000000E+00  0.00000000000E+00  0.16346263474E+04  0.16346263474E+04  0.00000000000E+00 0. -1.
         -2   -1    0    0    0  501 -0.00000000000E+00 -0.00000000000E+00 -0.20631411064E+04  0.20631411064E+04  0.00000000000E+00 0.  1.
         23    2    1    2    0    0 -0.13548499540E+04  0.12050473218E+04  0.71288765428E+02  0.18169269479E+04  0.91564187244E+02 0.  0.
         13    1    3    3    0    0 -0.90489283759E+03  0.84529593304E+03  0.18563119323E+02  0.12384267646E+04  0.00000000000E+00 0.  1.
        -13    1    3    3    0    0 -0.44995711638E+03  0.35975138875E+03  0.52725646105E+02  0.57850018328E+03  0.00000000000E+00 0. -1.
         22    1    1    2    0    0  0.13548499540E+04 -0.12050473218E+04 -0.49980352439E+03  0.18808405059E+04  0.00000000000E+00 0. -1.
<mgrwt>
<rscale>  0 0.36728544E+04</rscale>
<asrwt>0</asrwt>
<pdfrwt beam="1">  1        2 0.25148098E+00 0.36728544E+04</pdfrwt>
<pdfrwt beam="2">  1       -2 0.31740632E+00 0.36728544E+04</pdfrwt>
<totfact> 0.21464506E-01</totfact>
</mgrwt>
</event>
<event>
 6    1  0.9906445E-006  0.8017737E+03  0.7818608E-02  0.9557453E-01
         -1   -1    0    0    0  501 -0.00000000000E+00  0.00000000000E+00  0.82663259371E+02  0.82663259371E+02  0.00000000000E+00 0.  1.
          1   -1    0    0  501    0  0.00000000000E+00 -0.00000000000E+00 -0.19441558197E+04  0.19441558197E+04  0.00000000000E+00 0. -1.
         23    2    1    2    0    0  0.42947063509E+02 -0.39051416185E+03 -0.82356033487E+03  0.91702222130E+03  0.91281807197E+02 0.  0.
         13    1    3    3    0    0  0.22265818304E+02 -0.10031356378E+03 -0.31239643105E+03  0.32886183707E+03  0.00000000000E+00 0.  1.
        -13    1    3    3    0    0  0.20681245205E+02 -0.29020059807E+03 -0.51116390381E+03  0.58816038423E+03  0.00000000000E+00 0. -1.
         22    1    1    2    0    0 -0.42947063509E+02  0.39051416185E+03 -0.10379322255E+04  0.11097968578E+04  0.00000000000E+00 0. -1.
<mgrwt>
<rscale>  0 0.80177368E+03</rscale>
<asrwt>0</asrwt>
<pdfrwt beam="1">  1        1 0.29910086E+00 0.80177368E+03</pdfrwt>
<pdfrwt beam="2">  1       -1 0.12717426E-01 0.80177368E+03</pdfrwt>
<totfact> 0.14307833E+02</totfact>
</mgrwt>
</event>
<event>
 6    1  0.9906445E-006  0.5613344E+03  0.7818608E-02  0.9989040E-01
         -1   -1    0    0    0  501 -0.00000000000E+00  0.00000000000E+00  0.79527419548E+02  0.79527419548E+02  0.00000000000E+00 0.  1.
          1   -1    0    0  501    0  0.00000000000E+00 -0.00000000000E+00 -0.99052740437E+03  0.99052740437E+03  0.00000000000E+00 0. -1.
         23    2    1    2    0    0  0.12438151593E+03  0.23959385721E+03 -0.54899852391E+03  0.61847865580E+03  0.90777147436E+02 0.  0.
         13    1    3    3    0    0  0.69006431043E+02  0.47226641768E+02 -0.18631270069E+03  0.20421720216E+03  0.00000000000E+00 0. -1.
        -13    1    3    3    0    0  0.55375084883E+02  0.19236721544E+03 -0.36268582322E+03  0.41426145364E+03  0.00000000000E+00 0.  1.
         22    1    1    2    0    0 -0.12438151593E+03 -0.23959385721E+03 -0.36200146091E+03  0.45157616813E+03  0.00000000000E+00 0.  1.
<mgrwt>
<rscale>  0 0.56133444E+03</rscale>
<asrwt>0</asrwt>
<pdfrwt beam="1">  1        1 0.15238884E+00 0.56133444E+03</pdfrwt>
<pdfrwt beam="2">  1       -1 0.12234987E-01 0.56133444E+03</pdfrwt>
<totfact> 0.71430460E+02</totfact>
</mgrwt>
</event>
<event>
 6    1  0.1157784E-005  0.3744124E+04  0.7818608E-02  0.8058253E-01
         -2   -1    0    0    0  501 -0.00000000000E+00  0.00000000000E+00  0.12959311995E+04  0.12959311995E+04  0.00000000000E+00 0.  1.
          2   -1    0    0  501    0  0.00000000000E+00 -0.00000000000E+00 -0.27043232464E+04  0.27043232464E+04  0.00000000000E+00 0. -1.
         23    2    1    2    0    0 -0.16865671334E+04 -0.74483691359E+03 -0.36536296628E+03  0.18819531485E+04  0.94693363165E+02 0.  0.
         13    1    3    3    0    0 -0.43764500272E+03 -0.23892646192E+03 -0.93824778022E+02  0.50736780700E+03  0.00000000000E+00 0. -1.
        -13    1    3    3    0    0 -0.12489221306E+04 -0.50591045167E+03 -0.27153818825E+03  0.13745853415E+04  0.00000000000E+00 0.  1.
         22    1    1    2    0    0  0.16865671334E+04  0.74483691359E+03 -0.10430290806E+04  0.21183012973E+04  0.00000000000E+00 0. -1.
<mgrwt>
<rscale>  0 0.37441244E+04</rscale>
<asrwt>0</asrwt>
<pdfrwt beam="1">  1        2 0.41604972E+00 0.37441244E+04</pdfrwt>
<pdfrwt beam="2">  1       -2 0.19937404E+00 0.37441244E+04</pdfrwt>
<totfact> 0.28542711E-01</totfact>
</mgrwt>
</event>
<event>
 6    1  0.9906445E-006  0.1060935E+04  0.7818608E-02  0.9244127E-01
         -1   -1    0    0    0  501 -0.00000000000E+00  0.00000000000E+00  0.18672465631E+03  0.18672465631E+03  0.00000000000E+00 0.  1.
          1   -1    0    0  501    0  0.00000000000E+00 -0.00000000000E+00 -0.15070079729E+04  0.15070079729E+04  0.00000000000E+00 0. -1.
         23    2    1    2    0    0  0.42506199578E+03 -0.20778665867E+03 -0.29598646691E+03  0.56544320177E+03  0.90912210754E+02 0.  0.
         11    1    3    3    0    0  0.22773701053E+03 -0.15927570891E+03 -0.15610062171E+03  0.31874802197E+03  0.00000000000E+00 0. -1.
        -11    1    3    3    0    0  0.19732498525E+03 -0.48510949758E+02 -0.13988584520E+03  0.24669517980E+03  0.00000000000E+00 0.  1.
         22    1    1    2    0    0 -0.42506199578E+03  0.20778665867E+03 -0.10242968497E+04  0.11282894274E+04  0.00000000000E+00 0. -1.
<mgrwt>
<rscale>  0 0.10609346E+04</rscale>
<asrwt>0</asrwt>
<pdfrwt beam="1">  1        1 0.23184737E+00 0.10609346E+04</pdfrwt>
<pdfrwt beam="2">  1       -1 0.28726871E-01 0.10609346E+04</pdfrwt>
<totfact> 0.71133697E+01</totfact>
</mgrwt>
</event>
<event>
 6    1  0.9906445E-006  0.1680536E+04  0.7818608E-02  0.8772544E-01
         -2   -1    0    0    0  501 -0.00000000000E+00  0.00000000000E+00  0.37776393407E+03  0.37776393407E+03  0.00000000000E+00 0.  1.
          2   -1    0    0  501    0  0.00000000000E+00 -0.00000000000E+00 -0.18690260540E+04  0.18690260540E+04  0.00000000000E+00 0. -1.
         23    2    1    2    0    0 -0.13534980373E+03 -0.73941002469E+03 -0.12422788375E+04  0.14549317754E+04  0.92320133902E+02 0.  0.
         11    1    3    3    0    0 -0.10567618148E+03 -0.40163403143E+03 -0.61945184824E+03  0.74578679448E+03  0.00000000000E+00 0.  1.
        -11    1    3    3    0    0 -0.29673622254E+02 -0.33777599326E+03 -0.62282698921E+03  0.70914498093E+03  0.00000000000E+00 0. -1.
         22    1    1    2    0    0  0.13534980373E+03  0.73941002469E+03 -0.24898328246E+03  0.79185821264E+03  0.00000000000E+00 0.  1.
<mgrwt>
<rscale>  0 0.16805364E+04</rscale>
<asrwt>0</asrwt>
<pdfrwt beam="1">  1        2 0.28754246E+00 0.16805364E+04</pdfrwt>
<pdfrwt beam="2">  1       -2 0.58117530E-01 0.16805364E+04</pdfrwt>
<totfact> 0.20855310E+01</totfact>
</mgrwt>
</event>
<event>
 6    1  0.9906445E-006  0.8693212E+03  0.7818608E-02  0.9464765E-01
         -2   -1    0    0    0  501 -0.00000000000E+00  0.00000000000E+00  0.32995374835E+03  0.32995374835E+03  0.00000000000E+00 0.  1.
          2   -1    0    0  501    0  0.00000000000E+00 -0.00000000000E+00 -0.57259497032E+03  0.57259497032E+03  0.00000000000E+00 0. -1.
         23    2    1    2    0    0 -0.42722159882E+03  0.35879029567E+02 -0.93545344154E+02  0.44863773616E+03  0.93378196762E+02 0.  0.
         13    1    3    3    0    0 -0.26193577968E+03  0.54180365664E+02 -0.24577223995E+02  0.26860734286E+03  0.00000000000E+00 0. -1.
        -13    1    3    3    0    0 -0.16528581914E+03 -0.18301336098E+02 -0.68968120159E+02  0.18003039329E+03  0.00000000000E+00 0.  1.
         22    1    1    2    0    0  0.42722159882E+03 -0.35879029567E+02 -0.14909587781E+03  0.45391098251E+03  0.00000000000E+00 0. -1.
<mgrwt>
<rscale>  0 0.86932124E+03</rscale>
<asrwt>0</asrwt>
<pdfrwt beam="1">  1        2 0.88091534E-01 0.86932124E+03</pdfrwt>
<pdfrwt beam="2">  1       -2 0.50762115E-01 0.86932124E+03</pdfrwt>
<totfact> 0.19341171E+02</totfact>
</mgrwt>
</event>
<event>
 6    1  0.9906445E-006  0.3161195E+04  0.7818608E-02  0.8199141E-01
          2   -1    0    0  501    0  0.00000000000E+00  0.00000000000E+00  0.15351598331E+04  0.15351598331E+04  0.00000000000E+00 0. -1.
         -2   -1    0    0    0  501 -0.00000000000E+00 -0.00000000000E+00 -0.16273799840E+04  0.16273799840E+04  0.00000000000E+00 0.  1.
         23    2    1    2    0    0 -0.14030634647E+03  0.12583324901E+04 -0.99050065601E+03  0.16101241535E+04  0.91223426767E+02 0.  0.
         11    1    3    3    0    0 -0.65134825736E+02  0.80964630761E+03 -0.58884060079E+03  0.10032462021E+04  0.00000000000E+00 0. -1.
        -11    1    3    3    0    0 -0.75171520735E+02  0.44868618250E+03 -0.40166005521E+03  0.60687795136E+03  0.00000000000E+00 0.  1.
         22    1    1    2    0    0  0.14030634647E+03 -0.12583324901E+04  0.89828050513E+03  0.15524156635E+04  0.00000000000E+00 0. -1.
<mgrwt>
<rscale>  0 0.31611950E+04</rscale>
<asrwt>0</asrwt>
<pdfrwt beam="1">  1        2 0.23617844E+00 0.31611950E+04</pdfrwt>
<pdfrwt beam="2">  1       -2 0.25036615E+00 0.31611950E+04</pdfrwt>
<totfact> 0.65493393E-01</totfact>
</mgrwt>
</event>
<event>
 6    1  0.9906445E-006  0.1747701E+04  0.7818608E-02  0.8734617E-01
         -2   -1    0    0    0  501 -0.00000000000E+00  0.00000000000E+00  0.19683611010E+04  0.19683611010E+04  0.00000000000E+00 0.  1.
          2   -1    0    0  501    0  0.00000000000E+00 -0.00000000000E+00 -0.38794453553E+03  0.38794453553E+03  0.00000000000E+00 0. -1.
         23    2    1    2    0    0  0.81782858699E+03 -0.18487730354E+03  0.47228092020E+03  0.96670575765E+03  0.91910495703E+02 0.  0.
         11    1    3    3    0    0  0.41089147884E+03 -0.98573212899E+02  0.18568497721E+03  0.46154891014E+03  0.00000000000E+00 0.  1.
        -11    1    3    3    0    0  0.40693710815E+03 -0.86304090644E+02  0.28659594299E+03  0.50515684751E+03  0.00000000000E+00 0. -1.
         22    1    1    2    0    0 -0.81782858699E+03  0.18487730354E+03  0.11081356453E+04  0.13895998789E+04  0.00000000000E+00 0.  1.
<mgrwt>
<rscale>  0 0.17477013E+04</rscale>
<asrwt>0</asrwt>
<pdfrwt beam="1">  1        2 0.59683776E-01 0.17477013E+04</pdfrwt>
<pdfrwt beam="2">  1       -2 0.30282478E+00 0.17477013E+04</pdfrwt>
<totfact> 0.23883119E+00</totfact>
</mgrwt>
</event>
<event>
 6    1  0.9906445E-006  0.3162065E+04  0.7818608E-02  0.8198908E-01
          2   -1    0    0  501    0  0.00000000000E+00  0.00000000000E+00  0.16686507494E+04  0.16686507494E+04  0.00000000000E+00 0. -1.
         -2   -1    0    0    0  501 -0.00000000000E+00 -0.00000000000E+00 -0.14980154192E+04  0.14980154192E+04  0.00000000000E+00 0.  1.
         23    2    1    2    0    0 -0.12022882598E+03 -0.39377830615E+03 -0.14417830444E+04  0.15025119270E+04  0.96371255492E+02 0.  0.
         13    1    3    3    0    0 -0.49940728850E+02 -0.64986200432E+02 -0.20322418688E+03  0.21912862153E+03  0.00000000000E+00 0. -1.
        -13    1    3    3    0    0 -0.70288097132E+02 -0.32879210572E+03 -0.12385588575E+04  0.12833833055E+04  0.00000000000E+00 0.  1.
         22    1    1    2    0    0  0.12022882598E+03  0.39377830615E+03  0.16124183745E+04  0.16641542415E+04  0.00000000000E+00 0. -1.
<mgrwt>
<rscale>  0 0.31620655E+04</rscale>
<asrwt>0</asrwt>
<pdfrwt beam="1">  1        2 0.25671550E+00 0.31620655E+04</pdfrwt>
<pdfrwt beam="2">  1       -2 0.23046391E+00 0.31620655E+04</pdfrwt>
<totfact> 0.73245713E-01</totfact>
</mgrwt>
</event>
<event>
 6    1  0.9906445E-006  0.5335233E+03  0.7818608E-02  0.1005381E+00
         -1   -1    0    0    0  501 -0.00000000000E+00  0.00000000000E+00  0.11471184450E+03  0.11471184450E+03  0.00000000000E+00 0.  1.
          1   -1    0    0  501    0  0.00000000000E+00 -0.00000000000E+00 -0.62035249087E+03  0.62035249087E+03  0.00000000000E+00 0. -1.
         23    2    1    2    0    0  0.22790690061E+03 -0.72171065893E+02 -0.40478262380E+03  0.47559842467E+03  0.72074065527E+02 0.  0.
         13    1    3    3    0    0  0.64044022080E+02 -0.39637008708E+02 -0.77077559451E+02  0.10776678243E+03  0.00000000000E+00 0. -1.
        -13    1    3    3    0    0  0.16386287853E+03 -0.32534057185E+02 -0.32770506435E+03  0.36783164224E+03  0.00000000000E+00 0.  1.
         22    1    1    2    0    0 -0.22790690061E+03  0.72171065893E+02 -0.10085802257E+03  0.25946591070E+03  0.00000000000E+00 0.  1.
<mgrwt>
<rscale>  0 0.53352330E+03</rscale>
<asrwt>0</asrwt>
<pdfrwt beam="1">  1        1 0.95438844E-01 0.53352330E+03</pdfrwt>
<pdfrwt beam="2">  1       -1 0.17647976E-01 0.53352330E+03</pdfrwt>
<totfact> 0.82775380E+02</totfact>
</mgrwt>
</event>
<event>
 6    1  0.9906445E-006  0.1453330E+04  0.7818608E-02  0.8916095E-01
          1   -1    0    0  501    0  0.00000000000E+00  0.00000000000E+00  0.65229674910E+03  0.65229674910E+03  0.00000000000E+00 0. -1.
         -1   -1    0    0    0  501 -0.00000000000E+00 -0.00000000000E+00 -0.80951155037E+03  0.80951155037E+03  0.00000000000E+00 0.  1.
         23    2    1    2    0    0 -0.45228998376E+03  0.55412067631E+03  0.32323587929E+02  0.72184833142E+03  0.91674674368E+02 0.  0.
         11    1    3    3    0    0 -0.19403609773E+03  0.17293895946E+03  0.27758031091E+02  0.26139701455E+03  0.00000000000E+00 0.  1.
        -11    1    3    3    0    0 -0.25825388603E+03  0.38118171684E+03  0.45655568384E+01  0.46045131688E+03  0.00000000000E+00 0. -1.
         22    1    1    2    0    0  0.45228998376E+03 -0.55412067631E+03 -0.18953838920E+03  0.73995996804E+03  0.00000000000E+00 0. -1.
<mgrwt>
<rscale>  0 0.14533296E+04</rscale>
<asrwt>0</asrwt>
<pdfrwt beam="1">  1        1 0.10035335E+00 0.14533296E+04</pdfrwt>
<pdfrwt beam="2">  1       -1 0.12454024E+00 0.14533296E+04</pdfrwt>
<totfact> 0.16619999E+01</totfact>
</mgrwt>
</event>
<event>
 6    1  0.9906445E-006  0.3304570E+04  0.7818608E-02  0.8161734E-01
         -2   -1    0    0    0  501 -0.00000000000E+00  0.00000000000E+00  0.13359301480E+04  0.13359301480E+04  0.00000000000E+00 0.  1.
          2   -1    0    0  501    0  0.00000000000E+00 -0.00000000000E+00 -0.20435541763E+04  0.20435541763E+04  0.00000000000E+00 0. -1.
         23    2    1    2    0    0  0.86163039414E+03  0.89596464118E+03  0.75710931428E+03  0.14583900166E+04  0.92343665095E+02 0.  0.
         13    1    3    3    0    0  0.52416749986E+03  0.60850385957E+03  0.49292212101E+03  0.94233790776E+03  0.00000000000E+00 0.  1.
        -13    1    3    3    0    0  0.33746289428E+03  0.28746078161E+03  0.26418719327E+03  0.51605210887E+03  0.00000000000E+00 0. -1.
         22    1    1    2    0    0 -0.86163039414E+03 -0.89596464118E+03 -0.14647333426E+04  0.19210943077E+04  0.00000000000E+00 0. -1.
<mgrwt>
<rscale>  0 0.33045699E+04</rscale>
<asrwt>0</asrwt>
<pdfrwt beam="1">  1        2 0.31439295E+00 0.33045699E+04</pdfrwt>
<pdfrwt beam="2">  1       -2 0.20552772E+00 0.33045699E+04</pdfrwt>
<totfact> 0.64565224E-01</totfact>
</mgrwt>
</event>
<event>
 6    1  0.9906445E-006  0.1506787E+04  0.7818608E-02  0.8879952E-01
          1   -1    0    0  501    0  0.00000000000E+00  0.00000000000E+00  0.18656805434E+04  0.18656805434E+04  0.00000000000E+00 0.  1.
         -1   -1    0    0    0  501 -0.00000000000E+00 -0.00000000000E+00 -0.30423296285E+03  0.30423296285E+03  0.00000000000E+00 0. -1.
         23    2    1    2    0    0 -0.59213174185E+03 -0.25364435108E+03  0.22799130917E+03  0.68901476418E+03  0.88350730940E+02 0.  0.
         13    1    3    3    0    0 -0.12137495957E+03 -0.25556726963E+02  0.17992744533E+02  0.12533461597E+03  0.00000000000E+00 0. -1.
        -13    1    3    3    0    0 -0.47075678228E+03 -0.22808762412E+03  0.20999856464E+03  0.56368014821E+03  0.00000000000E+00 0.  1.
         22    1    1    2    0    0  0.59213174185E+03  0.25364435108E+03  0.13334562714E+04  0.14808987421E+04  0.00000000000E+00 0.  1.
<mgrwt>
<rscale>  0 0.15067867E+04</rscale>
<asrwt>0</asrwt>
<pdfrwt beam="1">  1        1 0.28702777E+00 0.15067867E+04</pdfrwt>
<pdfrwt beam="2">  1       -1 0.46805072E-01 0.15067867E+04</pdfrwt>
<totfact> 0.16172654E+01</totfact>
</mgrwt>
</event>
<event>
 6    1  0.9906445E-006  0.2337271E+04  0.7818608E-02  0.8463369E-01
          1   -1    0    0  501    0  0.00000000000E+00  0.00000000000E+00  0.80974303564E+03  0.80974303564E+03  0.00000000000E+00 0. -1.
         -1   -1    0    0    0  501 -0.00000000000E+00 -0.00000000000E+00 -0.16865955278E+04  0.16865955278E+04  0.00000000000E+00 0.  1.
         23    2    1    2    0    0 -0.74975014189E+03  0.89306081098E+03 -0.39288060688E+03  0.12338364156E+04  0.91182465025E+02 0.  0.
         13    1    3    3    0    0 -0.52988233928E+03  0.69283479377E+03 -0.29186545830E+03  0.91977214064E+03  0.00000000000E+00 0.  1.
        -13    1    3    3    0    0 -0.21986780261E+03  0.20022601721E+03 -0.10101514857E+03  0.31406427500E+03  0.00000000000E+00 0. -1.
         22    1    1    2    0    0  0.74975014189E+03 -0.89306081098E+03 -0.48397188523E+03  0.12625021478E+04  0.00000000000E+00 0.  1.
<mgrwt>
<rscale>  0 0.23372710E+04</rscale>
<asrwt>0</asrwt>
<pdfrwt beam="1">  1        1 0.12457585E+00 0.23372710E+04</pdfrwt>
<pdfrwt beam="2">  1       -1 0.25947623E+00 0.23372710E+04</pdfrwt>
<totfact> 0.11813413E+00</totfact>
</mgrwt>
</event>
<event>
 6    1  0.9906445E-006  0.1353719E+04  0.7818608E-02  0.8988018E-01
          2   -1    0    0  501    0  0.00000000000E+00  0.00000000000E+00  0.35896553595E+03  0.35896553595E+03  0.00000000000E+00 0. -1.
         -2   -1    0    0    0  501 -0.00000000000E+00 -0.00000000000E+00 -0.12762749312E+04  0.12762749312E+04  0.00000000000E+00 0.  1.
         23    2    1    2    0    0 -0.28133886110E+03  0.12912549968E+03 -0.11837196646E+04  0.12268296677E+04  0.89965770155E+02 0.  0.
         13    1    3    3    0    0 -0.13973645206E+03  0.20904389992E+02 -0.44378944074E+03  0.46573848592E+03  0.00000000000E+00 0. -1.
        -13    1    3    3    0    0 -0.14160240904E+03  0.10822110969E+03 -0.73993022389E+03  0.76109118183E+03  0.00000000000E+00 0.  1.
         22    1    1    2    0    0  0.28133886110E+03 -0.12912549968E+03  0.26641026939E+03  0.40841079940E+03  0.00000000000E+00 0. -1.
<mgrwt>
<rscale>  0 0.13537189E+04</rscale>
<asrwt>0</asrwt>
<pdfrwt beam="1">  1        2 0.55225467E-01 0.13537189E+04</pdfrwt>
<pdfrwt beam="2">  1       -2 0.19634999E+00 0.13537189E+04</pdfrwt>
<totfact> 0.12319293E+01</totfact>
</mgrwt>
</event>
<event>
 6    1  0.9906445E-006  0.2973689E+04  0.7818608E-02  0.8251284E-01
         -2   -1    0    0    0  501 -0.00000000000E+00  0.00000000000E+00  0.11292146226E+04  0.11292146226E+04  0.00000000000E+00 0.  1.
          2   -1    0    0  501    0  0.00000000000E+00 -0.00000000000E+00 -0.19577378196E+04  0.19577378196E+04  0.00000000000E+00 0. -1.
         23    2    1    2    0    0 -0.43557235705E+03  0.36640195814E+03 -0.18389878468E+04  0.19272057105E+04  0.90949858848E+02 0.  0.
         11    1    3    3    0    0 -0.13684606578E+03  0.16965645113E+03 -0.74435493542E+03  0.77561229168E+03  0.00000000000E+00 0. -1.
        -11    1    3    3    0    0 -0.29872629128E+03  0.19674550701E+03 -0.10946329114E+04  0.11515934189E+04  0.00000000000E+00 0.  1.
         22    1    1    2    0    0  0.43557235705E+03 -0.36640195814E+03  0.10104646498E+04  0.11597467317E+04  0.00000000000E+00 0.  1.
<mgrwt>
<rscale>  0 0.29736887E+04</rscale>
<asrwt>0</asrwt>
<pdfrwt beam="1">  1        2 0.30119043E+00 0.29736887E+04</pdfrwt>
<pdfrwt beam="2">  1       -2 0.17372533E+00 0.29736887E+04</pdfrwt>
<totfact> 0.12137124E+00</totfact>
</mgrwt>
</event>
<event>
 6    1  0.9906445E-006  0.2818985E+04  0.7818608E-02  0.8297398E-01
         -2   -1    0    0    0  501 -0.00000000000E+00  0.00000000000E+00  0.71913035910E+03  0.71913035910E+03  0.00000000000E+00 0.  1.
          2   -1    0    0  501    0  0.00000000000E+00 -0.00000000000E+00 -0.27625994205E+04  0.27625994205E+04  0.00000000000E+00 0. -1.
         23    2    1    2    0    0  0.75636524664E+02  0.11801534960E+04 -0.19666498590E+04  0.22966625462E+04  0.92000136777E+02 0.  0.
         11    1    3    3    0    0  0.80736536945E+02  0.88921871439E+03 -0.15428230381E+04  0.17825631089E+04  0.00000000000E+00 0. -1.
        -11    1    3    3    0    0 -0.51000122815E+01  0.29093478160E+03 -0.42382682090E+03  0.51409943726E+03  0.00000000000E+00 0.  1.
         22    1    1    2    0    0 -0.75636524664E+02 -0.11801534960E+04 -0.76819202441E+02  0.11850672335E+04  0.00000000000E+00 0.  1.
<mgrwt>
<rscale>  0 0.28189850E+04</rscale>
<asrwt>0</asrwt>
<pdfrwt beam="1">  1        2 0.42501530E+00 0.28189850E+04</pdfrwt>
<pdfrwt beam="2">  1       -2 0.11063544E+00 0.28189850E+04</pdfrwt>
<totfact> 0.13706259E+00</totfact>
</mgrwt>
</event>
<event>
 6    1  0.9906445E-006  0.9013946E+03  0.7818608E-02  0.9423840E-01
          2   -1    0    0  501    0  0.00000000000E+00  0.00000000000E+00  0.38019373786E+03  0.38019373786E+03  0.00000000000E+00 0. -1.
         -2   -1    0    0    0  501 -0.00000000000E+00 -0.00000000000E+00 -0.53427517877E+03  0.53427517877E+03  0.00000000000E+00 0.  1.
         23    2    1    2    0    0 -0.22744367903E+03  0.29207070033E+03 -0.32985952809E+03  0.50467158007E+03  0.94075365222E+02 0.  0.
         13    1    3    3    0    0 -0.13695596073E+03  0.23507955835E+03 -0.26388900010E+03  0.37902076236E+03  0.00000000000E+00 0.  1.
        -13    1    3    3    0    0 -0.90487718297E+02  0.56991141980E+02 -0.65970527999E+02  0.12565081771E+03  0.00000000000E+00 0. -1.
         22    1    1    2    0    0  0.22744367903E+03 -0.29207070033E+03  0.17577808718E+03  0.40979733656E+03  0.00000000000E+00 0. -1.
<mgrwt>
<rscale>  0 0.90139465E+03</rscale>
<asrwt>0</asrwt>
<pdfrwt beam="1">  1        2 0.58491344E-01 0.90139465E+03</pdfrwt>
<pdfrwt beam="2">  1       -2 0.82196181E-01 0.90139465E+03</pdfrwt>
<totfact> 0.10991325E+02</totfact>
</mgrwt>
</event>
<event>
 6    1  0.9906445E-006  0.1569364E+04  0.7818608E-02  0.8839593E-01
          1   -1    0    0  501    0  0.00000000000E+00  0.00000000000E+00  0.70534460303E+03  0.70534460303E+03  0.00000000000E+00 0. -1.
         -1   -1    0    0    0  501 -0.00000000000E+00 -0.00000000000E+00 -0.87294288676E+03  0.87294288676E+03  0.00000000000E+00 0.  1.
         23    2    1    2    0    0 -0.31434750557E+03  0.62224563216E+03  0.27342651023E+03  0.75335909903E+03  0.82364401193E+02 0.  0.
         11    1    3    3    0    0 -0.43753843682E+02  0.15739434718E+03  0.78603053394E+02  0.18128932501E+03  0.00000000000E+00 0.  1.
        -11    1    3    3    0    0 -0.27059366189E+03  0.46485128499E+03  0.19482345683E+03  0.57206977401E+03  0.00000000000E+00 0. -1.
         22    1    1    2    0    0  0.31434750557E+03 -0.62224563216E+03 -0.44102479396E+03  0.82492839077E+03  0.00000000000E+00 0.  1.
<mgrwt>
<rscale>  0 0.15693636E+04</rscale>
<asrwt>0</asrwt>
<pdfrwt beam="1">  1        1 0.10851455E+00 0.15693636E+04</pdfrwt>
<pdfrwt beam="2">  1       -1 0.13429891E+00 0.15693636E+04</pdfrwt>
<totfact> 0.12095606E+01</totfact>
</mgrwt>
</event>
<event>
 6    1  0.9906445E-006  0.3595864E+04  0.7818608E-02  0.8091440E-01
         -2   -1    0    0    0  501 -0.00000000000E+00  0.00000000000E+00  0.11729638508E+04  0.11729638508E+04  0.00000000000E+00 0.  1.
          2   -1    0    0  501    0  0.00000000000E+00 -0.00000000000E+00 -0.27558899366E+04  0.27558899366E+04  0.00000000000E+00 0. -1.
         23    2    1    2    0    0 -0.99760974202E+03  0.60649346448E+03 -0.22841452728E+04  0.25669551612E+04  0.94231908388E+02 0.  0.
         13    1    3    3    0    0 -0.35430765883E+03  0.25055666524E+03 -0.92383899532E+03  0.10206816589E+04  0.00000000000E+00 0.  1.
        -13    1    3    3    0    0 -0.64330208319E+03  0.35593679924E+03 -0.13603062775E+04  0.15462735023E+04  0.00000000000E+00 0. -1.
         22    1    1    2    0    0  0.99760974202E+03 -0.60649346448E+03  0.70121918696E+03  0.13618986262E+04  0.00000000000E+00 0.  1.
<mgrwt>
<rscale>  0 0.35958639E+04</rscale>
<asrwt>0</asrwt>
<pdfrwt beam="1">  1        2 0.42398306E+00 0.35958639E+04</pdfrwt>
<pdfrwt beam="2">  1       -2 0.18045598E+00 0.35958639E+04</pdfrwt>
<totfact> 0.36072064E-01</totfact>
</mgrwt>
</event>
<event>
 6    1  0.9906445E-006  0.1125852E+04  0.7818608E-02  0.9180355E-01
         -2   -1    0    0    0  501 -0.00000000000E+00  0.00000000000E+00  0.12536897580E+03  0.12536897580E+03  0.00000000000E+00 0. -1.
          2   -1    0    0  501    0  0.00000000000E+00 -0.00000000000E+00 -0.25276243376E+04  0.25276243376E+04  0.00000000000E+00 0.  1.
         23    2    1    2    0    0  0.39690110169E+03  0.14187352846E+03 -0.20750789215E+04  0.21194176340E+04  0.91214001446E+02 0.  0.
         13    1    3    3    0    0  0.46641081618E+02  0.49650820061E+02 -0.28060671958E+03  0.28875720857E+03  0.00000000000E+00 0. -1.
        -13    1    3    3    0    0  0.35026002007E+03  0.92222708401E+02 -0.17944722019E+04  0.18306604254E+04  0.00000000000E+00 0.  1.
         22    1    1    2    0    0 -0.39690110169E+03 -0.14187352846E+03 -0.32717644028E+03  0.53357567943E+03  0.00000000000E+00 0. -1.
<mgrwt>
<rscale>  0 0.11258520E+04</rscale>
<asrwt>0</asrwt>
<pdfrwt beam="1">  1        2 0.38886524E+00 0.11258520E+04</pdfrwt>
<pdfrwt beam="2">  1       -2 0.19287537E-01 0.11258520E+04</pdfrwt>
<totfact> 0.76408449E+01</totfact>
</mgrwt>
</event>
<event>
 6    1  0.9906445E-006  0.3162823E+04  0.7818608E-02  0.8198705E-01
         -2   -1    0    0    0  501 -0.00000000000E+00  0.00000000000E+00  0.18126777618E+04  0.18126777618E+04  0.00000000000E+00 0.  1.
          2   -1    0    0  501    0  0.00000000000E+00 -0.00000000000E+00 -0.13796507591E+04  0.13796507591E+04  0.00000000000E+00 0. -1.
         23    2    1    2    0    0  0.10219183583E+04 -0.11615976599E+04  0.54055768825E+03  0.16414613109E+04  0.92554665903E+02 0.  0.
         11    1    3    3    0    0  0.51582149631E+03 -0.65306866467E+03  0.27583197382E+03  0.87672902005E+03  0.00000000000E+00 0. -1.
        -11    1    3    3    0    0  0.50609686199E+03 -0.50852899527E+03  0.26472571444E+03  0.76473229082E+03  0.00000000000E+00 0.  1.
         22    1    1    2    0    0 -0.10219183583E+04  0.11615976599E+04 -0.10753068556E+03  0.15508672100E+04  0.00000000000E+00 0. -1.
<mgrwt>
<rscale>  0 0.31628229E+04</rscale>
<asrwt>0</asrwt>
<pdfrwt beam="1">  1        2 0.21225396E+00 0.31628229E+04</pdfrwt>
<pdfrwt beam="2">  1       -2 0.27887350E+00 0.31628229E+04</pdfrwt>
<totfact> 0.53716322E-01</totfact>
</mgrwt>
</event>
<event>
 6    1  0.9906445E-006  0.3481304E+04  0.7818608E-02  0.8118235E-01
          1   -1    0    0  501    0  0.00000000000E+00  0.00000000000E+00  0.10128785715E+04  0.10128785715E+04  0.00000000000E+00 0. -1.
         -1   -1    0    0    0  501 -0.00000000000E+00 -0.00000000000E+00 -0.29913443180E+04  0.29913443180E+04  0.00000000000E+00 0.  1.
         23    2    1    2    0    0  0.16507146282E+04  0.43560086951E+03 -0.13730225981E+04  0.21928233457E+04  0.93146494873E+02 0.  0.
         13    1    3    3    0    0  0.73042904407E+03  0.14826689542E+03 -0.57709020345E+03  0.94262546306E+03  0.00000000000E+00 0.  1.
        -13    1    3    3    0    0  0.92028558412E+03  0.28733397408E+03 -0.79593239463E+03  0.12501978827E+04  0.00000000000E+00 0. -1.
         22    1    1    2    0    0 -0.16507146282E+04 -0.43560086951E+03 -0.60544314834E+03  0.18113995438E+04  0.00000000000E+00 0. -1.
<mgrwt>
<rscale>  0 0.34813035E+04</rscale>
<asrwt>0</asrwt>
<pdfrwt beam="1">  1        1 0.15582748E+00 0.34813035E+04</pdfrwt>
<pdfrwt beam="2">  1       -1 0.46020681E+00 0.34813035E+04</pdfrwt>
<totfact> 0.33227871E-02</totfact>
</mgrwt>
</event>
<event>
 6    1  0.9906445E-006  0.5371457E+03  0.7818608E-02  0.1004514E+00
         -1   -1    0    0    0  501 -0.00000000000E+00  0.00000000000E+00  0.47057177060E+02  0.47057177060E+02  0.00000000000E+00 0.  1.
          1   -1    0    0  501    0  0.00000000000E+00 -0.00000000000E+00 -0.15328451835E+04  0.15328451835E+04  0.00000000000E+00 0. -1.
         23    2    1    2    0    0 -0.25945639396E+03  0.88048893761E+01 -0.69410189958E+03  0.74673848818E+03  0.91900904701E+02 0.  0.
         11    1    3    3    0    0 -0.79594550800E+02  0.32094007906E+02 -0.31509153135E+03  0.32657003995E+03  0.00000000000E+00 0. -1.
        -11    1    3    3    0    0 -0.17986184316E+03 -0.23289118530E+02 -0.37901036823E+03  0.42016844824E+03  0.00000000000E+00 0.  1.
         22    1    1    2    0    0  0.25945639396E+03 -0.88048893761E+01 -0.79168610690E+03  0.83316387242E+03  0.00000000000E+00 0. -1.
<mgrwt>
<rscale>  0 0.53714567E+03</rscale>
<asrwt>0</asrwt>
<pdfrwt beam="1">  1        1 0.23582230E+00 0.53714567E+03</pdfrwt>
<pdfrwt beam="2">  1       -1 0.72395667E-02 0.53714567E+03</pdfrwt>
<totfact> 0.66999358E+02</totfact>
</mgrwt>
</event>
<event>
 6    1  0.9906445E-006  0.3899909E+04  0.7818608E-02  0.8025048E-01
         -1   -1    0    0    0  501 -0.00000000000E+00  0.00000000000E+00  0.30867073083E+04  0.30867073083E+04  0.00000000000E+00 0.  1.
          1   -1    0    0  501    0  0.00000000000E+00 -0.00000000000E+00 -0.12318374822E+04  0.12318374822E+04  0.00000000000E+00 0. -1.
         23    2    1    2    0    0  0.15110938729E+04  0.79506606270E+03  0.19673876320E+04  0.26073478429E+04  0.11006335599E+03 0.  0.
         13    1    3    3    0    0  0.12192729743E+03  0.32031287595E+02  0.14022890868E+03  0.18856409010E+03  0.00000000000E+00 0. -1.
        -13    1    3    3    0    0  0.13891665755E+04  0.76303477510E+03  0.18271587234E+04  0.24187837528E+04  0.00000000000E+00 0.  1.
         22    1    1    2    0    0 -0.15110938729E+04 -0.79506606270E+03 -0.11251780600E+03  0.17111969476E+04  0.00000000000E+00 0. -1.
<mgrwt>
<rscale>  0 0.38999086E+04</rscale>
<asrwt>0</asrwt>
<pdfrwt beam="1">  1        1 0.18951346E+00 0.38999086E+04</pdfrwt>
<pdfrwt beam="2">  1       -1 0.47487804E+00 0.38999086E+04</pdfrwt>
<totfact> 0.17480684E-02</totfact>
</mgrwt>
</event>
<event>
 6    1  0.9906445E-006  0.3969901E+04  0.7818608E-02  0.8010646E-01
         -2   -1    0    0    0  501 -0.00000000000E+00  0.00000000000E+00  0.15704390070E+04  0.15704390070E+04  0.00000000000E+00 0.  1.
          2   -1    0    0  501    0  0.00000000000E+00 -0.00000000000E+00 -0.25088708982E+04  0.25088708982E+04  0.00000000000E+00 0. -1.
         23    2    1    2    0    0 -0.91055519966E+03 -0.12609675953E+04 -0.17349337979E+04  0.23318645310E+04  0.91906799205E+02 0.  0.
         11    1    3    3    0    0 -0.58247815544E+03 -0.77875202344E+03 -0.10219081335E+04  0.14106848510E+04  0.00000000000E+00 0.  1.
        -11    1    3    3    0    0 -0.32807704422E+03 -0.48221557188E+03 -0.71302566443E+03  0.92117968000E+03  0.00000000000E+00 0. -1.
         22    1    1    2    0    0  0.91055519966E+03  0.12609675953E+04  0.79650190673E+03  0.17474453741E+04  0.00000000000E+00 0.  1.
<mgrwt>
<rscale>  0 0.39699011E+04</rscale>
<asrwt>0</asrwt>
<pdfrwt beam="1">  1        2 0.38598014E+00 0.39699011E+04</pdfrwt>
<pdfrwt beam="2">  1       -2 0.24160600E+00 0.39699011E+04</pdfrwt>
<totfact> 0.19695369E-01</totfact>
</mgrwt>
</event>
<event>
 6    1  0.9906445E-006  0.8954709E+03  0.7818608E-02  0.9431261E-01
         -2   -1    0    0    0  501 -0.00000000000E+00  0.00000000000E+00  0.61803976427E+02  0.61803976427E+02  0.00000000000E+00 0. -1.
          2   -1    0    0  501    0  0.00000000000E+00 -0.00000000000E+00 -0.32435947422E+04  0.32435947422E+04  0.00000000000E+00 0.  1.
         23    2    1    2    0    0 -0.27473936837E+03  0.30606214858E+03 -0.99135163403E+03  0.10766817449E+04  0.85497123211E+02 0.  0.
         11    1    3    3    0    0 -0.18533956759E+03  0.18305144526E+03 -0.52339047092E+03  0.58463336544E+03  0.00000000000E+00 0. -1.
        -11    1    3    3    0    0 -0.89399800782E+02  0.12301070332E+03 -0.46796116311E+03  0.49204837942E+03  0.00000000000E+00 0.  1.
         22    1    1    2    0    0  0.27473936837E+03 -0.30606214858E+03 -0.21904391318E+04  0.22287169738E+04  0.00000000000E+00 0. -1.
<mgrwt>
<rscale>  0 0.89547094E+03</rscale>
<asrwt>0</asrwt>
<pdfrwt beam="1">  1        2 0.49901475E+00 0.89547094E+03</pdfrwt>
<pdfrwt beam="2">  1       -2 0.95083008E-02 0.89547094E+03</pdfrwt>
<totfact> 0.94605201E+01</totfact>
</mgrwt>
</event>
<event>
 6    1  0.9906445E-006  0.2330967E+04  0.7818608E-02  0.8465810E-01
         -1   -1    0    0    0  501 -0.00000000000E+00  0.00000000000E+00  0.80518909194E+03  0.80518909194E+03  0.00000000000E+00 0. -1.
          1   -1    0    0  501    0  0.00000000000E+00 -0.00000000000E+00 -0.16869976686E+04  0.16869976686E+04  0.00000000000E+00 0.  1.
         23    2    1    2    0    0  0.25131094040E+02  0.67148642972E+03 -0.14573971657E+04  0.16074111839E+04  0.90766835073E+02 0.  0.
         11    1    3    3    0    0  0.39269102902E+02  0.63615032081E+03 -0.13371182240E+04  0.14812543462E+04  0.00000000000E+00 0.  1.
        -11    1    3    3    0    0 -0.14138008862E+02  0.35336108908E+02 -0.12027894175E+03  0.12615683777E+03  0.00000000000E+00 0. -1.
         22    1    1    2    0    0 -0.25131094040E+02 -0.67148642972E+03  0.57558858904E+03  0.88477557664E+03  0.00000000000E+00 0. -1.
<mgrwt>
<rscale>  0 0.23309673E+04</rscale>
<asrwt>0</asrwt>
<pdfrwt beam="1">  1        1 0.25953810E+00 0.23309673E+04</pdfrwt>
<pdfrwt beam="2">  1       -1 0.12387524E+00 0.23309673E+04</pdfrwt>
<totfact> 0.25097538E+00</totfact>
</mgrwt>
</event>
<event>
 6    1  0.9906445E-006  0.2017541E+04  0.7818608E-02  0.8598463E-01
         -2   -1    0    0    0  501 -0.00000000000E+00  0.00000000000E+00  0.10925215665E+04  0.10925215665E+04  0.00000000000E+00 0.  1.
          2   -1    0    0  501    0  0.00000000000E+00 -0.00000000000E+00 -0.93143936773E+03  0.93143936773E+03  0.00000000000E+00 0. -1.
         23    2    1    2    0    0 -0.87057236085E+03 -0.50505811356E+03  0.10955119169E+03  0.10161735667E+04  0.87334532058E+02 0.  0.
         13    1    3    3    0    0 -0.52287732419E+03 -0.35187835047E+03  0.63165440771E+02  0.63341056400E+03  0.00000000000E+00 0.  1.
        -13    1    3    3    0    0 -0.34769503666E+03 -0.15317976309E+03  0.46385750922E+02  0.38276300268E+03  0.00000000000E+00 0. -1.
         22    1    1    2    0    0  0.87057236085E+03  0.50505811356E+03  0.51531007115E+02  0.10077873676E+04  0.00000000000E+00 0. -1.
<mgrwt>
<rscale>  0 0.20175407E+04</rscale>
<asrwt>0</asrwt>
<pdfrwt beam="1">  1        2 0.14329836E+00 0.20175407E+04</pdfrwt>
<pdfrwt beam="2">  1       -2 0.16808024E+00 0.20175407E+04</pdfrwt>
<totfact> 0.56983007E+00</totfact>
</mgrwt>
</event>
<event>
 6    1  0.9906445E-006  0.2543100E+03  0.7818608E-02  0.1110611E+00
         -2   -1    0    0    0  501 -0.00000000000E+00  0.00000000000E+00  0.92535408994E+02  0.92535408994E+02  0.00000000000E+00 0.  1.
          2   -1    0    0  501    0  0.00000000000E+00 -0.00000000000E+00 -0.17472650680E+03  0.17472650680E+03  0.00000000000E+00 0. -1.
         23    2    1    2    0    0  0.81646445833E+02  0.68785709506E+02 -0.24143929469E+02  0.14574200096E+03  0.96229857967E+02 0.  0.
         11    1    3    3    0    0  0.62342307136E+02  0.21636813592E+02  0.29035939543E+02  0.72095774818E+02  0.00000000000E+00 0. -1.
        -11    1    3    3    0    0  0.19304138697E+02  0.47148895914E+02 -0.53179869013E+02  0.73646226142E+02  0.00000000000E+00 0.  1.
         22    1    1    2    0    0 -0.81646445833E+02 -0.68785709506E+02 -0.58047168336E+02  0.12151991483E+03  0.00000000000E+00 0. -1.
<mgrwt>
<rscale>  0 0.25430996E+03</rscale>
<asrwt>0</asrwt>
<pdfrwt beam="1">  1        2 0.26881001E-01 0.25430996E+03</pdfrwt>
<pdfrwt beam="2">  1       -2 0.14236217E-01 0.25430996E+03</pdfrwt>
<totfact> 0.73068726E+03</totfact>
</mgrwt>
</event>
<event>
 6    1  0.9906445E-006  0.2496636E+04  0.7818608E-02  0.8404185E-01
          2   -1    0    0  501    0  0.00000000000E+00  0.00000000000E+00  0.36600198810E+04  0.36600198810E+04  0.00000000000E+00 0. -1.
         -2   -1    0    0    0  501 -0.00000000000E+00 -0.00000000000E+00 -0.42576228520E+03  0.42576228520E+03  0.00000000000E+00 0.  1.
         23    2    1    2    0    0  0.54960580215E+03  0.61746861436E+03  0.92091213727E+02  0.83669866464E+03  0.90828609408E+02 0.  0.
         13    1    3    3    0    0  0.37707187064E+03  0.45907121746E+03  0.99554580515E+02  0.60236259249E+03  0.00000000000E+00 0.  1.
        -13    1    3    3    0    0  0.17253393151E+03  0.15839739689E+03 -0.74633667879E+01  0.23433607214E+03  0.00000000000E+00 0. -1.
         22    1    1    2    0    0 -0.54960580215E+03 -0.61746861436E+03  0.31421663821E+04  0.32490835016E+04  0.00000000000E+00 0. -1.
<mgrwt>
<rscale>  0 0.24966365E+04</rscale>
<asrwt>0</asrwt>
<pdfrwt beam="1">  1        2 0.56307996E+00 0.24966365E+04</pdfrwt>
<pdfrwt beam="2">  1       -2 0.65501892E-01 0.24966365E+04</pdfrwt>
<totfact> 0.11987271E+00</totfact>
</mgrwt>
</event>
<event>
 6    1  0.9906445E-006  0.2217498E+04  0.7818608E-02  0.8511180E-01
          2   -1    0    0  501    0  0.00000000000E+00  0.00000000000E+00  0.26703803660E+04  0.26703803660E+04  0.00000000000E+00 0. -1.
         -2   -1    0    0    0  501 -0.00000000000E+00 -0.00000000000E+00 -0.46035572627E+03  0.46035572627E+03  0.00000000000E+00 0.  1.
         23    2    1    2    0    0 -0.66126382128E+03 -0.74978136511E+03  0.43594918239E+03  0.10943702938E+04  0.90292378187E+02 0.  0.
         11    1    3    3    0    0 -0.38374331466E+03 -0.36698863458E+03  0.23163340893E+03  0.57930443256E+03  0.00000000000E+00 0.  1.
        -11    1    3    3    0    0 -0.27752050662E+03 -0.38279273053E+03  0.20431577346E+03  0.51506586125E+03  0.00000000000E+00 0. -1.
         22    1    1    2    0    0  0.66126382128E+03  0.74978136511E+03  0.17740754573E+04  0.20363657985E+04  0.00000000000E+00 0. -1.
<mgrwt>
<rscale>  0 0.22174985E+04</rscale>
<asrwt>0</asrwt>
<pdfrwt beam="1">  1        2 0.41082774E+00 0.22174985E+04</pdfrwt>
<pdfrwt beam="2">  1       -2 0.70823959E-01 0.22174985E+04</pdfrwt>
<totfact> 0.45749149E+00</totfact>
</mgrwt>
</event>
<event>
 6    1  0.9906445E-006  0.5293283E+03  0.7818608E-02  0.1006395E+00
          1   -1    0    0  501    0  0.00000000000E+00  0.00000000000E+00  0.60146295279E+03  0.60146295279E+03  0.00000000000E+00 0.  1.
         -1   -1    0    0    0  501 -0.00000000000E+00 -0.00000000000E+00 -0.11646121705E+03  0.11646121705E+03  0.00000000000E+00 0. -1.
         23    2    1    2    0    0 -0.16916669479E+03 -0.18945753893E+03  0.19350612143E+03  0.33129615372E+03  0.88323228852E+02 0.  0.
         11    1    3    3    0    0 -0.10191485418E+03 -0.14067491507E+03  0.17417776889E+03  0.24599586258E+03  0.00000000000E+00 0.  1.
        -11    1    3    3    0    0 -0.67251840605E+02 -0.48782623860E+02  0.19328352535E+02  0.85300291132E+02  0.00000000000E+00 0. -1.
         22    1    1    2    0    0  0.16916669479E+03  0.18945753893E+03  0.29149561432E+03  0.38662801612E+03  0.00000000000E+00 0.  1.
<mgrwt>
<rscale>  0 0.52932828E+03</rscale>
<asrwt>0</asrwt>
<pdfrwt beam="1">  1        1 0.92532760E-01 0.52932828E+03</pdfrwt>
<pdfrwt beam="2">  1       -1 0.17917111E-01 0.52932828E+03</pdfrwt>
<totfact> 0.84410524E+02</totfact>
</mgrwt>
</event>
<event>
 6    1  0.9906445E-006  0.1465450E+04  0.7818608E-02  0.8907759E-01
          1   -1    0    0  501    0  0.00000000000E+00  0.00000000000E+00  0.13232502465E+04  0.13232502465E+04  0.00000000000E+00 0. -1.
         -1   -1    0    0    0  501 -0.00000000000E+00 -0.00000000000E+00 -0.40573281479E+03  0.40573281479E+03  0.00000000000E+00 0.  1.
         23    2    1    2    0    0 -0.54595206507E+03  0.18670237396E+03 -0.66630019077E+02  0.58816421559E+03  0.92607511894E+02 0.  0.
         11    1    3    3    0    0 -0.19597676853E+03  0.76374812222E+02  0.19509590975E+02  0.21123595784E+03  0.00000000000E+00 0. -1.
        -11    1    3    3    0    0 -0.34997529654E+03  0.11032756174E+03 -0.86139610052E+02  0.37692825775E+03  0.00000000000E+00 0.  1.
         22    1    1    2    0    0  0.54595206507E+03 -0.18670237396E+03  0.98414745078E+03  0.11408188457E+04  0.00000000000E+00 0. -1.
<mgrwt>
<rscale>  0 0.14654502E+04</rscale>
<asrwt>0</asrwt>
<pdfrwt beam="1">  1        1 0.20357696E+00 0.14654502E+04</pdfrwt>
<pdfrwt beam="2">  1       -1 0.62420434E-01 0.14654502E+04</pdfrwt>
<totfact> 0.21984431E+01</totfact>
</mgrwt>
</event>
<event>
 6    1  0.9906445E-006  0.1917758E+04  0.7818608E-02  0.8646067E-01
          2   -1    0    0  501    0  0.00000000000E+00  0.00000000000E+00  0.69083186642E+03  0.69083186642E+03  0.00000000000E+00 0. -1.
         -2   -1    0    0    0  501 -0.00000000000E+00 -0.00000000000E+00 -0.13309299195E+04  0.13309299195E+04  0.00000000000E+00 0.  1.
         23    2    1    2    0    0  0.22144130332E+03  0.13248564256E+03  0.65051840161E+03  0.70560088032E+03  0.90053957044E+02 0.  0.
         13    1    3    3    0    0  0.21519909438E+03  0.13995797939E+03  0.57813269440E+03  0.63256327633E+03  0.00000000000E+00 0. -1.
        -13    1    3    3    0    0  0.62422089356E+01 -0.74723368246E+01  0.72385707202E+02  0.73037603994E+02  0.00000000000E+00 0.  1.
         22    1    1    2    0    0 -0.22144130332E+03 -0.13248564256E+03 -0.12906164547E+04  0.13161609056E+04  0.00000000000E+00 0.  1.
<mgrwt>
<rscale>  0 0.19177579E+04</rscale>
<asrwt>0</asrwt>
<pdfrwt beam="1">  1        2 0.10628183E+00 0.19177579E+04</pdfrwt>
<pdfrwt beam="2">  1       -2 0.20475845E+00 0.19177579E+04</pdfrwt>
<totfact> 0.48208091E+00</totfact>
</mgrwt>
</event>
<event>
 6    1  0.9906445E-006  0.3211804E+04  0.7818608E-02  0.8185707E-01
          2   -1    0    0  501    0  0.00000000000E+00  0.00000000000E+00  0.30145401615E+04  0.30145401615E+04  0.00000000000E+00 0. -1.
         -2   -1    0    0    0  501 -0.00000000000E+00 -0.00000000000E+00 -0.85549420102E+03  0.85549420102E+03  0.00000000000E+00 0.  1.
         23    2    1    2    0    0 -0.12338411133E+04 -0.60843085539E+03  0.20758457527E+04  0.24918202017E+04  0.86488900682E+02 0.  0.
         13    1    3    3    0    0 -0.10597338043E+04 -0.55364601127E+03  0.18167790776E+04  0.21749128393E+04  0.00000000000E+00 0.  1.
        -13    1    3    3    0    0 -0.17410730901E+03 -0.54784844125E+02  0.25906667512E+03  0.31690736242E+03  0.00000000000E+00 0. -1.
         22    1    1    2    0    0  0.12338411133E+04  0.60843085539E+03  0.83200207780E+02  0.13782141608E+04  0.00000000000E+00 0.  1.
<mgrwt>
<rscale>  0 0.32118042E+04</rscale>
<asrwt>0</asrwt>
<pdfrwt beam="1">  1        2 0.46377540E+00 0.32118042E+04</pdfrwt>
<pdfrwt beam="2">  1       -2 0.13161449E+00 0.32118042E+04</pdfrwt>
<totfact> 0.60323940E-01</totfact>
</mgrwt>
</event>
<event>
 6    1  0.9906445E-006  0.3565860E+04  0.7818608E-02  0.8098357E-01
         -1   -1    0    0    0  501 -0.00000000000E+00  0.00000000000E+00  0.77092347248E+03  0.77092347248E+03  0.00000000000E+00 0.  1.
          1   -1    0    0  501    0  0.00000000000E+00 -0.00000000000E+00 -0.41234168083E+04  0.41234168083E+04  0.00000000000E+00 0. -1.
         23    2    1    2    0    0 -0.86872277368E+03  0.14895628729E+04 -0.10617483668E+04  0.20271135156E+04  0.91666792386E+02 0.  0.
         13    1    3    3    0    0 -0.13940154585E+03  0.26312045029E+03 -0.14604438381E+03  0.33165362110E+03  0.00000000000E+00 0.  1.
        -13    1    3    3    0    0 -0.72932122783E+03  0.12264424226E+04 -0.91570398300E+03  0.16954598945E+04  0.00000000000E+00 0. -1.
         22    1    1    2    0    0  0.86872277368E+03 -0.14895628729E+04 -0.22907449690E+04  0.28672267652E+04  0.00000000000E+00 0. -1.
<mgrwt>
<rscale>  0 0.35658597E+04</rscale>
<asrwt>0</asrwt>
<pdfrwt beam="1">  1        1 0.63437183E+00 0.35658597E+04</pdfrwt>
<pdfrwt beam="2">  1       -1 0.11860361E+00 0.35658597E+04</pdfrwt>
<totfact> 0.38341847E-02</totfact>
</mgrwt>
</event>
<event>
 6    1  0.9906445E-006  0.5648395E+03  0.7818608E-02  0.9981164E-01
          1   -1    0    0  501    0  0.00000000000E+00  0.00000000000E+00  0.36912639065E+03  0.36912639065E+03  0.00000000000E+00 0. -1.
         -1   -1    0    0    0  501 -0.00000000000E+00 -0.00000000000E+00 -0.21608022782E+03  0.21608022782E+03  0.00000000000E+00 0.  1.
         23    2    1    2    0    0  0.13543749205E+03  0.23917220533E+03  0.73827644004E+02  0.29916076239E+03  0.92195350640E+02 0.  0.
         13    1    3    3    0    0  0.68891721398E+02  0.20255097045E+03  0.53719647274E+02  0.22058731924E+03  0.00000000000E+00 0. -1.
        -13    1    3    3    0    0  0.66545770650E+02  0.36621234882E+02  0.20107996731E+02  0.78573443149E+02  0.00000000000E+00 0.  1.
         22    1    1    2    0    0 -0.13543749205E+03 -0.23917220533E+03  0.79218518820E+02  0.28604585608E+03  0.00000000000E+00 0. -1.
<mgrwt>
<rscale>  0 0.56483950E+03</rscale>
<asrwt>0</asrwt>
<pdfrwt beam="1">  1        1 0.56788675E-01 0.56483950E+03</pdfrwt>
<pdfrwt beam="2">  1       -1 0.33243112E-01 0.56483950E+03</pdfrwt>
<totfact> 0.57349920E+02</totfact>
</mgrwt>
</event>
<event>
 6    1  0.9906445E-006  0.2821707E+04  0.7818608E-02  0.8296561E-01
         -2   -1    0    0    0  501 -0.00000000000E+00  0.00000000000E+00  0.10862516314E+04  0.10862516314E+04  0.00000000000E+00 0.  1.
          2   -1    0    0  501    0  0.00000000000E+00 -0.00000000000E+00 -0.18324547856E+04  0.18324547856E+04  0.00000000000E+00 0. -1.
         23    2    1    2    0    0  0.77736624586E+03 -0.10352438306E+04 -0.94967592363E+03  0.16081991728E+04  0.91608681483E+02 0.  0.
         11    1    3    3    0    0  0.18817138416E+03 -0.26414709803E+03 -0.28719036184E+03  0.43319794915E+03  0.00000000000E+00 0.  1.
        -11    1    3    3    0    0  0.58919486169E+03 -0.77109673259E+03 -0.66248556180E+03  0.11750012237E+04  0.00000000000E+00 0. -1.
         22    1    1    2    0    0 -0.77736624586E+03  0.10352438306E+04  0.20347276941E+03  0.13105072441E+04  0.00000000000E+00 0.  1.
<mgrwt>
<rscale>  0 0.28217066E+04</rscale>
<asrwt>0</asrwt>
<pdfrwt beam="1">  1        2 0.28191612E+00 0.28217066E+04</pdfrwt>
<pdfrwt beam="2">  1       -2 0.16711564E+00 0.28217066E+04</pdfrwt>
<totfact> 0.16073724E+00</totfact>
</mgrwt>
</event>
<event>
 6    1  0.9906445E-006  0.3253290E+04  0.7818608E-02  0.8174883E-01
         -1   -1    0    0    0  501 -0.00000000000E+00  0.00000000000E+00  0.11344580119E+04  0.11344580119E+04  0.00000000000E+00 0.  1.
          1   -1    0    0  501    0  0.00000000000E+00 -0.00000000000E+00 -0.23323683075E+04  0.23323683075E+04  0.00000000000E+00 0. -1.
         23    2    1    2    0    0  0.11515913182E+04 -0.44839281005E+03 -0.17244423261E+04  0.21235264068E+04  0.91893352831E+02 0.  0.
         13    1    3    3    0    0  0.36200437245E+03 -0.13728262371E+03 -0.46915835272E+03  0.60827891988E+03  0.00000000000E+00 0.  1.
        -13    1    3    3    0    0  0.78958694571E+03 -0.31111018634E+03 -0.12552839733E+04  0.15152474869E+04  0.00000000000E+00 0. -1.
         22    1    1    2    0    0 -0.11515913182E+04  0.44839281005E+03  0.52653203041E+03  0.13432999126E+04  0.00000000000E+00 0.  1.
<mgrwt>
<rscale>  0 0.32532900E+04</rscale>
<asrwt>0</asrwt>
<pdfrwt beam="1">  1        1 0.35882589E+00 0.32532900E+04</pdfrwt>
<pdfrwt beam="2">  1       -1 0.17453200E+00 0.32532900E+04</pdfrwt>
<totfact> 0.33571669E-01</totfact>
</mgrwt>
</event>
<event>
 6    1  0.9906445E-006  0.3274924E+04  0.7818608E-02  0.8169305E-01
          2   -1    0    0  501    0  0.00000000000E+00  0.00000000000E+00  0.13047137390E+04  0.13047137390E+04  0.00000000000E+00 0.  1.
         -2   -1    0    0    0  501 -0.00000000000E+00 -0.00000000000E+00 -0.20550729084E+04  0.20550729084E+04  0.00000000000E+00 0. -1.
         23    2    1    2    0    0  0.82162768542E+03 -0.12630284804E+04 -0.10299110599E+04  0.18273173148E+04  0.89770718381E+02 0.  0.
         13    1    3    3    0    0  0.45717191027E+02 -0.10437928732E+03 -0.60611295073E+02  0.12906907557E+03  0.00000000000E+00 0.  1.
        -13    1    3    3    0    0  0.77591049439E+03 -0.11586491930E+04 -0.96929976487E+03  0.16982482392E+04  0.00000000000E+00 0. -1.
         22    1    1    2    0    0 -0.82162768542E+03  0.12630284804E+04  0.27955189054E+03  0.15324693325E+04  0.00000000000E+00 0. -1.
<mgrwt>
<rscale>  0 0.32749240E+04</rscale>
<asrwt>0</asrwt>
<pdfrwt beam="1">  1        2 0.20072519E+00 0.32749240E+04</pdfrwt>
<pdfrwt beam="2">  1       -2 0.31616506E+00 0.32749240E+04</pdfrwt>
<totfact> 0.34755733E-01</totfact>
</mgrwt>
</event>
<event>
 6    1  0.9906446E-006  0.2525967E+04  0.7818608E-02  0.8393793E-01
         -2   -1    0    0    0  501 -0.00000000000E+00  0.00000000000E+00  0.75072683504E+03  0.75072683504E+03  0.00000000000E+00 0.  1.
          2   -1    0    0  501    0  0.00000000000E+00 -0.00000000000E+00 -0.21247766328E+04  0.21247766328E+04  0.00000000000E+00 0. -1.
         23    2    1    2    0    0 -0.10127880311E+04 -0.63870417810E+03 -0.11394975214E+04  0.16553815913E+04  0.90282825760E+02 0.  0.
         11    1    3    3    0    0 -0.69656933569E+03 -0.47522764321E+03 -0.76222643001E+03  0.11366790589E+04  0.00000000000E+00 0. -1.
        -11    1    3    3    0    0 -0.31621869543E+03 -0.16347653489E+03 -0.37727109137E+03  0.51870253246E+03  0.00000000000E+00 0.  1.
         22    1    1    2    0    0  0.10127880311E+04  0.63870417810E+03 -0.23455227637E+03  0.12201218765E+04  0.00000000000E+00 0.  1.
<mgrwt>
<rscale>  0 0.25259666E+04</rscale>
<asrwt>0</asrwt>
<pdfrwt beam="1">  1        2 0.32688871E+00 0.25259666E+04</pdfrwt>
<pdfrwt beam="2">  1       -2 0.11549644E+00 0.25259666E+04</pdfrwt>
<totfact> 0.29551123E+00</totfact>
</mgrwt>
</event>
<event>
 6    1  0.9906445E-006  0.2620984E+04  0.7818608E-02  0.8361108E-01
         -2   -1    0    0    0  501 -0.00000000000E+00  0.00000000000E+00  0.77975782136E+03  0.77975782136E+03  0.00000000000E+00 0.  1.
          2   -1    0    0  501    0  0.00000000000E+00 -0.00000000000E+00 -0.22024651639E+04  0.22024651639E+04  0.00000000000E+00 0. -1.
         23    2    1    2    0    0 -0.66532284027E+03 -0.43566248296E+03 -0.18949954278E+04  0.20572838974E+04  0.94620727876E+02 0.  0.
         11    1    3    3    0    0 -0.23306983841E+03 -0.12442603203E+03 -0.72863553906E+03  0.77505685972E+03  0.00000000000E+00 0. -1.
        -11    1    3    3    0    0 -0.43225300186E+03 -0.31123645093E+03 -0.11663598887E+04  0.12822270376E+04  0.00000000000E+00 0.  1.
         22    1    1    2    0    0  0.66532284027E+03  0.43566248296E+03  0.47228808525E+03  0.92493908790E+03  0.00000000000E+00 0.  1.
<mgrwt>
<rscale>  0 0.26209841E+04</rscale>
<asrwt>0</asrwt>
<pdfrwt beam="1">  1        2 0.33884079E+00 0.26209841E+04</pdfrwt>
<pdfrwt beam="2">  1       -2 0.11996274E+00 0.26209841E+04</pdfrwt>
<totfact> 0.24151838E+00</totfact>
</mgrwt>
</event>
<event>
 6    1  0.9906445E-006  0.1695649E+04  0.7818608E-02  0.8763850E-01
         -2   -1    0    0    0  501 -0.00000000000E+00  0.00000000000E+00  0.96745233132E+03  0.96745233132E+03  0.00000000000E+00 0.  1.
          2   -1    0    0  501    0  0.00000000000E+00 -0.00000000000E+00 -0.74298909918E+03  0.74298909918E+03  0.00000000000E+00 0. -1.
         23    2    1    2    0    0 -0.47835080722E+02  0.16580873240E+03 -0.72229418317E+03  0.74808477409E+03  0.90228662246E+02 0.  0.
         11    1    3    3    0    0 -0.54302057902E+02  0.37228757771E+02 -0.23047468360E+03  0.23969412525E+03  0.00000000000E+00 0. -1.
        -11    1    3    3    0    0  0.64669771808E+01  0.12857997463E+03 -0.49181949957E+03  0.50839064884E+03  0.00000000000E+00 0.  1.
         22    1    1    2    0    0  0.47835080722E+02 -0.16580873240E+03  0.94675741531E+03  0.96235665641E+03  0.00000000000E+00 0.  1.
<mgrwt>
<rscale>  0 0.16956492E+04</rscale>
<asrwt>0</asrwt>
<pdfrwt beam="1">  1        2 0.11430601E+00 0.16956492E+04</pdfrwt>
<pdfrwt beam="2">  1       -2 0.14883882E+00 0.16956492E+04</pdfrwt>
<totfact> 0.11046140E+01</totfact>
</mgrwt>
</event>
<event>
 6    1  0.9906445E-006  0.1235416E+04  0.7818608E-02  0.9082410E-01
          1   -1    0    0  501    0  0.00000000000E+00  0.00000000000E+00  0.26707413083E+03  0.26707413083E+03  0.00000000000E+00 0. -1.
         -1   -1    0    0    0  501 -0.00000000000E+00 -0.00000000000E+00 -0.14286782615E+04  0.14286782615E+04  0.00000000000E+00 0.  1.
         23    2    1    2    0    0 -0.79679514637E+02  0.23037792310E+03  0.18976229242E+03  0.32257577515E+03  0.92857905317E+02 0.  0.
         11    1    3    3    0    0 -0.71661402261E+02  0.11295258881E+03  0.57713412045E+02  0.14568624445E+03  0.00000000000E+00 0. -1.
        -11    1    3    3    0    0 -0.80181123757E+01  0.11742533429E+03  0.13204888038E+03  0.17688953069E+03  0.00000000000E+00 0.  1.
         22    1    1    2    0    0  0.79679514637E+02 -0.23037792310E+03 -0.13513664231E+04  0.13731766172E+04  0.00000000000E+00 0.  1.
<mgrwt>
<rscale>  0 0.12354157E+04</rscale>
<asrwt>0</asrwt>
<pdfrwt beam="1">  1        1 0.41088329E-01 0.12354157E+04</pdfrwt>
<pdfrwt beam="2">  1       -1 0.21979665E+00 0.12354157E+04</pdfrwt>
<totfact> 0.11128361E+01</totfact>
</mgrwt>
</event>
<event>
 6    1  0.9906445E-006  0.3065014E+04  0.7818608E-02  0.8225405E-01
         -1   -1    0    0    0  501 -0.00000000000E+00  0.00000000000E+00  0.75972764655E+03  0.75972764655E+03  0.00000000000E+00 0.  1.
          1   -1    0    0  501    0  0.00000000000E+00 -0.00000000000E+00 -0.30913425961E+04  0.30913425961E+04  0.00000000000E+00 0. -1.
         23    2    1    2    0    0 -0.14234698325E+04  0.34670309781E+03 -0.17256740557E+04  0.22656258983E+04  0.92953550165E+02 0.  0.
         13    1    3    3    0    0 -0.51633175402E+03  0.93092564809E+02 -0.66609199465E+03  0.84790521356E+03  0.00000000000E+00 0. -1.
        -13    1    3    3    0    0 -0.90713807852E+03  0.25361053300E+03 -0.10595820610E+04  0.14177206848E+04  0.00000000000E+00 0.  1.
         22    1    1    2    0    0  0.14234698325E+04 -0.34670309781E+03 -0.60594089391E+03  0.15854443444E+04  0.00000000000E+00 0.  1.
<mgrwt>
<rscale>  0 0.30650145E+04</rscale>
<asrwt>0</asrwt>
<pdfrwt beam="1">  1        1 0.47559116E+00 0.30650145E+04</pdfrwt>
<pdfrwt beam="2">  1       -1 0.11688118E+00 0.30650145E+04</pdfrwt>
<totfact> 0.28588020E-01</totfact>
</mgrwt>
</event>
<event>
 6    1  0.1105677E-005  0.4624046E+04  0.7818608E-02  0.7889273E-01
         -2   -1    0    0    0  501 -0.00000000000E+00  0.00000000000E+00  0.18244713735E+04  0.18244713735E+04  0.00000000000E+00 0.  1.
          2   -1    0    0  501    0  0.00000000000E+00 -0.00000000000E+00 -0.29298629102E+04  0.29298629102E+04  0.00000000000E+00 0. -1.
         23    2    1    2    0    0 -0.11573775354E+04  0.31816562287E+03  0.14776941835E+04  0.19059866995E+04  0.91940609036E+02 0.  0.
         13    1    3    3    0    0 -0.62055600933E+03  0.16719393710E+03  0.71847130508E+03  0.96397333445E+03  0.00000000000E+00 0.  1.
        -13    1    3    3    0    0 -0.53682152610E+03  0.15097168577E+03  0.75922287840E+03  0.94201336502E+03  0.00000000000E+00 0. -1.
         22    1    1    2    0    0  0.11573775354E+04 -0.31816562287E+03 -0.25830857202E+04  0.28483475843E+04  0.00000000000E+00 0. -1.
<mgrwt>
<rscale>  0 0.46240463E+04</rscale>
<asrwt>0</asrwt>
<pdfrwt beam="1">  1        2 0.45074814E+00 0.46240463E+04</pdfrwt>
<pdfrwt beam="2">  1       -2 0.28068790E+00 0.46240463E+04</pdfrwt>
<totfact> 0.60220720E-02</totfact>
</mgrwt>
</event>
<event>
 6    1  0.9906445E-006  0.2882042E+04  0.7818608E-02  0.8278241E-01
         -2   -1    0    0    0  501 -0.00000000000E+00  0.00000000000E+00  0.19365675714E+04  0.19365675714E+04  0.00000000000E+00 0.  1.
          2   -1    0    0  501    0  0.00000000000E+00 -0.00000000000E+00 -0.10722793923E+04  0.10722793923E+04  0.00000000000E+00 0. -1.
         23    2    1    2    0    0  0.78221135462E+03  0.15768486232E+03  0.16834775850E+04  0.18652603242E+04  0.91543316846E+02 0.  0.
         13    1    3    3    0    0  0.59119093239E+03  0.12214612772E+03  0.13591926573E+04  0.14872226043E+04  0.00000000000E+00 0.  1.
        -13    1    3    3    0    0  0.19102042223E+03  0.35538734595E+02  0.32428492771E+03  0.37803771995E+03  0.00000000000E+00 0. -1.
         22    1    1    2    0    0 -0.78221135462E+03 -0.15768486232E+03 -0.81918940590E+03  0.11435866394E+04  0.00000000000E+00 0. -1.
<mgrwt>
<rscale>  0 0.28820420E+04</rscale>
<asrwt>0</asrwt>
<pdfrwt beam="1">  1        2 0.16496606E+00 0.28820420E+04</pdfrwt>
<pdfrwt beam="2">  1       -2 0.29793347E+00 0.28820420E+04</pdfrwt>
<totfact> 0.64108636E-01</totfact>
</mgrwt>
</event>
<event>
 6    1  0.9906445E-006  0.1979178E+04  0.7818608E-02  0.8616418E-01
         -2   -1    0    0    0  501 -0.00000000000E+00  0.00000000000E+00  0.10803832060E+04  0.10803832060E+04  0.00000000000E+00 0.  1.
          2   -1    0    0  501    0  0.00000000000E+00 -0.00000000000E+00 -0.90642538112E+03  0.90642538112E+03  0.00000000000E+00 0. -1.
         23    2    1    2    0    0 -0.60319433451E+03  0.51176236817E+03  0.68048626864E+03  0.10474922449E+04  0.91838524344E+02 0.  0.
         13    1    3    3    0    0 -0.24008674613E+03  0.23303511697E+03  0.23597611762E+03  0.40942855237E+03  0.00000000000E+00 0. -1.
        -13    1    3    3    0    0 -0.36310758838E+03  0.27872725120E+03  0.44451015103E+03  0.63806369248E+03  0.00000000000E+00 0.  1.
         22    1    1    2    0    0  0.60319433451E+03 -0.51176236817E+03 -0.50652844371E+03  0.93931634232E+03  0.00000000000E+00 0. -1.
<mgrwt>
<rscale>  0 0.19791784E+04</rscale>
<asrwt>0</asrwt>
<pdfrwt beam="1">  1        2 0.13945006E+00 0.19791784E+04</pdfrwt>
<pdfrwt beam="2">  1       -2 0.16621280E+00 0.19791784E+04</pdfrwt>
<totfact> 0.61275744E+00</totfact>
</mgrwt>
</event>
<event>
 6    1  0.9906445E-006  0.2182256E+04  0.7818608E-02  0.8525850E-01
         -3   -1    0    0    0  501 -0.00000000000E+00  0.00000000000E+00  0.29843524082E+04  0.29843524082E+04  0.00000000000E+00 0.  1.
          3   -1    0    0  501    0  0.00000000000E+00 -0.00000000000E+00 -0.39893433105E+03  0.39893433105E+03  0.00000000000E+00 0. -1.
         23    2    1    2    0    0  0.20986243260E+03  0.10642740334E+04  0.11401840015E+04  0.15762385959E+04  0.88244518863E+02 0.  0.
         11    1    3    3    0    0  0.12864108812E+03  0.49598507609E+03  0.49147640939E+03  0.70999914524E+03  0.00000000000E+00 0. -1.
        -11    1    3    3    0    0  0.81221344485E+02  0.56828895736E+03  0.64870759212E+03  0.86623945069E+03  0.00000000000E+00 0.  1.
         22    1    1    2    0    0 -0.20986243260E+03 -0.10642740334E+04  0.14452340756E+04  0.18070481433E+04  0.00000000000E+00 0.  1.
<mgrwt>
<rscale>  0 0.21822563E+04</rscale>
<asrwt>0</asrwt>
<pdfrwt beam="1">  1        3 0.61374515E-01 0.21822563E+04</pdfrwt>
<pdfrwt beam="2">  1       -3 0.45913112E+00 0.21822563E+04</pdfrwt>
<totfact> 0.31153189E-02</totfact>
</mgrwt>
</event>
<event>
 6    1  0.9906445E-006  0.2195046E+04  0.7818608E-02  0.8520493E-01
          2   -1    0    0  501    0  0.00000000000E+00  0.00000000000E+00  0.17619112805E+04  0.17619112805E+04  0.00000000000E+00 0. -1.
         -2   -1    0    0    0  501 -0.00000000000E+00 -0.00000000000E+00 -0.68366508631E+03  0.68366508631E+03  0.00000000000E+00 0.  1.
         23    2    1    2    0    0 -0.74652998148E+03  0.53959886453E+03  0.12008340667E+04  0.15163284267E+04  0.93677605686E+02 0.  0.
         13    1    3    3    0    0 -0.51245916347E+03  0.33038865581E+03  0.84135933652E+03  0.10390652488E+04  0.00000000000E+00 0.  1.
        -13    1    3    3    0    0 -0.23407081801E+03  0.20921020872E+03  0.35947473022E+03  0.47726317786E+03  0.00000000000E+00 0. -1.
         22    1    1    2    0    0  0.74652998148E+03 -0.53959886453E+03 -0.12258787251E+03  0.92924794019E+03  0.00000000000E+00 0.  1.
<mgrwt>
<rscale>  0 0.21950464E+04</rscale>
<asrwt>0</asrwt>
<pdfrwt beam="1">  1        2 0.27106327E+00 0.21950464E+04</pdfrwt>
<pdfrwt beam="2">  1       -2 0.10517924E+00 0.21950464E+04</pdfrwt>
<totfact> 0.60648425E+00</totfact>
</mgrwt>
</event>
<event>
 6    1  0.9906445E-006  0.2879041E+04  0.7818608E-02  0.8279141E-01
         -2   -1    0    0    0  501 -0.00000000000E+00  0.00000000000E+00  0.13376126949E+04  0.13376126949E+04  0.00000000000E+00 0.  1.
          2   -1    0    0  501    0  0.00000000000E+00 -0.00000000000E+00 -0.15491926420E+04  0.15491926420E+04  0.00000000000E+00 0. -1.
         23    2    1    2    0    0 -0.12888989802E+04 -0.60963635435E+03  0.80748115966E+02  0.14313422621E+04  0.96453861014E+02 0.  0.
         13    1    3    3    0    0 -0.99217693363E+03 -0.42898188376E+03  0.41482954111E+02  0.10817399686E+04  0.00000000000E+00 0.  1.
        -13    1    3    3    0    0 -0.29672204654E+03 -0.18065447059E+03  0.39265161855E+02  0.34960229345E+03  0.00000000000E+00 0. -1.
         22    1    1    2    0    0  0.12888989802E+04  0.60963635435E+03 -0.29232806312E+03  0.14554630748E+04  0.00000000000E+00 0.  1.
<mgrwt>
<rscale>  0 0.28790413E+04</rscale>
<asrwt>0</asrwt>
<pdfrwt beam="1">  1        2 0.23833733E+00 0.28790413E+04</pdfrwt>
<pdfrwt beam="2">  1       -2 0.20578657E+00 0.28790413E+04</pdfrwt>
<totfact> 0.12553267E+00</totfact>
</mgrwt>
</event>
<event>
 6    1  0.9906445E-006  0.2171200E+04  0.7818608E-02  0.8530512E-01
         -2   -1    0    0    0  501 -0.00000000000E+00  0.00000000000E+00  0.16330061800E+04  0.16330061800E+04  0.00000000000E+00 0.  1.
          2   -1    0    0  501    0  0.00000000000E+00 -0.00000000000E+00 -0.72169198245E+03  0.72169198245E+03  0.00000000000E+00 0. -1.
         23    2    1    2    0    0 -0.65273852504E+02  0.10675583115E+04  0.26755828466E+03  0.11063540193E+04  0.92143129004E+02 0.  0.
         13    1    3    3    0    0 -0.21274986537E+02  0.27250289027E+03  0.11004222588E+03  0.29465189926E+03  0.00000000000E+00 0. -1.
        -13    1    3    3    0    0 -0.43998865967E+02  0.79505542119E+03  0.15751605878E+03  0.81170212008E+03  0.00000000000E+00 0.  1.
         22    1    1    2    0    0  0.65273852504E+02 -0.10675583115E+04  0.64375591285E+03  0.12483441431E+04  0.00000000000E+00 0.  1.
<mgrwt>
<rscale>  0 0.21712001E+04</rscale>
<asrwt>0</asrwt>
<pdfrwt beam="1">  1        2 0.11102954E+00 0.21712001E+04</pdfrwt>
<pdfrwt beam="2">  1       -2 0.25123172E+00 0.21712001E+04</pdfrwt>
<totfact> 0.22797081E+00</totfact>
</mgrwt>
</event>
<event>
 6    1  0.9906445E-006  0.2826600E+04  0.7818608E-02  0.8295057E-01
         -2   -1    0    0    0  501 -0.00000000000E+00  0.00000000000E+00  0.15909790186E+04  0.15909790186E+04  0.00000000000E+00 0.  1.
          2   -1    0    0  501    0  0.00000000000E+00 -0.00000000000E+00 -0.12554638809E+04  0.12554638809E+04  0.00000000000E+00 0. -1.
         23    2    1    2    0    0 -0.51777709038E+03  0.47007695788E+03 -0.10671225864E+04  0.12791337256E+04  0.91471372966E+02 0.  0.
         13    1    3    3    0    0 -0.14363737572E+03  0.12301829684E+03 -0.36575265652E+03  0.41175259904E+03  0.00000000000E+00 0. -1.
        -13    1    3    3    0    0 -0.37413971466E+03  0.34705866104E+03 -0.70136992985E+03  0.86738112660E+03  0.00000000000E+00 0.  1.
         22    1    1    2    0    0  0.51777709038E+03 -0.47007695788E+03  0.14026377240E+04  0.15673091739E+04  0.00000000000E+00 0.  1.
<mgrwt>
<rscale>  0 0.28265999E+04</rscale>
<asrwt>0</asrwt>
<pdfrwt beam="1">  1        2 0.19314829E+00 0.28265999E+04</pdfrwt>
<pdfrwt beam="2">  1       -2 0.24476600E+00 0.28265999E+04</pdfrwt>
<totfact> 0.10551298E+00</totfact>
</mgrwt>
</event>
<event>
 6    1  0.9906445E-006  0.2812657E+04  0.7818608E-02  0.8299350E-01
          2   -1    0    0  501    0  0.00000000000E+00  0.00000000000E+00  0.30395082403E+04  0.30395082403E+04  0.00000000000E+00 0.  1.
         -2   -1    0    0    0  501 -0.00000000000E+00 -0.00000000000E+00 -0.65068415022E+03  0.65068415022E+03  0.00000000000E+00 0. -1.
         23    2    1    2    0    0  0.12612644980E+04 -0.21988108550E+03  0.43712216056E+03  0.13560381010E+04  0.92885534472E+02 0.  0.
         13    1    3    3    0    0  0.56473686142E+03 -0.96217582910E+02  0.24444858473E+03  0.62284882314E+03  0.00000000000E+00 0. -1.
        -13    1    3    3    0    0  0.69652763654E+03 -0.12366350259E+03  0.19267357583E+03  0.73318927786E+03  0.00000000000E+00 0.  1.
         22    1    1    2    0    0 -0.12612644980E+04  0.21988108550E+03  0.19517019295E+04  0.23341542895E+04  0.00000000000E+00 0. -1.
<mgrwt>
<rscale>  0 0.28126570E+04</rscale>
<asrwt>0</asrwt>
<pdfrwt beam="1">  1        2 0.46761664E+00 0.28126570E+04</pdfrwt>
<pdfrwt beam="2">  1       -2 0.10010526E+00 0.28126570E+04</pdfrwt>
<totfact> 0.11771299E+00</totfact>
</mgrwt>
</event>
<event>
 6    1  0.9906445E-006  0.9068449E+03  0.7818608E-02  0.9417065E-01
         -1   -1    0    0    0  501 -0.00000000000E+00  0.00000000000E+00  0.10988583772E+04  0.10988583772E+04  0.00000000000E+00 0.  1.
          1   -1    0    0  501    0  0.00000000000E+00 -0.00000000000E+00 -0.18709593216E+03  0.18709593216E+03  0.00000000000E+00 0. -1.
         23    2    1    2    0    0  0.17075656010E+03 -0.17341899429E+03 -0.79950187606E+02  0.26481480069E+03  0.67103619615E+02 0.  0.
         11    1    3    3    0    0  0.92886672668E+02 -0.13204691084E+03 -0.32510118217E+02  0.16468524041E+03  0.00000000000E+00 0. -1.
        -11    1    3    3    0    0  0.77869887435E+02 -0.41372083454E+02 -0.47440069389E+02  0.10012956028E+03  0.00000000000E+00 0.  1.
         22    1    1    2    0    0 -0.17075656010E+03  0.17341899429E+03  0.99171263261E+03  0.10211395086E+04  0.00000000000E+00 0.  1.
<mgrwt>
<rscale>  0 0.90684493E+03</rscale>
<asrwt>0</asrwt>
<pdfrwt beam="1">  1        1 0.28783990E-01 0.90684493E+03</pdfrwt>
<pdfrwt beam="2">  1       -1 0.16905513E+00 0.90684493E+03</pdfrwt>
<totfact> 0.40964293E+01</totfact>
</mgrwt>
</event>
<event>
 6    1  0.9906445E-006  0.4181935E+04  0.7818608E-02  0.7968818E-01
          1   -1    0    0  501    0  0.00000000000E+00  0.00000000000E+00  0.23801089234E+04  0.23801089234E+04  0.00000000000E+00 0. -1.
         -1   -1    0    0    0  501 -0.00000000000E+00 -0.00000000000E+00 -0.18369512717E+04  0.18369512717E+04  0.00000000000E+00 0.  1.
         23    2    1    2    0    0  0.71305402957E+03  0.13481205521E+04  0.17127579524E+04  0.22951236885E+04  0.90431577790E+02 0.  0.
         13    1    3    3    0    0  0.55153858933E+03  0.10071486653E+04  0.12348968434E+04  0.16862720609E+04  0.00000000000E+00 0.  1.
        -13    1    3    3    0    0  0.16151544024E+03  0.34097188673E+03  0.47786110897E+03  0.60885162761E+03  0.00000000000E+00 0. -1.
         22    1    1    2    0    0 -0.71305402957E+03 -0.13481205521E+04 -0.11696003007E+04  0.19219365066E+04  0.00000000000E+00 0.  1.
<mgrwt>
<rscale>  0 0.41819345E+04</rscale>
<asrwt>0</asrwt>
<pdfrwt beam="1">  1        1 0.36617061E+00 0.41819345E+04</pdfrwt>
<pdfrwt beam="2">  1       -1 0.28260789E+00 0.41819345E+04</pdfrwt>
<totfact> 0.54130293E-02</totfact>
</mgrwt>
</event>
<event>
 6    1  0.1001434E-005  0.3173684E+04  0.7818608E-02  0.8195802E-01
          2   -1    0    0  501    0  0.00000000000E+00  0.00000000000E+00  0.28799504259E+04  0.28799504259E+04  0.00000000000E+00 0. -1.
         -2   -1    0    0    0  501 -0.00000000000E+00 -0.00000000000E+00 -0.87434420455E+03  0.87434420455E+03  0.00000000000E+00 0.  1.
         23    2    1    2    0    0 -0.11333036826E+04 -0.10770566228E+04  0.69108327250E+03  0.17116495833E+04  0.87863533648E+02 0.  0.
         11    1    3    3    0    0 -0.76870057552E+03 -0.68096065297E+03  0.47648748378E+03  0.11320990716E+04  0.00000000000E+00 0.  1.
        -11    1    3    3    0    0 -0.36460310708E+03 -0.39609596986E+03  0.21459578872E+03  0.57955051166E+03  0.00000000000E+00 0. -1.
         22    1    1    2    0    0  0.11333036826E+04  0.10770566228E+04  0.13145229489E+04  0.20426450472E+04  0.00000000000E+00 0. -1.
<mgrwt>
<rscale>  0 0.31736843E+04</rscale>
<asrwt>0</asrwt>
<pdfrwt beam="1">  1        2 0.44306929E+00 0.31736843E+04</pdfrwt>
<pdfrwt beam="2">  1       -2 0.13451449E+00 0.31736843E+04</pdfrwt>
<totfact> 0.69410236E-01</totfact>
</mgrwt>
</event>
<event>
 6    1  0.9906445E-006  0.1727866E+04  0.7818608E-02  0.8745629E-01
         -2   -1    0    0    0  501 -0.00000000000E+00  0.00000000000E+00  0.40059394126E+03  0.40059394126E+03  0.00000000000E+00 0. -1.
          2   -1    0    0  501    0  0.00000000000E+00 -0.00000000000E+00 -0.18631846608E+04  0.18631846608E+04  0.00000000000E+00 0.  1.
         23    2    1    2    0    0 -0.29781830461E+03  0.15578542536E+03  0.30591172717E+03  0.46362145744E+03  0.91640764207E+02 0.  0.
         11    1    3    3    0    0 -0.11001489171E+03  0.79081098756E+02  0.17837896111E+03  0.22400033559E+03  0.00000000000E+00 0.  1.
        -11    1    3    3    0    0 -0.18780341290E+03  0.76704326600E+02  0.12753276606E+03  0.23962112185E+03  0.00000000000E+00 0. -1.
         22    1    1    2    0    0  0.29781830461E+03 -0.15578542536E+03 -0.17685024467E+04  0.18001571447E+04  0.00000000000E+00 0.  1.
<mgrwt>
<rscale>  0 0.17278663E+04</rscale>
<asrwt>0</asrwt>
<pdfrwt beam="1">  1        2 0.28664380E+00 0.17278663E+04</pdfrwt>
<pdfrwt beam="2">  1       -2 0.61629836E-01 0.17278663E+04</pdfrwt>
<totfact> 0.18488926E+01</totfact>
</mgrwt>
</event>
<event>
 6    1  0.9906445E-006  0.2902049E+04  0.7818608E-02  0.8272268E-01
         -2   -1    0    0    0  501 -0.00000000000E+00  0.00000000000E+00  0.11538247700E+04  0.11538247700E+04  0.00000000000E+00 0.  1.
          2   -1    0    0  501    0  0.00000000000E+00 -0.00000000000E+00 -0.18247768457E+04  0.18247768457E+04  0.00000000000E+00 0. -1.
         23    2    1    2    0    0  0.63105026333E+03 -0.25207346500E+03  0.97834706587E+03  0.11947986207E+04  0.92818619419E+02 0.  0.
         11    1    3    3    0    0  0.24341783895E+03 -0.49234370710E+02  0.35471411848E+03  0.43301082369E+03  0.00000000000E+00 0. -1.
        -11    1    3    3    0    0  0.38763242437E+03 -0.20283909429E+03  0.62363294739E+03  0.76178779701E+03  0.00000000000E+00 0.  1.
         22    1    1    2    0    0 -0.63105026333E+03  0.25207346500E+03 -0.16492991416E+04  0.17838029950E+04  0.00000000000E+00 0. -1.
<mgrwt>
<rscale>  0 0.29020494E+04</rscale>
<asrwt>0</asrwt>
<pdfrwt beam="1">  1        2 0.28073490E+00 0.29020494E+04</pdfrwt>
<pdfrwt beam="2">  1       -2 0.17751150E+00 0.29020494E+04</pdfrwt>
<totfact> 0.13613269E+00</totfact>
</mgrwt>
</event>
<event>
 6    1  0.9906445E-006  0.2052506E+04  0.7818608E-02  0.8582458E-01
         -2   -1    0    0    0  501 -0.00000000000E+00  0.00000000000E+00  0.87646113413E+03  0.87646113413E+03  0.00000000000E+00 0.  1.
          2   -1    0    0  501    0  0.00000000000E+00 -0.00000000000E+00 -0.12016454288E+04  0.12016454288E+04  0.00000000000E+00 0. -1.
         23    2    1    2    0    0 -0.26860403896E+03 -0.91390490735E+03 -0.54455556685E+03  0.11006127960E+04  0.86240662590E+02 0.  0.
         13    1    3    3    0    0 -0.16579052100E+03 -0.69409879127E+03 -0.39733398392E+03  0.81678266612E+03  0.00000000000E+00 0.  1.
        -13    1    3    3    0    0 -0.10281351796E+03 -0.21980611608E+03 -0.14722158293E+03  0.28383012987E+03  0.00000000000E+00 0. -1.
         22    1    1    2    0    0  0.26860403896E+03  0.91390490735E+03  0.21937127216E+03  0.97749376697E+03  0.00000000000E+00 0.  1.
<mgrwt>
<rscale>  0 0.20525063E+04</rscale>
<asrwt>0</asrwt>
<pdfrwt beam="1">  1        2 0.18486853E+00 0.20525063E+04</pdfrwt>
<pdfrwt beam="2">  1       -2 0.13484017E+00 0.20525063E+04</pdfrwt>
<totfact> 0.69190055E+00</totfact>
</mgrwt>
</event>
<event>
 6    1  0.9906445E-006  0.2292652E+04  0.7818608E-02  0.8480824E-01
          2   -1    0    0  501    0  0.00000000000E+00  0.00000000000E+00  0.97588162774E+03  0.97588162774E+03  0.00000000000E+00 0.  1.
         -2   -1    0    0    0  501 -0.00000000000E+00 -0.00000000000E+00 -0.13465390706E+04  0.13465390706E+04  0.00000000000E+00 0. -1.
         23    2    1    2    0    0  0.16417421403E+03 -0.70543818138E+03  0.71199308614E+03  0.10198354350E+04  0.92379432106E+02 0.  0.
         11    1    3    3    0    0 -0.81839110333E+01 -0.99995043895E+02  0.87556943164E+02  0.13316232012E+03  0.00000000000E+00 0.  1.
        -11    1    3    3    0    0  0.17235812507E+03 -0.60544313748E+03  0.62443614298E+03  0.88667311488E+03  0.00000000000E+00 0. -1.
         22    1    1    2    0    0 -0.16417421403E+03  0.70543818138E+03 -0.10826505290E+04  0.13025852633E+04  0.00000000000E+00 0. -1.
<mgrwt>
<rscale>  0 0.22926515E+04</rscale>
<asrwt>0</asrwt>
<pdfrwt beam="1">  1        2 0.15013564E+00 0.22926515E+04</pdfrwt>
<pdfrwt beam="2">  1       -2 0.20715986E+00 0.22926515E+04</pdfrwt>
<totfact> 0.28284807E+00</totfact>
</mgrwt>
</event>
<event>
 6    1  0.9906445E-006  0.2642482E+04  0.7818608E-02  0.8353913E-01
         -2   -1    0    0    0  501 -0.00000000000E+00  0.00000000000E+00  0.59660023717E+03  0.59660023717E+03  0.00000000000E+00 0.  1.
          2   -1    0    0  501    0  0.00000000000E+00 -0.00000000000E+00 -0.29260423165E+04  0.29260423165E+04  0.00000000000E+00 0. -1.
         23    2    1    2    0    0 -0.19859449533E+03 -0.12635315228E+04 -0.15994955039E+04  0.20499668645E+04  0.89591270870E+02 0.  0.
         13    1    3    3    0    0 -0.10193401735E+03 -0.88573617228E+03 -0.11420397108E+04  0.14488525846E+04  0.00000000000E+00 0. -1.
        -13    1    3    3    0    0 -0.96660477974E+02 -0.37779535049E+03 -0.45745579310E+03  0.60111427989E+03  0.00000000000E+00 0.  1.
         22    1    1    2    0    0  0.19859449533E+03  0.12635315228E+04 -0.72994657544E+03  0.14726756892E+04  0.00000000000E+00 0. -1.
<mgrwt>
<rscale>  0 0.26424818E+04</rscale>
<asrwt>0</asrwt>
<pdfrwt beam="1">  1        2 0.45016035E+00 0.26424818E+04</pdfrwt>
<pdfrwt beam="2">  1       -2 0.91784653E-01 0.26424818E+04</pdfrwt>
<totfact> 0.17229838E+00</totfact>
</mgrwt>
</event>
<event>
 6    1  0.9906445E-006  0.1924103E+04  0.7818608E-02  0.8642951E-01
          1   -1    0    0  501    0  0.00000000000E+00  0.00000000000E+00  0.12135106004E+04  0.12135106004E+04  0.00000000000E+00 0. -1.
         -1   -1    0    0    0  501 -0.00000000000E+00 -0.00000000000E+00 -0.76269907560E+03  0.76269907560E+03  0.00000000000E+00 0.  1.
         23    2    1    2    0    0  0.47886760505E+03  0.73005462546E+03 -0.18383902098E+03  0.89682315832E+03  0.90559661775E+02 0.  0.
         11    1    3    3    0    0  0.18714507917E+03  0.34283869759E+03 -0.11488539730E+03  0.40713671873E+03  0.00000000000E+00 0.  1.
        -11    1    3    3    0    0  0.29172252588E+03  0.38721592786E+03 -0.68953623677E+02  0.48968643959E+03  0.00000000000E+00 0. -1.
         22    1    1    2    0    0 -0.47886760505E+03 -0.73005462546E+03  0.63465054580E+03  0.10793865177E+04  0.00000000000E+00 0. -1.
<mgrwt>
<rscale>  0 0.19241033E+04</rscale>
<asrwt>0</asrwt>
<pdfrwt beam="1">  1        1 0.18669394E+00 0.19241033E+04</pdfrwt>
<pdfrwt beam="2">  1       -1 0.11733832E+00 0.19241033E+04</pdfrwt>
<totfact> 0.63778328E+00</totfact>
</mgrwt>
</event>
<event>
 6    1  0.9906445E-006  0.5916969E+03  0.7818608E-02  0.9922784E-01
         -1   -1    0    0    0  501 -0.00000000000E+00  0.00000000000E+00  0.16488814740E+03  0.16488814740E+03  0.00000000000E+00 0.  1.
          1   -1    0    0  501    0  0.00000000000E+00 -0.00000000000E+00 -0.53082230670E+03  0.53082230670E+03  0.00000000000E+00 0. -1.
         23    2    1    2    0    0 -0.59493694509E+02  0.15450634148E+03  0.91467106987E+02  0.20926659541E+03  0.89524114359E+02 0.  0.
         13    1    3    3    0    0 -0.41765498741E+02  0.13531370745E+03  0.10822001347E+03  0.17822942413E+03  0.00000000000E+00 0. -1.
        -13    1    3    3    0    0 -0.17728195768E+02  0.19192634027E+02 -0.16752906479E+02  0.31037171288E+02  0.00000000000E+00 0.  1.
         22    1    1    2    0    0  0.59493694509E+02 -0.15450634148E+03 -0.45740126629E+03  0.48644385868E+03  0.00000000000E+00 0.  1.
<mgrwt>
<rscale>  0 0.59169690E+03</rscale>
<asrwt>0</asrwt>
<pdfrwt beam="1">  1        1 0.81664969E-01 0.59169690E+03</pdfrwt>
<pdfrwt beam="2">  1       -1 0.25367408E-01 0.59169690E+03</pdfrwt>
<totfact> 0.56235339E+02</totfact>
</mgrwt>
</event>
<event>
 6    1  0.9906445E-006  0.3625694E+04  0.7818608E-02  0.8084631E-01
          1   -1    0    0  501    0  0.00000000000E+00  0.00000000000E+00  0.21713376937E+04  0.21713376937E+04  0.00000000000E+00 0. -1.
         -1   -1    0    0    0  501 -0.00000000000E+00 -0.00000000000E+00 -0.15135439759E+04  0.15135439759E+04  0.00000000000E+00 0.  1.
         23    2    1    2    0    0 -0.17438530085E+03  0.42367639727E+03  0.21110822734E+04  0.21610839309E+04  0.60856128777E+02 0.  0.
         11    1    3    3    0    0 -0.10074729052E+03  0.17031112715E+03  0.95260140854E+03  0.97293645226E+03  0.00000000000E+00 0. -1.
        -11    1    3    3    0    0 -0.73638010326E+02  0.25336527011E+03  0.11584808649E+04  0.11881474786E+04  0.00000000000E+00 0.  1.
         22    1    1    2    0    0  0.17438530085E+03 -0.42367639727E+03 -0.14532885556E+04  0.15237977387E+04  0.00000000000E+00 0.  1.
<mgrwt>
<rscale>  0 0.36256945E+04</rscale>
<asrwt>0</asrwt>
<pdfrwt beam="1">  1        1 0.33405195E+00 0.36256945E+04</pdfrwt>
<pdfrwt beam="2">  1       -1 0.23285292E+00 0.36256945E+04</pdfrwt>
<totfact> 0.16627013E-01</totfact>
</mgrwt>
</event>
<event>
 6    1  0.9906445E-006  0.2099059E+04  0.7818608E-02  0.8561658E-01
          1   -1    0    0  501    0  0.00000000000E+00  0.00000000000E+00  0.76717371446E+03  0.76717371446E+03  0.00000000000E+00 0. -1.
         -1   -1    0    0    0  501 -0.00000000000E+00 -0.00000000000E+00 -0.14358050150E+04  0.14358050150E+04  0.00000000000E+00 0.  1.
         23    2    1    2    0    0 -0.99905688209E+03 -0.63608550697E+02 -0.11125341091E+02  0.10052831137E+04  0.91157358667E+02 0.  0.
         11    1    3    3    0    0 -0.21061127940E+03 -0.36129383971E+02 -0.32069931582E+02  0.21608082726E+03  0.00000000000E+00 0.  1.
        -11    1    3    3    0    0 -0.78844560268E+03 -0.27479166725E+02  0.20944590492E+02  0.78920228640E+03  0.00000000000E+00 0. -1.
         22    1    1    2    0    0  0.99905688209E+03  0.63608550697E+02 -0.65750595943E+03  0.11976956158E+04  0.00000000000E+00 0.  1.
<mgrwt>
<rscale>  0 0.20990587E+04</rscale>
<asrwt>0</asrwt>
<pdfrwt beam="1">  1        1 0.11802672E+00 0.20990587E+04</pdfrwt>
<pdfrwt beam="2">  1       -1 0.22089308E+00 0.20990587E+04</pdfrwt>
<totfact> 0.23594800E+00</totfact>
</mgrwt>
</event>
<event>
 6    1  0.9906445E-006  0.5081974E+04  0.7818608E-02  0.7815985E-01
         -1   -1    0    0    0  501 -0.00000000000E+00  0.00000000000E+00  0.29237988174E+04  0.29237988174E+04  0.00000000000E+00 0.  1.
          1   -1    0    0  501    0  0.00000000000E+00 -0.00000000000E+00 -0.22082967551E+04  0.22082967551E+04  0.00000000000E+00 0. -1.
         23    2    1    2    0    0 -0.22655988895E+04 -0.10062937688E+04  0.91728771707E+03  0.26448716324E+04  0.91453368021E+02 0.  0.
         11    1    3    3    0    0 -0.21458792737E+04 -0.96265454034E+03  0.88915198422E+03  0.25143772335E+04  0.00000000000E+00 0. -1.
        -11    1    3    3    0    0 -0.11971961584E+03 -0.43639228496E+02  0.28135732854E+02  0.13049439890E+03  0.00000000000E+00 0.  1.
         22    1    1    2    0    0  0.22655988895E+04  0.10062937688E+04 -0.20178565476E+03  0.24872239400E+04  0.00000000000E+00 0.  1.
<mgrwt>
<rscale>  0 0.50819742E+04</rscale>
<asrwt>0</asrwt>
<pdfrwt beam="1">  1        1 0.33973796E+00 0.50819742E+04</pdfrwt>
<pdfrwt beam="2">  1       -1 0.44981520E+00 0.50819742E+04</pdfrwt>
<totfact> 0.50180168E-03</totfact>
</mgrwt>
</event>
<event>
 6    1  0.9906445E-006  0.2397618E+04  0.7818608E-02  0.8440396E-01
         -2   -1    0    0    0  501 -0.00000000000E+00  0.00000000000E+00  0.60911163397E+03  0.60911163397E+03  0.00000000000E+00 0.  1.
          2   -1    0    0  501    0  0.00000000000E+00 -0.00000000000E+00 -0.23594081881E+04  0.23594081881E+04  0.00000000000E+00 0. -1.
         23    2    1    2    0    0 -0.48015160217E+03 -0.19137502070E+03  0.46039281043E+03  0.69820763513E+03  0.91446171229E+02 0.  0.
         11    1    3    3    0    0 -0.42412949838E+02 -0.41397165157E+02  0.30703684724E+02  0.66748032575E+02  0.00000000000E+00 0. -1.
        -11    1    3    3    0    0 -0.43773865234E+03 -0.14997785554E+03  0.42968912571E+03  0.63145960255E+03  0.00000000000E+00 0.  1.
         22    1    1    2    0    0  0.48015160217E+03  0.19137502070E+03 -0.22106893646E+04  0.22703121869E+04  0.00000000000E+00 0. -1.
<mgrwt>
<rscale>  0 0.23976180E+04</rscale>
<asrwt>0</asrwt>
<pdfrwt beam="1">  1        2 0.36298587E+00 0.23976180E+04</pdfrwt>
<pdfrwt beam="2">  1       -2 0.93709483E-01 0.23976180E+04</pdfrwt>
<totfact> 0.36291442E+00</totfact>
</mgrwt>
</event>
<event>
 6    1  0.9906445E-006  0.1434357E+04  0.7818608E-02  0.8929318E-01
          1   -1    0    0  501    0  0.00000000000E+00  0.00000000000E+00  0.54990522988E+03  0.54990522988E+03  0.00000000000E+00 0. -1.
         -1   -1    0    0    0  501 -0.00000000000E+00 -0.00000000000E+00 -0.93533399810E+03  0.93533399810E+03  0.00000000000E+00 0.  1.
         23    2    1    2    0    0  0.37575773859E+03 -0.54704442911E+03  0.80660133771E+02  0.67425812457E+03  0.87558413851E+02 0.  0.
         11    1    3    3    0    0  0.94658537117E+02 -0.12720506203E+03  0.56848052174E+02  0.16844306899E+03  0.00000000000E+00 0. -1.
        -11    1    3    3    0    0  0.28109920147E+03 -0.41983936708E+03  0.23812081597E+02  0.50581505558E+03  0.00000000000E+00 0.  1.
         22    1    1    2    0    0 -0.37575773859E+03  0.54704442911E+03 -0.46608890200E+03  0.81098110341E+03  0.00000000000E+00 0.  1.
<mgrwt>
<rscale>  0 0.14343571E+04</rscale>
<asrwt>0</asrwt>
<pdfrwt beam="1">  1        1 0.84600806E-01 0.14343571E+04</pdfrwt>
<pdfrwt beam="2">  1       -1 0.14389754E+00 0.14343571E+04</pdfrwt>
<totfact> 0.14713298E+01</totfact>
</mgrwt>
</event>
<event>
 6    1  0.9906445E-006  0.3766440E+04  0.7818608E-02  0.8053395E-01
         -2   -1    0    0    0  501 -0.00000000000E+00  0.00000000000E+00  0.10809848760E+04  0.10809848760E+04  0.00000000000E+00 0. -1.
          2   -1    0    0  501    0  0.00000000000E+00 -0.00000000000E+00 -0.32808212217E+04  0.32808212217E+04  0.00000000000E+00 0.  1.
         23    2    1    2    0    0  0.60997982424E+03  0.17020489797E+04 -0.17062443339E+04  0.24875918119E+04  0.88301643775E+02 0.  0.
         11    1    3    3    0    0  0.48921348065E+03  0.13705068090E+04 -0.14200858854E+04  0.20332886331E+04  0.00000000000E+00 0.  1.
        -11    1    3    3    0    0  0.12076634359E+03  0.33154217063E+03 -0.28615844847E+03  0.45430317881E+03  0.00000000000E+00 0. -1.
         22    1    1    2    0    0 -0.60997982424E+03 -0.17020489797E+04 -0.49359201185E+03  0.18742142859E+04  0.00000000000E+00 0. -1.
<mgrwt>
<rscale>  0 0.37664403E+04</rscale>
<asrwt>0</asrwt>
<pdfrwt beam="1">  1        2 0.50474172E+00 0.37664403E+04</pdfrwt>
<pdfrwt beam="2">  1       -2 0.16630537E+00 0.37664403E+04</pdfrwt>
<totfact> 0.20867956E-01</totfact>
</mgrwt>
</event>
<event>
 6    1  0.9906445E-006  0.3142947E+04  0.7818608E-02  0.8204049E-01
         -2   -1    0    0    0  501 -0.00000000000E+00  0.00000000000E+00  0.12000657924E+04  0.12000657924E+04  0.00000000000E+00 0. -1.
          2   -1    0    0  501    0  0.00000000000E+00 -0.00000000000E+00 -0.20578278600E+04  0.20578278600E+04  0.00000000000E+00 0.  1.
         23    2    1    2    0    0 -0.12800587544E+04  0.72339223369E+03 -0.10004321230E+04  0.17806660183E+04  0.89779159096E+02 0.  0.
         13    1    3    3    0    0 -0.11407475739E+04  0.61425502705E+03 -0.86522444649E+03  0.15579562280E+04  0.00000000000E+00 0.  1.
        -13    1    3    3    0    0 -0.13931118049E+03  0.10913720664E+03 -0.13520767655E+03  0.22270979027E+03  0.00000000000E+00 0. -1.
         22    1    1    2    0    0  0.12800587544E+04 -0.72339223369E+03  0.14267005540E+03  0.14772276342E+04  0.00000000000E+00 0. -1.
<mgrwt>
<rscale>  0 0.31429469E+04</rscale>
<asrwt>0</asrwt>
<pdfrwt beam="1">  1        2 0.31658890E+00 0.31429469E+04</pdfrwt>
<pdfrwt beam="2">  1       -2 0.18462551E+00 0.31429469E+04</pdfrwt>
<totfact> 0.88458745E-01</totfact>
</mgrwt>
</event>
<event>
 6    1  0.9906445E-006  0.1308114E+04  0.7818608E-02  0.9023155E-01
          2   -1    0    0  501    0  0.00000000000E+00  0.00000000000E+00  0.10460711566E+04  0.10460711566E+04  0.00000000000E+00 0. -1.
         -2   -1    0    0    0  501 -0.00000000000E+00 -0.00000000000E+00 -0.40894983729E+03  0.40894983729E+03  0.00000000000E+00 0.  1.
         23    2    1    2    0    0 -0.40423572300E+03  0.30043202603E+03  0.78128319664E+03  0.93114260257E+03  0.54380060313E+02 0.  0.
         13    1    3    3    0    0 -0.33386272972E+03  0.22630864046E+03  0.59845647833E+03  0.72168558216E+03  0.00000000000E+00 0.  1.
        -13    1    3    3    0    0 -0.70372993272E+02  0.74123385570E+02  0.18282671831E+03  0.20945702041E+03  0.00000000000E+00 0. -1.
         22    1    1    2    0    0  0.40423572300E+03 -0.30043202603E+03 -0.14416187733E+03  0.52387839131E+03  0.00000000000E+00 0.  1.
<mgrwt>
<rscale>  0 0.13081141E+04</rscale>
<asrwt>0</asrwt>
<pdfrwt beam="1">  1        2 0.16093402E+00 0.13081141E+04</pdfrwt>
<pdfrwt beam="2">  1       -2 0.62915360E-01 0.13081141E+04</pdfrwt>
<totfact> 0.54003130E+01</totfact>
</mgrwt>
</event>
<event>
 6    1  0.9906445E-006  0.3127044E+04  0.7818608E-02  0.8208355E-01
         -2   -1    0    0    0  501 -0.00000000000E+00  0.00000000000E+00  0.27246098642E+04  0.27246098642E+04  0.00000000000E+00 0.  1.
          2   -1    0    0  501    0  0.00000000000E+00 -0.00000000000E+00 -0.89722957743E+03  0.89722957743E+03  0.00000000000E+00 0. -1.
         23    2    1    2    0    0 -0.92782007000E+03  0.42703958669E+03 -0.45432129207E+03  0.11219644476E+04  0.95830550385E+02 0.  0.
         11    1    3    3    0    0 -0.47751852728E+03  0.25431243001E+03 -0.27963263364E+03  0.60900998822E+03  0.00000000000E+00 0.  1.
        -11    1    3    3    0    0 -0.45030154271E+03  0.17272715668E+03 -0.17468865844E+03  0.51295445939E+03  0.00000000000E+00 0. -1.
         22    1    1    2    0    0  0.92782007000E+03 -0.42703958669E+03  0.22817015789E+04  0.24998749940E+04  0.00000000000E+00 0.  1.
<mgrwt>
<rscale>  0 0.31270437E+04</rscale>
<asrwt>0</asrwt>
<pdfrwt beam="1">  1        2 0.13803532E+00 0.31270437E+04</pdfrwt>
<pdfrwt beam="2">  1       -2 0.41917075E+00 0.31270437E+04</pdfrwt>
<totfact> 0.13837257E-01</totfact>
</mgrwt>
</event>
<event>
 6    1  0.9906445E-006  0.2337409E+04  0.7818608E-02  0.8463316E-01
          1   -1    0    0  501    0  0.00000000000E+00  0.00000000000E+00  0.13124616829E+04  0.13124616829E+04  0.00000000000E+00 0. -1.
         -1   -1    0    0    0  501 -0.00000000000E+00 -0.00000000000E+00 -0.10406935616E+04  0.10406935616E+04  0.00000000000E+00 0.  1.
         23    2    1    2    0    0 -0.54259324402E+03  0.99879608213E+03 -0.13038845085E+03  0.11474475889E+04  0.87371500421E+02 0.  0.
         11    1    3    3    0    0 -0.20822200479E+03  0.40351365064E+03 -0.94118826589E+02  0.46372192427E+03  0.00000000000E+00 0. -1.
        -11    1    3    3    0    0 -0.33437123923E+03  0.59528243150E+03 -0.36269624257E+02  0.68372566466E+03  0.00000000000E+00 0.  1.
         22    1    1    2    0    0  0.54259324402E+03 -0.99879608213E+03  0.40215657210E+03  0.12057076555E+04  0.00000000000E+00 0.  1.
<mgrwt>
<rscale>  0 0.23374092E+04</rscale>
<asrwt>0</asrwt>
<pdfrwt beam="1">  1        1 0.20191718E+00 0.23374092E+04</pdfrwt>
<pdfrwt beam="2">  1       -1 0.16010670E+00 0.23374092E+04</pdfrwt>
<totfact> 0.23291914E+00</totfact>
</mgrwt>
</event>
<event>
 6    1  0.9906445E-006  0.1996247E+04  0.7818608E-02  0.8608377E-01
         -2   -1    0    0    0  501 -0.00000000000E+00  0.00000000000E+00  0.43123277420E+03  0.43123277420E+03  0.00000000000E+00 0.  1.
          2   -1    0    0  501    0  0.00000000000E+00 -0.00000000000E+00 -0.23102377841E+04  0.23102377841E+04  0.00000000000E+00 0. -1.
         23    2    1    2    0    0 -0.61254574736E+03  0.76576664636E+03 -0.11793702419E+04  0.15368545789E+04  0.96938020645E+02 0.  0.
         11    1    3    3    0    0 -0.38299779617E+03  0.44369364882E+03 -0.63752105931E+03  0.86601643572E+03  0.00000000000E+00 0.  1.
        -11    1    3    3    0    0 -0.22954795119E+03  0.32207299754E+03 -0.54184918258E+03  0.67083814315E+03  0.00000000000E+00 0. -1.
         22    1    1    2    0    0  0.61254574736E+03 -0.76576664636E+03 -0.69963476802E+03  0.12046159794E+04  0.00000000000E+00 0.  1.
<mgrwt>
<rscale>  0 0.19962467E+04</rscale>
<asrwt>0</asrwt>
<pdfrwt beam="1">  1        2 0.35542120E+00 0.19962467E+04</pdfrwt>
<pdfrwt beam="2">  1       -2 0.66343503E-01 0.19962467E+04</pdfrwt>
<totfact> 0.86855481E+00</totfact>
</mgrwt>
</event>
<event>
 6    1  0.9906445E-006  0.1078723E+04  0.7818608E-02  0.9226181E-01
         -1   -1    0    0    0  501 -0.00000000000E+00  0.00000000000E+00  0.56468466737E+03  0.56468466737E+03  0.00000000000E+00 0.  1.
          1   -1    0    0  501    0  0.00000000000E+00 -0.00000000000E+00 -0.51517419656E+03  0.51517419656E+03  0.00000000000E+00 0. -1.
         23    2    1    2    0    0 -0.32530027495E+03 -0.10831347186E+02 -0.40035478826E+03  0.52459645905E+03  0.94762341661E+02 0.  0.
         11    1    3    3    0    0 -0.10848659787E+02  0.97150205697E+01 -0.55805904360E+02  0.57674725879E+02  0.00000000000E+00 0. -1.
        -11    1    3    3    0    0 -0.31445161517E+03 -0.20546367756E+02 -0.34454888390E+03  0.46692173317E+03  0.00000000000E+00 0.  1.
         22    1    1    2    0    0  0.32530027495E+03  0.10831347186E+02  0.44986525907E+03  0.55526240489E+03  0.00000000000E+00 0.  1.
<mgrwt>
<rscale>  0 0.10787233E+04</rscale>
<asrwt>0</asrwt>
<pdfrwt beam="1">  1        1 0.79257569E-01 0.10787233E+04</pdfrwt>
<pdfrwt beam="2">  1       -1 0.86874564E-01 0.10787233E+04</pdfrwt>
<totfact> 0.55426086E+01</totfact>
</mgrwt>
</event>
<event>
 6    1  0.9906445E-006  0.2533992E+04  0.7818608E-02  0.8390975E-01
          2   -1    0    0  501    0  0.00000000000E+00  0.00000000000E+00  0.16263819387E+04  0.16263819387E+04  0.00000000000E+00 0. -1.
         -2   -1    0    0    0  501 -0.00000000000E+00 -0.00000000000E+00 -0.98702469166E+03  0.98702469166E+03  0.00000000000E+00 0.  1.
         23    2    1    2    0    0  0.41587100518E+03 -0.63245242660E+03  0.13658554124E+04  0.15642429876E+04  0.91380260454E+02 0.  0.
         13    1    3    3    0    0  0.33031828439E+03 -0.53851668604E+03  0.10757979404E+04  0.12475782936E+04  0.00000000000E+00 0.  1.
        -13    1    3    3    0    0  0.85552720797E+02 -0.93935740565E+02  0.29005747197E+03  0.31666469402E+03  0.00000000000E+00 0. -1.
         22    1    1    2    0    0 -0.41587100518E+03  0.63245242660E+03 -0.72649816536E+03  0.10491636427E+04  0.00000000000E+00 0.  1.
<mgrwt>
<rscale>  0 0.25339922E+04</rscale>
<asrwt>0</asrwt>
<pdfrwt beam="1">  1        2 0.25021261E+00 0.25339922E+04</pdfrwt>
<pdfrwt beam="2">  1       -2 0.15184995E+00 0.25339922E+04</pdfrwt>
<totfact> 0.27807901E+00</totfact>
</mgrwt>
</event>
<event>
 6    1  0.9906445E-006  0.1342300E+04  0.7818608E-02  0.8996677E-01
         -4   -1    0    0    0  501 -0.00000000000E+00  0.00000000000E+00  0.26762714460E+03  0.26762714460E+03  0.00000000000E+00 0.  1.
          4   -1    0    0  501    0  0.00000000000E+00 -0.00000000000E+00 -0.16830974415E+04  0.16830974415E+04  0.00000000000E+00 0. -1.
         23    2    1    2    0    0  0.53263253637E+03  0.21945553865E+03 -0.21952275400E+03  0.62326510362E+03  0.91711491182E+02 0.  0.
         11    1    3    3    0    0  0.30338133816E+03  0.77435903819E+02 -0.13130749778E+03  0.33952645628E+03  0.00000000000E+00 0. -1.
        -11    1    3    3    0    0  0.22925119822E+03  0.14201963483E+03 -0.88215256221E+02  0.28373864734E+03  0.00000000000E+00 0.  1.
         22    1    1    2    0    0 -0.53263253637E+03 -0.21945553865E+03 -0.11959475429E+04  0.13274594825E+04  0.00000000000E+00 0.  1.
<mgrwt>
<rscale>  0 0.13423004E+04</rscale>
<asrwt>0</asrwt>
<pdfrwt beam="1">  1        4 0.25893806E+00 0.13423004E+04</pdfrwt>
<pdfrwt beam="2">  1       -4 0.41173409E-01 0.13423004E+04</pdfrwt>
<totfact> 0.62728659E-01</totfact>
</mgrwt>
</event>
<event>
 6    1  0.9906445E-006  0.2106248E+04  0.7818608E-02  0.8558496E-01
         -2   -1    0    0    0  501 -0.00000000000E+00  0.00000000000E+00  0.60240220254E+03  0.60240220254E+03  0.00000000000E+00 0.  1.
          2   -1    0    0  501    0  0.00000000000E+00 -0.00000000000E+00 -0.18410794319E+04  0.18410794319E+04  0.00000000000E+00 0. -1.
         23    2    1    2    0    0 -0.27299319648E+03  0.74213777196E+03  0.18300417756E+03  0.81668361973E+03  0.90486727459E+02 0.  0.
         13    1    3    3    0    0 -0.22363417626E+03  0.59534079671E+03  0.10974595483E+03  0.64535810495E+03  0.00000000000E+00 0. -1.
        -13    1    3    3    0    0 -0.49359020228E+02  0.14679697524E+03  0.73258222737E+02  0.17132551479E+03  0.00000000000E+00 0.  1.
         22    1    1    2    0    0  0.27299319648E+03 -0.74213777196E+03 -0.14216814069E+04  0.16267980147E+04  0.00000000000E+00 0. -1.
<mgrwt>
<rscale>  0 0.21062481E+04</rscale>
<asrwt>0</asrwt>
<pdfrwt beam="1">  1        2 0.28324299E+00 0.21062481E+04</pdfrwt>
<pdfrwt beam="2">  1       -2 0.92677262E-01 0.21062481E+04</pdfrwt>
<totfact> 0.74459543E+00</totfact>
</mgrwt>
</event>
<event>
 6    1  0.9906445E-006  0.2841089E+04  0.7818608E-02  0.8290624E-01
          2   -1    0    0  501    0  0.00000000000E+00  0.00000000000E+00  0.12192292232E+04  0.12192292232E+04  0.00000000000E+00 0. -1.
         -2   -1    0    0    0  501 -0.00000000000E+00 -0.00000000000E+00 -0.16551002465E+04  0.16551002465E+04  0.00000000000E+00 0.  1.
         23    2    1    2    0    0  0.43789093660E+03  0.13087831745E+04 -0.55223363383E+03  0.14893377270E+04  0.92211760432E+02 0.  0.
         13    1    3    3    0    0  0.40333700822E+03  0.11276544707E+04 -0.49897164722E+03  0.12974043518E+04  0.00000000000E+00 0. -1.
        -13    1    3    3    0    0  0.34553928382E+02  0.18112870380E+03 -0.53261986607E+02  0.19193337522E+03  0.00000000000E+00 0.  1.
         22    1    1    2    0    0 -0.43789093660E+03 -0.13087831745E+04  0.11636261062E+03  0.13849917427E+04  0.00000000000E+00 0. -1.
<mgrwt>
<rscale>  0 0.28410889E+04</rscale>
<asrwt>0</asrwt>
<pdfrwt beam="1">  1        2 0.18757373E+00 0.28410889E+04</pdfrwt>
<pdfrwt beam="2">  1       -2 0.25463081E+00 0.28410889E+04</pdfrwt>
<totfact> 0.96280510E-01</totfact>
</mgrwt>
</event>
<event>
 6    1  0.9906445E-006  0.4087115E+04  0.7818608E-02  0.7987200E-01
          1   -1    0    0  501    0  0.00000000000E+00  0.00000000000E+00  0.21012749413E+04  0.21012749413E+04  0.00000000000E+00 0. -1.
         -1   -1    0    0    0  501 -0.00000000000E+00 -0.00000000000E+00 -0.19874254933E+04  0.19874254933E+04  0.00000000000E+00 0.  1.
         23    2    1    2    0    0 -0.13645921947E+04 -0.45860597381E+03 -0.13925820366E+04  0.20050096910E+04  0.91366488901E+02 0.  0.
         11    1    3    3    0    0 -0.42276710877E+03 -0.14006375552E+03 -0.37322042386E+03  0.58107088092E+03  0.00000000000E+00 0.  1.
        -11    1    3    3    0    0 -0.94182508589E+03 -0.31854221829E+03 -0.10193616128E+04  0.14239388101E+04  0.00000000000E+00 0. -1.
         22    1    1    2    0    0  0.13645921947E+04  0.45860597381E+03  0.15064314846E+04  0.20836907436E+04  0.00000000000E+00 0. -1.
<mgrwt>
<rscale>  0 0.40871151E+04</rscale>
<asrwt>0</asrwt>
<pdfrwt beam="1">  1        1 0.32327307E+00 0.40871151E+04</pdfrwt>
<pdfrwt beam="2">  1       -1 0.30575777E+00 0.40871151E+04</pdfrwt>
<totfact> 0.59888351E-02</totfact>
</mgrwt>
</event>
<event>
 6    1  0.9906445E-006  0.9233622E+03  0.7818608E-02  0.9396840E-01
          2   -1    0    0  501    0  0.00000000000E+00  0.00000000000E+00  0.12909301014E+04  0.12909301014E+04  0.00000000000E+00 0.  1.
         -2   -1    0    0    0  501 -0.00000000000E+00 -0.00000000000E+00 -0.16511308810E+03  0.16511308810E+03  0.00000000000E+00 0. -1.
         23    2    1    2    0    0  0.35361295939E+03 -0.28794474874E+03  0.58332095139E+03  0.74734277285E+03  0.10150657328E+03 0.  0.
         11    1    3    3    0    0  0.10915847293E+03 -0.13731658330E+03  0.17166529847E+03  0.24543917976E+03  0.00000000000E+00 0. -1.
        -11    1    3    3    0    0  0.24445448646E+03 -0.15062816545E+03  0.41165565292E+03  0.50190359309E+03  0.00000000000E+00 0.  1.
         22    1    1    2    0    0 -0.35361295939E+03  0.28794474874E+03  0.54249606191E+03  0.70870041666E+03  0.00000000000E+00 0. -1.
<mgrwt>
<rscale>  0 0.92336224E+03</rscale>
<asrwt>0</asrwt>
<pdfrwt beam="1">  1        2 0.19860462E+00 0.92336224E+03</pdfrwt>
<pdfrwt beam="2">  1       -2 0.25402014E-01 0.92336224E+03</pdfrwt>
<totfact> 0.23329902E+02</totfact>
</mgrwt>
</event>
<event>
 6    1  0.1370088E-005  0.2111399E+04  0.7818608E-02  0.8556239E-01
          1   -1    0    0  501    0  0.00000000000E+00  0.00000000000E+00  0.13218790018E+04  0.13218790018E+04  0.00000000000E+00 0. -1.
         -1   -1    0    0    0  501 -0.00000000000E+00 -0.00000000000E+00 -0.84311887368E+03  0.84311887368E+03  0.00000000000E+00 0.  1.
         23    2    1    2    0    0 -0.11511396663E+03  0.18568360593E+03 -0.81713174400E+03  0.85081928372E+03  0.91975755850E+02 0.  0.
         13    1    3    3    0    0 -0.54355361703E+02  0.36575933099E+02 -0.36595304209E+03  0.37177134538E+03  0.00000000000E+00 0. -1.
        -13    1    3    3    0    0 -0.60758604927E+02  0.14910767283E+03 -0.45117870191E+03  0.47904793834E+03  0.00000000000E+00 0.  1.
         22    1    1    2    0    0  0.11511396663E+03 -0.18568360593E+03  0.12958918721E+04  0.13141785917E+04  0.00000000000E+00 0. -1.
<mgrwt>
<rscale>  0 0.21113987E+04</rscale>
<asrwt>0</asrwt>
<pdfrwt beam="1">  1        1 0.20336600E+00 0.21113987E+04</pdfrwt>
<pdfrwt beam="2">  1       -1 0.12971060E+00 0.21113987E+04</pdfrwt>
<totfact> 0.40890823E+00</totfact>
</mgrwt>
</event>
<event>
 6    1  0.9906445E-006  0.3977550E+04  0.7818608E-02  0.8009091E-01
         -2   -1    0    0    0  501 -0.00000000000E+00  0.00000000000E+00  0.13324498670E+04  0.13324498670E+04  0.00000000000E+00 0.  1.
          2   -1    0    0  501    0  0.00000000000E+00 -0.00000000000E+00 -0.29683870178E+04  0.29683870178E+04  0.00000000000E+00 0. -1.
         23    2    1    2    0    0 -0.13217897142E+04  0.89028218421E+03 -0.21030182334E+04  0.26401457173E+04  0.89181291935E+02 0.  0.
         13    1    3    3    0    0 -0.44061263699E+03  0.27240528884E+03 -0.62374814619E+03  0.81080570246E+03  0.00000000000E+00 0.  1.
        -13    1    3    3    0    0 -0.88117707718E+03  0.61787689537E+03 -0.14792700872E+04  0.18293400149E+04  0.00000000000E+00 0. -1.
         22    1    1    2    0    0  0.13217897142E+04 -0.89028218421E+03  0.46708108261E+03  0.16606911675E+04  0.00000000000E+00 0.  1.
<mgrwt>
<rscale>  0 0.39775504E+04</rscale>
<asrwt>0</asrwt>
<pdfrwt beam="1">  1        2 0.45667492E+00 0.39775504E+04</pdfrwt>
<pdfrwt beam="2">  1       -2 0.20499229E+00 0.39775504E+04</pdfrwt>
<totfact> 0.17758013E-01</totfact>
</mgrwt>
</event>
<event>
 6    1  0.9906445E-006  0.8753009E+03  0.7818608E-02  0.9456994E-01
          2   -1    0    0  501    0  0.00000000000E+00  0.00000000000E+00  0.49101382191E+03  0.49101382191E+03  0.00000000000E+00 0. -1.
         -2   -1    0    0    0  501 -0.00000000000E+00 -0.00000000000E+00 -0.39008662551E+03  0.39008662551E+03  0.00000000000E+00 0.  1.
         23    2    1    2    0    0  0.41281176203E+03  0.62822542821E+02 -0.63842182496E+02  0.43220271855E+03  0.91450220901E+02 0.  0.
         11    1    3    3    0    0  0.47758552047E+02  0.23113305130E+02  0.17922998691E+02  0.56003018220E+02  0.00000000000E+00 0.  1.
        -11    1    3    3    0    0  0.36505320998E+03  0.39709237691E+02 -0.81765181187E+02  0.37619970033E+03  0.00000000000E+00 0. -1.
         22    1    1    2    0    0 -0.41281176203E+03 -0.62822542821E+02  0.16476937890E+03  0.44889772887E+03  0.00000000000E+00 0.  1.
<mgrwt>
<rscale>  0 0.87530092E+03</rscale>
<asrwt>0</asrwt>
<pdfrwt beam="1">  1        2 0.75540588E-01 0.87530092E+03</pdfrwt>
<pdfrwt beam="2">  1       -2 0.60013327E-01 0.87530092E+03</pdfrwt>
<totfact> 0.16361559E+02</totfact>
</mgrwt>
</event>
<event>
 6    1  0.9906445E-006  0.1268716E+04  0.7818608E-02  0.9054748E-01
          1   -1    0    0  501    0  0.00000000000E+00  0.00000000000E+00  0.12256304686E+04  0.12256304686E+04  0.00000000000E+00 0. -1.
         -1   -1    0    0    0  501 -0.00000000000E+00 -0.00000000000E+00 -0.32832914198E+03  0.32832914198E+03  0.00000000000E+00 0.  1.
         23    2    1    2    0    0 -0.27525615190E+03  0.41368578714E+03 -0.25348049562E+02  0.50601698284E+03  0.92243068379E+02 0.  0.
         11    1    3    3    0    0 -0.11584675506E+03  0.11967512467E+03 -0.39834045862E+02  0.17125815990E+03  0.00000000000E+00 0. -1.
        -11    1    3    3    0    0 -0.15940939685E+03  0.29401066247E+03  0.14485996300E+02  0.33475882294E+03  0.00000000000E+00 0.  1.
         22    1    1    2    0    0  0.27525615190E+03 -0.41368578714E+03  0.92264937616E+03  0.10479426277E+04  0.00000000000E+00 0. -1.
<mgrwt>
<rscale>  0 0.12687162E+04</rscale>
<asrwt>0</asrwt>
<pdfrwt beam="1">  1        1 0.18855853E+00 0.12687162E+04</pdfrwt>
<pdfrwt beam="2">  1       -1 0.50512176E-01 0.12687162E+04</pdfrwt>
<totfact> 0.39669485E+01</totfact>
</mgrwt>
</event>
<event>
 6    1  0.9906445E-006  0.2133091E+04  0.7818608E-02  0.8546805E-01
          1   -1    0    0  501    0  0.00000000000E+00  0.00000000000E+00  0.23292830481E+04  0.23292830481E+04  0.00000000000E+00 0. -1.
         -1   -1    0    0    0  501 -0.00000000000E+00 -0.00000000000E+00 -0.48835586358E+03  0.48835586358E+03  0.00000000000E+00 0.  1.
         23    2    1    2    0    0  0.83824916099E+03 -0.63390508367E+03  0.11463606978E+04  0.15579088154E+04  0.91867930096E+02 0.  0.
         13    1    3    3    0    0  0.29145994948E+03 -0.19765573551E+03  0.32688919793E+03  0.48049270510E+03  0.00000000000E+00 0. -1.
        -13    1    3    3    0    0  0.54678921151E+03 -0.43624934816E+03  0.81947149989E+03  0.10774161103E+04  0.00000000000E+00 0.  1.
         22    1    1    2    0    0 -0.83824916099E+03  0.63390508367E+03  0.69456648668E+03  0.12597300963E+04  0.00000000000E+00 0. -1.
<mgrwt>
<rscale>  0 0.21330907E+04</rscale>
<asrwt>0</asrwt>
<pdfrwt beam="1">  1        1 0.35835123E+00 0.21330907E+04</pdfrwt>
<pdfrwt beam="2">  1       -1 0.75131673E-01 0.21330907E+04</pdfrwt>
<totfact> 0.29028780E+00</totfact>
</mgrwt>
</event>
<event>
 6    1  0.9906445E-006  0.8384130E+03  0.7818608E-02  0.9506022E-01
          1   -1    0    0  501    0  0.00000000000E+00  0.00000000000E+00  0.10133556540E+04  0.10133556540E+04  0.00000000000E+00 0. -1.
         -1   -1    0    0    0  501 -0.00000000000E+00 -0.00000000000E+00 -0.17341796413E+03  0.17341796413E+03  0.00000000000E+00 0.  1.
         23    2    1    2    0    0 -0.36080695525E+03  0.14049134353E+03  0.63332407508E+03  0.74790158395E+03  0.91312204205E+02 0.  0.
         11    1    3    3    0    0 -0.24838168511E+03  0.10064804907E+03  0.35259965173E+03  0.44288825417E+03  0.00000000000E+00 0.  1.
        -11    1    3    3    0    0 -0.11242527014E+03  0.39843294461E+02  0.28072442336E+03  0.30501332979E+03  0.00000000000E+00 0. -1.
         22    1    1    2    0    0  0.36080695525E+03 -0.14049134353E+03  0.20661361479E+03  0.43887203417E+03  0.00000000000E+00 0.  1.
<mgrwt>
<rscale>  0 0.83841296E+03</rscale>
<asrwt>0</asrwt>
<pdfrwt beam="1">  1        1 0.15590087E+00 0.83841296E+03</pdfrwt>
<pdfrwt beam="2">  1       -1 0.26679687E-01 0.83841296E+03</pdfrwt>
<totfact> 0.18654892E+02</totfact>
</mgrwt>
</event>
<event>
 6    1  0.9906445E-006  0.1489162E+04  0.7818608E-02  0.8891692E-01
         -1   -1    0    0    0  501 -0.00000000000E+00  0.00000000000E+00  0.84600243765E+03  0.84600243765E+03  0.00000000000E+00 0.  1.
          1   -1    0    0  501    0  0.00000000000E+00 -0.00000000000E+00 -0.65531863879E+03  0.65531863879E+03  0.00000000000E+00 0. -1.
         23    2    1    2    0    0 -0.16139380418E+02  0.67934346517E+03 -0.20433781259E+03  0.71531210907E+03  0.90274295726E+02 0.  0.
         13    1    3    3    0    0  0.21210684356E+02  0.34946836441E+03 -0.14047961408E+03  0.37724336022E+03  0.00000000000E+00 0. -1.
        -13    1    3    3    0    0 -0.37350064773E+02  0.32987510076E+03 -0.63858198505E+02  0.33806874886E+03  0.00000000000E+00 0.  1.
         22    1    1    2    0    0  0.16139380418E+02 -0.67934346517E+03  0.39502161145E+03  0.78600896737E+03  0.00000000000E+00 0.  1.
<mgrwt>
<rscale>  0 0.14891624E+04</rscale>
<asrwt>0</asrwt>
<pdfrwt beam="1">  1        1 0.10081825E+00 0.14891624E+04</pdfrwt>
<pdfrwt beam="2">  1       -1 0.13015422E+00 0.14891624E+04</pdfrwt>
<totfact> 0.14733911E+01</totfact>
</mgrwt>
</event>
<event>
 6    1  0.9906445E-006  0.4489254E+04  0.7818608E-02  0.7912521E-01
         -2   -1    0    0    0  501 -0.00000000000E+00  0.00000000000E+00  0.25542678183E+04  0.25542678183E+04  0.00000000000E+00 0.  1.
          2   -1    0    0  501    0  0.00000000000E+00 -0.00000000000E+00 -0.19725224117E+04  0.19725224117E+04  0.00000000000E+00 0. -1.
         23    2    1    2    0    0  0.12216391537E+04  0.15058047643E+04 -0.84730990955E+03  0.21180458876E+04  0.91291233681E+02 0.  0.
         11    1    3    3    0    0  0.30447697711E+03  0.40591815664E+03 -0.26041466352E+03  0.57034338469E+03  0.00000000000E+00 0. -1.
        -11    1    3    3    0    0  0.91716217661E+03  0.10998866076E+04 -0.58689524603E+03  0.15477025030E+04  0.00000000000E+00 0.  1.
         22    1    1    2    0    0 -0.12216391537E+04 -0.15058047643E+04  0.14290553162E+04  0.24087443423E+04  0.00000000000E+00 0. -1.
<mgrwt>
<rscale>  0 0.44892541E+04</rscale>
<asrwt>0</asrwt>
<pdfrwt beam="1">  1        2 0.30346499E+00 0.44892541E+04</pdfrwt>
<pdfrwt beam="2">  1       -2 0.39296428E+00 0.44892541E+04</pdfrwt>
<totfact> 0.43303250E-02</totfact>
</mgrwt>
</event>
<event>
 6    1  0.9906445E-006  0.2075478E+04  0.7818608E-02  0.8572123E-01
          1   -1    0    0  501    0  0.00000000000E+00  0.00000000000E+00  0.55906903915E+03  0.55906903915E+03  0.00000000000E+00 0. -1.
         -1   -1    0    0    0  501 -0.00000000000E+00 -0.00000000000E+00 -0.19262417573E+04  0.19262417573E+04  0.00000000000E+00 0.  1.
         23    2    1    2    0    0 -0.95719522178E+03  0.25345083850E+03 -0.32041976337E+03  0.10444250382E+04  0.87720097188E+02 0.  0.
         11    1    3    3    0    0 -0.28740943993E+03  0.54898293952E+02 -0.58843042969E+02  0.29846358663E+03  0.00000000000E+00 0.  1.
        -11    1    3    3    0    0 -0.66978578185E+03  0.19855254455E+03 -0.26157672040E+03  0.74596145153E+03  0.00000000000E+00 0. -1.
         22    1    1    2    0    0  0.95719522178E+03 -0.25345083850E+03 -0.10467529548E+04  0.14408857583E+04  0.00000000000E+00 0.  1.
<mgrwt>
<rscale>  0 0.20754779E+04</rscale>
<asrwt>0</asrwt>
<pdfrwt beam="1">  1        1 0.86010619E-01 0.20754779E+04</pdfrwt>
<pdfrwt beam="2">  1       -1 0.29634489E+00 0.20754779E+04</pdfrwt>
<totfact> 0.12189120E+00</totfact>
</mgrwt>
</event>
<event>
 6    1  0.9906445E-006  0.3477596E+04  0.7818608E-02  0.8119120E-01
         -1   -1    0    0    0  501 -0.00000000000E+00  0.00000000000E+00  0.10936215758E+04  0.10936215758E+04  0.00000000000E+00 0.  1.
          1   -1    0    0  501    0  0.00000000000E+00 -0.00000000000E+00 -0.27645930631E+04  0.27645930631E+04  0.00000000000E+00 0. -1.
         23    2    1    2    0    0 -0.82847242934E+03 -0.60726307171E+03  0.71868339039E+03  0.12571407379E+04  0.93605634123E+02 0.  0.
         11    1    3    3    0    0 -0.72907454212E+03 -0.50813534788E+03  0.64889813769E+03  0.11003726700E+04  0.00000000000E+00 0. -1.
        -11    1    3    3    0    0 -0.99397887217E+02 -0.99127723829E+02  0.69785252701E+02  0.15676806789E+03  0.00000000000E+00 0.  1.
         22    1    1    2    0    0  0.82847242934E+03  0.60726307171E+03 -0.23896548777E+04  0.26010739010E+04  0.00000000000E+00 0. -1.
<mgrwt>
<rscale>  0 0.34775961E+04</rscale>
<asrwt>0</asrwt>
<pdfrwt beam="1">  1        1 0.42532201E+00 0.34775961E+04</pdfrwt>
<pdfrwt beam="2">  1       -1 0.16824947E+00 0.34775961E+04</pdfrwt>
<totfact> 0.18291458E-01</totfact>
</mgrwt>
</event>
<event>
 6    1  0.9906445E-006  0.7748545E+03  0.7818608E-02  0.9597145E-01
         -3   -1    0    0    0  501 -0.00000000000E+00  0.00000000000E+00  0.99750785156E+03  0.99750785156E+03  0.00000000000E+00 0.  1.
          3   -1    0    0  501    0  0.00000000000E+00 -0.00000000000E+00 -0.15047489586E+03  0.15047489586E+03  0.00000000000E+00 0. -1.
         23    2    1    2    0    0  0.32767000268E+03 -0.46393655130E+02  0.16268156679E+03  0.38781380213E+03  0.12005936474E+03 0.  0.
         13    1    3    3    0    0  0.19148825140E+03 -0.79355574190E+02  0.65823794371E+02  0.21748064163E+03  0.00000000000E+00 0. -1.
        -13    1    3    3    0    0  0.13618175128E+03  0.32961919060E+02  0.96857772418E+02  0.17033316050E+03  0.00000000000E+00 0.  1.
         22    1    1    2    0    0 -0.32767000268E+03  0.46393655130E+02  0.68435138891E+03  0.76016894530E+03  0.00000000000E+00 0.  1.
<mgrwt>
<rscale>  0 0.77485454E+03</rscale>
<asrwt>0</asrwt>
<pdfrwt beam="1">  1        3 0.23149985E-01 0.77485454E+03</pdfrwt>
<pdfrwt beam="2">  1       -3 0.15346274E+00 0.77485454E+03</pdfrwt>
<totfact> 0.14114216E+01</totfact>
</mgrwt>
</event>
<event>
 6    1  0.9906445E-006  0.2726037E+04  0.7818608E-02  0.8326606E-01
         -1   -1    0    0    0  501 -0.00000000000E+00  0.00000000000E+00  0.14323762893E+04  0.14323762893E+04  0.00000000000E+00 0.  1.
          1   -1    0    0  501    0  0.00000000000E+00 -0.00000000000E+00 -0.12970190987E+04  0.12970190987E+04  0.00000000000E+00 0. -1.
         23    2    1    2    0    0 -0.86859014856E+03  0.16458413435E+03  0.11042697992E+04  0.14177824776E+04  0.95700475482E+02 0.  0.
         11    1    3    3    0    0 -0.36934293943E+03  0.22374721455E+02  0.44995271350E+03  0.58255667489E+03  0.00000000000E+00 0. -1.
        -11    1    3    3    0    0 -0.49924720913E+03  0.14220941289E+03  0.65431708570E+03  0.83522580275E+03  0.00000000000E+00 0.  1.
         22    1    1    2    0    0  0.86859014856E+03 -0.16458413435E+03 -0.96891260861E+03  0.13116129103E+04  0.00000000000E+00 0. -1.
<mgrwt>
<rscale>  0 0.27260370E+04</rscale>
<asrwt>0</asrwt>
<pdfrwt beam="1">  1        1 0.19954140E+00 0.27260370E+04</pdfrwt>
<pdfrwt beam="2">  1       -1 0.22036558E+00 0.27260370E+04</pdfrwt>
<totfact> 0.86665282E-01</totfact>
</mgrwt>
</event>
<event>
 6    1  0.9906445E-006  0.1004700E+04  0.7818608E-02  0.9303405E-01
          2   -1    0    0  501    0  0.00000000000E+00  0.00000000000E+00  0.59519796074E+03  0.59519796074E+03  0.00000000000E+00 0. -1.
         -2   -1    0    0    0  501 -0.00000000000E+00 -0.00000000000E+00 -0.42398565531E+03  0.42398565531E+03  0.00000000000E+00 0.  1.
         23    2    1    2    0    0 -0.13373048835E+03  0.13410656183E+03  0.55365278474E+03  0.59241771576E+03  0.92514487818E+02 0.  0.
         13    1    3    3    0    0 -0.10428350610E+03  0.48647483356E+02  0.24277751035E+03  0.26866809787E+03  0.00000000000E+00 0.  1.
        -13    1    3    3    0    0 -0.29446982250E+02  0.85459078472E+02  0.31087527439E+03  0.32374961789E+03  0.00000000000E+00 0. -1.
         22    1    1    2    0    0  0.13373048835E+03 -0.13410656183E+03 -0.38244047931E+03  0.42676590029E+03  0.00000000000E+00 0.  1.
<mgrwt>
<rscale>  0 0.10046998E+04</rscale>
<asrwt>0</asrwt>
<pdfrwt beam="1">  1        2 0.91568917E-01 0.10046998E+04</pdfrwt>
<pdfrwt beam="2">  1       -2 0.65228562E-01 0.10046998E+04</pdfrwt>
<totfact> 0.10838765E+02</totfact>
</mgrwt>
</event>
<event>
 6    1  0.9906445E-006  0.1193857E+04  0.7818608E-02  0.9118251E-01
          4   -1    0    0  501    0  0.00000000000E+00  0.00000000000E+00  0.44719481048E+03  0.44719481048E+03  0.00000000000E+00 0. -1.
         -4   -1    0    0    0  501 -0.00000000000E+00 -0.00000000000E+00 -0.79679736574E+03  0.79679736574E+03  0.00000000000E+00 0.  1.
         23    2    1    2    0    0 -0.45446745583E+03 -0.30962500652E+03  0.56366916709E+02  0.56045759388E+03  0.92342688787E+02 0.  0.
         13    1    3    3    0    0 -0.21143382927E+03 -0.97567124254E+02 -0.95031882286E+00  0.23286157046E+03  0.00000000000E+00 0. -1.
        -13    1    3    3    0    0 -0.24303362657E+03 -0.21205788226E+03  0.57317235532E+02  0.32759602342E+03  0.00000000000E+00 0.  1.
         22    1    1    2    0    0  0.45446745583E+03  0.30962500652E+03 -0.40596947197E+03  0.68353458233E+03  0.00000000000E+00 0.  1.
<mgrwt>
<rscale>  0 0.11938570E+04</rscale>
<asrwt>0</asrwt>
<pdfrwt beam="1">  1        4 0.68799203E-01 0.11938570E+04</pdfrwt>
<pdfrwt beam="2">  1       -4 0.12258421E+00 0.11938570E+04</pdfrwt>
<totfact> 0.19216409E+00</totfact>
</mgrwt>
</event>
<event>
 6    1  0.9906445E-006  0.1745521E+04  0.7818608E-02  0.8735819E-01
          2   -1    0    0  501    0  0.00000000000E+00  0.00000000000E+00  0.66274496487E+03  0.66274496487E+03  0.00000000000E+00 0. -1.
         -2   -1    0    0    0  501 -0.00000000000E+00 -0.00000000000E+00 -0.11493277444E+04  0.11493277444E+04  0.00000000000E+00 0.  1.
         23    2    1    2    0    0  0.67177529712E+03 -0.51156449839E+03 -0.27232394958E+02  0.85083233265E+03  0.10096419717E+03 0.  0.
         13    1    3    3    0    0  0.52407257027E+03 -0.34467107963E+03 -0.10594193161E+02  0.62734555787E+03  0.00000000000E+00 0. -1.
        -13    1    3    3    0    0  0.14770272685E+03 -0.16689341876E+03 -0.16638201797E+02  0.22348677479E+03  0.00000000000E+00 0.  1.
         22    1    1    2    0    0 -0.67177529712E+03  0.51156449839E+03 -0.45935038456E+03  0.96124037662E+03  0.00000000000E+00 0.  1.
<mgrwt>
<rscale>  0 0.17455213E+04</rscale>
<asrwt>0</asrwt>
<pdfrwt beam="1">  1        2 0.10196076E+00 0.17455213E+04</pdfrwt>
<pdfrwt beam="2">  1       -2 0.17681965E+00 0.17455213E+04</pdfrwt>
<totfact> 0.79335967E+00</totfact>
</mgrwt>
</event>
<event>
 6    1  0.9906445E-006  0.1117338E+04  0.7818608E-02  0.9188456E-01
          1   -1    0    0  501    0  0.00000000000E+00  0.00000000000E+00  0.50126419146E+03  0.50126419146E+03  0.00000000000E+00 0. -1.
         -1   -1    0    0    0  501 -0.00000000000E+00 -0.00000000000E+00 -0.62264732945E+03  0.62264732945E+03  0.00000000000E+00 0.  1.
         23    2    1    2    0    0  0.23299655200E+03 -0.49546192849E+03 -0.15190978790E+03  0.57554869195E+03  0.91704947123E+02 0.  0.
         13    1    3    3    0    0  0.16302652420E+03 -0.23985134607E+03 -0.73543779414E+02  0.29919058023E+03  0.00000000000E+00 0. -1.
        -13    1    3    3    0    0  0.69970027801E+02 -0.25561058241E+03 -0.78366008484E+02  0.27635811173E+03  0.00000000000E+00 0.  1.
         22    1    1    2    0    0 -0.23299655200E+03  0.49546192849E+03  0.30526649908E+02  0.54836282895E+03  0.00000000000E+00 0. -1.
<mgrwt>
<rscale>  0 0.11173376E+04</rscale>
<asrwt>0</asrwt>
<pdfrwt beam="1">  1        1 0.77117568E-01 0.11173376E+04</pdfrwt>
<pdfrwt beam="2">  1       -1 0.95791897E-01 0.11173376E+04</pdfrwt>
<totfact> 0.46228287E+01</totfact>
</mgrwt>
</event>
<event>
 6    1  0.9906445E-006  0.2637937E+04  0.7818608E-02  0.8355428E-01
          2   -1    0    0  501    0  0.00000000000E+00  0.00000000000E+00  0.13398350374E+04  0.13398350374E+04  0.00000000000E+00 0. -1.
         -2   -1    0    0    0  501 -0.00000000000E+00 -0.00000000000E+00 -0.12984265017E+04  0.12984265017E+04  0.00000000000E+00 0.  1.
         23    2    1    2    0    0 -0.56829494810E+03 -0.13435027319E+02 -0.11679839917E+04  0.13019345083E+04  0.87790721854E+02 0.  0.
         11    1    3    3    0    0 -0.60183622923E+02 -0.35380491482E+01 -0.72374349659E+02  0.94194653503E+02  0.00000000000E+00 0. -1.
        -11    1    3    3    0    0 -0.50811132518E+03 -0.98969781711E+01 -0.10956096421E+04  0.12077398548E+04  0.00000000000E+00 0.  1.
         22    1    1    2    0    0  0.56829494810E+03  0.13435027319E+02  0.12093925274E+04  0.13363270308E+04  0.00000000000E+00 0. -1.
<mgrwt>
<rscale>  0 0.26379366E+04</rscale>
<asrwt>0</asrwt>
<pdfrwt beam="1">  1        2 0.20612847E+00 0.26379366E+04</pdfrwt>
<pdfrwt beam="2">  1       -2 0.19975792E+00 0.26379366E+04</pdfrwt>
<totfact> 0.18449361E+00</totfact>
</mgrwt>
</event>
<event>
 6    1  0.9906445E-006  0.3157131E+04  0.7818608E-02  0.8200231E-01
         -2   -1    0    0    0  501 -0.00000000000E+00  0.00000000000E+00  0.18990081959E+04  0.18990081959E+04  0.00000000000E+00 0.  1.
          2   -1    0    0  501    0  0.00000000000E+00 -0.00000000000E+00 -0.13121951513E+04  0.13121951513E+04  0.00000000000E+00 0. -1.
         23    2    1    2    0    0 -0.81299405792E+03  0.10620571074E+04 -0.55668065187E+03  0.14515151728E+04  0.89879425556E+02 0.  0.
         11    1    3    3    0    0 -0.45736161531E+03  0.54404100300E+03 -0.32892838908E+03  0.78316929539E+03  0.00000000000E+00 0.  1.
        -11    1    3    3    0    0 -0.35563244261E+03  0.51801610439E+03 -0.22775226279E+03  0.66834587741E+03  0.00000000000E+00 0. -1.
         22    1    1    2    0    0  0.81299405792E+03 -0.10620571074E+04  0.11434936964E+04  0.17596881745E+04  0.00000000000E+00 0.  1.
<mgrwt>
<rscale>  0 0.31571312E+04</rscale>
<asrwt>0</asrwt>
<pdfrwt beam="1">  1        2 0.20187618E+00 0.31571312E+04</pdfrwt>
<pdfrwt beam="2">  1       -2 0.29215511E+00 0.31571312E+04</pdfrwt>
<totfact> 0.48778723E-01</totfact>
</mgrwt>
</event>
<event>
 6    1  0.9906445E-006  0.1044231E+04  0.7818608E-02  0.9261320E-01
         -1   -1    0    0    0  501 -0.00000000000E+00  0.00000000000E+00  0.16410592136E+03  0.16410592136E+03  0.00000000000E+00 0.  1.
          1   -1    0    0  501    0  0.00000000000E+00 -0.00000000000E+00 -0.16611509613E+04  0.16611509613E+04  0.00000000000E+00 0. -1.
         23    2    1    2    0    0 -0.50357534927E+03 -0.51722142308E+02 -0.56132040177E+03  0.76137535220E+03  0.91370241830E+02 0.  0.
         11    1    3    3    0    0 -0.12732544338E+03 -0.28385147441E+02 -0.93125799326E+02  0.16028069013E+03  0.00000000000E+00 0.  1.
        -11    1    3    3    0    0 -0.37624990589E+03 -0.23336994866E+02 -0.46819460245E+03  0.60109466207E+03  0.00000000000E+00 0. -1.
         22    1    1    2    0    0  0.50357534927E+03  0.51722142308E+02 -0.93572463819E+03  0.10638815305E+04  0.00000000000E+00 0. -1.
<mgrwt>
<rscale>  0 0.10442312E+04</rscale>
<asrwt>0</asrwt>
<pdfrwt beam="1">  1        1 0.25556169E+00 0.10442312E+04</pdfrwt>
<pdfrwt beam="2">  1       -1 0.25247064E-01 0.10442312E+04</pdfrwt>
<totfact> 0.69828835E+01</totfact>
</mgrwt>
</event>
<event>
 6    1  0.9906445E-006  0.1878337E+04  0.7818608E-02  0.8665715E-01
          2   -1    0    0  501    0  0.00000000000E+00  0.00000000000E+00  0.85479134469E+03  0.85479134469E+03  0.00000000000E+00 0. -1.
         -2   -1    0    0    0  501 -0.00000000000E+00 -0.00000000000E+00 -0.10318750859E+04  0.10318750859E+04  0.00000000000E+00 0.  1.
         23    2    1    2    0    0  0.51164466140E+03  0.11132446409E+03  0.69172247446E+03  0.87227122346E+03  0.90574332862E+02 0.  0.
         13    1    3    3    0    0  0.19698512356E+03  0.63541038517E+02  0.33893460923E+03  0.39713633908E+03  0.00000000000E+00 0. -1.
        -13    1    3    3    0    0  0.31465953784E+03  0.47783425576E+02  0.35278786522E+03  0.47513488439E+03  0.00000000000E+00 0.  1.
         22    1    1    2    0    0 -0.51164466140E+03 -0.11132446409E+03 -0.86880621568E+03  0.10143952071E+04  0.00000000000E+00 0.  1.
<mgrwt>
<rscale>  0 0.18783374E+04</rscale>
<asrwt>0</asrwt>
<pdfrwt beam="1">  1        2 0.13150636E+00 0.18783374E+04</pdfrwt>
<pdfrwt beam="2">  1       -2 0.15875001E+00 0.18783374E+04</pdfrwt>
<totfact> 0.76009314E+00</totfact>
</mgrwt>
</event>
<event>
 6    1  0.9906445E-006  0.2887406E+04  0.7818608E-02  0.8276634E-01
         -2   -1    0    0    0  501 -0.00000000000E+00  0.00000000000E+00  0.13427635822E+04  0.13427635822E+04  0.00000000000E+00 0.  1.
          2   -1    0    0  501    0  0.00000000000E+00 -0.00000000000E+00 -0.15522303232E+04  0.15522303232E+04  0.00000000000E+00 0. -1.
         23    2    1    2    0    0 -0.13546312415E+04  0.31266544182E+03  0.27893291757E+03  0.14214540500E+04  0.99712410792E+02 0.  0.
         13    1    3    3    0    0 -0.95549073629E+03  0.25520358994E+03  0.22868101451E+03  0.10150795170E+04  0.00000000000E+00 0.  1.
        -13    1    3    3    0    0 -0.39914050524E+03  0.57461851885E+02  0.50251903059E+02  0.40637453304E+03  0.00000000000E+00 0. -1.
         22    1    1    2    0    0  0.13546312415E+04 -0.31266544182E+03 -0.48839965854E+03  0.14735398554E+04  0.00000000000E+00 0.  1.
<mgrwt>
<rscale>  0 0.28874060E+04</rscale>
<asrwt>0</asrwt>
<pdfrwt beam="1">  1        2 0.23880466E+00 0.28874060E+04</pdfrwt>
<pdfrwt beam="2">  1       -2 0.20657901E+00 0.28874060E+04</pdfrwt>
<totfact> 0.12348462E+00</totfact>
</mgrwt>
</event>
<event>
 6    1  0.9906445E-006  0.3369701E+04  0.7818608E-02  0.8145383E-01
         -2   -1    0    0    0  501 -0.00000000000E+00  0.00000000000E+00  0.13621094007E+04  0.13621094007E+04  0.00000000000E+00 0. -1.
          2   -1    0    0  501    0  0.00000000000E+00 -0.00000000000E+00 -0.20840619602E+04  0.20840619602E+04  0.00000000000E+00 0.  1.
         23    2    1    2    0    0 -0.81477410838E+02 -0.47673148664E+03 -0.20104965195E+04  0.20698512616E+04  0.90975333244E+02 0.  0.
         13    1    3    3    0    0 -0.86215305471E+02 -0.23621164466E+03 -0.10489234763E+04  0.10786424241E+04  0.00000000000E+00 0.  1.
        -13    1    3    3    0    0  0.47378946336E+01 -0.24051984198E+03 -0.96157304327E+03  0.99120883752E+03  0.00000000000E+00 0. -1.
         22    1    1    2    0    0  0.81477410838E+02  0.47673148664E+03  0.12885439600E+04  0.13763200993E+04  0.00000000000E+00 0. -1.
<mgrwt>
<rscale>  0 0.33697005E+04</rscale>
<asrwt>0</asrwt>
<pdfrwt beam="1">  1        2 0.32062491E+00 0.33697005E+04</pdfrwt>
<pdfrwt beam="2">  1       -2 0.20955529E+00 0.33697005E+04</pdfrwt>
<totfact> 0.57416993E-01</totfact>
</mgrwt>
</event>
<event>
 6    1  0.9906445E-006  0.8238620E+03  0.7818608E-02  0.9526106E-01
          1   -1    0    0  501    0  0.00000000000E+00  0.00000000000E+00  0.40080350815E+03  0.40080350815E+03  0.00000000000E+00 0. -1.
         -1   -1    0    0    0  501 -0.00000000000E+00 -0.00000000000E+00 -0.42336746934E+03  0.42336746934E+03  0.00000000000E+00 0.  1.
         23    2    1    2    0    0  0.19259267711E+03 -0.26047234999E+03  0.23404993162E+03  0.41090535543E+03  0.95530394352E+02 0.  0.
         11    1    3    3    0    0  0.18586153425E+03 -0.23453867616E+03  0.23982664853E+03  0.38349670386E+03  0.00000000000E+00 0. -1.
        -11    1    3    3    0    0  0.67311428615E+01 -0.25933673837E+02 -0.57767169079E+01  0.27408651575E+02  0.00000000000E+00 0.  1.
         22    1    1    2    0    0 -0.19259267711E+03  0.26047234999E+03 -0.25661389281E+03  0.41326562205E+03  0.00000000000E+00 0.  1.
<mgrwt>
<rscale>  0 0.82386204E+03</rscale>
<asrwt>0</asrwt>
<pdfrwt beam="1">  1        1 0.61662079E-01 0.82386204E+03</pdfrwt>
<pdfrwt beam="2">  1       -1 0.65133456E-01 0.82386204E+03</pdfrwt>
<totfact> 0.14463330E+02</totfact>
</mgrwt>
</event>
<event>
 6    1  0.9906445E-006  0.3248482E+04  0.7818608E-02  0.8176129E-01
          2   -1    0    0  501    0  0.00000000000E+00  0.00000000000E+00  0.27535789939E+04  0.27535789939E+04  0.00000000000E+00 0. -1.
         -2   -1    0    0    0  501 -0.00000000000E+00 -0.00000000000E+00 -0.95808333316E+03  0.95808333316E+03  0.00000000000E+00 0.  1.
         23    2    1    2    0    0 -0.55455289654E+02  0.90415421587E+03  0.24371258134E+04  0.26015905330E+04  0.90116237078E+02 0.  0.
         11    1    3    3    0    0 -0.88543037566E+01  0.16036198771E+03  0.34113422626E+03  0.37705029654E+03  0.00000000000E+00 0.  1.
        -11    1    3    3    0    0 -0.46600985898E+02  0.74379222815E+03  0.20959915871E+04  0.22245402365E+04  0.00000000000E+00 0. -1.
         22    1    1    2    0    0  0.55455289654E+02 -0.90415421587E+03 -0.64163015260E+03  0.11100717941E+04  0.00000000000E+00 0.  1.
<mgrwt>
<rscale>  0 0.32484816E+04</rscale>
<asrwt>0</asrwt>
<pdfrwt beam="1">  1        2 0.42362753E+00 0.32484816E+04</pdfrwt>
<pdfrwt beam="2">  1       -2 0.14739744E+00 0.32484816E+04</pdfrwt>
<totfact> 0.64891520E-01</totfact>
</mgrwt>
</event>
<event>
 6    1  0.9906445E-006  0.1027055E+04  0.7818608E-02  0.9279359E-01
         -2   -1    0    0    0  501 -0.00000000000E+00  0.00000000000E+00  0.78443099110E+02  0.78443099110E+02  0.00000000000E+00 0. -1.
          2   -1    0    0  501    0  0.00000000000E+00 -0.00000000000E+00 -0.33618071871E+04  0.33618071871E+04  0.00000000000E+00 0.  1.
         23    2    1    2    0    0  0.30981432455E+02  0.40615052074E+03 -0.26797326512E+04  0.27120408341E+04  0.90996204887E+02 0.  0.
         13    1    3    3    0    0  0.63345674414E+02  0.24988956249E+03 -0.16548566455E+04  0.16748158063E+04  0.00000000000E+00 0. -1.
        -13    1    3    3    0    0 -0.32364241959E+02  0.15626095825E+03 -0.10248760057E+04  0.10372250278E+04  0.00000000000E+00 0.  1.
         22    1    1    2    0    0 -0.30981432455E+02 -0.40615052074E+03 -0.60363143682E+03  0.72820945213E+03  0.00000000000E+00 0. -1.
<mgrwt>
<rscale>  0 0.10270552E+04</rscale>
<asrwt>0</asrwt>
<pdfrwt beam="1">  1        2 0.51720105E+00 0.10270552E+04</pdfrwt>
<pdfrwt beam="2">  1       -2 0.12068170E-01 0.10270552E+04</pdfrwt>
<totfact> 0.52699494E+01</totfact>
</mgrwt>
</event>
<event>
 6    1  0.9906445E-006  0.1645376E+04  0.7818608E-02  0.8793146E-01
          1   -1    0    0  501    0  0.00000000000E+00  0.00000000000E+00  0.17092952185E+04  0.17092952185E+04  0.00000000000E+00 0. -1.
         -1   -1    0    0    0  501 -0.00000000000E+00 -0.00000000000E+00 -0.39596192550E+03  0.39596192550E+03  0.00000000000E+00 0.  1.
         23    2    1    2    0    0  0.30208561965E+03  0.12235498962E+03  0.16217897050E+04  0.16565124246E+04  0.87207227273E+02 0.  0.
         11    1    3    3    0    0  0.90749520692E+02  0.61630199094E+01  0.58593894094E+03  0.59295691314E+03  0.00000000000E+00 0. -1.
        -11    1    3    3    0    0  0.21133609895E+03  0.11619196971E+03  0.10358507641E+04  0.10635555115E+04  0.00000000000E+00 0.  1.
         22    1    1    2    0    0 -0.30208561965E+03 -0.12235498962E+03 -0.30845641201E+03  0.44874471940E+03  0.00000000000E+00 0.  1.
<mgrwt>
<rscale>  0 0.16453763E+04</rscale>
<asrwt>0</asrwt>
<pdfrwt beam="1">  1        1 0.26296849E+00 0.16453763E+04</pdfrwt>
<pdfrwt beam="2">  1       -1 0.60917220E-01 0.16453763E+04</pdfrwt>
<totfact> 0.12270852E+01</totfact>
</mgrwt>
</event>
<event>
 6    1  0.9906445E-006  0.1400772E+04  0.7818608E-02  0.8953260E-01
         -2   -1    0    0    0  501 -0.00000000000E+00  0.00000000000E+00  0.23993033543E+03  0.23993033543E+03  0.00000000000E+00 0.  1.
          2   -1    0    0  501    0  0.00000000000E+00 -0.00000000000E+00 -0.20445125093E+04  0.20445125093E+04  0.00000000000E+00 0. -1.
         23    2    1    2    0    0  0.16841103946E+03 -0.39267953565E+03 -0.18050523836E+04  0.18571727697E+04  0.91198098959E+02 0.  0.
         11    1    3    3    0    0  0.11242735255E+03 -0.17337702704E+03 -0.73821288051E+03  0.76658839025E+03  0.00000000000E+00 0. -1.
        -11    1    3    3    0    0  0.55983686914E+02 -0.21930250860E+03 -0.10668395031E+04  0.10905843795E+04  0.00000000000E+00 0.  1.
         22    1    1    2    0    0 -0.16841103946E+03  0.39267953565E+03  0.47020965871E+00  0.42727007504E+03  0.00000000000E+00 0.  1.
<mgrwt>
<rscale>  0 0.14007720E+04</rscale>
<asrwt>0</asrwt>
<pdfrwt beam="1">  1        2 0.31454037E+00 0.14007720E+04</pdfrwt>
<pdfrwt beam="2">  1       -2 0.36912362E-01 0.14007720E+04</pdfrwt>
<totfact> 0.42504818E+01</totfact>
</mgrwt>
</event>
<event>
 6    1  0.1825478E-005  0.4388649E+04  0.7818608E-02  0.7930426E-01
         -2   -1    0    0    0  501 -0.00000000000E+00  0.00000000000E+00  0.16294853637E+04  0.16294853637E+04  0.00000000000E+00 0.  1.
          2   -1    0    0  501    0  0.00000000000E+00 -0.00000000000E+00 -0.29549573370E+04  0.29549573370E+04  0.00000000000E+00 0. -1.
         23    2    1    2    0    0  0.80558454813E+03  0.34134328844E+03  0.14379680799E+04  0.16858080855E+04  0.93354150563E+02 0.  0.
         13    1    3    3    0    0  0.43129310472E+03  0.13586566739E+03  0.70563612205E+03  0.83809042382E+03  0.00000000000E+00 0. -1.
        -13    1    3    3    0    0  0.37429144340E+03  0.20547762105E+03  0.73233195790E+03  0.84771766168E+03  0.00000000000E+00 0.  1.
         22    1    1    2    0    0 -0.80558454813E+03 -0.34134328844E+03 -0.27634400532E+04  0.28986346152E+04  0.00000000000E+00 0. -1.
<mgrwt>
<rscale>  0 0.43886489E+04</rscale>
<asrwt>0</asrwt>
<pdfrwt beam="1">  1        2 0.45460881E+00 0.43886489E+04</pdfrwt>
<pdfrwt beam="2">  1       -2 0.25069006E+00 0.43886489E+04</pdfrwt>
<totfact> 0.90340400E-02</totfact>
</mgrwt>
</event>
<event>
 6    1  0.9906445E-006  0.3219986E+04  0.7818608E-02  0.8183559E-01
          4   -1    0    0  501    0  0.00000000000E+00  0.00000000000E+00  0.22627910852E+04  0.22627910852E+04  0.00000000000E+00 0. -1.
         -4   -1    0    0    0  501 -0.00000000000E+00 -0.00000000000E+00 -0.11455223621E+04  0.11455223621E+04  0.00000000000E+00 0.  1.
         23    2    1    2    0    0  0.76785531147E+03 -0.13592934543E+03 -0.93032967805E+03  0.12172548495E+04  0.90097127884E+02 0.  0.
         11    1    3    3    0    0  0.18269737551E+03  0.23913210936E+00 -0.24961978088E+03  0.30933545418E+03  0.00000000000E+00 0. -1.
        -11    1    3    3    0    0  0.58515793595E+03 -0.13616847754E+03 -0.68070989717E+03  0.90791939532E+03  0.00000000000E+00 0.  1.
         22    1    1    2    0    0 -0.76785531147E+03  0.13592934543E+03  0.20475984012E+04  0.21910585978E+04  0.00000000000E+00 0. -1.
<mgrwt>
<rscale>  0 0.32199862E+04</rscale>
<asrwt>0</asrwt>
<pdfrwt beam="1">  1        4 0.34812170E+00 0.32199862E+04</pdfrwt>
<pdfrwt beam="2">  1       -4 0.17623421E+00 0.32199862E+04</pdfrwt>
<totfact> 0.48461212E-03</totfact>
</mgrwt>
</event>
<event>
 6    1  0.9906445E-006  0.8809854E+03  0.7818608E-02  0.9449668E-01
          2   -1    0    0  501    0  0.00000000000E+00  0.00000000000E+00  0.19303945052E+03  0.19303945052E+03  0.00000000000E+00 0. -1.
         -2   -1    0    0    0  501 -0.00000000000E+00 -0.00000000000E+00 -0.10051511995E+04  0.10051511995E+04  0.00000000000E+00 0.  1.
         23    2    1    2    0    0 -0.17036419311E+03 -0.22061446823E+03 -0.86620117196E+03  0.91425339006E+03  0.88657143243E+02 0.  0.
         11    1    3    3    0    0 -0.32152283245E+02 -0.29419661078E+01 -0.13876366983E+03  0.14247027953E+03  0.00000000000E+00 0. -1.
        -11    1    3    3    0    0 -0.13821190986E+03 -0.21767250212E+03 -0.72743750213E+03  0.77178311054E+03  0.00000000000E+00 0.  1.
         22    1    1    2    0    0  0.17036419311E+03  0.22061446823E+03  0.54089423024E+02  0.28393725992E+03  0.00000000000E+00 0. -1.
<mgrwt>
<rscale>  0 0.88098544E+03</rscale>
<asrwt>0</asrwt>
<pdfrwt beam="1">  1        2 0.29698378E-01 0.88098544E+03</pdfrwt>
<pdfrwt beam="2">  1       -2 0.15463864E+00 0.88098544E+03</pdfrwt>
<totfact> 0.49947474E+01</totfact>
</mgrwt>
</event>
<event>
 6    1  0.9906445E-006  0.3525618E+04  0.7818608E-02  0.8107745E-01
         -2   -1    0    0    0  501 -0.00000000000E+00  0.00000000000E+00  0.17407007181E+04  0.17407007181E+04  0.00000000000E+00 0.  1.
          2   -1    0    0  501    0  0.00000000000E+00 -0.00000000000E+00 -0.17851985262E+04  0.17851985262E+04  0.00000000000E+00 0. -1.
         23    2    1    2    0    0  0.11424720630E+04  0.16467544333E+02 -0.13631714351E+04  0.17810744023E+04  0.92065576180E+02 0.  0.
         13    1    3    3    0    0  0.70437680146E+03 -0.34636633674E+02 -0.83907102907E+03  0.10960778105E+04  0.00000000000E+00 0. -1.
        -13    1    3    3    0    0  0.43809526153E+03  0.51104178007E+02 -0.52410040599E+03  0.68499659177E+03  0.00000000000E+00 0.  1.
         22    1    1    2    0    0 -0.11424720630E+04 -0.16467544333E+02  0.13186736270E+04  0.17448248420E+04  0.00000000000E+00 0.  1.
<mgrwt>
<rscale>  0 0.35256184E+04</rscale>
<asrwt>0</asrwt>
<pdfrwt beam="1">  1        2 0.27464593E+00 0.35256184E+04</pdfrwt>
<pdfrwt beam="2">  1       -2 0.26780011E+00 0.35256184E+04</pdfrwt>
<totfact> 0.36047906E-01</totfact>
</mgrwt>
</event>
<event>
 6    1  0.9906445E-006  0.1208429E+04  0.7818608E-02  0.9105510E-01
         -1   -1    0    0    0  501 -0.00000000000E+00  0.00000000000E+00  0.65607565414E+03  0.65607565414E+03  0.00000000000E+00 0.  1.
          1   -1    0    0  501    0  0.00000000000E+00 -0.00000000000E+00 -0.55645313258E+03  0.55645313258E+03  0.00000000000E+00 0. -1.
         23    2    1    2    0    0 -0.47586859242E+03 -0.59589373470E+02  0.41317053882E+03  0.63954172769E+03  0.91114854075E+02 0.  0.
         11    1    3    3    0    0 -0.22208084019E+03 -0.23533758378E+02  0.13357035142E+03  0.26022062974E+03  0.00000000000E+00 0. -1.
        -11    1    3    3    0    0 -0.25378775223E+03 -0.36055615093E+02  0.27960018740E+03  0.37932109795E+03  0.00000000000E+00 0.  1.
         22    1    1    2    0    0  0.47586859242E+03  0.59589373470E+02 -0.31354801726E+03  0.57298705902E+03  0.00000000000E+00 0. -1.
<mgrwt>
<rscale>  0 0.12084293E+04</rscale>
<asrwt>0</asrwt>
<pdfrwt beam="1">  1        1 0.85608174E-01 0.12084293E+04</pdfrwt>
<pdfrwt beam="2">  1       -1 0.10093472E+00 0.12084293E+04</pdfrwt>
<totfact> 0.35229152E+01</totfact>
</mgrwt>
</event>
<event>
 6    1  0.9906445E-006  0.2520165E+04  0.7818608E-02  0.8395837E-01
         -1   -1    0    0    0  501 -0.00000000000E+00  0.00000000000E+00  0.78947330057E+03  0.78947330057E+03  0.00000000000E+00 0.  1.
          1   -1    0    0  501    0  0.00000000000E+00 -0.00000000000E+00 -0.20112236117E+04  0.20112236117E+04  0.00000000000E+00 0. -1.
         23    2    1    2    0    0  0.97013287665E+03  0.77296491113E+03 -0.37582432337E+03  0.12992897960E+04  0.90980765332E+02 0.  0.
         11    1    3    3    0    0  0.49747837806E+03  0.34262623867E+03 -0.16448333838E+03  0.62604492225E+03  0.00000000000E+00 0. -1.
        -11    1    3    3    0    0  0.47265449859E+03  0.43033867246E+03 -0.21134098499E+03  0.67324487372E+03  0.00000000000E+00 0.  1.
         22    1    1    2    0    0 -0.97013287665E+03 -0.77296491113E+03 -0.84592598780E+03  0.15014071164E+04  0.00000000000E+00 0. -1.
<mgrwt>
<rscale>  0 0.25201646E+04</rscale>
<asrwt>0</asrwt>
<pdfrwt beam="1">  1        1 0.30941902E+00 0.25201646E+04</pdfrwt>
<pdfrwt beam="2">  1       -1 0.12145743E+00 0.25201646E+04</pdfrwt>
<totfact> 0.15603552E+00</totfact>
</mgrwt>
</event>
<event>
 6    1  0.9906445E-006  0.1134034E+04  0.7818608E-02  0.9172640E-01
         -2   -1    0    0    0  501 -0.00000000000E+00  0.00000000000E+00  0.20923548839E+03  0.20923548839E+03  0.00000000000E+00 0.  1.
          2   -1    0    0  501    0  0.00000000000E+00 -0.00000000000E+00 -0.15365870379E+04  0.15365870379E+04  0.00000000000E+00 0. -1.
         23    2    1    2    0    0 -0.31368297969E+03 -0.44398966734E+03 -0.89544499914E+03  0.10515120016E+04  0.91279277851E+02 0.  0.
         11    1    3    3    0    0 -0.13243215816E+03 -0.11842694400E+03 -0.26072327343E+03  0.31549935481E+03  0.00000000000E+00 0.  1.
        -11    1    3    3    0    0 -0.18125082152E+03 -0.32556272334E+03 -0.63472172571E+03  0.73601264678E+03  0.00000000000E+00 0. -1.
         22    1    1    2    0    0  0.31368297969E+03  0.44398966734E+03 -0.43190655034E+03  0.69431052467E+03  0.00000000000E+00 0.  1.
<mgrwt>
<rscale>  0 0.11340345E+04</rscale>
<asrwt>0</asrwt>
<pdfrwt beam="1">  1        2 0.23639800E+00 0.11340345E+04</pdfrwt>
<pdfrwt beam="2">  1       -2 0.32190076E-01 0.11340345E+04</pdfrwt>
<totfact> 0.10767262E+02</totfact>
</mgrwt>
</event>
<event>
 6    1  0.9906445E-006  0.1672061E+04  0.7818608E-02  0.8777461E-01
          2   -1    0    0  501    0  0.00000000000E+00  0.00000000000E+00  0.11938984440E+04  0.11938984440E+04  0.00000000000E+00 0. -1.
         -2   -1    0    0    0  501 -0.00000000000E+00 -0.00000000000E+00 -0.58543247514E+03  0.58543247514E+03  0.00000000000E+00 0.  1.
         23    2    1    2    0    0 -0.64318655651E+03  0.50925883619E+03  0.14988145048E+03  0.83947280794E+03  0.96003319488E+02 0.  0.
         11    1    3    3    0    0 -0.20024497133E+03  0.12289318302E+03  0.93495407487E+01  0.23513442302E+03  0.00000000000E+00 0.  1.
        -11    1    3    3    0    0 -0.44294158518E+03  0.38636565318E+03  0.14053190974E+03  0.60433838492E+03  0.00000000000E+00 0. -1.
         22    1    1    2    0    0  0.64318655651E+03 -0.50925883619E+03  0.45858451839E+03  0.93985811122E+03  0.00000000000E+00 0.  1.
<mgrwt>
<rscale>  0 0.16720609E+04</rscale>
<asrwt>0</asrwt>
<pdfrwt beam="1">  1        2 0.18367668E+00 0.16720609E+04</pdfrwt>
<pdfrwt beam="2">  1       -2 0.90066535E-01 0.16720609E+04</pdfrwt>
<totfact> 0.19220177E+01</totfact>
</mgrwt>
</event>
<event>
 6    1  0.9906445E-006  0.1898249E+04  0.7818608E-02  0.8655728E-01
         -1   -1    0    0    0  501 -0.00000000000E+00  0.00000000000E+00  0.91062335523E+03  0.91062335523E+03  0.00000000000E+00 0.  1.
          1   -1    0    0  501    0  0.00000000000E+00 -0.00000000000E+00 -0.98925395541E+03  0.98925395541E+03  0.00000000000E+00 0. -1.
         23    2    1    2    0    0 -0.13274205215E+03  0.69045793626E+03  0.59550385445E+03  0.92580858766E+03  0.90244590768E+02 0.  0.
         13    1    3    3    0    0 -0.13535185664E+03  0.54159087538E+03  0.49568029784E+03  0.74655191317E+03  0.00000000000E+00 0. -1.
        -13    1    3    3    0    0  0.26098044892E+01  0.14886706088E+03  0.99823556618E+02  0.17925667449E+03  0.00000000000E+00 0.  1.
         22    1    1    2    0    0  0.13274205215E+03 -0.69045793626E+03 -0.67413445463E+03  0.97406872297E+03  0.00000000000E+00 0. -1.
<mgrwt>
<rscale>  0 0.18982495E+04</rscale>
<asrwt>0</asrwt>
<pdfrwt beam="1">  1        1 0.15219292E+00 0.18982495E+04</pdfrwt>
<pdfrwt beam="2">  1       -1 0.14009590E+00 0.18982495E+04</pdfrwt>
<totfact> 0.60410589E+00</totfact>
</mgrwt>
</event>
<event>
 6    1  0.9906445E-006  0.1938036E+04  0.7818608E-02  0.8636152E-01
          2   -1    0    0  501    0  0.00000000000E+00  0.00000000000E+00  0.81686688198E+03  0.81686688198E+03  0.00000000000E+00 0. -1.
         -2   -1    0    0    0  501 -0.00000000000E+00 -0.00000000000E+00 -0.11495087522E+04  0.11495087522E+04  0.00000000000E+00 0.  1.
         23    2    1    2    0    0 -0.15720907396E+03  0.94831262209E+03 -0.60135259296E+02  0.96724032047E+03  0.89028455965E+02 0.  0.
         13    1    3    3    0    0 -0.16209046452E+03  0.77517013209E+03 -0.41369217273E+02  0.79301542514E+03  0.00000000000E+00 0.  1.
        -13    1    3    3    0    0  0.48813905639E+01  0.17314249001E+03 -0.18766042023E+02  0.17422489533E+03  0.00000000000E+00 0. -1.
         22    1    1    2    0    0  0.15720907396E+03 -0.94831262209E+03 -0.27250661094E+03  0.99913531374E+03  0.00000000000E+00 0. -1.
<mgrwt>
<rscale>  0 0.19380357E+04</rscale>
<asrwt>0</asrwt>
<pdfrwt beam="1">  1        2 0.12567183E+00 0.19380357E+04</pdfrwt>
<pdfrwt beam="2">  1       -2 0.17684750E+00 0.19380357E+04</pdfrwt>
<totfact> 0.59618762E+00</totfact>
</mgrwt>
</event>
<event>
 6    1  0.9906445E-006  0.3029556E+04  0.7818608E-02  0.8235341E-01
         -2   -1    0    0    0  501 -0.00000000000E+00  0.00000000000E+00  0.23497574781E+04  0.23497574781E+04  0.00000000000E+00 0.  1.
          2   -1    0    0  501    0  0.00000000000E+00 -0.00000000000E+00 -0.97650619900E+03  0.97650619900E+03  0.00000000000E+00 0. -1.
         23    2    1    2    0    0 -0.53127271846E+03  0.11716116983E+04 -0.18793822395E+03  0.13033357651E+04  0.91862220559E+02 0.  0.
         11    1    3    3    0    0 -0.16670911438E+03  0.28959877303E+03 -0.24453653027E+02  0.33504829399E+03  0.00000000000E+00 0. -1.
        -11    1    3    3    0    0 -0.36456360409E+03  0.88201292523E+03 -0.16348457093E+03  0.96828747107E+03  0.00000000000E+00 0.  1.
         22    1    1    2    0    0  0.53127271846E+03 -0.11716116983E+04  0.15611895031E+04  0.20229279121E+04  0.00000000000E+00 0. -1.
<mgrwt>
<rscale>  0 0.30295562E+04</rscale>
<asrwt>0</asrwt>
<pdfrwt beam="1">  1        2 0.15023172E+00 0.30295562E+04</pdfrwt>
<pdfrwt beam="2">  1       -2 0.36150115E+00 0.30295562E+04</pdfrwt>
<totfact> 0.29293395E-01</totfact>
</mgrwt>
</event>
<event>
 6    1  0.9906445E-006  0.1335948E+04  0.7818608E-02  0.9001534E-01
          1   -1    0    0  501    0  0.00000000000E+00  0.00000000000E+00  0.12850609523E+04  0.12850609523E+04  0.00000000000E+00 0.  1.
         -1   -1    0    0    0  501 -0.00000000000E+00 -0.00000000000E+00 -0.34721261528E+03  0.34721261528E+03  0.00000000000E+00 0. -1.
         23    2    1    2    0    0 -0.47474492518E+03  0.25255224098E+03 -0.25400716639E+01  0.54899348486E+03  0.11055322720E+03 0.  0.
         13    1    3    3    0    0 -0.63049661793E+02  0.26234217014E+02 -0.37473188580E+02  0.77895660065E+02  0.00000000000E+00 0. -1.
        -13    1    3    3    0    0 -0.41169526339E+03  0.22631802396E+03  0.34933116916E+02  0.47109782480E+03  0.00000000000E+00 0.  1.
         22    1    1    2    0    0  0.47474492518E+03 -0.25255224098E+03  0.94038840869E+03  0.10832800827E+04  0.00000000000E+00 0.  1.
<mgrwt>
<rscale>  0 0.13359482E+04</rscale>
<asrwt>0</asrwt>
<pdfrwt beam="1">  1        1 0.19770168E+00 0.13359482E+04</pdfrwt>
<pdfrwt beam="2">  1       -1 0.53417326E-01 0.13359482E+04</pdfrwt>
<totfact> 0.32115401E+01</totfact>
</mgrwt>
</event>
<event>
 6    1  0.9906445E-006  0.2283736E+04  0.7818608E-02  0.8484361E-01
         -2   -1    0    0    0  501 -0.00000000000E+00  0.00000000000E+00  0.67638275403E+03  0.67638275403E+03  0.00000000000E+00 0.  1.
          2   -1    0    0  501    0  0.00000000000E+00 -0.00000000000E+00 -0.19276997690E+04  0.19276997690E+04  0.00000000000E+00 0. -1.
         23    2    1    2    0    0 -0.61793293430E+03 -0.26690970353E+03  0.42248937398E+03  0.80000111443E+03  0.91774783205E+02 0.  0.
         13    1    3    3    0    0 -0.34236059113E+02 -0.40554039541E+02  0.27687618862E+02  0.59861023253E+02  0.00000000000E+00 0.  1.
        -13    1    3    3    0    0 -0.58369687519E+03 -0.22635566399E+03  0.39480175512E+03  0.74014009118E+03  0.00000000000E+00 0. -1.
         22    1    1    2    0    0  0.61793293430E+03  0.26690970353E+03 -0.16738063890E+04  0.18040814086E+04  0.00000000000E+00 0. -1.
<mgrwt>
<rscale>  0 0.22837363E+04</rscale>
<asrwt>0</asrwt>
<pdfrwt beam="1">  1        2 0.29656919E+00 0.22837363E+04</pdfrwt>
<pdfrwt beam="2">  1       -2 0.10405889E+00 0.22837363E+04</pdfrwt>
<totfact> 0.49976353E+00</totfact>
</mgrwt>
</event>
<event>
 6    1  0.9906445E-006  0.1995907E+04  0.7818608E-02  0.8608537E-01
          1   -1    0    0  501    0  0.00000000000E+00  0.00000000000E+00  0.10441958238E+04  0.10441958238E+04  0.00000000000E+00 0. -1.
         -1   -1    0    0    0  501 -0.00000000000E+00 -0.00000000000E+00 -0.95375904486E+03  0.95375904486E+03  0.00000000000E+00 0.  1.
         23    2    1    2    0    0 -0.37331867990E+03  0.34495664408E+03  0.90224392985E+03  0.10401486392E+04  0.97484150463E+02 0.  0.
         11    1    3    3    0    0 -0.32907801169E+03  0.30012772087E+03  0.84426208698E+03  0.95454044342E+03  0.00000000000E+00 0. -1.
        -11    1    3    3    0    0 -0.44240668210E+02  0.44828923212E+02  0.57981842877E+02  0.85608195773E+02  0.00000000000E+00 0.  1.
         22    1    1    2    0    0  0.37331867990E+03 -0.34495664408E+03 -0.81180715088E+03  0.95780622950E+03  0.00000000000E+00 0.  1.
<mgrwt>
<rscale>  0 0.19959070E+04</rscale>
<asrwt>0</asrwt>
<pdfrwt beam="1">  1        1 0.16064551E+00 0.19959070E+04</pdfrwt>
<pdfrwt beam="2">  1       -1 0.14673216E+00 0.19959070E+04</pdfrwt>
<totfact> 0.48034124E+00</totfact>
</mgrwt>
</event>
<event>
 6    1  0.9906445E-006  0.1384695E+04  0.7818608E-02  0.8964972E-01
          1   -1    0    0  501    0  0.00000000000E+00  0.00000000000E+00  0.11702478421E+04  0.11702478421E+04  0.00000000000E+00 0. -1.
         -1   -1    0    0    0  501 -0.00000000000E+00 -0.00000000000E+00 -0.40960964781E+03  0.40960964781E+03  0.00000000000E+00 0.  1.
         23    2    1    2    0    0 -0.50483188064E+03 -0.46662016104E+03  0.32452358465E+03  0.76574106390E+03  0.91946819153E+02 0.  0.
         11    1    3    3    0    0 -0.63887764800E+02 -0.39911935323E+02  0.92988412754E+01  0.75901762307E+02  0.00000000000E+00 0. -1.
        -11    1    3    3    0    0 -0.44094411584E+03 -0.42670822572E+03  0.31522474338E+03  0.68983930159E+03  0.00000000000E+00 0.  1.
         22    1    1    2    0    0  0.50483188064E+03  0.46662016104E+03  0.43611460969E+03  0.81411642606E+03  0.00000000000E+00 0. -1.
<mgrwt>
<rscale>  0 0.13846946E+04</rscale>
<asrwt>0</asrwt>
<pdfrwt beam="1">  1        1 0.18003813E+00 0.13846946E+04</pdfrwt>
<pdfrwt beam="2">  1       -1 0.63016870E-01 0.13846946E+04</pdfrwt>
<totfact> 0.28019558E+01</totfact>
</mgrwt>
</event>
<event>
 6    1  0.9906445E-006  0.2598386E+04  0.7818608E-02  0.8368750E-01
         -2   -1    0    0    0  501 -0.00000000000E+00  0.00000000000E+00  0.91109336339E+03  0.91109336339E+03  0.00000000000E+00 0.  1.
          2   -1    0    0  501    0  0.00000000000E+00 -0.00000000000E+00 -0.18526119862E+04  0.18526119862E+04  0.00000000000E+00 0. -1.
         23    2    1    2    0    0  0.17903161645E+02  0.12919644777E+04 -0.34839302680E+03  0.13419843125E+04  0.10025696516E+03 0.  0.
         13    1    3    3    0    0  0.33641805383E+01  0.11229243824E+04 -0.33479708413E+03  0.11717762473E+04  0.00000000000E+00 0.  1.
        -13    1    3    3    0    0  0.14538981107E+02  0.16904009527E+03 -0.13595942675E+02  0.17020806514E+03  0.00000000000E+00 0. -1.
         22    1    1    2    0    0 -0.17903161645E+02 -0.12919644777E+04 -0.59312559599E+03  0.14217210371E+04  0.00000000000E+00 0. -1.
<mgrwt>
<rscale>  0 0.25983860E+04</rscale>
<asrwt>0</asrwt>
<pdfrwt beam="1">  1        2 0.28501723E+00 0.25983860E+04</pdfrwt>
<pdfrwt beam="2">  1       -2 0.14016821E+00 0.25983860E+04</pdfrwt>
<totfact> 0.25557068E+00</totfact>
</mgrwt>
</event>
<event>
 6    1  0.9906445E-006  0.1960354E+04  0.7818608E-02  0.8625384E-01
          1   -1    0    0  501    0  0.00000000000E+00  0.00000000000E+00  0.81797944859E+03  0.81797944859E+03  0.00000000000E+00 0. -1.
         -1   -1    0    0    0  501 -0.00000000000E+00 -0.00000000000E+00 -0.11745364380E+04  0.11745364380E+04  0.00000000000E+00 0.  1.
         23    2    1    2    0    0  0.30080175895E+03  0.24504318495E+03  0.73409622066E+03  0.83490961272E+03  0.87458216019E+02 0.  0.
         11    1    3    3    0    0  0.17768418496E+03  0.18619161193E+03  0.42209492168E+03  0.49437142802E+03  0.00000000000E+00 0.  1.
        -11    1    3    3    0    0  0.12311757399E+03  0.58851573019E+02  0.31200129898E+03  0.34053818470E+03  0.00000000000E+00 0. -1.
         22    1    1    2    0    0 -0.30080175895E+03 -0.24504318495E+03 -0.10906532101E+04  0.11576062739E+04  0.00000000000E+00 0.  1.
<mgrwt>
<rscale>  0 0.19603537E+04</rscale>
<asrwt>0</asrwt>
<pdfrwt beam="1">  1        1 0.12584299E+00 0.19603537E+04</pdfrwt>
<pdfrwt beam="2">  1       -1 0.18069791E+00 0.19603537E+04</pdfrwt>
<totfact> 0.40840273E+00</totfact>
</mgrwt>
</event>
<event>
 6    1  0.9906445E-006  0.1181764E+04  0.7818608E-02  0.9128970E-01
          1   -1    0    0  501    0  0.00000000000E+00  0.00000000000E+00  0.38821841762E+03  0.38821841762E+03  0.00000000000E+00 0. -1.
         -1   -1    0    0    0  501 -0.00000000000E+00 -0.00000000000E+00 -0.89934323497E+03  0.89934323497E+03  0.00000000000E+00 0.  1.
         23    2    1    2    0    0 -0.38430006109E+03 -0.43876930380E+03 -0.18123621833E+03  0.61746350555E+03  0.90606704742E+02 0.  0.
         11    1    3    3    0    0 -0.26795798332E+03 -0.28662694322E+03 -0.78597021665E+02  0.40016743648E+03  0.00000000000E+00 0. -1.
        -11    1    3    3    0    0 -0.11634207777E+03 -0.15214236058E+03 -0.10263919666E+03  0.21729606907E+03  0.00000000000E+00 0.  1.
         22    1    1    2    0    0  0.38430006109E+03  0.43876930380E+03 -0.32988859902E+03  0.67009814705E+03  0.00000000000E+00 0. -1.
<mgrwt>
<rscale>  0 0.11817641E+04</rscale>
<asrwt>0</asrwt>
<pdfrwt beam="1">  1        1 0.59725910E-01 0.11817641E+04</pdfrwt>
<pdfrwt beam="2">  1       -1 0.13836050E+00 0.11817641E+04</pdfrwt>
<totfact> 0.26749934E+01</totfact>
</mgrwt>
</event>
<event>
 6    1  0.9906445E-006  0.1219631E+04  0.7818608E-02  0.9095845E-01
          1   -1    0    0  501    0  0.00000000000E+00  0.00000000000E+00  0.14168357452E+04  0.14168357452E+04  0.00000000000E+00 0. -1.
         -1   -1    0    0    0  501 -0.00000000000E+00 -0.00000000000E+00 -0.26246843800E+03  0.26246843800E+03  0.00000000000E+00 0.  1.
         23    2    1    2    0    0 -0.42014358031E+03  0.17667181950E+03  0.29498842555E+02  0.46560627077E+03  0.90473519815E+02 0.  0.
         13    1    3    3    0    0 -0.37123065724E+03  0.12074995754E+03  0.24455996548E+02  0.39114044650E+03  0.00000000000E+00 0.  1.
        -13    1    3    3    0    0 -0.48912923071E+02  0.55921861963E+02  0.50428460069E+01  0.74465824273E+02  0.00000000000E+00 0. -1.
         22    1    1    2    0    0  0.42014358031E+03 -0.17667181950E+03  0.11248684646E+04  0.12136979124E+04  0.00000000000E+00 0. -1.
<mgrwt>
<rscale>  0 0.12196305E+04</rscale>
<asrwt>0</asrwt>
<pdfrwt beam="1">  1        1 0.21797473E+00 0.12196305E+04</pdfrwt>
<pdfrwt beam="2">  1       -1 0.40379760E-01 0.12196305E+04</pdfrwt>
<totfact> 0.44219828E+01</totfact>
</mgrwt>
</event>
<event>
 6    1  0.9906445E-006  0.1822355E+04  0.7818608E-02  0.8694501E-01
          2   -1    0    0  501    0  0.00000000000E+00  0.00000000000E+00  0.20050254805E+04  0.20050254805E+04  0.00000000000E+00 0. -1.
         -2   -1    0    0    0  501 -0.00000000000E+00 -0.00000000000E+00 -0.41408154243E+03  0.41408154243E+03  0.00000000000E+00 0.  1.
         23    2    1    2    0    0 -0.49346334618E+03  0.21240168404E+03  0.17707400765E+04  0.18525850015E+04  0.89051781987E+02 0.  0.
         13    1    3    3    0    0 -0.44575960389E+03  0.17363353619E+03  0.14791171204E+04  0.15545538541E+04  0.00000000000E+00 0. -1.
        -13    1    3    3    0    0 -0.47703742290E+02  0.38768147851E+02  0.29162295610E+03  0.29803114743E+03  0.00000000000E+00 0.  1.
         22    1    1    2    0    0  0.49346334618E+03 -0.21240168404E+03 -0.17979613840E+03  0.56652202146E+03  0.00000000000E+00 0.  1.
<mgrwt>
<rscale>  0 0.18223546E+04</rscale>
<asrwt>0</asrwt>
<pdfrwt beam="1">  1        2 0.30846545E+00 0.18223546E+04</pdfrwt>
<pdfrwt beam="2">  1       -2 0.63704854E-01 0.18223546E+04</pdfrwt>
<totfact> 0.14260575E+01</totfact>
</mgrwt>
</event>
<event>
 6    1  0.9906445E-006  0.1876755E+04  0.7818608E-02  0.8666514E-01
         -2   -1    0    0    0  501 -0.00000000000E+00  0.00000000000E+00  0.99466737765E+03  0.99466737765E+03  0.00000000000E+00 0.  1.
          2   -1    0    0  501    0  0.00000000000E+00 -0.00000000000E+00 -0.88527327294E+03  0.88527327294E+03  0.00000000000E+00 0. -1.
         23    2    1    2    0    0 -0.18504491284E+03 -0.41957486682E+03  0.87244053703E+03  0.98970217327E+03  0.89851057256E+02 0.  0.
         13    1    3    3    0    0 -0.50072507974E+02 -0.10167074533E+03  0.30554729627E+03  0.32588854961E+03  0.00000000000E+00 0. -1.
        -13    1    3    3    0    0 -0.13497240486E+03 -0.31790412149E+03  0.56689324076E+03  0.66381362366E+03  0.00000000000E+00 0.  1.
         22    1    1    2    0    0  0.18504491284E+03  0.41957486682E+03 -0.76304643232E+03  0.89023847732E+03  0.00000000000E+00 0. -1.
<mgrwt>
<rscale>  0 0.18767551E+04</rscale>
<asrwt>0</asrwt>
<pdfrwt beam="1">  1        2 0.13619589E+00 0.18767551E+04</pdfrwt>
<pdfrwt beam="2">  1       -2 0.15302575E+00 0.18767551E+04</pdfrwt>
<totfact> 0.79967695E+00</totfact>
</mgrwt>
</event>
<event>
 6    1  0.9906445E-006  0.3910508E+04  0.7818608E-02  0.8022847E-01
          1   -1    0    0  501    0  0.00000000000E+00  0.00000000000E+00  0.16982107240E+04  0.16982107240E+04  0.00000000000E+00 0. -1.
         -1   -1    0    0    0  501 -0.00000000000E+00 -0.00000000000E+00 -0.22512037245E+04  0.22512037245E+04  0.00000000000E+00 0.  1.
         23    2    1    2    0    0  0.10632107163E+04  0.90793463086E+03 -0.16562025989E+04  0.21684501763E+04  0.66383711682E+02 0.  0.
         13    1    3    3    0    0  0.96129946289E+02  0.69327605524E+02 -0.16589029224E+03  0.20387955396E+03  0.00000000000E+00 0. -1.
        -13    1    3    3    0    0  0.96708077002E+03  0.83860702534E+03 -0.14903123066E+04  0.19645706223E+04  0.00000000000E+00 0.  1.
         22    1    1    2    0    0 -0.10632107163E+04 -0.90793463086E+03  0.11032095983E+04  0.17809642723E+04  0.00000000000E+00 0. -1.
<mgrwt>
<rscale>  0 0.39105081E+04</rscale>
<asrwt>0</asrwt>
<pdfrwt beam="1">  1        1 0.26126319E+00 0.39105081E+04</pdfrwt>
<pdfrwt beam="2">  1       -1 0.34633904E+00 0.39105081E+04</pdfrwt>
<totfact> 0.61887081E-02</totfact>
</mgrwt>
</event>
<event>
 6    1  0.9906445E-006  0.1242819E+04  0.7818608E-02  0.9076182E-01
          2   -1    0    0  501    0  0.00000000000E+00  0.00000000000E+00  0.23179230043E+04  0.23179230043E+04  0.00000000000E+00 0. -1.
         -2   -1    0    0    0  501 -0.00000000000E+00 -0.00000000000E+00 -0.16659291888E+03  0.16659291888E+03  0.00000000000E+00 0.  1.
         23    2    1    2    0    0 -0.25735875250E+03 -0.30620500647E+03  0.20231149287E+04  0.20644752587E+04  0.95231534812E+02 0.  0.
         13    1    3    3    0    0 -0.74817010824E+02 -0.10113220957E+03  0.87463637008E+03  0.88363685346E+03  0.00000000000E+00 0. -1.
        -13    1    3    3    0    0 -0.18254174167E+03 -0.20507279690E+03  0.11484785587E+04  0.11808384052E+04  0.00000000000E+00 0.  1.
         22    1    1    2    0    0  0.25735875250E+03  0.30620500647E+03  0.12821515672E+03  0.42004066456E+03  0.00000000000E+00 0.  1.
<mgrwt>
<rscale>  0 0.12428187E+04</rscale>
<asrwt>0</asrwt>
<pdfrwt beam="1">  1        2 0.35660352E+00 0.12428187E+04</pdfrwt>
<pdfrwt beam="2">  1       -2 0.25629682E-01 0.12428187E+04</pdfrwt>
<totfact> 0.59965334E+01</totfact>
</mgrwt>
</event>
<event>
 6    1  0.9906445E-006  0.6865232E+04  0.7818608E-02  0.7591496E-01
          1   -1    0    0  501    0  0.00000000000E+00  0.00000000000E+00  0.43355902838E+04  0.43355902838E+04  0.00000000000E+00 0. -1.
         -1   -1    0    0    0  501 -0.00000000000E+00 -0.00000000000E+00 -0.27177041437E+04  0.27177041437E+04  0.00000000000E+00 0.  1.
         23    2    1    2    0    0 -0.10934607268E+04 -0.19368878362E+04  0.34944193303E+04  0.41432140738E+04  0.89808434290E+02 0.  0.
         13    1    3    3    0    0 -0.45238149181E+03 -0.85225190259E+03  0.15842404697E+04  0.18549394021E+04  0.00000000000E+00 0. -1.
        -13    1    3    3    0    0 -0.64107923497E+03 -0.10846359336E+04  0.19101788605E+04  0.22882746717E+04  0.00000000000E+00 0.  1.
         22    1    1    2    0    0  0.10934607268E+04  0.19368878362E+04 -0.18765331901E+04  0.29100803536E+04  0.00000000000E+00 0.  1.
<mgrwt>
<rscale>  0 0.68652317E+04</rscale>
<asrwt>0</asrwt>
<pdfrwt beam="1">  1        1 0.66701389E+00 0.68652317E+04</pdfrwt>
<pdfrwt beam="2">  1       -1 0.41810833E+00 0.68652317E+04</pdfrwt>
<totfact> 0.15727335E-04</totfact>
</mgrwt>
</event>
<event>
 6    1  0.9906445E-006  0.1644196E+04  0.7818608E-02  0.8793847E-01
         -1   -1    0    0    0  501 -0.00000000000E+00  0.00000000000E+00  0.78246843072E+03  0.78246843072E+03  0.00000000000E+00 0.  1.
          1   -1    0    0  501    0  0.00000000000E+00 -0.00000000000E+00 -0.86373506314E+03  0.86373506314E+03  0.00000000000E+00 0. -1.
         23    2    1    2    0    0  0.16759297576E+03 -0.46529380925E+03 -0.69499305736E+03  0.85801198216E+03  0.92647057662E+02 0.  0.
         11    1    3    3    0    0  0.10888929073E+03 -0.22649045736E+03 -0.41689957810E+03  0.48678543850E+03  0.00000000000E+00 0.  1.
        -11    1    3    3    0    0  0.58703685031E+02 -0.23880335190E+03 -0.27809347925E+03  0.37122654366E+03  0.00000000000E+00 0. -1.
         22    1    1    2    0    0 -0.16759297576E+03  0.46529380925E+03  0.61372642494E+03  0.78819151171E+03  0.00000000000E+00 0.  1.
<mgrwt>
<rscale>  0 0.16441964E+04</rscale>
<asrwt>0</asrwt>
<pdfrwt beam="1">  1        1 0.13288232E+00 0.16441964E+04</pdfrwt>
<pdfrwt beam="2">  1       -1 0.12037976E+00 0.16441964E+04</pdfrwt>
<totfact> 0.11456014E+01</totfact>
</mgrwt>
</event>
<event>
 6    1  0.9906445E-006  0.4219160E+04  0.7818608E-02  0.7961738E-01
          1   -1    0    0  501    0  0.00000000000E+00  0.00000000000E+00  0.20808233565E+04  0.20808233565E+04  0.00000000000E+00 0. -1.
         -1   -1    0    0    0  501 -0.00000000000E+00 -0.00000000000E+00 -0.21387340296E+04  0.21387340296E+04  0.00000000000E+00 0.  1.
         23    2    1    2    0    0 -0.18932002453E+04  0.67110381262E+03  0.61261304493E+03  0.21019668798E+04  0.91556129759E+02 0.  0.
         11    1    3    3    0    0 -0.17295926969E+04  0.58846364765E+03  0.56959034348E+03  0.19136910726E+04  0.00000000000E+00 0.  1.
        -11    1    3    3    0    0 -0.16360754836E+03  0.82640164971E+02  0.43022701451E+02  0.18827580723E+03  0.00000000000E+00 0. -1.
         22    1    1    2    0    0  0.18932002453E+04 -0.67110381262E+03 -0.67052371804E+03  0.21175905063E+04  0.00000000000E+00 0.  1.
<mgrwt>
<rscale>  0 0.42191600E+04</rscale>
<asrwt>0</asrwt>
<pdfrwt beam="1">  1        1 0.32012667E+00 0.42191600E+04</pdfrwt>
<pdfrwt beam="2">  1       -1 0.32903600E+00 0.42191600E+04</pdfrwt>
<totfact> 0.43120046E-02</totfact>
</mgrwt>
</event>
<event>
 6    1  0.9906445E-006  0.1620158E+04  0.7818608E-02  0.8808259E-01
         -2   -1    0    0    0  501 -0.00000000000E+00  0.00000000000E+00  0.46257700802E+03  0.46257700802E+03  0.00000000000E+00 0.  1.
          2   -1    0    0  501    0  0.00000000000E+00 -0.00000000000E+00 -0.14186345240E+04  0.14186345240E+04  0.00000000000E+00 0. -1.
         23    2    1    2    0    0  0.36933246848E+03  0.38745674857E+02  0.35323905890E+03  0.52026876299E+03  0.89409470522E+02 0.  0.
         13    1    3    3    0    0  0.20145746113E+02  0.13540177116E+02  0.55913495295E+02  0.60954954178E+02  0.00000000000E+00 0.  1.
        -13    1    3    3    0    0  0.34918672237E+03  0.25205497742E+02  0.29732556360E+03  0.45931380881E+03  0.00000000000E+00 0. -1.
         22    1    1    2    0    0 -0.36933246848E+03 -0.38745674857E+02 -0.13092965749E+04  0.13609427691E+04  0.00000000000E+00 0. -1.
<mgrwt>
<rscale>  0 0.16201577E+04</rscale>
<asrwt>0</asrwt>
<pdfrwt beam="1">  1        2 0.21825147E+00 0.16201577E+04</pdfrwt>
<pdfrwt beam="2">  1       -2 0.71165693E-01 0.16201577E+04</pdfrwt>
<totfact> 0.24236984E+01</totfact>
</mgrwt>
</event>
<event>
 6    1  0.9906445E-006  0.1424987E+04  0.7818608E-02  0.8935928E-01
         -2   -1    0    0    0  501 -0.00000000000E+00  0.00000000000E+00  0.12965059321E+04  0.12965059321E+04  0.00000000000E+00 0.  1.
          2   -1    0    0  501    0  0.00000000000E+00 -0.00000000000E+00 -0.39154997586E+03  0.39154997586E+03  0.00000000000E+00 0. -1.
         23    2    1    2    0    0  0.51364571992E+03 -0.31148096931E+02 -0.12426566591E+03  0.53736078021E+03  0.92263334290E+02 0.  0.
         11    1    3    3    0    0  0.28313782790E+03 -0.86701126136E+00 -0.11219947249E+03  0.30455952279E+03  0.00000000000E+00 0.  1.
        -11    1    3    3    0    0  0.23050789202E+03 -0.30281085670E+02 -0.12066193412E+02  0.23280125742E+03  0.00000000000E+00 0. -1.
         22    1    1    2    0    0 -0.51364571992E+03  0.31148096931E+02  0.10292216222E+04  0.11506951278E+04  0.00000000000E+00 0.  1.
<mgrwt>
<rscale>  0 0.14249868E+04</rscale>
<asrwt>0</asrwt>
<pdfrwt beam="1">  1        2 0.60238458E-01 0.14249868E+04</pdfrwt>
<pdfrwt beam="2">  1       -2 0.19946245E+00 0.14249868E+04</pdfrwt>
<totfact> 0.10601393E+01</totfact>
</mgrwt>
</event>
<event>
 6    1  0.9906445E-006  0.2803793E+04  0.7818608E-02  0.8302092E-01
          2   -1    0    0  501    0  0.00000000000E+00  0.00000000000E+00  0.34732508318E+04  0.34732508318E+04  0.00000000000E+00 0. -1.
         -2   -1    0    0    0  501 -0.00000000000E+00 -0.00000000000E+00 -0.56584267006E+03  0.56584267006E+03  0.00000000000E+00 0.  1.
         23    2    1    2    0    0  0.13551008374E+04 -0.27033004350E+03  0.11261435053E+04  0.17847021454E+04  0.87097308011E+02 0.  0.
         13    1    3    3    0    0  0.48735831519E+03 -0.79754262994E+02  0.35380066167E+03  0.60749796547E+03  0.00000000000E+00 0. -1.
        -13    1    3    3    0    0  0.86774252224E+03 -0.19057578050E+03  0.77234284367E+03  0.11772041799E+04  0.00000000000E+00 0.  1.
         22    1    1    2    0    0 -0.13551008374E+04  0.27033004350E+03  0.17812646564E+04  0.22543913565E+04  0.00000000000E+00 0. -1.
<mgrwt>
<rscale>  0 0.28037928E+04</rscale>
<asrwt>0</asrwt>
<pdfrwt beam="1">  1        2 0.53434627E+00 0.28037928E+04</pdfrwt>
<pdfrwt beam="2">  1       -2 0.87052721E-01 0.28037928E+04</pdfrwt>
<totfact> 0.84216249E-01</totfact>
</mgrwt>
</event>
<event>
 6    1  0.1093512E-005  0.2670760E+04  0.7818608E-02  0.8344555E-01
         -1   -1    0    0    0  501 -0.00000000000E+00  0.00000000000E+00  0.11859986330E+04  0.11859986330E+04  0.00000000000E+00 0.  1.
          1   -1    0    0  501    0  0.00000000000E+00 -0.00000000000E+00 -0.15035764370E+04  0.15035764370E+04  0.00000000000E+00 0. -1.
         23    2    1    2    0    0 -0.10870804707E+04  0.71760530583E+03  0.12949259096E+03  0.13124137641E+04  0.94658504317E+02 0.  0.
         13    1    3    3    0    0 -0.60495806082E+03  0.35682058710E+03  0.10096103340E+03  0.70956910656E+03  0.00000000000E+00 0. -1.
        -13    1    3    3    0    0 -0.48212240984E+03  0.36078471873E+03  0.28531557565E+02  0.60284465753E+03  0.00000000000E+00 0.  1.
         22    1    1    2    0    0  0.10870804707E+04 -0.71760530583E+03 -0.44707039493E+03  0.13771613060E+04  0.00000000000E+00 0. -1.
<mgrwt>
<rscale>  0 0.26707599E+04</rscale>
<asrwt>0</asrwt>
<pdfrwt beam="1">  1        1 0.23131945E+00 0.26707599E+04</pdfrwt>
<pdfrwt beam="2">  1       -1 0.18246133E+00 0.26707599E+04</pdfrwt>
<totfact> 0.11377937E+00</totfact>
</mgrwt>
</event>
<event>
 6    1  0.9906445E-006  0.2619390E+04  0.7818608E-02  0.8361644E-01
          2   -1    0    0  501    0  0.00000000000E+00  0.00000000000E+00  0.42351687316E+04  0.42351687316E+04  0.00000000000E+00 0. -1.
         -2   -1    0    0    0  501 -0.00000000000E+00 -0.00000000000E+00 -0.40501366826E+03  0.40501366826E+03  0.00000000000E+00 0.  1.
         23    2    1    2    0    0 -0.77477560962E+03 -0.97266358706E+03  0.26367640450E+04  0.29166587356E+04  0.89564790631E+02 0.  0.
         11    1    3    3    0    0 -0.22039032593E+03 -0.22312136229E+03  0.71117076962E+03  0.77725086146E+03  0.00000000000E+00 0.  1.
        -11    1    3    3    0    0 -0.55438528369E+03 -0.74954222476E+03  0.19255932754E+04  0.21394078741E+04  0.00000000000E+00 0. -1.
         22    1    1    2    0    0  0.77477560962E+03  0.97266358706E+03  0.11933910184E+04  0.17235236643E+04  0.00000000000E+00 0. -1.
<mgrwt>
<rscale>  0 0.26193902E+04</rscale>
<asrwt>0</asrwt>
<pdfrwt beam="1">  1        2 0.65156439E+00 0.26193902E+04</pdfrwt>
<pdfrwt beam="2">  1       -2 0.62309798E-01 0.26193902E+04</pdfrwt>
<totfact> 0.45868620E-01</totfact>
</mgrwt>
</event>
<event>
 6    1  0.9906445E-006  0.1394670E+04  0.7818608E-02  0.8957685E-01
         -1   -1    0    0    0  501 -0.00000000000E+00  0.00000000000E+00  0.44375253176E+03  0.44375253176E+03  0.00000000000E+00 0.  1.
          1   -1    0    0  501    0  0.00000000000E+00 -0.00000000000E+00 -0.10958277523E+04  0.10958277523E+04  0.00000000000E+00 0. -1.
         23    2    1    2    0    0 -0.48819457863E+03 -0.36313094705E+03 -0.69700105338E+03  0.92948491297E+03  0.89071340596E+02 0.  0.
         13    1    3    3    0    0 -0.28500869766E+03 -0.15668997749E+03 -0.37277327176E+03  0.49471367368E+03  0.00000000000E+00 0. -1.
        -13    1    3    3    0    0 -0.20318588097E+03 -0.20644096956E+03 -0.32422778162E+03  0.43477123929E+03  0.00000000000E+00 0.  1.
         22    1    1    2    0    0  0.48819457863E+03  0.36313094705E+03  0.44925832892E+02  0.61009537105E+03  0.00000000000E+00 0.  1.
<mgrwt>
<rscale>  0 0.13946703E+04</rscale>
<asrwt>0</asrwt>
<pdfrwt beam="1">  1        1 0.16858888E+00 0.13946703E+04</pdfrwt>
<pdfrwt beam="2">  1       -1 0.68269622E-01 0.13946703E+04</pdfrwt>
<totfact> 0.27059447E+01</totfact>
</mgrwt>
</event>
<event>
 6    1  0.9906445E-006  0.2065974E+04  0.7818608E-02  0.8576382E-01
         -2   -1    0    0    0  501 -0.00000000000E+00  0.00000000000E+00  0.93518548553E+03  0.93518548553E+03  0.00000000000E+00 0.  1.
          2   -1    0    0  501    0  0.00000000000E+00 -0.00000000000E+00 -0.11410170906E+04  0.11410170906E+04  0.00000000000E+00 0. -1.
         23    2    1    2    0    0 -0.39573246875E+03 -0.13202140972E+03 -0.10499350296E+04  0.11346376922E+04  0.10490608580E+03 0.  0.
         11    1    3    3    0    0 -0.23286894574E+03 -0.67722111375E+02 -0.47049856756E+03  0.52932327772E+03  0.00000000000E+00 0.  1.
        -11    1    3    3    0    0 -0.16286352301E+03 -0.64299298340E+02 -0.57943646201E+03  0.60531441450E+03  0.00000000000E+00 0. -1.
         22    1    1    2    0    0  0.39573246875E+03  0.13202140972E+03  0.84410342448E+03  0.94156488394E+03  0.00000000000E+00 0.  1.
<mgrwt>
<rscale>  0 0.20659745E+04</rscale>
<asrwt>0</asrwt>
<pdfrwt beam="1">  1        2 0.17554109E+00 0.20659745E+04</pdfrwt>
<pdfrwt beam="2">  1       -2 0.14387469E+00 0.20659745E+04</pdfrwt>
<totfact> 0.63545798E+00</totfact>
</mgrwt>
</event>
<event>
 6    1  0.9906445E-006  0.3104574E+04  0.7818608E-02  0.8214484E-01
          2   -1    0    0  501    0  0.00000000000E+00  0.00000000000E+00  0.28316861302E+04  0.28316861302E+04  0.00000000000E+00 0. -1.
         -2   -1    0    0    0  501 -0.00000000000E+00 -0.00000000000E+00 -0.85094009026E+03  0.85094009026E+03  0.00000000000E+00 0.  1.
         23    2    1    2    0    0  0.11276122740E+04 -0.46161992983E+02  0.22531813919E+04  0.25216518921E+04  0.90892850262E+02 0.  0.
         13    1    3    3    0    0  0.81714548682E+03 -0.97619668061E+01  0.15539621725E+04  0.17557392962E+04  0.00000000000E+00 0.  1.
        -13    1    3    3    0    0  0.31046678716E+03 -0.36400026177E+02  0.69921921935E+03  0.76591259589E+03  0.00000000000E+00 0. -1.
         22    1    1    2    0    0 -0.11276122740E+04  0.46161992983E+02 -0.27243535197E+03  0.11609743283E+04  0.00000000000E+00 0.  1.
<mgrwt>
<rscale>  0 0.31045742E+04</rscale>
<asrwt>0</asrwt>
<pdfrwt beam="1">  1        2 0.43564401E+00 0.31045742E+04</pdfrwt>
<pdfrwt beam="2">  1       -2 0.13091386E+00 0.31045742E+04</pdfrwt>
<totfact> 0.80063407E-01</totfact>
</mgrwt>
</event>
<event>
 6    1  0.9906445E-006  0.2886532E+04  0.7818608E-02  0.8276896E-01
         -1   -1    0    0    0  501 -0.00000000000E+00  0.00000000000E+00  0.21247366928E+04  0.21247366928E+04  0.00000000000E+00 0.  1.
          1   -1    0    0  501    0  0.00000000000E+00 -0.00000000000E+00 -0.98036433164E+03  0.98036433164E+03  0.00000000000E+00 0. -1.
         23    2    1    2    0    0  0.58966103168E+03  0.21213814673E+03  0.19696021401E+04  0.20689027260E+04  0.91231430618E+02 0.  0.
         11    1    3    3    0    0  0.44499000734E+03  0.11760913756E+03  0.14096995501E+04  0.14829365588E+04  0.00000000000E+00 0. -1.
        -11    1    3    3    0    0  0.14467102434E+03  0.94529009169E+02  0.55990258992E+03  0.58596616716E+03  0.00000000000E+00 0.  1.
         22    1    1    2    0    0 -0.58966103168E+03 -0.21213814673E+03 -0.82522977894E+03  0.10361982984E+04  0.00000000000E+00 0. -1.
<mgrwt>
<rscale>  0 0.28865315E+04</rscale>
<asrwt>0</asrwt>
<pdfrwt beam="1">  1        1 0.15082528E+00 0.28865315E+04</pdfrwt>
<pdfrwt beam="2">  1       -1 0.32688257E+00 0.28865315E+04</pdfrwt>
<totfact> 0.29725607E-01</totfact>
</mgrwt>
</event>
<event>
 6    1  0.9906445E-006  0.1189598E+04  0.7818608E-02  0.9122010E-01
          2   -1    0    0  501    0  0.00000000000E+00  0.00000000000E+00  0.67230205954E+03  0.67230205954E+03  0.00000000000E+00 0.  1.
         -2   -1    0    0    0  501 -0.00000000000E+00 -0.00000000000E+00 -0.52623044716E+03  0.52623044716E+03  0.00000000000E+00 0. -1.
         23    2    1    2    0    0  0.48264440802E+03  0.13383517006E+03  0.39008404491E+03  0.64139738435E+03  0.91474396511E+02 0.  0.
         11    1    3    3    0    0  0.34167079573E+03  0.72870455330E+02  0.31516471185E+03  0.47050805680E+03  0.00000000000E+00 0.  1.
        -11    1    3    3    0    0  0.14097361229E+03  0.60964714735E+02  0.74919333054E+02  0.17088932755E+03  0.00000000000E+00 0. -1.
         22    1    1    2    0    0 -0.48264440802E+03 -0.13383517006E+03 -0.24401243252E+03  0.55713512235E+03  0.00000000000E+00 0. -1.
<mgrwt>
<rscale>  0 0.11895979E+04</rscale>
<asrwt>0</asrwt>
<pdfrwt beam="1">  1        2 0.10343109E+00 0.11895979E+04</pdfrwt>
<pdfrwt beam="2">  1       -2 0.80958530E-01 0.11895979E+04</pdfrwt>
<totfact> 0.57314019E+01</totfact>
</mgrwt>
</event>
<event>
 6    1  0.9906445E-006  0.2329308E+04  0.7818608E-02  0.8466454E-01
         -3   -1    0    0    0  501 -0.00000000000E+00  0.00000000000E+00  0.37482005910E+03  0.37482005910E+03  0.00000000000E+00 0.  1.
          3   -1    0    0  501    0  0.00000000000E+00 -0.00000000000E+00 -0.36188548518E+04  0.36188548518E+04  0.00000000000E+00 0. -1.
         23    2    1    2    0    0 -0.88127725025E+03 -0.71476279729E+03 -0.20622825609E+04  0.23553605987E+04  0.84727449600E+02 0.  0.
         11    1    3    3    0    0 -0.61258537658E+03 -0.45582301382E+03 -0.13352592307E+04  0.15381653607E+04  0.00000000000E+00 0. -1.
        -11    1    3    3    0    0 -0.26869187368E+03 -0.25893978347E+03 -0.72702333020E+03  0.81719523805E+03  0.00000000000E+00 0.  1.
         22    1    1    2    0    0  0.88127725025E+03  0.71476279729E+03 -0.11817522318E+04  0.16383143122E+04  0.00000000000E+00 0.  1.
<mgrwt>
<rscale>  0 0.23293084E+04</rscale>
<asrwt>0</asrwt>
<pdfrwt beam="1">  1        3 0.55674688E+00 0.23293084E+04</pdfrwt>
<pdfrwt beam="2">  1       -3 0.57664627E-01 0.23293084E+04</pdfrwt>
<totfact> 0.12728099E-02</totfact>
</mgrwt>
</event>
<event>
 6    1  0.9906445E-006  0.1781524E+04  0.7818608E-02  0.8716187E-01
          2   -1    0    0  501    0  0.00000000000E+00  0.00000000000E+00  0.13631110577E+04  0.13631110577E+04  0.00000000000E+00 0. -1.
         -2   -1    0    0    0  501 -0.00000000000E+00 -0.00000000000E+00 -0.58209261361E+03  0.58209261361E+03  0.00000000000E+00 0.  1.
         23    2    1    2    0    0  0.73198440162E+03 -0.18612448874E+03  0.90252434291E+03  0.11802153231E+04  0.88963643033E+02 0.  0.
         11    1    3    3    0    0  0.27333386219E+03 -0.54909141667E+02  0.39726376210E+03  0.48532969282E+03  0.00000000000E+00 0. -1.
        -11    1    3    3    0    0  0.45865053943E+03 -0.13121534707E+03  0.50526058082E+03  0.69488563027E+03  0.00000000000E+00 0.  1.
         22    1    1    2    0    0 -0.73198440162E+03  0.18612448874E+03 -0.12150589879E+03  0.76498834825E+03  0.00000000000E+00 0. -1.
<mgrwt>
<rscale>  0 0.17815239E+04</rscale>
<asrwt>0</asrwt>
<pdfrwt beam="1">  1        2 0.20970939E+00 0.17815239E+04</pdfrwt>
<pdfrwt beam="2">  1       -2 0.89552710E-01 0.17815239E+04</pdfrwt>
<totfact> 0.15359186E+01</totfact>
</mgrwt>
</event>
<event>
 6    1  0.9906445E-006  0.1413705E+04  0.7818608E-02  0.8943957E-01
          2   -1    0    0  501    0  0.00000000000E+00  0.00000000000E+00  0.81067677817E+03  0.81067677817E+03  0.00000000000E+00 0. -1.
         -2   -1    0    0    0  501 -0.00000000000E+00 -0.00000000000E+00 -0.61632549022E+03  0.61632549022E+03  0.00000000000E+00 0.  1.
         23    2    1    2    0    0  0.25444290446E+03 -0.62924783125E+03  0.28560671345E+03  0.74215076810E+03  0.92317620572E+02 0.  0.
         13    1    3    3    0    0  0.10017212538E+03 -0.14309231044E+03  0.82121495143E+02  0.19301244513E+03  0.00000000000E+00 0. -1.
        -13    1    3    3    0    0  0.15427077908E+03 -0.48615552081E+03  0.20348521830E+03  0.54913832297E+03  0.00000000000E+00 0.  1.
         22    1    1    2    0    0 -0.25444290446E+03  0.62924783125E+03 -0.91255425504E+02  0.68485150029E+03  0.00000000000E+00 0.  1.
<mgrwt>
<rscale>  0 0.14137054E+04</rscale>
<asrwt>0</asrwt>
<pdfrwt beam="1">  1        2 0.12471950E+00 0.14137054E+04</pdfrwt>
<pdfrwt beam="2">  1       -2 0.94819307E-01 0.14137054E+04</pdfrwt>
<totfact> 0.30813398E+01</totfact>
</mgrwt>
</event>
<event>
 6    1  0.9906445E-006  0.1321963E+04  0.7818608E-02  0.9012327E-01
         -2   -1    0    0    0  501 -0.00000000000E+00  0.00000000000E+00  0.18329843862E+03  0.18329843862E+03  0.00000000000E+00 0.  1.
          2   -1    0    0  501    0  0.00000000000E+00 -0.00000000000E+00 -0.23835270563E+04  0.23835270563E+04  0.00000000000E+00 0. -1.
         23    2    1    2    0    0 -0.23123062486E+03 -0.16197413592E+03 -0.22591454313E+04  0.22784257489E+04  0.88218993687E+02 0.  0.
         11    1    3    3    0    0 -0.60937397282E+01  0.86927438328E+01 -0.16041766367E+03  0.16076854256E+03  0.00000000000E+00 0. -1.
        -11    1    3    3    0    0 -0.22513688514E+03 -0.17066687975E+03 -0.20987277676E+04  0.21176572063E+04  0.00000000000E+00 0.  1.
         22    1    1    2    0    0  0.23123062486E+03  0.16197413592E+03  0.58916813617E+02  0.28839974603E+03  0.00000000000E+00 0.  1.
<mgrwt>
<rscale>  0 0.13219634E+04</rscale>
<asrwt>0</asrwt>
<pdfrwt beam="1">  1        2 0.36669645E+00 0.13219634E+04</pdfrwt>
<pdfrwt beam="2">  1       -2 0.28199761E-01 0.13219634E+04</pdfrwt>
<totfact> 0.45902565E+01</totfact>
</mgrwt>
</event>
<event>
 6    1  0.9906445E-006  0.2102736E+04  0.7818608E-02  0.8560039E-01
         -1   -1    0    0    0  501 -0.00000000000E+00  0.00000000000E+00  0.56314618555E+03  0.56314618555E+03  0.00000000000E+00 0.  1.
          1   -1    0    0  501    0  0.00000000000E+00 -0.00000000000E+00 -0.19628551674E+04  0.19628551674E+04  0.00000000000E+00 0. -1.
         23    2    1    2    0    0  0.35606349369E+03 -0.27718630909E+03  0.43694893586E+03  0.63472512560E+03  0.91313476718E+02 0.  0.
         11    1    3    3    0    0  0.67070328820E+02 -0.10279154006E+03  0.12265496249E+03  0.17351878728E+03  0.00000000000E+00 0. -1.
        -11    1    3    3    0    0  0.28899316487E+03 -0.17439476903E+03  0.31429397337E+03  0.46120633831E+03  0.00000000000E+00 0.  1.
         22    1    1    2    0    0 -0.35606349369E+03  0.27718630909E+03 -0.18366579177E+04  0.18912762274E+04  0.00000000000E+00 0. -1.
<mgrwt>
<rscale>  0 0.21027357E+04</rscale>
<asrwt>0</asrwt>
<pdfrwt beam="1">  1        1 0.30197772E+00 0.21027357E+04</pdfrwt>
<pdfrwt beam="2">  1       -1 0.86637875E-01 0.21027357E+04</pdfrwt>
<totfact> 0.38131330E+00</totfact>
</mgrwt>
</event>
<event>
 6    1  0.9906445E-006  0.2104745E+04  0.7818608E-02  0.8559156E-01
          2   -1    0    0  501    0  0.00000000000E+00  0.00000000000E+00  0.30684436365E+04  0.30684436365E+04  0.00000000000E+00 0. -1.
         -2   -1    0    0    0  501 -0.00000000000E+00 -0.00000000000E+00 -0.36092837183E+03  0.36092837183E+03  0.00000000000E+00 0.  1.
         23    2    1    2    0    0  0.48950631868E+03 -0.91167580920E+03  0.16542329344E+04  0.19528311574E+04  0.79332912802E+02 0.  0.
         11    1    3    3    0    0  0.26329712047E+03 -0.52905018056E+03  0.10089532326E+04  0.11692758840E+04  0.00000000000E+00 0.  1.
        -11    1    3    3    0    0  0.22620919821E+03 -0.38262562864E+03  0.64527970180E+03  0.78355527348E+03  0.00000000000E+00 0. -1.
         22    1    1    2    0    0 -0.48950631868E+03  0.91167580920E+03  0.10532823302E+04  0.14765408508E+04  0.00000000000E+00 0.  1.
<mgrwt>
<rscale>  0 0.21047455E+04</rscale>
<asrwt>0</asrwt>
<pdfrwt beam="1">  1        2 0.47206824E+00 0.21047455E+04</pdfrwt>
<pdfrwt beam="2">  1       -2 0.55527444E-01 0.21047455E+04</pdfrwt>
<totfact> 0.44344520E+00</totfact>
</mgrwt>
</event>
<event>
 6    1  0.9906445E-006  0.2343345E+04  0.7818608E-02  0.8461024E-01
          2   -1    0    0  501    0  0.00000000000E+00  0.00000000000E+00  0.15150520946E+04  0.15150520946E+04  0.00000000000E+00 0.  1.
         -2   -1    0    0    0  501 -0.00000000000E+00 -0.00000000000E+00 -0.90611849837E+03  0.90611849837E+03  0.00000000000E+00 0. -1.
         23    2    1    2    0    0  0.10966841609E+04  0.33589582927E+03  0.54261717139E+03  0.12722841647E+04  0.93442197681E+02 0.  0.
         13    1    3    3    0    0  0.36186945515E+03  0.86134236095E+02  0.13555178972E+03  0.39590768734E+03  0.00000000000E+00 0.  1.
        -13    1    3    3    0    0  0.73481470574E+03  0.24976159318E+03  0.40706538167E+03  0.87637647741E+03  0.00000000000E+00 0. -1.
         22    1    1    2    0    0 -0.10966841609E+04 -0.33589582927E+03  0.66316424882E+02  0.11488864283E+04  0.00000000000E+00 0. -1.
<mgrwt>
<rscale>  0 0.23433452E+04</rscale>
<asrwt>0</asrwt>
<pdfrwt beam="1">  1        2 0.23308494E+00 0.23433452E+04</pdfrwt>
<pdfrwt beam="2">  1       -2 0.13940285E+00 0.23433452E+04</pdfrwt>
<totfact> 0.40847611E+00</totfact>
</mgrwt>
</event>
<event>
 6    1  0.9906445E-006  0.2946329E+04  0.7818608E-02  0.8259225E-01
         -1   -1    0    0    0  501 -0.00000000000E+00  0.00000000000E+00  0.10950166470E+04  0.10950166470E+04  0.00000000000E+00 0.  1.
          1   -1    0    0  501    0  0.00000000000E+00 -0.00000000000E+00 -0.19819001584E+04  0.19819001584E+04  0.00000000000E+00 0. -1.
         23    2    1    2    0    0  0.22346334905E+03  0.11265183239E+04  0.51736347646E+03  0.12628360450E+04  0.90058354780E+02 0.  0.
         13    1    3    3    0    0  0.12134219428E+03  0.58637484164E+03  0.31869075679E+03  0.67832380283E+03  0.00000000000E+00 0. -1.
        -13    1    3    3    0    0  0.10212115477E+03  0.54014348224E+03  0.19867271967E+03  0.58451224213E+03  0.00000000000E+00 0.  1.
         22    1    1    2    0    0 -0.22346334905E+03 -0.11265183239E+04 -0.14042469879E+04  0.18140807605E+04  0.00000000000E+00 0. -1.
<mgrwt>
<rscale>  0 0.29463290E+04</rscale>
<asrwt>0</asrwt>
<pdfrwt beam="1">  1        1 0.30490772E+00 0.29463290E+04</pdfrwt>
<pdfrwt beam="2">  1       -1 0.16846410E+00 0.29463290E+04</pdfrwt>
<totfact> 0.66193411E-01</totfact>
</mgrwt>
</event>
<event>
 6    1  0.9906445E-006  0.1876036E+04  0.7818608E-02  0.8666877E-01
         -2   -1    0    0    0  501 -0.00000000000E+00  0.00000000000E+00  0.20417258154E+03  0.20417258154E+03  0.00000000000E+00 0.  1.
          2   -1    0    0  501    0  0.00000000000E+00 -0.00000000000E+00 -0.43094821294E+04  0.43094821294E+04  0.00000000000E+00 0. -1.
         23    2    1    2    0    0  0.80234732659E+03 -0.28709938453E+03 -0.11246791296E+04  0.14135990696E+04  0.84687047265E+02 0.  0.
         11    1    3    3    0    0  0.17843368234E+03 -0.92449327916E+02 -0.22655629638E+03  0.30284189383E+03  0.00000000000E+00 0.  1.
        -11    1    3    3    0    0  0.62391364424E+03 -0.19465005662E+03 -0.89812283318E+03  0.11107571758E+04  0.00000000000E+00 0. -1.
         22    1    1    2    0    0 -0.80234732659E+03  0.28709938453E+03 -0.29806304183E+04  0.31000556414E+04  0.00000000000E+00 0. -1.
<mgrwt>
<rscale>  0 0.18760363E+04</rscale>
<asrwt>0</asrwt>
<pdfrwt beam="1">  1        2 0.66299724E+00 0.18760363E+04</pdfrwt>
<pdfrwt beam="2">  1       -2 0.31411167E-01 0.18760363E+04</pdfrwt>
<totfact> 0.16702043E+00</totfact>
</mgrwt>
</event>
<event>
 6    1  0.9906445E-006  0.2821502E+04  0.7818608E-02  0.8296624E-01
         -1   -1    0    0    0  501 -0.00000000000E+00  0.00000000000E+00  0.18937298102E+04  0.18937298102E+04  0.00000000000E+00 0.  1.
          1   -1    0    0  501    0  0.00000000000E+00 -0.00000000000E+00 -0.10509513234E+04  0.10509513234E+04  0.00000000000E+00 0. -1.
         23    2    1    2    0    0  0.27859669312E+03 -0.11093330459E+04 -0.43750964788E+03  0.12278894655E+04  0.89788213891E+02 0.  0.
         13    1    3    3    0    0  0.54452448975E+02 -0.23450824705E+03 -0.53889998427E+02  0.24670492307E+03  0.00000000000E+00 0. -1.
        -13    1    3    3    0    0  0.22414424414E+03 -0.87482479882E+03 -0.38361964945E+03  0.98118454240E+03  0.00000000000E+00 0.  1.
         22    1    1    2    0    0 -0.27859669312E+03  0.11093330459E+04  0.12802881347E+04  0.17167916681E+04  0.00000000000E+00 0.  1.
<mgrwt>
<rscale>  0 0.28215016E+04</rscale>
<asrwt>0</asrwt>
<pdfrwt beam="1">  1        1 0.16168482E+00 0.28215016E+04</pdfrwt>
<pdfrwt beam="2">  1       -1 0.29134305E+00 0.28215016E+04</pdfrwt>
<totfact> 0.44862803E-01</totfact>
</mgrwt>
</event>
<event>
 6    1  0.9906445E-006  0.1418122E+04  0.7818608E-02  0.8940804E-01
         -2   -1    0    0    0  501 -0.00000000000E+00  0.00000000000E+00  0.55751794571E+03  0.55751794571E+03  0.00000000000E+00 0.  1.
          2   -1    0    0  501    0  0.00000000000E+00 -0.00000000000E+00 -0.90179591899E+03  0.90179591899E+03  0.00000000000E+00 0. -1.
         23    2    1    2    0    0  0.94570652259E+01 -0.14095623501E+03 -0.88472367553E+03  0.90070876863E+03  0.92640204918E+02 0.  0.
         13    1    3    3    0    0  0.28545482811E+02 -0.14119345242E+03 -0.67961257475E+03  0.69471122588E+03  0.00000000000E+00 0.  1.
        -13    1    3    3    0    0 -0.19088417585E+02  0.23721740477E+00 -0.20511110078E+03  0.20599754275E+03  0.00000000000E+00 0. -1.
         22    1    1    2    0    0 -0.94570652259E+01  0.14095623501E+03  0.54044570226E+03  0.55860509607E+03  0.00000000000E+00 0.  1.
<mgrwt>
<rscale>  0 0.14181219E+04</rscale>
<asrwt>0</asrwt>
<pdfrwt beam="1">  1        2 0.13873783E+00 0.14181219E+04</pdfrwt>
<pdfrwt beam="2">  1       -2 0.85771992E-01 0.14181219E+04</pdfrwt>
<totfact> 0.33556754E+01</totfact>
</mgrwt>
</event>
<event>
 6    1  0.1079758E-005  0.3346742E+04  0.7818608E-02  0.8151103E-01
         -1   -1    0    0    0  501 -0.00000000000E+00  0.00000000000E+00  0.15541676932E+04  0.15541676932E+04  0.00000000000E+00 0.  1.
          1   -1    0    0  501    0  0.00000000000E+00 -0.00000000000E+00 -0.18017175783E+04  0.18017175783E+04  0.00000000000E+00 0. -1.
         23    2    1    2    0    0 -0.67686994304E+03 -0.11348328374E+03  0.14049386839E+04  0.15665418596E+04  0.95756550003E+02 0.  0.
         11    1    3    3    0    0 -0.17492476189E+03  0.12624333129E+02  0.34821136498E+03  0.38988357340E+03  0.00000000000E+00 0. -1.
        -11    1    3    3    0    0 -0.50194518116E+03 -0.12610761687E+03  0.10567273189E+04  0.11766582862E+04  0.00000000000E+00 0.  1.
         22    1    1    2    0    0  0.67686994304E+03  0.11348328374E+03 -0.16524885689E+04  0.17893434120E+04  0.00000000000E+00 0. -1.
<mgrwt>
<rscale>  0 0.33467424E+04</rscale>
<asrwt>0</asrwt>
<pdfrwt beam="1">  1        1 0.27718732E+00 0.33467424E+04</pdfrwt>
<pdfrwt beam="2">  1       -1 0.23910272E+00 0.33467424E+04</pdfrwt>
<totfact> 0.27595706E-01</totfact>
</mgrwt>
</event>
<event>
 6    1  0.9906445E-006  0.2696350E+04  0.7818608E-02  0.8336190E-01
         -2   -1    0    0    0  501 -0.00000000000E+00  0.00000000000E+00  0.63422776280E+03  0.63422776280E+03  0.00000000000E+00 0.  1.
          2   -1    0    0  501    0  0.00000000000E+00 -0.00000000000E+00 -0.28658082724E+04  0.28658082724E+04  0.00000000000E+00 0. -1.
         23    2    1    2    0    0  0.95334152630E+03  0.94811415516E+03 -0.10189874566E+04  0.16894663930E+04  0.90447440211E+02 0.  0.
         13    1    3    3    0    0  0.75916261243E+03  0.74648324788E+03 -0.76008245700E+03  0.13081630070E+04  0.00000000000E+00 0.  1.
        -13    1    3    3    0    0  0.19417891387E+03  0.20163090728E+03 -0.25890499956E+03  0.38130338598E+03  0.00000000000E+00 0. -1.
         22    1    1    2    0    0 -0.95334152630E+03 -0.94811415516E+03 -0.12125930530E+04  0.18105696422E+04  0.00000000000E+00 0. -1.
<mgrwt>
<rscale>  0 0.26963495E+04</rscale>
<asrwt>0</asrwt>
<pdfrwt beam="1">  1        2 0.44089358E+00 0.26963495E+04</pdfrwt>
<pdfrwt beam="2">  1       -2 0.97573503E-01 0.26963495E+04</pdfrwt>
<totfact> 0.16192499E+00</totfact>
</mgrwt>
</event>
<event>
 6    1  0.9906445E-006  0.2024467E+04  0.7818608E-02  0.8595266E-01
          1   -1    0    0  501    0  0.00000000000E+00  0.00000000000E+00  0.14385722086E+04  0.14385722086E+04  0.00000000000E+00 0.  1.
         -1   -1    0    0    0  501 -0.00000000000E+00 -0.00000000000E+00 -0.71224572209E+03  0.71224572209E+03  0.00000000000E+00 0. -1.
         23    2    1    2    0    0  0.57952146043E+03  0.30843534262E+03  0.11796144761E+04  0.13530413421E+04  0.90846451493E+02 0.  0.
         11    1    3    3    0    0  0.11110559486E+03  0.65644897382E+02  0.31152944116E+03  0.33720067982E+03  0.00000000000E+00 0. -1.
        -11    1    3    3    0    0  0.46841586557E+03  0.24279044523E+03  0.86808503491E+03  0.10158406623E+04  0.00000000000E+00 0.  1.
         22    1    1    2    0    0 -0.57952146043E+03 -0.30843534262E+03 -0.45328798958E+03  0.79777658851E+03  0.00000000000E+00 0. -1.
<mgrwt>
<rscale>  0 0.20244672E+04</rscale>
<asrwt>0</asrwt>
<pdfrwt beam="1">  1        1 0.22131880E+00 0.20244672E+04</pdfrwt>
<pdfrwt beam="2">  1       -1 0.10957627E+00 0.20244672E+04</pdfrwt>
<totfact> 0.51468089E+00</totfact>
</mgrwt>
</event>
<event>
 6    1  0.9906445E-006  0.9310182E+03  0.7818608E-02  0.9387617E-01
          1   -1    0    0  501    0  0.00000000000E+00  0.00000000000E+00  0.15962774730E+04  0.15962774730E+04  0.00000000000E+00 0. -1.
         -1   -1    0    0    0  501 -0.00000000000E+00 -0.00000000000E+00 -0.13575252965E+03  0.13575252965E+03  0.00000000000E+00 0.  1.
         23    2    1    2    0    0 -0.13636203154E+03  0.27230659959E+03  0.13813769288E+04  0.14173716228E+04  0.89412582752E+02 0.  0.
         13    1    3    3    0    0 -0.11549229975E+03  0.13361149055E+03  0.81036860563E+03  0.82939000398E+03  0.00000000000E+00 0. -1.
        -13    1    3    3    0    0 -0.20869731791E+02  0.13869510904E+03  0.57100832312E+03  0.58798161881E+03  0.00000000000E+00 0.  1.
         22    1    1    2    0    0  0.13636203154E+03 -0.27230659959E+03  0.79148014632E+02  0.31465837991E+03  0.00000000000E+00 0.  1.
<mgrwt>
<rscale>  0 0.93101816E+03</rscale>
<asrwt>0</asrwt>
<pdfrwt beam="1">  1        1 0.24558114E+00 0.93101816E+03</pdfrwt>
<pdfrwt beam="2">  1       -1 0.20885006E-01 0.93101816E+03</pdfrwt>
<totfact> 0.10758802E+02</totfact>
</mgrwt>
</event>
<event>
 6    1  0.9906445E-006  0.1269475E+04  0.7818608E-02  0.9054128E-01
          2   -1    0    0  501    0  0.00000000000E+00  0.00000000000E+00  0.20853880609E+04  0.20853880609E+04  0.00000000000E+00 0. -1.
         -2   -1    0    0    0  501 -0.00000000000E+00 -0.00000000000E+00 -0.19319746433E+03  0.19319746433E+03  0.00000000000E+00 0.  1.
         23    2    1    2    0    0  0.11338117328E+03  0.32939278515E+03  0.18964809173E+04  0.19301988088E+04  0.87593803326E+02 0.  0.
         11    1    3    3    0    0  0.47414823792E+01  0.12892663650E+03  0.58646256662E+03  0.60048555462E+03  0.00000000000E+00 0. -1.
        -11    1    3    3    0    0  0.10863969090E+03  0.20046614866E+03  0.13100183506E+04  0.13297132541E+04  0.00000000000E+00 0.  1.
         22    1    1    2    0    0 -0.11338117328E+03 -0.32939278515E+03 -0.42903207049E+01  0.34838671648E+03  0.00000000000E+00 0.  1.
<mgrwt>
<rscale>  0 0.12694750E+04</rscale>
<asrwt>0</asrwt>
<pdfrwt beam="1">  1        2 0.32082892E+00 0.12694750E+04</pdfrwt>
<pdfrwt beam="2">  1       -2 0.29722688E-01 0.12694750E+04</pdfrwt>
<totfact> 0.61452843E+01</totfact>
</mgrwt>
</event>
<event>
 6    1  0.9906445E-006  0.2425839E+04  0.7818608E-02  0.8429893E-01
          2   -1    0    0  501    0  0.00000000000E+00  0.00000000000E+00  0.22948794107E+04  0.22948794107E+04  0.00000000000E+00 0. -1.
         -2   -1    0    0    0  501 -0.00000000000E+00 -0.00000000000E+00 -0.64106798123E+03  0.64106798123E+03  0.00000000000E+00 0.  1.
         23    2    1    2    0    0  0.86924088839E+03 -0.65388828440E+03  0.18318998788E+03  0.11067735251E+04  0.90771436643E+02 0.  0.
         13    1    3    3    0    0  0.21150371015E+03 -0.11269641037E+03  0.34472690642E+02  0.24212118189E+03  0.00000000000E+00 0.  1.
        -13    1    3    3    0    0  0.65773717824E+03 -0.54119187403E+03  0.14871729723E+03  0.86465234323E+03  0.00000000000E+00 0. -1.
         22    1    1    2    0    0 -0.86924088839E+03  0.65388828440E+03  0.14706214416E+04  0.18291738668E+04  0.00000000000E+00 0. -1.
<mgrwt>
<rscale>  0 0.24258390E+04</rscale>
<asrwt>0</asrwt>
<pdfrwt beam="1">  1        2 0.35305837E+00 0.24258390E+04</pdfrwt>
<pdfrwt beam="2">  1       -2 0.98625844E-01 0.24258390E+04</pdfrwt>
<totfact> 0.34949013E+00</totfact>
</mgrwt>
</event>
<event>
 6    1  0.9906445E-006  0.1006766E+04  0.7818608E-02  0.9301155E-01
          2   -1    0    0  501    0  0.00000000000E+00  0.00000000000E+00  0.12818328924E+04  0.12818328924E+04  0.00000000000E+00 0. -1.
         -2   -1    0    0    0  501 -0.00000000000E+00 -0.00000000000E+00 -0.19768124213E+03  0.19768124213E+03  0.00000000000E+00 0.  1.
         23    2    1    2    0    0  0.26473830906E+03 -0.27752923340E+03  0.77927110869E+02  0.40266843001E+03  0.94659295613E+02 0.  0.
         11    1    3    3    0    0  0.88062380176E+02 -0.16021204355E+03  0.41743160245E+02  0.18752432676E+03  0.00000000000E+00 0. -1.
        -11    1    3    3    0    0  0.17667592888E+03 -0.11731718985E+03  0.36183950624E+02  0.21514410325E+03  0.00000000000E+00 0.  1.
         22    1    1    2    0    0 -0.26473830906E+03  0.27752923340E+03  0.10062245394E+04  0.10768457045E+04  0.00000000000E+00 0. -1.
<mgrwt>
<rscale>  0 0.10067657E+04</rscale>
<asrwt>0</asrwt>
<pdfrwt beam="1">  1        2 0.19720506E+00 0.10067657E+04</pdfrwt>
<pdfrwt beam="2">  1       -2 0.30412500E-01 0.10067657E+04</pdfrwt>
<totfact> 0.16877464E+02</totfact>
</mgrwt>
</event>
<event>
 6    1  0.9906445E-006  0.1389268E+04  0.7818608E-02  0.8961624E-01
         -1   -1    0    0    0  501 -0.00000000000E+00  0.00000000000E+00  0.35882883690E+03  0.35882883690E+03  0.00000000000E+00 0.  1.
          1   -1    0    0  501    0  0.00000000000E+00 -0.00000000000E+00 -0.13446973579E+04  0.13446973579E+04  0.00000000000E+00 0. -1.
         23    2    1    2    0    0 -0.26034616375E+03 -0.26828898975E+03  0.21843181963E+03  0.44253514905E+03  0.91464699851E+02 0.  0.
         11    1    3    3    0    0 -0.22279410378E+03 -0.24101027721E+03  0.15251568266E+03  0.36191739370E+03  0.00000000000E+00 0. -1.
        -11    1    3    3    0    0 -0.37552059975E+02 -0.27278712533E+02  0.65916136971E+02  0.80617755358E+02  0.00000000000E+00 0.  1.
         22    1    1    2    0    0  0.26034616375E+03  0.26828898975E+03 -0.12043003406E+04  0.12609910457E+04  0.00000000000E+00 0. -1.
<mgrwt>
<rscale>  0 0.13892677E+04</rscale>
<asrwt>0</asrwt>
<pdfrwt beam="1">  1        1 0.20687652E+00 0.13892677E+04</pdfrwt>
<pdfrwt beam="2">  1       -1 0.55204435E-01 0.13892677E+04</pdfrwt>
<totfact> 0.27207527E+01</totfact>
</mgrwt>
</event>
<event>
 6    1  0.9906445E-006  0.1828599E+04  0.7818608E-02  0.8691237E-01
         -2   -1    0    0    0  501 -0.00000000000E+00  0.00000000000E+00  0.37785571383E+03  0.37785571383E+03  0.00000000000E+00 0.  1.
          2   -1    0    0  501    0  0.00000000000E+00 -0.00000000000E+00 -0.22123361658E+04  0.22123361658E+04  0.00000000000E+00 0. -1.
         23    2    1    2    0    0  0.26008540172E+03 -0.77089278778E+03 -0.15031724948E+04  0.17117358085E+04  0.92692083925E+02 0.  0.
         11    1    3    3    0    0  0.50172534597E+02 -0.25605496650E+03 -0.42652129309E+03  0.50000184255E+03  0.00000000000E+00 0.  1.
        -11    1    3    3    0    0  0.20991286712E+03 -0.51483782128E+03 -0.10766512017E+04  0.12117339659E+04  0.00000000000E+00 0. -1.
         22    1    1    2    0    0 -0.26008540172E+03  0.77089278778E+03 -0.33130795712E+03  0.87845607112E+03  0.00000000000E+00 0.  1.
<mgrwt>
<rscale>  0 0.18285993E+04</rscale>
<asrwt>0</asrwt>
<pdfrwt beam="1">  1        2 0.34035941E+00 0.18285993E+04</pdfrwt>
<pdfrwt beam="2">  1       -2 0.58131649E-01 0.18285993E+04</pdfrwt>
<totfact> 0.13256564E+01</totfact>
</mgrwt>
</event>
<event>
 6    1  0.9906445E-006  0.2554310E+04  0.7818608E-02  0.8383889E-01
         -2   -1    0    0    0  501 -0.00000000000E+00  0.00000000000E+00  0.55287829535E+03  0.55287829535E+03  0.00000000000E+00 0.  1.
          2   -1    0    0  501    0  0.00000000000E+00 -0.00000000000E+00 -0.29502415639E+04  0.29502415639E+04  0.00000000000E+00 0. -1.
         23    2    1    2    0    0 -0.31999952824E+03  0.12346824533E+04 -0.12049511934E+04  0.17570708865E+04  0.92467632245E+02 0.  0.
         13    1    3    3    0    0 -0.32172687892E+02  0.26458968497E+03 -0.23371570991E+03  0.35449374648E+03  0.00000000000E+00 0.  1.
        -13    1    3    3    0    0 -0.28782684035E+03  0.97009276830E+03 -0.97123548352E+03  0.14025771400E+04  0.00000000000E+00 0. -1.
         22    1    1    2    0    0  0.31999952824E+03 -0.12346824533E+04 -0.11924120751E+04  0.17460489728E+04  0.00000000000E+00 0.  1.
<mgrwt>
<rscale>  0 0.25543097E+04</rscale>
<asrwt>0</asrwt>
<pdfrwt beam="1">  1        2 0.45388332E+00 0.25543097E+04</pdfrwt>
<pdfrwt beam="2">  1       -2 0.85058198E-01 0.25543097E+04</pdfrwt>
<totfact> 0.19977327E+00</totfact>
</mgrwt>
</event>
<event>
 6    1  0.9906445E-006  0.1982224E+04  0.7818608E-02  0.8614977E-01
         -1   -1    0    0    0  501 -0.00000000000E+00  0.00000000000E+00  0.18174744804E+04  0.18174744804E+04  0.00000000000E+00 0.  1.
          1   -1    0    0  501    0  0.00000000000E+00 -0.00000000000E+00 -0.54047711667E+03  0.54047711667E+03  0.00000000000E+00 0. -1.
         23    2    1    2    0    0  0.41909374510E+03 -0.54911841002E+03  0.14818340617E+04  0.16374457551E+04  0.90696301321E+02 0.  0.
         11    1    3    3    0    0  0.25432652849E+03 -0.40266314418E+03  0.10131625175E+04  0.11195168054E+04  0.00000000000E+00 0. -1.
        -11    1    3    3    0    0  0.16476721661E+03 -0.14645526584E+03  0.46867154427E+03  0.51792894973E+03  0.00000000000E+00 0.  1.
         22    1    1    2    0    0 -0.41909374510E+03  0.54911841002E+03 -0.20483669800E+03  0.72050584193E+03  0.00000000000E+00 0. -1.
<mgrwt>
<rscale>  0 0.19822244E+04</rscale>
<asrwt>0</asrwt>
<pdfrwt beam="1">  1        1 0.83150326E-01 0.19822244E+04</pdfrwt>
<pdfrwt beam="2">  1       -1 0.27961146E+00 0.19822244E+04</pdfrwt>
<totfact> 0.16542202E+00</totfact>
</mgrwt>
</event>
<event>
 6    1  0.9906445E-006  0.1320652E+04  0.7818608E-02  0.9013346E-01
         -2   -1    0    0    0  501 -0.00000000000E+00  0.00000000000E+00  0.26647918768E+03  0.26647918768E+03  0.00000000000E+00 0.  1.
          2   -1    0    0  501    0  0.00000000000E+00 -0.00000000000E+00 -0.16362644759E+04  0.16362644759E+04  0.00000000000E+00 0. -1.
         23    2    1    2    0    0 -0.13663030484E+03  0.61411765482E+03 -0.96192265670E+03  0.11529701909E+04  0.90756429432E+02 0.  0.
         11    1    3    3    0    0 -0.17426514038E+02  0.18439178983E+03 -0.22275803577E+03  0.28969839152E+03  0.00000000000E+00 0.  1.
        -11    1    3    3    0    0 -0.11920379080E+03  0.42972586499E+03 -0.73916462093E+03  0.86327179939E+03  0.00000000000E+00 0. -1.
         22    1    1    2    0    0  0.13663030484E+03 -0.61411765482E+03 -0.40786263154E+03  0.74977347271E+03  0.00000000000E+00 0. -1.
<mgrwt>
<rscale>  0 0.13206520E+04</rscale>
<asrwt>0</asrwt>
<pdfrwt beam="1">  1        2 0.25173300E+00 0.13206520E+04</pdfrwt>
<pdfrwt beam="2">  1       -2 0.40996797E-01 0.13206520E+04</pdfrwt>
<totfact> 0.58687199E+01</totfact>
</mgrwt>
</event>
<event>
 6    1  0.9906445E-006  0.1974232E+04  0.7818608E-02  0.8618764E-01
          1   -1    0    0  501    0  0.00000000000E+00  0.00000000000E+00  0.11349987810E+04  0.11349987810E+04  0.00000000000E+00 0. -1.
         -1   -1    0    0    0  501 -0.00000000000E+00 -0.00000000000E+00 -0.85850101510E+03  0.85850101510E+03  0.00000000000E+00 0.  1.
         23    2    1    2    0    0  0.12923258111E+02 -0.46808799649E+03  0.10135898731E+04  0.11202425846E+04  0.91135254407E+02 0.  0.
         11    1    3    3    0    0  0.46640644139E+02 -0.37572971880E+03  0.81459002356E+03  0.89827895320E+03  0.00000000000E+00 0.  1.
        -11    1    3    3    0    0 -0.33717386028E+02 -0.92358277682E+02  0.19899984949E+03  0.22196363142E+03  0.00000000000E+00 0. -1.
         22    1    1    2    0    0 -0.12923258111E+02  0.46808799649E+03 -0.73709210712E+03  0.87325721150E+03  0.00000000000E+00 0.  1.
<mgrwt>
<rscale>  0 0.19742316E+04</rscale>
<asrwt>0</asrwt>
<pdfrwt beam="1">  1        1 0.17461520E+00 0.19742316E+04</pdfrwt>
<pdfrwt beam="2">  1       -1 0.13207708E+00 0.19742316E+04</pdfrwt>
<totfact> 0.54060982E+00</totfact>
</mgrwt>
</event>
<event>
 6    1  0.9906445E-006  0.2327530E+04  0.7818608E-02  0.8467145E-01
         -2   -1    0    0    0  501 -0.00000000000E+00  0.00000000000E+00  0.86665068814E+03  0.86665068814E+03  0.00000000000E+00 0.  1.
          2   -1    0    0  501    0  0.00000000000E+00 -0.00000000000E+00 -0.15627388372E+04  0.15627388372E+04  0.00000000000E+00 0. -1.
         23    2    1    2    0    0 -0.58414277610E+03 -0.72839649042E+03 -0.10708670710E+04  0.14232864140E+04  0.84874628148E+02 0.  0.
         13    1    3    3    0    0 -0.21735391178E+03 -0.24812210256E+03 -0.43688280309E+03  0.54742477508E+03  0.00000000000E+00 0.  1.
        -13    1    3    3    0    0 -0.36678886432E+03 -0.48027438786E+03 -0.63398426791E+03  0.87586163895E+03  0.00000000000E+00 0. -1.
         22    1    1    2    0    0  0.58414277610E+03  0.72839649042E+03  0.37477892199E+03  0.10061031113E+04  0.00000000000E+00 0.  1.
<mgrwt>
<rscale>  0 0.23275298E+04</rscale>
<asrwt>0</asrwt>
<pdfrwt beam="1">  1        2 0.24042135E+00 0.23275298E+04</pdfrwt>
<pdfrwt beam="2">  1       -2 0.13333088E+00 0.23275298E+04</pdfrwt>
<totfact> 0.43114714E+00</totfact>
</mgrwt>
</event>
<event>
 6    1  0.1002003E-005  0.3335960E+04  0.7818608E-02  0.8153805E-01
          2   -1    0    0  501    0  0.00000000000E+00  0.00000000000E+00  0.11919339722E+04  0.11919339722E+04  0.00000000000E+00 0. -1.
         -2   -1    0    0    0  501 -0.00000000000E+00 -0.00000000000E+00 -0.23341539443E+04  0.23341539443E+04  0.00000000000E+00 0.  1.
         23    2    1    2    0    0 -0.17042044634E+03  0.44478526251E+03 -0.22597661736E+04  0.23112683534E+04  0.92418524005E+02 0.  0.
         13    1    3    3    0    0 -0.11668000909E+03  0.32874990199E+03 -0.14439260881E+04  0.14854673576E+04  0.00000000000E+00 0. -1.
        -13    1    3    3    0    0 -0.53740437256E+02  0.11603536052E+03 -0.81584008548E+03  0.82580099574E+03  0.00000000000E+00 0.  1.
         22    1    1    2    0    0  0.17042044634E+03 -0.44478526251E+03  0.11175462015E+04  0.12148195631E+04  0.00000000000E+00 0. -1.
<mgrwt>
<rscale>  0 0.33359601E+04</rscale>
<asrwt>0</asrwt>
<pdfrwt beam="1">  1        2 0.18337446E+00 0.33359601E+04</pdfrwt>
<pdfrwt beam="2">  1       -2 0.35910061E+00 0.33359601E+04</pdfrwt>
<totfact> 0.21721776E-01</totfact>
</mgrwt>
</event>
<event>
 6    1  0.9906445E-006  0.1745502E+04  0.7818608E-02  0.8735830E-01
         -2   -1    0    0    0  501 -0.00000000000E+00  0.00000000000E+00  0.57126556631E+03  0.57126556631E+03  0.00000000000E+00 0.  1.
          2   -1    0    0  501    0  0.00000000000E+00 -0.00000000000E+00 -0.13333458483E+04  0.13333458483E+04  0.00000000000E+00 0. -1.
         23    2    1    2    0    0  0.44509868174E+03 -0.56654251057E+03  0.15075465622E+03  0.74170519431E+03  0.91194167204E+02 0.  0.
         11    1    3    3    0    0  0.16342003779E+03 -0.27059513507E+03  0.89754030141E+02  0.32860861493E+03  0.00000000000E+00 0. -1.
        -11    1    3    3    0    0  0.28167864395E+03 -0.29594737549E+03  0.61000626078E+02  0.41309657939E+03  0.00000000000E+00 0.  1.
         22    1    1    2    0    0 -0.44509868174E+03  0.56654251057E+03 -0.91283493818E+03  0.11629062203E+04  0.00000000000E+00 0. -1.
<mgrwt>
<rscale>  0 0.17455023E+04</rscale>
<asrwt>0</asrwt>
<pdfrwt beam="1">  1        2 0.20513013E+00 0.17455023E+04</pdfrwt>
<pdfrwt beam="2">  1       -2 0.87887011E-01 0.17455023E+04</pdfrwt>
<totfact> 0.16733682E+01</totfact>
</mgrwt>
</event>
<event>
 6    1  0.9906445E-006  0.2240952E+04  0.7818608E-02  0.8501574E-01
          2   -1    0    0  501    0  0.00000000000E+00  0.00000000000E+00  0.22714343974E+04  0.22714343974E+04  0.00000000000E+00 0. -1.
         -2   -1    0    0    0  501 -0.00000000000E+00 -0.00000000000E+00 -0.55271983006E+03  0.55271983006E+03  0.00000000000E+00 0.  1.
         23    2    1    2    0    0 -0.69537203007E+03 -0.14761255053E+03 -0.22788207624E+03  0.75181974238E+03  0.89280227857E+02 0.  0.
         11    1    3    3    0    0 -0.54424600873E+03 -0.14969121233E+03 -0.16460162528E+03  0.58796672705E+03  0.00000000000E+00 0. -1.
        -11    1    3    3    0    0 -0.15112602133E+03  0.20786618030E+01 -0.63280450961E+02  0.16385301533E+03  0.00000000000E+00 0.  1.
         22    1    1    2    0    0  0.69537203007E+03  0.14761255053E+03  0.19465966436E+04  0.20723344851E+04  0.00000000000E+00 0. -1.
<mgrwt>
<rscale>  0 0.22409523E+04</rscale>
<asrwt>0</asrwt>
<pdfrwt beam="1">  1        2 0.34945144E+00 0.22409523E+04</pdfrwt>
<pdfrwt beam="2">  1       -2 0.85033821E-01 0.22409523E+04</pdfrwt>
<totfact> 0.51601437E+00</totfact>
</mgrwt>
</event>
<event>
 6    1  0.9906445E-006  0.3473842E+04  0.7818608E-02  0.8120017E-01
         -1   -1    0    0    0  501 -0.00000000000E+00  0.00000000000E+00  0.21915417851E+04  0.21915417851E+04  0.00000000000E+00 0.  1.
          1   -1    0    0  501    0  0.00000000000E+00 -0.00000000000E+00 -0.13766079070E+04  0.13766079070E+04  0.00000000000E+00 0. -1.
         23    2    1    2    0    0  0.14287073045E+03  0.11641783365E+04  0.17219477622E+04  0.20854503190E+04  0.90970832841E+02 0.  0.
         11    1    3    3    0    0  0.71557271730E+02  0.81011659357E+03  0.12472775779E+04  0.14889965395E+04  0.00000000000E+00 0.  1.
        -11    1    3    3    0    0  0.71313458716E+02  0.35406174297E+03  0.47467018434E+03  0.59645377955E+03  0.00000000000E+00 0. -1.
         22    1    1    2    0    0 -0.14287073045E+03 -0.11641783365E+04 -0.90701388410E+03  0.14826993731E+04  0.00000000000E+00 0. -1.
<mgrwt>
<rscale>  0 0.34738415E+04</rscale>
<asrwt>0</asrwt>
<pdfrwt beam="1">  1        1 0.21178583E+00 0.34738415E+04</pdfrwt>
<pdfrwt beam="2">  1       -1 0.33716027E+00 0.34738415E+04</pdfrwt>
<totfact> 0.12320918E-01</totfact>
</mgrwt>
</event>
<event>
 6    1  0.9906445E-006  0.1718843E+04  0.7818608E-02  0.8750690E-01
         -2   -1    0    0    0  501 -0.00000000000E+00  0.00000000000E+00  0.22851306265E+03  0.22851306265E+03  0.00000000000E+00 0.  1.
          2   -1    0    0  501    0  0.00000000000E+00 -0.00000000000E+00 -0.32322247434E+04  0.32322247434E+04  0.00000000000E+00 0. -1.
         23    2    1    2    0    0  0.62271870534E+03  0.44220587333E+03 -0.72385583039E+03  0.10563527872E+04  0.92678624823E+02 0.  0.
         11    1    3    3    0    0  0.43154681238E+03  0.30542156909E+03 -0.55784945914E+03  0.76857726040E+03  0.00000000000E+00 0.  1.
        -11    1    3    3    0    0  0.19117189296E+03  0.13678430424E+03 -0.16600637126E+03  0.28777552683E+03  0.00000000000E+00 0. -1.
         22    1    1    2    0    0 -0.62271870534E+03 -0.44220587333E+03 -0.22798558504E+04  0.24043850189E+04  0.00000000000E+00 0. -1.
<mgrwt>
<rscale>  0 0.17188433E+04</rscale>
<asrwt>0</asrwt>
<pdfrwt beam="1">  1        2 0.49726534E+00 0.17188433E+04</pdfrwt>
<pdfrwt beam="2">  1       -2 0.35155856E-01 0.17188433E+04</pdfrwt>
<totfact> 0.89747643E+00</totfact>
</mgrwt>
</event>
<event>
 6    1  0.9906445E-006  0.1385966E+04  0.7818608E-02  0.8964040E-01
          2   -1    0    0  501    0  0.00000000000E+00  0.00000000000E+00  0.13476032121E+04  0.13476032121E+04  0.00000000000E+00 0. -1.
         -2   -1    0    0    0  501 -0.00000000000E+00 -0.00000000000E+00 -0.35635512312E+03  0.35635512312E+03  0.00000000000E+00 0.  1.
         23    2    1    2    0    0 -0.42187219216E+03 -0.26319326218E+03  0.10857295722E+04  0.11978223946E+04  0.93396708696E+02 0.  0.
         11    1    3    3    0    0 -0.24337620508E+03 -0.13111410106E+03  0.70210625756E+03  0.75457013034E+03  0.00000000000E+00 0. -1.
        -11    1    3    3    0    0 -0.17849598708E+03 -0.13207916112E+03  0.38362331467E+03  0.44325226425E+03  0.00000000000E+00 0.  1.
         22    1    1    2    0    0  0.42187219216E+03  0.26319326218E+03 -0.94481483206E+02  0.50613594067E+03  0.00000000000E+00 0.  1.
<mgrwt>
<rscale>  0 0.13859658E+04</rscale>
<asrwt>0</asrwt>
<pdfrwt beam="1">  1        2 0.20732357E+00 0.13859658E+04</pdfrwt>
<pdfrwt beam="2">  1       -2 0.54823866E-01 0.13859658E+04</pdfrwt>
<totfact> 0.47291528E+01</totfact>
</mgrwt>
</event>
<event>
 6    1  0.9906445E-006  0.2379144E+04  0.7818608E-02  0.8447353E-01
         -2   -1    0    0    0  501 -0.00000000000E+00  0.00000000000E+00  0.10481205029E+04  0.10481205029E+04  0.00000000000E+00 0.  1.
          2   -1    0    0  501    0  0.00000000000E+00 -0.00000000000E+00 -0.13501130526E+04  0.13501130526E+04  0.00000000000E+00 0. -1.
         23    2    1    2    0    0  0.11977208741E+03  0.28943770619E+03 -0.13061705308E+04  0.13463338661E+04  0.91727230199E+02 0.  0.
         13    1    3    3    0    0  0.91063540299E+02  0.27382674121E+03 -0.10831349564E+04  0.11209170292E+04  0.00000000000E+00 0. -1.
        -13    1    3    3    0    0  0.28708547109E+02  0.15610964977E+02 -0.22303557443E+03  0.22541683691E+03  0.00000000000E+00 0.  1.
         22    1    1    2    0    0 -0.11977208741E+03 -0.28943770619E+03  0.10041779811E+04  0.10518996893E+04  0.00000000000E+00 0.  1.
<mgrwt>
<rscale>  0 0.23791437E+04</rscale>
<asrwt>0</asrwt>
<pdfrwt beam="1">  1        2 0.20770970E+00 0.23791437E+04</pdfrwt>
<pdfrwt beam="2">  1       -2 0.16124931E+00 0.23791437E+04</pdfrwt>
<totfact> 0.34344665E+00</totfact>
</mgrwt>
</event>
<event>
 6    1  0.9906445E-006  0.8201200E+03  0.7818608E-02  0.9531342E-01
          2   -1    0    0  501    0  0.00000000000E+00  0.00000000000E+00  0.61116920268E+03  0.61116920268E+03  0.00000000000E+00 0. -1.
         -2   -1    0    0    0  501 -0.00000000000E+00 -0.00000000000E+00 -0.27512711562E+03  0.27512711562E+03  0.00000000000E+00 0.  1.
         23    2    1    2    0    0 -0.36374778717E+03 -0.17344788106E+03  0.20973383930E+03  0.46398080406E+03  0.94304204928E+02 0.  0.
         11    1    3    3    0    0 -0.33765140728E+02 -0.52482858908E+02  0.32781694807E+02  0.70492373502E+02  0.00000000000E+00 0.  1.
        -11    1    3    3    0    0 -0.32998264644E+03 -0.12096502215E+03  0.17695214450E+03  0.39348843056E+03  0.00000000000E+00 0. -1.
         22    1    1    2    0    0  0.36374778717E+03  0.17344788106E+03  0.12630824776E+03  0.42231551424E+03  0.00000000000E+00 0.  1.
<mgrwt>
<rscale>  0 0.82012004E+03</rscale>
<asrwt>0</asrwt>
<pdfrwt beam="1">  1        2 0.94026031E-01 0.82012004E+03</pdfrwt>
<pdfrwt beam="2">  1       -2 0.42327249E-01 0.82012004E+03</pdfrwt>
<totfact> 0.25802049E+02</totfact>
</mgrwt>
</event>
<event>
 6    1  0.9906445E-006  0.4198815E+04  0.7818608E-02  0.7965598E-01
          1   -1    0    0  501    0  0.00000000000E+00  0.00000000000E+00  0.20445996015E+04  0.20445996015E+04  0.00000000000E+00 0. -1.
         -1   -1    0    0    0  501 -0.00000000000E+00 -0.00000000000E+00 -0.21556841666E+04  0.21556841666E+04  0.00000000000E+00 0.  1.
         23    2    1    2    0    0  0.19057461072E+04  0.45290334313E+03 -0.80830715994E+03  0.21210750220E+04  0.92785346344E+02 0.  0.
         11    1    3    3    0    0  0.13044323716E+04  0.35411995282E+03 -0.55620064800E+03  0.14616100416E+04  0.00000000000E+00 0. -1.
        -11    1    3    3    0    0  0.60131373568E+03  0.98783390302E+02 -0.25210651194E+03  0.65946498033E+03  0.00000000000E+00 0.  1.
         22    1    1    2    0    0 -0.19057461072E+04 -0.45290334313E+03  0.69722259483E+03  0.20792087462E+04  0.00000000000E+00 0. -1.
<mgrwt>
<rscale>  0 0.41988146E+04</rscale>
<asrwt>0</asrwt>
<pdfrwt beam="1">  1        1 0.31455378E+00 0.41988146E+04</pdfrwt>
<pdfrwt beam="2">  1       -1 0.33164372E+00 0.41988146E+04</pdfrwt>
<totfact> 0.43943596E-02</totfact>
</mgrwt>
</event>
<event>
 6    1  0.9906445E-006  0.1879083E+04  0.7818608E-02  0.8665339E-01
          1   -1    0    0  501    0  0.00000000000E+00  0.00000000000E+00  0.23624781756E+04  0.23624781756E+04  0.00000000000E+00 0. -1.
         -1   -1    0    0    0  501 -0.00000000000E+00 -0.00000000000E+00 -0.37364917085E+03  0.37364917085E+03  0.00000000000E+00 0.  1.
         23    2    1    2    0    0 -0.12272393523E+03 -0.83509816323E+03  0.15904223847E+04  0.18027582119E+04  0.89686688657E+02 0.  0.
         13    1    3    3    0    0 -0.20539737392E+02 -0.40286718958E+03  0.70760168423E+03  0.81450843874E+03  0.00000000000E+00 0.  1.
        -13    1    3    3    0    0 -0.10218419784E+03 -0.43223097365E+03  0.88282070050E+03  0.98824977313E+03  0.00000000000E+00 0. -1.
         22    1    1    2    0    0  0.12272393523E+03  0.83509816323E+03  0.39840662004E+03  0.93336913459E+03  0.00000000000E+00 0.  1.
<mgrwt>
<rscale>  0 0.18790828E+04</rscale>
<asrwt>0</asrwt>
<pdfrwt beam="1">  1        1 0.36345817E+00 0.18790828E+04</pdfrwt>
<pdfrwt beam="2">  1       -1 0.57484489E-01 0.18790828E+04</pdfrwt>
<totfact> 0.48460683E+00</totfact>
</mgrwt>
</event>
<event>
 6    1  0.9906445E-006  0.1903896E+04  0.7818608E-02  0.8652920E-01
         -1   -1    0    0    0  501 -0.00000000000E+00  0.00000000000E+00  0.57252703798E+03  0.57252703798E+03  0.00000000000E+00 0.  1.
          1   -1    0    0  501    0  0.00000000000E+00 -0.00000000000E+00 -0.15828155902E+04  0.15828155902E+04  0.00000000000E+00 0. -1.
         23    2    1    2    0    0 -0.53201178540E+01  0.94931789820E+03 -0.47440481088E+03  0.10652031143E+04  0.91460235008E+02 0.  0.
         13    1    3    3    0    0  0.27192384136E+02  0.75298227791E+03 -0.35278078367E+03  0.83197116412E+03  0.00000000000E+00 0.  1.
        -13    1    3    3    0    0 -0.32512501990E+02  0.19633562029E+03 -0.12162402721E+03  0.23323195016E+03  0.00000000000E+00 0. -1.
         22    1    1    2    0    0  0.53201178540E+01 -0.94931789820E+03 -0.53588374132E+03  0.10901395139E+04  0.00000000000E+00 0. -1.
<mgrwt>
<rscale>  0 0.19038957E+04</rscale>
<asrwt>0</asrwt>
<pdfrwt beam="1">  1        1 0.24351009E+00 0.19038957E+04</pdfrwt>
<pdfrwt beam="2">  1       -1 0.88081083E-01 0.19038957E+04</pdfrwt>
<totfact> 0.67928459E+00</totfact>
</mgrwt>
</event>
<event>
 6    1  0.9906445E-006  0.3977769E+04  0.7818608E-02  0.8009046E-01
         -2   -1    0    0    0  501 -0.00000000000E+00  0.00000000000E+00  0.95981729746E+03  0.95981729746E+03  0.00000000000E+00 0.  1.
          2   -1    0    0  501    0  0.00000000000E+00 -0.00000000000E+00 -0.41212644938E+04  0.41212644938E+04  0.00000000000E+00 0. -1.
         23    2    1    2    0    0  0.16423392224E+04  0.19121707330E+03 -0.29910230235E+04  0.34188885145E+04  0.93476503224E+02 0.  0.
         11    1    3    3    0    0  0.37812689193E+03  0.48496740443E+02 -0.77296047257E+03  0.86185832501E+03  0.00000000000E+00 0.  1.
        -11    1    3    3    0    0  0.12642123305E+04  0.14272033286E+03 -0.22180625509E+04  0.25570301894E+04  0.00000000000E+00 0. -1.
         22    1    1    2    0    0 -0.16423392224E+04 -0.19121707330E+03 -0.17042417282E+03  0.16621932768E+04  0.00000000000E+00 0.  1.
<mgrwt>
<rscale>  0 0.39777687E+04</rscale>
<asrwt>0</asrwt>
<pdfrwt beam="1">  1        2 0.63404069E+00 0.39777687E+04</pdfrwt>
<pdfrwt beam="2">  1       -2 0.14766420E+00 0.39777687E+04</pdfrwt>
<totfact> 0.66747375E-02</totfact>
</mgrwt>
</event>
<event>
 6    1  0.9906445E-006  0.2639684E+04  0.7818608E-02  0.8354845E-01
          2   -1    0    0  501    0  0.00000000000E+00  0.00000000000E+00  0.28917286948E+04  0.28917286948E+04  0.00000000000E+00 0. -1.
         -2   -1    0    0    0  501 -0.00000000000E+00 -0.00000000000E+00 -0.60240200786E+03  0.60240200786E+03  0.00000000000E+00 0.  1.
         23    2    1    2    0    0 -0.51284767181E+03 -0.10071916144E+04  0.20441879682E+04  0.23376097672E+04  0.90924648678E+02 0.  0.
         11    1    3    3    0    0 -0.33265847772E+03 -0.66543823588E+03  0.14316367185E+04  0.16133980917E+04  0.00000000000E+00 0.  1.
        -11    1    3    3    0    0 -0.18018919409E+03 -0.34175337854E+03  0.61255124972E+03  0.72421167551E+03  0.00000000000E+00 0. -1.
         22    1    1    2    0    0  0.51284767181E+03  0.10071916144E+04  0.24513871870E+03  0.11565209354E+04  0.00000000000E+00 0.  1.
<mgrwt>
<rscale>  0 0.26396842E+04</rscale>
<asrwt>0</asrwt>
<pdfrwt beam="1">  1        2 0.44488133E+00 0.26396842E+04</pdfrwt>
<pdfrwt beam="2">  1       -2 0.92677233E-01 0.26396842E+04</pdfrwt>
<totfact> 0.17692324E+00</totfact>
</mgrwt>
</event>
<event>
 6    1  0.9906445E-006  0.1627325E+04  0.7818608E-02  0.8803935E-01
         -1   -1    0    0    0  501 -0.00000000000E+00  0.00000000000E+00  0.23561114728E+03  0.23561114728E+03  0.00000000000E+00 0.  1.
          1   -1    0    0  501    0  0.00000000000E+00 -0.00000000000E+00 -0.28099138073E+04  0.28099138073E+04  0.00000000000E+00 0. -1.
         23    2    1    2    0    0 -0.31031913579E+03 -0.22714850487E+03 -0.26277350271E+04  0.26572603191E+04  0.90258636921E+02 0.  0.
         13    1    3    3    0    0 -0.56080799480E+02 -0.71664353711E+02 -0.83237861940E+03  0.83733804506E+03  0.00000000000E+00 0.  1.
        -13    1    3    3    0    0 -0.25423833631E+03 -0.15548415116E+03 -0.17953564077E+04  0.18199222740E+04  0.00000000000E+00 0. -1.
         22    1    1    2    0    0  0.31031913579E+03  0.22714850487E+03  0.53432367082E+02  0.38826463547E+03  0.00000000000E+00 0.  1.
<mgrwt>
<rscale>  0 0.16273254E+04</rscale>
<asrwt>0</asrwt>
<pdfrwt beam="1">  1        1 0.43229443E+00 0.16273254E+04</pdfrwt>
<pdfrwt beam="2">  1       -1 0.36247869E-01 0.16273254E+04</pdfrwt>
<totfact> 0.57388587E+00</totfact>
</mgrwt>
</event>
<event>
 6    1  0.9906445E-006  0.1485784E+04  0.7818608E-02  0.8893962E-01
          2   -1    0    0  501    0  0.00000000000E+00  0.00000000000E+00  0.46854135239E+03  0.46854135239E+03  0.00000000000E+00 0. -1.
         -2   -1    0    0    0  501 -0.00000000000E+00 -0.00000000000E+00 -0.11778858602E+04  0.11778858602E+04  0.00000000000E+00 0.  1.
         23    2    1    2    0    0 -0.15567256284E+03 -0.52425597383E+03  0.19648086093E+03  0.58831669305E+03  0.91834251189E+02 0.  0.
         11    1    3    3    0    0 -0.12175441587E+03 -0.32788837586E+03  0.84867510096E+02  0.35991307156E+03  0.00000000000E+00 0. -1.
        -11    1    3    3    0    0 -0.33918146967E+02 -0.19636759797E+03  0.11161335083E+03  0.22840362149E+03  0.00000000000E+00 0.  1.
         22    1    1    2    0    0  0.15567256284E+03  0.52425597383E+03 -0.90582536868E+03  0.10581105195E+04  0.00000000000E+00 0.  1.
<mgrwt>
<rscale>  0 0.14857836E+04</rscale>
<asrwt>0</asrwt>
<pdfrwt beam="1">  1        2 0.72083285E-01 0.14857836E+04</pdfrwt>
<pdfrwt beam="2">  1       -2 0.18121321E+00 0.14857836E+04</pdfrwt>
<totfact> 0.11409377E+01</totfact>
</mgrwt>
</event>
<event>
 6    1  0.9906445E-006  0.2200584E+04  0.7818608E-02  0.8518185E-01
         -2   -1    0    0    0  501 -0.00000000000E+00  0.00000000000E+00  0.70230334131E+03  0.70230334131E+03  0.00000000000E+00 0. -1.
          2   -1    0    0  501    0  0.00000000000E+00 -0.00000000000E+00 -0.17238163837E+04  0.17238163837E+04  0.00000000000E+00 0.  1.
         23    2    1    2    0    0 -0.14902238231E+03 -0.10874035056E+04 -0.55335832204E+03  0.12328792226E+04  0.95559878698E+02 0.  0.
         11    1    3    3    0    0 -0.35385485205E+02 -0.58019849662E+03 -0.31347685766E+03  0.66041666267E+03  0.00000000000E+00 0.  1.
        -11    1    3    3    0    0 -0.11363689710E+03 -0.50720500902E+03 -0.23988146439E+03  0.57246255992E+03  0.00000000000E+00 0. -1.
         22    1    1    2    0    0  0.14902238231E+03  0.10874035056E+04 -0.46815472038E+03  0.11932405025E+04  0.00000000000E+00 0. -1.
<mgrwt>
<rscale>  0 0.22005836E+04</rscale>
<asrwt>0</asrwt>
<pdfrwt beam="1">  1        2 0.26520252E+00 0.22005836E+04</pdfrwt>
<pdfrwt beam="2">  1       -2 0.10804667E+00 0.22005836E+04</pdfrwt>
<totfact> 0.59656686E+00</totfact>
</mgrwt>
</event>
<event>
 6    1  0.9906445E-006  0.2384776E+04  0.7818608E-02  0.8445225E-01
         -2   -1    0    0    0  501 -0.00000000000E+00  0.00000000000E+00  0.10618087089E+04  0.10618087089E+04  0.00000000000E+00 0.  1.
          2   -1    0    0  501    0  0.00000000000E+00 -0.00000000000E+00 -0.13390258605E+04  0.13390258605E+04  0.00000000000E+00 0. -1.
         23    2    1    2    0    0  0.83145782966E+03 -0.52885636996E+03  0.53394276476E+03  0.11245150199E+04  0.91803983355E+02 0.  0.
         11    1    3    3    0    0  0.63563182279E+02 -0.72287311056E+02  0.54682509632E+02  0.11070641508E+03  0.00000000000E+00 0.  1.
        -11    1    3    3    0    0  0.76789464738E+03 -0.45656905890E+03  0.47926025512E+03  0.10138086048E+04  0.00000000000E+00 0. -1.
         22    1    1    2    0    0 -0.83145782966E+03  0.52885636996E+03 -0.81115991639E+03  0.12763195495E+04  0.00000000000E+00 0. -1.
<mgrwt>
<rscale>  0 0.23847761E+04</rscale>
<asrwt>0</asrwt>
<pdfrwt beam="1">  1        2 0.20600398E+00 0.23847761E+04</pdfrwt>
<pdfrwt beam="2">  1       -2 0.16335519E+00 0.23847761E+04</pdfrwt>
<totfact> 0.33622713E+00</totfact>
</mgrwt>
</event>
<event>
 6    1  0.9906445E-006  0.2033945E+04  0.7818608E-02  0.8590913E-01
          2   -1    0    0  501    0  0.00000000000E+00  0.00000000000E+00  0.17971655483E+04  0.17971655483E+04  0.00000000000E+00 0. -1.
         -2   -1    0    0    0  501 -0.00000000000E+00 -0.00000000000E+00 -0.57548015141E+03  0.57548015141E+03  0.00000000000E+00 0.  1.
         23    2    1    2    0    0  0.72509490953E+03  0.38615511320E+03 -0.82970348447E+02  0.83089182404E+03  0.92837197628E+02 0.  0.
         13    1    3    3    0    0  0.15882978762E+03  0.42755109065E+02 -0.17156199054E+02  0.16537604407E+03  0.00000000000E+00 0.  1.
        -13    1    3    3    0    0  0.56626512191E+03  0.34340000414E+03 -0.65814149393E+02  0.66551577997E+03  0.00000000000E+00 0. -1.
         22    1    1    2    0    0 -0.72509490953E+03 -0.38615511320E+03  0.13046557454E+04  0.15417538757E+04  0.00000000000E+00 0. -1.
<mgrwt>
<rscale>  0 0.20339450E+04</rscale>
<asrwt>0</asrwt>
<pdfrwt beam="1">  1        2 0.27648700E+00 0.20339450E+04</pdfrwt>
<pdfrwt beam="2">  1       -2 0.88535409E-01 0.20339450E+04</pdfrwt>
<totfact> 0.88060240E+00</totfact>
</mgrwt>
</event>
<event>
 6    1  0.9906445E-006  0.2308082E+04  0.7818608E-02  0.8474741E-01
          2   -1    0    0  501    0  0.00000000000E+00  0.00000000000E+00  0.13688012895E+04  0.13688012895E+04  0.00000000000E+00 0. -1.
         -2   -1    0    0    0  501 -0.00000000000E+00 -0.00000000000E+00 -0.97297593785E+03  0.97297593785E+03  0.00000000000E+00 0.  1.
         23    2    1    2    0    0 -0.22555525616E+03 -0.67345228135E+03  0.11189245026E+04  0.13282262761E+04  0.88203453587E+02 0.  0.
         11    1    3    3    0    0 -0.16692119895E+03 -0.36037584084E+03  0.62142603445E+03  0.73749830482E+03  0.00000000000E+00 0.  1.
        -11    1    3    3    0    0 -0.58634057214E+02 -0.31307644051E+03  0.49749846811E+03  0.59072797127E+03  0.00000000000E+00 0. -1.
         22    1    1    2    0    0  0.22555525616E+03  0.67345228135E+03 -0.72309915089E+03  0.10135509513E+04  0.00000000000E+00 0.  1.
<mgrwt>
<rscale>  0 0.23080821E+04</rscale>
<asrwt>0</asrwt>
<pdfrwt beam="1">  1        2 0.21058481E+00 0.23080821E+04</pdfrwt>
<pdfrwt beam="2">  1       -2 0.14968861E+00 0.23080821E+04</pdfrwt>
<totfact> 0.41169695E+00</totfact>
</mgrwt>
</event>
<event>
 6    1  0.9906445E-006  0.2623764E+04  0.7818608E-02  0.8360174E-01
         -2   -1    0    0    0  501 -0.00000000000E+00  0.00000000000E+00  0.46610371121E+03  0.46610371121E+03  0.00000000000E+00 0.  1.
          2   -1    0    0  501    0  0.00000000000E+00 -0.00000000000E+00 -0.36923849944E+04  0.36923849944E+04  0.00000000000E+00 0. -1.
         23    2    1    2    0    0 -0.20069311168E+03  0.12020214593E+04 -0.23783028423E+04  0.26738336110E+04  0.89041877054E+02 0.  0.
         13    1    3    3    0    0 -0.11095761986E+03  0.48977993209E+03 -0.90726827983E+03  0.10369820186E+04  0.00000000000E+00 0.  1.
        -13    1    3    3    0    0 -0.89735491820E+02  0.71224152723E+03 -0.14710345625E+04  0.16368515924E+04  0.00000000000E+00 0. -1.
         22    1    1    2    0    0  0.20069311168E+03 -0.12020214593E+04 -0.84797844090E+03  0.14846550946E+04  0.00000000000E+00 0.  1.
<mgrwt>
<rscale>  0 0.26237640E+04</rscale>
<asrwt>0</asrwt>
<pdfrwt beam="1">  1        2 0.56805925E+00 0.26237640E+04</pdfrwt>
<pdfrwt beam="2">  1       -2 0.71708261E-01 0.26237640E+04</pdfrwt>
<totfact> 0.92143946E-01</totfact>
</mgrwt>
</event>
<event>
 6    1  0.9906445E-006  0.3131477E+04  0.7818608E-02  0.8207152E-01
         -1   -1    0    0    0  501 -0.00000000000E+00  0.00000000000E+00  0.25909892919E+04  0.25909892919E+04  0.00000000000E+00 0.  1.
          1   -1    0    0  501    0  0.00000000000E+00 -0.00000000000E+00 -0.94617780471E+03  0.94617780471E+03  0.00000000000E+00 0. -1.
         23    2    1    2    0    0 -0.12046005927E+04  0.32010176776E+02 -0.30390226726E+03  0.12459725313E+04  0.89463518537E+02 0.  0.
         13    1    3    3    0    0 -0.45253017660E+03  0.53023488534E+02 -0.12922900803E+03  0.47359812878E+03  0.00000000000E+00 0. -1.
        -13    1    3    3    0    0 -0.75207041615E+03 -0.21013311759E+02 -0.17467325923E+03  0.77237440248E+03  0.00000000000E+00 0.  1.
         22    1    1    2    0    0  0.12046005927E+04 -0.32010176776E+02  0.19487137545E+04  0.22911945653E+04  0.00000000000E+00 0.  1.
<mgrwt>
<rscale>  0 0.31314767E+04</rscale>
<asrwt>0</asrwt>
<pdfrwt beam="1">  1        1 0.14556582E+00 0.31314767E+04</pdfrwt>
<pdfrwt beam="2">  1       -1 0.39861374E+00 0.31314767E+04</pdfrwt>
<totfact> 0.10262787E-01</totfact>
</mgrwt>
</event>
<event>
 6    1  0.9906445E-006  0.2057571E+04  0.7818608E-02  0.8580167E-01
         -2   -1    0    0    0  501 -0.00000000000E+00  0.00000000000E+00  0.60486774109E+03  0.60486774109E+03  0.00000000000E+00 0.  1.
          2   -1    0    0  501    0  0.00000000000E+00 -0.00000000000E+00 -0.17498033262E+04  0.17498033262E+04  0.00000000000E+00 0. -1.
         23    2    1    2    0    0 -0.57233839377E+03 -0.40332161356E+03 -0.14321336834E+04  0.15978868783E+04  0.10952637905E+03 0.  0.
         13    1    3    3    0    0 -0.14923964327E+03 -0.52546629803E+02 -0.35408923063E+03  0.38783089443E+03  0.00000000000E+00 0. -1.
        -13    1    3    3    0    0 -0.42309875050E+03 -0.35077498376E+03 -0.10780444528E+04  0.12100559839E+04  0.00000000000E+00 0.  1.
         22    1    1    2    0    0  0.57233839377E+03  0.40332161356E+03  0.28719809834E+03  0.75678418895E+03  0.00000000000E+00 0.  1.
<mgrwt>
<rscale>  0 0.20575710E+04</rscale>
<asrwt>0</asrwt>
<pdfrwt beam="1">  1        2 0.26920051E+00 0.20575710E+04</pdfrwt>
<pdfrwt beam="2">  1       -2 0.93056575E-01 0.20575710E+04</pdfrwt>
<totfact> 0.83217159E+00</totfact>
</mgrwt>
</event>
<event>
 6    1  0.9906445E-006  0.3171288E+04  0.7818608E-02  0.8196441E-01
         -2   -1    0    0    0  501 -0.00000000000E+00  0.00000000000E+00  0.15487700869E+04  0.15487700869E+04  0.00000000000E+00 0.  1.
          2   -1    0    0  501    0  0.00000000000E+00 -0.00000000000E+00 -0.16233957741E+04  0.16233957741E+04  0.00000000000E+00 0. -1.
         23    2    1    2    0    0  0.96543061040E+03 -0.15164518579E+03  0.12101670898E+04  0.15579338437E+04  0.87183429305E+02 0.  0.
         11    1    3    3    0    0  0.28780270765E+03 -0.67655157587E+02  0.31402341060E+03  0.43129841327E+03  0.00000000000E+00 0. -1.
        -11    1    3    3    0    0  0.67762790275E+03 -0.83990028202E+02  0.89614367915E+03  0.11266354304E+04  0.00000000000E+00 0.  1.
         22    1    1    2    0    0 -0.96543061040E+03  0.15164518579E+03 -0.12847927770E+04  0.16142320173E+04  0.00000000000E+00 0. -1.
<mgrwt>
<rscale>  0 0.31712879E+04</rscale>
<asrwt>0</asrwt>
<pdfrwt beam="1">  1        2 0.24975320E+00 0.31712879E+04</pdfrwt>
<pdfrwt beam="2">  1       -2 0.23827232E+00 0.31712879E+04</pdfrwt>
<totfact> 0.69349234E-01</totfact>
</mgrwt>
</event>
<event>
 6    1  0.9906445E-006  0.5560144E+04  0.7818608E-02  0.7747467E-01
         -1   -1    0    0    0  501 -0.00000000000E+00  0.00000000000E+00  0.25217425533E+04  0.25217425533E+04  0.00000000000E+00 0.  1.
          1   -1    0    0  501    0  0.00000000000E+00 -0.00000000000E+00 -0.30648648580E+04  0.30648648580E+04  0.00000000000E+00 0. -1.
         23    2    1    2    0    0  0.67680614480E+03  0.17309513182E+04  0.18047025775E+04  0.25921891539E+04  0.90742452130E+02 0.  0.
         13    1    3    3    0    0  0.64415358043E+02  0.19235597163E+03  0.23531308352E+03  0.31068055210E+03  0.00000000000E+00 0.  1.
        -13    1    3    3    0    0  0.61239078675E+03  0.15385953465E+04  0.15693894940E+04  0.22815086018E+04  0.00000000000E+00 0. -1.
         22    1    1    2    0    0 -0.67680614480E+03 -0.17309513182E+04 -0.23478248822E+04  0.29944182575E+04  0.00000000000E+00 0. -1.
<mgrwt>
<rscale>  0 0.55601439E+04</rscale>
<asrwt>0</asrwt>
<pdfrwt beam="1">  1        1 0.47151767E+00 0.55601439E+04</pdfrwt>
<pdfrwt beam="2">  1       -1 0.38796039E+00 0.55601439E+04</pdfrwt>
<totfact> 0.31995171E-03</totfact>
</mgrwt>
</event>
<event>
 6    1  0.9906445E-006  0.1399574E+04  0.7818608E-02  0.8954127E-01
         -2   -1    0    0    0  501 -0.00000000000E+00  0.00000000000E+00  0.22003559045E+03  0.22003559045E+03  0.00000000000E+00 0.  1.
          2   -1    0    0  501    0  0.00000000000E+00 -0.00000000000E+00 -0.22255564326E+04  0.22255564326E+04  0.00000000000E+00 0. -1.
         23    2    1    2    0    0  0.21958766198E+03  0.43348024725E+03 -0.18797312854E+04  0.19436489201E+04  0.90871079992E+02 0.  0.
         11    1    3    3    0    0  0.80094421849E+02  0.17885042839E+03 -0.59193451248E+03  0.62352951751E+03  0.00000000000E+00 0. -1.
        -11    1    3    3    0    0  0.13949324013E+03  0.25462981885E+03 -0.12877967729E+04  0.13201194025E+04  0.00000000000E+00 0.  1.
         22    1    1    2    0    0 -0.21958766198E+03 -0.43348024725E+03 -0.12578955678E+03  0.50194310299E+03  0.00000000000E+00 0.  1.
<mgrwt>
<rscale>  0 0.13995737E+04</rscale>
<asrwt>0</asrwt>
<pdfrwt beam="1">  1        2 0.34239330E+00 0.13995737E+04</pdfrwt>
<pdfrwt beam="2">  1       -2 0.33851629E-01 0.13995737E+04</pdfrwt>
<totfact> 0.39766830E+01</totfact>
</mgrwt>
</event>
<event>
 6    1  0.9906445E-006  0.2318027E+04  0.7818608E-02  0.8470847E-01
         -1   -1    0    0    0  501 -0.00000000000E+00  0.00000000000E+00  0.88692357072E+03  0.88692357072E+03  0.00000000000E+00 0.  1.
          1   -1    0    0  501    0  0.00000000000E+00 -0.00000000000E+00 -0.15145754897E+04  0.15145754897E+04  0.00000000000E+00 0. -1.
         23    2    1    2    0    0  0.26695118585E+03  0.38117032419E+02  0.85146841733E+03  0.89799887317E+03  0.93207653762E+02 0.  0.
         11    1    3    3    0    0  0.69783392289E+02  0.52916450461E+02  0.26530477003E+03  0.27938592228E+03  0.00000000000E+00 0. -1.
        -11    1    3    3    0    0  0.19716779356E+03 -0.14799418043E+02  0.58616364730E+03  0.61861295089E+03  0.00000000000E+00 0.  1.
         22    1    1    2    0    0 -0.26695118585E+03 -0.38117032419E+02 -0.14791203363E+04  0.15035001872E+04  0.00000000000E+00 0. -1.
<mgrwt>
<rscale>  0 0.23180274E+04</rscale>
<asrwt>0</asrwt>
<pdfrwt beam="1">  1        1 0.23301161E+00 0.23180274E+04</pdfrwt>
<pdfrwt beam="2">  1       -1 0.13644978E+00 0.23180274E+04</pdfrwt>
<totfact> 0.25849694E+00</totfact>
</mgrwt>
</event>
<event>
 6    1  0.9906445E-006  0.9940309E+03  0.7818608E-02  0.9315116E-01
         -2   -1    0    0    0  501 -0.00000000000E+00  0.00000000000E+00  0.16123246126E+03  0.16123246126E+03  0.00000000000E+00 0.  1.
          2   -1    0    0  501    0  0.00000000000E+00 -0.00000000000E+00 -0.15321006764E+04  0.15321006764E+04  0.00000000000E+00 0. -1.
         23    2    1    2    0    0 -0.41270911354E+03 -0.13070755733E+03 -0.30182567886E+03  0.53996189546E+03  0.11422272185E+03 0.  0.
         13    1    3    3    0    0 -0.22759403679E+03 -0.31121772507E+02 -0.20754497164E+03  0.30958444012E+03  0.00000000000E+00 0. -1.
        -13    1    3    3    0    0 -0.18511507675E+03 -0.99585784820E+02 -0.94280707224E+02  0.23037745535E+03  0.00000000000E+00 0.  1.
         22    1    1    2    0    0  0.41270911354E+03  0.13070755733E+03 -0.10690425363E+04  0.11533712422E+04  0.00000000000E+00 0. -1.
<mgrwt>
<rscale>  0 0.99403091E+03</rscale>
<asrwt>0</asrwt>
<pdfrwt beam="1">  1        2 0.23570780E+00 0.99403091E+03</pdfrwt>
<pdfrwt beam="2">  1       -2 0.24804994E-01 0.99403091E+03</pdfrwt>
<totfact> 0.17681737E+02</totfact>
</mgrwt>
</event>
<event>
 6    1  0.9906445E-006  0.1490659E+04  0.7818608E-02  0.8890689E-01
          2   -1    0    0  501    0  0.00000000000E+00  0.00000000000E+00  0.12330850421E+04  0.12330850421E+04  0.00000000000E+00 0. -1.
         -2   -1    0    0    0  501 -0.00000000000E+00 -0.00000000000E+00 -0.45050890579E+03  0.45050890579E+03  0.00000000000E+00 0.  1.
         23    2    1    2    0    0  0.58241904349E+03  0.45434191587E+03  0.30570871045E+03  0.80436641158E+03  0.88932500774E+02 0.  0.
         11    1    3    3    0    0  0.37527341556E+03  0.24415871065E+03  0.16185924650E+03  0.47606935218E+03  0.00000000000E+00 0. -1.
        -11    1    3    3    0    0  0.20714562793E+03  0.21018320522E+03  0.14384946396E+03  0.32829705940E+03  0.00000000000E+00 0.  1.
         22    1    1    2    0    0 -0.58241904349E+03 -0.45434191587E+03  0.47686742583E+03  0.87922753628E+03  0.00000000000E+00 0.  1.
<mgrwt>
<rscale>  0 0.14906586E+04</rscale>
<asrwt>0</asrwt>
<pdfrwt beam="1">  1        2 0.18970539E+00 0.14906586E+04</pdfrwt>
<pdfrwt beam="2">  1       -2 0.69309063E-01 0.14906586E+04</pdfrwt>
<totfact> 0.33246653E+01</totfact>
</mgrwt>
</event>
<event>
 6    1  0.9906445E-006  0.2798972E+04  0.7818608E-02  0.8303587E-01
          2   -1    0    0  501    0  0.00000000000E+00  0.00000000000E+00  0.65754577859E+03  0.65754577859E+03  0.00000000000E+00 0. -1.
         -2   -1    0    0    0  501 -0.00000000000E+00 -0.00000000000E+00 -0.29785933425E+04  0.29785933425E+04  0.00000000000E+00 0.  1.
         23    2    1    2    0    0 -0.11534933958E+04  0.33477330323E+03 -0.20911113577E+04  0.24132364930E+04  0.91342662910E+02 0.  0.
         11    1    3    3    0    0 -0.99551279659E+03  0.25904635802E+03 -0.17568617926E+04  0.20358570927E+04  0.00000000000E+00 0. -1.
        -11    1    3    3    0    0 -0.15798059923E+03  0.75726945206E+02 -0.33424956517E+03  0.37737940031E+03  0.00000000000E+00 0.  1.
         22    1    1    2    0    0  0.11534933958E+04 -0.33477330323E+03 -0.22993620616E+03  0.12229026280E+04  0.00000000000E+00 0. -1.
<mgrwt>
<rscale>  0 0.27989723E+04</rscale>
<asrwt>0</asrwt>
<pdfrwt beam="1">  1        2 0.10116089E+00 0.27989723E+04</pdfrwt>
<pdfrwt beam="2">  1       -2 0.45824512E+00 0.27989723E+04</pdfrwt>
<totfact> 0.11790840E-01</totfact>
</mgrwt>
</event>
<event>
 6    1  0.9906445E-006  0.3524416E+04  0.7818608E-02  0.8108028E-01
          1   -1    0    0  501    0  0.00000000000E+00  0.00000000000E+00  0.11718795779E+04  0.11718795779E+04  0.00000000000E+00 0. -1.
         -1   -1    0    0    0  501 -0.00000000000E+00 -0.00000000000E+00 -0.26499114235E+04  0.26499114235E+04  0.00000000000E+00 0.  1.
         23    2    1    2    0    0  0.32520649173E+03 -0.16901613828E+04 -0.11433271485E+04  0.20683851737E+04  0.92819697982E+02 0.  0.
         11    1    3    3    0    0  0.31912179900E+03 -0.15445993931E+04 -0.10291874315E+04  0.18833089967E+04  0.00000000000E+00 0. -1.
        -11    1    3    3    0    0  0.60846927370E+01 -0.14556198973E+03 -0.11413971693E+03  0.18507617708E+03  0.00000000000E+00 0.  1.
         22    1    1    2    0    0 -0.32520649173E+03  0.16901613828E+04 -0.33470469713E+03  0.17534058277E+04  0.00000000000E+00 0. -1.
<mgrwt>
<rscale>  0 0.35244160E+04</rscale>
<asrwt>0</asrwt>
<pdfrwt beam="1">  1        1 0.18028917E+00 0.35244160E+04</pdfrwt>
<pdfrwt beam="2">  1       -1 0.40767867E+00 0.35244160E+04</pdfrwt>
<totfact> 0.57773674E-02</totfact>
</mgrwt>
</event>
<event>
 6    1  0.9906445E-006  0.2520149E+04  0.7818608E-02  0.8395842E-01
          2   -1    0    0  501    0  0.00000000000E+00  0.00000000000E+00  0.14386390120E+04  0.14386390120E+04  0.00000000000E+00 0.  1.
         -2   -1    0    0    0  501 -0.00000000000E+00 -0.00000000000E+00 -0.11036733161E+04  0.11036733161E+04  0.00000000000E+00 0. -1.
         23    2    1    2    0    0 -0.53297050486E+03  0.64439268916E+02  0.13158303352E+04  0.14241417602E+04  0.92521908029E+02 0.  0.
         11    1    3    3    0    0 -0.34568880147E+03  0.74711032125E+02  0.78011113304E+03  0.85653713619E+03  0.00000000000E+00 0.  1.
        -11    1    3    3    0    0 -0.18728170339E+03 -0.10271763208E+02  0.53571920220E+03  0.56760462397E+03  0.00000000000E+00 0. -1.
         22    1    1    2    0    0  0.53297050486E+03 -0.64439268916E+02 -0.98086463935E+03  0.11181705680E+04  0.00000000000E+00 0. -1.
<mgrwt>
<rscale>  0 0.25201488E+04</rscale>
<asrwt>0</asrwt>
<pdfrwt beam="1">  1        2 0.22132908E+00 0.25201488E+04</pdfrwt>
<pdfrwt beam="2">  1       -2 0.16979590E+00 0.25201488E+04</pdfrwt>
<totfact> 0.26191578E+00</totfact>
</mgrwt>
</event>
<event>
 6    1  0.9906445E-006  0.2531889E+04  0.7818608E-02  0.8391712E-01
         -2   -1    0    0    0  501 -0.00000000000E+00  0.00000000000E+00  0.80411160216E+03  0.80411160216E+03  0.00000000000E+00 0.  1.
          2   -1    0    0  501    0  0.00000000000E+00 -0.00000000000E+00 -0.19930259007E+04  0.19930259007E+04  0.00000000000E+00 0. -1.
         23    2    1    2    0    0  0.85298597661E+03  0.35422906860E+03  0.35980059075E+03  0.99392339532E+03  0.73238933042E+02 0.  0.
         13    1    3    3    0    0  0.42761377731E+03  0.14369539983E+03  0.19571702935E+03  0.49173881895E+03  0.00000000000E+00 0. -1.
        -13    1    3    3    0    0  0.42537219930E+03  0.21053366877E+03  0.16408356140E+03  0.50218457637E+03  0.00000000000E+00 0.  1.
         22    1    1    2    0    0 -0.85298597661E+03 -0.35422906860E+03 -0.15487148892E+04  0.18032141075E+04  0.00000000000E+00 0. -1.
<mgrwt>
<rscale>  0 0.25318888E+04</rscale>
<asrwt>0</asrwt>
<pdfrwt beam="1">  1        2 0.30661937E+00 0.25318888E+04</pdfrwt>
<pdfrwt beam="2">  1       -2 0.12370948E+00 0.25318888E+04</pdfrwt>
<totfact> 0.29511434E+00</totfact>
</mgrwt>
</event>
<event>
 6    1  0.9906445E-006  0.2100437E+04  0.7818608E-02  0.8561051E-01
          2   -1    0    0  501    0  0.00000000000E+00  0.00000000000E+00  0.10221727084E+04  0.10221727084E+04  0.00000000000E+00 0. -1.
         -2   -1    0    0    0  501 -0.00000000000E+00 -0.00000000000E+00 -0.10790339016E+04  0.10790339016E+04  0.00000000000E+00 0.  1.
         23    2    1    2    0    0 -0.23935298115E+03  0.26186348523E+03 -0.10149866217E+04  0.10795086746E+04  0.96326537436E+02 0.  0.
         13    1    3    3    0    0 -0.19411991281E+03  0.20371168076E+03 -0.66908300355E+03  0.72584644042E+03  0.00000000000E+00 0.  1.
        -13    1    3    3    0    0 -0.45233068336E+02  0.58151804474E+02 -0.34590361813E+03  0.35366223416E+03  0.00000000000E+00 0. -1.
         22    1    1    2    0    0  0.23935298115E+03 -0.26186348523E+03  0.95812542848E+03  0.10216979354E+04  0.00000000000E+00 0. -1.
<mgrwt>
<rscale>  0 0.21004371E+04</rscale>
<asrwt>0</asrwt>
<pdfrwt beam="1">  1        2 0.15725734E+00 0.21004371E+04</pdfrwt>
<pdfrwt beam="2">  1       -2 0.16600522E+00 0.21004371E+04</pdfrwt>
<totfact> 0.51138543E+00</totfact>
</mgrwt>
</event>
<event>
 6    1  0.9906445E-006  0.2161112E+04  0.7818608E-02  0.8534791E-01
         -1   -1    0    0    0  501 -0.00000000000E+00  0.00000000000E+00  0.22403980792E+04  0.22403980792E+04  0.00000000000E+00 0.  1.
          1   -1    0    0  501    0  0.00000000000E+00 -0.00000000000E+00 -0.52115802081E+03  0.52115802081E+03  0.00000000000E+00 0. -1.
         23    2    1    2    0    0  0.54129637410E+03 -0.87620081131E+03  0.12708505186E+04  0.16382650399E+04  0.90120330521E+02 0.  0.
         11    1    3    3    0    0  0.36286065389E+03 -0.50345514947E+03  0.76000862097E+03  0.98119725113E+03  0.00000000000E+00 0. -1.
        -11    1    3    3    0    0  0.17843572021E+03 -0.37274566184E+03  0.51084189761E+03  0.65706778876E+03  0.00000000000E+00 0.  1.
         22    1    1    2    0    0 -0.54129637410E+03  0.87620081131E+03  0.44838953981E+03  0.11232910601E+04  0.00000000000E+00 0. -1.
<mgrwt>
<rscale>  0 0.21611121E+04</rscale>
<asrwt>0</asrwt>
<pdfrwt beam="1">  1        1 0.80178158E-01 0.21611121E+04</pdfrwt>
<pdfrwt beam="2">  1       -1 0.34467662E+00 0.21611121E+04</pdfrwt>
<totfact> 0.64565907E-01</totfact>
</mgrwt>
</event>
<event>
 6    1  0.9906445E-006  0.4144693E+04  0.7818608E-02  0.7975977E-01
          2   -1    0    0  501    0  0.00000000000E+00  0.00000000000E+00  0.25249280507E+04  0.25249280507E+04  0.00000000000E+00 0. -1.
         -2   -1    0    0    0  501 -0.00000000000E+00 -0.00000000000E+00 -0.17008878757E+04  0.17008878757E+04  0.00000000000E+00 0.  1.
         23    2    1    2    0    0 -0.62441535083E+03 -0.24280942219E+03  0.24105973825E+04  0.25036037681E+04  0.90560150133E+02 0.  0.
         11    1    3    3    0    0 -0.22953729021E+03 -0.58777239531E+02  0.73199887849E+03  0.76939228590E+03  0.00000000000E+00 0.  1.
        -11    1    3    3    0    0 -0.39487806061E+03 -0.18403218266E+03  0.16785985041E+04  0.17342114822E+04  0.00000000000E+00 0. -1.
         22    1    1    2    0    0  0.62441535083E+03  0.24280942219E+03 -0.15865572075E+04  0.17222121584E+04  0.00000000000E+00 0.  1.
<mgrwt>
<rscale>  0 0.41446928E+04</rscale>
<asrwt>0</asrwt>
<pdfrwt beam="1">  1        2 0.38845047E+00 0.41446928E+04</pdfrwt>
<pdfrwt beam="2">  1       -2 0.26167506E+00 0.41446928E+04</pdfrwt>
<totfact> 0.14305735E-01</totfact>
</mgrwt>
</event>
<event>
 6    1  0.9906445E-006  0.1276497E+04  0.7818608E-02  0.9048413E-01
         -2   -1    0    0    0  501 -0.00000000000E+00  0.00000000000E+00  0.13871514122E+03  0.13871514122E+03  0.00000000000E+00 0.  1.
          2   -1    0    0  501    0  0.00000000000E+00 -0.00000000000E+00 -0.29366760044E+04  0.29366760044E+04  0.00000000000E+00 0. -1.
         23    2    1    2    0    0 -0.16226769073E+03  0.31831025781E+03 -0.26702655663E+04  0.26959727585E+04  0.10148249092E+03 0.  0.
         11    1    3    3    0    0 -0.26716739586E+02  0.16332565602E+03 -0.11752141847E+04  0.11868097716E+04  0.00000000000E+00 0. -1.
        -11    1    3    3    0    0 -0.13555095114E+03  0.15498460179E+03 -0.14950513816E+04  0.15091629869E+04  0.00000000000E+00 0.  1.
         22    1    1    2    0    0  0.16226769073E+03 -0.31831025781E+03 -0.12769529685E+03  0.37941838716E+03  0.00000000000E+00 0.  1.
<mgrwt>
<rscale>  0 0.12764974E+04</rscale>
<asrwt>0</asrwt>
<pdfrwt beam="1">  1        2 0.45179629E+00 0.12764974E+04</pdfrwt>
<pdfrwt beam="2">  1       -2 0.21340792E-01 0.12764974E+04</pdfrwt>
<totfact> 0.36076061E+01</totfact>
</mgrwt>
</event>
<event>
 6    1  0.9906445E-006  0.9506384E+03  0.7818608E-02  0.9364405E-01
          2   -1    0    0  501    0  0.00000000000E+00  0.00000000000E+00  0.24088936256E+04  0.24088936256E+04  0.00000000000E+00 0. -1.
         -2   -1    0    0    0  501 -0.00000000000E+00 -0.00000000000E+00 -0.93789253314E+02  0.93789253314E+02  0.00000000000E+00 0.  1.
         23    2    1    2    0    0 -0.17155678276E+03 -0.31265518205E+03  0.35806282096E+03  0.51341250358E+03  0.90545140697E+02 0.  0.
         11    1    3    3    0    0 -0.98630268326E+02 -0.89612897988E+02  0.12696957429E+03  0.18406432058E+03  0.00000000000E+00 0.  1.
        -11    1    3    3    0    0 -0.72926514433E+02 -0.22304228406E+03  0.23109324668E+03  0.32934818300E+03  0.00000000000E+00 0. -1.
         22    1    1    2    0    0  0.17155678276E+03  0.31265518205E+03  0.19570415513E+04  0.19892703753E+04  0.00000000000E+00 0. -1.
<mgrwt>
<rscale>  0 0.95063838E+03</rscale>
<asrwt>0</asrwt>
<pdfrwt beam="1">  1        2 0.37059897E+00 0.95063838E+03</pdfrwt>
<pdfrwt beam="2">  1       -2 0.14429118E-01 0.95063838E+03</pdfrwt>
<totfact> 0.14931547E+02</totfact>
</mgrwt>
</event>
<event>
 6    1  0.9906445E-006  0.1044749E+04  0.7818608E-02  0.9260783E-01
         -2   -1    0    0    0  501 -0.00000000000E+00  0.00000000000E+00  0.14447658429E+03  0.14447658429E+03  0.00000000000E+00 0.  1.
          2   -1    0    0  501    0  0.00000000000E+00 -0.00000000000E+00 -0.18887136220E+04  0.18887136220E+04  0.00000000000E+00 0. -1.
         23    2    1    2    0    0  0.50994746022E+03  0.85558482944E+02 -0.93634892951E+03  0.10739979098E+04  0.96723970004E+02 0.  0.
         13    1    3    3    0    0  0.39282636530E+03  0.10619122490E+03 -0.71223237580E+03  0.82028293086E+03  0.00000000000E+00 0.  1.
        -13    1    3    3    0    0  0.11712109492E+03 -0.20632741960E+02 -0.22411655371E+03  0.25371497899E+03  0.00000000000E+00 0. -1.
         22    1    1    2    0    0 -0.50994746022E+03 -0.85558482944E+02 -0.80788810819E+03  0.95919229644E+03  0.00000000000E+00 0. -1.
<mgrwt>
<rscale>  0 0.10447486E+04</rscale>
<asrwt>0</asrwt>
<pdfrwt beam="1">  1        2 0.29057132E+00 0.10447486E+04</pdfrwt>
<pdfrwt beam="2">  1       -2 0.22227167E-01 0.10447486E+04</pdfrwt>
<totfact> 0.13625555E+02</totfact>
</mgrwt>
</event>
<event>
 6    1  0.9906445E-006  0.2655934E+04  0.7818608E-02  0.8349446E-01
         -1   -1    0    0    0  501 -0.00000000000E+00  0.00000000000E+00  0.44556744027E+03  0.44556744027E+03  0.00000000000E+00 0. -1.
          1   -1    0    0  501    0  0.00000000000E+00 -0.00000000000E+00 -0.39578672839E+04  0.39578672839E+04  0.00000000000E+00 0.  1.
         23    2    1    2    0    0  0.60668262969E+03 -0.16668416584E+02 -0.37136603707E+04  0.37639914420E+04  0.89535339297E+02 0.  0.
         11    1    3    3    0    0  0.38506514986E+03 -0.41005763461E+02 -0.21639434786E+04  0.21983193628E+04  0.00000000000E+00 0.  1.
        -11    1    3    3    0    0  0.22161747983E+03  0.24337346877E+02 -0.15497168921E+04  0.15656720792E+04  0.00000000000E+00 0. -1.
         22    1    1    2    0    0 -0.60668262969E+03  0.16668416584E+02  0.20136052708E+03  0.63944328220E+03  0.00000000000E+00 0. -1.
<mgrwt>
<rscale>  0 0.26559343E+04</rscale>
<asrwt>0</asrwt>
<pdfrwt beam="1">  1        1 0.60890267E+00 0.26559343E+04</pdfrwt>
<pdfrwt beam="2">  1       -1 0.68548836E-01 0.26559343E+04</pdfrwt>
<totfact> 0.19743640E-01</totfact>
</mgrwt>
</event>
<event>
 6    1  0.9906445E-006  0.4126230E+04  0.7818608E-02  0.7979555E-01
         -1   -1    0    0    0  501 -0.00000000000E+00  0.00000000000E+00  0.15555017127E+04  0.15555017127E+04  0.00000000000E+00 0.  1.
          1   -1    0    0  501    0  0.00000000000E+00 -0.00000000000E+00 -0.27363793427E+04  0.27363793427E+04  0.00000000000E+00 0. -1.
         23    2    1    2    0    0 -0.11344388995E+04 -0.10570643155E+04 -0.20045761217E+04  0.25360861389E+04  0.95241232612E+02 0.  0.
         11    1    3    3    0    0 -0.47712353521E+03 -0.38612132471E+03 -0.82239557887E+03  0.10261924933E+04  0.00000000000E+00 0. -1.
        -11    1    3    3    0    0 -0.65731536426E+03 -0.67094299083E+03 -0.11821805428E+04  0.15098936455E+04  0.00000000000E+00 0.  1.
         22    1    1    2    0    0  0.11344388995E+04  0.10570643155E+04  0.82369849164E+03  0.17557949165E+04  0.00000000000E+00 0.  1.
<mgrwt>
<rscale>  0 0.41262296E+04</rscale>
<asrwt>0</asrwt>
<pdfrwt beam="1">  1        1 0.42098143E+00 0.41262296E+04</pdfrwt>
<pdfrwt beam="2">  1       -1 0.23930796E+00 0.41262296E+04</pdfrwt>
<totfact> 0.58690865E-02</totfact>
</mgrwt>
</event>
<event>
 6    1  0.9906445E-006  0.1003243E+04  0.7818608E-02  0.9304996E-01
         -2   -1    0    0    0  501 -0.00000000000E+00  0.00000000000E+00  0.38810738463E+03  0.38810738463E+03  0.00000000000E+00 0. -1.
          2   -1    0    0  501    0  0.00000000000E+00 -0.00000000000E+00 -0.64833578500E+03  0.64833578500E+03  0.00000000000E+00 0.  1.
         23    2    1    2    0    0  0.17008079588E+03  0.26911458322E+03 -0.52634341442E+03  0.62151264927E+03  0.88828189597E+02 0.  0.
         13    1    3    3    0    0  0.72515082869E+02  0.18689284335E+03 -0.35765595549E+03  0.41000628610E+03  0.00000000000E+00 0. -1.
        -13    1    3    3    0    0  0.97565713009E+02  0.82221739869E+02 -0.16868745893E+03  0.21150636317E+03  0.00000000000E+00 0.  1.
         22    1    1    2    0    0 -0.17008079588E+03 -0.26911458322E+03  0.26611501404E+03  0.41493052036E+03  0.00000000000E+00 0. -1.
<mgrwt>
<rscale>  0 0.10032426E+04</rscale>
<asrwt>0</asrwt>
<pdfrwt beam="1">  1        2 0.99743967E-01 0.10032426E+04</pdfrwt>
<pdfrwt beam="2">  1       -2 0.59708829E-01 0.10032426E+04</pdfrwt>
<totfact> 0.11788551E+02</totfact>
</mgrwt>
</event>
<event>
 6    1  0.1256360E-005  0.4430783E+04  0.7818608E-02  0.7922868E-01
          2   -1    0    0  501    0  0.00000000000E+00  0.00000000000E+00  0.26824303292E+04  0.26824303292E+04  0.00000000000E+00 0. -1.
         -2   -1    0    0    0  501 -0.00000000000E+00 -0.00000000000E+00 -0.18296690829E+04  0.18296690829E+04  0.00000000000E+00 0.  1.
         23    2    1    2    0    0  0.20769963620E+04 -0.74225396632E+03  0.62784931962E+03  0.22950202044E+04  0.89822781700E+02 0.  0.
         11    1    3    3    0    0  0.12780905489E+04 -0.41693301551E+03  0.35882878123E+03  0.13914405071E+04  0.00000000000E+00 0.  1.
        -11    1    3    3    0    0  0.79890581314E+03 -0.32532095081E+03  0.26902053839E+03  0.90357969731E+03  0.00000000000E+00 0. -1.
         22    1    1    2    0    0 -0.20769963620E+04  0.74225396632E+03  0.22491192665E+03  0.22170792077E+04  0.00000000000E+00 0. -1.
<mgrwt>
<rscale>  0 0.44307832E+04</rscale>
<asrwt>0</asrwt>
<pdfrwt beam="1">  1        2 0.41268159E+00 0.44307832E+04</pdfrwt>
<pdfrwt beam="2">  1       -2 0.28148755E+00 0.44307832E+04</pdfrwt>
<totfact> 0.85473148E-02</totfact>
</mgrwt>
</event>
<event>
 6    1  0.9906445E-006  0.4258658E+04  0.7818608E-02  0.7954307E-01
         -2   -1    0    0    0  501 -0.00000000000E+00  0.00000000000E+00  0.12897458366E+04  0.12897458366E+04  0.00000000000E+00 0.  1.
          2   -1    0    0  501    0  0.00000000000E+00 -0.00000000000E+00 -0.35154540186E+04  0.35154540186E+04  0.00000000000E+00 0. -1.
         23    2    1    2    0    0 -0.86750841928E+03 -0.14949020959E+04  0.28820406367E+03  0.17544527478E+04  0.87975724517E+02 0.  0.
         11    1    3    3    0    0 -0.72837691741E+03 -0.12426139959E+04  0.20727130283E+03  0.14551920387E+04  0.00000000000E+00 0.  1.
        -11    1    3    3    0    0 -0.13913150188E+03 -0.25228810003E+03  0.80932760835E+02  0.29926070910E+03  0.00000000000E+00 0. -1.
         22    1    1    2    0    0  0.86750841928E+03  0.14949020959E+04 -0.25139122457E+04  0.30507471073E+04  0.00000000000E+00 0. -1.
<mgrwt>
<rscale>  0 0.42586581E+04</rscale>
<asrwt>0</asrwt>
<pdfrwt beam="1">  1        2 0.54083906E+00 0.42586581E+04</pdfrwt>
<pdfrwt beam="2">  1       -2 0.19842244E+00 0.42586581E+04</pdfrwt>
<totfact> 0.83289851E-02</totfact>
</mgrwt>
</event>
<event>
 6    1  0.9906445E-006  0.9717053E+03  0.7818608E-02  0.9340134E-01
          2   -1    0    0  501    0  0.00000000000E+00  0.00000000000E+00  0.19388598361E+03  0.19388598361E+03  0.00000000000E+00 0. -1.
         -2   -1    0    0    0  501 -0.00000000000E+00 -0.00000000000E+00 -0.12174826355E+04  0.12174826355E+04  0.00000000000E+00 0.  1.
         23    2    1    2    0    0  0.20741454843E+03 -0.43422522723E+03 -0.50347250312E+03  0.70277743020E+03  0.94017084317E+02 0.  0.
         13    1    3    3    0    0  0.13727096344E+03 -0.19134989903E+03 -0.21103656091E+03  0.31621911913E+03  0.00000000000E+00 0. -1.
        -13    1    3    3    0    0  0.70143584981E+02 -0.24287532820E+03 -0.29243594221E+03  0.38655831107E+03  0.00000000000E+00 0.  1.
         22    1    1    2    0    0 -0.20741454843E+03  0.43422522723E+03 -0.52012414874E+03  0.70859118888E+03  0.00000000000E+00 0. -1.
<mgrwt>
<rscale>  0 0.97170534E+03</rscale>
<asrwt>0</asrwt>
<pdfrwt beam="1">  1        2 0.29828612E-01 0.97170534E+03</pdfrwt>
<pdfrwt beam="2">  1       -2 0.18730502E+00 0.97170534E+03</pdfrwt>
<totfact> 0.28977624E+01</totfact>
</mgrwt>
</event>
<event>
 6    1  0.9906445E-006  0.2205633E+04  0.7818608E-02  0.8516087E-01
         -2   -1    0    0    0  501 -0.00000000000E+00  0.00000000000E+00  0.94747086285E+03  0.94747086285E+03  0.00000000000E+00 0.  1.
          2   -1    0    0  501    0  0.00000000000E+00 -0.00000000000E+00 -0.12836323204E+04  0.12836323204E+04  0.00000000000E+00 0. -1.
         23    2    1    2    0    0 -0.35522198312E+03 -0.10296840569E+04 -0.32934750566E+03  0.11418473160E+04  0.94411859880E+02 0.  0.
         13    1    3    3    0    0 -0.24629630588E+03 -0.69731827653E+03 -0.26887746167E+03  0.78689881082E+03  0.00000000000E+00 0. -1.
        -13    1    3    3    0    0 -0.10892567724E+03 -0.33236578038E+03 -0.60470043992E+02  0.35494850520E+03  0.00000000000E+00 0.  1.
         22    1    1    2    0    0  0.35522198312E+03  0.10296840569E+04 -0.68139518833E+01  0.10892558672E+04  0.00000000000E+00 0. -1.
<mgrwt>
<rscale>  0 0.22056330E+04</rscale>
<asrwt>0</asrwt>
<pdfrwt beam="1">  1        2 0.19748189E+00 0.22056330E+04</pdfrwt>
<pdfrwt beam="2">  1       -2 0.14576475E+00 0.22056330E+04</pdfrwt>
<totfact> 0.49905523E+00</totfact>
</mgrwt>
</event>
<event>
 6    1  0.9906445E-006  0.1187186E+04  0.7818608E-02  0.9124147E-01
          2   -1    0    0  501    0  0.00000000000E+00  0.00000000000E+00  0.90866720117E+03  0.90866720117E+03  0.00000000000E+00 0.  1.
         -2   -1    0    0    0  501 -0.00000000000E+00 -0.00000000000E+00 -0.38776873331E+03  0.38776873331E+03  0.00000000000E+00 0. -1.
         23    2    1    2    0    0 -0.34739368840E+03 -0.44000488036E+03  0.61034402039E+02  0.57134171403E+03  0.91757759801E+02 0.  0.
         13    1    3    3    0    0 -0.44619828851E+02 -0.11405574029E+03  0.25083094911E+02  0.12501520976E+03  0.00000000000E+00 0. -1.
        -13    1    3    3    0    0 -0.30277385955E+03 -0.32594914007E+03  0.35951307128E+02  0.44632650428E+03  0.00000000000E+00 0.  1.
         22    1    1    2    0    0  0.34739368840E+03  0.44000488036E+03  0.45986406583E+03  0.72509422044E+03  0.00000000000E+00 0.  1.
<mgrwt>
<rscale>  0 0.11871861E+04</rscale>
<asrwt>0</asrwt>
<pdfrwt beam="1">  1        2 0.13979495E+00 0.11871861E+04</pdfrwt>
<pdfrwt beam="2">  1       -2 0.59656728E-01 0.11871861E+04</pdfrwt>
<totfact> 0.74909761E+01</totfact>
</mgrwt>
</event>
<event>
 6    1  0.9906445E-006  0.1244757E+04  0.7818608E-02  0.9074558E-01
          2   -1    0    0  501    0  0.00000000000E+00  0.00000000000E+00  0.12584415973E+04  0.12584415973E+04  0.00000000000E+00 0. -1.
         -2   -1    0    0    0  501 -0.00000000000E+00 -0.00000000000E+00 -0.30780554237E+03  0.30780554237E+03  0.00000000000E+00 0.  1.
         23    2    1    2    0    0 -0.66785539735E+02  0.39514767658E+03  0.10713465449E+04  0.11477103826E+04  0.94094147542E+02 0.  0.
         11    1    3    3    0    0  0.10715782205E+02  0.20702208482E+03  0.50301350119E+03  0.54405473435E+03  0.00000000000E+00 0.  1.
        -11    1    3    3    0    0 -0.77501321940E+02  0.18812559176E+03  0.56833304368E+03  0.60365564829E+03  0.00000000000E+00 0. -1.
         22    1    1    2    0    0  0.66785539735E+02 -0.39514767658E+03 -0.12071048991E+03  0.41853675705E+03  0.00000000000E+00 0.  1.
<mgrwt>
<rscale>  0 0.12447575E+04</rscale>
<asrwt>0</asrwt>
<pdfrwt beam="1">  1        2 0.19360640E+00 0.12447575E+04</pdfrwt>
<pdfrwt beam="2">  1       -2 0.47354699E-01 0.12447575E+04</pdfrwt>
<totfact> 0.72681248E+01</totfact>
</mgrwt>
</event>
<event>
 6    1  0.9906445E-006  0.7646018E+03  0.7818608E-02  0.9612717E-01
          1   -1    0    0  501    0  0.00000000000E+00  0.00000000000E+00  0.65899099276E+03  0.65899099276E+03  0.00000000000E+00 0. -1.
         -1   -1    0    0    0  501 -0.00000000000E+00 -0.00000000000E+00 -0.22178448078E+03  0.22178448078E+03  0.00000000000E+00 0.  1.
         23    2    1    2    0    0  0.98208310495E+02  0.10349228435E+03  0.62351229635E+03  0.64611535665E+03  0.91334250057E+02 0.  0.
         13    1    3    3    0    0  0.11025049340E+03  0.64294194862E+02  0.49686942661E+03  0.51299916363E+03  0.00000000000E+00 0.  1.
        -13    1    3    3    0    0 -0.12042182902E+02  0.39198089490E+02  0.12664286974E+03  0.13311619303E+03  0.00000000000E+00 0. -1.
         22    1    1    2    0    0 -0.98208310495E+02 -0.10349228435E+03 -0.18630578436E+03  0.23466011689E+03  0.00000000000E+00 0.  1.
<mgrwt>
<rscale>  0 0.76460179E+03</rscale>
<asrwt>0</asrwt>
<pdfrwt beam="1">  1        1 0.10138323E+00 0.76460179E+03</pdfrwt>
<pdfrwt beam="2">  1       -1 0.34120690E-01 0.76460179E+03</pdfrwt>
<totfact> 0.24500176E+02</totfact>
</mgrwt>
</event>
<event>
 6    1  0.9906445E-006  0.5640543E+04  0.7818608E-02  0.7736641E-01
          1   -1    0    0  501    0  0.00000000000E+00  0.00000000000E+00  0.41871533063E+04  0.41871533063E+04  0.00000000000E+00 0. -1.
         -1   -1    0    0    0  501 -0.00000000000E+00 -0.00000000000E+00 -0.18996036488E+04  0.18996036488E+04  0.00000000000E+00 0.  1.
         23    2    1    2    0    0  0.16263986879E+04 -0.78606733623E+03  0.34801956469E+04  0.39221602247E+04  0.92220053653E+02 0.  0.
         11    1    3    3    0    0  0.45724805191E+03 -0.19573680021E+03  0.88480633493E+03  0.10150226235E+04  0.00000000000E+00 0.  1.
        -11    1    3    3    0    0  0.11691506360E+04 -0.59033053602E+03  0.25953893120E+04  0.29071376012E+04  0.00000000000E+00 0. -1.
         22    1    1    2    0    0 -0.16263986879E+04  0.78606733623E+03 -0.11926459894E+04  0.21645967304E+04  0.00000000000E+00 0.  1.
<mgrwt>
<rscale>  0 0.56405431E+04</rscale>
<asrwt>0</asrwt>
<pdfrwt beam="1">  1        1 0.64417743E+00 0.56405431E+04</pdfrwt>
<pdfrwt beam="2">  1       -1 0.29224672E+00 0.56405431E+04</pdfrwt>
<totfact> 0.16464893E-03</totfact>
</mgrwt>
</event>
<event>
 6    1  0.9906445E-006  0.2327944E+04  0.7818608E-02  0.8466984E-01
         -2   -1    0    0    0  501 -0.00000000000E+00  0.00000000000E+00  0.11932205611E+04  0.11932205611E+04  0.00000000000E+00 0.  1.
          2   -1    0    0  501    0  0.00000000000E+00 -0.00000000000E+00 -0.11354408082E+04  0.11354408082E+04  0.00000000000E+00 0. -1.
         23    2    1    2    0    0 -0.88797013982E+03  0.20405343999E+03  0.75064810461E+03  0.11840237287E+04  0.91163795554E+02 0.  0.
         11    1    3    3    0    0 -0.32043758664E+03  0.10481388292E+03  0.31875265855E+03  0.46397139385E+03  0.00000000000E+00 0. -1.
        -11    1    3    3    0    0 -0.56753255318E+03  0.99239557073E+02  0.43189544606E+03  0.72005233486E+03  0.00000000000E+00 0.  1.
         22    1    1    2    0    0  0.88797013982E+03 -0.20405343999E+03 -0.69286835172E+03  0.11446376407E+04  0.00000000000E+00 0. -1.
<mgrwt>
<rscale>  0 0.23279444E+04</rscale>
<asrwt>0</asrwt>
<pdfrwt beam="1">  1        2 0.17468320E+00 0.23279444E+04</pdfrwt>
<pdfrwt beam="2">  1       -2 0.18357239E+00 0.23279444E+04</pdfrwt>
<totfact> 0.32115373E+00</totfact>
</mgrwt>
</event>
<event>
 6    1  0.9906445E-006  0.1369492E+04  0.7818608E-02  0.8976203E-01
          1   -1    0    0  501    0  0.00000000000E+00  0.00000000000E+00  0.80064307535E+03  0.80064307535E+03  0.00000000000E+00 0. -1.
         -1   -1    0    0    0  501 -0.00000000000E+00 -0.00000000000E+00 -0.58562570538E+03  0.58562570538E+03  0.00000000000E+00 0.  1.
         23    2    1    2    0    0 -0.22273090988E+03 -0.63510373997E+03  0.22026280521E+03  0.71322098649E+03  0.84868448013E+02 0.  0.
         11    1    3    3    0    0 -0.12797916401E+03 -0.31767710161E+03  0.70471453639E+02  0.34966216994E+03  0.00000000000E+00 0. -1.
        -11    1    3    3    0    0 -0.94751745874E+02 -0.31742663836E+03  0.14979135157E+03  0.36355881655E+03  0.00000000000E+00 0.  1.
         22    1    1    2    0    0  0.22273090988E+03  0.63510373997E+03 -0.52454352381E+01  0.67304779424E+03  0.00000000000E+00 0.  1.
<mgrwt>
<rscale>  0 0.13694921E+04</rscale>
<asrwt>0</asrwt>
<pdfrwt beam="1">  1        1 0.12317586E+00 0.13694921E+04</pdfrwt>
<pdfrwt beam="2">  1       -1 0.90096263E-01 0.13694921E+04</pdfrwt>
<totfact> 0.26018184E+01</totfact>
</mgrwt>
</event>
<event>
 6    1  0.9906445E-006  0.1277881E+04  0.7818608E-02  0.9047292E-01
          2   -1    0    0  501    0  0.00000000000E+00  0.00000000000E+00  0.80028966973E+03  0.80028966973E+03  0.00000000000E+00 0. -1.
         -2   -1    0    0    0  501 -0.00000000000E+00 -0.00000000000E+00 -0.51012165897E+03  0.51012165897E+03  0.00000000000E+00 0.  1.
         23    2    1    2    0    0  0.24539571570E+03 -0.50834751231E+03  0.44546730425E+03  0.72495926309E+03  0.92133400162E+02 0.  0.
         11    1    3    3    0    0  0.21233679996E+03 -0.45442025597E+03  0.35470161744E+03  0.61432721172E+03  0.00000000000E+00 0.  1.
        -11    1    3    3    0    0  0.33058915745E+02 -0.53927256346E+02  0.90765686818E+02  0.11063205137E+03  0.00000000000E+00 0. -1.
         22    1    1    2    0    0 -0.24539571570E+03  0.50834751231E+03 -0.15529929349E+03  0.58545206560E+03  0.00000000000E+00 0.  1.
<mgrwt>
<rscale>  0 0.12778812E+04</rscale>
<asrwt>0</asrwt>
<pdfrwt beam="1">  1        2 0.12312149E+00 0.12778812E+04</pdfrwt>
<pdfrwt beam="2">  1       -2 0.78480255E-01 0.12778812E+04</pdfrwt>
<totfact> 0.48796619E+01</totfact>
</mgrwt>
</event>
<event>
 6    1  0.9906445E-006  0.3019578E+04  0.7818608E-02  0.8238162E-01
          2   -1    0    0  501    0  0.00000000000E+00  0.00000000000E+00  0.20399866403E+04  0.20399866403E+04  0.00000000000E+00 0. -1.
         -2   -1    0    0    0  501 -0.00000000000E+00 -0.00000000000E+00 -0.11173910128E+04  0.11173910128E+04  0.00000000000E+00 0.  1.
         23    2    1    2    0    0 -0.12021823052E+04 -0.87703508422E+03  0.20353914835E+03  0.15046601774E+04  0.90228769012E+02 0.  0.
         11    1    3    3    0    0 -0.68524005068E+03 -0.55083069778E+03  0.13684971477E+03  0.88977313350E+03  0.00000000000E+00 0.  1.
        -11    1    3    3    0    0 -0.51694225453E+03 -0.32620438643E+03  0.66689433577E+02  0.61488704394E+03  0.00000000000E+00 0. -1.
         22    1    1    2    0    0  0.12021823052E+04  0.87703508422E+03  0.71905647915E+03  0.16527174756E+04  0.00000000000E+00 0. -1.
<mgrwt>
<rscale>  0 0.30195779E+04</rscale>
<asrwt>0</asrwt>
<pdfrwt beam="1">  1        2 0.31384410E+00 0.30195779E+04</pdfrwt>
<pdfrwt beam="2">  1       -2 0.17190631E+00 0.30195779E+04</pdfrwt>
<totfact> 0.11207731E+00</totfact>
</mgrwt>
</event>
<event>
 6    1  0.1224719E-005  0.3343215E+04  0.7818608E-02  0.8151986E-01
          2   -1    0    0  501    0  0.00000000000E+00  0.00000000000E+00  0.19299882255E+04  0.19299882255E+04  0.00000000000E+00 0. -1.
         -2   -1    0    0    0  501 -0.00000000000E+00 -0.00000000000E+00 -0.14478177670E+04  0.14478177670E+04  0.00000000000E+00 0.  1.
         23    2    1    2    0    0 -0.39310787892E+02  0.41662570004E+03 -0.13922185602E+04  0.14572705189E+04  0.10120540513E+03 0.  0.
         13    1    3    3    0    0 -0.34203430416E+02  0.35629150723E+03 -0.10396125523E+04  0.10995034204E+04  0.00000000000E+00 0.  1.
        -13    1    3    3    0    0 -0.51073574767E+01  0.60334192809E+02 -0.35260600795E+03  0.35776709849E+03  0.00000000000E+00 0. -1.
         22    1    1    2    0    0  0.39310787892E+02 -0.41662570004E+03  0.18743890187E+04  0.19205354736E+04  0.00000000000E+00 0. -1.
<mgrwt>
<rscale>  0 0.33432148E+04</rscale>
<asrwt>0</asrwt>
<pdfrwt beam="1">  1        2 0.29692127E+00 0.33432148E+04</pdfrwt>
<pdfrwt beam="2">  1       -2 0.22274119E+00 0.33432148E+04</pdfrwt>
<totfact> 0.57763624E-01</totfact>
</mgrwt>
</event>
<event>
 6    1  0.9906445E-006  0.1895443E+04  0.7818608E-02  0.8657128E-01
         -2   -1    0    0    0  501 -0.00000000000E+00  0.00000000000E+00  0.12319678707E+04  0.12319678707E+04  0.00000000000E+00 0.  1.
          2   -1    0    0  501    0  0.00000000000E+00 -0.00000000000E+00 -0.72905776058E+03  0.72905776058E+03  0.00000000000E+00 0. -1.
         23    2    1    2    0    0 -0.43056586044E+03 -0.14708209643E+03 -0.60565815619E+03  0.76271694638E+03  0.88855134176E+02 0.  0.
         11    1    3    3    0    0 -0.23956584539E+03 -0.63182989275E+02 -0.26120936181E+03  0.36001974266E+03  0.00000000000E+00 0. -1.
        -11    1    3    3    0    0 -0.19100001505E+03 -0.83899107154E+02 -0.34444879438E+03  0.40269720371E+03  0.00000000000E+00 0.  1.
         22    1    1    2    0    0  0.43056586044E+03  0.14708209643E+03  0.11085682663E+04  0.11983086849E+04  0.00000000000E+00 0.  1.
<mgrwt>
<rscale>  0 0.18954427E+04</rscale>
<asrwt>0</asrwt>
<pdfrwt beam="1">  1        2 0.11216273E+00 0.18954427E+04</pdfrwt>
<pdfrwt beam="2">  1       -2 0.18953352E+00 0.18954427E+04</pdfrwt>
<totfact> 0.56860773E+00</totfact>
</mgrwt>
</event>
<event>
 6    1  0.9906445E-006  0.9976815E+03  0.7818608E-02  0.9311091E-01
         -1   -1    0    0    0  501 -0.00000000000E+00  0.00000000000E+00  0.65186170128E+03  0.65186170128E+03  0.00000000000E+00 0.  1.
          1   -1    0    0  501    0  0.00000000000E+00 -0.00000000000E+00 -0.38174063545E+03  0.38174063545E+03  0.00000000000E+00 0. -1.
         23    2    1    2    0    0  0.45608598394E+03 -0.19119487411E+03  0.13480032000E+03  0.52088252155E+03  0.92615173464E+02 0.  0.
         11    1    3    3    0    0  0.39428086992E+03 -0.13215190263E+03  0.94781829725E+02  0.42650337044E+03  0.00000000000E+00 0. -1.
        -11    1    3    3    0    0  0.61805114016E+02 -0.59042971483E+02  0.40018490273E+02  0.94379151107E+02  0.00000000000E+00 0.  1.
         22    1    1    2    0    0 -0.45608598394E+03  0.19119487411E+03  0.13532074583E+03  0.51271981518E+03  0.00000000000E+00 0. -1.
<mgrwt>
<rscale>  0 0.99768151E+03</rscale>
<asrwt>0</asrwt>
<pdfrwt beam="1">  1        1 0.58729329E-01 0.99768151E+03</pdfrwt>
<pdfrwt beam="2">  1       -1 0.10028642E+00 0.99768151E+03</pdfrwt>
<totfact> 0.60658060E+01</totfact>
</mgrwt>
</event>
<event>
 6    1  0.9906445E-006  0.1495673E+04  0.7818608E-02  0.8887336E-01
         -1   -1    0    0    0  501 -0.00000000000E+00  0.00000000000E+00  0.49059710212E+03  0.49059710212E+03  0.00000000000E+00 0.  1.
          1   -1    0    0  501    0  0.00000000000E+00 -0.00000000000E+00 -0.11399559700E+04  0.11399559700E+04  0.00000000000E+00 0. -1.
         23    2    1    2    0    0 -0.60782810136E+03 -0.33434694171E+03 -0.29825605214E+02  0.70046472051E+03  0.92295068798E+02 0.  0.
         13    1    3    3    0    0 -0.54228195891E+03 -0.32727791628E+03 -0.19133545499E+02  0.63367708654E+03  0.00000000000E+00 0. -1.
        -13    1    3    3    0    0 -0.65546142453E+02 -0.70690254285E+01 -0.10692059715E+02  0.66787633974E+02  0.00000000000E+00 0.  1.
         22    1    1    2    0    0  0.60782810136E+03  0.33434694171E+03 -0.61953326266E+03  0.93008835160E+03  0.00000000000E+00 0. -1.
<mgrwt>
<rscale>  0 0.14956726E+04</rscale>
<asrwt>0</asrwt>
<pdfrwt beam="1">  1        1 0.17537784E+00 0.14956726E+04</pdfrwt>
<pdfrwt beam="2">  1       -1 0.75476477E-01 0.14956726E+04</pdfrwt>
<totfact> 0.20206790E+01</totfact>
</mgrwt>
</event>
<event>
 6    1  0.9906445E-006  0.1709660E+04  0.7818608E-02  0.8755874E-01
         -3   -1    0    0    0  501 -0.00000000000E+00  0.00000000000E+00  0.86004602362E+03  0.86004602362E+03  0.00000000000E+00 0.  1.
          3   -1    0    0  501    0  0.00000000000E+00 -0.00000000000E+00 -0.84964569096E+03  0.84964569096E+03  0.00000000000E+00 0. -1.
         23    2    1    2    0    0 -0.69678394478E+03  0.20301326256E+03  0.45203950480E+03  0.86012275986E+03  0.93537145851E+02 0.  0.
         13    1    3    3    0    0 -0.33892291389E+03  0.50163200978E+02  0.21352835442E+03  0.40370712954E+03  0.00000000000E+00 0.  1.
        -13    1    3    3    0    0 -0.35786103088E+03  0.15285006158E+03  0.23851115037E+03  0.45641563032E+03  0.00000000000E+00 0. -1.
         22    1    1    2    0    0  0.69678394478E+03 -0.20301326256E+03 -0.44163917213E+03  0.84956895473E+03  0.00000000000E+00 0. -1.
<mgrwt>
<rscale>  0 0.17096601E+04</rscale>
<asrwt>0</asrwt>
<pdfrwt beam="1">  1        3 0.13071472E+00 0.17096601E+04</pdfrwt>
<pdfrwt beam="2">  1       -3 0.13231477E+00 0.17096601E+04</pdfrwt>
<totfact> 0.50700553E-01</totfact>
</mgrwt>
</event>
<event>
 6    1  0.9906445E-006  0.2257023E+04  0.7818608E-02  0.8495062E-01
          2   -1    0    0  501    0  0.00000000000E+00  0.00000000000E+00  0.52901054507E+03  0.52901054507E+03  0.00000000000E+00 0. -1.
         -2   -1    0    0    0  501 -0.00000000000E+00 -0.00000000000E+00 -0.24073967402E+04  0.24073967402E+04  0.00000000000E+00 0.  1.
         23    2    1    2    0    0  0.37019949761E+03 -0.90834721819E+03 -0.16618973413E+04  0.19319125065E+04  0.90778977769E+02 0.  0.
         13    1    3    3    0    0  0.15637327326E+03 -0.39474574180E+03 -0.80812301621E+03  0.91287436736E+03  0.00000000000E+00 0. -1.
        -13    1    3    3    0    0  0.21382622435E+03 -0.51360147639E+03 -0.85377432510E+03  0.10190381391E+04  0.00000000000E+00 0.  1.
         22    1    1    2    0    0 -0.37019949761E+03  0.90834721819E+03 -0.21648885384E+03  0.10044947788E+04  0.00000000000E+00 0.  1.
<mgrwt>
<rscale>  0 0.22570230E+04</rscale>
<asrwt>0</asrwt>
<pdfrwt beam="1">  1        2 0.81386237E-01 0.22570230E+04</pdfrwt>
<pdfrwt beam="2">  1       -2 0.37036873E+00 0.22570230E+04</pdfrwt>
<totfact> 0.60638792E-01</totfact>
</mgrwt>
</event>
<event>
 6    1  0.9906445E-006  0.5564652E+04  0.7818608E-02  0.7746855E-01
          2   -1    0    0  501    0  0.00000000000E+00  0.00000000000E+00  0.41249279598E+04  0.41249279598E+04  0.00000000000E+00 0. -1.
         -2   -1    0    0    0  501 -0.00000000000E+00 -0.00000000000E+00 -0.18767208496E+04  0.18767208496E+04  0.00000000000E+00 0.  1.
         23    2    1    2    0    0  0.24112757740E+03 -0.22517993590E+04  0.28662925002E+04  0.36541453672E+04  0.91666823046E+02 0.  0.
         13    1    3    3    0    0  0.61648554433E+02 -0.93368957192E+03  0.12226951057E+04  0.15396623274E+04  0.00000000000E+00 0.  1.
        -13    1    3    3    0    0  0.17947902296E+03 -0.13181097870E+04  0.16435973945E+04  0.21144830398E+04  0.00000000000E+00 0. -1.
         22    1    1    2    0    0 -0.24112757740E+03  0.22517993590E+04 -0.61808539002E+03  0.23475034422E+04  0.00000000000E+00 0.  1.
<mgrwt>
<rscale>  0 0.55646521E+04</rscale>
<asrwt>0</asrwt>
<pdfrwt beam="1">  1        2 0.63460430E+00 0.55646521E+04</pdfrwt>
<pdfrwt beam="2">  1       -2 0.28872628E+00 0.55646521E+04</pdfrwt>
<totfact> 0.69498391E-03</totfact>
</mgrwt>
</event>
<event>
 6    1  0.1175911E-005  0.2686768E+04  0.7818608E-02  0.8339311E-01
         -1   -1    0    0    0  501 -0.00000000000E+00  0.00000000000E+00  0.95352712395E+03  0.95352712395E+03  0.00000000000E+00 0.  1.
          1   -1    0    0  501    0  0.00000000000E+00 -0.00000000000E+00 -0.18926373220E+04  0.18926373220E+04  0.00000000000E+00 0. -1.
         23    2    1    2    0    0  0.73587387663E+03  0.11190687750E+04 -0.38366017715E+03  0.13962161671E+04  0.91646976774E+02 0.  0.
         11    1    3    3    0    0  0.43876705848E+03  0.59510514551E+03 -0.23481094978E+03  0.77575952973E+03  0.00000000000E+00 0. -1.
        -11    1    3    3    0    0  0.29710681815E+03  0.52396362949E+03 -0.14884922737E+03  0.62045663741E+03  0.00000000000E+00 0.  1.
         22    1    1    2    0    0 -0.73587387663E+03 -0.11190687750E+04 -0.55545002089E+03  0.14499482788E+04  0.00000000000E+00 0.  1.
<mgrwt>
<rscale>  0 0.26867683E+04</rscale>
<asrwt>0</asrwt>
<pdfrwt beam="1">  1        1 0.29117497E+00 0.26867683E+04</pdfrwt>
<pdfrwt beam="2">  1       -1 0.14669648E+00 0.26867683E+04</pdfrwt>
<totfact> 0.11411010E+00</totfact>
</mgrwt>
</event>
<event>
 6    1  0.9906445E-006  0.1585515E+04  0.7818608E-02  0.8829496E-01
          1   -1    0    0  501    0  0.00000000000E+00  0.00000000000E+00  0.70388476591E+03  0.70388476591E+03  0.00000000000E+00 0. -1.
         -1   -1    0    0    0  501 -0.00000000000E+00 -0.00000000000E+00 -0.89285159787E+03  0.89285159787E+03  0.00000000000E+00 0.  1.
         23    2    1    2    0    0  0.75088928545E+03 -0.10952394126E+03  0.12725676005E+03  0.77464903700E+03  0.89758759148E+02 0.  0.
         13    1    3    3    0    0  0.44722196552E+02 -0.26711491310E+02  0.18998103919E+02  0.55448233380E+02  0.00000000000E+00 0.  1.
        -13    1    3    3    0    0  0.70616708890E+03 -0.82812449951E+02  0.10825865613E+03  0.71920080362E+03  0.00000000000E+00 0. -1.
         22    1    1    2    0    0 -0.75088928545E+03  0.10952394126E+03 -0.31622359201E+03  0.82208732678E+03  0.00000000000E+00 0.  1.
<mgrwt>
<rscale>  0 0.15855152E+04</rscale>
<asrwt>0</asrwt>
<pdfrwt beam="1">  1        1 0.10828996E+00 0.15855152E+04</pdfrwt>
<pdfrwt beam="2">  1       -1 0.13736178E+00 0.15855152E+04</pdfrwt>
<totfact> 0.11433707E+01</totfact>
</mgrwt>
</event>
<event>
 6    1  0.9906445E-006  0.4918022E+04  0.7818608E-02  0.7841279E-01
         -2   -1    0    0    0  501 -0.00000000000E+00  0.00000000000E+00  0.18561090893E+04  0.18561090893E+04  0.00000000000E+00 0.  1.
          2   -1    0    0  501    0  0.00000000000E+00 -0.00000000000E+00 -0.32577478767E+04  0.32577478767E+04  0.00000000000E+00 0. -1.
         23    2    1    2    0    0  0.14765483176E+04 -0.16850170290E+04  0.35113727602E+03  0.22692653872E+04  0.82405633420E+02 0.  0.
         11    1    3    3    0    0  0.80718650197E+03 -0.89558273803E+03  0.22685022779E+03  0.12268168223E+04  0.00000000000E+00 0. -1.
        -11    1    3    3    0    0  0.66936181566E+03 -0.78943429097E+03  0.12428704824E+03  0.10424485649E+04  0.00000000000E+00 0.  1.
         22    1    1    2    0    0 -0.14765483176E+04  0.16850170290E+04 -0.17527760634E+04  0.28445915789E+04  0.00000000000E+00 0. -1.
<mgrwt>
<rscale>  0 0.49180221E+04</rscale>
<asrwt>0</asrwt>
<pdfrwt beam="1">  1        2 0.50119198E+00 0.49180221E+04</pdfrwt>
<pdfrwt beam="2">  1       -2 0.28555525E+00 0.49180221E+04</pdfrwt>
<totfact> 0.33876316E-02</totfact>
</mgrwt>
</event>
<event>
 6    1  0.9906445E-006  0.2080206E+04  0.7818608E-02  0.8570013E-01
         -1   -1    0    0    0  501 -0.00000000000E+00  0.00000000000E+00  0.53861975275E+03  0.53861975275E+03  0.00000000000E+00 0.  1.
          1   -1    0    0  501    0  0.00000000000E+00 -0.00000000000E+00 -0.20084938213E+04  0.20084938213E+04  0.00000000000E+00 0. -1.
         23    2    1    2    0    0  0.71387448477E+03 -0.77289669196E+02 -0.16549602831E+04  0.18055966291E+04  0.75466386017E+02 0.  0.
         13    1    3    3    0    0  0.28478668721E+03 -0.59426458040E+02 -0.60972358755E+03  0.67557221253E+03  0.00000000000E+00 0.  1.
        -13    1    3    3    0    0  0.42908779756E+03 -0.17863211156E+02 -0.10452366955E+04  0.11300244165E+04  0.00000000000E+00 0. -1.
         22    1    1    2    0    0 -0.71387448477E+03  0.77289669196E+02  0.18508621446E+03  0.74151694502E+03  0.00000000000E+00 0.  1.
<mgrwt>
<rscale>  0 0.20802062E+04</rscale>
<asrwt>0</asrwt>
<pdfrwt beam="1">  1        1 0.30899906E+00 0.20802062E+04</pdfrwt>
<pdfrwt beam="2">  1       -1 0.82864576E-01 0.20802062E+04</pdfrwt>
<totfact> 0.39184882E+00</totfact>
</mgrwt>
</event>
<event>
 6    1  0.9906445E-006  0.2773812E+04  0.7818608E-02  0.8311445E-01
          2   -1    0    0  501    0  0.00000000000E+00  0.00000000000E+00  0.33817888302E+04  0.33817888302E+04  0.00000000000E+00 0. -1.
         -2   -1    0    0    0  501 -0.00000000000E+00 -0.00000000000E+00 -0.56878431638E+03  0.56878431638E+03  0.00000000000E+00 0.  1.
         23    2    1    2    0    0  0.27067866519E+02  0.10412865710E+04  0.27090530224E+04  0.29037606969E+04  0.88586196012E+02 0.  0.
         13    1    3    3    0    0  0.18734618699E+01  0.12165063511E+03  0.40321008696E+03  0.42116595436E+03  0.00000000000E+00 0.  1.
        -13    1    3    3    0    0  0.25194404650E+02  0.91963593585E+03  0.23058429355E+04  0.24825947425E+04  0.00000000000E+00 0. -1.
         22    1    1    2    0    0 -0.27067866519E+02 -0.10412865710E+04  0.10395149139E+03  0.10468124497E+04  0.00000000000E+00 0.  1.
<mgrwt>
<rscale>  0 0.27738121E+04</rscale>
<asrwt>0</asrwt>
<pdfrwt beam="1">  1        2 0.52027519E+00 0.27738121E+04</pdfrwt>
<pdfrwt beam="2">  1       -2 0.87505282E-01 0.27738121E+04</pdfrwt>
<totfact> 0.96436069E-01</totfact>
</mgrwt>
</event>
<event>
 6    1  0.9906445E-006  0.1891539E+04  0.7818608E-02  0.8659080E-01
          1   -1    0    0  501    0  0.00000000000E+00  0.00000000000E+00  0.74088897167E+03  0.74088897167E+03  0.00000000000E+00 0. -1.
         -1   -1    0    0    0  501 -0.00000000000E+00 -0.00000000000E+00 -0.12073060719E+04  0.12073060719E+04  0.00000000000E+00 0.  1.
         23    2    1    2    0    0 -0.17208835235E+03 -0.87110918063E+03 -0.56261096528E+03  0.10550551524E+04  0.90358567716E+02 0.  0.
         11    1    3    3    0    0 -0.11986351199E+03 -0.66608784836E+03 -0.38375134084E+03  0.77801373692E+03  0.00000000000E+00 0. -1.
        -11    1    3    3    0    0 -0.52224840363E+02 -0.20502133227E+03 -0.17885962444E+03  0.27704141548E+03  0.00000000000E+00 0.  1.
         22    1    1    2    0    0  0.17208835235E+03  0.87110918063E+03  0.96193865015E+02  0.89313989120E+03  0.00000000000E+00 0. -1.
<mgrwt>
<rscale>  0 0.18915388E+04</rscale>
<asrwt>0</asrwt>
<pdfrwt beam="1">  1        1 0.11398292E+00 0.18915388E+04</pdfrwt>
<pdfrwt beam="2">  1       -1 0.18573939E+00 0.18915388E+04</pdfrwt>
<totfact> 0.44257934E+00</totfact>
</mgrwt>
</event>
<event>
 6    1  0.9906445E-006  0.2988086E+04  0.7818608E-02  0.8247141E-01
          2   -1    0    0  501    0  0.00000000000E+00  0.00000000000E+00  0.41197080313E+04  0.41197080313E+04  0.00000000000E+00 0. -1.
         -2   -1    0    0    0  501 -0.00000000000E+00 -0.00000000000E+00 -0.54182589709E+03  0.54182589709E+03  0.00000000000E+00 0.  1.
         23    2    1    2    0    0  0.76777787529E+03 -0.44218566924E+03 -0.82708918043E+02  0.89524425768E+03  0.98033075613E+02 0.  0.
         13    1    3    3    0    0  0.52303246819E+03 -0.28994716377E+03 -0.10074360724E+03  0.60644999378E+03  0.00000000000E+00 0. -1.
        -13    1    3    3    0    0  0.24474540710E+03 -0.15223850547E+03  0.18034689196E+02  0.28879426390E+03  0.00000000000E+00 0.  1.
         22    1    1    2    0    0 -0.76777787529E+03  0.44218566924E+03  0.36605910522E+04  0.37662896707E+04  0.00000000000E+00 0. -1.
<mgrwt>
<rscale>  0 0.29880860E+04</rscale>
<asrwt>0</asrwt>
<pdfrwt beam="1">  1        2 0.63380122E+00 0.29880860E+04</pdfrwt>
<pdfrwt beam="2">  1       -2 0.83357833E-01 0.29880860E+04</pdfrwt>
<totfact> 0.29385175E-01</totfact>
</mgrwt>
</event>
<event>
 6    1  0.9906445E-006  0.3067204E+04  0.7818608E-02  0.8224796E-01
          1   -1    0    0  501    0  0.00000000000E+00  0.00000000000E+00  0.17970237166E+04  0.17970237166E+04  0.00000000000E+00 0. -1.
         -1   -1    0    0    0  501 -0.00000000000E+00 -0.00000000000E+00 -0.13087951102E+04  0.13087951102E+04  0.00000000000E+00 0.  1.
         23    2    1    2    0    0 -0.10105431741E+04 -0.10142226653E+04 -0.30851573864E+03  0.14673296834E+04  0.89606457559E+02 0.  0.
         11    1    3    3    0    0 -0.22565439420E+03 -0.17603436601E+03 -0.65094970960E+02  0.29350529618E+03  0.00000000000E+00 0.  1.
        -11    1    3    3    0    0 -0.78488877993E+03 -0.83818829932E+03 -0.24342076768E+03  0.11738243873E+04  0.00000000000E+00 0. -1.
         22    1    1    2    0    0  0.10105431741E+04  0.10142226653E+04  0.79674434506E+03  0.16384891434E+04  0.00000000000E+00 0. -1.
<mgrwt>
<rscale>  0 0.30672045E+04</rscale>
<asrwt>0</asrwt>
<pdfrwt beam="1">  1        1 0.27646519E+00 0.30672045E+04</pdfrwt>
<pdfrwt beam="2">  1       -1 0.20135309E+00 0.30672045E+04</pdfrwt>
<totfact> 0.51021951E-01</totfact>
</mgrwt>
</event>
<event>
 6    1  0.9906445E-006  0.2724287E+04  0.7818608E-02  0.8327168E-01
          1   -1    0    0  501    0  0.00000000000E+00  0.00000000000E+00  0.30645308054E+04  0.30645308054E+04  0.00000000000E+00 0. -1.
         -1   -1    0    0    0  501 -0.00000000000E+00 -0.00000000000E+00 -0.60545459293E+03  0.60545459293E+03  0.00000000000E+00 0.  1.
         23    2    1    2    0    0 -0.40840730215E+03  0.59114707454E+03  0.27874304295E+04  0.28800057277E+04  0.91723518475E+02 0.  0.
         11    1    3    3    0    0 -0.37178844340E+03  0.48426198365E+03  0.22997903992E+04  0.23794478763E+04  0.00000000000E+00 0. -1.
        -11    1    3    3    0    0 -0.36618858748E+02  0.10688509089E+03  0.48764003027E+03  0.50055785140E+03  0.00000000000E+00 0.  1.
         22    1    1    2    0    0  0.40840730215E+03 -0.59114707454E+03 -0.32835421705E+03  0.78997967065E+03  0.00000000000E+00 0.  1.
<mgrwt>
<rscale>  0 0.27242865E+04</rscale>
<asrwt>0</asrwt>
<pdfrwt beam="1">  1        1 0.47146627E+00 0.27242865E+04</pdfrwt>
<pdfrwt beam="2">  1       -1 0.93146863E-01 0.27242865E+04</pdfrwt>
<totfact> 0.52245099E-01</totfact>
</mgrwt>
</event>
<event>
 6    1  0.9906445E-006  0.1248665E+04  0.7818608E-02  0.9071295E-01
         -1   -1    0    0    0  501 -0.00000000000E+00  0.00000000000E+00  0.36648054261E+03  0.36648054261E+03  0.00000000000E+00 0.  1.
          1   -1    0    0  501    0  0.00000000000E+00 -0.00000000000E+00 -0.10636070678E+04  0.10636070678E+04  0.00000000000E+00 0. -1.
         23    2    1    2    0    0  0.14032424457E+03 -0.52176132395E+03  0.67923049312E+00  0.54755792510E+03  0.88845074146E+02 0.  0.
         13    1    3    3    0    0  0.94874487666E+02 -0.18702447617E+03  0.33437009042E+01  0.20973913186E+03  0.00000000000E+00 0. -1.
        -13    1    3    3    0    0  0.45449756901E+02 -0.33473684778E+03 -0.26644704111E+01  0.33781879324E+03  0.00000000000E+00 0.  1.
         22    1    1    2    0    0 -0.14032424457E+03  0.52176132395E+03 -0.69780575566E+03  0.88252968529E+03  0.00000000000E+00 0. -1.
<mgrwt>
<rscale>  0 0.12486654E+04</rscale>
<asrwt>0</asrwt>
<pdfrwt beam="1">  1        1 0.16363186E+00 0.12486654E+04</pdfrwt>
<pdfrwt beam="2">  1       -1 0.56381622E-01 0.12486654E+04</pdfrwt>
<totfact> 0.42416037E+01</totfact>
</mgrwt>
</event>
<event>
 6    1  0.9906445E-006  0.1175749E+04  0.7818608E-02  0.9134352E-01
         -1   -1    0    0    0  501 -0.00000000000E+00  0.00000000000E+00  0.24413175933E+03  0.24413175933E+03  0.00000000000E+00 0.  1.
          1   -1    0    0  501    0  0.00000000000E+00 -0.00000000000E+00 -0.14156143747E+04  0.14156143747E+04  0.00000000000E+00 0. -1.
         23    2    1    2    0    0 -0.21114083917E+03  0.52514901409E+03 -0.79386695033E+03  0.97933777761E+03  0.92281129594E+02 0.  0.
         13    1    3    3    0    0 -0.14570648903E+03  0.27167570730E+03 -0.37575788224E+03  0.48603709421E+03  0.00000000000E+00 0.  1.
        -13    1    3    3    0    0 -0.65434350146E+02  0.25347330679E+03 -0.41810906809E+03  0.49330068341E+03  0.00000000000E+00 0. -1.
         22    1    1    2    0    0  0.21114083917E+03 -0.52514901409E+03 -0.37761566501E+03  0.68040835638E+03  0.00000000000E+00 0.  1.
<mgrwt>
<rscale>  0 0.11757490E+04</rscale>
<asrwt>0</asrwt>
<pdfrwt beam="1">  1        1 0.21778682E+00 0.11757490E+04</pdfrwt>
<pdfrwt beam="2">  1       -1 0.37558734E-01 0.11757490E+04</pdfrwt>
<totfact> 0.50721483E+01</totfact>
</mgrwt>
</event>
<event>
 6    1  0.9906445E-006  0.2286532E+04  0.7818608E-02  0.8483250E-01
         -2   -1    0    0    0  501 -0.00000000000E+00  0.00000000000E+00  0.74440938774E+03  0.74440938774E+03  0.00000000000E+00 0.  1.
          2   -1    0    0  501    0  0.00000000000E+00 -0.00000000000E+00 -0.17558310032E+04  0.17558310032E+04  0.00000000000E+00 0. -1.
         23    2    1    2    0    0  0.19395722889E+03 -0.20985665889E+03  0.70187002002E+03  0.76328113634E+03  0.91199474601E+02 0.  0.
         11    1    3    3    0    0  0.14330733111E+03 -0.10648376767E+03  0.49967343271E+03  0.53061221554E+03  0.00000000000E+00 0.  1.
        -11    1    3    3    0    0  0.50649897782E+02 -0.10337289122E+03  0.20219658731E+03  0.23266892080E+03  0.00000000000E+00 0. -1.
         22    1    1    2    0    0 -0.19395722889E+03  0.20985665889E+03 -0.17132916354E+04  0.17369592546E+04  0.00000000000E+00 0. -1.
<mgrwt>
<rscale>  0 0.22865319E+04</rscale>
<asrwt>0</asrwt>
<pdfrwt beam="1">  1        2 0.27012784E+00 0.22865319E+04</pdfrwt>
<pdfrwt beam="2">  1       -2 0.11452452E+00 0.22865319E+04</pdfrwt>
<totfact> 0.49363255E+00</totfact>
</mgrwt>
</event>
<event>
 6    1  0.9906445E-006  0.1523175E+04  0.7818608E-02  0.8869186E-01
          1   -1    0    0  501    0  0.00000000000E+00  0.00000000000E+00  0.40997081070E+03  0.40997081070E+03  0.00000000000E+00 0. -1.
         -1   -1    0    0    0  501 -0.00000000000E+00 -0.00000000000E+00 -0.14147734427E+04  0.14147734427E+04  0.00000000000E+00 0.  1.
         23    2    1    2    0    0  0.42586780935E+03  0.10435158244E+03 -0.12461968059E+04  0.13242207365E+04  0.91112218662E+02 0.  0.
         11    1    3    3    0    0  0.54891188905E+02  0.25297718374E+02 -0.27539899889E+03  0.28195323329E+03  0.00000000000E+00 0.  1.
        -11    1    3    3    0    0  0.37097662044E+03  0.79053864064E+02 -0.97079780696E+03  0.10422675033E+04  0.00000000000E+00 0. -1.
         22    1    1    2    0    0 -0.42586780935E+03 -0.10435158244E+03  0.24139417382E+03  0.50052351688E+03  0.00000000000E+00 0. -1.
<mgrwt>
<rscale>  0 0.15231754E+04</rscale>
<asrwt>0</asrwt>
<pdfrwt beam="1">  1        1 0.63072431E-01 0.15231754E+04</pdfrwt>
<pdfrwt beam="2">  1       -1 0.21765746E+00 0.15231754E+04</pdfrwt>
<totfact> 0.63959093E+00</totfact>
</mgrwt>
</event>
<event>
 6    1  0.9906445E-006  0.3423910E+04  0.7818608E-02  0.8132063E-01
         -1   -1    0    0    0  501 -0.00000000000E+00  0.00000000000E+00  0.10304165672E+04  0.10304165672E+04  0.00000000000E+00 0.  1.
          1   -1    0    0  501    0  0.00000000000E+00 -0.00000000000E+00 -0.28442772360E+04  0.28442772360E+04  0.00000000000E+00 0. -1.
         23    2    1    2    0    0  0.12254031267E+04  0.96576403538E+01  0.44335889725E+03  0.13062806233E+04  0.89977008755E+02 0.  0.
         11    1    3    3    0    0  0.10388445095E+03  0.11996928134E+02  0.62640741448E+02  0.12190064776E+03  0.00000000000E+00 0. -1.
        -11    1    3    3    0    0  0.11215186758E+04 -0.23392877802E+01  0.38071815580E+03  0.11843799756E+04  0.00000000000E+00 0.  1.
         22    1    1    2    0    0 -0.12254031267E+04 -0.96576403538E+01 -0.22572195661E+04  0.25684131799E+04  0.00000000000E+00 0. -1.
<mgrwt>
<rscale>  0 0.34239103E+04</rscale>
<asrwt>0</asrwt>
<pdfrwt beam="1">  1        1 0.43758110E+00 0.34239103E+04</pdfrwt>
<pdfrwt beam="2">  1       -1 0.15852563E+00 0.34239103E+04</pdfrwt>
<totfact> 0.19065294E-01</totfact>
</mgrwt>
</event>
<event>
 6    1  0.1140228E-005  0.3160615E+04  0.7818608E-02  0.8199297E-01
         -1   -1    0    0    0  501 -0.00000000000E+00  0.00000000000E+00  0.91495495738E+03  0.91495495738E+03  0.00000000000E+00 0.  1.
          1   -1    0    0  501    0  0.00000000000E+00 -0.00000000000E+00 -0.27295028537E+04  0.27295028537E+04  0.00000000000E+00 0. -1.
         23    2    1    2    0    0  0.45360457001E+03 -0.14183432694E+04 -0.30138824462E+03  0.15214630236E+04  0.80994582518E+02 0.  0.
         11    1    3    3    0    0  0.29342409745E+03 -0.88413519991E+03 -0.14978846229E+03  0.94351965327E+03  0.00000000000E+00 0. -1.
        -11    1    3    3    0    0  0.16018047256E+03 -0.53420806954E+03 -0.15159978233E+03  0.57794337037E+03  0.00000000000E+00 0.  1.
         22    1    1    2    0    0 -0.45360457001E+03  0.14183432694E+04 -0.15131596517E+04  0.21229947874E+04  0.00000000000E+00 0. -1.
<mgrwt>
<rscale>  0 0.31606152E+04</rscale>
<asrwt>0</asrwt>
<pdfrwt beam="1">  1        1 0.41992352E+00 0.31606152E+04</pdfrwt>
<pdfrwt beam="2">  1       -1 0.14076230E+00 0.31606152E+04</pdfrwt>
<totfact> 0.32428293E-01</totfact>
</mgrwt>
</event>
<event>
 6    1  0.9906445E-006  0.6796894E+03  0.7818608E-02  0.9752611E-01
         -2   -1    0    0    0  501 -0.00000000000E+00  0.00000000000E+00  0.50265465254E+02  0.50265465254E+02  0.00000000000E+00 0.  1.
          2   -1    0    0  501    0  0.00000000000E+00 -0.00000000000E+00 -0.22976891192E+04  0.22976891192E+04  0.00000000000E+00 0. -1.
         23    2    1    2    0    0 -0.17109280923E+03 -0.27736324789E+03 -0.13925953873E+04  0.14331133490E+04  0.91043053890E+02 0.  0.
         13    1    3    3    0    0 -0.64118946166E+01 -0.63636977615E+02 -0.37184560204E+03  0.37730614767E+03  0.00000000000E+00 0.  1.
        -13    1    3    3    0    0 -0.16468091462E+03 -0.21372627027E+03 -0.10207497853E+04  0.10558072014E+04  0.00000000000E+00 0. -1.
         22    1    1    2    0    0  0.17109280923E+03  0.27736324789E+03 -0.85482826661E+03  0.91484123543E+03  0.00000000000E+00 0.  1.
<mgrwt>
<rscale>  0 0.67968938E+03</rscale>
<asrwt>0</asrwt>
<pdfrwt beam="1">  1        2 0.35349064E+00 0.67968938E+03</pdfrwt>
<pdfrwt beam="2">  1       -2 0.77331483E-02 0.67968938E+03</pdfrwt>
<totfact> 0.49014995E+02</totfact>
</mgrwt>
</event>
<event>
 6    1  0.9906445E-006  0.1774462E+04  0.7818608E-02  0.8719999E-01
         -2   -1    0    0    0  501 -0.00000000000E+00  0.00000000000E+00  0.54554093729E+03  0.54554093729E+03  0.00000000000E+00 0.  1.
          2   -1    0    0  501    0  0.00000000000E+00 -0.00000000000E+00 -0.14429333575E+04  0.14429333575E+04  0.00000000000E+00 0. -1.
         23    2    1    2    0    0 -0.54442896033E+02 -0.41689857870E+03  0.42270225693E+03  0.60304352767E+03  0.90641295232E+02 0.  0.
         13    1    3    3    0    0  0.10773310993E+02 -0.68398917121E+02  0.34709162353E+02  0.77454515971E+02  0.00000000000E+00 0.  1.
        -13    1    3    3    0    0 -0.65216207026E+02 -0.34849966157E+03  0.38799309458E+03  0.52558901170E+03  0.00000000000E+00 0. -1.
         22    1    1    2    0    0  0.54442896033E+02  0.41689857870E+03 -0.13200946772E+04  0.13854307671E+04  0.00000000000E+00 0. -1.
<mgrwt>
<rscale>  0 0.17744624E+04</rscale>
<asrwt>0</asrwt>
<pdfrwt beam="1">  1        2 0.22198975E+00 0.17744624E+04</pdfrwt>
<pdfrwt beam="2">  1       -2 0.83929374E-01 0.17744624E+04</pdfrwt>
<totfact> 0.16045369E+01</totfact>
</mgrwt>
</event>
<event>
 6    1  0.9906445E-006  0.4116665E+04  0.7818608E-02  0.7981416E-01
          2   -1    0    0  501    0  0.00000000000E+00  0.00000000000E+00  0.34402462621E+04  0.34402462621E+04  0.00000000000E+00 0. -1.
         -2   -1    0    0    0  501 -0.00000000000E+00 -0.00000000000E+00 -0.12315201673E+04  0.12315201673E+04  0.00000000000E+00 0.  1.
         23    2    1    2    0    0  0.18025999991E+04  0.61926829031E+03  0.22609345419E+03  0.19215496816E+04  0.91514789069E+02 0.  0.
         13    1    3    3    0    0  0.10437875125E+04  0.36912913084E+03  0.17563261572E+03  0.11209797064E+04  0.00000000000E+00 0.  1.
        -13    1    3    3    0    0  0.75881248664E+03  0.25013915948E+03  0.50460838468E+02  0.80056997521E+03  0.00000000000E+00 0. -1.
         22    1    1    2    0    0 -0.18025999991E+04 -0.61926829031E+03  0.19826326406E+04  0.27502167478E+04  0.00000000000E+00 0. -1.
<mgrwt>
<rscale>  0 0.41166650E+04</rscale>
<asrwt>0</asrwt>
<pdfrwt beam="1">  1        2 0.52926866E+00 0.41166650E+04</pdfrwt>
<pdfrwt beam="2">  1       -2 0.18946464E+00 0.41166650E+04</pdfrwt>
<totfact> 0.10908736E-01</totfact>
</mgrwt>
</event>
<event>
 6    1  0.9906445E-006  0.4575073E+04  0.7818608E-02  0.7897624E-01
         -2   -1    0    0    0  501 -0.00000000000E+00  0.00000000000E+00  0.23859634631E+04  0.23859634631E+04  0.00000000000E+00 0.  1.
          2   -1    0    0  501    0  0.00000000000E+00 -0.00000000000E+00 -0.21931695371E+04  0.21931695371E+04  0.00000000000E+00 0. -1.
         23    2    1    2    0    0 -0.11689712768E+04 -0.65119584487E+03  0.19522676646E+04  0.23686358364E+04  0.92394896808E+02 0.  0.
         11    1    3    3    0    0 -0.41706501333E+03 -0.20466352755E+03  0.61341231067E+03  0.76948362409E+03  0.00000000000E+00 0.  1.
        -11    1    3    3    0    0 -0.75190626343E+03 -0.44653231732E+03  0.13388553539E+04  0.15991522123E+04  0.00000000000E+00 0. -1.
         22    1    1    2    0    0  0.11689712768E+04  0.65119584487E+03 -0.17594737386E+04  0.22104971638E+04  0.00000000000E+00 0. -1.
<mgrwt>
<rscale>  0 0.45750726E+04</rscale>
<asrwt>0</asrwt>
<pdfrwt beam="1">  1        2 0.33741070E+00 0.45750726E+04</pdfrwt>
<pdfrwt beam="2">  1       -2 0.36707130E+00 0.45750726E+04</pdfrwt>
<totfact> 0.47562293E-02</totfact>
</mgrwt>
</event>
<event>
 6    1  0.9906445E-006  0.3510976E+04  0.7818608E-02  0.8111194E-01
          1   -1    0    0  501    0  0.00000000000E+00  0.00000000000E+00  0.18364685523E+04  0.18364685523E+04  0.00000000000E+00 0. -1.
         -1   -1    0    0    0  501 -0.00000000000E+00 -0.00000000000E+00 -0.16780788228E+04  0.16780788228E+04  0.00000000000E+00 0.  1.
         23    2    1    2    0    0 -0.10531164190E+04  0.13783902017E+04  0.34087855736E+03  0.17703237906E+04  0.93991449687E+02 0.  0.
         13    1    3    3    0    0 -0.15910339661E+03  0.23162848471E+03  0.23270549943E+02  0.28197014777E+03  0.00000000000E+00 0.  1.
        -13    1    3    3    0    0 -0.89401302242E+03  0.11467617170E+04  0.31760800741E+03  0.14883536429E+04  0.00000000000E+00 0. -1.
         22    1    1    2    0    0  0.10531164190E+04 -0.13783902017E+04 -0.18248882784E+03  0.17442235844E+04  0.00000000000E+00 0.  1.
<mgrwt>
<rscale>  0 0.35109765E+04</rscale>
<asrwt>0</asrwt>
<pdfrwt beam="1">  1        1 0.28253362E+00 0.35109765E+04</pdfrwt>
<pdfrwt beam="2">  1       -1 0.25816597E+00 0.35109765E+04</pdfrwt>
<totfact> 0.19344245E-01</totfact>
</mgrwt>
</event>
<event>
 6    1  0.9906445E-006  0.1520823E+04  0.7818608E-02  0.8870722E-01
          1   -1    0    0  501    0  0.00000000000E+00  0.00000000000E+00  0.10297647780E+04  0.10297647780E+04  0.00000000000E+00 0. -1.
         -1   -1    0    0    0  501 -0.00000000000E+00 -0.00000000000E+00 -0.56151267892E+03  0.56151267892E+03  0.00000000000E+00 0.  1.
         23    2    1    2    0    0  0.54139244862E+03  0.38179165342E+03 -0.14981855380E+03  0.68525208090E+03  0.90852436810E+02 0.  0.
         13    1    3    3    0    0  0.42953740510E+03  0.33601177425E+03 -0.99585337357E+02  0.55436768866E+03  0.00000000000E+00 0.  1.
        -13    1    3    3    0    0  0.11185504352E+03  0.45779879164E+02 -0.50233216445E+02  0.13088439224E+03  0.00000000000E+00 0. -1.
         22    1    1    2    0    0 -0.54139244862E+03 -0.38179165342E+03  0.61807065291E+03  0.90602537604E+03  0.00000000000E+00 0. -1.
<mgrwt>
<rscale>  0 0.15208234E+04</rscale>
<asrwt>0</asrwt>
<pdfrwt beam="1">  1        1 0.15842535E+00 0.15208234E+04</pdfrwt>
<pdfrwt beam="2">  1       -1 0.86386566E-01 0.15208234E+04</pdfrwt>
<totfact> 0.18314073E+01</totfact>
</mgrwt>
</event>
<event>
 6    1  0.9906445E-006  0.2526991E+04  0.7818608E-02  0.8393432E-01
          2   -1    0    0  501    0  0.00000000000E+00  0.00000000000E+00  0.30777542629E+04  0.30777542629E+04  0.00000000000E+00 0. -1.
         -2   -1    0    0    0  501 -0.00000000000E+00 -0.00000000000E+00 -0.51869674549E+03  0.51869674549E+03  0.00000000000E+00 0.  1.
         23    2    1    2    0    0 -0.12543063058E+04  0.37228505498E+02  0.10909602987E+04  0.16651354687E+04  0.88382607826E+02 0.  0.
         11    1    3    3    0    0 -0.47088658154E+03 -0.24798834847E+02  0.38525719008E+03  0.60891071381E+03  0.00000000000E+00 0. -1.
        -11    1    3    3    0    0 -0.78341972425E+03  0.62027340346E+02  0.70570310861E+03  0.10562247549E+04  0.00000000000E+00 0.  1.
         22    1    1    2    0    0  0.12543063058E+04 -0.37228505498E+02  0.14680972188E+04  0.19313155398E+04  0.00000000000E+00 0.  1.
<mgrwt>
<rscale>  0 0.25269912E+04</rscale>
<asrwt>0</asrwt>
<pdfrwt beam="1">  1        2 0.47350064E+00 0.25269912E+04</pdfrwt>
<pdfrwt beam="2">  1       -2 0.79799501E-01 0.25269912E+04</pdfrwt>
<totfact> 0.19238711E+00</totfact>
</mgrwt>
</event>
<event>
 6    1  0.9906445E-006  0.6672584E+04  0.7818608E-02  0.7612178E-01
          2   -1    0    0  501    0  0.00000000000E+00  0.00000000000E+00  0.26438249015E+04  0.26438249015E+04  0.00000000000E+00 0. -1.
         -2   -1    0    0    0  501 -0.00000000000E+00 -0.00000000000E+00 -0.42101294086E+04  0.42101294086E+04  0.00000000000E+00 0.  1.
         23    2    1    2    0    0  0.83764703663E+03  0.32283099014E+04 -0.72659410177E+03  0.34146591872E+04  0.91219508928E+02 0.  0.
         13    1    3    3    0    0  0.79644449011E+03  0.30739862833E+04 -0.71148686129E+03  0.32542171178E+04  0.00000000000E+00 0.  1.
        -13    1    3    3    0    0  0.41202546516E+02  0.15432361808E+03 -0.15107240483E+02  0.16044206946E+03  0.00000000000E+00 0. -1.
         22    1    1    2    0    0 -0.83764703663E+03 -0.32283099014E+04 -0.83971040534E+03  0.34392951229E+04  0.00000000000E+00 0.  1.
<mgrwt>
<rscale>  0 0.66725842E+04</rscale>
<asrwt>0</asrwt>
<pdfrwt beam="1">  1        2 0.40674230E+00 0.66725842E+04</pdfrwt>
<pdfrwt beam="2">  1       -2 0.64771221E+00 0.66725842E+04</pdfrwt>
<totfact> 0.64408805E-04</totfact>
</mgrwt>
</event>
<event>
 6    1  0.9906445E-006  0.2277924E+04  0.7818608E-02  0.8486677E-01
          2   -1    0    0  501    0  0.00000000000E+00  0.00000000000E+00  0.10932927237E+04  0.10932927237E+04  0.00000000000E+00 0. -1.
         -2   -1    0    0    0  501 -0.00000000000E+00 -0.00000000000E+00 -0.11865390974E+04  0.11865390974E+04  0.00000000000E+00 0.  1.
         23    2    1    2    0    0 -0.22346800950E+03 -0.25998611181E+03  0.10384746034E+04  0.10973246966E+04  0.90339683245E+02 0.  0.
         11    1    3    3    0    0 -0.50360741556E+02 -0.46312607644E+02  0.33696250428E+03  0.34383832132E+03  0.00000000000E+00 0. -1.
        -11    1    3    3    0    0 -0.17310726794E+03 -0.21367350417E+03  0.70151209907E+03  0.75348637529E+03  0.00000000000E+00 0.  1.
         22    1    1    2    0    0  0.22346800950E+03  0.25998611181E+03 -0.11317209770E+04  0.11825071245E+04  0.00000000000E+00 0.  1.
<mgrwt>
<rscale>  0 0.22779241E+04</rscale>
<asrwt>0</asrwt>
<pdfrwt beam="1">  1        2 0.16819888E+00 0.22779241E+04</pdfrwt>
<pdfrwt beam="2">  1       -2 0.18254448E+00 0.22779241E+04</pdfrwt>
<totfact> 0.34787828E+00</totfact>
</mgrwt>
</event>
<event>
 6    1  0.9906445E-006  0.5444005E+04  0.7818608E-02  0.7763441E-01
          1   -1    0    0  501    0  0.00000000000E+00  0.00000000000E+00  0.25204356516E+04  0.25204356516E+04  0.00000000000E+00 0.  1.
         -1   -1    0    0    0  501 -0.00000000000E+00 -0.00000000000E+00 -0.29396888175E+04  0.29396888175E+04  0.00000000000E+00 0. -1.
         23    2    1    2    0    0  0.10497728403E+04  0.11869814902E+04  0.20092333023E+04  0.25603840324E+04  0.87177151086E+02 0.  0.
         13    1    3    3    0    0  0.93314009846E+03  0.10771840655E+04  0.18398149977E+04  0.23272290777E+04  0.00000000000E+00 0. -1.
        -13    1    3    3    0    0  0.11663274186E+03  0.10979742475E+03  0.16941830464E+03  0.23315495471E+03  0.00000000000E+00 0.  1.
         22    1    1    2    0    0 -0.10497728403E+04 -0.11869814902E+04 -0.24284864682E+04  0.28997404367E+04  0.00000000000E+00 0. -1.
<mgrwt>
<rscale>  0 0.54440046E+04</rscale>
<asrwt>0</asrwt>
<pdfrwt beam="1">  1        1 0.38775933E+00 0.54440046E+04</pdfrwt>
<pdfrwt beam="2">  1       -1 0.45225982E+00 0.54440046E+04</pdfrwt>
<totfact> 0.28635762E-03</totfact>
</mgrwt>
</event>
<event>
 6    1  0.9906445E-006  0.3409607E+04  0.7818608E-02  0.8135553E-01
         -2   -1    0    0    0  501 -0.00000000000E+00  0.00000000000E+00  0.73364959514E+03  0.73364959514E+03  0.00000000000E+00 0.  1.
          2   -1    0    0  501    0  0.00000000000E+00 -0.00000000000E+00 -0.39615024821E+04  0.39615024821E+04  0.00000000000E+00 0. -1.
         23    2    1    2    0    0 -0.10266232794E+04 -0.80960237616E+02 -0.34838457498E+04  0.36340006913E+04  0.90938979586E+02 0.  0.
         13    1    3    3    0    0 -0.63143006244E+03 -0.93695709115E+02 -0.21298404015E+04  0.22234439380E+04  0.00000000000E+00 0.  1.
        -13    1    3    3    0    0 -0.39519321696E+03  0.12735471499E+02 -0.13540053483E+04  0.14105567533E+04  0.00000000000E+00 0. -1.
         22    1    1    2    0    0  0.10266232794E+04  0.80960237616E+02  0.25599286293E+03  0.10611513859E+04  0.00000000000E+00 0.  1.
<mgrwt>
<rscale>  0 0.34096068E+04</rscale>
<asrwt>0</asrwt>
<pdfrwt beam="1">  1        2 0.60946192E+00 0.34096068E+04</pdfrwt>
<pdfrwt beam="2">  1       -2 0.11286917E+00 0.34096068E+04</pdfrwt>
<totfact> 0.18727817E-01</totfact>
</mgrwt>
</event>
<event>
 6    1  0.9906445E-006  0.2338860E+04  0.7818608E-02  0.8462755E-01
         -1   -1    0    0    0  501 -0.00000000000E+00  0.00000000000E+00  0.51031413983E+03  0.51031413983E+03  0.00000000000E+00 0.  1.
          1   -1    0    0  501    0  0.00000000000E+00 -0.00000000000E+00 -0.26798530075E+04  0.26798530075E+04  0.00000000000E+00 0. -1.
         23    2    1    2    0    0 -0.54067720833E+02  0.10567523402E+04 -0.41282354917E+03  0.11393874085E+04  0.90175146445E+02 0.  0.
         11    1    3    3    0    0 -0.69793609661E+01  0.84566357073E+03 -0.32922939743E+03  0.90751726291E+03  0.00000000000E+00 0.  1.
        -11    1    3    3    0    0 -0.47088359867E+02  0.21108876944E+03 -0.83594151742E+02  0.23187014561E+03  0.00000000000E+00 0. -1.
         22    1    1    2    0    0  0.54067720833E+02 -0.10567523402E+04 -0.17567153185E+04  0.20507797388E+04  0.00000000000E+00 0. -1.
<mgrwt>
<rscale>  0 0.23388603E+04</rscale>
<asrwt>0</asrwt>
<pdfrwt beam="1">  1        1 0.41228508E+00 0.23388603E+04</pdfrwt>
<pdfrwt beam="2">  1       -1 0.78509867E-01 0.23388603E+04</pdfrwt>
<totfact> 0.14831089E+00</totfact>
</mgrwt>
</event>
<event>
 6    1  0.9906445E-006  0.1676137E+04  0.7818608E-02  0.8775093E-01
         -1   -1    0    0    0  501 -0.00000000000E+00  0.00000000000E+00  0.56997660697E+03  0.56997660697E+03  0.00000000000E+00 0.  1.
          1   -1    0    0  501    0  0.00000000000E+00 -0.00000000000E+00 -0.12322590042E+04  0.12322590042E+04  0.00000000000E+00 0. -1.
         23    2    1    2    0    0 -0.17338330096E+03 -0.54680705643E+03  0.32114881833E+03  0.66372927313E+03  0.91325015624E+02 0.  0.
         13    1    3    3    0    0 -0.14528563145E+03 -0.46091922024E+03  0.30625774619E+03  0.57214355662E+03  0.00000000000E+00 0. -1.
        -13    1    3    3    0    0 -0.28097669506E+02 -0.85887836192E+02  0.14891072147E+02  0.91585716501E+02  0.00000000000E+00 0.  1.
         22    1    1    2    0    0  0.17338330096E+03  0.54680705643E+03 -0.98343121558E+03  0.11385063381E+04  0.00000000000E+00 0. -1.
<mgrwt>
<rscale>  0 0.16761370E+04</rscale>
<asrwt>0</asrwt>
<pdfrwt beam="1">  1        1 0.18957831E+00 0.16761370E+04</pdfrwt>
<pdfrwt beam="2">  1       -1 0.87688710E-01 0.16761370E+04</pdfrwt>
<totfact> 0.12346866E+01</totfact>
</mgrwt>
</event>
<event>
 6    1  0.9906445E-006  0.1110460E+04  0.7818608E-02  0.9195056E-01
         -1   -1    0    0    0  501 -0.00000000000E+00  0.00000000000E+00  0.19524515985E+03  0.19524515985E+03  0.00000000000E+00 0.  1.
          1   -1    0    0  501    0  0.00000000000E+00 -0.00000000000E+00 -0.15789411009E+04  0.15789411009E+04  0.00000000000E+00 0. -1.
         23    2    1    2    0    0 -0.35541089515E+03 -0.10579924153E+03 -0.44408984546E+02  0.38451006258E+03  0.91462814365E+02 0.  0.
         13    1    3    3    0    0 -0.14966053046E+03 -0.86843545882E+02 -0.41172480102E+02  0.17786300615E+03  0.00000000000E+00 0.  1.
        -13    1    3    3    0    0 -0.20575036469E+03 -0.18955695652E+02 -0.32365044438E+01  0.20664705642E+03  0.00000000000E+00 0. -1.
         22    1    1    2    0    0  0.35541089515E+03  0.10579924153E+03 -0.13392869565E+04  0.13896761981E+04  0.00000000000E+00 0. -1.
<mgrwt>
<rscale>  0 0.11104605E+04</rscale>
<asrwt>0</asrwt>
<pdfrwt beam="1">  1        1 0.24291401E+00 0.11104605E+04</pdfrwt>
<pdfrwt beam="2">  1       -1 0.30037717E-01 0.11104605E+04</pdfrwt>
<totfact> 0.58495742E+01</totfact>
</mgrwt>
</event>
<event>
 6    1  0.9906445E-006  0.1366520E+04  0.7818608E-02  0.8978416E-01
         -1   -1    0    0    0  501 -0.00000000000E+00  0.00000000000E+00  0.94421579699E+03  0.94421579699E+03  0.00000000000E+00 0.  1.
          1   -1    0    0  501    0  0.00000000000E+00 -0.00000000000E+00 -0.49442507297E+03  0.49442507297E+03  0.00000000000E+00 0. -1.
         23    2    1    2    0    0 -0.57206820697E+03  0.26428282613E+03 -0.43508358709E+02  0.63835877555E+03  0.92203597704E+02 0.  0.
         13    1    3    3    0    0 -0.45946847800E+03  0.22935537015E+03 -0.67803887557E+02  0.51798893353E+03  0.00000000000E+00 0. -1.
        -13    1    3    3    0    0 -0.11259972898E+03  0.34927455978E+02  0.24295528849E+02  0.12036984202E+03  0.00000000000E+00 0.  1.
         22    1    1    2    0    0  0.57206820697E+03 -0.26428282613E+03  0.49329908272E+03  0.80028209441E+03  0.00000000000E+00 0.  1.
<mgrwt>
<rscale>  0 0.13665196E+04</rscale>
<asrwt>0</asrwt>
<pdfrwt beam="1">  1        1 0.76065396E-01 0.13665196E+04</pdfrwt>
<pdfrwt beam="2">  1       -1 0.14526397E+00 0.13665196E+04</pdfrwt>
<totfact> 0.16734597E+01</totfact>
</mgrwt>
</event>
<event>
 6    1  0.9906445E-006  0.1672252E+04  0.7818608E-02  0.8777350E-01
         -2   -1    0    0    0  501 -0.00000000000E+00  0.00000000000E+00  0.10934235553E+04  0.10934235553E+04  0.00000000000E+00 0.  1.
          2   -1    0    0  501    0  0.00000000000E+00 -0.00000000000E+00 -0.63937413762E+03  0.63937413762E+03  0.00000000000E+00 0. -1.
         23    2    1    2    0    0 -0.66070023193E+03 -0.40485851089E+03 -0.90844668111E+02  0.78551485499E+03  0.91354383451E+02 0.  0.
         13    1    3    3    0    0 -0.21233223499E+03 -0.10363759100E+03 -0.63542123261E+02  0.24466983818E+03  0.00000000000E+00 0. -1.
        -13    1    3    3    0    0 -0.44836799694E+03 -0.30122091989E+03 -0.27302544850E+02  0.54084501682E+03  0.00000000000E+00 0.  1.
         22    1    1    2    0    0  0.66070023193E+03  0.40485851089E+03  0.54489408580E+03  0.94728283794E+03  0.00000000000E+00 0.  1.
<mgrwt>
<rscale>  0 0.16722521E+04</rscale>
<asrwt>0</asrwt>
<pdfrwt beam="1">  1        2 0.98365252E-01 0.16722521E+04</pdfrwt>
<pdfrwt beam="2">  1       -2 0.16821901E+00 0.16722521E+04</pdfrwt>
<totfact> 0.95960943E+00</totfact>
</mgrwt>
</event>
<event>
 6    1  0.9906445E-006  0.1459118E+04  0.7818608E-02  0.8912103E-01
         -2   -1    0    0    0  501 -0.00000000000E+00  0.00000000000E+00  0.46848689867E+03  0.46848689867E+03  0.00000000000E+00 0.  1.
          2   -1    0    0  501    0  0.00000000000E+00 -0.00000000000E+00 -0.11361183089E+04  0.11361183089E+04  0.00000000000E+00 0. -1.
         23    2    1    2    0    0 -0.12348572507E+03 -0.70793912806E+03 -0.21622329136E+03  0.75596168809E+03  0.91099005472E+02 0.  0.
         13    1    3    3    0    0 -0.24075176515E+02 -0.90105655939E+02 -0.60256414198E+02  0.11103818626E+03  0.00000000000E+00 0. -1.
        -13    1    3    3    0    0 -0.99410548559E+02 -0.61783347212E+03 -0.15596687716E+03  0.64492350183E+03  0.00000000000E+00 0.  1.
         22    1    1    2    0    0  0.12348572507E+03  0.70793912806E+03 -0.45140811884E+03  0.84864351944E+03  0.00000000000E+00 0.  1.
<mgrwt>
<rscale>  0 0.14591183E+04</rscale>
<asrwt>0</asrwt>
<pdfrwt beam="1">  1        2 0.17478743E+00 0.14591183E+04</pdfrwt>
<pdfrwt beam="2">  1       -2 0.72074909E-01 0.14591183E+04</pdfrwt>
<totfact> 0.34984638E+01</totfact>
</mgrwt>
</event>
<event>
 6    1  0.9906445E-006  0.3277638E+04  0.7818608E-02  0.8168609E-01
         -2   -1    0    0    0  501 -0.00000000000E+00  0.00000000000E+00  0.89129324594E+03  0.89129324594E+03  0.00000000000E+00 0. -1.
          2   -1    0    0  501    0  0.00000000000E+00 -0.00000000000E+00 -0.30132937937E+04  0.30132937937E+04  0.00000000000E+00 0.  1.
         23    2    1    2    0    0 -0.10270496783E+03 -0.98081524232E+03 -0.26191857338E+04  0.28001686591E+04  0.90905230836E+02 0.  0.
         11    1    3    3    0    0 -0.64296235531E+02 -0.31469510996E+03 -0.77092965331E+03  0.83516438411E+03  0.00000000000E+00 0.  1.
        -11    1    3    3    0    0 -0.38408732298E+02 -0.66612013237E+03 -0.18482560805E+04  0.19650042750E+04  0.00000000000E+00 0. -1.
         22    1    1    2    0    0  0.10270496783E+03  0.98081524232E+03  0.49718518610E+03  0.11044183805E+04  0.00000000000E+00 0. -1.
<mgrwt>
<rscale>  0 0.32776384E+04</rscale>
<asrwt>0</asrwt>
<pdfrwt beam="1">  1        2 0.46358366E+00 0.32776384E+04</pdfrwt>
<pdfrwt beam="2">  1       -2 0.13712204E+00 0.32776384E+04</pdfrwt>
<totfact> 0.54129073E-01</totfact>
</mgrwt>
</event>
<event>
 6    1  0.9906445E-006  0.1697698E+04  0.7818608E-02  0.8762678E-01
          1   -1    0    0  501    0  0.00000000000E+00  0.00000000000E+00  0.17893770572E+04  0.17893770572E+04  0.00000000000E+00 0. -1.
         -1   -1    0    0    0  501 -0.00000000000E+00 -0.00000000000E+00 -0.40267915788E+03  0.40267915788E+03  0.00000000000E+00 0.  1.
         23    2    1    2    0    0 -0.22040558313E+03  0.39780127272E+03  0.16170044877E+04  0.16822860725E+04  0.92511852840E+02 0.  0.
         11    1    3    3    0    0 -0.22107692158E+03  0.38825815034E+03  0.15061906154E+04  0.15710600136E+04  0.00000000000E+00 0. -1.
        -11    1    3    3    0    0  0.67133844411E+00  0.95431223836E+01  0.11081387225E+03  0.11122605883E+03  0.00000000000E+00 0.  1.
         22    1    1    2    0    0  0.22040558313E+03 -0.39780127272E+03 -0.23030658834E+03  0.50977014260E+03  0.00000000000E+00 0.  1.
<mgrwt>
<rscale>  0 0.16976983E+04</rscale>
<asrwt>0</asrwt>
<pdfrwt beam="1">  1        1 0.27528877E+00 0.16976983E+04</pdfrwt>
<pdfrwt beam="2">  1       -1 0.61950641E-01 0.16976983E+04</pdfrwt>
<totfact> 0.10420102E+01</totfact>
</mgrwt>
</event>
<event>
 6    1  0.9906445E-006  0.3706279E+04  0.7818608E-02  0.8066572E-01
          2   -1    0    0  501    0  0.00000000000E+00  0.00000000000E+00  0.33525051105E+04  0.33525051105E+04  0.00000000000E+00 0. -1.
         -2   -1    0    0    0  501 -0.00000000000E+00 -0.00000000000E+00 -0.10243459675E+04  0.10243459675E+04  0.00000000000E+00 0.  1.
         23    2    1    2    0    0 -0.15161235953E+04 -0.83601127127E+02  0.24169456885E+04  0.28558307114E+04  0.92318395547E+02 0.  0.
         13    1    3    3    0    0 -0.61865745361E+03 -0.79583367958E+02  0.99018235168E+03  0.11702699035E+04  0.00000000000E+00 0. -1.
        -13    1    3    3    0    0 -0.89746614172E+03 -0.40177591695E+01  0.14267633368E+04  0.16855608079E+04  0.00000000000E+00 0.  1.
         22    1    1    2    0    0  0.15161235953E+04  0.83601127127E+02 -0.88786545491E+02  0.15210203665E+04  0.00000000000E+00 0.  1.
<mgrwt>
<rscale>  0 0.37062785E+04</rscale>
<asrwt>0</asrwt>
<pdfrwt beam="1">  1        2 0.51577001E+00 0.37062785E+04</pdfrwt>
<pdfrwt beam="2">  1       -2 0.15759169E+00 0.37062785E+04</pdfrwt>
<totfact> 0.21751087E-01</totfact>
</mgrwt>
</event>
<event>
 6    1  0.9906445E-006  0.3042968E+04  0.7818608E-02  0.8231567E-01
         -2   -1    0    0    0  501 -0.00000000000E+00  0.00000000000E+00  0.13462090297E+04  0.13462090297E+04  0.00000000000E+00 0.  1.
          2   -1    0    0  501    0  0.00000000000E+00 -0.00000000000E+00 -0.17195792796E+04  0.17195792796E+04  0.00000000000E+00 0. -1.
         23    2    1    2    0    0  0.63043822963E+03 -0.19610796609E+02 -0.15801594317E+04  0.17041066012E+04  0.96117291486E+02 0.  0.
         11    1    3    3    0    0  0.88286544401E+02  0.10038959998E+02 -0.31650653645E+03  0.32874257749E+03  0.00000000000E+00 0.  1.
        -11    1    3    3    0    0  0.54215168523E+03 -0.29649756607E+02 -0.12636528953E+04  0.13753640237E+04  0.00000000000E+00 0. -1.
         22    1    1    2    0    0 -0.63043822963E+03  0.19610796609E+02  0.12067891819E+04  0.13616817081E+04  0.00000000000E+00 0.  1.
<mgrwt>
<rscale>  0 0.30429677E+04</rscale>
<asrwt>0</asrwt>
<pdfrwt beam="1">  1        2 0.26455066E+00 0.30429677E+04</pdfrwt>
<pdfrwt beam="2">  1       -2 0.20710908E+00 0.30429677E+04</pdfrwt>
<totfact> 0.97527760E-01</totfact>
</mgrwt>
</event>
<event>
 6    1  0.9906445E-006  0.8785934E+03  0.7818608E-02  0.9452744E-01
         -3   -1    0    0    0  501 -0.00000000000E+00  0.00000000000E+00  0.48479771075E+03  0.48479771075E+03  0.00000000000E+00 0.  1.
          3   -1    0    0  501    0  0.00000000000E+00 -0.00000000000E+00 -0.39806619617E+03  0.39806619617E+03  0.00000000000E+00 0. -1.
         23    2    1    2    0    0 -0.34029289012E+03  0.15831481861E+03  0.26413424368E+03  0.46773192653E+03  0.90240919489E+02 0.  0.
         13    1    3    3    0    0 -0.18610653306E+03  0.12354863746E+03  0.18952635119E+03  0.29295075570E+03  0.00000000000E+00 0. -1.
        -13    1    3    3    0    0 -0.15418635706E+03  0.34766181144E+02  0.74607892486E+02  0.17478117083E+03  0.00000000000E+00 0.  1.
         22    1    1    2    0    0  0.34029289012E+03 -0.15831481861E+03 -0.17740272910E+03  0.41513198040E+03  0.00000000000E+00 0. -1.
<mgrwt>
<rscale>  0 0.87859338E+03</rscale>
<asrwt>0</asrwt>
<pdfrwt beam="1">  1        3 0.61240953E-01 0.87859338E+03</pdfrwt>
<pdfrwt beam="2">  1       -3 0.74584263E-01 0.87859338E+03</pdfrwt>
<totfact> 0.11614543E+01</totfact>
</mgrwt>
</event>
<event>
 6    1  0.9906445E-006  0.1809491E+04  0.7818608E-02  0.8701269E-01
          1   -1    0    0  501    0  0.00000000000E+00  0.00000000000E+00  0.33078173520E+03  0.33078173520E+03  0.00000000000E+00 0.  1.
         -1   -1    0    0    0  501 -0.00000000000E+00 -0.00000000000E+00 -0.24746351160E+04  0.24746351160E+04  0.00000000000E+00 0. -1.
         23    2    1    2    0    0 -0.17484384258E+03 -0.73597848836E+03 -0.18380470056E+04  0.19894804298E+04  0.85912055129E+02 0.  0.
         11    1    3    3    0    0 -0.14740688053E+03 -0.47776704559E+03 -0.12709707061E+04  0.13657806098E+04  0.00000000000E+00 0.  1.
        -11    1    3    3    0    0 -0.27436962046E+02 -0.25821144276E+03 -0.56707629948E+03  0.62369982002E+03  0.00000000000E+00 0. -1.
         22    1    1    2    0    0  0.17484384258E+03  0.73597848836E+03 -0.30580637517E+03  0.81593642136E+03  0.00000000000E+00 0.  1.
<mgrwt>
<rscale>  0 0.18094906E+04</rscale>
<asrwt>0</asrwt>
<pdfrwt beam="1">  1        1 0.50889498E-01 0.18094906E+04</pdfrwt>
<pdfrwt beam="2">  1       -1 0.38071309E+00 0.18094906E+04</pdfrwt>
<totfact> 0.70587913E-01</totfact>
</mgrwt>
</event>
<event>
 6    1  0.9906445E-006  0.1874193E+04  0.7818608E-02  0.8667810E-01
         -1   -1    0    0    0  501 -0.00000000000E+00  0.00000000000E+00  0.98525868416E+03  0.98525868416E+03  0.00000000000E+00 0.  1.
          1   -1    0    0  501    0  0.00000000000E+00 -0.00000000000E+00 -0.89128852238E+03  0.89128852238E+03  0.00000000000E+00 0. -1.
         23    2    1    2    0    0 -0.60906853442E+03  0.64557936491E+03  0.34102031913E+03  0.95525953363E+03  0.92134263498E+02 0.  0.
         13    1    3    3    0    0 -0.16549138104E+03  0.20425031299E+03  0.61711820946E+02  0.27002580691E+03  0.00000000000E+00 0.  1.
        -13    1    3    3    0    0 -0.44357715338E+03  0.44132905192E+03  0.27930849818E+03  0.68523372672E+03  0.00000000000E+00 0. -1.
         22    1    1    2    0    0  0.60906853442E+03 -0.64557936491E+03 -0.24705015734E+03  0.92128767291E+03  0.00000000000E+00 0. -1.
<mgrwt>
<rscale>  0 0.18741929E+04</rscale>
<asrwt>0</asrwt>
<pdfrwt beam="1">  1        1 0.13712131E+00 0.18741929E+04</pdfrwt>
<pdfrwt beam="2">  1       -1 0.15157826E+00 0.18741929E+04</pdfrwt>
<totfact> 0.58836474E+00</totfact>
</mgrwt>
</event>
<event>
 6    1  0.9906445E-006  0.2420576E+04  0.7818608E-02  0.8431840E-01
          1   -1    0    0  501    0  0.00000000000E+00  0.00000000000E+00  0.27520167267E+04  0.27520167267E+04  0.00000000000E+00 0. -1.
         -1   -1    0    0    0  501 -0.00000000000E+00 -0.00000000000E+00 -0.53226320187E+03  0.53226320187E+03  0.00000000000E+00 0.  1.
         23    2    1    2    0    0  0.73552211951E+03 -0.74460858159E+03  0.19315063256E+04  0.21986827768E+04  0.89747083116E+02 0.  0.
         11    1    3    3    0    0  0.42737824020E+03 -0.42266965822E+03  0.10164301147E+04  0.11808606939E+04  0.00000000000E+00 0.  1.
        -11    1    3    3    0    0  0.30814387931E+03 -0.32193892337E+03  0.91507621090E+03  0.10178220829E+04  0.00000000000E+00 0. -1.
         22    1    1    2    0    0 -0.73552211951E+03  0.74460858159E+03  0.28824719917E+03  0.10855971518E+04  0.00000000000E+00 0.  1.
<mgrwt>
<rscale>  0 0.24205762E+04</rscale>
<asrwt>0</asrwt>
<pdfrwt beam="1">  1        1 0.42338718E+00 0.24205762E+04</pdfrwt>
<pdfrwt beam="2">  1       -1 0.81886648E-01 0.24205762E+04</pdfrwt>
<totfact> 0.11966945E+00</totfact>
</mgrwt>
</event>
<event>
 6    1  0.9906445E-006  0.5042535E+04  0.7818608E-02  0.7821979E-01
         -2   -1    0    0    0  501 -0.00000000000E+00  0.00000000000E+00  0.21173986403E+04  0.21173986403E+04  0.00000000000E+00 0.  1.
          2   -1    0    0  501    0  0.00000000000E+00 -0.00000000000E+00 -0.30021697239E+04  0.30021697239E+04  0.00000000000E+00 0. -1.
         23    2    1    2    0    0 -0.90495508405E+03 -0.19053866225E+04 -0.18431826402E+04  0.28026750570E+04  0.90682659654E+02 0.  0.
         13    1    3    3    0    0 -0.46241518802E+03 -0.10734601748E+04 -0.10391043874E+04  0.15639317380E+04  0.00000000000E+00 0. -1.
        -13    1    3    3    0    0 -0.44253989603E+03 -0.83192644764E+03 -0.80407825274E+03  0.12387433190E+04  0.00000000000E+00 0.  1.
         22    1    1    2    0    0  0.90495508405E+03  0.19053866225E+04  0.95841155654E+03  0.23168933072E+04  0.00000000000E+00 0.  1.
<mgrwt>
<rscale>  0 0.50425351E+04</rscale>
<asrwt>0</asrwt>
<pdfrwt beam="1">  1        2 0.46187226E+00 0.50425351E+04</pdfrwt>
<pdfrwt beam="2">  1       -2 0.32575364E+00 0.50425351E+04</pdfrwt>
<totfact> 0.27766503E-02</totfact>
</mgrwt>
</event>
<event>
 6    1  0.1077956E-005  0.4866987E+04  0.7818608E-02  0.7849360E-01
          1   -1    0    0  501    0  0.00000000000E+00  0.00000000000E+00  0.24030203078E+04  0.24030203078E+04  0.00000000000E+00 0. -1.
         -1   -1    0    0    0  501 -0.00000000000E+00 -0.00000000000E+00 -0.24643533583E+04  0.24643533583E+04  0.00000000000E+00 0.  1.
         23    2    1    2    0    0  0.23473019895E+04 -0.26727250048E+03  0.54956747348E+03  0.24271973057E+04  0.89449054859E+02 0.  0.
         13    1    3    3    0    0  0.10164001128E+04 -0.15438002707E+03  0.21626853191E+03  0.10505591178E+04  0.00000000000E+00 0. -1.
        -13    1    3    3    0    0  0.13309018767E+04 -0.11289247341E+03  0.33329894157E+03  0.13766381879E+04  0.00000000000E+00 0.  1.
         22    1    1    2    0    0 -0.23473019895E+04  0.26727250048E+03 -0.61090052403E+03  0.24401763604E+04  0.00000000000E+00 0.  1.
<mgrwt>
<rscale>  0 0.48669872E+04</rscale>
<asrwt>0</asrwt>
<pdfrwt beam="1">  1        1 0.36969543E+00 0.48669872E+04</pdfrwt>
<pdfrwt beam="2">  1       -1 0.37913128E+00 0.48669872E+04</pdfrwt>
<totfact> 0.11441928E-02</totfact>
</mgrwt>
</event>
<event>
 6    1  0.9906445E-006  0.2514428E+04  0.7818608E-02  0.8397864E-01
         -2   -1    0    0    0  501 -0.00000000000E+00  0.00000000000E+00  0.13996748401E+04  0.13996748401E+04  0.00000000000E+00 0.  1.
          2   -1    0    0  501    0  0.00000000000E+00 -0.00000000000E+00 -0.11292527189E+04  0.11292527189E+04  0.00000000000E+00 0. -1.
         23    2    1    2    0    0  0.47781187104E+03 -0.64790807805E+03 -0.83370734923E+03  0.11624756025E+04  0.90512544043E+02 0.  0.
         13    1    3    3    0    0  0.18825589934E+03 -0.26315256718E+03 -0.27272652828E+03  0.42316582622E+03  0.00000000000E+00 0. -1.
        -13    1    3    3    0    0  0.28955597170E+03 -0.38475551087E+03 -0.56098082095E+03  0.73930977632E+03  0.00000000000E+00 0.  1.
         22    1    1    2    0    0 -0.47781187104E+03  0.64790807805E+03  0.11041294704E+04  0.13664519564E+04  0.00000000000E+00 0.  1.
<mgrwt>
<rscale>  0 0.25144277E+04</rscale>
<asrwt>0</asrwt>
<pdfrwt beam="1">  1        2 0.17373119E+00 0.25144277E+04</pdfrwt>
<pdfrwt beam="2">  1       -2 0.21533459E+00 0.25144277E+04</pdfrwt>
<totfact> 0.19703801E+00</totfact>
</mgrwt>
</event>
<event>
 6    1  0.9906445E-006  0.2619098E+04  0.7818608E-02  0.8361743E-01
          2   -1    0    0  501    0  0.00000000000E+00  0.00000000000E+00  0.48105982229E+03  0.48105982229E+03  0.00000000000E+00 0. -1.
         -2   -1    0    0    0  501 -0.00000000000E+00 -0.00000000000E+00 -0.35648761778E+04  0.35648761778E+04  0.00000000000E+00 0.  1.
         23    2    1    2    0    0  0.63901157082E+03 -0.10298896568E+04 -0.78375753672E+03  0.14460746456E+04  0.88586180033E+02 0.  0.
         13    1    3    3    0    0  0.95484635534E+02 -0.21931813457E+03 -0.14615076895E+03  0.28031733275E+03  0.00000000000E+00 0. -1.
        -13    1    3    3    0    0  0.54352693528E+03 -0.81057152227E+03 -0.63760676777E+03  0.11657573128E+04  0.00000000000E+00 0.  1.
         22    1    1    2    0    0 -0.63901157082E+03  0.10298896568E+04 -0.23000588188E+04  0.25998613546E+04  0.00000000000E+00 0.  1.
<mgrwt>
<rscale>  0 0.26190981E+04</rscale>
<asrwt>0</asrwt>
<pdfrwt beam="1">  1        2 0.74009205E-01 0.26190981E+04</pdfrwt>
<pdfrwt beam="2">  1       -2 0.54844248E+00 0.26190981E+04</pdfrwt>
<totfact> 0.48966754E-02</totfact>
</mgrwt>
</event>
<event>
 6    1  0.9906445E-006  0.3393444E+04  0.7818608E-02  0.8139517E-01
         -1   -1    0    0    0  501 -0.00000000000E+00  0.00000000000E+00  0.13274725894E+04  0.13274725894E+04  0.00000000000E+00 0.  1.
          1   -1    0    0  501    0  0.00000000000E+00 -0.00000000000E+00 -0.21686813308E+04  0.21686813308E+04  0.00000000000E+00 0. -1.
         23    2    1    2    0    0 -0.31625794288E+03  0.16087617407E+04  0.24258782779E+02  0.16421939800E+04  0.89884117508E+02 0.  0.
         11    1    3    3    0    0 -0.22919046194E+03  0.10691985883E+04  0.54220229063E+02  0.10948304537E+04  0.00000000000E+00 0. -1.
        -11    1    3    3    0    0 -0.87067480944E+02  0.53956315232E+03 -0.29961446284E+02  0.54736352623E+03  0.00000000000E+00 0.  1.
         22    1    1    2    0    0  0.31625794288E+03 -0.16087617407E+04 -0.86546752422E+03  0.18539599403E+04  0.00000000000E+00 0. -1.
<mgrwt>
<rscale>  0 0.33934437E+04</rscale>
<asrwt>0</asrwt>
<pdfrwt beam="1">  1        1 0.33364328E+00 0.33934437E+04</pdfrwt>
<pdfrwt beam="2">  1       -1 0.20422655E+00 0.33934437E+04</pdfrwt>
<totfact> 0.26514676E-01</totfact>
</mgrwt>
</event>
<event>
 6    1  0.9906445E-006  0.2456850E+04  0.7818608E-02  0.8418521E-01
         -2   -1    0    0    0  501 -0.00000000000E+00  0.00000000000E+00  0.29734783449E+03  0.29734783449E+03  0.00000000000E+00 0.  1.
          2   -1    0    0  501    0  0.00000000000E+00 -0.00000000000E+00 -0.50749571750E+04  0.50749571750E+04  0.00000000000E+00 0. -1.
         23    2    1    2    0    0 -0.30330831732E+03  0.10685779446E+04 -0.12540703574E+04  0.16778251105E+04  0.92465565277E+02 0.  0.
         13    1    3    3    0    0 -0.14005212059E+03  0.46149893139E+03 -0.61270253760E+03  0.77974371414E+03  0.00000000000E+00 0.  1.
        -13    1    3    3    0    0 -0.16325619673E+03  0.60707901324E+03 -0.64136781984E+03  0.89808139632E+03  0.00000000000E+00 0. -1.
         22    1    1    2    0    0  0.30330831732E+03 -0.10685779446E+04 -0.35235389831E+04  0.36944798990E+04  0.00000000000E+00 0. -1.
<mgrwt>
<rscale>  0 0.24568496E+04</rscale>
<asrwt>0</asrwt>
<pdfrwt beam="1">  1        2 0.78076252E+00 0.24568496E+04</pdfrwt>
<pdfrwt beam="2">  1       -2 0.45745828E-01 0.24568496E+04</pdfrwt>
<totfact> 0.11265969E-01</totfact>
</mgrwt>
</event>
<event>
 6    1  0.9906445E-006  0.1474354E+04  0.7818608E-02  0.8901688E-01
          1   -1    0    0  501    0  0.00000000000E+00  0.00000000000E+00  0.94690893387E+03  0.94690893387E+03  0.00000000000E+00 0. -1.
         -1   -1    0    0    0  501 -0.00000000000E+00 -0.00000000000E+00 -0.57389909791E+03  0.57389909791E+03  0.00000000000E+00 0.  1.
         23    2    1    2    0    0  0.41806657834E+03 -0.16924036390E+02  0.80974701025E+03  0.91598950831E+03  0.90997097707E+02 0.  0.
         11    1    3    3    0    0  0.30334067611E+03  0.26379397320E+02  0.60580026018E+03  0.67801577682E+03  0.00000000000E+00 0. -1.
        -11    1    3    3    0    0  0.11472590223E+03 -0.43303433710E+02  0.20394675007E+03  0.23797373149E+03  0.00000000000E+00 0.  1.
         22    1    1    2    0    0 -0.41806657834E+03  0.16924036390E+02 -0.43673717429E+03  0.60481852348E+03  0.00000000000E+00 0.  1.
<mgrwt>
<rscale>  0 0.14743543E+04</rscale>
<asrwt>0</asrwt>
<pdfrwt beam="1">  1        1 0.14567830E+00 0.14743543E+04</pdfrwt>
<pdfrwt beam="2">  1       -1 0.88292169E-01 0.14743543E+04</pdfrwt>
<totfact> 0.20366325E+01</totfact>
</mgrwt>
</event>
<event>
 6    1  0.9906445E-006  0.2012999E+04  0.7818608E-02  0.8600567E-01
          2   -1    0    0  501    0  0.00000000000E+00  0.00000000000E+00  0.20459588528E+04  0.20459588528E+04  0.00000000000E+00 0. -1.
         -2   -1    0    0    0  501 -0.00000000000E+00 -0.00000000000E+00 -0.49514268527E+03  0.49514268527E+03  0.00000000000E+00 0.  1.
         23    2    1    2    0    0 -0.14104395386E+03  0.85092069532E+02  0.20278016212E+04  0.20364737741E+04  0.90066423629E+02 0.  0.
         13    1    3    3    0    0 -0.33770284754E+02 -0.18527879718E+02  0.43970355035E+03  0.44138750169E+03  0.00000000000E+00 0.  1.
        -13    1    3    3    0    0 -0.10727366911E+03  0.10361994925E+03  0.15880980708E+04  0.15950862724E+04  0.00000000000E+00 0. -1.
         22    1    1    2    0    0  0.14104395386E+03 -0.85092069532E+02 -0.47698545361E+03  0.50462776397E+03  0.00000000000E+00 0.  1.
<mgrwt>
<rscale>  0 0.20129993E+04</rscale>
<asrwt>0</asrwt>
<pdfrwt beam="1">  1        2 0.31476290E+00 0.20129993E+04</pdfrwt>
<pdfrwt beam="2">  1       -2 0.76175799E-01 0.20129993E+04</pdfrwt>
<totfact> 0.90164965E+00</totfact>
</mgrwt>
</event>
<event>
 6    1  0.9906445E-006  0.1677459E+04  0.7818608E-02  0.8774326E-01
          2   -1    0    0  501    0  0.00000000000E+00  0.00000000000E+00  0.30355958754E+04  0.30355958754E+04  0.00000000000E+00 0. -1.
         -2   -1    0    0    0  501 -0.00000000000E+00 -0.00000000000E+00 -0.23173940753E+03  0.23173940753E+03  0.00000000000E+00 0.  1.
         23    2    1    2    0    0  0.10724185622E+03 -0.19422207385E+02  0.30210291454E+04  0.30243496665E+04  0.90530491268E+02 0.  0.
         11    1    3    3    0    0 -0.40684962896E+01 -0.31175180420E+01  0.11101679981E+04  0.11101798303E+04  0.00000000000E+00 0.  1.
        -11    1    3    3    0    0  0.11131035251E+03 -0.16304689343E+02  0.19108611473E+04  0.19141698362E+04  0.00000000000E+00 0. -1.
         22    1    1    2    0    0 -0.10724185622E+03  0.19422207385E+02 -0.21717267762E+03  0.24298561638E+03  0.00000000000E+00 0.  1.
<mgrwt>
<rscale>  0 0.16774590E+04</rscale>
<asrwt>0</asrwt>
<pdfrwt beam="1">  1        2 0.46701472E+00 0.16774590E+04</pdfrwt>
<pdfrwt beam="2">  1       -2 0.35652219E-01 0.16774590E+04</pdfrwt>
<totfact> 0.11718132E+01</totfact>
</mgrwt>
</event>
<event>
 6    1  0.9906445E-006  0.1065070E+04  0.7818608E-02  0.9239922E-01
         -2   -1    0    0    0  501 -0.00000000000E+00  0.00000000000E+00  0.30476955688E+03  0.30476955688E+03  0.00000000000E+00 0.  1.
          2   -1    0    0  501    0  0.00000000000E+00 -0.00000000000E+00 -0.93051775555E+03  0.93051775555E+03  0.00000000000E+00 0. -1.
         23    2    1    2    0    0 -0.47685400162E+03 -0.14561880024E+03 -0.11093167092E+03  0.51860702730E+03  0.89737613673E+02 0.  0.
         11    1    3    3    0    0 -0.29479447277E+03 -0.63263344152E+02 -0.10305383750E+03  0.31863164518E+03  0.00000000000E+00 0.  1.
        -11    1    3    3    0    0 -0.18205952885E+03 -0.82355456088E+02 -0.78778334128E+01  0.19997538212E+03  0.00000000000E+00 0. -1.
         22    1    1    2    0    0  0.47685400162E+03  0.14561880024E+03 -0.51481652776E+03  0.71668028513E+03  0.00000000000E+00 0.  1.
<mgrwt>
<rscale>  0 0.10650699E+04</rscale>
<asrwt>0</asrwt>
<pdfrwt beam="1">  1        2 0.14315657E+00 0.10650699E+04</pdfrwt>
<pdfrwt beam="2">  1       -2 0.46887625E-01 0.10650699E+04</pdfrwt>
<totfact> 0.11994224E+02</totfact>
</mgrwt>
</event>
<event>
 6    1  0.9906445E-006  0.1043239E+04  0.7818608E-02  0.9262352E-01
         -1   -1    0    0    0  501 -0.00000000000E+00  0.00000000000E+00  0.21821905057E+03  0.21821905057E+03  0.00000000000E+00 0.  1.
          1   -1    0    0  501    0  0.00000000000E+00 -0.00000000000E+00 -0.12468533050E+04  0.12468533050E+04  0.00000000000E+00 0. -1.
         23    2    1    2    0    0 -0.22493609655E+03  0.39797709380E+03 -0.85916814710E+03  0.97752668977E+03  0.91687019286E+02 0.  0.
         11    1    3    3    0    0 -0.19815360454E+03  0.26698017037E+03 -0.61992353756E+03  0.70345465723E+03  0.00000000000E+00 0.  1.
        -11    1    3    3    0    0 -0.26782492012E+02  0.13099692343E+03 -0.23924460954E+03  0.27407203254E+03  0.00000000000E+00 0. -1.
         22    1    1    2    0    0  0.22493609655E+03 -0.39797709380E+03 -0.16946610736E+03  0.48754566582E+03  0.00000000000E+00 0.  1.
<mgrwt>
<rscale>  0 0.10432395E+04</rscale>
<asrwt>0</asrwt>
<pdfrwt beam="1">  1        1 0.19182359E+00 0.10432395E+04</pdfrwt>
<pdfrwt beam="2">  1       -1 0.33572161E-01 0.10432395E+04</pdfrwt>
<totfact> 0.82518385E+01</totfact>
</mgrwt>
</event>
<event>
 6    1  0.9906445E-006  0.1361732E+04  0.7818608E-02  0.8981994E-01
         -2   -1    0    0    0  501 -0.00000000000E+00  0.00000000000E+00  0.12835507616E+04  0.12835507616E+04  0.00000000000E+00 0.  1.
          2   -1    0    0  501    0  0.00000000000E+00 -0.00000000000E+00 -0.36116897809E+03  0.36116897809E+03  0.00000000000E+00 0. -1.
         23    2    1    2    0    0  0.69292916953E+01 -0.66534043245E+03  0.30610068088E+03  0.73778627818E+03  0.88910400427E+02 0.  0.
         13    1    3    3    0    0 -0.32581729263E+02 -0.13237844032E+03  0.50482545812E+02  0.14537574755E+03  0.00000000000E+00 0. -1.
        -13    1    3    3    0    0  0.39511020959E+02 -0.53296199213E+03  0.25561813507E+03  0.59241053063E+03  0.00000000000E+00 0.  1.
         22    1    1    2    0    0 -0.69292916953E+01  0.66534043245E+03  0.61628110263E+03  0.90693346150E+03  0.00000000000E+00 0.  1.
<mgrwt>
<rscale>  0 0.13617323E+04</rscale>
<asrwt>0</asrwt>
<pdfrwt beam="1">  1        2 0.55564459E-01 0.13617323E+04</pdfrwt>
<pdfrwt beam="2">  1       -2 0.19746935E+00 0.13617323E+04</pdfrwt>
<totfact> 0.12021313E+01</totfact>
</mgrwt>
</event>
<event>
 6    1  0.9906445E-006  0.7726098E+03  0.7818608E-02  0.9600532E-01
          1   -1    0    0  501    0  0.00000000000E+00  0.00000000000E+00  0.97359690011E+03  0.97359690011E+03  0.00000000000E+00 0. -1.
         -1   -1    0    0    0  501 -0.00000000000E+00 -0.00000000000E+00 -0.15327850974E+03  0.15327850974E+03  0.00000000000E+00 0.  1.
         23    2    1    2    0    0 -0.30144432872E+03  0.14950198084E+03  0.15523591345E+03  0.38152030878E+03  0.90774619763E+02 0.  0.
         11    1    3    3    0    0 -0.13552006057E+03  0.40510832478E+02  0.23800793214E+02  0.14343392946E+03  0.00000000000E+00 0.  1.
        -11    1    3    3    0    0 -0.16592426816E+03  0.10899114836E+03  0.13143512024E+03  0.23808637932E+03  0.00000000000E+00 0. -1.
         22    1    1    2    0    0  0.30144432872E+03 -0.14950198084E+03  0.66508247692E+03  0.74535510108E+03  0.00000000000E+00 0.  1.
<mgrwt>
<rscale>  0 0.77260982E+03</rscale>
<asrwt>0</asrwt>
<pdfrwt beam="1">  1        1 0.14978413E+00 0.77260982E+03</pdfrwt>
<pdfrwt beam="2">  1       -1 0.23581310E-01 0.77260982E+03</pdfrwt>
<totfact> 0.24830104E+02</totfact>
</mgrwt>
</event>
<event>
 6    1  0.9906445E-006  0.5934570E+04  0.7818608E-02  0.7698568E-01
          2   -1    0    0  501    0  0.00000000000E+00  0.00000000000E+00  0.29059796134E+04  0.29059796134E+04  0.00000000000E+00 0. -1.
         -2   -1    0    0    0  501 -0.00000000000E+00 -0.00000000000E+00 -0.30298833756E+04  0.30298833756E+04  0.00000000000E+00 0.  1.
         23    2    1    2    0    0 -0.15347920244E+04  0.23857557604E+04  0.80610252316E+03  0.29505106149E+04  0.91074168272E+02 0.  0.
         11    1    3    3    0    0 -0.13217610021E+04  0.20661859813E+04  0.72842690253E+03  0.25586680926E+04  0.00000000000E+00 0.  1.
        -11    1    3    3    0    0 -0.21303102235E+03  0.31956977914E+03  0.77675620638E+02  0.39184252228E+03  0.00000000000E+00 0. -1.
         22    1    1    2    0    0  0.15347920244E+04 -0.23857557604E+04 -0.93000628531E+03  0.29853523741E+04  0.00000000000E+00 0.  1.
<mgrwt>
<rscale>  0 0.59345697E+04</rscale>
<asrwt>0</asrwt>
<pdfrwt beam="1">  1        2 0.44707379E+00 0.59345697E+04</pdfrwt>
<pdfrwt beam="2">  1       -2 0.46613590E+00 0.59345697E+04</pdfrwt>
<totfact> 0.36852087E-03</totfact>
</mgrwt>
</event>
<event>
 6    1  0.9906445E-006  0.1783920E+04  0.7818608E-02  0.8714898E-01
          1   -1    0    0  501    0  0.00000000000E+00  0.00000000000E+00  0.18297722255E+04  0.18297722255E+04  0.00000000000E+00 0. -1.
         -1   -1    0    0    0  501 -0.00000000000E+00 -0.00000000000E+00 -0.43480408288E+03  0.43480408288E+03  0.00000000000E+00 0.  1.
         23    2    1    2    0    0  0.77146601727E+03 -0.41500229388E+03  0.89548994563E+03  0.12561789715E+04  0.93255809774E+02 0.  0.
         13    1    3    3    0    0  0.53390252800E+03 -0.27295924852E+03  0.55177099671E+03  0.81486802218E+03  0.00000000000E+00 0.  1.
        -13    1    3    3    0    0  0.23756348927E+03 -0.14204304536E+03  0.34371894893E+03  0.44131094935E+03  0.00000000000E+00 0. -1.
         22    1    1    2    0    0 -0.77146601727E+03  0.41500229388E+03  0.49947819699E+03  0.10083973369E+04  0.00000000000E+00 0.  1.
<mgrwt>
<rscale>  0 0.17839198E+04</rscale>
<asrwt>0</asrwt>
<pdfrwt beam="1">  1        1 0.28150342E+00 0.17839198E+04</pdfrwt>
<pdfrwt beam="2">  1       -1 0.66892936E-01 0.17839198E+04</pdfrwt>
<totfact> 0.83185932E+00</totfact>
</mgrwt>
</event>
<event>
 6    1  0.9906445E-006  0.2018921E+04  0.7818608E-02  0.8597825E-01
          2   -1    0    0  501    0  0.00000000000E+00  0.00000000000E+00  0.13238950857E+04  0.13238950857E+04  0.00000000000E+00 0. -1.
         -2   -1    0    0    0  501 -0.00000000000E+00 -0.00000000000E+00 -0.76970670401E+03  0.76970670401E+03  0.00000000000E+00 0.  1.
         23    2    1    2    0    0  0.71878717469E+03 -0.62126763374E+03 -0.69900991883E+02  0.95688897575E+03  0.90121517993E+02 0.  0.
         13    1    3    3    0    0  0.67660973214E+03 -0.60914637434E+03 -0.65087889112E+02  0.91274118364E+03  0.00000000000E+00 0.  1.
        -13    1    3    3    0    0  0.42177442549E+02 -0.12121259392E+02 -0.48131027712E+01  0.44147792102E+02  0.00000000000E+00 0. -1.
         22    1    1    2    0    0 -0.71878717469E+03  0.62126763374E+03  0.62408937358E+03  0.11367128140E+04  0.00000000000E+00 0. -1.
<mgrwt>
<rscale>  0 0.20189214E+04</rscale>
<asrwt>0</asrwt>
<pdfrwt beam="1">  1        2 0.20367617E+00 0.20189214E+04</pdfrwt>
<pdfrwt beam="2">  1       -2 0.11841642E+00 0.20189214E+04</pdfrwt>
<totfact> 0.81522151E+00</totfact>
</mgrwt>
</event>
<event>
 6    1  0.9906445E-006  0.2871035E+04  0.7818608E-02  0.8281548E-01
         -1   -1    0    0    0  501 -0.00000000000E+00  0.00000000000E+00  0.11833926597E+04  0.11833926597E+04  0.00000000000E+00 0.  1.
          1   -1    0    0  501    0  0.00000000000E+00 -0.00000000000E+00 -0.17413582007E+04  0.17413582007E+04  0.00000000000E+00 0. -1.
         23    2    1    2    0    0 -0.77853893157E+03  0.66535947441E+03 -0.13020362842E+04  0.16588648589E+04  0.87795423735E+02 0.  0.
         11    1    3    3    0    0 -0.19392774900E+03  0.12690540787E+03 -0.25970816218E+03  0.34808229470E+03  0.00000000000E+00 0.  1.
        -11    1    3    3    0    0 -0.58461118257E+03  0.53845406653E+03 -0.10423281220E+04  0.13107825642E+04  0.00000000000E+00 0. -1.
         22    1    1    2    0    0  0.77853893157E+03 -0.66535947441E+03  0.74407074315E+03  0.12658860016E+04  0.00000000000E+00 0.  1.
<mgrwt>
<rscale>  0 0.28710350E+04</rscale>
<asrwt>0</asrwt>
<pdfrwt beam="1">  1        1 0.26790126E+00 0.28710350E+04</pdfrwt>
<pdfrwt beam="2">  1       -1 0.18206041E+00 0.28710350E+04</pdfrwt>
<totfact> 0.77307109E-01</totfact>
</mgrwt>
</event>
<event>
 6    1  0.9906445E-006  0.2963155E+04  0.7818608E-02  0.8254331E-01
         -1   -1    0    0    0  501 -0.00000000000E+00  0.00000000000E+00  0.12737194383E+04  0.12737194383E+04  0.00000000000E+00 0.  1.
          1   -1    0    0  501    0  0.00000000000E+00 -0.00000000000E+00 -0.17233559873E+04  0.17233559873E+04  0.00000000000E+00 0. -1.
         23    2    1    2    0    0  0.52443684086E+03  0.25688893393E+03 -0.16007107875E+04  0.17063400433E+04  0.91079052105E+02 0.  0.
         13    1    3    3    0    0  0.36760492896E+03  0.22497789368E+03 -0.11697374723E+04  0.12466090769E+04  0.00000000000E+00 0.  1.
        -13    1    3    3    0    0  0.15683191190E+03  0.31911040256E+02 -0.43097331526E+03  0.45973096648E+03  0.00000000000E+00 0. -1.
         22    1    1    2    0    0 -0.52443684086E+03 -0.25688893393E+03  0.11510742385E+04  0.12907353822E+04  0.00000000000E+00 0.  1.
<mgrwt>
<rscale>  0 0.29631551E+04</rscale>
<asrwt>0</asrwt>
<pdfrwt beam="1">  1        1 0.26513169E+00 0.29631551E+04</pdfrwt>
<pdfrwt beam="2">  1       -1 0.19595684E+00 0.29631551E+04</pdfrwt>
<totfact> 0.62970370E-01</totfact>
</mgrwt>
</event>
<event>
 6    1  0.9906445E-006  0.2051537E+03  0.7818608E-02  0.1145462E+00
         -2   -1    0    0    0  501 -0.00000000000E+00  0.00000000000E+00  0.18506265352E+02  0.18506265352E+02  0.00000000000E+00 0.  1.
          2   -1    0    0  501    0  0.00000000000E+00 -0.00000000000E+00 -0.56856467184E+03  0.56856467184E+03  0.00000000000E+00 0. -1.
         23    2    1    2    0    0  0.66039094660E+02  0.97267754169E+01 -0.18679525186E+03  0.21772571698E+03  0.89756612755E+02 0.  0.
         13    1    3    3    0    0  0.88153397126E+02  0.61381480142E+01 -0.16016561150E+03  0.18292545310E+03  0.00000000000E+00 0. -1.
        -13    1    3    3    0    0 -0.22114302466E+02  0.35886274027E+01 -0.26629640369E+02  0.34800263883E+02  0.00000000000E+00 0.  1.
         22    1    1    2    0    0 -0.66039094660E+02 -0.97267754169E+01 -0.36326315462E+03  0.36934522021E+03  0.00000000000E+00 0. -1.
<mgrwt>
<rscale>  0 0.20515369E+03</rscale>
<asrwt>0</asrwt>
<pdfrwt beam="1">  1        2 0.87471476E-01 0.20515369E+03</pdfrwt>
<pdfrwt beam="2">  1       -2 0.28471181E-02 0.20515369E+03</pdfrwt>
<totfact> 0.23943375E+04</totfact>
</mgrwt>
</event>
<event>
 6    1  0.9906445E-006  0.1652112E+04  0.7818608E-02  0.8789158E-01
          1   -1    0    0  501    0  0.00000000000E+00  0.00000000000E+00  0.18832301322E+04  0.18832301322E+04  0.00000000000E+00 0. -1.
         -1   -1    0    0    0  501 -0.00000000000E+00 -0.00000000000E+00 -0.36233927992E+03  0.36233927992E+03  0.00000000000E+00 0.  1.
         23    2    1    2    0    0  0.60080456317E+03 -0.61247336366E+02  0.15236990313E+04  0.16416445449E+04  0.92847802729E+02 0.  0.
         13    1    3    3    0    0  0.53063986334E+03 -0.79419738256E+02  0.13815947712E+04  0.14821235681E+04  0.00000000000E+00 0. -1.
        -13    1    3    3    0    0  0.70164699828E+02  0.18172401890E+02  0.14210426019E+03  0.15952097685E+03  0.00000000000E+00 0.  1.
         22    1    1    2    0    0 -0.60080456317E+03  0.61247336366E+02 -0.28081790569E+01  0.60392486719E+03  0.00000000000E+00 0.  1.
<mgrwt>
<rscale>  0 0.16521117E+04</rscale>
<asrwt>0</asrwt>
<pdfrwt beam="1">  1        1 0.28972771E+00 0.16521117E+04</pdfrwt>
<pdfrwt beam="2">  1       -1 0.55744506E-01 0.16521117E+04</pdfrwt>
<totfact> 0.11124046E+01</totfact>
</mgrwt>
</event>
<event>
 6    1  0.9906445E-006  0.2609848E+04  0.7818608E-02  0.8364864E-01
          2   -1    0    0  501    0  0.00000000000E+00  0.00000000000E+00  0.12103427821E+04  0.12103427821E+04  0.00000000000E+00 0. -1.
         -2   -1    0    0    0  501 -0.00000000000E+00 -0.00000000000E+00 -0.14068965878E+04  0.14068965878E+04  0.00000000000E+00 0.  1.
         23    2    1    2    0    0 -0.90430330202E+03  0.71722007621E+03  0.50849707860E+03  0.12647358213E+04  0.93905904362E+02 0.  0.
         13    1    3    3    0    0 -0.68630009143E+03  0.51914792034E+03  0.33900100974E+03  0.92490219120E+03  0.00000000000E+00 0. -1.
        -13    1    3    3    0    0 -0.21800321059E+03  0.19807215587E+03  0.16949606886E+03  0.33983363006E+03  0.00000000000E+00 0.  1.
         22    1    1    2    0    0  0.90430330202E+03 -0.71722007621E+03 -0.70505088433E+03  0.13525035487E+04  0.00000000000E+00 0.  1.
<mgrwt>
<rscale>  0 0.26098484E+04</rscale>
<asrwt>0</asrwt>
<pdfrwt beam="1">  1        2 0.18620658E+00 0.26098484E+04</pdfrwt>
<pdfrwt beam="2">  1       -2 0.21644563E+00 0.26098484E+04</pdfrwt>
<totfact> 0.17182723E+00</totfact>
</mgrwt>
</event>
<event>
 6    1  0.9906445E-006  0.2258190E+04  0.7818608E-02  0.8494591E-01
          2   -1    0    0  501    0  0.00000000000E+00  0.00000000000E+00  0.27132002017E+04  0.27132002017E+04  0.00000000000E+00 0. -1.
         -2   -1    0    0    0  501 -0.00000000000E+00 -0.00000000000E+00 -0.46987140841E+03  0.46987140841E+03  0.00000000000E+00 0.  1.
         23    2    1    2    0    0  0.53206291364E+03  0.69431916240E+03  0.12103833042E+03  0.88757888475E+03  0.89308207156E+02 0.  0.
         13    1    3    3    0    0  0.25981997517E+03  0.38210024222E+03  0.27369034341E+02  0.46287803862E+03  0.00000000000E+00 0.  1.
        -13    1    3    3    0    0  0.27224293847E+03  0.31221892018E+03  0.93669296077E+02  0.42470084612E+03  0.00000000000E+00 0. -1.
         22    1    1    2    0    0 -0.53206291364E+03 -0.69431916240E+03  0.21222904629E+04  0.22954927254E+04  0.00000000000E+00 0. -1.
<mgrwt>
<rscale>  0 0.22581897E+04</rscale>
<asrwt>0</asrwt>
<pdfrwt beam="1">  1        2 0.41741541E+00 0.22581897E+04</pdfrwt>
<pdfrwt beam="2">  1       -2 0.72287911E-01 0.22581897E+04</pdfrwt>
<totfact> 0.41107273E+00</totfact>
</mgrwt>
</event>
<event>
 6    1  0.9906445E-006  0.2987062E+04  0.7818608E-02  0.8247435E-01
          2   -1    0    0  501    0  0.00000000000E+00  0.00000000000E+00  0.20987710385E+04  0.20987710385E+04  0.00000000000E+00 0. -1.
         -2   -1    0    0    0  501 -0.00000000000E+00 -0.00000000000E+00 -0.10628292539E+04  0.10628292539E+04  0.00000000000E+00 0.  1.
         23    2    1    2    0    0  0.14729915711E+04  0.23824661630E+03  0.52378807841E+03  0.15840176362E+04  0.91062077730E+02 0.  0.
         11    1    3    3    0    0  0.41432429249E+03  0.62423609268E+02  0.19061401062E+03  0.46032057024E+03  0.00000000000E+00 0. -1.
        -11    1    3    3    0    0  0.10586672786E+04  0.17582300703E+03  0.33317406778E+03  0.11236970659E+04  0.00000000000E+00 0.  1.
         22    1    1    2    0    0 -0.14729915711E+04 -0.23824661630E+03  0.51215370613E+03  0.15775826563E+04  0.00000000000E+00 0.  1.
<mgrwt>
<rscale>  0 0.29870623E+04</rscale>
<asrwt>0</asrwt>
<pdfrwt beam="1">  1        2 0.32288785E+00 0.29870623E+04</pdfrwt>
<pdfrwt beam="2">  1       -2 0.16351219E+00 0.29870623E+04</pdfrwt>
<totfact> 0.11970931E+00</totfact>
</mgrwt>
</event>
<event>
 6    1  0.9906445E-006  0.2501399E+04  0.7818608E-02  0.8402487E-01
         -1   -1    0    0    0  501 -0.00000000000E+00  0.00000000000E+00  0.23149921374E+04  0.23149921374E+04  0.00000000000E+00 0.  1.
          1   -1    0    0  501    0  0.00000000000E+00 -0.00000000000E+00 -0.67570413960E+03  0.67570413960E+03  0.00000000000E+00 0. -1.
         23    2    1    2    0    0  0.55199607818E+03 -0.23397231039E+03 -0.48974760279E+03  0.77885647698E+03  0.85568597798E+02 0.  0.
         13    1    3    3    0    0  0.19720580554E+03 -0.92355238745E+02 -0.23103370612E+03  0.31748416217E+03  0.00000000000E+00 0.  1.
        -13    1    3    3    0    0  0.35479027264E+03 -0.14161707164E+03 -0.25871389667E+03  0.46137231481E+03  0.00000000000E+00 0. -1.
         22    1    1    2    0    0 -0.55199607818E+03  0.23397231039E+03  0.21290356006E+04  0.22118398000E+04  0.00000000000E+00 0.  1.
<mgrwt>
<rscale>  0 0.25013994E+04</rscale>
<asrwt>0</asrwt>
<pdfrwt beam="1">  1        1 0.10395448E+00 0.25013994E+04</pdfrwt>
<pdfrwt beam="2">  1       -1 0.35615263E+00 0.25013994E+04</pdfrwt>
<totfact> 0.36115263E-01</totfact>
</mgrwt>
</event>
<event>
 6    1  0.9906445E-006  0.3197575E+04  0.7818608E-02  0.8189458E-01
         -1   -1    0    0    0  501 -0.00000000000E+00  0.00000000000E+00  0.14497036067E+04  0.14497036067E+04  0.00000000000E+00 0.  1.
          1   -1    0    0  501    0  0.00000000000E+00 -0.00000000000E+00 -0.17632022997E+04  0.17632022997E+04  0.00000000000E+00 0. -1.
         23    2    1    2    0    0 -0.14690334987E+04  0.14406228604E+03 -0.77098756665E+03  0.16675549973E+04  0.86628391946E+02 0.  0.
         11    1    3    3    0    0 -0.37690164005E+03  0.64281305593E+02 -0.16999760832E+03  0.41843293293E+03  0.00000000000E+00 0.  1.
        -11    1    3    3    0    0 -0.10921318587E+04  0.79780980446E+02 -0.60098995833E+03  0.12491220643E+04  0.00000000000E+00 0. -1.
         22    1    1    2    0    0  0.14690334987E+04 -0.14406228604E+03  0.45748887363E+03  0.15453509091E+04  0.00000000000E+00 0.  1.
<mgrwt>
<rscale>  0 0.31975745E+04</rscale>
<asrwt>0</asrwt>
<pdfrwt beam="1">  1        1 0.27126189E+00 0.31975745E+04</pdfrwt>
<pdfrwt beam="2">  1       -1 0.22303132E+00 0.31975745E+04</pdfrwt>
<totfact> 0.37934287E-01</totfact>
</mgrwt>
</event>
<event>
 6    1  0.9906445E-006  0.2685104E+04  0.7818608E-02  0.8339854E-01
          1   -1    0    0  501    0  0.00000000000E+00  0.00000000000E+00  0.25695120184E+04  0.25695120184E+04  0.00000000000E+00 0. -1.
         -1   -1    0    0    0  501 -0.00000000000E+00 -0.00000000000E+00 -0.70147415943E+03  0.70147415943E+03  0.00000000000E+00 0.  1.
         23    2    1    2    0    0  0.10020561533E+04 -0.64598075339E+03  0.18719809379E+03  0.12102508760E+04  0.90864670910E+02 0.  0.
         13    1    3    3    0    0  0.45584285234E+03 -0.34743737961E+03  0.95540568582E+02  0.58106233661E+03  0.00000000000E+00 0.  1.
        -13    1    3    3    0    0  0.54621330094E+03 -0.29854337378E+03  0.91657525204E+02  0.62918853937E+03  0.00000000000E+00 0. -1.
         22    1    1    2    0    0 -0.10020561533E+04  0.64598075339E+03  0.16808397652E+04  0.20607353018E+04  0.00000000000E+00 0. -1.
<mgrwt>
<rscale>  0 0.26851043E+04</rscale>
<asrwt>0</asrwt>
<pdfrwt beam="1">  1        1 0.39530954E+00 0.26851043E+04</pdfrwt>
<pdfrwt beam="2">  1       -1 0.10791910E+00 0.26851043E+04</pdfrwt>
<totfact> 0.84549547E-01</totfact>
</mgrwt>
</event>
<event>
 6    1  0.9906445E-006  0.2031685E+04  0.7818608E-02  0.8591949E-01
          2   -1    0    0  501    0  0.00000000000E+00  0.00000000000E+00  0.51452572812E+03  0.51452572812E+03  0.00000000000E+00 0.  1.
         -2   -1    0    0    0  501 -0.00000000000E+00 -0.00000000000E+00 -0.20056062153E+04  0.20056062153E+04  0.00000000000E+00 0. -1.
         23    2    1    2    0    0  0.86707030892E+03  0.49453497824E+03 -0.96812160173E+03  0.13932505117E+04  0.86670567636E+02 0.  0.
         13    1    3    3    0    0  0.52078659824E+03  0.30497044366E+03 -0.52638601421E+03  0.80081701304E+03  0.00000000000E+00 0.  1.
        -13    1    3    3    0    0  0.34628371067E+03  0.18956453457E+03 -0.44173558752E+03  0.59243349866E+03  0.00000000000E+00 0. -1.
         22    1    1    2    0    0 -0.86707030892E+03 -0.49453497824E+03 -0.52295888546E+03  0.11268814317E+04  0.00000000000E+00 0.  1.
<mgrwt>
<rscale>  0 0.20316850E+04</rscale>
<asrwt>0</asrwt>
<pdfrwt beam="1">  1        2 0.79157803E-01 0.20316850E+04</pdfrwt>
<pdfrwt beam="2">  1       -2 0.30855481E+00 0.20316850E+04</pdfrwt>
<totfact> 0.15562235E+00</totfact>
</mgrwt>
</event>
<event>
 6    1  0.9906445E-006  0.4254770E+03  0.7818608E-02  0.1035298E+00
          2   -1    0    0  501    0  0.00000000000E+00  0.00000000000E+00  0.23830158476E+03  0.23830158476E+03  0.00000000000E+00 0. -1.
         -2   -1    0    0    0  501 -0.00000000000E+00 -0.00000000000E+00 -0.18991761976E+03  0.18991761976E+03  0.00000000000E+00 0.  1.
         23    2    1    2    0    0  0.17575570892E+03 -0.54061743302E+02  0.11145896786E+03  0.23381962300E+03  0.91846465773E+02 0.  0.
         11    1    3    3    0    0  0.13688141413E+03  0.48346819710E+00  0.88561572313E+02  0.16303345475E+03  0.00000000000E+00 0.  1.
        -11    1    3    3    0    0  0.38874294791E+02 -0.54545211499E+02  0.22897395550E+02  0.70786168253E+02  0.00000000000E+00 0. -1.
         22    1    1    2    0    0 -0.17575570892E+03  0.54061743302E+02 -0.63075002867E+02  0.19439958152E+03  0.00000000000E+00 0.  1.
<mgrwt>
<rscale>  0 0.42547700E+03</rscale>
<asrwt>0</asrwt>
<pdfrwt beam="1">  1        2 0.36661782E-01 0.42547700E+03</pdfrwt>
<pdfrwt beam="2">  1       -2 0.29218095E-01 0.42547700E+03</pdfrwt>
<totfact> 0.15195854E+03</totfact>
</mgrwt>
</event>
<event>
 6    1  0.9906445E-006  0.2860886E+04  0.7818608E-02  0.8284611E-01
          2   -1    0    0  501    0  0.00000000000E+00  0.00000000000E+00  0.37413159261E+04  0.37413159261E+04  0.00000000000E+00 0. -1.
         -2   -1    0    0    0  501 -0.00000000000E+00 -0.00000000000E+00 -0.54691114192E+03  0.54691114192E+03  0.00000000000E+00 0.  1.
         23    2    1    2    0    0 -0.68993276741E+03 -0.11382694763E+04  0.23780934959E+04  0.27268082442E+04  0.92140659149E+02 0.  0.
         13    1    3    3    0    0 -0.59654298793E+03 -0.94683749419E+03  0.19386494102E+04  0.22384651689E+04  0.00000000000E+00 0. -1.
        -13    1    3    3    0    0 -0.93389779482E+02 -0.19143198208E+03  0.43944408571E+03  0.48834307525E+03  0.00000000000E+00 0.  1.
         22    1    1    2    0    0  0.68993276741E+03  0.11382694763E+04  0.81631128831E+03  0.15614188239E+04  0.00000000000E+00 0.  1.
<mgrwt>
<rscale>  0 0.28608861E+04</rscale>
<asrwt>0</asrwt>
<pdfrwt beam="1">  1        2 0.57558705E+00 0.28608861E+04</pdfrwt>
<pdfrwt beam="2">  1       -2 0.84140178E-01 0.28608861E+04</pdfrwt>
<totfact> 0.58057017E-01</totfact>
</mgrwt>
</event>
<event>
 6    1  0.9906445E-006  0.1442976E+04  0.7818608E-02  0.8923284E-01
          2   -1    0    0  501    0  0.00000000000E+00  0.00000000000E+00  0.68466583215E+03  0.68466583215E+03  0.00000000000E+00 0. -1.
         -2   -1    0    0    0  501 -0.00000000000E+00 -0.00000000000E+00 -0.76029074142E+03  0.76029074142E+03  0.00000000000E+00 0.  1.
         23    2    1    2    0    0  0.29711978176E+03  0.49657922353E+02  0.61551862199E+03  0.69101661922E+03  0.88852237158E+02 0.  0.
         11    1    3    3    0    0  0.20811621223E+03  0.48391820233E+02  0.51011146957E+03  0.55305319586E+03  0.00000000000E+00 0.  1.
        -11    1    3    3    0    0  0.89003569531E+02  0.12661021196E+01  0.10540715242E+03  0.13796342336E+03  0.00000000000E+00 0. -1.
         22    1    1    2    0    0 -0.29711978176E+03 -0.49657922353E+02 -0.69114353126E+03  0.75393995436E+03  0.00000000000E+00 0.  1.
<mgrwt>
<rscale>  0 0.14429762E+04</rscale>
<asrwt>0</asrwt>
<pdfrwt beam="1">  1        2 0.10533321E+00 0.14429762E+04</pdfrwt>
<pdfrwt beam="2">  1       -2 0.11696781E+00 0.14429762E+04</pdfrwt>
<totfact> 0.23124454E+01</totfact>
</mgrwt>
</event>
<event>
 6    1  0.9906445E-006  0.6034201E+03  0.7818608E-02  0.9898336E-01
          2   -1    0    0  501    0  0.00000000000E+00  0.00000000000E+00  0.12455591417E+04  0.12455591417E+04  0.00000000000E+00 0. -1.
         -2   -1    0    0    0  501 -0.00000000000E+00 -0.00000000000E+00 -0.73082815466E+02  0.73082815466E+02  0.00000000000E+00 0.  1.
         23    2    1    2    0    0  0.47577563605E+02  0.12139112461E+03  0.11774050996E+04  0.11881669691E+04  0.91970365665E+02 0.  0.
         11    1    3    3    0    0  0.11633742855E+01 -0.14535409690E+02  0.71352572354E+02  0.72827337972E+02  0.00000000000E+00 0.  1.
        -11    1    3    3    0    0  0.46414189319E+02  0.13592653430E+03  0.11060525273E+04  0.11153396312E+04  0.00000000000E+00 0. -1.
         22    1    1    2    0    0 -0.47577563605E+02 -0.12139112461E+03 -0.49287734289E+01  0.13047498802E+03  0.00000000000E+00 0.  1.
<mgrwt>
<rscale>  0 0.60342015E+03</rscale>
<asrwt>0</asrwt>
<pdfrwt beam="1">  1        2 0.19162447E+00 0.60342015E+03</pdfrwt>
<pdfrwt beam="2">  1       -2 0.11243511E-01 0.60342015E+03</pdfrwt>
<totfact> 0.10210720E+03</totfact>
</mgrwt>
</event>
<event>
 6    1  0.9906445E-006  0.4091369E+04  0.7818608E-02  0.7986364E-01
          1   -1    0    0  501    0  0.00000000000E+00  0.00000000000E+00  0.35103234831E+04  0.35103234831E+04  0.00000000000E+00 0. -1.
         -1   -1    0    0    0  501 -0.00000000000E+00 -0.00000000000E+00 -0.11921478149E+04  0.11921478149E+04  0.00000000000E+00 0.  1.
         23    2    1    2    0    0 -0.13169657823E+04  0.58984375001E+02  0.29560293578E+04  0.32379797965E+04  0.92334012648E+02 0.  0.
         13    1    3    3    0    0 -0.51889735512E+03 -0.10981650453E+02  0.12348872203E+04  0.13395228660E+04  0.00000000000E+00 0.  1.
        -13    1    3    3    0    0 -0.79806842722E+03  0.69966025454E+02  0.17211421376E+04  0.18984569305E+04  0.00000000000E+00 0. -1.
         22    1    1    2    0    0  0.13169657823E+04 -0.58984375001E+02 -0.63785368964E+03  0.14644915014E+04  0.00000000000E+00 0.  1.
<mgrwt>
<rscale>  0 0.40913687E+04</rscale>
<asrwt>0</asrwt>
<pdfrwt beam="1">  1        1 0.54004976E+00 0.40913687E+04</pdfrwt>
<pdfrwt beam="2">  1       -1 0.18340736E+00 0.40913687E+04</pdfrwt>
<totfact> 0.37423449E-02</totfact>
</mgrwt>
</event>
<event>
 6    1  0.9906445E-006  0.5600580E+03  0.7818608E-02  0.9991923E-01
         -1   -1    0    0    0  501 -0.00000000000E+00  0.00000000000E+00  0.43719989542E+02  0.43719989542E+02  0.00000000000E+00 0.  1.
          1   -1    0    0  501    0  0.00000000000E+00 -0.00000000000E+00 -0.17936018347E+04  0.17936018347E+04  0.00000000000E+00 0. -1.
         23    2    1    2    0    0 -0.13476691835E+03  0.22827109276E+03 -0.68951519081E+03  0.74432262218E+03  0.91187463217E+02 0.  0.
         11    1    3    3    0    0 -0.96639260163E+02  0.87319253455E+02 -0.26257525922E+03  0.29310333568E+03  0.00000000000E+00 0. -1.
        -11    1    3    3    0    0 -0.38127658192E+02  0.14095183930E+03 -0.42693993159E+03  0.45121928650E+03  0.00000000000E+00 0.  1.
         22    1    1    2    0    0  0.13476691835E+03 -0.22827109276E+03 -0.10603666543E+04  0.10929992020E+04  0.00000000000E+00 0.  1.
<mgrwt>
<rscale>  0 0.56005805E+03</rscale>
<asrwt>0</asrwt>
<pdfrwt beam="1">  1        1 0.27593883E+00 0.56005805E+03</pdfrwt>
<pdfrwt beam="2">  1       -1 0.67261501E-02 0.56005805E+03</pdfrwt>
<totfact> 0.50154743E+02</totfact>
</mgrwt>
</event>
<event>
 6    1  0.9906445E-006  0.4007224E+04  0.7818608E-02  0.8003091E-01
         -2   -1    0    0    0  501 -0.00000000000E+00  0.00000000000E+00  0.22649862711E+04  0.22649862711E+04  0.00000000000E+00 0.  1.
          2   -1    0    0  501    0  0.00000000000E+00 -0.00000000000E+00 -0.17723995608E+04  0.17723995608E+04  0.00000000000E+00 0. -1.
         23    2    1    2    0    0  0.75237402511E+03  0.16126113488E+04  0.11719217377E+04  0.21326343743E+04  0.90259511324E+02 0.  0.
         11    1    3    3    0    0  0.53744805234E+03  0.10564897346E+04  0.76341444868E+03  0.14099016237E+04  0.00000000000E+00 0. -1.
        -11    1    3    3    0    0  0.21492597277E+03  0.55612161419E+03  0.40850728905E+03  0.72273275057E+03  0.00000000000E+00 0.  1.
         22    1    1    2    0    0 -0.75237402511E+03 -0.16126113488E+04 -0.67933502747E+03  0.19047514576E+04  0.00000000000E+00 0. -1.
<mgrwt>
<rscale>  0 0.40072238E+04</rscale>
<asrwt>0</asrwt>
<pdfrwt beam="1">  1        2 0.27267686E+00 0.40072238E+04</pdfrwt>
<pdfrwt beam="2">  1       -2 0.34845943E+00 0.40072238E+04</pdfrwt>
<totfact> 0.11209941E-01</totfact>
</mgrwt>
</event>
<event>
 6    1  0.9906445E-006  0.1525806E+04  0.7818608E-02  0.8867471E-01
          1   -1    0    0  501    0  0.00000000000E+00  0.00000000000E+00  0.13222623935E+04  0.13222623935E+04  0.00000000000E+00 0. -1.
         -1   -1    0    0    0  501 -0.00000000000E+00 -0.00000000000E+00 -0.44017060094E+03  0.44017060094E+03  0.00000000000E+00 0.  1.
         23    2    1    2    0    0 -0.34434819421E+03  0.21606082939E+03 -0.29913727881E+03  0.51320920348E+03  0.92965660933E+02 0.  0.
         13    1    3    3    0    0 -0.27184584239E+03  0.20906141849E+03 -0.26119770096E+03  0.43108128898E+03  0.00000000000E+00 0.  1.
        -13    1    3    3    0    0 -0.72502351824E+02  0.69994109033E+01 -0.37939577851E+02  0.82127914503E+02  0.00000000000E+00 0. -1.
         22    1    1    2    0    0  0.34434819421E+03 -0.21606082939E+03  0.11812290714E+04  0.12492237910E+04  0.00000000000E+00 0. -1.
<mgrwt>
<rscale>  0 0.15258061E+04</rscale>
<asrwt>0</asrwt>
<pdfrwt beam="1">  1        1 0.20342498E+00 0.15258061E+04</pdfrwt>
<pdfrwt beam="2">  1       -1 0.67718555E-01 0.15258061E+04</pdfrwt>
<totfact> 0.18588328E+01</totfact>
</mgrwt>
</event>
<event>
 6    1  0.9906445E-006  0.3134070E+04  0.7818608E-02  0.8206450E-01
          1   -1    0    0  501    0  0.00000000000E+00  0.00000000000E+00  0.96674633160E+03  0.96674633160E+03  0.00000000000E+00 0. -1.
         -1   -1    0    0    0  501 -0.00000000000E+00 -0.00000000000E+00 -0.25400644298E+04  0.25400644298E+04  0.00000000000E+00 0.  1.
         23    2    1    2    0    0 -0.77821160919E+03  0.42929497066E+03 -0.22296312687E+04  0.24019784401E+04  0.91309099572E+02 0.  0.
         13    1    3    3    0    0 -0.41991149749E+03  0.24016012146E+03 -0.13329773088E+04  0.14180377482E+04  0.00000000000E+00 0.  1.
        -13    1    3    3    0    0 -0.35830011170E+03  0.18913484919E+03 -0.89665395998E+03  0.98394069189E+03  0.00000000000E+00 0. -1.
         22    1    1    2    0    0  0.77821160919E+03 -0.42929497066E+03  0.65631317049E+03  0.11048323213E+04  0.00000000000E+00 0. -1.
<mgrwt>
<rscale>  0 0.31340695E+04</rscale>
<asrwt>0</asrwt>
<pdfrwt beam="1">  1        1 0.14873020E+00 0.31340695E+04</pdfrwt>
<pdfrwt beam="2">  1       -1 0.39077914E+00 0.31340695E+04</pdfrwt>
<totfact> 0.11173722E-01</totfact>
</mgrwt>
</event>
<event>
 6    1  0.9906445E-006  0.4215888E+04  0.7818608E-02  0.7962357E-01
         -2   -1    0    0    0  501 -0.00000000000E+00  0.00000000000E+00  0.17006873629E+04  0.17006873629E+04  0.00000000000E+00 0.  1.
          2   -1    0    0  501    0  0.00000000000E+00 -0.00000000000E+00 -0.26127248151E+04  0.26127248151E+04  0.00000000000E+00 0. -1.
         23    2    1    2    0    0  0.15659950056E+03  0.15440659108E+04  0.10016688644E+04  0.18494854732E+04  0.92698765382E+02 0.  0.
         13    1    3    3    0    0  0.56108972577E+02  0.32985737876E+03  0.25304881464E+03  0.41950901029E+03  0.00000000000E+00 0. -1.
        -13    1    3    3    0    0  0.10049052798E+03  0.12142085321E+04  0.74862004980E+03  0.14299764629E+04  0.00000000000E+00 0.  1.
         22    1    1    2    0    0 -0.15659950056E+03 -0.15440659108E+04 -0.19137063166E+04  0.24639267048E+04  0.00000000000E+00 0. -1.
<mgrwt>
<rscale>  0 0.42158881E+04</rscale>
<asrwt>0</asrwt>
<pdfrwt beam="1">  1        2 0.40195766E+00 0.42158881E+04</pdfrwt>
<pdfrwt beam="2">  1       -2 0.26164421E+00 0.42158881E+04</pdfrwt>
<totfact> 0.12641489E-01</totfact>
</mgrwt>
</event>
<event>
 6    1  0.9906445E-006  0.4694924E+04  0.7818608E-02  0.7877373E-01
         -2   -1    0    0    0  501 -0.00000000000E+00  0.00000000000E+00  0.20305774630E+04  0.20305774630E+04  0.00000000000E+00 0.  1.
          2   -1    0    0  501    0  0.00000000000E+00 -0.00000000000E+00 -0.27137984708E+04  0.27137984708E+04  0.00000000000E+00 0. -1.
         23    2    1    2    0    0 -0.21011489022E+04 -0.10447740691E+04 -0.33706806827E+03  0.23724144201E+04  0.91409701004E+02 0.  0.
         11    1    3    3    0    0 -0.10179998871E+04 -0.45791100024E+03 -0.14541749218E+03  0.11256786848E+04  0.00000000000E+00 0. -1.
        -11    1    3    3    0    0 -0.10831490150E+04 -0.58686306888E+03 -0.19165057609E+03  0.12467357353E+04  0.00000000000E+00 0.  1.
         22    1    1    2    0    0  0.21011489022E+04  0.10447740691E+04 -0.34615293952E+03  0.23719615136E+04  0.00000000000E+00 0. -1.
<mgrwt>
<rscale>  0 0.46949241E+04</rscale>
<asrwt>0</asrwt>
<pdfrwt beam="1">  1        2 0.41750746E+00 0.46949241E+04</pdfrwt>
<pdfrwt beam="2">  1       -2 0.31239653E+00 0.46949241E+04</pdfrwt>
<totfact> 0.51834801E-02</totfact>
</mgrwt>
</event>
<event>
 6    1  0.9906445E-006  0.2647247E+04  0.7818608E-02  0.8352327E-01
          1   -1    0    0  501    0  0.00000000000E+00  0.00000000000E+00  0.14634589082E+04  0.14634589082E+04  0.00000000000E+00 0. -1.
         -1   -1    0    0    0  501 -0.00000000000E+00 -0.00000000000E+00 -0.11971495531E+04  0.11971495531E+04  0.00000000000E+00 0.  1.
         23    2    1    2    0    0  0.37889380457E+03 -0.12032169758E+04  0.53081778856E+03  0.13717111353E+04  0.92370493273E+02 0.  0.
         13    1    3    3    0    0  0.20388729851E+03 -0.70295342478E+03  0.26166103333E+03  0.77729019309E+03  0.00000000000E+00 0. -1.
        -13    1    3    3    0    0  0.17500650605E+03 -0.50026355098E+03  0.26915675523E+03  0.59442094216E+03  0.00000000000E+00 0.  1.
         22    1    1    2    0    0 -0.37889380457E+03  0.12032169758E+04 -0.26450843348E+03  0.12888973261E+04  0.00000000000E+00 0.  1.
<mgrwt>
<rscale>  0 0.26472470E+04</rscale>
<asrwt>0</asrwt>
<pdfrwt beam="1">  1        1 0.22514753E+00 0.26472470E+04</pdfrwt>
<pdfrwt beam="2">  1       -1 0.18417685E+00 0.26472470E+04</pdfrwt>
<totfact> 0.11819717E+00</totfact>
</mgrwt>
</event>
<event>
 6    1  0.9906445E-006  0.2630537E+04  0.7818608E-02  0.8357902E-01
         -2   -1    0    0    0  501 -0.00000000000E+00  0.00000000000E+00  0.51570311418E+03  0.51570311418E+03  0.00000000000E+00 0.  1.
          2   -1    0    0  501    0  0.00000000000E+00 -0.00000000000E+00 -0.33545107318E+04  0.33545107318E+04  0.00000000000E+00 0. -1.
         23    2    1    2    0    0 -0.10162692002E+04  0.80037054152E+03 -0.17570660091E+04  0.21839276903E+04  0.94144067067E+02 0.  0.
         13    1    3    3    0    0 -0.14996672456E+03  0.15984827783E+03 -0.31912820768E+03  0.38714894206E+03  0.00000000000E+00 0. -1.
        -13    1    3    3    0    0 -0.86630247564E+03  0.64052226369E+03 -0.14379378014E+04  0.17967787483E+04  0.00000000000E+00 0.  1.
         22    1    1    2    0    0  0.10162692002E+04 -0.80037054152E+03 -0.10817416086E+04  0.16862861556E+04  0.00000000000E+00 0. -1.
<mgrwt>
<rscale>  0 0.26305373E+04</rscale>
<asrwt>0</asrwt>
<pdfrwt beam="1">  1        2 0.51607856E+00 0.26305373E+04</pdfrwt>
<pdfrwt beam="2">  1       -2 0.79338942E-01 0.26305373E+04</pdfrwt>
<totfact> 0.12724970E+00</totfact>
</mgrwt>
</event>
<event>
 6    1  0.9906445E-006  0.2129673E+04  0.7818608E-02  0.8548283E-01
         -1   -1    0    0    0  501 -0.00000000000E+00  0.00000000000E+00  0.59229107080E+03  0.59229107080E+03  0.00000000000E+00 0.  1.
          1   -1    0    0  501    0  0.00000000000E+00 -0.00000000000E+00 -0.19143919601E+04  0.19143919601E+04  0.00000000000E+00 0. -1.
         23    2    1    2    0    0  0.40946926692E+03  0.94793763591E+03 -0.95890436550E+03  0.14120769113E+04  0.90624384871E+02 0.  0.
         11    1    3    3    0    0  0.23119161484E+03  0.43757597045E+03 -0.42638461633E+03  0.65324278315E+03  0.00000000000E+00 0.  1.
        -11    1    3    3    0    0  0.17827765208E+03  0.51036166545E+03 -0.53251974917E+03  0.75883412816E+03  0.00000000000E+00 0. -1.
         22    1    1    2    0    0 -0.40946926692E+03 -0.94793763591E+03 -0.36319652376E+03  0.10946061196E+04  0.00000000000E+00 0.  1.
<mgrwt>
<rscale>  0 0.21296735E+04</rscale>
<asrwt>0</asrwt>
<pdfrwt beam="1">  1        1 0.29452184E+00 0.21296735E+04</pdfrwt>
<pdfrwt beam="2">  1       -1 0.91121703E-01 0.21296735E+04</pdfrwt>
<totfact> 0.36720664E+00</totfact>
</mgrwt>
</event>
<event>
 6    1  0.9906445E-006  0.1567926E+04  0.7818608E-02  0.8840498E-01
         -1   -1    0    0    0  501 -0.00000000000E+00  0.00000000000E+00  0.16398425149E+04  0.16398425149E+04  0.00000000000E+00 0.  1.
          1   -1    0    0  501    0  0.00000000000E+00 -0.00000000000E+00 -0.37479109402E+03  0.37479109402E+03  0.00000000000E+00 0. -1.
         23    2    1    2    0    0 -0.11707795719E+03 -0.11658637665E+03  0.16159415388E+04  0.16267889157E+04  0.88743946872E+02 0.  0.
         11    1    3    3    0    0 -0.84121306051E+02 -0.11003614504E+03  0.95478840768E+03  0.96478248884E+03  0.00000000000E+00 0. -1.
        -11    1    3    3    0    0 -0.32956651139E+02 -0.65502316117E+01  0.66115313111E+03  0.66200642683E+03  0.00000000000E+00 0.  1.
         22    1    1    2    0    0  0.11707795719E+03  0.11658637665E+03 -0.35089011788E+03  0.38784469328E+03  0.00000000000E+00 0. -1.
<mgrwt>
<rscale>  0 0.15679265E+04</rscale>
<asrwt>0</asrwt>
<pdfrwt beam="1">  1        1 0.57660169E-01 0.15679265E+04</pdfrwt>
<pdfrwt beam="2">  1       -1 0.25228346E+00 0.15679265E+04</pdfrwt>
<totfact> 0.42421628E+00</totfact>
</mgrwt>
</event>
<event>
 6    1  0.9906445E-006  0.1332611E+04  0.7818608E-02  0.9004097E-01
          1   -1    0    0  501    0  0.00000000000E+00  0.00000000000E+00  0.15843600904E+04  0.15843600904E+04  0.00000000000E+00 0. -1.
         -1   -1    0    0    0  501 -0.00000000000E+00 -0.00000000000E+00 -0.28021600288E+03  0.28021600288E+03  0.00000000000E+00 0.  1.
         23    2    1    2    0    0 -0.28333244568E+03 -0.17682007927E+03  0.14568659637E+04  0.14973342293E+04  0.89491580113E+02 0.  0.
         13    1    3    3    0    0 -0.15444189241E+03 -0.98711494083E+02  0.60201979738E+03  0.62930445226E+03  0.00000000000E+00 0. -1.
        -13    1    3    3    0    0 -0.12889055327E+03 -0.78108585192E+02  0.85484616628E+03  0.86802977703E+03  0.00000000000E+00 0.  1.
         22    1    1    2    0    0  0.28333244568E+03  0.17682007927E+03 -0.15272187615E+03  0.36724186399E+03  0.00000000000E+00 0.  1.
<mgrwt>
<rscale>  0 0.13326110E+04</rscale>
<asrwt>0</asrwt>
<pdfrwt beam="1">  1        1 0.24374770E+00 0.13326110E+04</pdfrwt>
<pdfrwt beam="2">  1       -1 0.43110155E-01 0.13326110E+04</pdfrwt>
<totfact> 0.29741042E+01</totfact>
</mgrwt>
</event>
<event>
 6    1  0.9906445E-006  0.1163896E+04  0.7818608E-02  0.9145059E-01
          1   -1    0    0  501    0  0.00000000000E+00  0.00000000000E+00  0.11191321875E+04  0.11191321875E+04  0.00000000000E+00 0. -1.
         -1   -1    0    0    0  501 -0.00000000000E+00 -0.00000000000E+00 -0.30261232921E+03  0.30261232921E+03  0.00000000000E+00 0.  1.
         23    2    1    2    0    0  0.19318877519E+03  0.13199622672E+03 -0.23526443033E+03  0.34424969236E+03  0.91725633201E+02 0.  0.
         11    1    3    3    0    0 -0.91112793368E+01  0.24641120621E+01 -0.18141588422E+02  0.20450048653E+02  0.00000000000E+00 0.  1.
        -11    1    3    3    0    0  0.20230005452E+03  0.12953211466E+03 -0.21712284191E+03  0.32379964371E+03  0.00000000000E+00 0. -1.
         22    1    1    2    0    0 -0.19318877519E+03 -0.13199622672E+03  0.10517842886E+04  0.10774948244E+04  0.00000000000E+00 0. -1.
<mgrwt>
<rscale>  0 0.11638955E+04</rscale>
<asrwt>0</asrwt>
<pdfrwt beam="1">  1        1 0.17217418E+00 0.11638955E+04</pdfrwt>
<pdfrwt beam="2">  1       -1 0.46555743E-01 0.11638955E+04</pdfrwt>
<totfact> 0.55897715E+01</totfact>
</mgrwt>
</event>
<event>
 6    1  0.9906445E-006  0.1576091E+04  0.7818608E-02  0.8835372E-01
          3   -1    0    0  501    0  0.00000000000E+00  0.00000000000E+00  0.96975025918E+03  0.96975025918E+03  0.00000000000E+00 0. -1.
         -3   -1    0    0    0  501 -0.00000000000E+00 -0.00000000000E+00 -0.64038745156E+03  0.64038745156E+03  0.00000000000E+00 0.  1.
         23    2    1    2    0    0 -0.15451341708E+03 -0.76618162033E+03  0.23001228551E+03  0.82224228771E+03  0.11076126048E+03 0.  0.
         13    1    3    3    0    0 -0.11195986425E+03 -0.32105918853E+03  0.13012609103E+03  0.36406979181E+03  0.00000000000E+00 0.  1.
        -13    1    3    3    0    0 -0.42553552829E+02 -0.44512243180E+03  0.99886194473E+02  0.45817249590E+03  0.00000000000E+00 0. -1.
         22    1    1    2    0    0  0.15451341708E+03  0.76618162033E+03  0.99350522109E+02  0.78789542303E+03  0.00000000000E+00 0. -1.
<mgrwt>
<rscale>  0 0.15760912E+04</rscale>
<asrwt>0</asrwt>
<pdfrwt beam="1">  1        3 0.14919235E+00 0.15760912E+04</pdfrwt>
<pdfrwt beam="2">  1       -3 0.98521146E-01 0.15760912E+04</pdfrwt>
<totfact> 0.74676545E-01</totfact>
</mgrwt>
</event>
<event>
 6    1  0.9906445E-006  0.1317416E+04  0.7818608E-02  0.9015867E-01
         -2   -1    0    0    0  501 -0.00000000000E+00  0.00000000000E+00  0.61049055580E+03  0.61049055580E+03  0.00000000000E+00 0.  1.
          2   -1    0    0  501    0  0.00000000000E+00 -0.00000000000E+00 -0.71073419327E+03  0.71073419327E+03  0.00000000000E+00 0. -1.
         23    2    1    2    0    0  0.36305819917E+03  0.42136100456E+03  0.29766242030E+03  0.63734933427E+03  0.90856509328E+02 0.  0.
         13    1    3    3    0    0  0.28632466457E+03  0.30557431342E+03  0.18201423256E+03  0.45660338963E+03  0.00000000000E+00 0.  1.
        -13    1    3    3    0    0  0.76733534594E+02  0.11578669115E+03  0.11564818774E+03  0.18074594465E+03  0.00000000000E+00 0. -1.
         22    1    1    2    0    0 -0.36305819917E+03 -0.42136100456E+03 -0.39790605778E+03  0.68387541480E+03  0.00000000000E+00 0. -1.
<mgrwt>
<rscale>  0 0.13174164E+04</rscale>
<asrwt>0</asrwt>
<pdfrwt beam="1">  1        2 0.10934372E+00 0.13174164E+04</pdfrwt>
<pdfrwt beam="2">  1       -2 0.93921623E-01 0.13174164E+04</pdfrwt>
<totfact> 0.37672123E+01</totfact>
</mgrwt>
</event>
<event>
 6    1  0.9906445E-006  0.2048932E+04  0.7818608E-02  0.8584079E-01
          1   -1    0    0  501    0  0.00000000000E+00  0.00000000000E+00  0.87268224810E+03  0.87268224810E+03  0.00000000000E+00 0. -1.
         -1   -1    0    0    0  501 -0.00000000000E+00 -0.00000000000E+00 -0.12026486322E+04  0.12026486322E+04  0.00000000000E+00 0.  1.
         23    2    1    2    0    0 -0.49661861807E+03  0.88984438814E+03 -0.81832960921E+02  0.10265109327E+04  0.92601157878E+02 0.  0.
         11    1    3    3    0    0 -0.77476096863E+02  0.21781619592E+03 -0.14949327876E+02  0.23166769993E+03  0.00000000000E+00 0. -1.
        -11    1    3    3    0    0 -0.41914252121E+03  0.67202819223E+03 -0.66883633045E+02  0.79484323272E+03  0.00000000000E+00 0.  1.
         22    1    1    2    0    0  0.49661861807E+03 -0.88984438814E+03 -0.24813342319E+03  0.10488199477E+04  0.00000000000E+00 0.  1.
<mgrwt>
<rscale>  0 0.20489315E+04</rscale>
<asrwt>0</asrwt>
<pdfrwt beam="1">  1        1 0.13425881E+00 0.20489315E+04</pdfrwt>
<pdfrwt beam="2">  1       -1 0.18502287E+00 0.20489315E+04</pdfrwt>
<totfact> 0.33925362E+00</totfact>
</mgrwt>
</event>
<event>
 6    1  0.9906445E-006  0.9679996E+03  0.7818608E-02  0.9344356E-01
         -2   -1    0    0    0  501 -0.00000000000E+00  0.00000000000E+00  0.38139114896E+03  0.38139114896E+03  0.00000000000E+00 0.  1.
          2   -1    0    0  501    0  0.00000000000E+00 -0.00000000000E+00 -0.61421403734E+03  0.61421403734E+03  0.00000000000E+00 0. -1.
         23    2    1    2    0    0  0.14516730418E+03 -0.45332117419E+03 -0.57950516602E+02  0.48850166672E+03  0.93284419071E+02 0.  0.
         13    1    3    3    0    0  0.59316296818E+02 -0.23325678347E+03  0.15358183022E+02  0.24117011400E+03  0.00000000000E+00 0. -1.
        -13    1    3    3    0    0  0.85851007367E+02 -0.22006439072E+03 -0.73308699623E+02  0.24733155272E+03  0.00000000000E+00 0.  1.
         22    1    1    2    0    0 -0.14516730418E+03  0.45332117419E+03 -0.17487237178E+03  0.50710351959E+03  0.00000000000E+00 0.  1.
<mgrwt>
<rscale>  0 0.96799958E+03</rscale>
<asrwt>0</asrwt>
<pdfrwt beam="1">  1        2 0.94494467E-01 0.96799958E+03</pdfrwt>
<pdfrwt beam="2">  1       -2 0.58675562E-01 0.96799958E+03</pdfrwt>
<totfact> 0.13095069E+02</totfact>
</mgrwt>
</event>
<event>
 6    1  0.9906445E-006  0.1767064E+04  0.7818608E-02  0.8724013E-01
         -1   -1    0    0    0  501 -0.00000000000E+00  0.00000000000E+00  0.26113140404E+03  0.26113140404E+03  0.00000000000E+00 0.  1.
          1   -1    0    0  501    0  0.00000000000E+00 -0.00000000000E+00 -0.29894113668E+04  0.29894113668E+04  0.00000000000E+00 0. -1.
         23    2    1    2    0    0 -0.54577023588E+03 -0.68774087497E+03 -0.12292223370E+04  0.15132959758E+04  0.90689002341E+02 0.  0.
         13    1    3    3    0    0 -0.24505803105E+03 -0.27535985185E+03 -0.58425663763E+03  0.69082002375E+03  0.00000000000E+00 0.  1.
        -13    1    3    3    0    0 -0.30071220483E+03 -0.41238102312E+03 -0.64496569941E+03  0.82247595210E+03  0.00000000000E+00 0. -1.
         22    1    1    2    0    0  0.54577023588E+03  0.68774087497E+03 -0.14990576257E+04  0.17372467950E+04  0.00000000000E+00 0.  1.
<mgrwt>
<rscale>  0 0.17670644E+04</rscale>
<asrwt>0</asrwt>
<pdfrwt beam="1">  1        1 0.45990948E+00 0.17670644E+04</pdfrwt>
<pdfrwt beam="2">  1       -1 0.40174059E-01 0.17670644E+04</pdfrwt>
<totfact> 0.34908755E+00</totfact>
</mgrwt>
</event>
<event>
 6    1  0.9906445E-006  0.2047787E+04  0.7818608E-02  0.8584599E-01
          2   -1    0    0  501    0  0.00000000000E+00  0.00000000000E+00  0.20101862231E+04  0.20101862231E+04  0.00000000000E+00 0. -1.
         -2   -1    0    0    0  501 -0.00000000000E+00 -0.00000000000E+00 -0.52152281686E+03  0.52152281686E+03  0.00000000000E+00 0.  1.
         23    2    1    2    0    0  0.66384021150E+03  0.39056466123E+02 -0.21339970648E+03  0.70435355357E+03  0.91461793947E+02 0.  0.
         13    1    3    3    0    0  0.49909698663E+03  0.38976750545E+02 -0.11932066360E+03  0.51464007802E+03  0.00000000000E+00 0.  1.
        -13    1    3    3    0    0  0.16474322487E+03  0.79715578830E-01 -0.94079042880E+02  0.18971347555E+03  0.00000000000E+00 0. -1.
         22    1    1    2    0    0 -0.66384021150E+03 -0.39056466123E+02  0.17020631127E+04  0.18273554864E+04  0.00000000000E+00 0. -1.
<mgrwt>
<rscale>  0 0.20477871E+04</rscale>
<asrwt>0</asrwt>
<pdfrwt beam="1">  1        2 0.30925941E+00 0.20477871E+04</pdfrwt>
<pdfrwt beam="2">  1       -2 0.80234281E-01 0.20477871E+04</pdfrwt>
<totfact> 0.83801395E+00</totfact>
</mgrwt>
</event>
<event>
 6    1  0.9906445E-006  0.3622852E+04  0.7818608E-02  0.8085277E-01
          1   -1    0    0  501    0  0.00000000000E+00  0.00000000000E+00  0.43622891997E+04  0.43622891997E+04  0.00000000000E+00 0. -1.
         -1   -1    0    0    0  501 -0.00000000000E+00 -0.00000000000E+00 -0.75218843084E+03  0.75218843084E+03  0.00000000000E+00 0.  1.
         23    2    1    2    0    0  0.12485643426E+04  0.50665351184E+03  0.35129661985E+04  0.37635350620E+04  0.87486869948E+02 0.  0.
         13    1    3    3    0    0  0.59717894867E+03  0.24159823547E+03  0.18016238265E+04  0.19133323852E+04  0.00000000000E+00 0. -1.
        -13    1    3    3    0    0  0.65138539391E+03  0.26505527637E+03  0.17113423720E+04  0.18502026768E+04  0.00000000000E+00 0.  1.
         22    1    1    2    0    0 -0.12485643426E+04 -0.50665351184E+03  0.97134570307E+02  0.13509425685E+04  0.00000000000E+00 0. -1.
<mgrwt>
<rscale>  0 0.36228516E+04</rscale>
<asrwt>0</asrwt>
<pdfrwt beam="1">  1        1 0.67112140E+00 0.36228516E+04</pdfrwt>
<pdfrwt beam="2">  1       -1 0.11572130E+00 0.36228516E+04</pdfrwt>
<totfact> 0.24079475E-02</totfact>
</mgrwt>
</event>
<event>
 6    1  0.9906445E-006  0.1651363E+04  0.7818608E-02  0.8789601E-01
         -1   -1    0    0    0  501 -0.00000000000E+00  0.00000000000E+00  0.30558801193E+03  0.30558801193E+03  0.00000000000E+00 0.  1.
          1   -1    0    0  501    0  0.00000000000E+00 -0.00000000000E+00 -0.22309448091E+04  0.22309448091E+04  0.00000000000E+00 0. -1.
         23    2    1    2    0    0 -0.45214105227E+03 -0.67406461361E+03 -0.11754986149E+04  0.14315070621E+04  0.92848481905E+02 0.  0.
         13    1    3    3    0    0 -0.16048598131E+03 -0.18797500712E+03 -0.41416756998E+03  0.48231227387E+03  0.00000000000E+00 0.  1.
        -13    1    3    3    0    0 -0.29165507097E+03 -0.48608960649E+03 -0.76133104497E+03  0.94919478822E+03  0.00000000000E+00 0. -1.
         22    1    1    2    0    0  0.45214105227E+03  0.67406461361E+03 -0.74985818220E+03  0.11050257589E+04  0.00000000000E+00 0.  1.
<mgrwt>
<rscale>  0 0.16513631E+04</rscale>
<asrwt>0</asrwt>
<pdfrwt beam="1">  1        1 0.34322227E+00 0.16513631E+04</pdfrwt>
<pdfrwt beam="2">  1       -1 0.47013542E-01 0.16513631E+04</pdfrwt>
<totfact> 0.89516731E+00</totfact>
</mgrwt>
</event>
<event>
 6    1  0.9906445E-006  0.2415536E+03  0.7818608E-02  0.1118762E+00
         -2   -1    0    0    0  501 -0.00000000000E+00  0.00000000000E+00  0.50245086146E+02  0.50245086146E+02  0.00000000000E+00 0.  1.
          2   -1    0    0  501    0  0.00000000000E+00 -0.00000000000E+00 -0.29031755718E+03  0.29031755718E+03  0.00000000000E+00 0. -1.
         23    2    1    2    0    0  0.54634171324E+02  0.68523989920E+01 -0.18093687968E+02  0.11185665700E+03  0.95669651006E+02 0.  0.
         13    1    3    3    0    0  0.53287959307E+02  0.46491298891E+02 -0.12032783019E+02  0.71734478090E+02  0.00000000000E+00 0. -1.
        -13    1    3    3    0    0  0.13462120168E+01 -0.39638899899E+02 -0.60609049492E+01  0.40122178914E+02  0.00000000000E+00 0.  1.
         22    1    1    2    0    0 -0.54634171324E+02 -0.68523989920E+01 -0.22197878307E+03  0.22870598633E+03  0.00000000000E+00 0. -1.
<mgrwt>
<rscale>  0 0.24155356E+03</rscale>
<asrwt>0</asrwt>
<pdfrwt beam="1">  1        2 0.44664239E-01 0.24155356E+03</pdfrwt>
<pdfrwt beam="2">  1       -2 0.77300133E-02 0.24155356E+03</pdfrwt>
<totfact> 0.11121361E+04</totfact>
</mgrwt>
</event>
<event>
 6    1  0.9906445E-006  0.1514902E+04  0.7818608E-02  0.8874603E-01
          2   -1    0    0  501    0  0.00000000000E+00  0.00000000000E+00  0.45135649969E+03  0.45135649969E+03  0.00000000000E+00 0.  1.
         -2   -1    0    0    0  501 -0.00000000000E+00 -0.00000000000E+00 -0.12711285293E+04  0.12711285293E+04  0.00000000000E+00 0. -1.
         23    2    1    2    0    0  0.73999411684E+02 -0.23489383997E+03  0.39977613427E+03  0.47831914255E+03  0.91198769792E+02 0.  0.
         13    1    3    3    0    0  0.47223189362E+02 -0.66377188297E+02  0.19778721620E+03  0.21390592239E+03  0.00000000000E+00 0. -1.
        -13    1    3    3    0    0  0.26776222322E+02 -0.16851665168E+03  0.20198891806E+03  0.26441322016E+03  0.00000000000E+00 0.  1.
         22    1    1    2    0    0 -0.73999411684E+02  0.23489383997E+03 -0.12195481638E+04  0.12441658864E+04  0.00000000000E+00 0. -1.
<mgrwt>
<rscale>  0 0.15149021E+04</rscale>
<asrwt>0</asrwt>
<pdfrwt beam="1">  1        2 0.69439461E-01 0.15149021E+04</pdfrwt>
<pdfrwt beam="2">  1       -2 0.19555824E+00 0.15149021E+04</pdfrwt>
<totfact> 0.95083079E+00</totfact>
</mgrwt>
</event>
<event>
 6    1  0.9906445E-006  0.1748274E+04  0.7818608E-02  0.8734301E-01
          1   -1    0    0  501    0  0.00000000000E+00  0.00000000000E+00  0.10541423140E+04  0.10541423140E+04  0.00000000000E+00 0. -1.
         -1   -1    0    0    0  501 -0.00000000000E+00 -0.00000000000E+00 -0.72486955908E+03  0.72486955908E+03  0.00000000000E+00 0.  1.
         23    2    1    2    0    0 -0.76540617993E+03 -0.12858306817E+03  0.56998390725E+03  0.96640982742E+03  0.81768418726E+02 0.  0.
         13    1    3    3    0    0 -0.32306290200E+03 -0.76183967254E+02  0.28604371147E+03  0.43817193017E+03  0.00000000000E+00 0.  1.
        -13    1    3    3    0    0 -0.44234327793E+03 -0.52399100911E+02  0.28394019578E+03  0.52823789725E+03  0.00000000000E+00 0. -1.
         22    1    1    2    0    0  0.76540617993E+03  0.12858306817E+03 -0.24071115237E+03  0.81260204564E+03  0.00000000000E+00 0.  1.
<mgrwt>
<rscale>  0 0.17482742E+04</rscale>
<asrwt>0</asrwt>
<pdfrwt beam="1">  1        1 0.16217574E+00 0.17482742E+04</pdfrwt>
<pdfrwt beam="2">  1       -1 0.11151839E+00 0.17482742E+04</pdfrwt>
<totfact> 0.96206724E+00</totfact>
</mgrwt>
</event>
<event>
 6    1  0.9906445E-006  0.2746629E+04  0.7818608E-02  0.8320032E-01
          2   -1    0    0  501    0  0.00000000000E+00  0.00000000000E+00  0.15854776053E+04  0.15854776053E+04  0.00000000000E+00 0. -1.
         -2   -1    0    0    0  501 -0.00000000000E+00 -0.00000000000E+00 -0.11895423557E+04  0.11895423557E+04  0.00000000000E+00 0.  1.
         23    2    1    2    0    0  0.51090442618E+03  0.10157366493E+03 -0.10839940179E+04  0.12060932008E+04  0.90979316357E+02 0.  0.
         13    1    3    3    0    0  0.31307707299E+03  0.52657337671E+02 -0.75589715671E+03  0.81986008585E+03  0.00000000000E+00 0. -1.
        -13    1    3    3    0    0  0.19782735319E+03  0.48916327263E+02 -0.32809686123E+03  0.38623311496E+03  0.00000000000E+00 0.  1.
         22    1    1    2    0    0 -0.51090442618E+03 -0.10157366493E+03  0.14799292676E+04  0.15689267603E+04  0.00000000000E+00 0. -1.
<mgrwt>
<rscale>  0 0.27466290E+04</rscale>
<asrwt>0</asrwt>
<pdfrwt beam="1">  1        2 0.24391963E+00 0.27466290E+04</pdfrwt>
<pdfrwt beam="2">  1       -2 0.18300652E+00 0.27466290E+04</pdfrwt>
<totfact> 0.17171581E+00</totfact>
</mgrwt>
</event>
<event>
 6    1  0.9906445E-006  0.5535954E+04  0.7818608E-02  0.7750761E-01
          2   -1    0    0  501    0  0.00000000000E+00  0.00000000000E+00  0.28637457808E+04  0.28637457808E+04  0.00000000000E+00 0.  1.
         -2   -1    0    0    0  501 -0.00000000000E+00 -0.00000000000E+00 -0.26754112261E+04  0.26754112261E+04  0.00000000000E+00 0. -1.
         23    2    1    2    0    0 -0.50295888609E+03 -0.12362869777E+03  0.28142395156E+04  0.28626614326E+04  0.81453856192E+02 0.  0.
         11    1    3    3    0    0 -0.28055495338E+03 -0.49158395885E+02  0.13459680979E+04  0.13757753269E+04  0.00000000000E+00 0.  1.
        -11    1    3    3    0    0 -0.22240393271E+03 -0.74470301887E+02  0.14682714177E+04  0.14868861057E+04  0.00000000000E+00 0. -1.
         22    1    1    2    0    0  0.50295888609E+03  0.12362869777E+03 -0.26259049609E+04  0.26764955744E+04  0.00000000000E+00 0. -1.
<mgrwt>
<rscale>  0 0.55359543E+04</rscale>
<asrwt>0</asrwt>
<pdfrwt beam="1">  1        2 0.44057627E+00 0.55359543E+04</pdfrwt>
<pdfrwt beam="2">  1       -2 0.41160173E+00 0.55359543E+04</pdfrwt>
<totfact> 0.92038010E-03</totfact>
</mgrwt>
</event>
<event>
 6    1  0.9906445E-006  0.2627056E+04  0.7818608E-02  0.8359069E-01
         -1   -1    0    0    0  501 -0.00000000000E+00  0.00000000000E+00  0.98490800309E+03  0.98490800309E+03  0.00000000000E+00 0.  1.
          1   -1    0    0  501    0  0.00000000000E+00 -0.00000000000E+00 -0.17517940707E+04  0.17517940707E+04  0.00000000000E+00 0. -1.
         23    2    1    2    0    0  0.46906404025E+03  0.10185995951E+04  0.32540202535E+03  0.11712438383E+04  0.91429983067E+02 0.  0.
         11    1    3    3    0    0  0.14496975367E+03  0.24697673668E+03  0.11234331553E+03  0.30762762959E+03  0.00000000000E+00 0. -1.
        -11    1    3    3    0    0  0.32409428657E+03  0.77162285840E+03  0.21305870982E+03  0.86361620875E+03  0.00000000000E+00 0.  1.
         22    1    1    2    0    0 -0.46906404025E+03 -0.10185995951E+04 -0.10922880930E+04  0.15654582355E+04  0.00000000000E+00 0. -1.
<mgrwt>
<rscale>  0 0.26270561E+04</rscale>
<asrwt>0</asrwt>
<pdfrwt beam="1">  1        1 0.26950678E+00 0.26270561E+04</pdfrwt>
<pdfrwt beam="2">  1       -1 0.15152431E+00 0.26270561E+04</pdfrwt>
<totfact> 0.13106092E+00</totfact>
</mgrwt>
</event>
<event>
 6    1  0.9906445E-006  0.2990698E+04  0.7818608E-02  0.8246392E-01
         -1   -1    0    0    0  501 -0.00000000000E+00  0.00000000000E+00  0.22915961726E+04  0.22915961726E+04  0.00000000000E+00 0.  1.
          1   -1    0    0  501    0  0.00000000000E+00 -0.00000000000E+00 -0.97576889452E+03  0.97576889452E+03  0.00000000000E+00 0. -1.
         23    2    1    2    0    0 -0.14906246150E+04 -0.84342427648E+02  0.59742933892E+03  0.16105093139E+04  0.87994586723E+02 0.  0.
         11    1    3    3    0    0 -0.40883361824E+03 -0.61026500697E+02  0.17678531935E+03  0.44958003773E+03  0.00000000000E+00 0.  1.
        -11    1    3    3    0    0 -0.10817909968E+04 -0.23315926951E+02  0.42064401958E+03  0.11609292762E+04  0.00000000000E+00 0. -1.
         22    1    1    2    0    0  0.14906246150E+04  0.84342427648E+02  0.71839793919E+03  0.16568557532E+04  0.00000000000E+00 0.  1.
<mgrwt>
<rscale>  0 0.29906978E+04</rscale>
<asrwt>0</asrwt>
<pdfrwt beam="1">  1        1 0.15011829E+00 0.29906978E+04</pdfrwt>
<pdfrwt beam="2">  1       -1 0.35255326E+00 0.29906978E+04</pdfrwt>
<totfact> 0.20116599E-01</totfact>
</mgrwt>
</event>
<event>
 6    1  0.9906445E-006  0.1306696E+04  0.7818608E-02  0.9024272E-01
         -2   -1    0    0    0  501 -0.00000000000E+00  0.00000000000E+00  0.17860142175E+03  0.17860142175E+03  0.00000000000E+00 0.  1.
          2   -1    0    0  501    0  0.00000000000E+00 -0.00000000000E+00 -0.23900334335E+04  0.23900334335E+04  0.00000000000E+00 0. -1.
         23    2    1    2    0    0 -0.29086353448E+03 -0.13268587642E+03 -0.22238818159E+04  0.22486940246E+04  0.93634114942E+02 0.  0.
         13    1    3    3    0    0 -0.23850082728E+03 -0.12594140267E+03 -0.15991222725E+04  0.16217077184E+04  0.00000000000E+00 0.  1.
        -13    1    3    3    0    0 -0.52362707193E+02 -0.67444737476E+01 -0.62475954339E+03  0.62698630614E+03  0.00000000000E+00 0. -1.
         22    1    1    2    0    0  0.29086353448E+03  0.13268587642E+03  0.12449804211E+02  0.31994083065E+03  0.00000000000E+00 0.  1.
<mgrwt>
<rscale>  0 0.13066956E+04</rscale>
<asrwt>0</asrwt>
<pdfrwt beam="1">  1        2 0.36769744E+00 0.13066956E+04</pdfrwt>
<pdfrwt beam="2">  1       -2 0.27477143E-01 0.13066956E+04</pdfrwt>
<totfact> 0.47805310E+01</totfact>
</mgrwt>
</event>
<event>
 6    1  0.9906445E-006  0.1912648E+04  0.7818608E-02  0.8648586E-01
         -2   -1    0    0    0  501 -0.00000000000E+00  0.00000000000E+00  0.12444544829E+04  0.12444544829E+04  0.00000000000E+00 0.  1.
          2   -1    0    0  501    0  0.00000000000E+00 -0.00000000000E+00 -0.73490486021E+03  0.73490486021E+03  0.00000000000E+00 0. -1.
         23    2    1    2    0    0  0.52466205253E+03  0.67483199135E+02  0.10770151172E+04  0.12035750051E+04  0.93845504886E+02 0.  0.
         11    1    3    3    0    0  0.33768143196E+03  0.25507060418E+02  0.77686112029E+03  0.84746242385E+03  0.00000000000E+00 0.  1.
        -11    1    3    3    0    0  0.18698062057E+03  0.41976138717E+02  0.30015399692E+03  0.35611258129E+03  0.00000000000E+00 0. -1.
         22    1    1    2    0    0 -0.52466205253E+03 -0.67483199135E+02 -0.56746549453E+03  0.77578433795E+03  0.00000000000E+00 0. -1.
<mgrwt>
<rscale>  0 0.19126481E+04</rscale>
<asrwt>0</asrwt>
<pdfrwt beam="1">  1        2 0.11306229E+00 0.19126481E+04</pdfrwt>
<pdfrwt beam="2">  1       -2 0.19145454E+00 0.19126481E+04</pdfrwt>
<totfact> 0.54558940E+00</totfact>
</mgrwt>
</event>
<event>
 6    1  0.9906445E-006  0.1796010E+04  0.7818608E-02  0.8708424E-01
         -1   -1    0    0    0  501 -0.00000000000E+00  0.00000000000E+00  0.28567543386E+03  0.28567543386E+03  0.00000000000E+00 0.  1.
          1   -1    0    0  501    0  0.00000000000E+00 -0.00000000000E+00 -0.28228293924E+04  0.28228293924E+04  0.00000000000E+00 0. -1.
         23    2    1    2    0    0 -0.68458409181E+03 -0.48499155473E+03 -0.72770222033E+03  0.11140154731E+04  0.87222508131E+02 0.  0.
         11    1    3    3    0    0 -0.39165490949E+03 -0.26061328979E+03 -0.35318355725E+03  0.58826140453E+03  0.00000000000E+00 0.  1.
        -11    1    3    3    0    0 -0.29292918232E+03 -0.22437826494E+03 -0.37451866308E+03  0.52575406857E+03  0.00000000000E+00 0. -1.
         22    1    1    2    0    0  0.68458409181E+03  0.48499155473E+03 -0.18094517382E+04  0.19944893532E+04  0.00000000000E+00 0. -1.
<mgrwt>
<rscale>  0 0.17960100E+04</rscale>
<asrwt>0</asrwt>
<pdfrwt beam="1">  1        1 0.43428146E+00 0.17960100E+04</pdfrwt>
<pdfrwt beam="2">  1       -1 0.43950066E-01 0.17960100E+04</pdfrwt>
<totfact> 0.38867638E+00</totfact>
</mgrwt>
</event>
<event>
 6    1  0.9906445E-006  0.1059673E+04  0.7818608E-02  0.9245414E-01
          1   -1    0    0  501    0  0.00000000000E+00  0.00000000000E+00  0.91130268050E+03  0.91130268050E+03  0.00000000000E+00 0. -1.
         -1   -1    0    0    0  501 -0.00000000000E+00 -0.00000000000E+00 -0.30804996195E+03  0.30804996195E+03  0.00000000000E+00 0.  1.
         23    2    1    2    0    0  0.21492948911E+03  0.47947895456E+03  0.27075394361E+03  0.59754062224E+03  0.87477677647E+02 0.  0.
         13    1    3    3    0    0  0.12513613976E+03  0.37236078712E+03  0.20419639426E+03  0.44272765521E+03  0.00000000000E+00 0.  1.
        -13    1    3    3    0    0  0.89793349358E+02  0.10711816744E+03  0.66557549352E+02  0.15481296703E+03  0.00000000000E+00 0. -1.
         22    1    1    2    0    0 -0.21492948911E+03 -0.47947895456E+03  0.33249877493E+03  0.62181202022E+03  0.00000000000E+00 0. -1.
<mgrwt>
<rscale>  0 0.10596731E+04</rscale>
<asrwt>0</asrwt>
<pdfrwt beam="1">  1        1 0.14020041E+00 0.10596731E+04</pdfrwt>
<pdfrwt beam="2">  1       -1 0.47392302E-01 0.10596731E+04</pdfrwt>
<totfact> 0.79032007E+01</totfact>
</mgrwt>
</event>
<event>
 6    1  0.9906445E-006  0.2167607E+04  0.7818608E-02  0.8532033E-01
         -1   -1    0    0    0  501 -0.00000000000E+00  0.00000000000E+00  0.51457418393E+03  0.51457418393E+03  0.00000000000E+00 0.  1.
          1   -1    0    0  501    0  0.00000000000E+00 -0.00000000000E+00 -0.22827218446E+04  0.22827218446E+04  0.00000000000E+00 0. -1.
         23    2    1    2    0    0  0.85460505246E+03  0.55048060808E+03 -0.13624613047E+04  0.17027823854E+04  0.98936089533E+02 0.  0.
         13    1    3    3    0    0  0.70990440917E+03  0.47982693897E+03 -0.10924038611E+04  0.13883603125E+04  0.00000000000E+00 0.  1.
        -13    1    3    3    0    0  0.14470064329E+03  0.70653669117E+02 -0.27005744354E+03  0.31442207292E+03  0.00000000000E+00 0. -1.
         22    1    1    2    0    0 -0.85460505246E+03 -0.55048060808E+03 -0.40568635603E+03  0.10945136431E+04  0.00000000000E+00 0.  1.
<mgrwt>
<rscale>  0 0.21676067E+04</rscale>
<asrwt>0</asrwt>
<pdfrwt beam="1">  1        1 0.35118798E+00 0.21676067E+04</pdfrwt>
<pdfrwt beam="2">  1       -1 0.79165258E-01 0.21676067E+04</pdfrwt>
<totfact> 0.27891393E+00</totfact>
</mgrwt>
</event>
<event>
 6    1  0.9906445E-006  0.3050967E+04  0.7818608E-02  0.8229325E-01
         -1   -1    0    0    0  501 -0.00000000000E+00  0.00000000000E+00  0.14067269317E+04  0.14067269317E+04  0.00000000000E+00 0.  1.
          1   -1    0    0  501    0  0.00000000000E+00 -0.00000000000E+00 -0.16542659013E+04  0.16542659013E+04  0.00000000000E+00 0. -1.
         23    2    1    2    0    0  0.11292757152E+04 -0.56533056282E+03 -0.97995407129E+03  0.16010975739E+04  0.91330022814E+02 0.  0.
         11    1    3    3    0    0  0.52335118687E+03 -0.29321442195E+03 -0.41951960569E+03  0.73202995949E+03  0.00000000000E+00 0. -1.
        -11    1    3    3    0    0  0.60592452836E+03 -0.27211614087E+03 -0.56043446560E+03  0.86906761441E+03  0.00000000000E+00 0.  1.
         22    1    1    2    0    0 -0.11292757152E+04  0.56533056282E+03  0.73241510173E+03  0.14598952591E+04  0.00000000000E+00 0.  1.
<mgrwt>
<rscale>  0 0.30509673E+04</rscale>
<asrwt>0</asrwt>
<pdfrwt beam="1">  1        1 0.25450245E+00 0.30509673E+04</pdfrwt>
<pdfrwt beam="2">  1       -1 0.21641953E+00 0.30509673E+04</pdfrwt>
<totfact> 0.50486077E-01</totfact>
</mgrwt>
</event>
<event>
 6    1  0.9906445E-006  0.3129367E+04  0.7818608E-02  0.8207724E-01
         -1   -1    0    0    0  501 -0.00000000000E+00  0.00000000000E+00  0.59006678408E+03  0.59006678408E+03  0.00000000000E+00 0.  1.
          1   -1    0    0  501    0  0.00000000000E+00 -0.00000000000E+00 -0.41490811977E+04  0.41490811977E+04  0.00000000000E+00 0. -1.
         23    2    1    2    0    0 -0.14107514918E+04 -0.22350501726E+03 -0.81815373118E+03  0.16484374575E+04  0.88296426333E+02 0.  0.
         13    1    3    3    0    0 -0.80584543385E+03 -0.13174735211E+03 -0.41736913605E+03  0.91702847490E+03  0.00000000000E+00 0. -1.
        -13    1    3    3    0    0 -0.60490605799E+03 -0.91757665152E+02 -0.40078459513E+03  0.73140898258E+03  0.00000000000E+00 0.  1.
         22    1    1    2    0    0  0.14107514918E+04  0.22350501726E+03 -0.27408606824E+04  0.30907105243E+04  0.00000000000E+00 0. -1.
<mgrwt>
<rscale>  0 0.31293673E+04</rscale>
<asrwt>0</asrwt>
<pdfrwt beam="1">  1        1 0.63832016E+00 0.31293673E+04</pdfrwt>
<pdfrwt beam="2">  1       -1 0.90779508E-01 0.31293673E+04</pdfrwt>
<totfact> 0.70211619E-02</totfact>
</mgrwt>
</event>
<event>
 6    1  0.9906445E-006  0.6557340E+04  0.7818608E-02  0.7624894E-01
         -1   -1    0    0    0  501 -0.00000000000E+00  0.00000000000E+00  0.27579382594E+04  0.27579382594E+04  0.00000000000E+00 0.  1.
          1   -1    0    0  501    0  0.00000000000E+00 -0.00000000000E+00 -0.38977223623E+04  0.38977223623E+04  0.00000000000E+00 0. -1.
         23    2    1    2    0    0  0.32347164264E+03  0.17248181498E+04  0.22403013621E+04  0.28471688855E+04  0.88254836520E+02 0.  0.
         13    1    3    3    0    0  0.10224875771E+03  0.66927694543E+03  0.92339829647E+03  0.11450112891E+04  0.00000000000E+00 0. -1.
        -13    1    3    3    0    0  0.22122288493E+03  0.10555412044E+04  0.13169030657E+04  0.17021575965E+04  0.00000000000E+00 0.  1.
         22    1    1    2    0    0 -0.32347164264E+03 -0.17248181498E+04 -0.33800854650E+04  0.38084917361E+04  0.00000000000E+00 0. -1.
<mgrwt>
<rscale>  0 0.65573402E+04</rscale>
<asrwt>0</asrwt>
<pdfrwt beam="1">  1        1 0.59964959E+00 0.65573402E+04</pdfrwt>
<pdfrwt beam="2">  1       -1 0.42429820E+00 0.65573402E+04</pdfrwt>
<totfact> 0.36702909E-04</totfact>
</mgrwt>
</event>
<event>
 6    1  0.9906445E-006  0.1534375E+04  0.7818608E-02  0.8861910E-01
         -2   -1    0    0    0  501 -0.00000000000E+00  0.00000000000E+00  0.94052342458E+03  0.94052342458E+03  0.00000000000E+00 0.  1.
          2   -1    0    0  501    0  0.00000000000E+00 -0.00000000000E+00 -0.62579679202E+03  0.62579679202E+03  0.00000000000E+00 0. -1.
         23    2    1    2    0    0  0.10364865397E+03  0.39665416760E+03  0.81671711106E+03  0.91819059017E+03  0.89272326290E+02 0.  0.
         13    1    3    3    0    0  0.50661139815E+02  0.12863891061E+03  0.36467687384E+03  0.39000479834E+03  0.00000000000E+00 0. -1.
        -13    1    3    3    0    0  0.52987514158E+02  0.26801525698E+03  0.45204023722E+03  0.52818579183E+03  0.00000000000E+00 0.  1.
         22    1    1    2    0    0 -0.10364865397E+03 -0.39665416760E+03 -0.50199047850E+03  0.64812962642E+03  0.00000000000E+00 0. -1.
<mgrwt>
<rscale>  0 0.15343748E+04</rscale>
<asrwt>0</asrwt>
<pdfrwt beam="1">  1        2 0.96276429E-01 0.15343748E+04</pdfrwt>
<pdfrwt beam="2">  1       -2 0.14469591E+00 0.15343748E+04</pdfrwt>
<totfact> 0.14951418E+01</totfact>
</mgrwt>
</event>
<event>
 6    1  0.9906445E-006  0.1805414E+04  0.7818608E-02  0.8703426E-01
          2   -1    0    0  501    0  0.00000000000E+00  0.00000000000E+00  0.11282689868E+04  0.11282689868E+04  0.00000000000E+00 0. -1.
         -2   -1    0    0    0  501 -0.00000000000E+00 -0.00000000000E+00 -0.72223867372E+03  0.72223867372E+03  0.00000000000E+00 0.  1.
         23    2    1    2    0    0 -0.72254362800E+03 -0.51394002823E+03  0.36397678508E+03  0.96282970863E+03  0.91423742813E+02 0.  0.
         11    1    3    3    0    0 -0.24070042169E+02 -0.41022578748E+02  0.13870083376E+02  0.49543900836E+02  0.00000000000E+00 0. -1.
        -11    1    3    3    0    0 -0.69847358583E+03 -0.47291744948E+03  0.35010670170E+03  0.91328580779E+03  0.00000000000E+00 0.  1.
         22    1    1    2    0    0  0.72254362800E+03  0.51394002823E+03  0.42053527965E+02  0.88767795185E+03  0.00000000000E+00 0. -1.
<mgrwt>
<rscale>  0 0.18054135E+04</rscale>
<asrwt>0</asrwt>
<pdfrwt beam="1">  1        2 0.17357985E+00 0.18054135E+04</pdfrwt>
<pdfrwt beam="2">  1       -2 0.11111364E+00 0.18054135E+04</pdfrwt>
<totfact> 0.12666259E+01</totfact>
</mgrwt>
</event>
<event>
 6    1  0.9906445E-006  0.2295928E+04  0.7818608E-02  0.8479529E-01
         -1   -1    0    0    0  501 -0.00000000000E+00  0.00000000000E+00  0.14340574686E+04  0.14340574686E+04  0.00000000000E+00 0.  1.
          1   -1    0    0  501    0  0.00000000000E+00 -0.00000000000E+00 -0.91894560046E+03  0.91894560046E+03  0.00000000000E+00 0. -1.
         23    2    1    2    0    0  0.44584338711E+03 -0.13730312102E+03  0.13308894575E+04  0.14132575992E+04  0.91661446554E+02 0.  0.
         13    1    3    3    0    0  0.12922874322E+03  0.22355762485E+01  0.34494193260E+03  0.36836123947E+03  0.00000000000E+00 0. -1.
        -13    1    3    3    0    0  0.31661464390E+03 -0.13953869727E+03  0.98594752488E+03  0.10448963597E+04  0.00000000000E+00 0.  1.
         22    1    1    2    0    0 -0.44584338711E+03  0.13730312102E+03 -0.81577758933E+03  0.93974546987E+03  0.00000000000E+00 0. -1.
<mgrwt>
<rscale>  0 0.22959275E+04</rscale>
<asrwt>0</asrwt>
<pdfrwt beam="1">  1        1 0.14137625E+00 0.22959275E+04</pdfrwt>
<pdfrwt beam="2">  1       -1 0.22062423E+00 0.22959275E+04</pdfrwt>
<totfact> 0.17304187E+00</totfact>
</mgrwt>
</event>
<event>
 6    1  0.9906445E-006  0.1691849E+04  0.7818608E-02  0.8766027E-01
          1   -1    0    0  501    0  0.00000000000E+00  0.00000000000E+00  0.75825440374E+03  0.75825440374E+03  0.00000000000E+00 0. -1.
         -1   -1    0    0    0  501 -0.00000000000E+00 -0.00000000000E+00 -0.94373113553E+03  0.94373113553E+03  0.00000000000E+00 0.  1.
         23    2    1    2    0    0  0.62034473862E+02 -0.65013570485E+03  0.44299084825E+03  0.79562125830E+03  0.10123035299E+03 0.  0.
         11    1    3    3    0    0  0.25182386648E+02 -0.49249873592E+03  0.37726246747E+03  0.62089944986E+03  0.00000000000E+00 0.  1.
        -11    1    3    3    0    0  0.36852087214E+02 -0.15763696893E+03  0.65728380784E+02  0.17472180844E+03  0.00000000000E+00 0. -1.
         22    1    1    2    0    0 -0.62034473862E+02  0.65013570485E+03 -0.62846758003E+03  0.90636428097E+03  0.00000000000E+00 0.  1.
<mgrwt>
<rscale>  0 0.16918490E+04</rscale>
<asrwt>0</asrwt>
<pdfrwt beam="1">  1        1 0.11665452E+00 0.16918490E+04</pdfrwt>
<pdfrwt beam="2">  1       -1 0.14518940E+00 0.16918490E+04</pdfrwt>
<totfact> 0.87304140E+00</totfact>
</mgrwt>
</event>
<event>
 6    1  0.9906445E-006  0.2338421E+04  0.7818608E-02  0.8462925E-01
         -2   -1    0    0    0  501 -0.00000000000E+00  0.00000000000E+00  0.11419486105E+04  0.11419486105E+04  0.00000000000E+00 0. -1.
          2   -1    0    0  501    0  0.00000000000E+00 -0.00000000000E+00 -0.11971228088E+04  0.11971228088E+04  0.00000000000E+00 0.  1.
         23    2    1    2    0    0  0.53342236737E+03  0.96627095126E+03 -0.40565635428E+03  0.11810313876E+04  0.10981387662E+03 0.  0.
         11    1    3    3    0    0  0.29654900110E+03  0.56491160246E+03 -0.17816421655E+03  0.66242653684E+03  0.00000000000E+00 0.  1.
        -11    1    3    3    0    0  0.23687336627E+03  0.40135934879E+03 -0.22749213774E+03  0.51860485077E+03  0.00000000000E+00 0. -1.
         22    1    1    2    0    0 -0.53342236737E+03 -0.96627095126E+03  0.35048215597E+03  0.11580400317E+04  0.00000000000E+00 0. -1.
<mgrwt>
<rscale>  0 0.23384206E+04</rscale>
<asrwt>0</asrwt>
<pdfrwt beam="1">  1        2 0.18417274E+00 0.23384206E+04</pdfrwt>
<pdfrwt beam="2">  1       -2 0.17568440E+00 0.23384206E+04</pdfrwt>
<totfact> 0.33396247E+00</totfact>
</mgrwt>
</event>
<event>
 6    1  0.9906445E-006  0.4614237E+04  0.7818608E-02  0.7890937E-01
          1   -1    0    0  501    0  0.00000000000E+00  0.00000000000E+00  0.32219700989E+04  0.32219700989E+04  0.00000000000E+00 0. -1.
         -1   -1    0    0    0  501 -0.00000000000E+00 -0.00000000000E+00 -0.16520315784E+04  0.16520315784E+04  0.00000000000E+00 0.  1.
         23    2    1    2    0    0 -0.12305637242E+04  0.14270853781E+04 -0.61925641732E+03  0.19855013343E+04  0.88754055398E+02 0.  0.
         13    1    3    3    0    0 -0.82767394160E+03  0.99275763015E+03 -0.38743876625E+03  0.13493408255E+04  0.00000000000E+00 0.  1.
        -13    1    3    3    0    0 -0.40288978257E+03  0.43432774794E+03 -0.23181765107E+03  0.63616050874E+03  0.00000000000E+00 0. -1.
         22    1    1    2    0    0  0.12305637242E+04 -0.14270853781E+04  0.21891949378E+04  0.28885003430E+04  0.00000000000E+00 0. -1.
<mgrwt>
<rscale>  0 0.46142372E+04</rscale>
<asrwt>0</asrwt>
<pdfrwt beam="1">  1        1 0.49568771E+00 0.46142372E+04</pdfrwt>
<pdfrwt beam="2">  1       -1 0.25415871E+00 0.46142372E+04</pdfrwt>
<totfact> 0.19941308E-02</totfact>
</mgrwt>
</event>
<event>
 6    1  0.9906445E-006  0.4320838E+04  0.7818608E-02  0.7942776E-01
          2   -1    0    0  501    0  0.00000000000E+00  0.00000000000E+00  0.25868181149E+04  0.25868181149E+04  0.00000000000E+00 0. -1.
         -2   -1    0    0    0  501 -0.00000000000E+00 -0.00000000000E+00 -0.18043057493E+04  0.18043057493E+04  0.00000000000E+00 0.  1.
         23    2    1    2    0    0 -0.48974418915E+03 -0.13359131242E+04  0.20421481368E+04  0.24908092791E+04  0.96169671821E+02 0.  0.
         13    1    3    3    0    0 -0.13613621252E+03 -0.50485117499E+03  0.73840242987E+03  0.90479054244E+03  0.00000000000E+00 0. -1.
        -13    1    3    3    0    0 -0.35360797664E+03 -0.83106194920E+03  0.13037457070E+04  0.15860187366E+04  0.00000000000E+00 0.  1.
         22    1    1    2    0    0  0.48974418915E+03  0.13359131242E+04 -0.12596357713E+04  0.19003145851E+04  0.00000000000E+00 0.  1.
<mgrwt>
<rscale>  0 0.43208383E+04</rscale>
<asrwt>0</asrwt>
<pdfrwt beam="1">  1        2 0.39797202E+00 0.43208383E+04</pdfrwt>
<pdfrwt beam="2">  1       -2 0.27758550E+00 0.43208383E+04</pdfrwt>
<totfact> 0.10374810E-01</totfact>
</mgrwt>
</event>
<event>
 6    1  0.9906445E-006  0.2799347E+04  0.7818608E-02  0.8303471E-01
          2   -1    0    0  501    0  0.00000000000E+00  0.00000000000E+00  0.14417517249E+04  0.14417517249E+04  0.00000000000E+00 0.  1.
         -2   -1    0    0    0  501 -0.00000000000E+00 -0.00000000000E+00 -0.13588230214E+04  0.13588230214E+04  0.00000000000E+00 0. -1.
         23    2    1    2    0    0  0.53668639365E+03 -0.25981702785E+03  0.13067670896E+04  0.14392086793E+04  0.90245349289E+02 0.  0.
         11    1    3    3    0    0  0.34811655447E+03 -0.11966430519E+03  0.79658267374E+03  0.87752415211E+03  0.00000000000E+00 0.  1.
        -11    1    3    3    0    0  0.18856983918E+03 -0.14015272266E+03  0.51018441588E+03  0.56168452723E+03  0.00000000000E+00 0. -1.
         22    1    1    2    0    0 -0.53668639365E+03  0.25981702785E+03 -0.12238383861E+04  0.13613660670E+04  0.00000000000E+00 0. -1.
<mgrwt>
<rscale>  0 0.27993467E+04</rscale>
<asrwt>0</asrwt>
<pdfrwt beam="1">  1        2 0.22180796E+00 0.27993467E+04</pdfrwt>
<pdfrwt beam="2">  1       -2 0.20904970E+00 0.27993467E+04</pdfrwt>
<totfact> 0.13843773E+00</totfact>
</mgrwt>
</event>
<event>
 6    1  0.9906445E-006  0.1462791E+04  0.7818608E-02  0.8909580E-01
         -2   -1    0    0    0  501 -0.00000000000E+00  0.00000000000E+00  0.77692981975E+03  0.77692981975E+03  0.00000000000E+00 0.  1.
          2   -1    0    0  501    0  0.00000000000E+00 -0.00000000000E+00 -0.68853016522E+03  0.68853016522E+03  0.00000000000E+00 0. -1.
         23    2    1    2    0    0  0.10930247295E+03  0.40917562167E+03 -0.54947604169E+03  0.69978569143E+03  0.91675370586E+02 0.  0.
         13    1    3    3    0    0  0.12310950833E+03  0.36960920744E+03 -0.47493038217E+03  0.61426849600E+03  0.00000000000E+00 0. -1.
        -13    1    3    3    0    0 -0.13807035379E+02  0.39566414230E+02 -0.74545659518E+02  0.85517195428E+02  0.00000000000E+00 0.  1.
         22    1    1    2    0    0 -0.10930247295E+03 -0.40917562167E+03  0.63787569622E+03  0.76567429355E+03  0.00000000000E+00 0.  1.
<mgrwt>
<rscale>  0 0.14627913E+04</rscale>
<asrwt>0</asrwt>
<pdfrwt beam="1">  1        2 0.10592772E+00 0.14627913E+04</pdfrwt>
<pdfrwt beam="2">  1       -2 0.11952767E+00 0.14627913E+04</pdfrwt>
<totfact> 0.21733898E+01</totfact>
</mgrwt>
</event>
<event>
 6    1  0.9906445E-006  0.1649635E+04  0.7818608E-02  0.8790622E-01
         -2   -1    0    0    0  501 -0.00000000000E+00  0.00000000000E+00  0.29421868225E+03  0.29421868225E+03  0.00000000000E+00 0.  1.
          2   -1    0    0  501    0  0.00000000000E+00 -0.00000000000E+00 -0.23123076113E+04  0.23123076113E+04  0.00000000000E+00 0. -1.
         23    2    1    2    0    0  0.59043802254E+03 -0.51753518310E+03 -0.13979502734E+04  0.16060105883E+04  0.92440892973E+02 0.  0.
         11    1    3    3    0    0  0.25756381194E+03 -0.18640353235E+03 -0.49565860774E+03  0.58886573131E+03  0.00000000000E+00 0. -1.
        -11    1    3    3    0    0  0.33287421060E+03 -0.33113165075E+03 -0.90229166562E+03  0.10171448570E+04  0.00000000000E+00 0.  1.
         22    1    1    2    0    0 -0.59043802254E+03  0.51753518310E+03 -0.62013865568E+03  0.10005157053E+04  0.00000000000E+00 0. -1.
<mgrwt>
<rscale>  0 0.16496352E+04</rscale>
<asrwt>0</asrwt>
<pdfrwt beam="1">  1        2 0.35573964E+00 0.16496352E+04</pdfrwt>
<pdfrwt beam="2">  1       -2 0.45264412E-01 0.16496352E+04</pdfrwt>
<totfact> 0.19745745E+01</totfact>
</mgrwt>
</event>
<event>
 6    1  0.9906445E-006  0.6206278E+03  0.7818608E-02  0.9863511E-01
          2   -1    0    0  501    0  0.00000000000E+00  0.00000000000E+00  0.17363352947E+03  0.17363352947E+03  0.00000000000E+00 0.  1.
         -2   -1    0    0    0  501 -0.00000000000E+00 -0.00000000000E+00 -0.55458596775E+03  0.55458596775E+03  0.00000000000E+00 0. -1.
         23    2    1    2    0    0 -0.28425798050E+03 -0.59571618758E+02 -0.89412080931E+02  0.31670138438E+03  0.89184468432E+02 0.  0.
         13    1    3    3    0    0 -0.22370615473E+03 -0.43270389407E+02 -0.10678118975E+03  0.25163265438E+03  0.00000000000E+00 0.  1.
        -13    1    3    3    0    0 -0.60551825771E+02 -0.16301229351E+02  0.17369108821E+02  0.65068730000E+02  0.00000000000E+00 0. -1.
         22    1    1    2    0    0  0.28425798050E+03  0.59571618758E+02 -0.29154035735E+03  0.41151811285E+03  0.00000000000E+00 0. -1.
<mgrwt>
<rscale>  0 0.62062781E+03</rscale>
<asrwt>0</asrwt>
<pdfrwt beam="1">  1        2 0.26712851E-01 0.62062781E+03</pdfrwt>
<pdfrwt beam="2">  1       -2 0.85320918E-01 0.62062781E+03</pdfrwt>
<totfact> 0.24533120E+02</totfact>
</mgrwt>
</event>
<event>
 6    1  0.9906445E-006  0.3210081E+04  0.7818608E-02  0.8186160E-01
         -1   -1    0    0    0  501 -0.00000000000E+00  0.00000000000E+00  0.72063978066E+03  0.72063978066E+03  0.00000000000E+00 0. -1.
          1   -1    0    0  501    0  0.00000000000E+00 -0.00000000000E+00 -0.35748166623E+04  0.35748166623E+04  0.00000000000E+00 0.  1.
         23    2    1    2    0    0 -0.83092878072E+03 -0.13688550116E+04 -0.15457219213E+04  0.22275441951E+04  0.92142290418E+02 0.  0.
         13    1    3    3    0    0 -0.60655720783E+03 -0.10411520570E+04 -0.12079218002E+04  0.17061606980E+04  0.00000000000E+00 0.  1.
        -13    1    3    3    0    0 -0.22437157289E+03 -0.32770295464E+03 -0.33780012114E+03  0.52138349710E+03  0.00000000000E+00 0. -1.
         22    1    1    2    0    0  0.83092878072E+03  0.13688550116E+04 -0.13084549603E+04  0.20679122478E+04  0.00000000000E+00 0. -1.
<mgrwt>
<rscale>  0 0.32100811E+04</rscale>
<asrwt>0</asrwt>
<pdfrwt beam="1">  1        1 0.54997180E+00 0.32100811E+04</pdfrwt>
<pdfrwt beam="2">  1       -1 0.11086766E+00 0.32100811E+04</pdfrwt>
<totfact> 0.13627766E-01</totfact>
</mgrwt>
</event>
<event>
 6    1  0.9906445E-006  0.3754547E+04  0.7818608E-02  0.8055980E-01
         -2   -1    0    0    0  501 -0.00000000000E+00  0.00000000000E+00  0.17216171493E+04  0.17216171493E+04  0.00000000000E+00 0.  1.
          2   -1    0    0  501    0  0.00000000000E+00 -0.00000000000E+00 -0.20470032070E+04  0.20470032070E+04  0.00000000000E+00 0. -1.
         23    2    1    2    0    0  0.34306548982E+03 -0.14063561117E+04  0.10351946075E+04  0.17819872272E+04  0.91209425738E+02 0.  0.
         11    1    3    3    0    0  0.15545463030E+03 -0.45610665791E+03  0.34245831120E+03  0.59116589921E+03  0.00000000000E+00 0. -1.
        -11    1    3    3    0    0  0.18761085952E+03 -0.95024945381E+03  0.69273629629E+03  0.11908213280E+04  0.00000000000E+00 0.  1.
         22    1    1    2    0    0 -0.34306548982E+03  0.14063561117E+04 -0.13605806652E+04  0.19866331291E+04  0.00000000000E+00 0. -1.
<mgrwt>
<rscale>  0 0.37545470E+04</rscale>
<asrwt>0</asrwt>
<pdfrwt beam="1">  1        2 0.31492357E+00 0.37545470E+04</pdfrwt>
<pdfrwt beam="2">  1       -2 0.26486418E+00 0.37545470E+04</pdfrwt>
<totfact> 0.26376737E-01</totfact>
</mgrwt>
</event>
<event>
 6    1  0.9906445E-006  0.1522543E+04  0.7818608E-02  0.8869599E-01
         -2   -1    0    0    0  501 -0.00000000000E+00  0.00000000000E+00  0.87703395237E+03  0.87703395237E+03  0.00000000000E+00 0.  1.
          2   -1    0    0  501    0  0.00000000000E+00 -0.00000000000E+00 -0.66078895031E+03  0.66078895031E+03  0.00000000000E+00 0. -1.
         23    2    1    2    0    0  0.49878843982E+03  0.53284320474E+03  0.31397613452E+03  0.80143770267E+03  0.10492659187E+03 0.  0.
         11    1    3    3    0    0  0.29030765379E+03  0.23808522355E+03  0.14038829490E+03  0.40083909598E+03  0.00000000000E+00 0.  1.
        -11    1    3    3    0    0  0.20848078603E+03  0.29475798120E+03  0.17358783962E+03  0.40059860670E+03  0.00000000000E+00 0. -1.
         22    1    1    2    0    0 -0.49878843982E+03 -0.53284320474E+03 -0.97731132458E+02  0.73638520001E+03  0.00000000000E+00 0. -1.
<mgrwt>
<rscale>  0 0.15225431E+04</rscale>
<asrwt>0</asrwt>
<pdfrwt beam="1">  1        2 0.10165984E+00 0.15225431E+04</pdfrwt>
<pdfrwt beam="2">  1       -2 0.13492830E+00 0.15225431E+04</pdfrwt>
<totfact> 0.16778986E+01</totfact>
</mgrwt>
</event>
<event>
 6    1  0.9906445E-006  0.5476397E+03  0.7818608E-02  0.1002042E+00
         -2   -1    0    0    0  501 -0.00000000000E+00  0.00000000000E+00  0.14530068308E+03  0.14530068308E+03  0.00000000000E+00 0. -1.
          2   -1    0    0  501    0  0.00000000000E+00 -0.00000000000E+00 -0.51601484517E+03  0.51601484517E+03  0.00000000000E+00 0.  1.
         23    2    1    2    0    0  0.19483453584E+03  0.21876407221E+02 -0.40780388944E+03  0.46177926231E+03  0.92179180436E+02 0.  0.
         13    1    3    3    0    0  0.18885050033E+03 -0.95602590068E-01 -0.38833073560E+03  0.43181625817E+03  0.00000000000E+00 0. -1.
        -13    1    3    3    0    0  0.59840355162E+01  0.21972009811E+02 -0.19473153842E+02  0.29963004134E+02  0.00000000000E+00 0.  1.
         22    1    1    2    0    0 -0.19483453584E+03 -0.21876407221E+02  0.37089727349E+02  0.19953626594E+03  0.00000000000E+00 0. -1.
<mgrwt>
<rscale>  0 0.54763970E+03</rscale>
<asrwt>0</asrwt>
<pdfrwt beam="1">  1        2 0.79386899E-01 0.54763970E+03</pdfrwt>
<pdfrwt beam="2">  1       -2 0.22353951E-01 0.54763970E+03</pdfrwt>
<totfact> 0.10429156E+03</totfact>
</mgrwt>
</event>
<event>
 6    1  0.9906445E-006  0.3357042E+04  0.7818608E-02  0.8148531E-01
         -1   -1    0    0    0  501 -0.00000000000E+00  0.00000000000E+00  0.15721106508E+04  0.15721106508E+04  0.00000000000E+00 0.  1.
          1   -1    0    0  501    0  0.00000000000E+00 -0.00000000000E+00 -0.17921343074E+04  0.17921343074E+04  0.00000000000E+00 0. -1.
         23    2    1    2    0    0  0.27590698108E+03 -0.16476050231E+04 -0.26066276428E+03  0.16932038123E+04  0.90923587462E+02 0.  0.
         11    1    3    3    0    0  0.14775295106E+03 -0.88308452452E+03 -0.18557047585E+03  0.91438810879E+03  0.00000000000E+00 0. -1.
        -11    1    3    3    0    0  0.12815403002E+03 -0.76452049860E+03 -0.75092288437E+02  0.77881570347E+03  0.00000000000E+00 0.  1.
         22    1    1    2    0    0 -0.27590698108E+03  0.16476050231E+04  0.40639107621E+02  0.16710411460E+04  0.00000000000E+00 0.  1.
<mgrwt>
<rscale>  0 0.33570424E+04</rscale>
<asrwt>0</asrwt>
<pdfrwt beam="1">  1        1 0.27571297E+00 0.33570424E+04</pdfrwt>
<pdfrwt beam="2">  1       -1 0.24186318E+00 0.33570424E+04</pdfrwt>
<totfact> 0.26843506E-01</totfact>
</mgrwt>
</event>
<event>
 6    1  0.9906445E-006  0.1202338E+04  0.7818608E-02  0.9110813E-01
         -1   -1    0    0    0  501 -0.00000000000E+00  0.00000000000E+00  0.53204380966E+03  0.53204380966E+03  0.00000000000E+00 0.  1.
          1   -1    0    0  501    0  0.00000000000E+00 -0.00000000000E+00 -0.67927521311E+03  0.67927521311E+03  0.00000000000E+00 0. -1.
         23    2    1    2    0    0 -0.47715209451E+03 -0.41401352343E+02 -0.43443312127E+03  0.65286309792E+03  0.90054952685E+02 0.  0.
         13    1    3    3    0    0 -0.82527512253E+02  0.17492988676E+02 -0.46323249661E+02  0.96242601745E+02  0.00000000000E+00 0.  1.
        -13    1    3    3    0    0 -0.39462458226E+03 -0.58894341020E+02 -0.38810987161E+03  0.55662049618E+03  0.00000000000E+00 0. -1.
         22    1    1    2    0    0  0.47715209451E+03  0.41401352343E+02  0.28720171783E+03  0.55845592484E+03  0.00000000000E+00 0.  1.
<mgrwt>
<rscale>  0 0.12023380E+04</rscale>
<asrwt>0</asrwt>
<pdfrwt beam="1">  1        1 0.10450388E+00 0.12023380E+04</pdfrwt>
<pdfrwt beam="2">  1       -1 0.81852894E-01 0.12023380E+04</pdfrwt>
<totfact> 0.41930433E+01</totfact>
</mgrwt>
</event>
<event>
 6    1  0.9906445E-006  0.1034847E+04  0.7818608E-02  0.9271130E-01
         -1   -1    0    0    0  501 -0.00000000000E+00  0.00000000000E+00  0.32602006205E+03  0.32602006205E+03  0.00000000000E+00 0.  1.
          1   -1    0    0  501    0  0.00000000000E+00 -0.00000000000E+00 -0.82119758638E+03  0.82119758638E+03  0.00000000000E+00 0. -1.
         23    2    1    2    0    0  0.99385614505E+02 -0.10462805023E+03  0.29669456633E+03  0.34230402746E+03  0.91213224180E+02 0.  0.
         13    1    3    3    0    0  0.17932445883E+02  0.16137625294E+02  0.55800264152E+02  0.60791981748E+02  0.00000000000E+00 0. -1.
        -13    1    3    3    0    0  0.81453168623E+02 -0.12076567552E+03  0.24089430218E+03  0.28151204572E+03  0.00000000000E+00 0.  1.
         22    1    1    2    0    0 -0.99385614505E+02  0.10462805023E+03 -0.79187209066E+03  0.80491362097E+03  0.00000000000E+00 0. -1.
<mgrwt>
<rscale>  0 0.10348466E+04</rscale>
<asrwt>0</asrwt>
<pdfrwt beam="1">  1        1 0.12633809E+00 0.10348466E+04</pdfrwt>
<pdfrwt beam="2">  1       -1 0.50156933E-01 0.10348466E+04</pdfrwt>
<totfact> 0.84578749E+01</totfact>
</mgrwt>
</event>
<event>
 6    1  0.9906445E-006  0.1883124E+04  0.7818608E-02  0.8663303E-01
          2   -1    0    0  501    0  0.00000000000E+00  0.00000000000E+00  0.10973871752E+04  0.10973871752E+04  0.00000000000E+00 0.  1.
         -2   -1    0    0    0  501 -0.00000000000E+00 -0.00000000000E+00 -0.80786345228E+03  0.80786345228E+03  0.00000000000E+00 0. -1.
         23    2    1    2    0    0  0.34521509138E+03 -0.57394209819E+03 -0.52104016740E+03  0.85377698935E+03  0.94176961580E+02 0.  0.
         13    1    3    3    0    0  0.13864365120E+03 -0.25885399573E+03 -0.28481614466E+03  0.40908151924E+03  0.00000000000E+00 0.  1.
        -13    1    3    3    0    0  0.20657144019E+03 -0.31508810246E+03 -0.23622402274E+03  0.44469547011E+03  0.00000000000E+00 0. -1.
         22    1    1    2    0    0 -0.34521509138E+03  0.57394209819E+03  0.81056389030E+03  0.10514736381E+04  0.00000000000E+00 0.  1.
<mgrwt>
<rscale>  0 0.18831240E+04</rscale>
<asrwt>0</asrwt>
<pdfrwt beam="1">  1        2 0.16882880E+00 0.18831240E+04</pdfrwt>
<pdfrwt beam="2">  1       -2 0.12428669E+00 0.18831240E+04</pdfrwt>
<totfact> 0.99764506E+00</totfact>
</mgrwt>
</event>
<event>
 6    1  0.9906445E-006  0.1176927E+04  0.7818608E-02  0.9133296E-01
         -2   -1    0    0    0  501 -0.00000000000E+00  0.00000000000E+00  0.10322643292E+04  0.10322643292E+04  0.00000000000E+00 0.  1.
          2   -1    0    0  501    0  0.00000000000E+00 -0.00000000000E+00 -0.33546544960E+03  0.33546544960E+03  0.00000000000E+00 0. -1.
         23    2    1    2    0    0  0.20956845832E+03  0.52469669758E+03  0.17562864076E+03  0.59906601548E+03  0.93856849930E+02 0.  0.
         13    1    3    3    0    0  0.81772716259E+02  0.24362400848E+03  0.12646934868E+03  0.28641566086E+03  0.00000000000E+00 0. -1.
        -13    1    3    3    0    0  0.12779574206E+03  0.28107268909E+03  0.49159292079E+02  0.31265035461E+03  0.00000000000E+00 0.  1.
         22    1    1    2    0    0 -0.20956845832E+03 -0.52469669758E+03  0.52117023881E+03  0.76866376329E+03  0.00000000000E+00 0.  1.
<mgrwt>
<rscale>  0 0.11769265E+04</rscale>
<asrwt>0</asrwt>
<pdfrwt beam="1">  1        2 0.51610070E-01 0.11769265E+04</pdfrwt>
<pdfrwt beam="2">  1       -2 0.15880990E+00 0.11769265E+04</pdfrwt>
<totfact> 0.24588054E+01</totfact>
</mgrwt>
</event>
<event>
 6    1  0.9906445E-006  0.1159724E+04  0.7818608E-02  0.9148860E-01
         -2   -1    0    0    0  501 -0.00000000000E+00  0.00000000000E+00  0.40374150931E+03  0.40374150931E+03  0.00000000000E+00 0.  1.
          2   -1    0    0  501    0  0.00000000000E+00 -0.00000000000E+00 -0.83280964236E+03  0.83280964236E+03  0.00000000000E+00 0. -1.
         23    2    1    2    0    0  0.35800868426E+03  0.18277027735E+03 -0.65620626907E+03  0.77485111364E+03  0.90622229381E+02 0.  0.
         13    1    3    3    0    0  0.25355337603E+03  0.12258190775E+03 -0.53086175088E+03  0.60094079338E+03  0.00000000000E+00 0.  1.
        -13    1    3    3    0    0  0.10445530823E+03  0.60188369598E+02 -0.12534451819E+03  0.17391032026E+03  0.00000000000E+00 0. -1.
         22    1    1    2    0    0 -0.35800868426E+03 -0.18277027735E+03  0.22713813602E+03  0.46170003803E+03  0.00000000000E+00 0.  1.
<mgrwt>
<rscale>  0 0.11597238E+04</rscale>
<asrwt>0</asrwt>
<pdfrwt beam="1">  1        2 0.12812456E+00 0.11597238E+04</pdfrwt>
<pdfrwt beam="2">  1       -2 0.62114078E-01 0.11597238E+04</pdfrwt>
<totfact> 0.77708902E+01</totfact>
</mgrwt>
</event>
<event>
 6    1  0.9906445E-006  0.3985634E+04  0.7818608E-02  0.8007451E-01
         -2   -1    0    0    0  501 -0.00000000000E+00  0.00000000000E+00  0.26554956130E+04  0.26554956130E+04  0.00000000000E+00 0.  1.
          2   -1    0    0  501    0  0.00000000000E+00 -0.00000000000E+00 -0.14955100872E+04  0.14955100872E+04  0.00000000000E+00 0. -1.
         23    2    1    2    0    0 -0.62322467715E+03 -0.12712878183E+04  0.20393568276E+04  0.24843096867E+04  0.90755901276E+02 0.  0.
         13    1    3    3    0    0 -0.47570296542E+03 -0.10197844005E+04  0.15663207404E+04  0.19286301348E+04  0.00000000000E+00 0.  1.
        -13    1    3    3    0    0 -0.14752171173E+03 -0.25150341785E+03  0.47303608720E+03  0.55567955191E+03  0.00000000000E+00 0. -1.
         22    1    1    2    0    0  0.62322467715E+03  0.12712878183E+04 -0.87937130188E+03  0.16666960136E+04  0.00000000000E+00 0. -1.
<mgrwt>
<rscale>  0 0.39856344E+04</rscale>
<asrwt>0</asrwt>
<pdfrwt beam="1">  1        2 0.23007847E+00 0.39856344E+04</pdfrwt>
<pdfrwt beam="2">  1       -2 0.40853779E+00 0.39856344E+04</pdfrwt>
<totfact> 0.65764545E-02</totfact>
</mgrwt>
</event>
<event>
 6    1  0.9906445E-006  0.1764415E+04  0.7818608E-02  0.8725456E-01
          1   -1    0    0  501    0  0.00000000000E+00  0.00000000000E+00  0.11682847101E+04  0.11682847101E+04  0.00000000000E+00 0. -1.
         -1   -1    0    0    0  501 -0.00000000000E+00 -0.00000000000E+00 -0.66618163714E+03  0.66618163714E+03  0.00000000000E+00 0.  1.
         23    2    1    2    0    0 -0.38106143874E+03  0.66037746389E+03 -0.20503361892E+03  0.79458726009E+03  0.89576303226E+02 0.  0.
         11    1    3    3    0    0 -0.16156425635E+03  0.21096074504E+03 -0.45367559457E+02  0.26956568833E+03  0.00000000000E+00 0. -1.
        -11    1    3    3    0    0 -0.21949718239E+03  0.44941671886E+03 -0.15966605946E+03  0.52502157175E+03  0.00000000000E+00 0.  1.
         22    1    1    2    0    0  0.38106143874E+03 -0.66037746389E+03  0.70713669189E+03  0.10398790872E+04  0.00000000000E+00 0. -1.
<mgrwt>
<rscale>  0 0.17644147E+04</rscale>
<asrwt>0</asrwt>
<pdfrwt beam="1">  1        1 0.17973611E+00 0.17644147E+04</pdfrwt>
<pdfrwt beam="2">  1       -1 0.10248948E+00 0.17644147E+04</pdfrwt>
<totfact> 0.96121389E+00</totfact>
</mgrwt>
</event>
<event>
 6    1  0.9906445E-006  0.1191629E+04  0.7818608E-02  0.9120215E-01
         -2   -1    0    0    0  501 -0.00000000000E+00  0.00000000000E+00  0.54243959913E+03  0.54243959913E+03  0.00000000000E+00 0.  1.
          2   -1    0    0  501    0  0.00000000000E+00 -0.00000000000E+00 -0.65444176647E+03  0.65444176647E+03  0.00000000000E+00 0. -1.
         23    2    1    2    0    0 -0.34478092586E+03  0.62813177782E+02  0.42325100105E+03  0.55710379769E+03  0.91672511525E+02 0.  0.
         11    1    3    3    0    0 -0.19292411061E+03  0.63458636821E+02  0.29602050720E+03  0.35899143684E+03  0.00000000000E+00 0.  1.
        -11    1    3    3    0    0 -0.15185681525E+03 -0.64545903925E+00  0.12723049385E+03  0.19811236085E+03  0.00000000000E+00 0. -1.
         22    1    1    2    0    0  0.34478092586E+03 -0.62813177782E+02 -0.53525316839E+03  0.63977756792E+03  0.00000000000E+00 0. -1.
<mgrwt>
<rscale>  0 0.11916294E+04</rscale>
<asrwt>0</asrwt>
<pdfrwt beam="1">  1        2 0.10068335E+00 0.11916294E+04</pdfrwt>
<pdfrwt beam="2">  1       -2 0.83452246E-01 0.11916294E+04</pdfrwt>
<totfact> 0.55328399E+01</totfact>
</mgrwt>
</event>
<event>
 6    1  0.9906445E-006  0.5633856E+04  0.7818608E-02  0.7737534E-01
          2   -1    0    0  501    0  0.00000000000E+00  0.00000000000E+00  0.34497065652E+04  0.34497065652E+04  0.00000000000E+00 0. -1.
         -2   -1    0    0    0  501 -0.00000000000E+00 -0.00000000000E+00 -0.23002196183E+04  0.23002196183E+04  0.00000000000E+00 0.  1.
         23    2    1    2    0    0  0.25772417660E+04 -0.46551505342E+03 -0.48185150993E+03  0.26644530356E+04  0.90827946885E+02 0.  0.
         13    1    3    3    0    0  0.21276456195E+04 -0.36237167015E+03 -0.42438177895E+03  0.21996111029E+04  0.00000000000E+00 0. -1.
        -13    1    3    3    0    0  0.44959614643E+03 -0.10314338327E+03 -0.57469730973E+02  0.46484193268E+03  0.00000000000E+00 0.  1.
         22    1    1    2    0    0 -0.25772417660E+04  0.46551505342E+03  0.16313384568E+04  0.30854731478E+04  0.00000000000E+00 0. -1.
<mgrwt>
<rscale>  0 0.56338558E+04</rscale>
<asrwt>0</asrwt>
<pdfrwt beam="1">  1        2 0.53072409E+00 0.56338558E+04</pdfrwt>
<pdfrwt beam="2">  1       -2 0.35387994E+00 0.56338558E+04</pdfrwt>
<totfact> 0.89578571E-03</totfact>
</mgrwt>
</event>
<event>
 6    1  0.9906445E-006  0.1427362E+04  0.7818608E-02  0.8934247E-01
          1   -1    0    0  501    0  0.00000000000E+00  0.00000000000E+00  0.14704490889E+04  0.14704490889E+04  0.00000000000E+00 0. -1.
         -1   -1    0    0    0  501 -0.00000000000E+00 -0.00000000000E+00 -0.34638428219E+03  0.34638428219E+03  0.00000000000E+00 0.  1.
         23    2    1    2    0    0 -0.86006498364E+02 -0.58676189797E+03  0.67106097887E+02  0.60487282932E+03  0.98393437820E+02 0.  0.
         11    1    3    3    0    0 -0.83095768103E+02 -0.58503598365E+03  0.75605136045E+02  0.59572489073E+03  0.00000000000E+00 0. -1.
        -11    1    3    3    0    0 -0.29107302612E+01 -0.17259143266E+01 -0.84990381577E+01  0.91479385942E+01  0.00000000000E+00 0.  1.
         22    1    1    2    0    0  0.86006498364E+02  0.58676189797E+03  0.10569587088E+04  0.12119605418E+04  0.00000000000E+00 0. -1.
<mgrwt>
<rscale>  0 0.14273618E+04</rscale>
<asrwt>0</asrwt>
<pdfrwt beam="1">  1        1 0.22622293E+00 0.14273618E+04</pdfrwt>
<pdfrwt beam="2">  1       -1 0.53289890E-01 0.14273618E+04</pdfrwt>
<totfact> 0.23700563E+01</totfact>
</mgrwt>
</event>
<event>
 6    1  0.9906445E-006  0.1486782E+04  0.7818608E-02  0.8893290E-01
          2   -1    0    0  501    0  0.00000000000E+00  0.00000000000E+00  0.27740256912E+04  0.27740256912E+04  0.00000000000E+00 0. -1.
         -2   -1    0    0    0  501 -0.00000000000E+00 -0.00000000000E+00 -0.19921608096E+03  0.19921608096E+03  0.00000000000E+00 0.  1.
         23    2    1    2    0    0 -0.63810171029E+03  0.10589285349E+02  0.20435332934E+04  0.21428560482E+04  0.92291909670E+02 0.  0.
         13    1    3    3    0    0 -0.20427016090E+03  0.29605647548E+01  0.80497845464E+03  0.83049706562E+03  0.00000000000E+00 0. -1.
        -13    1    3    3    0    0 -0.43383154939E+03  0.76287205943E+01  0.12385548388E+04  0.13123589826E+04  0.00000000000E+00 0.  1.
         22    1    1    2    0    0  0.63810171029E+03 -0.10589285349E+02  0.53127631680E+03  0.83038572388E+03  0.00000000000E+00 0.  1.
<mgrwt>
<rscale>  0 0.14867825E+04</rscale>
<asrwt>0</asrwt>
<pdfrwt beam="1">  1        2 0.42677316E+00 0.14867825E+04</pdfrwt>
<pdfrwt beam="2">  1       -2 0.30648630E-01 0.14867825E+04</pdfrwt>
<totfact> 0.22963292E+01</totfact>
</mgrwt>
</event>
<event>
 6    1  0.9906445E-006  0.1560016E+04  0.7818608E-02  0.8845496E-01
         -2   -1    0    0    0  501 -0.00000000000E+00  0.00000000000E+00  0.10655020080E+04  0.10655020080E+04  0.00000000000E+00 0.  1.
          2   -1    0    0  501    0  0.00000000000E+00 -0.00000000000E+00 -0.57100996007E+03  0.57100996007E+03  0.00000000000E+00 0. -1.
         23    2    1    2    0    0  0.41294024697E+01 -0.49678484519E+03 -0.37905827077E+03  0.63157296809E+03  0.91580603910E+02 0.  0.
         11    1    3    3    0    0  0.10960549319E+02 -0.38794526814E+03 -0.33927496706E+03  0.51548925109E+03  0.00000000000E+00 0. -1.
        -11    1    3    3    0    0 -0.68311468496E+01 -0.10883957705E+03 -0.39783303709E+02  0.11608371701E+03  0.00000000000E+00 0.  1.
         22    1    1    2    0    0 -0.41294024697E+01  0.49678484519E+03  0.87355031868E+03  0.10049390000E+04  0.00000000000E+00 0.  1.
<mgrwt>
<rscale>  0 0.15600157E+04</rscale>
<asrwt>0</asrwt>
<pdfrwt beam="1">  1        2 0.87847686E-01 0.15600157E+04</pdfrwt>
<pdfrwt beam="2">  1       -2 0.16392339E+00 0.15600157E+04</pdfrwt>
<totfact> 0.11925629E+01</totfact>
</mgrwt>
</event>
<event>
 6    1  0.9906445E-006  0.5529129E+04  0.7818608E-02  0.7751694E-01
          2   -1    0    0  501    0  0.00000000000E+00  0.00000000000E+00  0.21575045644E+04  0.21575045644E+04  0.00000000000E+00 0. -1.
         -2   -1    0    0    0  501 -0.00000000000E+00 -0.00000000000E+00 -0.35424341772E+04  0.35424341772E+04  0.00000000000E+00 0.  1.
         23    2    1    2    0    0  0.81292182367E+03 -0.22939093438E+03  0.20202016335E+04  0.21916085267E+04  0.92039134659E+02 0.  0.
         13    1    3    3    0    0  0.58489182176E+03 -0.20310656659E+03  0.14261484463E+04  0.15547508197E+04  0.00000000000E+00 0. -1.
        -13    1    3    3    0    0  0.22803000191E+03 -0.26284367790E+02  0.59405318718E+03  0.63685770700E+03  0.00000000000E+00 0.  1.
         22    1    1    2    0    0 -0.81292182367E+03  0.22939093438E+03 -0.34051312463E+04  0.35083302149E+04  0.00000000000E+00 0.  1.
<mgrwt>
<rscale>  0 0.55291294E+04</rscale>
<asrwt>0</asrwt>
<pdfrwt beam="1">  1        2 0.33192378E+00 0.55291294E+04</pdfrwt>
<pdfrwt beam="2">  1       -2 0.54498987E+00 0.55291294E+04</pdfrwt>
<totfact> 0.35029802E-03</totfact>
</mgrwt>
</event>
<event>
 6    1  0.9906445E-006  0.2048098E+04  0.7818608E-02  0.8584458E-01
         -1   -1    0    0    0  501 -0.00000000000E+00  0.00000000000E+00  0.50760656487E+03  0.50760656487E+03  0.00000000000E+00 0.  1.
          1   -1    0    0  501    0  0.00000000000E+00 -0.00000000000E+00 -0.20659242050E+04  0.20659242050E+04  0.00000000000E+00 0. -1.
         23    2    1    2    0    0 -0.13274121427E+03 -0.67591300620E+03 -0.17294261676E+04  0.18637725364E+04  0.90854697929E+02 0.  0.
         13    1    3    3    0    0 -0.93359562921E+02 -0.35572806565E+03 -0.10252744901E+04  0.10892411325E+04  0.00000000000E+00 0. -1.
        -13    1    3    3    0    0 -0.39381651349E+02 -0.32018494055E+03 -0.70415167757E+03  0.77453140391E+03  0.00000000000E+00 0.  1.
         22    1    1    2    0    0  0.13274121427E+03  0.67591300620E+03  0.17110852745E+03  0.70975823354E+03  0.00000000000E+00 0.  1.
<mgrwt>
<rscale>  0 0.20480983E+04</rscale>
<asrwt>0</asrwt>
<pdfrwt beam="1">  1        1 0.31783449E+00 0.20480983E+04</pdfrwt>
<pdfrwt beam="2">  1       -1 0.78093318E-01 0.20480983E+04</pdfrwt>
<totfact> 0.40771774E+00</totfact>
</mgrwt>
</event>
<event>
 6    1  0.9906445E-006  0.2398102E+04  0.7818608E-02  0.8440214E-01
          2   -1    0    0  501    0  0.00000000000E+00  0.00000000000E+00  0.22017700358E+04  0.22017700358E+04  0.00000000000E+00 0.  1.
         -2   -1    0    0    0  501 -0.00000000000E+00 -0.00000000000E+00 -0.65298541153E+03  0.65298541153E+03  0.00000000000E+00 0. -1.
         23    2    1    2    0    0  0.51460800897E+03  0.12173604473E+03 -0.50327164920E+03  0.73565752204E+03  0.90931674193E+02 0.  0.
         13    1    3    3    0    0  0.14933359985E+03  0.13273283478E+02 -0.19227060519E+03  0.24381281697E+03  0.00000000000E+00 0. -1.
        -13    1    3    3    0    0  0.36527440912E+03  0.10846276125E+03 -0.31100104401E+03  0.49184470508E+03  0.00000000000E+00 0.  1.
         22    1    1    2    0    0 -0.51460800897E+03 -0.12173604473E+03  0.20520562734E+04  0.21190979253E+04  0.00000000000E+00 0.  1.
<mgrwt>
<rscale>  0 0.23981023E+04</rscale>
<asrwt>0</asrwt>
<pdfrwt beam="1">  1        2 0.33873385E+00 0.23981023E+04</pdfrwt>
<pdfrwt beam="2">  1       -2 0.10045930E+00 0.23981023E+04</pdfrwt>
<totfact> 0.37854134E+00</totfact>
</mgrwt>
</event>
<event>
 6    1  0.1300226E-005  0.3531724E+04  0.7818608E-02  0.8106313E-01
         -2   -1    0    0    0  501 -0.00000000000E+00  0.00000000000E+00  0.15799825398E+04  0.15799825398E+04  0.00000000000E+00 0.  1.
          2   -1    0    0  501    0  0.00000000000E+00 -0.00000000000E+00 -0.19736092619E+04  0.19736092619E+04  0.00000000000E+00 0. -1.
         23    2    1    2    0    0 -0.32628704814E+03  0.66226230409E+03  0.14156765305E+04  0.15994595501E+04  0.95269176341E+02 0.  0.
         13    1    3    3    0    0 -0.14004297718E+03  0.36845601458E+03  0.81529112713E+03  0.90557798787E+03  0.00000000000E+00 0. -1.
        -13    1    3    3    0    0 -0.18624407095E+03  0.29380628951E+03  0.60038540341E+03  0.69388156219E+03  0.00000000000E+00 0.  1.
         22    1    1    2    0    0  0.32628704814E+03 -0.66226230409E+03 -0.18093032526E+04  0.19541322517E+04  0.00000000000E+00 0. -1.
<mgrwt>
<rscale>  0 0.35317238E+04</rscale>
<asrwt>0</asrwt>
<pdfrwt beam="1">  1        2 0.30363219E+00 0.35317238E+04</pdfrwt>
<pdfrwt beam="2">  1       -2 0.24307424E+00 0.35317238E+04</pdfrwt>
<totfact> 0.40162144E-01</totfact>
</mgrwt>
</event>
<event>
 6    1  0.9906445E-006  0.5116732E+03  0.7818608E-02  0.1010776E+00
          1   -1    0    0  501    0  0.00000000000E+00  0.00000000000E+00  0.16396209664E+03  0.16396209664E+03  0.00000000000E+00 0. -1.
         -1   -1    0    0    0  501 -0.00000000000E+00 -0.00000000000E+00 -0.39919204403E+03  0.39919204403E+03  0.00000000000E+00 0.  1.
         23    2    1    2    0    0  0.85095808648E+02  0.11687113893E+03 -0.34330152036E+03  0.38265587296E+03  0.87575244591E+02 0.  0.
         13    1    3    3    0    0  0.29852275904E+02 -0.52232600938E+01 -0.10468225818E+03  0.10898080565E+03  0.00000000000E+00 0.  1.
        -13    1    3    3    0    0  0.55243532744E+02  0.12209439903E+03 -0.23861926218E+03  0.27367506731E+03  0.00000000000E+00 0. -1.
         22    1    1    2    0    0 -0.85095808648E+02 -0.11687113893E+03  0.10807157297E+03  0.18049826772E+03  0.00000000000E+00 0. -1.
<mgrwt>
<rscale>  0 0.51167319E+03</rscale>
<asrwt>0</asrwt>
<pdfrwt beam="1">  1        1 0.25224938E-01 0.51167319E+03</pdfrwt>
<pdfrwt beam="2">  1       -1 0.61414160E-01 0.51167319E+03</pdfrwt>
<totfact> 0.52481815E+02</totfact>
</mgrwt>
</event>
<event>
 6    1  0.9906445E-006  0.1511633E+04  0.7818608E-02  0.8876754E-01
          2   -1    0    0  501    0  0.00000000000E+00  0.00000000000E+00  0.22420205301E+04  0.22420205301E+04  0.00000000000E+00 0. -1.
         -2   -1    0    0    0  501 -0.00000000000E+00 -0.00000000000E+00 -0.25479626009E+03  0.25479626009E+03  0.00000000000E+00 0.  1.
         23    2    1    2    0    0  0.38543578155E+03  0.41239953445E+03  0.17298687635E+03  0.59679272765E+03  0.87195084021E+02 0.  0.
         13    1    3    3    0    0  0.43530693127E+02  0.32182116842E+02 -0.72564786312E+01  0.54619285702E+02  0.00000000000E+00 0. -1.
        -13    1    3    3    0    0  0.34190508842E+03  0.38021741761E+03  0.18024335499E+03  0.54217344195E+03  0.00000000000E+00 0.  1.
         22    1    1    2    0    0 -0.38543578155E+03 -0.41239953445E+03  0.18142373937E+04  0.19000240626E+04  0.00000000000E+00 0. -1.
<mgrwt>
<rscale>  0 0.15116328E+04</rscale>
<asrwt>0</asrwt>
<pdfrwt beam="1">  1        2 0.34492622E+00 0.15116328E+04</pdfrwt>
<pdfrwt beam="2">  1       -2 0.39199426E-01 0.15116328E+04</pdfrwt>
<totfact> 0.29078923E+01</totfact>
</mgrwt>
</event>
<event>
 6    1  0.9906445E-006  0.3003827E+04  0.7818608E-02  0.8242639E-01
         -2   -1    0    0    0  501 -0.00000000000E+00  0.00000000000E+00  0.75074988647E+03  0.75074988647E+03  0.00000000000E+00 0.  1.
          2   -1    0    0  501    0  0.00000000000E+00 -0.00000000000E+00 -0.30046552154E+04  0.30046552154E+04  0.00000000000E+00 0. -1.
         23    2    1    2    0    0 -0.10602979503E+04  0.19736196260E+02  0.19893968279E+03  0.10831270638E+04  0.94688849054E+02 0.  0.
         13    1    3    3    0    0 -0.96838065763E+03  0.34837160312E+02  0.15982827482E+03  0.98209969110E+03  0.00000000000E+00 0.  1.
        -13    1    3    3    0    0 -0.91917292696E+02 -0.15100964052E+02  0.39111407971E+02  0.10102737275E+03  0.00000000000E+00 0. -1.
         22    1    1    2    0    0  0.10602979503E+04 -0.19736196260E+02 -0.24528450117E+04  0.26722780380E+04  0.00000000000E+00 0. -1.
<mgrwt>
<rscale>  0 0.30038273E+04</rscale>
<asrwt>0</asrwt>
<pdfrwt beam="1">  1        2 0.46225467E+00 0.30038273E+04</pdfrwt>
<pdfrwt beam="2">  1       -2 0.11549998E+00 0.30038273E+04</pdfrwt>
<totfact> 0.86294925E-01</totfact>
</mgrwt>
</event>
<event>
 6    1  0.9906445E-006  0.6303783E+03  0.7818608E-02  0.9844311E-01
          2   -1    0    0  501    0  0.00000000000E+00  0.00000000000E+00  0.38428287525E+03  0.38428287525E+03  0.00000000000E+00 0. -1.
         -2   -1    0    0    0  501 -0.00000000000E+00 -0.00000000000E+00 -0.25851839172E+03  0.25851839172E+03  0.00000000000E+00 0.  1.
         23    2    1    2    0    0  0.17782290441E+03  0.55038615745E+02  0.31528172244E+03  0.37715673306E+03  0.90522937569E+02 0.  0.
         11    1    3    3    0    0  0.12124167100E+03  0.20844023740E+02  0.27091510499E+03  0.29753825002E+03  0.00000000000E+00 0. -1.
        -11    1    3    3    0    0  0.56581233410E+02  0.34194592005E+02  0.44366617449E+02  0.79618483033E+02  0.00000000000E+00 0.  1.
         22    1    1    2    0    0 -0.17782290441E+03 -0.55038615745E+02 -0.18951723891E+03  0.26564453392E+03  0.00000000000E+00 0.  1.
<mgrwt>
<rscale>  0 0.63037827E+03</rscale>
<asrwt>0</asrwt>
<pdfrwt beam="1">  1        2 0.59120442E-01 0.63037827E+03</pdfrwt>
<pdfrwt beam="2">  1       -2 0.39772060E-01 0.63037827E+03</pdfrwt>
<totfact> 0.50155171E+02</totfact>
</mgrwt>
</event>
<event>
 6    1  0.9906445E-006  0.2172673E+04  0.7818608E-02  0.8529889E-01
         -2   -1    0    0    0  501 -0.00000000000E+00  0.00000000000E+00  0.14168114741E+04  0.14168114741E+04  0.00000000000E+00 0.  1.
          2   -1    0    0  501    0  0.00000000000E+00 -0.00000000000E+00 -0.83294531204E+03  0.83294531204E+03  0.00000000000E+00 0. -1.
         23    2    1    2    0    0  0.37227190768E+03  0.74821357621E+03 -0.42299461682E+03  0.94125437616E+03  0.92873171057E+02 0.  0.
         13    1    3    3    0    0  0.11709801945E+03  0.28962345061E+03 -0.20069053648E+03  0.37130900976E+03  0.00000000000E+00 0. -1.
        -13    1    3    3    0    0  0.25517388823E+03  0.45859012561E+03 -0.22230408034E+03  0.56994536639E+03  0.00000000000E+00 0.  1.
         22    1    1    2    0    0 -0.37227190768E+03 -0.74821357621E+03  0.10068607789E+04  0.13085024100E+04  0.00000000000E+00 0.  1.
<mgrwt>
<rscale>  0 0.21726725E+04</rscale>
<asrwt>0</asrwt>
<pdfrwt beam="1">  1        2 0.12814543E+00 0.21726725E+04</pdfrwt>
<pdfrwt beam="2">  1       -2 0.21797100E+00 0.21726725E+04</pdfrwt>
<totfact> 0.30419036E+00</totfact>
</mgrwt>
</event>
<event>
 6    1  0.9906445E-006  0.5075089E+04  0.7818608E-02  0.7817027E-01
         -1   -1    0    0    0  501 -0.00000000000E+00  0.00000000000E+00  0.29068500498E+04  0.29068500498E+04  0.00000000000E+00 0.  1.
          1   -1    0    0  501    0  0.00000000000E+00 -0.00000000000E+00 -0.22151583103E+04  0.22151583103E+04  0.00000000000E+00 0. -1.
         23    2    1    2    0    0 -0.16431515796E+03 -0.82275845486E+03 -0.20701788712E+04  0.22355121769E+04  0.89124565039E+02 0.  0.
         13    1    3    3    0    0 -0.47612460810E+02 -0.93232368759E+02 -0.23984444715E+03  0.26169558620E+03  0.00000000000E+00 0. -1.
        -13    1    3    3    0    0 -0.11670269715E+03 -0.72952608610E+03 -0.18303344240E+04  0.19738165907E+04  0.00000000000E+00 0.  1.
         22    1    1    2    0    0  0.16431515796E+03  0.82275845486E+03  0.27618706106E+04  0.28864961833E+04  0.00000000000E+00 0.  1.
<mgrwt>
<rscale>  0 0.50750894E+04</rscale>
<asrwt>0</asrwt>
<pdfrwt beam="1">  1        1 0.34079359E+00 0.50750894E+04</pdfrwt>
<pdfrwt beam="2">  1       -1 0.44720770E+00 0.50750894E+04</pdfrwt>
<totfact> 0.51759822E-03</totfact>
</mgrwt>
</event>
<event>
 6    1  0.9906445E-006  0.2042631E+04  0.7818608E-02  0.8586945E-01
         -1   -1    0    0    0  501 -0.00000000000E+00  0.00000000000E+00  0.23100522751E+04  0.23100522751E+04  0.00000000000E+00 0.  1.
          1   -1    0    0  501    0  0.00000000000E+00 -0.00000000000E+00 -0.45154191624E+03  0.45154191624E+03  0.00000000000E+00 0. -1.
         23    2    1    2    0    0  0.59858730351E+03  0.82352477709E+03  0.86440467367E+03  0.13386585176E+04  0.91166706550E+02 0.  0.
         11    1    3    3    0    0  0.14011162092E+03  0.18316434027E+03  0.14811382371E+03  0.27407689913E+03  0.00000000000E+00 0. -1.
        -11    1    3    3    0    0  0.45847568259E+03  0.64036043682E+03  0.71629084996E+03  0.10645816184E+04  0.00000000000E+00 0.  1.
         22    1    1    2    0    0 -0.59858730351E+03 -0.82352477709E+03  0.99410568523E+03  0.14229356738E+04  0.00000000000E+00 0.  1.
<mgrwt>
<rscale>  0 0.20426311E+04</rscale>
<asrwt>0</asrwt>
<pdfrwt beam="1">  1        1 0.69467988E-01 0.20426311E+04</pdfrwt>
<pdfrwt beam="2">  1       -1 0.35539265E+00 0.20426311E+04</pdfrwt>
<totfact> 0.67496863E-01</totfact>
</mgrwt>
</event>
<event>
 6    1  0.9906445E-006  0.1141547E+04  0.7818608E-02  0.9165617E-01
          4   -1    0    0  501    0  0.00000000000E+00  0.00000000000E+00  0.45006674794E+03  0.45006674794E+03  0.00000000000E+00 0. -1.
         -4   -1    0    0    0  501 -0.00000000000E+00 -0.00000000000E+00 -0.72385371749E+03  0.72385371749E+03  0.00000000000E+00 0.  1.
         23    2    1    2    0    0  0.29632899175E+03 -0.34213750888E+03 -0.48930329685E+03  0.67260595968E+03  0.90067276828E+02 0.  0.
         13    1    3    3    0    0  0.18388862327E+03 -0.26274212279E+03 -0.30500682600E+03  0.44258062855E+03  0.00000000000E+00 0. -1.
        -13    1    3    3    0    0  0.11244036848E+03 -0.79395386089E+02 -0.18429647085E+03  0.23002533114E+03  0.00000000000E+00 0.  1.
         22    1    1    2    0    0 -0.29632899175E+03  0.34213750888E+03  0.21551632730E+03  0.50131450575E+03  0.00000000000E+00 0. -1.
<mgrwt>
<rscale>  0 0.11415472E+04</rscale>
<asrwt>0</asrwt>
<pdfrwt beam="1">  1        4 0.69241039E-01 0.11415472E+04</pdfrwt>
<pdfrwt beam="2">  1       -4 0.11136211E+00 0.11415472E+04</pdfrwt>
<totfact> 0.24085711E+00</totfact>
</mgrwt>
</event>
<event>
 6    1  0.9906445E-006  0.1306226E+04  0.7818608E-02  0.9024643E-01
          1   -1    0    0  501    0  0.00000000000E+00  0.00000000000E+00  0.40054695742E+03  0.40054695742E+03  0.00000000000E+00 0. -1.
         -1   -1    0    0    0  501 -0.00000000000E+00 -0.00000000000E+00 -0.10649349820E+04  0.10649349820E+04  0.00000000000E+00 0.  1.
         23    2    1    2    0    0  0.38752748973E+03  0.26205670449E+03  0.17245855109E+03  0.50675180905E+03  0.90576887046E+02 0.  0.
         13    1    3    3    0    0  0.14113551615E+03  0.10768045218E+03  0.11161219287E+03  0.20969405165E+03  0.00000000000E+00 0. -1.
        -13    1    3    3    0    0  0.24639197359E+03  0.15437625231E+03  0.60846358223E+02  0.29705775741E+03  0.00000000000E+00 0.  1.
         22    1    1    2    0    0 -0.38752748973E+03 -0.26205670449E+03 -0.83684657569E+03  0.95873013038E+03  0.00000000000E+00 0.  1.
<mgrwt>
<rscale>  0 0.13062258E+04</rscale>
<asrwt>0</asrwt>
<pdfrwt beam="1">  1        1 0.61622610E-01 0.13062258E+04</pdfrwt>
<pdfrwt beam="2">  1       -1 0.16383615E+00 0.13062258E+04</pdfrwt>
<totfact> 0.16079797E+01</totfact>
</mgrwt>
</event>
<event>
 6    1  0.9906445E-006  0.1385975E+04  0.7818608E-02  0.8964034E-01
          1   -1    0    0  501    0  0.00000000000E+00  0.00000000000E+00  0.66995521827E+03  0.66995521827E+03  0.00000000000E+00 0. -1.
         -1   -1    0    0    0  501 -0.00000000000E+00 -0.00000000000E+00 -0.71681131126E+03  0.71681131126E+03  0.00000000000E+00 0.  1.
         23    2    1    2    0    0 -0.10887013596E+02 -0.62123186212E+03  0.27665209949E+03  0.68626306474E+03  0.91504405868E+02 0.  0.
         11    1    3    3    0    0 -0.44069926993E+02 -0.19056436567E+03  0.73736581602E+02  0.20903114455E+03  0.00000000000E+00 0. -1.
        -11    1    3    3    0    0  0.33182913397E+02 -0.43066749646E+03  0.20291551789E+03  0.47723192019E+03  0.00000000000E+00 0.  1.
         22    1    1    2    0    0  0.10887013596E+02  0.62123186212E+03 -0.32350819247E+03  0.70050346479E+03  0.00000000000E+00 0.  1.
<mgrwt>
<rscale>  0 0.13859747E+04</rscale>
<asrwt>0</asrwt>
<pdfrwt beam="1">  1        1 0.10307003E+00 0.13859747E+04</pdfrwt>
<pdfrwt beam="2">  1       -1 0.11027866E+00 0.13859747E+04</pdfrwt>
<totfact> 0.21567085E+01</totfact>
</mgrwt>
</event>
<event>
 6    1  0.1413904E-005  0.2649196E+04  0.7818608E-02  0.8351680E-01
         -2   -1    0    0    0  501 -0.00000000000E+00  0.00000000000E+00  0.13973896876E+04  0.13973896876E+04  0.00000000000E+00 0.  1.
          2   -1    0    0  501    0  0.00000000000E+00 -0.00000000000E+00 -0.12555985745E+04  0.12555985745E+04  0.00000000000E+00 0. -1.
         23    2    1    2    0    0 -0.10182966375E+04  0.75902730995E+03 -0.30021246575E+03  0.13082140570E+04  0.90807462737E+02 0.  0.
         13    1    3    3    0    0 -0.72648794024E+03  0.57282983584E+03 -0.18570137536E+03  0.94361207546E+03  0.00000000000E+00 0.  1.
        -13    1    3    3    0    0 -0.29180869721E+03  0.18619747411E+03 -0.11451109039E+03  0.36460198156E+03  0.00000000000E+00 0. -1.
         22    1    1    2    0    0  0.10182966375E+04 -0.75902730995E+03  0.44200357888E+03  0.13447742051E+04  0.00000000000E+00 0.  1.
<mgrwt>
<rscale>  0 0.26491965E+04</rscale>
<asrwt>0</asrwt>
<pdfrwt beam="1">  1        2 0.19316901E+00 0.26491965E+04</pdfrwt>
<pdfrwt beam="2">  1       -2 0.21498303E+00 0.26491965E+04</pdfrwt>
<totfact> 0.16450570E+00</totfact>
</mgrwt>
</event>
<event>
 6    1  0.9906445E-006  0.1707235E+04  0.7818608E-02  0.8757249E-01
          2   -1    0    0  501    0  0.00000000000E+00  0.00000000000E+00  0.18715591254E+04  0.18715591254E+04  0.00000000000E+00 0. -1.
         -2   -1    0    0    0  501 -0.00000000000E+00 -0.00000000000E+00 -0.38933463786E+03  0.38933463786E+03  0.00000000000E+00 0.  1.
         23    2    1    2    0    0 -0.45538002062E+03 -0.64973437920E+03  0.11511772405E+04  0.14011740377E+04  0.92487395033E+02 0.  0.
         11    1    3    3    0    0 -0.35276882815E+03 -0.43821432984E+03  0.84534424051E+03  0.10154233255E+04  0.00000000000E+00 0.  1.
        -11    1    3    3    0    0 -0.10261119247E+03 -0.21152004936E+03  0.30583300002E+03  0.38575071225E+03  0.00000000000E+00 0. -1.
         22    1    1    2    0    0  0.45538002062E+03  0.64973437920E+03  0.33104724702E+03  0.85971972553E+03  0.00000000000E+00 0.  1.
<mgrwt>
<rscale>  0 0.17072350E+04</rscale>
<asrwt>0</asrwt>
<pdfrwt beam="1">  1        2 0.28793217E+00 0.17072350E+04</pdfrwt>
<pdfrwt beam="2">  1       -2 0.59897638E-01 0.17072350E+04</pdfrwt>
<totfact> 0.19464985E+01</totfact>
</mgrwt>
</event>
<event>
 6    1  0.9906445E-006  0.9145650E+03  0.7818608E-02  0.9407555E-01
          2   -1    0    0  501    0  0.00000000000E+00  0.00000000000E+00  0.11016030960E+04  0.11016030960E+04  0.00000000000E+00 0.  1.
         -2   -1    0    0    0  501 -0.00000000000E+00 -0.00000000000E+00 -0.18982087483E+03  0.18982087483E+03  0.00000000000E+00 0. -1.
         23    2    1    2    0    0  0.70582332488E+02  0.23997285139E+03  0.99327793358E+03  0.10283453015E+04  0.91236893760E+02 0.  0.
         11    1    3    3    0    0  0.87285256424E+02  0.14329572276E+03  0.65227228435E+03  0.67350687679E+03  0.00000000000E+00 0. -1.
        -11    1    3    3    0    0 -0.16702923935E+02  0.96677128625E+02  0.34100564923E+03  0.35483842475E+03  0.00000000000E+00 0.  1.
         22    1    1    2    0    0 -0.70582332488E+02 -0.23997285139E+03 -0.81495712465E+02  0.26307866925E+03  0.00000000000E+00 0. -1.
<mgrwt>
<rscale>  0 0.91456495E+03</rscale>
<asrwt>0</asrwt>
<pdfrwt beam="1">  1        2 0.16947740E+00 0.91456495E+03</pdfrwt>
<pdfrwt beam="2">  1       -2 0.29203212E-01 0.91456495E+03</pdfrwt>
<totfact> 0.23449065E+02</totfact>
</mgrwt>
</event>
<event>
 6    1  0.9906445E-006  0.1841415E+04  0.7818608E-02  0.8684580E-01
          1   -1    0    0  501    0  0.00000000000E+00  0.00000000000E+00  0.17287701746E+04  0.17287701746E+04  0.00000000000E+00 0. -1.
         -1   -1    0    0    0  501 -0.00000000000E+00 -0.00000000000E+00 -0.49034974200E+03  0.49034974200E+03  0.00000000000E+00 0.  1.
         23    2    1    2    0    0 -0.45782114260E+03 -0.78106138333E+03  0.43509809233E+03  0.10087547380E+04  0.92836891231E+02 0.  0.
         11    1    3    3    0    0 -0.37511240712E+03 -0.64410896071E+03  0.39607776648E+03  0.84407539257E+03  0.00000000000E+00 0.  1.
        -11    1    3    3    0    0 -0.82708735478E+02 -0.13695242263E+03  0.39020325851E+02  0.16467934545E+03  0.00000000000E+00 0. -1.
         22    1    1    2    0    0  0.45782114260E+03  0.78106138333E+03  0.80332234029E+03  0.12103651786E+04  0.00000000000E+00 0. -1.
<mgrwt>
<rscale>  0 0.18414147E+04</rscale>
<asrwt>0</asrwt>
<pdfrwt beam="1">  1        1 0.26596464E+00 0.18414147E+04</pdfrwt>
<pdfrwt beam="2">  1       -1 0.75438423E-01 0.18414147E+04</pdfrwt>
<totfact> 0.75644904E+00</totfact>
</mgrwt>
</event>
<event>
 6    1  0.9906445E-006  0.1010448E+04  0.7818608E-02  0.9297160E-01
          1   -1    0    0  501    0  0.00000000000E+00  0.00000000000E+00  0.77175275703E+03  0.77175275703E+03  0.00000000000E+00 0.  1.
         -1   -1    0    0    0  501 -0.00000000000E+00 -0.00000000000E+00 -0.33074199430E+03  0.33074199430E+03  0.00000000000E+00 0. -1.
         23    2    1    2    0    0 -0.20621226723E+03 -0.21458860997E+03 -0.21620637586E+03  0.38103363808E+03  0.99346191149E+02 0.  0.
         11    1    3    3    0    0 -0.16513845270E+03 -0.12561476250E+03 -0.10410433761E+03  0.23213679206E+03  0.00000000000E+00 0. -1.
        -11    1    3    3    0    0 -0.41073814533E+02 -0.88973847472E+02 -0.11210203825E+03  0.14889684602E+03  0.00000000000E+00 0.  1.
         22    1    1    2    0    0  0.20621226723E+03  0.21458860997E+03  0.65721713859E+03  0.72146111325E+03  0.00000000000E+00 0.  1.
<mgrwt>
<rscale>  0 0.10104475E+04</rscale>
<asrwt>0</asrwt>
<pdfrwt beam="1">  1        1 0.11873119E+00 0.10104475E+04</pdfrwt>
<pdfrwt beam="2">  1       -1 0.50883384E-01 0.10104475E+04</pdfrwt>
<totfact> 0.91049876E+01</totfact>
</mgrwt>
</event>
<event>
 6    1  0.9906445E-006  0.1694338E+04  0.7818608E-02  0.8764600E-01
         -3   -1    0    0    0  501 -0.00000000000E+00  0.00000000000E+00  0.14493224261E+04  0.14493224261E+04  0.00000000000E+00 0.  1.
          3   -1    0    0  501    0  0.00000000000E+00 -0.00000000000E+00 -0.49519375308E+03  0.49519375308E+03  0.00000000000E+00 0. -1.
         23    2    1    2    0    0  0.17995474282E+03 -0.51524599826E+03 -0.26136031762E+03  0.61212147995E+03  0.92311117385E+02 0.  0.
         11    1    3    3    0    0  0.53173437078E+02 -0.60760791551E+02 -0.25886994126E+02  0.84790475087E+02  0.00000000000E+00 0. -1.
        -11    1    3    3    0    0  0.12678130574E+03 -0.45448520671E+03 -0.23547332350E+03  0.52733100486E+03  0.00000000000E+00 0.  1.
         22    1    1    2    0    0 -0.17995474282E+03  0.51524599826E+03  0.12154889907E+04  0.13323946993E+04  0.00000000000E+00 0.  1.
<mgrwt>
<rscale>  0 0.16943381E+04</rscale>
<asrwt>0</asrwt>
<pdfrwt beam="1">  1        3 0.76183655E-01 0.16943381E+04</pdfrwt>
<pdfrwt beam="2">  1       -3 0.22297268E+00 0.16943381E+04</pdfrwt>
<totfact> 0.42687198E-01</totfact>
</mgrwt>
</event>
<event>
 6    1  0.9906445E-006  0.3290968E+04  0.7818608E-02  0.8165197E-01
         -1   -1    0    0    0  501 -0.00000000000E+00  0.00000000000E+00  0.15085742834E+04  0.15085742834E+04  0.00000000000E+00 0.  1.
          1   -1    0    0  501    0  0.00000000000E+00 -0.00000000000E+00 -0.17948190791E+04  0.17948190791E+04  0.00000000000E+00 0. -1.
         23    2    1    2    0    0 -0.10014653061E+04 -0.64357759775E+03  0.99529228810E+03  0.15542615262E+04  0.89427453553E+02 0.  0.
         13    1    3    3    0    0 -0.41247669967E+03 -0.29141086967E+03  0.47205049024E+03  0.69129515264E+03  0.00000000000E+00 0. -1.
        -13    1    3    3    0    0 -0.58898860648E+03 -0.35216672809E+03  0.52324179786E+03  0.86296637360E+03  0.00000000000E+00 0.  1.
         22    1    1    2    0    0  0.10014653061E+04  0.64357759775E+03 -0.12815370837E+04  0.17491318363E+04  0.00000000000E+00 0. -1.
<mgrwt>
<rscale>  0 0.32909682E+04</rscale>
<asrwt>0</asrwt>
<pdfrwt beam="1">  1        1 0.27612601E+00 0.32909682E+04</pdfrwt>
<pdfrwt beam="2">  1       -1 0.23208835E+00 0.32909682E+04</pdfrwt>
<totfact> 0.31179713E-01</totfact>
</mgrwt>
</event>
<event>
 6    1  0.9906445E-006  0.9332233E+03  0.7818608E-02  0.9384978E-01
          1   -1    0    0  501    0  0.00000000000E+00  0.00000000000E+00  0.16479801139E+04  0.16479801139E+04  0.00000000000E+00 0. -1.
         -1   -1    0    0    0  501 -0.00000000000E+00 -0.00000000000E+00 -0.13211715924E+03  0.13211715924E+03  0.00000000000E+00 0.  1.
         23    2    1    2    0    0 -0.24228973612E+03  0.37995974318E+01  0.15162001730E+04  0.15377775115E+04  0.84722824414E+02 0.  0.
         11    1    3    3    0    0 -0.13794745067E+03 -0.32369876276E+01  0.60180676763E+03  0.61742316348E+03  0.00000000000E+00 0.  1.
        -11    1    3    3    0    0 -0.10434228544E+03  0.70365850594E+01  0.91439340536E+03  0.92035434797E+03  0.00000000000E+00 0. -1.
         22    1    1    2    0    0  0.24228973612E+03 -0.37995974318E+01 -0.33721837011E+00  0.24231976165E+03  0.00000000000E+00 0.  1.
<mgrwt>
<rscale>  0 0.93322334E+03</rscale>
<asrwt>0</asrwt>
<pdfrwt beam="1">  1        1 0.25353539E+00 0.93322334E+03</pdfrwt>
<pdfrwt beam="2">  1       -1 0.20325718E-01 0.93322334E+03</pdfrwt>
<totfact> 0.10382195E+02</totfact>
</mgrwt>
</event>
<event>
 6    1  0.9906445E-006  0.1262074E+04  0.7818608E-02  0.9060194E-01
         -2   -1    0    0    0  501 -0.00000000000E+00  0.00000000000E+00  0.20590255394E+03  0.20590255394E+03  0.00000000000E+00 0.  1.
          2   -1    0    0  501    0  0.00000000000E+00 -0.00000000000E+00 -0.19339618448E+04  0.19339618448E+04  0.00000000000E+00 0. -1.
         23    2    1    2    0    0  0.15766618011E+03 -0.50046392449E+03 -0.28357847951E+03  0.60303403126E+03  0.88941130816E+02 0.  0.
         13    1    3    3    0    0  0.76740282921E+02 -0.15258185208E+03 -0.12807794821E+03  0.21348127183E+03  0.00000000000E+00 0. -1.
        -13    1    3    3    0    0  0.80925897190E+02 -0.34788207241E+03 -0.15550053130E+03  0.38955275943E+03  0.00000000000E+00 0.  1.
         22    1    1    2    0    0 -0.15766618011E+03  0.50046392449E+03 -0.14444808113E+04  0.15368303675E+04  0.00000000000E+00 0. -1.
<mgrwt>
<rscale>  0 0.12620740E+04</rscale>
<asrwt>0</asrwt>
<pdfrwt beam="1">  1        2 0.29753260E+00 0.12620740E+04</pdfrwt>
<pdfrwt beam="2">  1       -2 0.31677315E-01 0.12620740E+04</pdfrwt>
<totfact> 0.66202460E+01</totfact>
</mgrwt>
</event>
<event>
 6    1  0.9906445E-006  0.1774242E+04  0.7818608E-02  0.8720118E-01
         -1   -1    0    0    0  501 -0.00000000000E+00  0.00000000000E+00  0.40421030769E+03  0.40421030769E+03  0.00000000000E+00 0.  1.
          1   -1    0    0  501    0  0.00000000000E+00 -0.00000000000E+00 -0.19469666324E+04  0.19469666324E+04  0.00000000000E+00 0. -1.
         23    2    1    2    0    0 -0.46040856841E+03  0.34289549133E+02  0.22702290855E+03  0.52216891454E+03  0.89270102794E+02 0.  0.
         11    1    3    3    0    0 -0.42217263346E+03  0.59045891040E+01  0.19734385057E+03  0.46605706944E+03  0.00000000000E+00 0. -1.
        -11    1    3    3    0    0 -0.38235934951E+02  0.28384960029E+02  0.29679057986E+02  0.56111845099E+02  0.00000000000E+00 0.  1.
         22    1    1    2    0    0  0.46040856841E+03 -0.34289549133E+02 -0.17697792333E+04  0.18290080255E+04  0.00000000000E+00 0. -1.
<mgrwt>
<rscale>  0 0.17742424E+04</rscale>
<asrwt>0</asrwt>
<pdfrwt beam="1">  1        1 0.29953333E+00 0.17742424E+04</pdfrwt>
<pdfrwt beam="2">  1       -1 0.62186201E-01 0.17742424E+04</pdfrwt>
<totfact> 0.80309852E+00</totfact>
</mgrwt>
</event>
<event>
 6    1  0.9906445E-006  0.2701901E+04  0.7818608E-02  0.8334388E-01
          2   -1    0    0  501    0  0.00000000000E+00  0.00000000000E+00  0.14745184412E+04  0.14745184412E+04  0.00000000000E+00 0. -1.
         -2   -1    0    0    0  501 -0.00000000000E+00 -0.00000000000E+00 -0.12377376880E+04  0.12377376880E+04  0.00000000000E+00 0.  1.
         23    2    1    2    0    0  0.12936125196E+04  0.30137148189E+03 -0.11676781993E+03  0.13377545051E+04  0.10814005264E+03 0.  0.
         13    1    3    3    0    0  0.98839210678E+03  0.26373430197E+03 -0.57687636606E+02  0.10245987518E+04  0.00000000000E+00 0. -1.
        -13    1    3    3    0    0  0.30522041286E+03  0.37637179921E+02 -0.59080183329E+02  0.31315575326E+03  0.00000000000E+00 0.  1.
         22    1    1    2    0    0 -0.12936125196E+04 -0.30137148189E+03  0.35354857312E+03  0.13745016241E+04  0.00000000000E+00 0.  1.
<mgrwt>
<rscale>  0 0.27019008E+04</rscale>
<asrwt>0</asrwt>
<pdfrwt beam="1">  1        2 0.22684899E+00 0.27019008E+04</pdfrwt>
<pdfrwt beam="2">  1       -2 0.19042118E+00 0.27019008E+04</pdfrwt>
<totfact> 0.17727868E+00</totfact>
</mgrwt>
</event>
<event>
 6    1  0.9906445E-006  0.6900184E+04  0.7818608E-02  0.7587818E-01
          2   -1    0    0  501    0  0.00000000000E+00  0.00000000000E+00  0.54182425869E+04  0.54182425869E+04  0.00000000000E+00 0. -1.
         -2   -1    0    0    0  501 -0.00000000000E+00 -0.00000000000E+00 -0.21968625997E+04  0.21968625997E+04  0.00000000000E+00 0.  1.
         23    2    1    2    0    0  0.48390415707E+03  0.32811420607E+04  0.26572450871E+04  0.42508363744E+04  0.92746821670E+02 0.  0.
         11    1    3    3    0    0  0.33950652059E+03  0.21557044846E+04  0.17972908654E+04  0.28271153066E+04  0.00000000000E+00 0. -1.
        -11    1    3    3    0    0  0.14439763648E+03  0.11254375761E+04  0.85995422177E+03  0.14237210677E+04  0.00000000000E+00 0.  1.
         22    1    1    2    0    0 -0.48390415707E+03 -0.32811420607E+04  0.56413490016E+03  0.33642688123E+04  0.00000000000E+00 0. -1.
<mgrwt>
<rscale>  0 0.69001839E+04</rscale>
<asrwt>0</asrwt>
<pdfrwt beam="1">  1        2 0.83357578E+00 0.69001839E+04</pdfrwt>
<pdfrwt beam="2">  1       -2 0.33797886E+00 0.69001839E+04</pdfrwt>
<totfact> 0.93579174E-05</totfact>
</mgrwt>
</event>
<event>
 6    1  0.9906445E-006  0.7436996E+03  0.7818608E-02  0.9645287E-01
         -2   -1    0    0    0  501 -0.00000000000E+00  0.00000000000E+00  0.61095782542E+02  0.61095782542E+02  0.00000000000E+00 0. -1.
          2   -1    0    0  501    0  0.00000000000E+00 -0.00000000000E+00 -0.22632051110E+04  0.22632051110E+04  0.00000000000E+00 0.  1.
         23    2    1    2    0    0 -0.67040725843E+02 -0.15848434429E+03 -0.21279636932E+04  0.21369260779E+04  0.92799981301E+02 0.  0.
         11    1    3    3    0    0  0.21947780429E+02 -0.42096226901E+02 -0.64403841681E+03  0.64578578469E+03  0.00000000000E+00 0. -1.
        -11    1    3    3    0    0 -0.88988506272E+02 -0.11638811739E+03 -0.14839252764E+04  0.14911402932E+04  0.00000000000E+00 0.  1.
         22    1    1    2    0    0  0.67040725843E+02  0.15848434429E+03 -0.74145635244E+02  0.18737481563E+03  0.00000000000E+00 0. -1.
<mgrwt>
<rscale>  0 0.74369964E+03</rscale>
<asrwt>0</asrwt>
<pdfrwt beam="1">  1        2 0.34818532E+00 0.74369964E+03</pdfrwt>
<pdfrwt beam="2">  1       -2 0.93993533E-02 0.74369964E+03</pdfrwt>
<totfact> 0.37234256E+02</totfact>
</mgrwt>
</event>
<event>
 6    1  0.9906445E-006  0.8517909E+03  0.7818608E-02  0.9487936E-01
          2   -1    0    0  501    0  0.00000000000E+00  0.00000000000E+00  0.15998387752E+04  0.15998387752E+04  0.00000000000E+00 0. -1.
         -2   -1    0    0    0  501 -0.00000000000E+00 -0.00000000000E+00 -0.11337825232E+03  0.11337825232E+03  0.00000000000E+00 0.  1.
         23    2    1    2    0    0  0.40776598070E+03  0.18645394912E+02  0.95987227504E+03  0.10469468657E+04  0.90123301340E+02 0.  0.
         13    1    3    3    0    0  0.95816391262E+02  0.17464794636E+02  0.14765913904E+03  0.17688702956E+03  0.00000000000E+00 0.  1.
        -13    1    3    3    0    0  0.31194958944E+03  0.11806002768E+01  0.81221313600E+03  0.87005983614E+03  0.00000000000E+00 0. -1.
         22    1    1    2    0    0 -0.40776598070E+03 -0.18645394912E+02  0.52658824782E+03  0.66627016180E+03  0.00000000000E+00 0.  1.
<mgrwt>
<rscale>  0 0.85179088E+03</rscale>
<asrwt>0</asrwt>
<pdfrwt beam="1">  1        2 0.24612903E+00 0.85179088E+03</pdfrwt>
<pdfrwt beam="2">  1       -2 0.17442809E-01 0.85179088E+03</pdfrwt>
<totfact> 0.30448947E+02</totfact>
</mgrwt>
</event>
<event>
 6    1  0.9906445E-006  0.5973410E+04  0.7818608E-02  0.7693707E-01
         -2   -1    0    0    0  501 -0.00000000000E+00  0.00000000000E+00  0.22719219358E+04  0.22719219358E+04  0.00000000000E+00 0.  1.
          2   -1    0    0  501    0  0.00000000000E+00 -0.00000000000E+00 -0.39263704104E+04  0.39263704104E+04  0.00000000000E+00 0. -1.
         23    2    1    2    0    0  0.18470292667E+04  0.23369079426E+04 -0.10439906108E+04  0.31576814458E+04  0.91541648227E+02 0.  0.
         11    1    3    3    0    0  0.11342263344E+04  0.14655667029E+04 -0.69190887854E+03  0.19781539461E+04  0.00000000000E+00 0. -1.
        -11    1    3    3    0    0  0.71280293233E+03  0.87134123971E+03 -0.35208173229E+03  0.11795274997E+04  0.00000000000E+00 0.  1.
         22    1    1    2    0    0 -0.18470292667E+04 -0.23369079426E+04 -0.61045786380E+03  0.30406109004E+04  0.00000000000E+00 0.  1.
<mgrwt>
<rscale>  0 0.59734101E+04</rscale>
<asrwt>0</asrwt>
<pdfrwt beam="1">  1        2 0.60405698E+00 0.59734101E+04</pdfrwt>
<pdfrwt beam="2">  1       -2 0.34952645E+00 0.59734101E+04</pdfrwt>
<totfact> 0.41212377E-03</totfact>
</mgrwt>
</event>
<event>
 6    1  0.9906445E-006  0.2407083E+04  0.7818608E-02  0.8436857E-01
          2   -1    0    0  501    0  0.00000000000E+00  0.00000000000E+00  0.81333113048E+03  0.81333113048E+03  0.00000000000E+00 0. -1.
         -2   -1    0    0    0  501 -0.00000000000E+00 -0.00000000000E+00 -0.17809623663E+04  0.17809623663E+04  0.00000000000E+00 0.  1.
         23    2    1    2    0    0 -0.64539760125E+02  0.89426832923E+03 -0.13470681661E+04  0.16207157601E+04  0.90805867249E+02 0.  0.
         11    1    3    3    0    0 -0.66980165920E+02  0.64418408348E+03 -0.10329065845E+04  0.12191617975E+04  0.00000000000E+00 0.  1.
        -11    1    3    3    0    0  0.24404057952E+01  0.25008424575E+03 -0.31416158163E+03  0.40155396265E+03  0.00000000000E+00 0. -1.
         22    1    1    2    0    0  0.64539760125E+02 -0.89426832923E+03  0.37943693030E+03  0.97357773669E+03  0.00000000000E+00 0. -1.
<mgrwt>
<rscale>  0 0.24070830E+04</rscale>
<asrwt>0</asrwt>
<pdfrwt beam="1">  1        2 0.12512787E+00 0.24070830E+04</pdfrwt>
<pdfrwt beam="2">  1       -2 0.27399421E+00 0.24070830E+04</pdfrwt>
<totfact> 0.13874563E+00</totfact>
</mgrwt>
</event>
<event>
 6    1  0.9906445E-006  0.2770449E+04  0.7818608E-02  0.8312502E-01
         -1   -1    0    0    0  501 -0.00000000000E+00  0.00000000000E+00  0.22282124862E+04  0.22282124862E+04  0.00000000000E+00 0.  1.
          1   -1    0    0  501    0  0.00000000000E+00 -0.00000000000E+00 -0.86115958590E+03  0.86115958590E+03  0.00000000000E+00 0. -1.
         23    2    1    2    0    0  0.94110591570E+03  0.31544010534E+03  0.17596490692E+04  0.20219852835E+04  0.82926685042E+02 0.  0.
         13    1    3    3    0    0  0.33543328389E+03  0.15017333563E+03  0.68639366645E+03  0.77859089644E+03  0.00000000000E+00 0.  1.
        -13    1    3    3    0    0  0.60567263181E+03  0.16526676971E+03  0.10732554028E+04  0.12433943870E+04  0.00000000000E+00 0. -1.
         22    1    1    2    0    0 -0.94110591570E+03 -0.31544010534E+03 -0.39259616896E+03  0.10673867886E+04  0.00000000000E+00 0. -1.
<mgrwt>
<rscale>  0 0.27704487E+04</rscale>
<asrwt>0</asrwt>
<pdfrwt beam="1">  1        1 0.13248609E+00 0.27704487E+04</pdfrwt>
<pdfrwt beam="2">  1       -1 0.34280192E+00 0.27704487E+04</pdfrwt>
<totfact> 0.29492458E-01</totfact>
</mgrwt>
</event>
<event>
 6    1  0.9906445E-006  0.1076655E+04  0.7818608E-02  0.9228249E-01
         -4   -1    0    0    0  501 -0.00000000000E+00  0.00000000000E+00  0.59718246468E+03  0.59718246468E+03  0.00000000000E+00 0.  1.
          4   -1    0    0  501    0  0.00000000000E+00 -0.00000000000E+00 -0.48527291098E+03  0.48527291098E+03  0.00000000000E+00 0. -1.
         23    2    1    2    0    0 -0.46873422476E+03  0.25672277682E+03  0.65588920753E+02  0.54601902470E+03  0.90644973422E+02 0.  0.
         13    1    3    3    0    0 -0.77796334066E+02  0.42270270444E+02  0.45805400686E+02  0.99685405599E+02  0.00000000000E+00 0.  1.
        -13    1    3    3    0    0 -0.39093789069E+03  0.21445250638E+03  0.19783520067E+02  0.44633361910E+03  0.00000000000E+00 0. -1.
         22    1    1    2    0    0  0.46873422476E+03 -0.25672277682E+03  0.46320632940E+02  0.53643635096E+03  0.00000000000E+00 0. -1.
<mgrwt>
<rscale>  0 0.10766550E+04</rscale>
<asrwt>0</asrwt>
<pdfrwt beam="1">  1        4 0.74657371E-01 0.10766550E+04</pdfrwt>
<pdfrwt beam="2">  1       -4 0.91874225E-01 0.10766550E+04</pdfrwt>
<totfact> 0.32370913E+00</totfact>
</mgrwt>
</event>
<event>
 6    1  0.9906445E-006  0.2270773E+04  0.7818608E-02  0.8489535E-01
          2   -1    0    0  501    0  0.00000000000E+00  0.00000000000E+00  0.23039825093E+04  0.23039825093E+04  0.00000000000E+00 0. -1.
         -2   -1    0    0    0  501 -0.00000000000E+00 -0.00000000000E+00 -0.55951063289E+03  0.55951063289E+03  0.00000000000E+00 0.  1.
         23    2    1    2    0    0  0.49255679900E+03  0.94615459312E+03  0.39020126913E+03  0.11395820099E+04  0.92571121263E+02 0.  0.
         13    1    3    3    0    0  0.39214275759E+03  0.74770157008E+03  0.26798888909E+03  0.88580563608E+03  0.00000000000E+00 0.  1.
        -13    1    3    3    0    0  0.10041404142E+03  0.19845302303E+03  0.12221238004E+03  0.25377637380E+03  0.00000000000E+00 0. -1.
         22    1    1    2    0    0 -0.49255679900E+03 -0.94615459312E+03  0.13542706072E+04  0.17239111323E+04  0.00000000000E+00 0. -1.
<mgrwt>
<rscale>  0 0.22707732E+04</rscale>
<asrwt>0</asrwt>
<pdfrwt beam="1">  1        2 0.35445884E+00 0.22707732E+04</pdfrwt>
<pdfrwt beam="2">  1       -2 0.86078560E-01 0.22707732E+04</pdfrwt>
<totfact> 0.47977979E+00</totfact>
</mgrwt>
</event>
<event>
 6    1  0.9906445E-006  0.2627445E+04  0.7818608E-02  0.8358938E-01
          2   -1    0    0  501    0  0.00000000000E+00  0.00000000000E+00  0.22784437223E+04  0.22784437223E+04  0.00000000000E+00 0. -1.
         -2   -1    0    0    0  501 -0.00000000000E+00 -0.00000000000E+00 -0.75747603338E+03  0.75747603338E+03  0.00000000000E+00 0.  1.
         23    2    1    2    0    0  0.11311026543E+04  0.65950370463E+03  0.66167487545E+03  0.14698027453E+04  0.90377642937E+02 0.  0.
         11    1    3    3    0    0  0.37480066519E+03  0.24591457660E+03  0.18666286422E+03  0.48558474285E+03  0.00000000000E+00 0. -1.
        -11    1    3    3    0    0  0.75630198910E+03  0.41358912802E+03  0.47501201123E+03  0.98421800245E+03  0.00000000000E+00 0.  1.
         22    1    1    2    0    0 -0.11311026543E+04 -0.65950370463E+03  0.85929281350E+03  0.15661170104E+04  0.00000000000E+00 0. -1.
<mgrwt>
<rscale>  0 0.26274448E+04</rscale>
<asrwt>0</asrwt>
<pdfrwt beam="1">  1        2 0.35052980E+00 0.26274448E+04</pdfrwt>
<pdfrwt beam="2">  1       -2 0.11653478E+00 0.26274448E+04</pdfrwt>
<totfact> 0.23488741E+00</totfact>
</mgrwt>
</event>
<event>
 6    1  0.9906445E-006  0.2446513E+04  0.7818608E-02  0.8422292E-01
         -1   -1    0    0    0  501 -0.00000000000E+00  0.00000000000E+00  0.15244670373E+04  0.15244670373E+04  0.00000000000E+00 0.  1.
          1   -1    0    0  501    0  0.00000000000E+00 -0.00000000000E+00 -0.98156035512E+03  0.98156035512E+03  0.00000000000E+00 0. -1.
         23    2    1    2    0    0 -0.17786554944E+03  0.88936211089E+03 -0.56654614600E+03  0.10730281964E+04  0.88396021689E+02 0.  0.
         13    1    3    3    0    0 -0.14596522123E+03  0.53208324304E+03 -0.32085724832E+03  0.63825370906E+03  0.00000000000E+00 0. -1.
        -13    1    3    3    0    0 -0.31900328206E+02  0.35727886785E+03 -0.24568889769E+03  0.43477448729E+03  0.00000000000E+00 0.  1.
         22    1    1    2    0    0  0.17786554944E+03 -0.88936211089E+03  0.11094528282E+04  0.14329991961E+04  0.00000000000E+00 0.  1.
<mgrwt>
<rscale>  0 0.24465130E+04</rscale>
<asrwt>0</asrwt>
<pdfrwt beam="1">  1        1 0.15100929E+00 0.24465130E+04</pdfrwt>
<pdfrwt beam="2">  1       -1 0.23453339E+00 0.24465130E+04</pdfrwt>
<totfact> 0.12299084E+00</totfact>
</mgrwt>
</event>
<event>
 6    1  0.9906445E-006  0.1085474E+04  0.7818608E-02  0.9219467E-01
         -1   -1    0    0    0  501 -0.00000000000E+00  0.00000000000E+00  0.43771564402E+03  0.43771564402E+03  0.00000000000E+00 0.  1.
          1   -1    0    0  501    0  0.00000000000E+00 -0.00000000000E+00 -0.67295574644E+03  0.67295574644E+03  0.00000000000E+00 0. -1.
         23    2    1    2    0    0 -0.96840356168E+01  0.97538296920E+02 -0.66089544033E+03  0.67387628220E+03  0.87857616313E+02 0.  0.
         11    1    3    3    0    0 -0.35916653165E+02  0.72150179180E+02 -0.28392881962E+03  0.29514611456E+03  0.00000000000E+00 0.  1.
        -11    1    3    3    0    0  0.26232617548E+02  0.25388117741E+02 -0.37696662072E+03  0.37873016764E+03  0.00000000000E+00 0. -1.
         22    1    1    2    0    0  0.96840356168E+01 -0.97538296920E+02  0.42565533791E+03  0.43679510826E+03  0.00000000000E+00 0.  1.
<mgrwt>
<rscale>  0 0.10854736E+04</rscale>
<asrwt>0</asrwt>
<pdfrwt beam="1">  1        1 0.10353165E+00 0.10854736E+04</pdfrwt>
<pdfrwt beam="2">  1       -1 0.67340868E-01 0.10854736E+04</pdfrwt>
<totfact> 0.64441827E+01</totfact>
</mgrwt>
</event>
<event>
 6    1  0.9906445E-006  0.3500155E+04  0.7818608E-02  0.8113753E-01
         -1   -1    0    0    0  501 -0.00000000000E+00  0.00000000000E+00  0.22976136235E+04  0.22976136235E+04  0.00000000000E+00 0.  1.
          1   -1    0    0  501    0  0.00000000000E+00 -0.00000000000E+00 -0.13330229392E+04  0.13330229392E+04  0.00000000000E+00 0. -1.
         23    2    1    2    0    0  0.15006650435E+04 -0.65612346834E+03  0.11189563580E+04  0.19855461883E+04  0.88525454910E+02 0.  0.
         13    1    3    3    0    0  0.28634259382E+03 -0.15703040650E+03  0.19903837257E+03  0.38244856302E+03  0.00000000000E+00 0. -1.
        -13    1    3    3    0    0  0.12143224497E+04 -0.49909306184E+03  0.91991798539E+03  0.16030976253E+04  0.00000000000E+00 0.  1.
         22    1    1    2    0    0 -0.15006650435E+04  0.65612346834E+03 -0.15436567365E+03  0.16450903744E+04  0.00000000000E+00 0. -1.
<mgrwt>
<rscale>  0 0.35001552E+04</rscale>
<asrwt>0</asrwt>
<pdfrwt beam="1">  1        1 0.20508045E+00 0.35001552E+04</pdfrwt>
<pdfrwt beam="2">  1       -1 0.35347902E+00 0.35001552E+04</pdfrwt>
<totfact> 0.10293441E-01</totfact>
</mgrwt>
</event>
<event>
 6    1  0.9906445E-006  0.2153258E+04  0.7818608E-02  0.8538139E-01
          2   -1    0    0  501    0  0.00000000000E+00  0.00000000000E+00  0.14233828337E+04  0.14233828337E+04  0.00000000000E+00 0. -1.
         -2   -1    0    0    0  501 -0.00000000000E+00 -0.00000000000E+00 -0.81434910325E+03  0.81434910325E+03  0.00000000000E+00 0.  1.
         23    2    1    2    0    0 -0.69737600192E+03  0.64848514122E+03 -0.21238024067E+03  0.98012024077E+03  0.93080896610E+02 0.  0.
         11    1    3    3    0    0 -0.49864448341E+03  0.45758037669E+03 -0.19354375932E+03  0.70390717338E+03  0.00000000000E+00 0.  1.
        -11    1    3    3    0    0 -0.19873151850E+03  0.19090476453E+03 -0.18836481354E+02  0.27621306739E+03  0.00000000000E+00 0. -1.
         22    1    1    2    0    0  0.69737600192E+03 -0.64848514122E+03  0.82141397117E+03  0.12576116962E+04  0.00000000000E+00 0. -1.
<mgrwt>
<rscale>  0 0.21532585E+04</rscale>
<asrwt>0</asrwt>
<pdfrwt beam="1">  1        2 0.21898197E+00 0.21532585E+04</pdfrwt>
<pdfrwt beam="2">  1       -2 0.12528448E+00 0.21532585E+04</pdfrwt>
<totfact> 0.61391880E+00</totfact>
</mgrwt>
</event>
<event>
 6    1  0.9906445E-006  0.2385475E+04  0.7818608E-02  0.8444962E-01
         -1   -1    0    0    0  501 -0.00000000000E+00  0.00000000000E+00  0.92176556806E+03  0.92176556806E+03  0.00000000000E+00 0.  1.
          1   -1    0    0  501    0  0.00000000000E+00 -0.00000000000E+00 -0.15433674148E+04  0.15433674148E+04  0.00000000000E+00 0. -1.
         23    2    1    2    0    0  0.11799747981E+04  0.35336078867E+02 -0.47468765150E+03  0.12755225662E+04  0.89667651360E+02 0.  0.
         11    1    3    3    0    0  0.51090292489E+03  0.30449785041E+02 -0.25090219529E+03  0.57000078918E+03  0.00000000000E+00 0. -1.
        -11    1    3    3    0    0  0.66907187324E+03  0.48862938252E+01 -0.22378545622E+03  0.70552177702E+03  0.00000000000E+00 0.  1.
         22    1    1    2    0    0 -0.11799747981E+04 -0.35336078867E+02 -0.14691419526E+03  0.11896104167E+04  0.00000000000E+00 0.  1.
<mgrwt>
<rscale>  0 0.23854752E+04</rscale>
<asrwt>0</asrwt>
<pdfrwt beam="1">  1        1 0.23744114E+00 0.23854752E+04</pdfrwt>
<pdfrwt beam="2">  1       -1 0.14181009E+00 0.23854752E+04</pdfrwt>
<totfact> 0.22197733E+00</totfact>
</mgrwt>
</event>
<event>
 6    1  0.9906445E-006  0.2207137E+04  0.7818608E-02  0.8515464E-01
          2   -1    0    0  501    0  0.00000000000E+00  0.00000000000E+00  0.12830555418E+04  0.12830555418E+04  0.00000000000E+00 0. -1.
         -2   -1    0    0    0  501 -0.00000000000E+00 -0.00000000000E+00 -0.94918968747E+03  0.94918968747E+03  0.00000000000E+00 0.  1.
         23    2    1    2    0    0 -0.56189978839E+03  0.80500779915E+03 -0.33831589449E+03  0.10424564950E+04  0.92135609382E+02 0.  0.
         13    1    3    3    0    0 -0.50747811654E+03  0.73625172536E+03 -0.33438758925E+03  0.95468094236E+03  0.00000000000E+00 0.  1.
        -13    1    3    3    0    0 -0.54421671853E+02  0.68756073790E+02 -0.39283052310E+01  0.87775552589E+02  0.00000000000E+00 0. -1.
         22    1    1    2    0    0  0.56189978839E+03 -0.80500779915E+03  0.67218174885E+03  0.11897887343E+04  0.00000000000E+00 0. -1.
<mgrwt>
<rscale>  0 0.22071367E+04</rscale>
<asrwt>0</asrwt>
<pdfrwt beam="1">  1        2 0.19739316E+00 0.22071367E+04</pdfrwt>
<pdfrwt beam="2">  1       -2 0.14602918E+00 0.22071367E+04</pdfrwt>
<totfact> 0.49700494E+00</totfact>
</mgrwt>
</event>
<event>
 6    1  0.9906445E-006  0.1005321E+04  0.7818608E-02  0.9302728E-01
          1   -1    0    0  501    0  0.00000000000E+00  0.00000000000E+00  0.10289189185E+04  0.10289189185E+04  0.00000000000E+00 0. -1.
         -1   -1    0    0    0  501 -0.00000000000E+00 -0.00000000000E+00 -0.24556617020E+03  0.24556617020E+03  0.00000000000E+00 0.  1.
         23    2    1    2    0    0  0.30143143167E+03  0.35270357504E+02 -0.10637431486E+03  0.33442171157E+03  0.91746826596E+02 0.  0.
         11    1    3    3    0    0  0.35459738363E+02 -0.52039409643E+01 -0.46668770810E+02  0.58842571454E+02  0.00000000000E+00 0.  1.
        -11    1    3    3    0    0  0.26597169331E+03  0.40474298468E+02 -0.59705544049E+02  0.27557914011E+03  0.00000000000E+00 0. -1.
         22    1    1    2    0    0 -0.30143143167E+03 -0.35270357504E+02  0.88972706311E+03  0.94006337709E+03  0.00000000000E+00 0. -1.
<mgrwt>
<rscale>  0 0.10053212E+04</rscale>
<asrwt>0</asrwt>
<pdfrwt beam="1">  1        1 0.15829522E+00 0.10053212E+04</pdfrwt>
<pdfrwt beam="2">  1       -1 0.37779411E-01 0.10053212E+04</pdfrwt>
<totfact> 0.97239633E+01</totfact>
</mgrwt>
</event>
<event>
 6    1  0.9906445E-006  0.3329850E+04  0.7818608E-02  0.8155341E-01
          2   -1    0    0  501    0  0.00000000000E+00  0.00000000000E+00  0.39263168164E+04  0.39263168164E+04  0.00000000000E+00 0. -1.
         -2   -1    0    0    0  501 -0.00000000000E+00 -0.00000000000E+00 -0.70599888956E+03  0.70599888956E+03  0.00000000000E+00 0.  1.
         23    2    1    2    0    0  0.35646897690E+03 -0.16121782244E+04  0.13278182858E+04  0.21207935281E+04  0.92059925536E+02 0.  0.
         13    1    3    3    0    0  0.21192186178E+03 -0.96144037285E+03  0.73342317855E+03  0.12276758631E+04  0.00000000000E+00 0.  1.
        -13    1    3    3    0    0  0.14454711512E+03 -0.65073785154E+03  0.59439510730E+03  0.89311766498E+03  0.00000000000E+00 0. -1.
         22    1    1    2    0    0 -0.35646897690E+03  0.16121782244E+04  0.18924996409E+04  0.25115221778E+04  0.00000000000E+00 0.  1.
<mgrwt>
<rscale>  0 0.33298500E+04</rscale>
<asrwt>0</asrwt>
<pdfrwt beam="1">  1        2 0.60404873E+00 0.33298500E+04</pdfrwt>
<pdfrwt beam="2">  1       -2 0.10861522E+00 0.33298500E+04</pdfrwt>
<totfact> 0.22075889E-01</totfact>
</mgrwt>
</event>
<event>
 6    1  0.9906445E-006  0.2666498E+04  0.7818608E-02  0.8345958E-01
         -2   -1    0    0    0  501 -0.00000000000E+00  0.00000000000E+00  0.40990226067E+03  0.40990226067E+03  0.00000000000E+00 0. -1.
          2   -1    0    0  501    0  0.00000000000E+00 -0.00000000000E+00 -0.43365273375E+04  0.43365273375E+04  0.00000000000E+00 0.  1.
         23    2    1    2    0    0  0.63022534766E+03  0.45138781936E+03 -0.41061583601E+02  0.78429146173E+03  0.11176802315E+03 0.  0.
         11    1    3    3    0    0  0.34987180071E+03  0.31104034782E+03 -0.37696159375E+00  0.46814155659E+03  0.00000000000E+00 0.  1.
        -11    1    3    3    0    0  0.28035354695E+03  0.14034747153E+03 -0.40684622008E+02  0.31614990514E+03  0.00000000000E+00 0. -1.
         22    1    1    2    0    0 -0.63022534766E+03 -0.45138781936E+03 -0.38855634933E+04  0.39621381365E+04  0.00000000000E+00 0.  1.
<mgrwt>
<rscale>  0 0.26664976E+04</rscale>
<asrwt>0</asrwt>
<pdfrwt beam="1">  1        2 0.66715805E+00 0.26664976E+04</pdfrwt>
<pdfrwt beam="2">  1       -2 0.63061887E-01 0.26664976E+04</pdfrwt>
<totfact> 0.36113400E-01</totfact>
</mgrwt>
</event>
<event>
 6    1  0.9906445E-006  0.1820082E+04  0.7818608E-02  0.8695692E-01
          2   -1    0    0  501    0  0.00000000000E+00  0.00000000000E+00  0.39072275707E+03  0.39072275707E+03  0.00000000000E+00 0.  1.
         -2   -1    0    0    0  501 -0.00000000000E+00 -0.00000000000E+00 -0.21195967486E+04  0.21195967486E+04  0.00000000000E+00 0. -1.
         23    2    1    2    0    0 -0.60323329274E+03  0.67408199985E+03 -0.96862475515E+03  0.13286868007E+04  0.94327885947E+02 0.  0.
         11    1    3    3    0    0 -0.41602380822E+03  0.41649186952E+03 -0.58198131710E+03  0.82779438258E+03  0.00000000000E+00 0. -1.
        -11    1    3    3    0    0 -0.18720948452E+03  0.25759013034E+03 -0.38664343805E+03  0.50089241812E+03  0.00000000000E+00 0.  1.
         22    1    1    2    0    0  0.60323329274E+03 -0.67408199985E+03 -0.76024923636E+03  0.11816327049E+04  0.00000000000E+00 0.  1.
<mgrwt>
<rscale>  0 0.18200821E+04</rscale>
<asrwt>0</asrwt>
<pdfrwt beam="1">  1        2 0.60111191E-01 0.18200821E+04</pdfrwt>
<pdfrwt beam="2">  1       -2 0.32609182E+00 0.18200821E+04</pdfrwt>
<totfact> 0.16940215E+00</totfact>
</mgrwt>
</event>
<event>
 6    1  0.1208362E-005  0.3789838E+04  0.7818608E-02  0.8048339E-01
          1   -1    0    0  501    0  0.00000000000E+00  0.00000000000E+00  0.18287753935E+04  0.18287753935E+04  0.00000000000E+00 0. -1.
         -1   -1    0    0    0  501 -0.00000000000E+00 -0.00000000000E+00 -0.19634554007E+04  0.19634554007E+04  0.00000000000E+00 0.  1.
         23    2    1    2    0    0 -0.14049844356E+04 -0.11191659249E+04  0.53309603971E+03  0.18758700556E+04  0.90462402922E+02 0.  0.
         11    1    3    3    0    0 -0.40218651687E+03 -0.37344850727E+03  0.16609423116E+03  0.57341527322E+03  0.00000000000E+00 0.  1.
        -11    1    3    3    0    0 -0.10027979187E+04 -0.74571741761E+03  0.36700180855E+03  0.13024547824E+04  0.00000000000E+00 0. -1.
         22    1    1    2    0    0  0.14049844356E+04  0.11191659249E+04 -0.66777604683E+03  0.19163607386E+04  0.00000000000E+00 0.  1.
<mgrwt>
<rscale>  0 0.37898385E+04</rscale>
<asrwt>0</asrwt>
<pdfrwt beam="1">  1        1 0.28135006E+00 0.37898385E+04</pdfrwt>
<pdfrwt beam="2">  1       -1 0.30207006E+00 0.37898385E+04</pdfrwt>
<totfact> 0.99299361E-02</totfact>
</mgrwt>
</event>
<event>
 6    1  0.9906445E-006  0.3560746E+04  0.7818608E-02  0.8099543E-01
          2   -1    0    0  501    0  0.00000000000E+00  0.00000000000E+00  0.19143249668E+04  0.19143249668E+04  0.00000000000E+00 0.  1.
         -2   -1    0    0    0  501 -0.00000000000E+00 -0.00000000000E+00 -0.16557945166E+04  0.16557945166E+04  0.00000000000E+00 0. -1.
         23    2    1    2    0    0 -0.29854635545E+03 -0.15763220627E+04  0.90053083048E+03  0.18420900681E+04  0.91754403579E+02 0.  0.
         13    1    3    3    0    0 -0.14147656518E+03 -0.88800826802E+03  0.46166882404E+03  0.10107979054E+04  0.00000000000E+00 0.  1.
        -13    1    3    3    0    0 -0.15706979027E+03 -0.68831379469E+03  0.43886200644E+03  0.83129216264E+03  0.00000000000E+00 0. -1.
         22    1    1    2    0    0  0.29854635545E+03  0.15763220627E+04 -0.64200038028E+03  0.17280294153E+04  0.00000000000E+00 0. -1.
<mgrwt>
<rscale>  0 0.35607464E+04</rscale>
<asrwt>0</asrwt>
<pdfrwt beam="1">  1        2 0.29451153E+00 0.35607464E+04</pdfrwt>
<pdfrwt beam="2">  1       -2 0.25473762E+00 0.35607464E+04</pdfrwt>
<totfact> 0.36636045E-01</totfact>
</mgrwt>
</event>
<event>
 6    1  0.9906445E-006  0.1975143E+04  0.7818608E-02  0.8618331E-01
          1   -1    0    0  501    0  0.00000000000E+00  0.00000000000E+00  0.15576091998E+04  0.15576091998E+04  0.00000000000E+00 0. -1.
         -1   -1    0    0    0  501 -0.00000000000E+00 -0.00000000000E+00 -0.62615016202E+03  0.62615016202E+03  0.00000000000E+00 0.  1.
         23    2    1    2    0    0  0.57345449883E+03 -0.78421354069E+03  0.28406760485E+03  0.10163020363E+04  0.91293401332E+02 0.  0.
         11    1    3    3    0    0  0.52240551543E+03 -0.67399543193E+03  0.26745248342E+03  0.89370475869E+03  0.00000000000E+00 0. -1.
        -11    1    3    3    0    0  0.51048983402E+02 -0.11021810877E+03  0.16615121429E+02  0.12259727756E+03  0.00000000000E+00 0.  1.
         22    1    1    2    0    0 -0.57345449883E+03  0.78421354069E+03  0.64739143297E+03  0.11674573256E+04  0.00000000000E+00 0. -1.
<mgrwt>
<rscale>  0 0.19751428E+04</rscale>
<asrwt>0</asrwt>
<pdfrwt beam="1">  1        1 0.23963218E+00 0.19751428E+04</pdfrwt>
<pdfrwt beam="2">  1       -1 0.96330795E-01 0.19751428E+04</pdfrwt>
<totfact> 0.57568940E+00</totfact>
</mgrwt>
</event>
<event>
 6    1  0.9906445E-006  0.1002140E+04  0.7818608E-02  0.9306201E-01
          1   -1    0    0  501    0  0.00000000000E+00  0.00000000000E+00  0.13646514514E+04  0.13646514514E+04  0.00000000000E+00 0. -1.
         -1   -1    0    0    0  501 -0.00000000000E+00 -0.00000000000E+00 -0.18398176483E+03  0.18398176483E+03  0.00000000000E+00 0.  1.
         23    2    1    2    0    0 -0.92191858862E+02 -0.10356549310E+03  0.13326768059E+04  0.13428874642E+04  0.89967340639E+02 0.  0.
         11    1    3    3    0    0 -0.32874598134E+01  0.27636891828E+01  0.39493601758E+03  0.39495936924E+03  0.00000000000E+00 0. -1.
        -11    1    3    3    0    0 -0.88904399049E+02 -0.10632918228E+03  0.93774078828E+03  0.94792809494E+03  0.00000000000E+00 0.  1.
         22    1    1    2    0    0  0.92191858862E+02  0.10356549310E+03 -0.15200711925E+03  0.20574575209E+03  0.00000000000E+00 0.  1.
<mgrwt>
<rscale>  0 0.10021397E+04</rscale>
<asrwt>0</asrwt>
<pdfrwt beam="1">  1        1 0.20994637E+00 0.10021397E+04</pdfrwt>
<pdfrwt beam="2">  1       -1 0.28304888E-01 0.10021397E+04</pdfrwt>
<totfact> 0.92097215E+01</totfact>
</mgrwt>
</event>
<event>
 6    1  0.9906445E-006  0.1192635E+04  0.7818608E-02  0.9119328E-01
         -2   -1    0    0    0  501 -0.00000000000E+00  0.00000000000E+00  0.85498080265E+03  0.85498080265E+03  0.00000000000E+00 0.  1.
          2   -1    0    0  501    0  0.00000000000E+00 -0.00000000000E+00 -0.41590923080E+03  0.41590923080E+03  0.00000000000E+00 0. -1.
         23    2    1    2    0    0  0.51145591718E+02 -0.31290605541E+03  0.75471771894E+03  0.82349919623E+03  0.89588056318E+02 0.  0.
         13    1    3    3    0    0  0.64551101994E+02 -0.14739280500E+03  0.42221928584E+03  0.45184135387E+03  0.00000000000E+00 0.  1.
        -13    1    3    3    0    0 -0.13405510277E+02 -0.16551325041E+03  0.33249843310E+03  0.37165784235E+03  0.00000000000E+00 0. -1.
         22    1    1    2    0    0 -0.51145591718E+02  0.31290605541E+03 -0.31564614709E+03  0.44739083723E+03  0.00000000000E+00 0. -1.
<mgrwt>
<rscale>  0 0.11926347E+04</rscale>
<asrwt>0</asrwt>
<pdfrwt beam="1">  1        2 0.63986036E-01 0.11926347E+04</pdfrwt>
<pdfrwt beam="2">  1       -2 0.13153551E+00 0.11926347E+04</pdfrwt>
<totfact> 0.31641341E+01</totfact>
</mgrwt>
</event>
<event>
 6    1  0.9906445E-006  0.5207302E+04  0.7818608E-02  0.7797301E-01
          2   -1    0    0  501    0  0.00000000000E+00  0.00000000000E+00  0.41008599886E+04  0.41008599886E+04  0.00000000000E+00 0. -1.
         -2   -1    0    0    0  501 -0.00000000000E+00 -0.00000000000E+00 -0.16530674850E+04  0.16530674850E+04  0.00000000000E+00 0.  1.
         23    2    1    2    0    0 -0.18190244691E+04  0.84491308958E+03 -0.60883996114E+03  0.20980103284E+04  0.90736385334E+02 0.  0.
         11    1    3    3    0    0 -0.10742501886E+04  0.51301135998E+03 -0.31660410872E+03  0.12318410144E+04  0.00000000000E+00 0. -1.
        -11    1    3    3    0    0 -0.74477428047E+03  0.33190172961E+03 -0.29223585242E+03  0.86616931394E+03  0.00000000000E+00 0.  1.
         22    1    1    2    0    0  0.18190244691E+04 -0.84491308958E+03  0.30566324647E+04  0.36559171452E+04  0.00000000000E+00 0. -1.
<mgrwt>
<rscale>  0 0.52073019E+04</rscale>
<asrwt>0</asrwt>
<pdfrwt beam="1">  1        2 0.63090153E+00 0.52073019E+04</pdfrwt>
<pdfrwt beam="2">  1       -2 0.25431808E+00 0.52073019E+04</pdfrwt>
<totfact> 0.12162689E-02</totfact>
</mgrwt>
</event>
<event>
 6    1  0.9906445E-006  0.1665788E+04  0.7818608E-02  0.8781121E-01
          1   -1    0    0  501    0  0.00000000000E+00  0.00000000000E+00  0.10130872555E+04  0.10130872555E+04  0.00000000000E+00 0. -1.
         -1   -1    0    0    0  501 -0.00000000000E+00 -0.00000000000E+00 -0.68475102739E+03  0.68475102739E+03  0.00000000000E+00 0.  1.
         23    2    1    2    0    0  0.58899153130E+02  0.15816205559E+03 -0.66406762183E+03  0.69118553867E+03  0.90924674516E+02 0.  0.
         11    1    3    3    0    0  0.64821058925E+02  0.11076001381E+03 -0.58413290914E+03  0.59806421551E+03  0.00000000000E+00 0. -1.
        -11    1    3    3    0    0 -0.59219057943E+01  0.47402041784E+02 -0.79934712693E+02  0.93121323159E+02  0.00000000000E+00 0.  1.
         22    1    1    2    0    0 -0.58899153130E+02 -0.15816205559E+03  0.99240384989E+03  0.10066527442E+04  0.00000000000E+00 0. -1.
<mgrwt>
<rscale>  0 0.16657881E+04</rscale>
<asrwt>0</asrwt>
<pdfrwt beam="1">  1        1 0.15585958E+00 0.16657881E+04</pdfrwt>
<pdfrwt beam="2">  1       -1 0.10534631E+00 0.16657881E+04</pdfrwt>
<totfact> 0.11918400E+01</totfact>
</mgrwt>
</event>
<event>
 6    1  0.9906445E-006  0.2544697E+04  0.7818608E-02  0.8387233E-01
         -1   -1    0    0    0  501 -0.00000000000E+00  0.00000000000E+00  0.82869343118E+03  0.82869343118E+03  0.00000000000E+00 0.  1.
          1   -1    0    0  501    0  0.00000000000E+00 -0.00000000000E+00 -0.19535219549E+04  0.19535219549E+04  0.00000000000E+00 0. -1.
         23    2    1    2    0    0 -0.44981549838E+03 -0.38678972355E+03 -0.17917704891E+04  0.18896058084E+04  0.90710267429E+02 0.  0.
         13    1    3    3    0    0 -0.39836334386E+03 -0.33248425396E+03 -0.14587542830E+04  0.15482904092E+04  0.00000000000E+00 0. -1.
        -13    1    3    3    0    0 -0.51452154523E+02 -0.54305469589E+02 -0.33301620609E+03  0.34131539923E+03  0.00000000000E+00 0.  1.
         22    1    1    2    0    0  0.44981549838E+03  0.38678972355E+03  0.66694196544E+03  0.89260957764E+03  0.00000000000E+00 0.  1.
<mgrwt>
<rscale>  0 0.25446971E+04</rscale>
<asrwt>0</asrwt>
<pdfrwt beam="1">  1        1 0.30054184E+00 0.25446971E+04</pdfrwt>
<pdfrwt beam="2">  1       -1 0.12749130E+00 0.25446971E+04</pdfrwt>
<totfact> 0.15103941E+00</totfact>
</mgrwt>
</event>
<event>
 6    1  0.9906445E-006  0.1647640E+04  0.7818608E-02  0.8791804E-01
          2   -1    0    0  501    0  0.00000000000E+00  0.00000000000E+00  0.30004966173E+03  0.30004966173E+03  0.00000000000E+00 0. -1.
         -2   -1    0    0    0  501 -0.00000000000E+00 -0.00000000000E+00 -0.22618891049E+04  0.22618891049E+04  0.00000000000E+00 0.  1.
         23    2    1    2    0    0  0.61034190433E+03  0.50984115445E+03 -0.13017769306E+04  0.15284312613E+04  0.94993161010E+02 0.  0.
         11    1    3    3    0    0  0.20610094163E+03  0.18403167078E+03 -0.53943834402E+03  0.60608496186E+03  0.00000000000E+00 0. -1.
        -11    1    3    3    0    0  0.40424096271E+03  0.32580948367E+03 -0.76233858658E+03  0.92234629948E+03  0.00000000000E+00 0.  1.
         22    1    1    2    0    0 -0.61034190433E+03 -0.50984115445E+03 -0.66006251254E+03  0.10335075053E+04  0.00000000000E+00 0.  1.
<mgrwt>
<rscale>  0 0.16476396E+04</rscale>
<asrwt>0</asrwt>
<pdfrwt beam="1">  1        2 0.46161488E-01 0.16476396E+04</pdfrwt>
<pdfrwt beam="2">  1       -2 0.34798293E+00 0.16476396E+04</pdfrwt>
<totfact> 0.16887975E+00</totfact>
</mgrwt>
</event>
<event>
 6    1  0.9906445E-006  0.1089176E+04  0.7818608E-02  0.9215807E-01
          1   -1    0    0  501    0  0.00000000000E+00  0.00000000000E+00  0.14977850550E+03  0.14977850550E+03  0.00000000000E+00 0. -1.
         -1   -1    0    0    0  501 -0.00000000000E+00 -0.00000000000E+00 -0.19800961079E+04  0.19800961079E+04  0.00000000000E+00 0.  1.
         23    2    1    2    0    0 -0.38821874827E+03  0.37647110023E+03 -0.93012532024E+03  0.10797363222E+04  0.90846729708E+02 0.  0.
         13    1    3    3    0    0 -0.51668127721E+02  0.83380416533E+02 -0.12172000019E+03  0.15632545451E+03  0.00000000000E+00 0. -1.
        -13    1    3    3    0    0 -0.33655062055E+03  0.29309068370E+03 -0.80840532005E+03  0.92341086769E+03  0.00000000000E+00 0.  1.
         22    1    1    2    0    0  0.38821874827E+03 -0.37647110023E+03 -0.90019228220E+03  0.10501382912E+04  0.00000000000E+00 0.  1.
<mgrwt>
<rscale>  0 0.10891755E+04</rscale>
<asrwt>0</asrwt>
<pdfrwt beam="1">  1        1 0.23042846E-01 0.10891755E+04</pdfrwt>
<pdfrwt beam="2">  1       -1 0.30463019E+00 0.10891755E+04</pdfrwt>
<totfact> 0.67502658E+00</totfact>
</mgrwt>
</event>
<event>
 6    1  0.9906445E-006  0.1577344E+04  0.7818608E-02  0.8834589E-01
         -1   -1    0    0    0  501 -0.00000000000E+00  0.00000000000E+00  0.13515032543E+04  0.13515032543E+04  0.00000000000E+00 0.  1.
          1   -1    0    0  501    0  0.00000000000E+00 -0.00000000000E+00 -0.46023088567E+03  0.46023088567E+03  0.00000000000E+00 0. -1.
         23    2    1    2    0    0 -0.50230795115E+03  0.57485088555E+03  0.23212946582E+03  0.80315286673E+03  0.91671260626E+02 0.  0.
         11    1    3    3    0    0 -0.14618886226E+03  0.22333116928E+03  0.56485774773E+02  0.27283445049E+03  0.00000000000E+00 0. -1.
        -11    1    3    3    0    0 -0.35611908889E+03  0.35151971626E+03  0.17564369104E+03  0.53031841623E+03  0.00000000000E+00 0.  1.
         22    1    1    2    0    0  0.50230795115E+03 -0.57485088555E+03  0.65914290279E+03  0.10085812732E+04  0.00000000000E+00 0. -1.
<mgrwt>
<rscale>  0 0.15773440E+04</rscale>
<asrwt>0</asrwt>
<pdfrwt beam="1">  1        1 0.70804752E-01 0.15773440E+04</pdfrwt>
<pdfrwt beam="2">  1       -1 0.20792358E+00 0.15773440E+04</pdfrwt>
<totfact> 0.63393802E+00</totfact>
</mgrwt>
</event>
<event>
 6    1  0.9906445E-006  0.2040777E+04  0.7818608E-02  0.8587790E-01
          2   -1    0    0  501    0  0.00000000000E+00  0.00000000000E+00  0.19840130575E+04  0.19840130575E+04  0.00000000000E+00 0.  1.
         -2   -1    0    0    0  501 -0.00000000000E+00 -0.00000000000E+00 -0.52479134064E+03  0.52479134064E+03  0.00000000000E+00 0. -1.
         23    2    1    2    0    0 -0.37049244384E+02 -0.10172074617E+04  0.69282082442E+03  0.12346560573E+04  0.91056127540E+02 0.  0.
         13    1    3    3    0    0  0.30554792499E+02 -0.29285871386E+03  0.19862885029E+03  0.35518057632E+03  0.00000000000E+00 0.  1.
        -13    1    3    3    0    0 -0.67604036884E+02 -0.72434874784E+03  0.49419197412E+03  0.87947548095E+03  0.00000000000E+00 0. -1.
         22    1    1    2    0    0  0.37049244384E+02  0.10172074617E+04  0.76640089248E+03  0.12741483409E+04  0.00000000000E+00 0.  1.
<mgrwt>
<rscale>  0 0.20407772E+04</rscale>
<asrwt>0</asrwt>
<pdfrwt beam="1">  1        2 0.30523278E+00 0.20407772E+04</pdfrwt>
<pdfrwt beam="2">  1       -2 0.80737130E-01 0.20407772E+04</pdfrwt>
<totfact> 0.85496672E+00</totfact>
</mgrwt>
</event>
<event>
 6    1  0.9906445E-006  0.1494633E+04  0.7818608E-02  0.8888030E-01
          2   -1    0    0  501    0  0.00000000000E+00  0.00000000000E+00  0.45819890167E+03  0.45819890167E+03  0.00000000000E+00 0. -1.
         -2   -1    0    0    0  501 -0.00000000000E+00 -0.00000000000E+00 -0.12188631487E+04  0.12188631487E+04  0.00000000000E+00 0.  1.
         23    2    1    2    0    0 -0.61719662011E+03  0.64816452211E+02  0.79600320730E+02  0.63246768689E+03  0.92446327977E+02 0.  0.
         13    1    3    3    0    0 -0.39134922110E+03  0.81616796481E+02  0.32000471960E+02  0.40104805763E+03  0.00000000000E+00 0. -1.
        -13    1    3    3    0    0 -0.22584739900E+03 -0.16800344269E+02  0.47599848770E+02  0.23141962926E+03  0.00000000000E+00 0.  1.
         22    1    1    2    0    0  0.61719662011E+03 -0.64816452211E+02 -0.84026456774E+03  0.10445943634E+04  0.00000000000E+00 0.  1.
<mgrwt>
<rscale>  0 0.14946327E+04</rscale>
<asrwt>0</asrwt>
<pdfrwt beam="1">  1        2 0.70492140E-01 0.14946327E+04</pdfrwt>
<pdfrwt beam="2">  1       -2 0.18751740E+00 0.14946327E+04</pdfrwt>
<totfact> 0.10595190E+01</totfact>
</mgrwt>
</event>
<event>
 6    1  0.9906445E-006  0.2773316E+04  0.7818608E-02  0.8311601E-01
          2   -1    0    0  501    0  0.00000000000E+00  0.00000000000E+00  0.92289543326E+03  0.92289543326E+03  0.00000000000E+00 0. -1.
         -2   -1    0    0    0  501 -0.00000000000E+00 -0.00000000000E+00 -0.20834656696E+04  0.20834656696E+04  0.00000000000E+00 0.  1.
         23    2    1    2    0    0  0.36809883592E+03 -0.13375691418E+03 -0.20212160421E+04  0.20607930894E+04  0.90367046299E+02 0.  0.
         13    1    3    3    0    0  0.13674807233E+03 -0.15510581694E+02 -0.56041633041E+03  0.57706765359E+03  0.00000000000E+00 0.  1.
        -13    1    3    3    0    0  0.23135076358E+03 -0.11824633249E+03 -0.14607997117E+04  0.14837254358E+04  0.00000000000E+00 0. -1.
         22    1    1    2    0    0 -0.36809883592E+03  0.13375691418E+03  0.86064580580E+03  0.94556801349E+03  0.00000000000E+00 0. -1.
<mgrwt>
<rscale>  0 0.27733164E+04</rscale>
<asrwt>0</asrwt>
<pdfrwt beam="1">  1        2 0.14198391E+00 0.27733164E+04</pdfrwt>
<pdfrwt beam="2">  1       -2 0.32053318E+00 0.27733164E+04</pdfrwt>
<totfact> 0.58644575E-01</totfact>
</mgrwt>
</event>
<event>
 6    1  0.9906445E-006  0.1826226E+04  0.7818608E-02  0.8692476E-01
         -2   -1    0    0    0  501 -0.00000000000E+00  0.00000000000E+00  0.80920791704E+03  0.80920791704E+03  0.00000000000E+00 0.  1.
          2   -1    0    0  501    0  0.00000000000E+00 -0.00000000000E+00 -0.10303600509E+04  0.10303600509E+04  0.00000000000E+00 0. -1.
         23    2    1    2    0    0 -0.56373121958E+03  0.42343729074E+03  0.47006943617E+03  0.85220821284E+03  0.90562332689E+02 0.  0.
         13    1    3    3    0    0 -0.24992841964E+03  0.21155415435E+03  0.26731402658E+03  0.42270103379E+03  0.00000000000E+00 0. -1.
        -13    1    3    3    0    0 -0.31380279994E+03  0.21188313639E+03  0.20275540959E+03  0.42950717905E+03  0.00000000000E+00 0.  1.
         22    1    1    2    0    0  0.56373121958E+03 -0.42343729074E+03 -0.69122157002E+03  0.98735975510E+03  0.00000000000E+00 0. -1.
<mgrwt>
<rscale>  0 0.18262262E+04</rscale>
<asrwt>0</asrwt>
<pdfrwt beam="1">  1        2 0.15851693E+00 0.18262262E+04</pdfrwt>
<pdfrwt beam="2">  1       -2 0.12449353E+00 0.18262262E+04</pdfrwt>
<totfact> 0.10992921E+01</totfact>
</mgrwt>
</event>
<event>
 6    1  0.9906445E-006  0.3455336E+04  0.7818608E-02  0.8124457E-01
          1   -1    0    0  501    0  0.00000000000E+00  0.00000000000E+00  0.19156638152E+04  0.19156638152E+04  0.00000000000E+00 0. -1.
         -1   -1    0    0    0  501 -0.00000000000E+00 -0.00000000000E+00 -0.15581213804E+04  0.15581213804E+04  0.00000000000E+00 0.  1.
         23    2    1    2    0    0  0.15808499985E+04  0.30807104541E+03  0.80402044269E+03  0.18024572510E+04  0.91699414374E+02 0.  0.
         11    1    3    3    0    0  0.91577690278E+03  0.20513270797E+03  0.50930111315E+03  0.10677613907E+04  0.00000000000E+00 0.  1.
        -11    1    3    3    0    0  0.66507309575E+03  0.10293833743E+03  0.29471932954E+03  0.73469586034E+03  0.00000000000E+00 0. -1.
         22    1    1    2    0    0 -0.15808499985E+04 -0.30807104541E+03 -0.44647800791E+03  0.16713279446E+04  0.00000000000E+00 0.  1.
<mgrwt>
<rscale>  0 0.34553360E+04</rscale>
<asrwt>0</asrwt>
<pdfrwt beam="1">  1        1 0.29471751E+00 0.34553360E+04</pdfrwt>
<pdfrwt beam="2">  1       -1 0.23971098E+00 0.34553360E+04</pdfrwt>
<totfact> 0.22672504E-01</totfact>
</mgrwt>
</event>
<event>
 6    1  0.9906445E-006  0.2201964E+04  0.7818608E-02  0.8517611E-01
         -1   -1    0    0    0  501 -0.00000000000E+00  0.00000000000E+00  0.11456494360E+04  0.11456494360E+04  0.00000000000E+00 0.  1.
          1   -1    0    0  501    0  0.00000000000E+00 -0.00000000000E+00 -0.10580562087E+04  0.10580562087E+04  0.00000000000E+00 0. -1.
         23    2    1    2    0    0 -0.44962064430E+03 -0.22796331344E+03  0.10211464657E+04  0.11427402141E+04  0.94810845302E+02 0.  0.
         13    1    3    3    0    0 -0.51094330187E+02 -0.25694038785E+02  0.19799734203E+03  0.20609163413E+03  0.00000000000E+00 0. -1.
        -13    1    3    3    0    0 -0.39852631411E+03 -0.20226927466E+03  0.82314912365E+03  0.93664857993E+03  0.00000000000E+00 0.  1.
         22    1    1    2    0    0  0.44962064430E+03  0.22796331344E+03 -0.93355323840E+03  0.10609654306E+04  0.00000000000E+00 0. -1.
<mgrwt>
<rscale>  0 0.22019641E+04</rscale>
<asrwt>0</asrwt>
<pdfrwt beam="1">  1        1 0.16277788E+00 0.22019641E+04</pdfrwt>
<pdfrwt beam="2">  1       -1 0.17625376E+00 0.22019641E+04</pdfrwt>
<totfact> 0.27548365E+00</totfact>
</mgrwt>
</event>
<event>
 6    1  0.9906445E-006  0.1885206E+04  0.7818608E-02  0.8662256E-01
         -1   -1    0    0    0  501 -0.00000000000E+00  0.00000000000E+00  0.17692619634E+04  0.17692619634E+04  0.00000000000E+00 0.  1.
          1   -1    0    0  501    0  0.00000000000E+00 -0.00000000000E+00 -0.50218695749E+03  0.50218695749E+03  0.00000000000E+00 0. -1.
         23    2    1    2    0    0 -0.13917086641E+03  0.84312030894E+03  0.11080634340E+04  0.14022509771E+04  0.91010129434E+02 0.  0.
         13    1    3    3    0    0 -0.61633178237E+02  0.45252628812E+03  0.52051277674E+03  0.69246822371E+03  0.00000000000E+00 0.  1.
        -13    1    3    3    0    0 -0.77537688176E+02  0.39059402082E+03  0.58755065730E+03  0.70978275344E+03  0.00000000000E+00 0. -1.
         22    1    1    2    0    0  0.13917086641E+03 -0.84312030894E+03  0.15901157186E+03  0.86919794373E+03  0.00000000000E+00 0.  1.
<mgrwt>
<rscale>  0 0.18852059E+04</rscale>
<asrwt>0</asrwt>
<pdfrwt beam="1">  1        1 0.77259532E-01 0.18852059E+04</pdfrwt>
<pdfrwt beam="2">  1       -1 0.27219415E+00 0.18852059E+04</pdfrwt>
<totfact> 0.20644274E+00</totfact>
</mgrwt>
</event>
<event>
 6    1  0.9906445E-006  0.1092083E+04  0.7818608E-02  0.9212943E-01
         -1   -1    0    0    0  501 -0.00000000000E+00  0.00000000000E+00  0.19352317144E+03  0.19352317144E+03  0.00000000000E+00 0.  1.
          1   -1    0    0  501    0  0.00000000000E+00 -0.00000000000E+00 -0.15407017713E+04  0.15407017713E+04  0.00000000000E+00 0. -1.
         23    2    1    2    0    0  0.10285750414E+03 -0.29762683559E+03 -0.13792012268E+04  0.14177018819E+04  0.92310358271E+02 0.  0.
         11    1    3    3    0    0  0.16228390127E+02 -0.18646651293E+03 -0.79889642554E+03  0.82052947529E+03  0.00000000000E+00 0. -1.
        -11    1    3    3    0    0  0.86629114015E+02 -0.11116032266E+03 -0.58030480131E+03  0.59717240656E+03  0.00000000000E+00 0.  1.
         22    1    1    2    0    0 -0.10285750414E+03  0.29762683559E+03  0.32022627006E+02  0.31652306087E+03  0.00000000000E+00 0.  1.
<mgrwt>
<rscale>  0 0.10920833E+04</rscale>
<asrwt>0</asrwt>
<pdfrwt beam="1">  1        1 0.23703104E+00 0.10920833E+04</pdfrwt>
<pdfrwt beam="2">  1       -1 0.29772796E-01 0.10920833E+04</pdfrwt>
<totfact> 0.63200994E+01</totfact>
</mgrwt>
</event>
<event>
 6    1  0.9906445E-006  0.1682270E+04  0.7818608E-02  0.8771541E-01
          3   -1    0    0  501    0  0.00000000000E+00  0.00000000000E+00  0.70255205933E+03  0.70255205933E+03  0.00000000000E+00 0. -1.
         -3   -1    0    0    0  501 -0.00000000000E+00 -0.00000000000E+00 -0.10070544787E+04  0.10070544787E+04  0.00000000000E+00 0.  1.
         23    2    1    2    0    0  0.19572630496E+03  0.36281078881E+03  0.58953377378E+03  0.72510607099E+03  0.91040039700E+02 0.  0.
         13    1    3    3    0    0  0.10166327312E+03  0.17636786912E+03  0.36873580550E+03  0.42119727043E+03  0.00000000000E+00 0.  1.
        -13    1    3    3    0    0  0.94063031837E+02  0.18644291969E+03  0.22079796828E+03  0.30390880056E+03  0.00000000000E+00 0. -1.
         22    1    1    2    0    0 -0.19572630496E+03 -0.36281078881E+03 -0.89403619313E+03  0.98450046701E+03  0.00000000000E+00 0.  1.
<mgrwt>
<rscale>  0 0.16822701E+04</rscale>
<asrwt>0</asrwt>
<pdfrwt beam="1">  1        3 0.10808493E+00 0.16822701E+04</pdfrwt>
<pdfrwt beam="2">  1       -3 0.15493146E+00 0.16822701E+04</pdfrwt>
<totfact> 0.53827596E-01</totfact>
</mgrwt>
</event>
<event>
 6    1  0.9906445E-006  0.7581779E+03  0.7818608E-02  0.9622607E-01
         -1   -1    0    0    0  501 -0.00000000000E+00  0.00000000000E+00  0.88164113843E+02  0.88164113843E+02  0.00000000000E+00 0.  1.
          1   -1    0    0  501    0  0.00000000000E+00 -0.00000000000E+00 -0.16300106487E+04  0.16300106487E+04  0.00000000000E+00 0. -1.
         23    2    1    2    0    0 -0.74900801211E+02  0.16514362363E+03 -0.15222663738E+04  0.15357852641E+04  0.91972377039E+02 0.  0.
         11    1    3    3    0    0 -0.75537338115E+01  0.12436727667E+03 -0.93315878182E+03  0.94144016830E+03  0.00000000000E+00 0. -1.
        -11    1    3    3    0    0 -0.67347067400E+02  0.40776346969E+02 -0.58910759198E+03  0.59434509579E+03  0.00000000000E+00 0.  1.
         22    1    1    2    0    0  0.74900801211E+02 -0.16514362363E+03 -0.19580161086E+02  0.18238949848E+03  0.00000000000E+00 0.  1.
<mgrwt>
<rscale>  0 0.75817793E+03</rscale>
<asrwt>0</asrwt>
<pdfrwt beam="1">  1        1 0.25077086E+00 0.75817793E+03</pdfrwt>
<pdfrwt beam="2">  1       -1 0.13563710E-01 0.75817793E+03</pdfrwt>
<totfact> 0.21035848E+02</totfact>
</mgrwt>
</event>
<event>
 6    1  0.9906445E-006  0.2690971E+04  0.7818608E-02  0.8337940E-01
          1   -1    0    0  501    0  0.00000000000E+00  0.00000000000E+00  0.98911050722E+03  0.98911050722E+03  0.00000000000E+00 0. -1.
         -1   -1    0    0    0  501 -0.00000000000E+00 -0.00000000000E+00 -0.18302621681E+04  0.18302621681E+04  0.00000000000E+00 0.  1.
         23    2    1    2    0    0 -0.78426264649E+03 -0.69453414578E+03 -0.13030931825E+04  0.16744554086E+04  0.91123514190E+02 0.  0.
         11    1    3    3    0    0 -0.57859181460E+03 -0.48798984197E+03 -0.88088190953E+03  0.11614023904E+04  0.00000000000E+00 0. -1.
        -11    1    3    3    0    0 -0.20567083189E+03 -0.20654430381E+03 -0.42221127292E+03  0.51305301822E+03  0.00000000000E+00 0.  1.
         22    1    1    2    0    0  0.78426264649E+03  0.69453414578E+03  0.46194152156E+03  0.11449172667E+04  0.00000000000E+00 0. -1.
<mgrwt>
<rscale>  0 0.26909712E+04</rscale>
<asrwt>0</asrwt>
<pdfrwt beam="1">  1        1 0.15217085E+00 0.26909712E+04</pdfrwt>
<pdfrwt beam="2">  1       -1 0.28157879E+00 0.26909712E+04</pdfrwt>
<totfact> 0.58617084E-01</totfact>
</mgrwt>
</event>
<event>
 6    1  0.9906445E-006  0.1353108E+04  0.7818608E-02  0.8988479E-01
          1   -1    0    0  501    0  0.00000000000E+00  0.00000000000E+00  0.69861468211E+03  0.69861468211E+03  0.00000000000E+00 0. -1.
         -1   -1    0    0    0  501 -0.00000000000E+00 -0.00000000000E+00 -0.65518983341E+03  0.65518983341E+03  0.00000000000E+00 0.  1.
         23    2    1    2    0    0 -0.81411674931E+02 -0.64957368530E+03 -0.13652449462E+03  0.67486740532E+03  0.90737223283E+02 0.  0.
         13    1    3    3    0    0 -0.64148786288E+02 -0.40786725919E+03 -0.12848916229E+03  0.43241210983E+03  0.00000000000E+00 0. -1.
        -13    1    3    3    0    0 -0.17262888644E+02 -0.24170642611E+03 -0.80353323223E+01  0.24245529549E+03  0.00000000000E+00 0.  1.
         22    1    1    2    0    0  0.81411674931E+02  0.64957368530E+03  0.17994934332E+03  0.67893711020E+03  0.00000000000E+00 0. -1.
<mgrwt>
<rscale>  0 0.13531079E+04</rscale>
<asrwt>0</asrwt>
<pdfrwt beam="1">  1        1 0.10747918E+00 0.13531079E+04</pdfrwt>
<pdfrwt beam="2">  1       -1 0.10079844E+00 0.13531079E+04</pdfrwt>
<totfact> 0.25038212E+01</totfact>
</mgrwt>
</event>
<event>
 6    1  0.9906445E-006  0.2356492E+04  0.7818608E-02  0.8455974E-01
         -2   -1    0    0    0  501 -0.00000000000E+00  0.00000000000E+00  0.10767903855E+04  0.10767903855E+04  0.00000000000E+00 0.  1.
          2   -1    0    0  501    0  0.00000000000E+00 -0.00000000000E+00 -0.12892606698E+04  0.12892606698E+04  0.00000000000E+00 0. -1.
         23    2    1    2    0    0 -0.39431250366E+03 -0.29963924023E+03 -0.11778833012E+04  0.12810218769E+04  0.91334292352E+02 0.  0.
         11    1    3    3    0    0 -0.31126662187E+03 -0.24040691875E+03 -0.82956027624E+03  0.91807006726E+03  0.00000000000E+00 0.  1.
        -11    1    3    3    0    0 -0.83045881791E+02 -0.59232321476E+02 -0.34832302494E+03  0.36295180961E+03  0.00000000000E+00 0. -1.
         22    1    1    2    0    0  0.39431250366E+03  0.29963924023E+03  0.96541301693E+03  0.10850291784E+04  0.00000000000E+00 0.  1.
<mgrwt>
<rscale>  0 0.23564919E+04</rscale>
<asrwt>0</asrwt>
<pdfrwt beam="1">  1        2 0.19834779E+00 0.23564919E+04</pdfrwt>
<pdfrwt beam="2">  1       -2 0.16566006E+00 0.23564919E+04</pdfrwt>
<totfact> 0.34661565E+00</totfact>
</mgrwt>
</event>
<event>
 6    1  0.9906445E-006  0.6668403E+03  0.7818608E-02  0.9775683E-01
         -2   -1    0    0    0  501 -0.00000000000E+00  0.00000000000E+00  0.12433226640E+03  0.12433226640E+03  0.00000000000E+00 0.  1.
          2   -1    0    0  501    0  0.00000000000E+00 -0.00000000000E+00 -0.89412832269E+03  0.89412832269E+03  0.00000000000E+00 0. -1.
         23    2    1    2    0    0 -0.11208457783E+03 -0.25014874082E+03 -0.11946092605E+03  0.31271762827E+03  0.91564496702E+02 0.  0.
         13    1    3    3    0    0 -0.11165714583E+03 -0.14383814419E+03 -0.85072369685E+02  0.20098268090E+03  0.00000000000E+00 0. -1.
        -13    1    3    3    0    0 -0.42743199901E+00 -0.10631059663E+03 -0.34388556361E+02  0.11173494737E+03  0.00000000000E+00 0.  1.
         22    1    1    2    0    0  0.11208457783E+03  0.25014874082E+03 -0.65033513024E+03  0.70574296082E+03  0.00000000000E+00 0. -1.
<mgrwt>
<rscale>  0 0.66684031E+03</rscale>
<asrwt>0</asrwt>
<pdfrwt beam="1">  1        2 0.13755820E+00 0.66684031E+03</pdfrwt>
<pdfrwt beam="2">  1       -2 0.19128042E-01 0.66684031E+03</pdfrwt>
<totfact> 0.68717145E+02</totfact>
</mgrwt>
</event>
<event>
 6    1  0.9906445E-006  0.1772908E+04  0.7818608E-02  0.8720841E-01
         -4   -1    0    0    0  501 -0.00000000000E+00  0.00000000000E+00  0.37143184699E+04  0.37143184699E+04  0.00000000000E+00 0.  1.
          4   -1    0    0  501    0  0.00000000000E+00 -0.00000000000E+00 -0.21155996307E+03  0.21155996307E+03  0.00000000000E+00 0. -1.
         23    2    1    2    0    0  0.58419774685E+03 -0.32457943436E+02  0.28834218536E+03  0.65864522837E+03  0.91278669388E+02 0.  0.
         13    1    3    3    0    0  0.11346214569E+03  0.26597865389E+02  0.40437543513E+02  0.12335436706E+03  0.00000000000E+00 0.  1.
        -13    1    3    3    0    0  0.47073560116E+03 -0.59055808825E+02  0.24790464185E+03  0.53529086131E+03  0.00000000000E+00 0. -1.
         22    1    1    2    0    0 -0.58419774685E+03  0.32457943436E+02  0.32144163214E+04  0.32672332046E+04  0.00000000000E+00 0.  1.
<mgrwt>
<rscale>  0 0.17729084E+04</rscale>
<asrwt>0</asrwt>
<pdfrwt beam="1">  1        4 0.32547689E-01 0.17729084E+04</pdfrwt>
<pdfrwt beam="2">  1       -4 0.57143356E+00 0.17729084E+04</pdfrwt>
<totfact> 0.53506262E-03</totfact>
</mgrwt>
</event>
<event>
 6    1  0.9906445E-006  0.2186913E+04  0.7818608E-02  0.8523895E-01
          1   -1    0    0  501    0  0.00000000000E+00  0.00000000000E+00  0.82600281686E+03  0.82600281686E+03  0.00000000000E+00 0. -1.
         -1   -1    0    0    0  501 -0.00000000000E+00 -0.00000000000E+00 -0.14475091081E+04  0.14475091081E+04  0.00000000000E+00 0.  1.
         23    2    1    2    0    0 -0.55154097833E+03  0.35528568986E+03 -0.12182163420E+04  0.13866701934E+04  0.91530306856E+02 0.  0.
         13    1    3    3    0    0 -0.40561621434E+03  0.28443196203E+03 -0.98527221820E+03  0.11028088675E+04  0.00000000000E+00 0. -1.
        -13    1    3    3    0    0 -0.14592476399E+03  0.70853727832E+02 -0.23294412383E+03  0.28386132586E+03  0.00000000000E+00 0.  1.
         22    1    1    2    0    0  0.55154097833E+03 -0.35528568986E+03  0.59671005077E+03  0.88684173159E+03  0.00000000000E+00 0. -1.
<mgrwt>
<rscale>  0 0.21869125E+04</rscale>
<asrwt>0</asrwt>
<pdfrwt beam="1">  1        1 0.12707736E+00 0.21869125E+04</pdfrwt>
<pdfrwt beam="2">  1       -1 0.22269371E+00 0.21869125E+04</pdfrwt>
<totfact> 0.20227721E+00</totfact>
</mgrwt>
</event>
<event>
 6    1  0.9906445E-006  0.2334235E+04  0.7818608E-02  0.8464544E-01
          1   -1    0    0  501    0  0.00000000000E+00  0.00000000000E+00  0.52065552255E+03  0.52065552255E+03  0.00000000000E+00 0. -1.
         -1   -1    0    0    0  501 -0.00000000000E+00 -0.00000000000E+00 -0.26162462312E+04  0.26162462312E+04  0.00000000000E+00 0.  1.
         23    2    1    2    0    0  0.46525858598E+03  0.21100985587E+02 -0.24849858259E+04  0.25298273261E+04  0.89224106759E+02 0.  0.
         11    1    3    3    0    0  0.38136910517E+03  0.26616696691E+02 -0.18328934511E+04  0.18723379091E+04  0.00000000000E+00 0.  1.
        -11    1    3    3    0    0  0.83889480807E+02 -0.55157111047E+01 -0.65209237483E+03  0.65748941693E+03  0.00000000000E+00 0. -1.
         22    1    1    2    0    0 -0.46525858598E+03 -0.21100985587E+02  0.38939511727E+03  0.60707442770E+03  0.00000000000E+00 0. -1.
<mgrwt>
<rscale>  0 0.23342348E+04</rscale>
<asrwt>0</asrwt>
<pdfrwt beam="1">  1        1 0.80100848E-01 0.23342348E+04</pdfrwt>
<pdfrwt beam="2">  1       -1 0.40249943E+00 0.23342348E+04</pdfrwt>
<totfact> 0.25980776E-01</totfact>
</mgrwt>
</event>
<event>
 6    1  0.9906445E-006  0.4119982E+04  0.7818608E-02  0.7980770E-01
         -2   -1    0    0    0  501 -0.00000000000E+00  0.00000000000E+00  0.12049020761E+04  0.12049020761E+04  0.00000000000E+00 0.  1.
          2   -1    0    0  501    0  0.00000000000E+00 -0.00000000000E+00 -0.35219155672E+04  0.35219155672E+04  0.00000000000E+00 0. -1.
         23    2    1    2    0    0 -0.16460067666E+04 -0.93121321353E+03 -0.20932141592E+04  0.28224588363E+04  0.90730597140E+02 0.  0.
         13    1    3    3    0    0 -0.20636015555E+03 -0.84792327264E+02 -0.23351396118E+03  0.32295978484E+03  0.00000000000E+00 0.  1.
        -13    1    3    3    0    0 -0.14396466111E+04 -0.84642088627E+03 -0.18597001981E+04  0.24994990514E+04  0.00000000000E+00 0. -1.
         22    1    1    2    0    0  0.16460067666E+04  0.93121321353E+03 -0.22379933187E+03  0.19043588070E+04  0.00000000000E+00 0.  1.
<mgrwt>
<rscale>  0 0.41199822E+04</rscale>
<asrwt>0</asrwt>
<pdfrwt beam="1">  1        2 0.54183316E+00 0.41199822E+04</pdfrwt>
<pdfrwt beam="2">  1       -2 0.18536955E+00 0.41199822E+04</pdfrwt>
<totfact> 0.10192846E-01</totfact>
</mgrwt>
</event>
<event>
 6    1  0.9906445E-006  0.1672358E+04  0.7818608E-02  0.8777288E-01
         -1   -1    0    0    0  501 -0.00000000000E+00  0.00000000000E+00  0.11138472738E+04  0.11138472738E+04  0.00000000000E+00 0.  1.
          1   -1    0    0  501    0  0.00000000000E+00 -0.00000000000E+00 -0.62773028991E+03  0.62773028991E+03  0.00000000000E+00 0. -1.
         23    2    1    2    0    0  0.33163524124E+03  0.37221233172E+03 -0.45222718377E+03  0.67902698604E+03  0.89689848479E+02 0.  0.
         11    1    3    3    0    0  0.22173602859E+03  0.27043213197E+03 -0.26236449759E+03  0.43719050078E+03  0.00000000000E+00 0.  1.
        -11    1    3    3    0    0  0.10989921264E+03  0.10178019975E+03 -0.18986268618E+03  0.24183648526E+03  0.00000000000E+00 0. -1.
         22    1    1    2    0    0 -0.33163524124E+03 -0.37221233172E+03  0.93834416765E+03  0.10625505777E+04  0.00000000000E+00 0.  1.
<mgrwt>
<rscale>  0 0.16723584E+04</rscale>
<asrwt>0</asrwt>
<pdfrwt beam="1">  1        1 0.96573891E-01 0.16723584E+04</pdfrwt>
<pdfrwt beam="2">  1       -1 0.17136112E+00 0.16723584E+04</pdfrwt>
<totfact> 0.73537246E+00</totfact>
</mgrwt>
</event>
<event>
 6    1  0.9906445E-006  0.2285951E+04  0.7818608E-02  0.8483481E-01
         -1   -1    0    0    0  501 -0.00000000000E+00  0.00000000000E+00  0.11226560914E+04  0.11226560914E+04  0.00000000000E+00 0.  1.
          1   -1    0    0  501    0  0.00000000000E+00 -0.00000000000E+00 -0.11636630489E+04  0.11636630489E+04  0.00000000000E+00 0. -1.
         23    2    1    2    0    0 -0.23733653535E+03  0.57310229331E+03  0.93737803283E+03  0.11278666990E+04  0.92902339053E+02 0.  0.
         11    1    3    3    0    0 -0.72828355732E+02  0.25601693307E+03  0.33953089777E+03  0.43142771116E+03  0.00000000000E+00 0. -1.
        -11    1    3    3    0    0 -0.16450817961E+03  0.31708536024E+03  0.59784713506E+03  0.69643898780E+03  0.00000000000E+00 0.  1.
         22    1    1    2    0    0  0.23733653535E+03 -0.57310229331E+03 -0.97838499033E+03  0.11584524414E+04  0.00000000000E+00 0. -1.
<mgrwt>
<rscale>  0 0.22859514E+04</rscale>
<asrwt>0</asrwt>
<pdfrwt beam="1">  1        1 0.17902508E+00 0.22859514E+04</pdfrwt>
<pdfrwt beam="2">  1       -1 0.17271632E+00 0.22859514E+04</pdfrwt>
<totfact> 0.24173351E+00</totfact>
</mgrwt>
</event>
<event>
 6    1  0.9906445E-006  0.1803782E+04  0.7818608E-02  0.8704291E-01
          1   -1    0    0  501    0  0.00000000000E+00  0.00000000000E+00  0.41683713980E+03  0.41683713980E+03  0.00000000000E+00 0.  1.
         -1   -1    0    0    0  501 -0.00000000000E+00 -0.00000000000E+00 -0.19513784451E+04  0.19513784451E+04  0.00000000000E+00 0. -1.
         23    2    1    2    0    0  0.34351716161E+01 -0.59663445451E+03 -0.16530966750E+04  0.17599065776E+04  0.92509850048E+02 0.  0.
         13    1    3    3    0    0 -0.35224200136E+02 -0.28301447757E+03 -0.70338680487E+03  0.75900654547E+03  0.00000000000E+00 0. -1.
        -13    1    3    3    0    0  0.38659371752E+02 -0.31361997694E+03 -0.94970987008E+03  0.10009000321E+04  0.00000000000E+00 0.  1.
         22    1    1    2    0    0 -0.34351716161E+01  0.59663445451E+03  0.11855536966E+03  0.60830900732E+03  0.00000000000E+00 0.  1.
<mgrwt>
<rscale>  0 0.18037816E+04</rscale>
<asrwt>0</asrwt>
<pdfrwt beam="1">  1        1 0.64128792E-01 0.18037816E+04</pdfrwt>
<pdfrwt beam="2">  1       -1 0.30021206E+00 0.18037816E+04</pdfrwt>
<totfact> 0.17651473E+00</totfact>
</mgrwt>
</event>
<event>
 6    1  0.9906445E-006  0.1172390E+04  0.7818608E-02  0.9137372E-01
          2   -1    0    0  501    0  0.00000000000E+00  0.00000000000E+00  0.13531285282E+04  0.13531285282E+04  0.00000000000E+00 0.  1.
         -2   -1    0    0    0  501 -0.00000000000E+00 -0.00000000000E+00 -0.25394835393E+03  0.25394835393E+03  0.00000000000E+00 0. -1.
         23    2    1    2    0    0  0.57659523891E+03 -0.52624680275E+02  0.64473848770E+03  0.87104109971E+03  0.88280537784E+02 0.  0.
         11    1    3    3    0    0  0.57461585377E+03 -0.52026691195E+02  0.62270977676E+03  0.84891555650E+03  0.00000000000E+00 0. -1.
        -11    1    3    3    0    0  0.19793851405E+01 -0.59798907949E+00  0.22028710939E+02  0.22125543204E+02  0.00000000000E+00 0.  1.
         22    1    1    2    0    0 -0.57659523891E+03  0.52624680275E+02  0.45444168658E+03  0.73603578243E+03  0.00000000000E+00 0. -1.
<mgrwt>
<rscale>  0 0.11723903E+04</rscale>
<asrwt>0</asrwt>
<pdfrwt beam="1">  1        2 0.20817362E+00 0.11723903E+04</pdfrwt>
<pdfrwt beam="2">  1       -2 0.39068978E-01 0.11723903E+04</pdfrwt>
<totfact> 0.94197110E+01</totfact>
</mgrwt>
</event>
<event>
 6    1  0.9906445E-006  0.2848407E+04  0.7818608E-02  0.8288396E-01
          2   -1    0    0  501    0  0.00000000000E+00  0.00000000000E+00  0.14751435066E+04  0.14751435066E+04  0.00000000000E+00 0. -1.
         -2   -1    0    0    0  501 -0.00000000000E+00 -0.00000000000E+00 -0.13750223884E+04  0.13750223884E+04  0.00000000000E+00 0.  1.
         23    2    1    2    0    0  0.12624829211E+04  0.78035356059E+02 -0.60170230497E+03  0.14036152529E+04  0.90207936014E+02 0.  0.
         13    1    3    3    0    0  0.30328764752E+03  0.36997531231E+02 -0.18356874311E+03  0.35644031464E+03  0.00000000000E+00 0. -1.
        -13    1    3    3    0    0  0.95919527353E+03  0.41037824828E+02 -0.41813356186E+03  0.10471749383E+04  0.00000000000E+00 0.  1.
         22    1    1    2    0    0 -0.12624829211E+04 -0.78035356059E+02  0.70182342315E+03  0.14465506421E+04  0.00000000000E+00 0. -1.
<mgrwt>
<rscale>  0 0.28484068E+04</rscale>
<asrwt>0</asrwt>
<pdfrwt beam="1">  1        2 0.22694516E+00 0.28484068E+04</pdfrwt>
<pdfrwt beam="2">  1       -2 0.21154191E+00 0.28484068E+04</pdfrwt>
<totfact> 0.12720090E+00</totfact>
</mgrwt>
</event>
<event>
 6    1  0.9906445E-006  0.2542645E+04  0.7818608E-02  0.8387949E-01
          1   -1    0    0  501    0  0.00000000000E+00  0.00000000000E+00  0.97382853515E+03  0.97382853515E+03  0.00000000000E+00 0. -1.
         -1   -1    0    0    0  501 -0.00000000000E+00 -0.00000000000E+00 -0.16596979115E+04  0.16596979115E+04  0.00000000000E+00 0.  1.
         23    2    1    2    0    0 -0.20702070268E+03  0.12127168917E+04 -0.17608443938E+02  0.12334862670E+04  0.87398414517E+02 0.  0.
         13    1    3    3    0    0 -0.10512309043E+03  0.44866064900E+03  0.24994035045E+02  0.46148883398E+03  0.00000000000E+00 0. -1.
        -13    1    3    3    0    0 -0.10189761226E+03  0.76405624270E+03 -0.42602478983E+02  0.77199743303E+03  0.00000000000E+00 0.  1.
         22    1    1    2    0    0  0.20702070268E+03 -0.12127168917E+04 -0.66826093236E+03  0.14000401796E+04  0.00000000000E+00 0.  1.
<mgrwt>
<rscale>  0 0.25426452E+04</rscale>
<asrwt>0</asrwt>
<pdfrwt beam="1">  1        1 0.14981978E+00 0.25426452E+04</pdfrwt>
<pdfrwt beam="2">  1       -1 0.25533814E+00 0.25426452E+04</pdfrwt>
<totfact> 0.90358313E-01</totfact>
</mgrwt>
</event>
<event>
 6    1  0.9906445E-006  0.2880753E+04  0.7818608E-02  0.8278627E-01
         -2   -1    0    0    0  501 -0.00000000000E+00  0.00000000000E+00  0.13340784565E+04  0.13340784565E+04  0.00000000000E+00 0.  1.
          2   -1    0    0  501    0  0.00000000000E+00 -0.00000000000E+00 -0.15551444699E+04  0.15551444699E+04  0.00000000000E+00 0. -1.
         23    2    1    2    0    0 -0.56558654961E+03  0.13096003056E+04 -0.30022817454E+03  0.14605145050E+04  0.89579890772E+02 0.  0.
         11    1    3    3    0    0 -0.52192930409E+03  0.11867230483E+04 -0.24741974391E+03  0.13198251102E+04  0.00000000000E+00 0.  1.
        -11    1    3    3    0    0 -0.43657245521E+02  0.12287725739E+03 -0.52808430636E+02  0.14068939482E+03  0.00000000000E+00 0. -1.
         22    1    1    2    0    0  0.56558654961E+03 -0.13096003056E+04  0.79162161138E+02  0.14287084214E+04  0.00000000000E+00 0. -1.
<mgrwt>
<rscale>  0 0.28807532E+04</rscale>
<asrwt>0</asrwt>
<pdfrwt beam="1">  1        2 0.23925299E+00 0.28807532E+04</pdfrwt>
<pdfrwt beam="2">  1       -2 0.20524284E+00 0.28807532E+04</pdfrwt>
<totfact> 0.12556845E+00</totfact>
</mgrwt>
</event>
<event>
 6    1  0.9906445E-006  0.1119134E+04  0.7818608E-02  0.9186741E-01
          2   -1    0    0  501    0  0.00000000000E+00  0.00000000000E+00  0.48397707673E+03  0.48397707673E+03  0.00000000000E+00 0. -1.
         -2   -1    0    0    0  501 -0.00000000000E+00 -0.00000000000E+00 -0.64696246193E+03  0.64696246193E+03  0.00000000000E+00 0.  1.
         23    2    1    2    0    0 -0.23371793559E+03 -0.34251223607E+03 -0.45622313356E+03  0.62307431802E+03  0.90240528093E+02 0.  0.
         11    1    3    3    0    0 -0.48172086434E+01 -0.60684279374E+02 -0.56191317275E+02  0.82844742738E+02  0.00000000000E+00 0.  1.
        -11    1    3    3    0    0 -0.22890072695E+03 -0.28182795669E+03 -0.40003181629E+03  0.54022957528E+03  0.00000000000E+00 0. -1.
         22    1    1    2    0    0  0.23371793559E+03  0.34251223607E+03  0.29323774837E+03  0.50786522064E+03  0.00000000000E+00 0. -1.
<mgrwt>
<rscale>  0 0.11191336E+04</rscale>
<asrwt>0</asrwt>
<pdfrwt beam="1">  1        2 0.74458012E-01 0.11191336E+04</pdfrwt>
<pdfrwt beam="2">  1       -2 0.99532686E-01 0.11191336E+04</pdfrwt>
<totfact> 0.52988505E+01</totfact>
</mgrwt>
</event>
<event>
 6    1  0.9906445E-006  0.8473447E+03  0.7818608E-02  0.9493908E-01
          2   -1    0    0  501    0  0.00000000000E+00  0.00000000000E+00  0.16532634645E+04  0.16532634645E+04  0.00000000000E+00 0. -1.
         -2   -1    0    0    0  501 -0.00000000000E+00 -0.00000000000E+00 -0.10857208546E+03  0.10857208546E+03  0.00000000000E+00 0.  1.
         23    2    1    2    0    0 -0.16220320386E+03 -0.20399589600E+03  0.99630605196E+02  0.29346065062E+03  0.90932343223E+02 0.  0.
         13    1    3    3    0    0 -0.66565277048E+02 -0.62842606612E+02  0.80474134368E+02  0.12188607638E+03  0.00000000000E+00 0. -1.
        -13    1    3    3    0    0 -0.95637926816E+02 -0.14115328938E+03  0.19156470828E+02  0.17157457424E+03  0.00000000000E+00 0.  1.
         22    1    1    2    0    0  0.16220320386E+03  0.20399589600E+03  0.14450607739E+04  0.14683748994E+04  0.00000000000E+00 0. -1.
<mgrwt>
<rscale>  0 0.84734470E+03</rscale>
<asrwt>0</asrwt>
<pdfrwt beam="1">  1        2 0.25434821E+00 0.84734470E+03</pdfrwt>
<pdfrwt beam="2">  1       -2 0.16703399E-01 0.84734470E+03</pdfrwt>
<totfact> 0.30657511E+02</totfact>
</mgrwt>
</event>
<event>
 6    1  0.9906445E-006  0.2362197E+04  0.7818608E-02  0.8453794E-01
          2   -1    0    0  501    0  0.00000000000E+00  0.00000000000E+00  0.17087245257E+04  0.17087245257E+04  0.00000000000E+00 0. -1.
         -2   -1    0    0    0  501 -0.00000000000E+00 -0.00000000000E+00 -0.81639455110E+03  0.81639455110E+03  0.00000000000E+00 0.  1.
         23    2    1    2    0    0  0.53965934562E+03 -0.24791936095E+03 -0.64233681704E+03  0.87954975884E+03  0.91186473277E+02 0.  0.
         13    1    3    3    0    0  0.48960641192E+03 -0.22439605102E+03 -0.53685153229E+03  0.76044565488E+03  0.00000000000E+00 0. -1.
        -13    1    3    3    0    0  0.50052933698E+02 -0.23523309936E+02 -0.10548528475E+03  0.11910410396E+03  0.00000000000E+00 0.  1.
         22    1    1    2    0    0 -0.53965934562E+03  0.24791936095E+03  0.15346667917E+04  0.16455693180E+04  0.00000000000E+00 0. -1.
<mgrwt>
<rscale>  0 0.23621968E+04</rscale>
<asrwt>0</asrwt>
<pdfrwt beam="1">  1        2 0.26288070E+00 0.23621968E+04</pdfrwt>
<pdfrwt beam="2">  1       -2 0.12559916E+00 0.23621968E+04</pdfrwt>
<totfact> 0.41447388E+00</totfact>
</mgrwt>
</event>
<event>
 6    1  0.9906445E-006  0.1543684E+04  0.7818608E-02  0.8855912E-01
         -2   -1    0    0    0  501 -0.00000000000E+00  0.00000000000E+00  0.11031308228E+04  0.11031308228E+04  0.00000000000E+00 0.  1.
          2   -1    0    0  501    0  0.00000000000E+00 -0.00000000000E+00 -0.54004465739E+03  0.54004465739E+03  0.00000000000E+00 0. -1.
         23    2    1    2    0    0  0.74785665949E+03 -0.16805550496E+03  0.21447233097E+03  0.80111619398E+03  0.90865502886E+02 0.  0.
         11    1    3    3    0    0  0.10075133643E+03 -0.41916145066E+02  0.57740400960E+02  0.12345747815E+03  0.00000000000E+00 0.  1.
        -11    1    3    3    0    0  0.64710532306E+03 -0.12613935989E+03  0.15673193001E+03  0.67765871583E+03  0.00000000000E+00 0. -1.
         22    1    1    2    0    0 -0.74785665949E+03  0.16805550496E+03  0.34861383440E+03  0.84205928617E+03  0.00000000000E+00 0. -1.
<mgrwt>
<rscale>  0 0.15436838E+04</rscale>
<asrwt>0</asrwt>
<pdfrwt beam="1">  1        2 0.83083794E-01 0.15436838E+04</pdfrwt>
<pdfrwt beam="2">  1       -2 0.16971243E+00 0.15436838E+04</pdfrwt>
<totfact> 0.11589827E+01</totfact>
</mgrwt>
</event>
<event>
 6    1  0.9906445E-006  0.3592296E+04  0.7818608E-02  0.8092259E-01
          1   -1    0    0  501    0  0.00000000000E+00  0.00000000000E+00  0.21609287699E+04  0.21609287699E+04  0.00000000000E+00 0.  1.
         -1   -1    0    0    0  501 -0.00000000000E+00 -0.00000000000E+00 -0.14929447141E+04  0.14929447141E+04  0.00000000000E+00 0. -1.
         23    2    1    2    0    0 -0.13646989410E+04  0.92724952279E+03 -0.38472389182E+03  0.16967355482E+04  0.93296143525E+02 0.  0.
         11    1    3    3    0    0 -0.76336663548E+03  0.55507049144E+03 -0.18394805153E+03  0.96159698226E+03  0.00000000000E+00 0.  1.
        -11    1    3    3    0    0 -0.60133230551E+03  0.37217903135E+03 -0.20077584029E+03  0.73513856590E+03  0.00000000000E+00 0. -1.
         22    1    1    2    0    0  0.13646989410E+04 -0.92724952279E+03  0.10527079476E+04  0.19571379359E+04  0.00000000000E+00 0.  1.
<mgrwt>
<rscale>  0 0.35922957E+04</rscale>
<asrwt>0</asrwt>
<pdfrwt beam="1">  1        1 0.33245058E+00 0.35922957E+04</pdfrwt>
<pdfrwt beam="2">  1       -1 0.22968380E+00 0.35922957E+04</pdfrwt>
<totfact> 0.17787978E-01</totfact>
</mgrwt>
</event>
<event>
 6    1  0.9906445E-006  0.1709102E+04  0.7818608E-02  0.8756190E-01
          2   -1    0    0  501    0  0.00000000000E+00  0.00000000000E+00  0.17114728197E+04  0.17114728197E+04  0.00000000000E+00 0. -1.
         -2   -1    0    0    0  501 -0.00000000000E+00 -0.00000000000E+00 -0.42668376741E+03  0.42668376741E+03  0.00000000000E+00 0.  1.
         23    2    1    2    0    0 -0.54793267120E+03 -0.64723940826E+03  0.53869746760E+03  0.10086426578E+04  0.89532037189E+02 0.  0.
         13    1    3    3    0    0 -0.52344394369E+03 -0.63246697265E+03  0.50267438817E+03  0.96264717015E+03  0.00000000000E+00 0. -1.
        -13    1    3    3    0    0 -0.24488727516E+02 -0.14772435615E+02  0.36023079432E+02  0.45995487616E+02  0.00000000000E+00 0.  1.
         22    1    1    2    0    0  0.54793267120E+03  0.64723940826E+03  0.74609158464E+03  0.11295139293E+04  0.00000000000E+00 0.  1.
<mgrwt>
<rscale>  0 0.17091023E+04</rscale>
<asrwt>0</asrwt>
<pdfrwt beam="1">  1        2 0.26330351E+00 0.17091023E+04</pdfrwt>
<pdfrwt beam="2">  1       -2 0.65643658E-01 0.17091023E+04</pdfrwt>
<totfact> 0.19637399E+01</totfact>
</mgrwt>
</event>
<event>
 6    1  0.9906445E-006  0.4042179E+04  0.7818608E-02  0.7996091E-01
         -2   -1    0    0    0  501 -0.00000000000E+00  0.00000000000E+00  0.13865277063E+04  0.13865277063E+04  0.00000000000E+00 0.  1.
          2   -1    0    0  501    0  0.00000000000E+00 -0.00000000000E+00 -0.29460669242E+04  0.29460669242E+04  0.00000000000E+00 0. -1.
         23    2    1    2    0    0  0.13797824248E+04  0.80929733433E+03  0.54197764272E+03  0.16915465752E+04  0.93959224170E+02 0.  0.
         13    1    3    3    0    0  0.10615204032E+04  0.65132703557E+03  0.45324799424E+03  0.13253249481E+04  0.00000000000E+00 0.  1.
        -13    1    3    3    0    0  0.31826202158E+03  0.15797029876E+03  0.88729648482E+02  0.36622162715E+03  0.00000000000E+00 0. -1.
         22    1    1    2    0    0 -0.13797824248E+04 -0.80929733433E+03 -0.21015168606E+04  0.26410480553E+04  0.00000000000E+00 0. -1.
<mgrwt>
<rscale>  0 0.40421793E+04</rscale>
<asrwt>0</asrwt>
<pdfrwt beam="1">  1        2 0.45324106E+00 0.40421793E+04</pdfrwt>
<pdfrwt beam="2">  1       -2 0.21331196E+00 0.40421793E+04</pdfrwt>
<totfact> 0.16120145E-01</totfact>
</mgrwt>
</event>
<event>
 6    1  0.9906445E-006  0.1603803E+04  0.7818608E-02  0.8818215E-01
          1   -1    0    0  501    0  0.00000000000E+00  0.00000000000E+00  0.17248383894E+04  0.17248383894E+04  0.00000000000E+00 0. -1.
         -1   -1    0    0    0  501 -0.00000000000E+00 -0.00000000000E+00 -0.37281515483E+03  0.37281515483E+03  0.00000000000E+00 0.  1.
         23    2    1    2    0    0  0.46801565770E+03 -0.55794769985E+03  0.24766573479E+03  0.77479687061E+03  0.92884782898E+02 0.  0.
         11    1    3    3    0    0  0.12030849037E+03 -0.21041200239E+03  0.89351583171E+02  0.25832353555E+03  0.00000000000E+00 0.  1.
        -11    1    3    3    0    0  0.34770716733E+03 -0.34753569746E+03  0.15831415162E+03  0.51647333506E+03  0.00000000000E+00 0. -1.
         22    1    1    2    0    0 -0.46801565770E+03  0.55794769985E+03  0.11043574998E+04  0.13228566737E+04  0.00000000000E+00 0. -1.
<mgrwt>
<rscale>  0 0.16038028E+04</rscale>
<asrwt>0</asrwt>
<pdfrwt beam="1">  1        1 0.26535975E+00 0.16038028E+04</pdfrwt>
<pdfrwt beam="2">  1       -1 0.57356179E-01 0.16038028E+04</pdfrwt>
<totfact> 0.13535192E+01</totfact>
</mgrwt>
</event>
<event>
 6    1  0.9906445E-006  0.6394673E+03  0.7818608E-02  0.9826746E-01
          1   -1    0    0  501    0  0.00000000000E+00  0.00000000000E+00  0.61053306380E+03  0.61053306380E+03  0.00000000000E+00 0. -1.
         -1   -1    0    0    0  501 -0.00000000000E+00 -0.00000000000E+00 -0.16744321936E+03  0.16744321936E+03  0.00000000000E+00 0.  1.
         23    2    1    2    0    0 -0.11657704860E+03 -0.12523461013E+02  0.57929323935E+03  0.59825869883E+03  0.92659420623E+02 0.  0.
         13    1    3    3    0    0 -0.76351584742E+02 -0.52555005461E+02  0.35864637724E+03  0.37043058324E+03  0.00000000000E+00 0.  1.
        -13    1    3    3    0    0 -0.40225463856E+02  0.40031544448E+02  0.22064686211E+03  0.22782811559E+03  0.00000000000E+00 0. -1.
         22    1    1    2    0    0  0.11657704860E+03  0.12523461013E+02 -0.13620339491E+03  0.17971758434E+03  0.00000000000E+00 0.  1.
<mgrwt>
<rscale>  0 0.63946735E+03</rscale>
<asrwt>0</asrwt>
<pdfrwt beam="1">  1        1 0.93928162E-01 0.63946735E+03</pdfrwt>
<pdfrwt beam="2">  1       -1 0.25760496E-01 0.63946735E+03</pdfrwt>
<totfact> 0.44899402E+02</totfact>
</mgrwt>
</event>
<event>
 6    1  0.9906445E-006  0.5114707E+04  0.7818608E-02  0.7811052E-01
         -2   -1    0    0    0  501 -0.00000000000E+00  0.00000000000E+00  0.22201352518E+04  0.22201352518E+04  0.00000000000E+00 0.  1.
          2   -1    0    0  501    0  0.00000000000E+00 -0.00000000000E+00 -0.29457921106E+04  0.29457921106E+04  0.00000000000E+00 0. -1.
         23    2    1    2    0    0  0.25810571588E+03 -0.13188341686E+04  0.18331964192E+04  0.22756553642E+04  0.10980027517E+03 0.  0.
         13    1    3    3    0    0  0.20734988664E+03 -0.11299877306E+04  0.16241527378E+04  0.19894065352E+04  0.00000000000E+00 0. -1.
        -13    1    3    3    0    0  0.50755829241E+02 -0.18884643798E+03  0.20904368144E+03  0.28624882897E+03  0.00000000000E+00 0.  1.
         22    1    1    2    0    0 -0.25810571588E+03  0.13188341686E+04 -0.25588532780E+04  0.28902719982E+04  0.00000000000E+00 0. -1.
<mgrwt>
<rscale>  0 0.51147070E+04</rscale>
<asrwt>0</asrwt>
<pdfrwt beam="1">  1        2 0.45319878E+00 0.51147070E+04</pdfrwt>
<pdfrwt beam="2">  1       -2 0.34155927E+00 0.51147070E+04</pdfrwt>
<totfact> 0.23865457E-02</totfact>
</mgrwt>
</event>
<event>
 6    1  0.9906445E-006  0.8862005E+03  0.7818608E-02  0.9442998E-01
          2   -1    0    0  501    0  0.00000000000E+00  0.00000000000E+00  0.44656504515E+03  0.44656504515E+03  0.00000000000E+00 0. -1.
         -2   -1    0    0    0  501 -0.00000000000E+00 -0.00000000000E+00 -0.43966235557E+03  0.43966235557E+03  0.00000000000E+00 0.  1.
         23    2    1    2    0    0 -0.29346519225E+03 -0.24915198324E+02  0.32779067354E+03  0.45066835259E+03  0.94406844000E+02 0.  0.
         11    1    3    3    0    0 -0.22429281249E+03  0.18453460313E+02  0.21348236263E+03  0.31019754204E+03  0.00000000000E+00 0. -1.
        -11    1    3    3    0    0 -0.69172379762E+02 -0.43368658637E+02  0.11430831091E+03  0.14047081055E+03  0.00000000000E+00 0.  1.
         22    1    1    2    0    0  0.29346519225E+03  0.24915198324E+02 -0.32088798395E+03  0.43555904814E+03  0.00000000000E+00 0.  1.
<mgrwt>
<rscale>  0 0.88620052E+03</rscale>
<asrwt>0</asrwt>
<pdfrwt beam="1">  1        2 0.68702315E-01 0.88620052E+03</pdfrwt>
<pdfrwt beam="2">  1       -2 0.67640362E-01 0.88620052E+03</pdfrwt>
<totfact> 0.14119108E+02</totfact>
</mgrwt>
</event>
<event>
 6    1  0.9906445E-006  0.1137037E+04  0.7818608E-02  0.9169826E-01
          2   -1    0    0  501    0  0.00000000000E+00  0.00000000000E+00  0.32091232791E+03  0.32091232791E+03  0.00000000000E+00 0. -1.
         -2   -1    0    0    0  501 -0.00000000000E+00 -0.00000000000E+00 -0.10071705602E+04  0.10071705602E+04  0.00000000000E+00 0.  1.
         23    2    1    2    0    0  0.40837779494E+02 -0.40169013844E+03  0.11778703628E+03  0.42835432601E+03  0.81184673057E+02 0.  0.
         13    1    3    3    0    0  0.59305276668E+02 -0.21408069521E+03  0.47525713704E+02  0.22717031796E+03  0.00000000000E+00 0. -1.
        -13    1    3    3    0    0 -0.18467497174E+02 -0.18760944324E+03  0.70261322572E+02  0.20118400804E+03  0.00000000000E+00 0.  1.
         22    1    1    2    0    0 -0.40837779494E+02  0.40169013844E+03 -0.80404526856E+03  0.89972856210E+03  0.00000000000E+00 0.  1.
<mgrwt>
<rscale>  0 0.11370373E+04</rscale>
<asrwt>0</asrwt>
<pdfrwt beam="1">  1        2 0.49371127E-01 0.11370373E+04</pdfrwt>
<pdfrwt beam="2">  1       -2 0.15494932E+00 0.11370373E+04</pdfrwt>
<totfact> 0.27687019E+01</totfact>
</mgrwt>
</event>
<event>
 6    1  0.9906445E-006  0.2221553E+04  0.7818608E-02  0.8509511E-01
          1   -1    0    0  501    0  0.00000000000E+00  0.00000000000E+00  0.19079843059E+04  0.19079843059E+04  0.00000000000E+00 0. -1.
         -1   -1    0    0    0  501 -0.00000000000E+00 -0.00000000000E+00 -0.64666375291E+03  0.64666375291E+03  0.00000000000E+00 0.  1.
         23    2    1    2    0    0 -0.67419003245E+03 -0.66424620605E+03 -0.32411153372E+02  0.95168300922E+03  0.94312486287E+02 0.  0.
         11    1    3    3    0    0 -0.39628531348E+03 -0.34006731176E+03  0.12421156393E+02  0.52234290589E+03  0.00000000000E+00 0.  1.
        -11    1    3    3    0    0 -0.27790471897E+03 -0.32417889429E+03 -0.44832309765E+02  0.42934010333E+03  0.00000000000E+00 0. -1.
         22    1    1    2    0    0  0.67419003245E+03  0.66424620605E+03  0.12937317063E+04  0.16029650495E+04  0.00000000000E+00 0. -1.
<mgrwt>
<rscale>  0 0.22215529E+04</rscale>
<asrwt>0</asrwt>
<pdfrwt beam="1">  1        1 0.29353604E+00 0.22215529E+04</pdfrwt>
<pdfrwt beam="2">  1       -1 0.99486732E-01 0.22215529E+04</pdfrwt>
<totfact> 0.30193218E+00</totfact>
</mgrwt>
</event>
<event>
 6    1  0.9906445E-006  0.2779204E+04  0.7818608E-02  0.8309754E-01
          2   -1    0    0  501    0  0.00000000000E+00  0.00000000000E+00  0.73422753418E+03  0.73422753418E+03  0.00000000000E+00 0. -1.
         -2   -1    0    0    0  501 -0.00000000000E+00 -0.00000000000E+00 -0.26299671723E+04  0.26299671723E+04  0.00000000000E+00 0.  1.
         23    2    1    2    0    0  0.13067799122E+04 -0.46568682034E+03 -0.10067775491E+04  0.17165322565E+04  0.91345500683E+02 0.  0.
         11    1    3    3    0    0  0.44447758260E+03 -0.15757463296E+03 -0.28950550009E+03  0.55335659476E+03  0.00000000000E+00 0.  1.
        -11    1    3    3    0    0  0.86230232958E+03 -0.30811218738E+03 -0.71727204903E+03  0.11631756617E+04  0.00000000000E+00 0. -1.
         22    1    1    2    0    0 -0.13067799122E+04  0.46568682034E+03 -0.88896208900E+03  0.16476624500E+04  0.00000000000E+00 0.  1.
<mgrwt>
<rscale>  0 0.27792044E+04</rscale>
<asrwt>0</asrwt>
<pdfrwt beam="1">  1        2 0.11295808E+00 0.27792044E+04</pdfrwt>
<pdfrwt beam="2">  1       -2 0.40461033E+00 0.27792044E+04</pdfrwt>
<totfact> 0.23251957E-01</totfact>
</mgrwt>
</event>
<event>
 6    1  0.9906445E-006  0.2767795E+04  0.7818608E-02  0.8313337E-01
         -2   -1    0    0    0  501 -0.00000000000E+00  0.00000000000E+00  0.12354581866E+04  0.12354581866E+04  0.00000000000E+00 0.  1.
          2   -1    0    0  501    0  0.00000000000E+00 -0.00000000000E+00 -0.15501711576E+04  0.15501711576E+04  0.00000000000E+00 0. -1.
         23    2    1    2    0    0  0.10271514992E+04  0.85035464978E+03  0.20911238653E+03  0.13529618190E+04  0.92921799016E+02 0.  0.
         11    1    3    3    0    0  0.45787519627E+03  0.43825441186E+03  0.10787395510E+03  0.64292566838E+03  0.00000000000E+00 0. -1.
        -11    1    3    3    0    0  0.56927630294E+03  0.41210023791E+03  0.10123843143E+03  0.71003615061E+03  0.00000000000E+00 0.  1.
         22    1    1    2    0    0 -0.10271514992E+04 -0.85035464978E+03 -0.52382535753E+03  0.14326675252E+04  0.00000000000E+00 0. -1.
<mgrwt>
<rscale>  0 0.27677945E+04</rscale>
<asrwt>0</asrwt>
<pdfrwt beam="1">  1        2 0.23848787E+00 0.27677945E+04</pdfrwt>
<pdfrwt beam="2">  1       -2 0.19007049E+00 0.27677945E+04</pdfrwt>
<totfact> 0.16068194E+00</totfact>
</mgrwt>
</event>
<event>
 6    1  0.1214407E-005  0.3374350E+04  0.7818608E-02  0.8144231E-01
         -2   -1    0    0    0  501 -0.00000000000E+00  0.00000000000E+00  0.13322962406E+04  0.13322962406E+04  0.00000000000E+00 0.  1.
          2   -1    0    0  501    0  0.00000000000E+00 -0.00000000000E+00 -0.21365812205E+04  0.21365812205E+04  0.00000000000E+00 0. -1.
         23    2    1    2    0    0 -0.59656222431E+03  0.86267249996E+03  0.95410175459E+03  0.14214365615E+04  0.10040622769E+03 0.  0.
         11    1    3    3    0    0 -0.13558983806E+03  0.25933503898E+03  0.30252797026E+03  0.42090668730E+03  0.00000000000E+00 0. -1.
        -11    1    3    3    0    0 -0.46097238625E+03  0.60333746098E+03  0.65157378434E+03  0.10005298742E+04  0.00000000000E+00 0.  1.
         22    1    1    2    0    0  0.59656222431E+03 -0.86267249996E+03 -0.17583867345E+04  0.20474408996E+04  0.00000000000E+00 0. -1.
<mgrwt>
<rscale>  0 0.33743498E+04</rscale>
<asrwt>0</asrwt>
<pdfrwt beam="1">  1        2 0.32870480E+00 0.33743498E+04</pdfrwt>
<pdfrwt beam="2">  1       -2 0.20496866E+00 0.33743498E+04</pdfrwt>
<totfact> 0.57432126E-01</totfact>
</mgrwt>
</event>
<event>
 6    1  0.9906445E-006  0.2443674E+04  0.7818608E-02  0.8423331E-01
          2   -1    0    0  501    0  0.00000000000E+00  0.00000000000E+00  0.27358003878E+04  0.27358003878E+04  0.00000000000E+00 0. -1.
         -2   -1    0    0    0  501 -0.00000000000E+00 -0.00000000000E+00 -0.54568524187E+03  0.54568524187E+03  0.00000000000E+00 0.  1.
         23    2    1    2    0    0 -0.46334731442E+03 -0.10678920076E+04  0.15875040200E+04  0.19706751008E+04  0.91144201416E+02 0.  0.
         13    1    3    3    0    0 -0.20332126868E+03 -0.51074527882E+03  0.82099169841E+03  0.98804233056E+03  0.00000000000E+00 0.  1.
        -13    1    3    3    0    0 -0.26002604574E+03 -0.55714672879E+03  0.76651232163E+03  0.98263277020E+03  0.00000000000E+00 0. -1.
         22    1    1    2    0    0  0.46334731442E+03  0.10678920076E+04  0.60261112594E+03  0.13108105289E+04  0.00000000000E+00 0.  1.
<mgrwt>
<rscale>  0 0.24436742E+04</rscale>
<asrwt>0</asrwt>
<pdfrwt beam="1">  1        2 0.42089236E+00 0.24436742E+04</pdfrwt>
<pdfrwt beam="2">  1       -2 0.83951577E-01 0.24436742E+04</pdfrwt>
<totfact> 0.28072569E+00</totfact>
</mgrwt>
</event>
<event>
 6    1  0.9906445E-006  0.1722731E+04  0.7818608E-02  0.8748505E-01
          2   -1    0    0  501    0  0.00000000000E+00  0.00000000000E+00  0.13243998203E+04  0.13243998203E+04  0.00000000000E+00 0. -1.
         -2   -1    0    0    0  501 -0.00000000000E+00 -0.00000000000E+00 -0.56021647793E+03  0.56021647793E+03  0.00000000000E+00 0.  1.
         23    2    1    2    0    0  0.43159614432E+03  0.35007063022E+03 -0.33285745452E+03  0.65485079702E+03  0.95972930509E+02 0.  0.
         11    1    3    3    0    0  0.10312375077E+03  0.13245462881E+03 -0.74303655195E+02  0.18357497063E+03  0.00000000000E+00 0. -1.
        -11    1    3    3    0    0  0.32847239355E+03  0.21761600141E+03 -0.25855379932E+03  0.47127582639E+03  0.00000000000E+00 0.  1.
         22    1    1    2    0    0 -0.43159614432E+03 -0.35007063022E+03  0.10970407968E+04  0.12297655012E+04  0.00000000000E+00 0. -1.
<mgrwt>
<rscale>  0 0.17227311E+04</rscale>
<asrwt>0</asrwt>
<pdfrwt beam="1">  1        2 0.20375382E+00 0.17227311E+04</pdfrwt>
<pdfrwt beam="2">  1       -2 0.86187151E-01 0.17227311E+04</pdfrwt>
<totfact> 0.17741917E+01</totfact>
</mgrwt>
</event>
<event>
 6    1  0.9906445E-006  0.2551132E+04  0.7818608E-02  0.8384993E-01
         -1   -1    0    0    0  501 -0.00000000000E+00  0.00000000000E+00  0.88914492074E+03  0.88914492074E+03  0.00000000000E+00 0.  1.
          1   -1    0    0  501    0  0.00000000000E+00 -0.00000000000E+00 -0.18299246717E+04  0.18299246717E+04  0.00000000000E+00 0. -1.
         23    2    1    2    0    0 -0.65714019325E+03  0.73240325251E+03 -0.13334758362E+04  0.16596084212E+04  0.88851270024E+02 0.  0.
         13    1    3    3    0    0 -0.25947267185E+03  0.26197643982E+03 -0.56591021228E+03  0.67543474209E+03  0.00000000000E+00 0. -1.
        -13    1    3    3    0    0 -0.39766752141E+03  0.47042681268E+03 -0.76756562394E+03  0.98417367914E+03  0.00000000000E+00 0.  1.
         22    1    1    2    0    0  0.65714019325E+03 -0.73240325251E+03  0.39269608527E+03  0.10594611712E+04  0.00000000000E+00 0.  1.
<mgrwt>
<rscale>  0 0.25511317E+04</rscale>
<asrwt>0</asrwt>
<pdfrwt beam="1">  1        1 0.28152687E+00 0.25511317E+04</pdfrwt>
<pdfrwt beam="2">  1       -1 0.13679153E+00 0.25511317E+04</pdfrwt>
<totfact> 0.15309396E+00</totfact>
</mgrwt>
</event>
<event>
 6    1  0.9906445E-006  0.2630441E+04  0.7818608E-02  0.8357934E-01
         -2   -1    0    0    0  501 -0.00000000000E+00  0.00000000000E+00  0.48451030691E+03  0.48451030691E+03  0.00000000000E+00 0.  1.
          2   -1    0    0  501    0  0.00000000000E+00 -0.00000000000E+00 -0.35702135028E+04  0.35702135028E+04  0.00000000000E+00 0. -1.
         23    2    1    2    0    0  0.29167334606E+03  0.13536006841E+03 -0.35080291314E+04  0.35239179274E+04  0.91287915550E+02 0.  0.
         13    1    3    3    0    0  0.20208061904E+03  0.71056854579E+02 -0.18815293891E+04  0.18936838425E+04  0.00000000000E+00 0. -1.
        -13    1    3    3    0    0  0.89592727024E+02  0.64303213832E+02 -0.16264997423E+04  0.16302340849E+04  0.00000000000E+00 0.  1.
         22    1    1    2    0    0 -0.29167334606E+03 -0.13536006841E+03  0.42232593548E+03  0.53080588232E+03  0.00000000000E+00 0.  1.
<mgrwt>
<rscale>  0 0.26304412E+04</rscale>
<asrwt>0</asrwt>
<pdfrwt beam="1">  1        2 0.54926360E+00 0.26304412E+04</pdfrwt>
<pdfrwt beam="2">  1       -2 0.74540049E-01 0.26304412E+04</pdfrwt>
<totfact> 0.10364794E+00</totfact>
</mgrwt>
</event>
<event>
 6    1  0.9906445E-006  0.9163400E+03  0.7818608E-02  0.9405383E-01
         -1   -1    0    0    0  501 -0.00000000000E+00  0.00000000000E+00  0.40617035365E+03  0.40617035365E+03  0.00000000000E+00 0.  1.
          1   -1    0    0  501    0  0.00000000000E+00 -0.00000000000E+00 -0.51682684514E+03  0.51682684514E+03  0.00000000000E+00 0. -1.
         23    2    1    2    0    0 -0.41526298826E+03  0.62595580588E+02 -0.23058498522E+03  0.48625425409E+03  0.83139690190E+02 0.  0.
         11    1    3    3    0    0 -0.37057067190E+03  0.78930853019E+02 -0.21762731229E+03  0.43693746633E+03  0.00000000000E+00 0. -1.
        -11    1    3    3    0    0 -0.44692316365E+02 -0.16335272431E+02 -0.12957672931E+02  0.49316787762E+02  0.00000000000E+00 0.  1.
         22    1    1    2    0    0  0.41526298826E+03 -0.62595580588E+02  0.11992849373E+03  0.43674294469E+03  0.00000000000E+00 0. -1.
<mgrwt>
<rscale>  0 0.91633999E+03</rscale>
<asrwt>0</asrwt>
<pdfrwt beam="1">  1        1 0.79511822E-01 0.91633999E+03</pdfrwt>
<pdfrwt beam="2">  1       -1 0.62487747E-01 0.91633999E+03</pdfrwt>
<totfact> 0.11077069E+02</totfact>
</mgrwt>
</event>
<event>
 6    1  0.9906445E-006  0.1825453E+04  0.7818608E-02  0.8692880E-01
          2   -1    0    0  501    0  0.00000000000E+00  0.00000000000E+00  0.23488543308E+04  0.23488543308E+04  0.00000000000E+00 0. -1.
         -2   -1    0    0    0  501 -0.00000000000E+00 -0.00000000000E+00 -0.35467073002E+03  0.35467073002E+03  0.00000000000E+00 0.  1.
         23    2    1    2    0    0  0.74133032731E+03  0.37335612723E+03  0.15538157284E+04  0.17639031608E+04  0.89697219012E+02 0.  0.
         11    1    3    3    0    0  0.37270656884E+03  0.23000862171E+03  0.86717205372E+03  0.97149447928E+03  0.00000000000E+00 0.  1.
        -11    1    3    3    0    0  0.36862375847E+03  0.14334750552E+03  0.68664367466E+03  0.79240868155E+03  0.00000000000E+00 0. -1.
         22    1    1    2    0    0 -0.74133032731E+03 -0.37335612723E+03  0.44036787242E+03  0.93962190002E+03  0.00000000000E+00 0.  1.
<mgrwt>
<rscale>  0 0.18254532E+04</rscale>
<asrwt>0</asrwt>
<pdfrwt beam="1">  1        2 0.36136220E+00 0.18254532E+04</pdfrwt>
<pdfrwt beam="2">  1       -2 0.54564729E-01 0.18254532E+04</pdfrwt>
<totfact> 0.12671113E+01</totfact>
</mgrwt>
</event>
<event>
 6    1  0.9906445E-006  0.2283980E+04  0.7818608E-02  0.8484265E-01
         -2   -1    0    0    0  501 -0.00000000000E+00  0.00000000000E+00  0.12006529081E+04  0.12006529081E+04  0.00000000000E+00 0.  1.
          2   -1    0    0  501    0  0.00000000000E+00 -0.00000000000E+00 -0.10861930181E+04  0.10861930181E+04  0.00000000000E+00 0. -1.
         23    2    1    2    0    0  0.17311668317E+03 -0.63474010890E+03 -0.87516834199E+03  0.10984737500E+04  0.88659803090E+02 0.  0.
         11    1    3    3    0    0  0.17422062007E+03 -0.51056136187E+03 -0.70020534418E+03  0.88391925690E+03  0.00000000000E+00 0.  1.
        -11    1    3    3    0    0 -0.11039368938E+01 -0.12417874703E+03 -0.17496299781E+03  0.21455449306E+03  0.00000000000E+00 0. -1.
         22    1    1    2    0    0 -0.17311668317E+03  0.63474010890E+03  0.98962823194E+03  0.11883721763E+04  0.00000000000E+00 0.  1.
<mgrwt>
<rscale>  0 0.22839797E+04</rscale>
<asrwt>0</asrwt>
<pdfrwt beam="1">  1        2 0.16710662E+00 0.22839797E+04</pdfrwt>
<pdfrwt beam="2">  1       -2 0.18471583E+00 0.22839797E+04</pdfrwt>
<totfact> 0.33943847E+00</totfact>
</mgrwt>
</event>
<event>
 6    1  0.9906445E-006  0.2133456E+04  0.7818608E-02  0.8546647E-01
          3   -1    0    0  501    0  0.00000000000E+00  0.00000000000E+00  0.21552639411E+04  0.21552639411E+04  0.00000000000E+00 0. -1.
         -3   -1    0    0    0  501 -0.00000000000E+00 -0.00000000000E+00 -0.52796726622E+03  0.52796726622E+03  0.00000000000E+00 0.  1.
         23    2    1    2    0    0 -0.65156503262E+02  0.14396435186E+03  0.21394978406E+04  0.21472077575E+04  0.89883478270E+02 0.  0.
         11    1    3    3    0    0 -0.45261648158E+02  0.32895112323E+02  0.11377428554E+04  0.11391178649E+04  0.00000000000E+00 0. -1.
        -11    1    3    3    0    0 -0.19894855104E+02  0.11106923953E+03  0.10017549852E+04  0.10080898927E+04  0.00000000000E+00 0.  1.
         22    1    1    2    0    0  0.65156503262E+02 -0.14396435186E+03 -0.51220116572E+03  0.53602344976E+03  0.00000000000E+00 0.  1.
<mgrwt>
<rscale>  0 0.21334562E+04</rscale>
<asrwt>0</asrwt>
<pdfrwt beam="1">  1        3 0.33157906E+00 0.21334562E+04</pdfrwt>
<pdfrwt beam="2">  1       -3 0.81225734E-01 0.21334562E+04</pdfrwt>
<totfact> 0.87707127E-02</totfact>
</mgrwt>
</event>
<event>
 6    1  0.9906445E-006  0.3305871E+04  0.7818608E-02  0.8161403E-01
         -2   -1    0    0    0  501 -0.00000000000E+00  0.00000000000E+00  0.20647973941E+04  0.20647973941E+04  0.00000000000E+00 0.  1.
          2   -1    0    0  501    0  0.00000000000E+00 -0.00000000000E+00 -0.13232272525E+04  0.13232272525E+04  0.00000000000E+00 0. -1.
         23    2    1    2    0    0  0.13416664743E+04  0.35214981413E+03 -0.54792161473E+03  0.14941219539E+04  0.90021648812E+02 0.  0.
         13    1    3    3    0    0  0.67983226559E+03  0.19003180400E+03 -0.32562620747E+03  0.77737791509E+03  0.00000000000E+00 0. -1.
        -13    1    3    3    0    0  0.66183420873E+03  0.16211801013E+03 -0.22229540727E+03  0.71674403879E+03  0.00000000000E+00 0.  1.
         22    1    1    2    0    0 -0.13416664743E+04 -0.35214981413E+03  0.12894917563E+04  0.18939026927E+04  0.00000000000E+00 0. -1.
<mgrwt>
<rscale>  0 0.33058713E+04</rscale>
<asrwt>0</asrwt>
<pdfrwt beam="1">  1        2 0.20357342E+00 0.33058713E+04</pdfrwt>
<pdfrwt beam="2">  1       -2 0.31766114E+00 0.33058713E+04</pdfrwt>
<totfact> 0.33107129E-01</totfact>
</mgrwt>
</event>
<event>
 6    1  0.9906445E-006  0.1995188E+04  0.7818608E-02  0.8608874E-01
         -2   -1    0    0    0  501 -0.00000000000E+00  0.00000000000E+00  0.31109230635E+03  0.31109230635E+03  0.00000000000E+00 0.  1.
          2   -1    0    0  501    0  0.00000000000E+00 -0.00000000000E+00 -0.31990308060E+04  0.31990308060E+04  0.00000000000E+00 0. -1.
         23    2    1    2    0    0 -0.70543255164E+03 -0.70240341973E+03 -0.14510239088E+04  0.17620586998E+04  0.91514090224E+02 0.  0.
         13    1    3    3    0    0 -0.48165393321E+03 -0.46915627222E+03 -0.10523088358E+04  0.12487802069E+04  0.00000000000E+00 0. -1.
        -13    1    3    3    0    0 -0.22377861843E+03 -0.23324714750E+03 -0.39871507296E+03  0.51327849292E+03  0.00000000000E+00 0.  1.
         22    1    1    2    0    0  0.70543255164E+03  0.70240341973E+03 -0.14369145908E+04  0.17480644125E+04  0.00000000000E+00 0.  1.
<mgrwt>
<rscale>  0 0.19951881E+04</rscale>
<asrwt>0</asrwt>
<pdfrwt beam="1">  1        2 0.49215861E+00 0.19951881E+04</pdfrwt>
<pdfrwt beam="2">  1       -2 0.47860352E-01 0.19951881E+04</pdfrwt>
<totfact> 0.50104230E+00</totfact>
</mgrwt>
</event>
<event>
 6    1  0.9906445E-006  0.2051551E+04  0.7818608E-02  0.8582891E-01
          2   -1    0    0  501    0  0.00000000000E+00  0.00000000000E+00  0.19126710640E+04  0.19126710640E+04  0.00000000000E+00 0. -1.
         -2   -1    0    0    0  501 -0.00000000000E+00 -0.00000000000E+00 -0.55012898458E+03  0.55012898458E+03  0.00000000000E+00 0.  1.
         23    2    1    2    0    0  0.51137381682E+01 -0.10214321570E+04  0.76820826746E+03  0.12810291395E+04  0.86844184553E+02 0.  0.
         13    1    3    3    0    0  0.13598941770E+02 -0.48761863195E+03  0.41928184756E+03  0.64323722617E+03  0.00000000000E+00 0.  1.
        -13    1    3    3    0    0 -0.84852036014E+01 -0.53381352501E+03  0.34892641990E+03  0.63779191330E+03  0.00000000000E+00 0. -1.
         22    1    1    2    0    0 -0.51137381682E+01  0.10214321570E+04  0.59433381194E+03  0.11817709091E+04  0.00000000000E+00 0. -1.
<mgrwt>
<rscale>  0 0.20515514E+04</rscale>
<asrwt>0</asrwt>
<pdfrwt beam="1">  1        2 0.29425708E+00 0.20515514E+04</pdfrwt>
<pdfrwt beam="2">  1       -2 0.84635229E-01 0.20515514E+04</pdfrwt>
<totfact> 0.84102606E+00</totfact>
</mgrwt>
</event>
<event>
 6    1  0.9906445E-006  0.2860150E+04  0.7818608E-02  0.8284834E-01
          2   -1    0    0  501    0  0.00000000000E+00  0.00000000000E+00  0.21052949239E+04  0.21052949239E+04  0.00000000000E+00 0. -1.
         -2   -1    0    0    0  501 -0.00000000000E+00 -0.00000000000E+00 -0.97141498521E+03  0.97141498521E+03  0.00000000000E+00 0.  1.
         23    2    1    2    0    0  0.77419095578E+03  0.11057252451E+04  0.63955910668E+02  0.13542879575E+04  0.89473792647E+02 0.  0.
         11    1    3    3    0    0  0.37818895055E+03  0.55138126344E+03  0.75997223559E+02  0.67292180674E+03  0.00000000000E+00 0.  1.
        -11    1    3    3    0    0  0.39600200523E+03  0.55434398168E+03 -0.12041312891E+02  0.68136615075E+03  0.00000000000E+00 0. -1.
         22    1    1    2    0    0 -0.77419095578E+03 -0.11057252451E+04  0.10699240280E+04  0.17224219516E+04  0.00000000000E+00 0. -1.
<mgrwt>
<rscale>  0 0.28601504E+04</rscale>
<asrwt>0</asrwt>
<pdfrwt beam="1">  1        2 0.32389153E+00 0.28601504E+04</pdfrwt>
<pdfrwt beam="2">  1       -2 0.14944846E+00 0.28601504E+04</pdfrwt>
<totfact> 0.15289394E+00</totfact>
</mgrwt>
</event>
<event>
 6    1  0.9906445E-006  0.2147090E+04  0.7818608E-02  0.8540779E-01
          1   -1    0    0  501    0  0.00000000000E+00  0.00000000000E+00  0.12317581265E+04  0.12317581265E+04  0.00000000000E+00 0. -1.
         -1   -1    0    0    0  501 -0.00000000000E+00 -0.00000000000E+00 -0.93565312756E+03  0.93565312756E+03  0.00000000000E+00 0.  1.
         23    2    1    2    0    0 -0.37030932568E+03  0.70951202949E+02  0.11608382315E+04  0.12240520260E+04  0.92708644978E+02 0.  0.
         11    1    3    3    0    0 -0.24435022222E+03  0.20125115224E+02  0.85393817414E+03  0.88843821204E+03  0.00000000000E+00 0.  1.
        -11    1    3    3    0    0 -0.12595910346E+03  0.50826087725E+02  0.30690005732E+03  0.33561381396E+03  0.00000000000E+00 0. -1.
         22    1    1    2    0    0  0.37030932568E+03 -0.70951202949E+02 -0.86473323248E+03  0.94335922810E+03  0.00000000000E+00 0.  1.
<mgrwt>
<rscale>  0 0.21470895E+04</rscale>
<asrwt>0</asrwt>
<pdfrwt beam="1">  1        1 0.18950125E+00 0.21470895E+04</pdfrwt>
<pdfrwt beam="2">  1       -1 0.14394664E+00 0.21470895E+04</pdfrwt>
<totfact> 0.36149247E+00</totfact>
</mgrwt>
</event>
<event>
 6    1  0.9906445E-006  0.6035895E+03  0.7818608E-02  0.9897987E-01
         -2   -1    0    0    0  501 -0.00000000000E+00  0.00000000000E+00  0.40609749722E+02  0.40609749722E+02  0.00000000000E+00 0.  1.
          2   -1    0    0  501    0  0.00000000000E+00 -0.00000000000E+00 -0.22428129232E+04  0.22428129232E+04  0.00000000000E+00 0. -1.
         23    2    1    2    0    0  0.43686869916E+02 -0.20428617059E+03 -0.19143271287E+04  0.19277346083E+04  0.88718558557E+02 0.  0.
         13    1    3    3    0    0  0.45020048226E+02 -0.34011657720E+02 -0.43763388471E+03  0.44125617803E+03  0.00000000000E+00 0. -1.
        -13    1    3    3    0    0 -0.13331783098E+01 -0.17027451287E+03 -0.14766932439E+04  0.14864784303E+04  0.00000000000E+00 0.  1.
         22    1    1    2    0    0 -0.43686869916E+02  0.20428617059E+03 -0.28787604483E+03  0.35568806458E+03  0.00000000000E+00 0.  1.
<mgrwt>
<rscale>  0 0.60358950E+03</rscale>
<asrwt>0</asrwt>
<pdfrwt beam="1">  1        2 0.34504830E+00 0.60358950E+03</pdfrwt>
<pdfrwt beam="2">  1       -2 0.62476510E-02 0.60358950E+03</pdfrwt>
<totfact> 0.74099451E+02</totfact>
</mgrwt>
</event>
<event>
 6    1  0.9906445E-006  0.7140048E+03  0.7818608E-02  0.9693577E-01
          2   -1    0    0  501    0  0.00000000000E+00  0.00000000000E+00  0.10321020403E+04  0.10321020403E+04  0.00000000000E+00 0. -1.
         -2   -1    0    0    0  501 -0.00000000000E+00 -0.00000000000E+00 -0.12348653804E+03  0.12348653804E+03  0.00000000000E+00 0.  1.
         23    2    1    2    0    0  0.16181560940E+03 -0.21145672044E+03  0.83258863731E+03  0.87868007313E+03  0.89311790303E+02 0.  0.
         13    1    3    3    0    0 -0.78888011465E+01 -0.54679677116E+00  0.49338915477E+02  0.49968597646E+02  0.00000000000E+00 0. -1.
        -13    1    3    3    0    0  0.16970441054E+03 -0.21090992367E+03  0.78324972183E+03  0.82871147549E+03  0.00000000000E+00 0.  1.
         22    1    1    2    0    0 -0.16181560940E+03  0.21145672044E+03  0.76026864962E+02  0.27690850521E+03  0.00000000000E+00 0.  1.
<mgrwt>
<rscale>  0 0.71400478E+03</rscale>
<asrwt>0</asrwt>
<pdfrwt beam="1">  1        2 0.15878492E+00 0.71400478E+03</pdfrwt>
<pdfrwt beam="2">  1       -2 0.18997930E-01 0.71400478E+03</pdfrwt>
<totfact> 0.56492275E+02</totfact>
</mgrwt>
</event>
<event>
 6    1  0.9906445E-006  0.1242932E+04  0.7818608E-02  0.9076087E-01
          1   -1    0    0  501    0  0.00000000000E+00  0.00000000000E+00  0.11438970147E+04  0.11438970147E+04  0.00000000000E+00 0. -1.
         -1   -1    0    0    0  501 -0.00000000000E+00 -0.00000000000E+00 -0.33763520814E+03  0.33763520814E+03  0.00000000000E+00 0.  1.
         23    2    1    2    0    0  0.52226955461E+03 -0.28143614601E+03  0.61196300405E+03  0.85725358583E+03  0.91723498330E+02 0.  0.
         13    1    3    3    0    0  0.11836295091E+03 -0.51602611493E+02  0.84701957522E+02  0.15442486610E+03  0.00000000000E+00 0. -1.
        -13    1    3    3    0    0  0.40390660370E+03 -0.22983353452E+03  0.52726104652E+03  0.70282871974E+03  0.00000000000E+00 0.  1.
         22    1    1    2    0    0 -0.52226955461E+03  0.28143614601E+03  0.19429880250E+03  0.62427863700E+03  0.00000000000E+00 0.  1.
<mgrwt>
<rscale>  0 0.12429319E+04</rscale>
<asrwt>0</asrwt>
<pdfrwt beam="1">  1        1 0.17598415E+00 0.12429319E+04</pdfrwt>
<pdfrwt beam="2">  1       -1 0.51943879E-01 0.12429319E+04</pdfrwt>
<totfact> 0.43265280E+01</totfact>
</mgrwt>
</event>
<event>
 6    1  0.9906445E-006  0.8177128E+03  0.7818608E-02  0.9534727E-01
          1   -1    0    0  501    0  0.00000000000E+00  0.00000000000E+00  0.94487523777E+03  0.94487523777E+03  0.00000000000E+00 0. -1.
         -1   -1    0    0    0  501 -0.00000000000E+00 -0.00000000000E+00 -0.17691601110E+03  0.17691601110E+03  0.00000000000E+00 0.  1.
         23    2    1    2    0    0 -0.25265666408E+03  0.23855172701E+03  0.10639633226E+03  0.37452437577E+03  0.90587041948E+02 0.  0.
         13    1    3    3    0    0 -0.12684923557E+03  0.12055442650E+03  0.10079332314E+03  0.20194898440E+03  0.00000000000E+00 0.  1.
        -13    1    3    3    0    0 -0.12580742851E+03  0.11799730051E+03  0.56030091260E+01  0.17257539137E+03  0.00000000000E+00 0. -1.
         22    1    1    2    0    0  0.25265666408E+03 -0.23855172701E+03  0.66156289441E+03  0.74726687310E+03  0.00000000000E+00 0. -1.
<mgrwt>
<rscale>  0 0.81771281E+03</rscale>
<asrwt>0</asrwt>
<pdfrwt beam="1">  1        1 0.14536542E+00 0.81771281E+03</pdfrwt>
<pdfrwt beam="2">  1       -1 0.27217848E-01 0.81771281E+03</pdfrwt>
<totfact> 0.20422938E+02</totfact>
</mgrwt>
</event>
<event>
 6    1  0.9906445E-006  0.2566193E+04  0.7818608E-02  0.8379776E-01
         -2   -1    0    0    0  501 -0.00000000000E+00  0.00000000000E+00  0.13761496723E+04  0.13761496723E+04  0.00000000000E+00 0.  1.
          2   -1    0    0  501    0  0.00000000000E+00 -0.00000000000E+00 -0.11963357398E+04  0.11963357398E+04  0.00000000000E+00 0. -1.
         23    2    1    2    0    0 -0.69051688522E+03  0.94102414873E+03  0.62019836696E+03  0.13249765074E+04  0.92610547851E+02 0.  0.
         13    1    3    3    0    0 -0.22999008506E+03  0.35164507679E+03  0.18017932584E+03  0.45718080528E+03  0.00000000000E+00 0.  1.
        -13    1    3    3    0    0 -0.46052680015E+03  0.58937907194E+03  0.44001904113E+03  0.86779570214E+03  0.00000000000E+00 0. -1.
         22    1    1    2    0    0  0.69051688522E+03 -0.94102414873E+03 -0.44038443446E+03  0.12475089047E+04  0.00000000000E+00 0. -1.
<mgrwt>
<rscale>  0 0.25661933E+04</rscale>
<asrwt>0</asrwt>
<pdfrwt beam="1">  1        2 0.18405165E+00 0.25661933E+04</pdfrwt>
<pdfrwt beam="2">  1       -2 0.21171533E+00 0.25661933E+04</pdfrwt>
<totfact> 0.18850177E+00</totfact>
</mgrwt>
</event>
<event>
 6    1  0.9906445E-006  0.1224796E+04  0.7818608E-02  0.9091425E-01
         -1   -1    0    0    0  501 -0.00000000000E+00  0.00000000000E+00  0.96837960624E+03  0.96837960624E+03  0.00000000000E+00 0.  1.
          1   -1    0    0  501    0  0.00000000000E+00 -0.00000000000E+00 -0.38727728426E+03  0.38727728426E+03  0.00000000000E+00 0. -1.
         23    2    1    2    0    0 -0.18874797396E+03  0.57479794989E+02  0.92986055998E+03  0.95495496503E+03  0.91480050936E+02 0.  0.
         13    1    3    3    0    0 -0.16945198048E+03  0.79255702453E+02  0.76455880781E+03  0.78711219699E+03  0.00000000000E+00 0.  1.
        -13    1    3    3    0    0 -0.19295993484E+02 -0.21775907465E+02  0.16530175217E+03  0.16784276804E+03  0.00000000000E+00 0. -1.
         22    1    1    2    0    0  0.18874797396E+03 -0.57479794989E+02 -0.34875823800E+03  0.40070192548E+03  0.00000000000E+00 0. -1.
<mgrwt>
<rscale>  0 0.12247962E+04</rscale>
<asrwt>0</asrwt>
<pdfrwt beam="1">  1        1 0.59581121E-01 0.12247962E+04</pdfrwt>
<pdfrwt beam="2">  1       -1 0.14898148E+00 0.12247962E+04</pdfrwt>
<totfact> 0.21993199E+01</totfact>
</mgrwt>
</event>
<event>
 6    1  0.9906445E-006  0.1418749E+04  0.7818608E-02  0.8940358E-01
         -2   -1    0    0    0  501 -0.00000000000E+00  0.00000000000E+00  0.82374246119E+03  0.82374246119E+03  0.00000000000E+00 0.  1.
          2   -1    0    0  501    0  0.00000000000E+00 -0.00000000000E+00 -0.61088529642E+03  0.61088529642E+03  0.00000000000E+00 0. -1.
         23    2    1    2    0    0  0.38458262969E+03 -0.29552687537E+03 -0.41284887299E+03  0.64295359559E+03  0.87779274475E+02 0.  0.
         13    1    3    3    0    0  0.10808271002E+03 -0.37354010940E+02 -0.10452465922E+03  0.15492772097E+03  0.00000000000E+00 0.  1.
        -13    1    3    3    0    0  0.27649991967E+03 -0.25817286443E+03 -0.30832421377E+03  0.48802587462E+03  0.00000000000E+00 0. -1.
         22    1    1    2    0    0 -0.38458262969E+03  0.29552687537E+03  0.62570603776E+03  0.79167416202E+03  0.00000000000E+00 0.  1.
<mgrwt>
<rscale>  0 0.14187490E+04</rscale>
<asrwt>0</asrwt>
<pdfrwt beam="1">  1        2 0.93982353E-01 0.14187490E+04</pdfrwt>
<pdfrwt beam="2">  1       -2 0.12672961E+00 0.14187490E+04</pdfrwt>
<totfact> 0.21839105E+01</totfact>
</mgrwt>
</event>
<event>
 6    1  0.9906445E-006  0.3160620E+04  0.7818608E-02  0.8199295E-01
          1   -1    0    0  501    0  0.00000000000E+00  0.00000000000E+00  0.11663948214E+04  0.11663948214E+04  0.00000000000E+00 0. -1.
         -1   -1    0    0    0  501 -0.00000000000E+00 -0.00000000000E+00 -0.21411105627E+04  0.21411105627E+04  0.00000000000E+00 0.  1.
         23    2    1    2    0    0  0.31657275018E+03  0.73054775411E+03  0.93911734613E+03  0.12346630326E+04  0.92374710664E+02 0.  0.
         13    1    3    3    0    0  0.15566953502E+03  0.44438066484E+03  0.59952574452E+03  0.76232427336E+03  0.00000000000E+00 0.  1.
        -13    1    3    3    0    0  0.16090321516E+03  0.28616708927E+03  0.33959160162E+03  0.47233875928E+03  0.00000000000E+00 0. -1.
         22    1    1    2    0    0 -0.31657275018E+03 -0.73054775411E+03 -0.19138330875E+04  0.20728423514E+04  0.00000000000E+00 0.  1.
<mgrwt>
<rscale>  0 0.31606204E+04</rscale>
<asrwt>0</asrwt>
<pdfrwt beam="1">  1        1 0.17944536E+00 0.31606204E+04</pdfrwt>
<pdfrwt beam="2">  1       -1 0.32940163E+00 0.31606204E+04</pdfrwt>
<totfact> 0.20165785E-01</totfact>
</mgrwt>
</event>
<event>
 6    1  0.9906445E-006  0.1996035E+04  0.7818608E-02  0.8608477E-01
          1   -1    0    0  501    0  0.00000000000E+00  0.00000000000E+00  0.97767223940E+03  0.97767223940E+03  0.00000000000E+00 0. -1.
         -1   -1    0    0    0  501 -0.00000000000E+00 -0.00000000000E+00 -0.10187856373E+04  0.10187856373E+04  0.00000000000E+00 0.  1.
         23    2    1    2    0    0 -0.13761462696E+03  0.72336432190E+03  0.65037954544E+03  0.98633104385E+03  0.87530835653E+02 0.  0.
         11    1    3    3    0    0  0.12889264651E+01  0.18669522722E+03  0.14882861722E+03  0.23876081442E+03  0.00000000000E+00 0. -1.
        -11    1    3    3    0    0 -0.13890355342E+03  0.53666909468E+03  0.50155092821E+03  0.74757022943E+03  0.00000000000E+00 0.  1.
         22    1    1    2    0    0  0.13761462696E+03 -0.72336432190E+03 -0.69149294330E+03  0.10101268328E+04  0.00000000000E+00 0.  1.
<mgrwt>
<rscale>  0 0.19960345E+04</rscale>
<asrwt>0</asrwt>
<pdfrwt beam="1">  1        1 0.15041111E+00 0.19960345E+04</pdfrwt>
<pdfrwt beam="2">  1       -1 0.15673625E+00 0.19960345E+04</pdfrwt>
<totfact> 0.45249278E+00</totfact>
</mgrwt>
</event>
<event>
 6    1  0.9906445E-006  0.1196227E+04  0.7818608E-02  0.9116165E-01
         -2   -1    0    0    0  501 -0.00000000000E+00  0.00000000000E+00  0.29404768142E+04  0.29404768142E+04  0.00000000000E+00 0.  1.
          2   -1    0    0  501    0  0.00000000000E+00 -0.00000000000E+00 -0.12166048970E+03  0.12166048970E+03  0.00000000000E+00 0. -1.
         23    2    1    2    0    0 -0.14432371890E+03  0.27543658614E+03  0.27149254412E+04  0.27342837322E+04  0.93769549579E+02 0.  0.
         13    1    3    3    0    0 -0.60731294092E+02  0.71826792777E+02  0.52824211057E+03  0.53655112116E+03  0.00000000000E+00 0. -1.
        -13    1    3    3    0    0 -0.83592424803E+02  0.20360979336E+03  0.21866833306E+04  0.21977326111E+04  0.00000000000E+00 0.  1.
         22    1    1    2    0    0  0.14432371890E+03 -0.27543658614E+03  0.10389088335E+03  0.32785357168E+03  0.00000000000E+00 0. -1.
<mgrwt>
<rscale>  0 0.11962272E+04</rscale>
<asrwt>0</asrwt>
<pdfrwt beam="1">  1        2 0.18717001E-01 0.11962272E+04</pdfrwt>
<pdfrwt beam="2">  1       -2 0.45238099E+00 0.11962272E+04</pdfrwt>
<totfact> 0.10372566E+00</totfact>
</mgrwt>
</event>
<event>
 6    1  0.9906445E-006  0.8149474E+04  0.7818608E-02  0.7469264E-01
         -1   -1    0    0    0  501 -0.00000000000E+00  0.00000000000E+00  0.45591489056E+04  0.45591489056E+04  0.00000000000E+00 0.  1.
          1   -1    0    0  501    0  0.00000000000E+00 -0.00000000000E+00 -0.36417940275E+04  0.36417940275E+04  0.00000000000E+00 0. -1.
         23    2    1    2    0    0 -0.67958905055E+03 -0.19118379863E+04 -0.30966756486E+04  0.37032316449E+04  0.86941241853E+02 0.  0.
         11    1    3    3    0    0 -0.33623729281E+03 -0.10525411109E+04 -0.17298582652E+04  0.20526343865E+04  0.00000000000E+00 0.  1.
        -11    1    3    3    0    0 -0.34335175774E+03 -0.85929687536E+03 -0.13668173835E+04  0.16505972584E+04  0.00000000000E+00 0. -1.
         22    1    1    2    0    0  0.67958905055E+03  0.19118379863E+04  0.40140305267E+04  0.44977112883E+04  0.00000000000E+00 0.  1.
<mgrwt>
<rscale>  0 0.81494739E+04</rscale>
<asrwt>0</asrwt>
<pdfrwt beam="1">  1        1 0.56027600E+00 0.81494739E+04</pdfrwt>
<pdfrwt beam="2">  1       -1 0.70140753E+00 0.81494739E+04</pdfrwt>
<totfact> 0.22413739E-05</totfact>
</mgrwt>
</event>
<event>
 6    1  0.9906445E-006  0.3210988E+04  0.7818608E-02  0.8185921E-01
         -2   -1    0    0    0  501 -0.00000000000E+00  0.00000000000E+00  0.85633729140E+03  0.85633729140E+03  0.00000000000E+00 0.  1.
          2   -1    0    0  501    0  0.00000000000E+00 -0.00000000000E+00 -0.30100417610E+04  0.30100417610E+04  0.00000000000E+00 0. -1.
         23    2    1    2    0    0  0.61173674987E+03 -0.13192862018E+04 -0.18936325566E+04  0.23890925760E+04  0.84741630440E+02 0.  0.
         11    1    3    3    0    0  0.48531977899E+03 -0.98471510734E+03 -0.13856241088E+04  0.17678103126E+04  0.00000000000E+00 0.  1.
        -11    1    3    3    0    0  0.12641697088E+03 -0.33457109446E+03 -0.50800844774E+03  0.62128226335E+03  0.00000000000E+00 0. -1.
         22    1    1    2    0    0 -0.61173674987E+03  0.13192862018E+04 -0.26007191301E+03  0.14772864764E+04  0.00000000000E+00 0.  1.
<mgrwt>
<rscale>  0 0.32109880E+04</rscale>
<asrwt>0</asrwt>
<pdfrwt beam="1">  1        2 0.46308336E+00 0.32109880E+04</pdfrwt>
<pdfrwt beam="2">  1       -2 0.13174420E+00 0.32109880E+04</pdfrwt>
<totfact> 0.60570689E-01</totfact>
</mgrwt>
</event>
<event>
 6    1  0.9906445E-006  0.1565472E+04  0.7818608E-02  0.8842045E-01
          1   -1    0    0  501    0  0.00000000000E+00  0.00000000000E+00  0.75381550838E+03  0.75381550838E+03  0.00000000000E+00 0. -1.
         -1   -1    0    0    0  501 -0.00000000000E+00 -0.00000000000E+00 -0.81276597983E+03  0.81276597983E+03  0.00000000000E+00 0.  1.
         23    2    1    2    0    0  0.14521161604E+03 -0.19555170181E+03  0.71189019688E+03  0.75817427804E+03  0.93347211789E+02 0.  0.
         13    1    3    3    0    0  0.15120237085E+02 -0.55822051279E+02  0.28091228539E+03  0.28680382680E+03  0.00000000000E+00 0. -1.
        -13    1    3    3    0    0  0.13009137895E+03 -0.13972965053E+03  0.43097791149E+03  0.47137045124E+03  0.00000000000E+00 0.  1.
         22    1    1    2    0    0 -0.14521161604E+03  0.19555170181E+03 -0.77084066833E+03  0.80840721018E+03  0.00000000000E+00 0.  1.
<mgrwt>
<rscale>  0 0.15654719E+04</rscale>
<asrwt>0</asrwt>
<pdfrwt beam="1">  1        1 0.11597162E+00 0.15654719E+04</pdfrwt>
<pdfrwt beam="2">  1       -1 0.12504092E+00 0.15654719E+04</pdfrwt>
<totfact> 0.13077528E+01</totfact>
</mgrwt>
</event>
<event>
 6    1  0.9906445E-006  0.1509291E+04  0.7818608E-02  0.8878298E-01
         -1   -1    0    0    0  501 -0.00000000000E+00  0.00000000000E+00  0.25846512549E+03  0.25846512549E+03  0.00000000000E+00 0.  1.
          1   -1    0    0  501    0  0.00000000000E+00 -0.00000000000E+00 -0.22033534614E+04  0.22033534614E+04  0.00000000000E+00 0. -1.
         23    2    1    2    0    0  0.95442318573E+01  0.28169472823E+03 -0.21129396198E+04  0.21336658080E+04  0.92590124226E+02 0.  0.
         11    1    3    3    0    0 -0.75817016850E+01  0.16318659916E+03 -0.15202349905E+04  0.15289871728E+04  0.00000000000E+00 0. -1.
        -11    1    3    3    0    0  0.17125933542E+02  0.11850812907E+03 -0.59270462935E+03  0.60467863523E+03  0.00000000000E+00 0.  1.
         22    1    1    2    0    0 -0.95442318573E+01 -0.28169472823E+03  0.16805128389E+03  0.32815277888E+03  0.00000000000E+00 0.  1.
<mgrwt>
<rscale>  0 0.15092913E+04</rscale>
<asrwt>0</asrwt>
<pdfrwt beam="1">  1        1 0.33897745E+00 0.15092913E+04</pdfrwt>
<pdfrwt beam="2">  1       -1 0.39763867E-01 0.15092913E+04</pdfrwt>
<totfact> 0.12914189E+01</totfact>
</mgrwt>
</event>
<event>
 6    1  0.9906445E-006  0.2108980E+04  0.7818608E-02  0.8557298E-01
         -1   -1    0    0    0  501 -0.00000000000E+00  0.00000000000E+00  0.57114037689E+03  0.57114037689E+03  0.00000000000E+00 0.  1.
          1   -1    0    0  501    0  0.00000000000E+00 -0.00000000000E+00 -0.19468927357E+04  0.19468927357E+04  0.00000000000E+00 0. -1.
         23    2    1    2    0    0 -0.11003886610E+03 -0.54649748079E+03  0.37669780755E+03  0.67905251613E+03  0.91885977611E+02 0.  0.
         11    1    3    3    0    0 -0.10902823800E+03 -0.33764422667E+03  0.21447477883E+03  0.41459644383E+03  0.00000000000E+00 0.  1.
        -11    1    3    3    0    0 -0.10106281047E+01 -0.20885325412E+03  0.16222302873E+03  0.26445607230E+03  0.00000000000E+00 0. -1.
         22    1    1    2    0    0  0.11003886610E+03  0.54649748079E+03 -0.17524501664E+04  0.18389805965E+04  0.00000000000E+00 0. -1.
<mgrwt>
<rscale>  0 0.21089799E+04</rscale>
<asrwt>0</asrwt>
<pdfrwt beam="1">  1        1 0.29952196E+00 0.21089799E+04</pdfrwt>
<pdfrwt beam="2">  1       -1 0.87867751E-01 0.21089799E+04</pdfrwt>
<totfact> 0.37885941E+00</totfact>
</mgrwt>
</event>
<event>
 6    1  0.9906445E-006  0.1153172E+04  0.7818608E-02  0.9154862E-01
         -1   -1    0    0    0  501 -0.00000000000E+00  0.00000000000E+00  0.57348323397E+03  0.57348323397E+03  0.00000000000E+00 0.  1.
          1   -1    0    0  501    0  0.00000000000E+00 -0.00000000000E+00 -0.57970523848E+03  0.57970523848E+03  0.00000000000E+00 0. -1.
         23    2    1    2    0    0 -0.36405051080E+03 -0.36846838101E+03 -0.24822019262E+03  0.58146752193E+03  0.90495816545E+02 0.  0.
         11    1    3    3    0    0 -0.32430650321E+03 -0.34107684546E+03 -0.25047289692E+03  0.53314612877E+03  0.00000000000E+00 0.  1.
        -11    1    3    3    0    0 -0.39744007597E+02 -0.27391535550E+02  0.22527043079E+01  0.48321393155E+02  0.00000000000E+00 0. -1.
         22    1    1    2    0    0  0.36405051080E+03  0.36846838101E+03  0.24199818811E+03  0.57172095052E+03  0.00000000000E+00 0.  1.
<mgrwt>
<rscale>  0 0.11531717E+04</rscale>
<asrwt>0</asrwt>
<pdfrwt beam="1">  1        1 0.89185421E-01 0.11531717E+04</pdfrwt>
<pdfrwt beam="2">  1       -1 0.88228190E-01 0.11531717E+04</pdfrwt>
<totfact> 0.45126994E+01</totfact>
</mgrwt>
</event>
<event>
 6    1  0.9906445E-006  0.1936165E+04  0.7818608E-02  0.8637061E-01
         -1   -1    0    0    0  501 -0.00000000000E+00  0.00000000000E+00  0.24260700124E+03  0.24260700124E+03  0.00000000000E+00 0.  1.
          1   -1    0    0  501    0  0.00000000000E+00 -0.00000000000E+00 -0.38629712138E+04  0.38629712138E+04  0.00000000000E+00 0. -1.
         23    2    1    2    0    0 -0.74040993199E+03 -0.47615336554E+03 -0.96926348101E+03  0.13121459206E+04  0.85593962445E+02 0.  0.
         11    1    3    3    0    0 -0.66403515318E+03 -0.40864113912E+03 -0.82121229377E+03  0.11323956449E+04  0.00000000000E+00 0. -1.
        -11    1    3    3    0    0 -0.76374778808E+02 -0.67512226417E+02 -0.14805118724E+03  0.17975027565E+03  0.00000000000E+00 0.  1.
         22    1    1    2    0    0  0.74040993199E+03  0.47615336554E+03 -0.26511007316E+04  0.27934322945E+04  0.00000000000E+00 0. -1.
<mgrwt>
<rscale>  0 0.19361651E+04</rscale>
<asrwt>0</asrwt>
<pdfrwt beam="1">  1        1 0.59430326E+00 0.19361651E+04</pdfrwt>
<pdfrwt beam="2">  1       -1 0.37324154E-01 0.19361651E+04</pdfrwt>
<totfact> 0.81915701E-01</totfact>
</mgrwt>
</event>
<event>
 6    1  0.9906445E-006  0.1386645E+04  0.7818608E-02  0.8963543E-01
         -2   -1    0    0    0  501 -0.00000000000E+00  0.00000000000E+00  0.22220451643E+03  0.22220451643E+03  0.00000000000E+00 0.  1.
          2   -1    0    0  501    0  0.00000000000E+00 -0.00000000000E+00 -0.21633036607E+04  0.21633036607E+04  0.00000000000E+00 0. -1.
         23    2    1    2    0    0 -0.45158619689E+03 -0.51887435631E+03 -0.87513620853E+03  0.11168720310E+04  0.91537201866E+02 0.  0.
         11    1    3    3    0    0 -0.37388700441E+03 -0.39879630947E+03 -0.64030701198E+03  0.84191630113E+03  0.00000000000E+00 0.  1.
        -11    1    3    3    0    0 -0.77699192471E+02 -0.12007804684E+03 -0.23482919655E+03  0.27495572988E+03  0.00000000000E+00 0. -1.
         22    1    1    2    0    0  0.45158619689E+03  0.51887435631E+03 -0.10659629357E+04  0.12686361461E+04  0.00000000000E+00 0. -1.
<mgrwt>
<rscale>  0 0.13866446E+04</rscale>
<asrwt>0</asrwt>
<pdfrwt beam="1">  1        2 0.33281594E+00 0.13866446E+04</pdfrwt>
<pdfrwt beam="2">  1       -2 0.34185311E-01 0.13866446E+04</pdfrwt>
<totfact> 0.42335950E+01</totfact>
</mgrwt>
</event>
<event>
 6    1  0.9906445E-006  0.2667025E+04  0.7818608E-02  0.8345784E-01
         -1   -1    0    0    0  501 -0.00000000000E+00  0.00000000000E+00  0.86267129760E+03  0.86267129760E+03  0.00000000000E+00 0.  1.
          1   -1    0    0  501    0  0.00000000000E+00 -0.00000000000E+00 -0.20613363237E+04  0.20613363237E+04  0.00000000000E+00 0. -1.
         23    2    1    2    0    0  0.92576175805E+03  0.93836219045E+03 -0.39290725696E+03  0.13790791389E+04  0.99622917393E+02 0.  0.
         13    1    3    3    0    0  0.65553925390E+03  0.67513216391E+03 -0.23366120203E+03  0.96960440876E+03  0.00000000000E+00 0.  1.
        -13    1    3    3    0    0  0.27022250415E+03  0.26323002653E+03 -0.15924605493E+03  0.40947473014E+03  0.00000000000E+00 0. -1.
         22    1    1    2    0    0 -0.92576175805E+03 -0.93836219045E+03 -0.80575776912E+03  0.15449284824E+04  0.00000000000E+00 0.  1.
<mgrwt>
<rscale>  0 0.26670251E+04</rscale>
<asrwt>0</asrwt>
<pdfrwt beam="1">  1        1 0.31712866E+00 0.26670251E+04</pdfrwt>
<pdfrwt beam="2">  1       -1 0.13271866E+00 0.26670251E+04</pdfrwt>
<totfact> 0.11405304E+00</totfact>
</mgrwt>
</event>
<event>
 6    1  0.9906445E-006  0.6479152E+03  0.7818608E-02  0.9810699E-01
         -1   -1    0    0    0  501 -0.00000000000E+00  0.00000000000E+00  0.12258077477E+03  0.12258077477E+03  0.00000000000E+00 0.  1.
          1   -1    0    0  501    0  0.00000000000E+00 -0.00000000000E+00 -0.85615805401E+03  0.85615805401E+03  0.00000000000E+00 0. -1.
         23    2    1    2    0    0  0.26773548435E+03  0.13862254146E+03 -0.52604120911E+03  0.61272008747E+03  0.88363189916E+02 0.  0.
         13    1    3    3    0    0  0.45154506531E+02  0.50513134656E+02 -0.68546574293E+02  0.96380179913E+02  0.00000000000E+00 0. -1.
        -13    1    3    3    0    0  0.22258097782E+03  0.88109406808E+02 -0.45749463481E+03  0.51633990756E+03  0.00000000000E+00 0.  1.
         22    1    1    2    0    0 -0.26773548435E+03 -0.13862254146E+03 -0.20753607013E+03  0.36601874131E+03  0.00000000000E+00 0. -1.
<mgrwt>
<rscale>  0 0.64791517E+03</rscale>
<asrwt>0</asrwt>
<pdfrwt beam="1">  1        1 0.13171663E+00 0.64791517E+03</pdfrwt>
<pdfrwt beam="2">  1       -1 0.18858580E-01 0.64791517E+03</pdfrwt>
<totfact> 0.45177243E+02</totfact>
</mgrwt>
</event>
<event>
 6    1  0.9906445E-006  0.3859740E+04  0.7818608E-02  0.8033455E-01
         -2   -1    0    0    0  501 -0.00000000000E+00  0.00000000000E+00  0.12268440015E+04  0.12268440015E+04  0.00000000000E+00 0.  1.
          2   -1    0    0  501    0  0.00000000000E+00 -0.00000000000E+00 -0.30357553158E+04  0.30357553158E+04  0.00000000000E+00 0. -1.
         23    2    1    2    0    0  0.15832037775E+04 -0.47615321856E+03  0.19217109804E+03  0.16669131056E+04  0.91725034425E+02 0.  0.
         11    1    3    3    0    0  0.45581239961E+03 -0.13861819671E+03  0.13693058707E+02  0.47662086395E+03  0.00000000000E+00 0. -1.
        -11    1    3    3    0    0  0.11273913779E+04 -0.33753502185E+03  0.17847803933E+03  0.11902922417E+04  0.00000000000E+00 0.  1.
         22    1    1    2    0    0 -0.15832037775E+04  0.47615321856E+03 -0.20010824123E+04  0.25956862117E+04  0.00000000000E+00 0. -1.
<mgrwt>
<rscale>  0 0.38597400E+04</rscale>
<asrwt>0</asrwt>
<pdfrwt beam="1">  1        2 0.46703927E+00 0.38597400E+04</pdfrwt>
<pdfrwt beam="2">  1       -2 0.18874523E+00 0.38597400E+04</pdfrwt>
<totfact> 0.20832980E-01</totfact>
</mgrwt>
</event>
<event>
 6    1  0.9906445E-006  0.1171738E+04  0.7818608E-02  0.9137961E-01
         -1   -1    0    0    0  501 -0.00000000000E+00  0.00000000000E+00  0.51829074488E+03  0.51829074488E+03  0.00000000000E+00 0.  1.
          1   -1    0    0  501    0  0.00000000000E+00 -0.00000000000E+00 -0.66225825217E+03  0.66225825217E+03  0.00000000000E+00 0. -1.
         23    2    1    2    0    0  0.18527387197E+03 -0.45952832134E+03 -0.38059250629E+03  0.63147334116E+03  0.91734611792E+02 0.  0.
         11    1    3    3    0    0  0.62954095893E+02 -0.16468886895E+03 -0.82254070636E+02  0.19455429546E+03  0.00000000000E+00 0. -1.
        -11    1    3    3    0    0  0.12231977608E+03 -0.29483945239E+03 -0.29833843566E+03  0.43691904570E+03  0.00000000000E+00 0.  1.
         22    1    1    2    0    0 -0.18527387197E+03  0.45952832134E+03  0.23662499899E+03  0.54907565589E+03  0.00000000000E+00 0.  1.
<mgrwt>
<rscale>  0 0.11717377E+04</rscale>
<asrwt>0</asrwt>
<pdfrwt beam="1">  1        1 0.10188588E+00 0.11717377E+04</pdfrwt>
<pdfrwt beam="2">  1       -1 0.79737038E-01 0.11717377E+04</pdfrwt>
<totfact> 0.46166842E+01</totfact>
</mgrwt>
</event>
<event>
 6    1  0.9906445E-006  0.1857393E+04  0.7818608E-02  0.8676360E-01
          2   -1    0    0  501    0  0.00000000000E+00  0.00000000000E+00  0.42017102049E+04  0.42017102049E+04  0.00000000000E+00 0. -1.
         -2   -1    0    0    0  501 -0.00000000000E+00 -0.00000000000E+00 -0.20526806008E+03  0.20526806008E+03  0.00000000000E+00 0.  1.
         23    2    1    2    0    0  0.92124987807E+03  0.48268142822E+02  0.17962298917E+04  0.20211943036E+04  0.88053607020E+02 0.  0.
         13    1    3    3    0    0  0.40197140146E+03  0.17302922666E+01  0.86824395410E+03  0.95678187971E+03  0.00000000000E+00 0. -1.
        -13    1    3    3    0    0  0.51927847661E+03  0.46537850555E+02  0.92798593756E+03  0.10644124239E+04  0.00000000000E+00 0.  1.
         22    1    1    2    0    0 -0.92124987807E+03 -0.48268142822E+02  0.22002122531E+04  0.23857839614E+04  0.00000000000E+00 0. -1.
<mgrwt>
<rscale>  0 0.18573927E+04</rscale>
<asrwt>0</asrwt>
<pdfrwt beam="1">  1        2 0.64641689E+00 0.18573927E+04</pdfrwt>
<pdfrwt beam="2">  1       -2 0.31579705E-01 0.18573927E+04</pdfrwt>
<totfact> 0.20611694E+00</totfact>
</mgrwt>
</event>
<event>
 6    1  0.9906445E-006  0.3477969E+04  0.7818608E-02  0.8119031E-01
          2   -1    0    0  501    0  0.00000000000E+00  0.00000000000E+00  0.26076006956E+04  0.26076006956E+04  0.00000000000E+00 0. -1.
         -2   -1    0    0    0  501 -0.00000000000E+00 -0.00000000000E+00 -0.11597126208E+04  0.11597126208E+04  0.00000000000E+00 0.  1.
         23    2    1    2    0    0 -0.67299445530E+03  0.43742182160E+03  0.23939448878E+04  0.25266349212E+04  0.93018881479E+02 0.  0.
         11    1    3    3    0    0 -0.43806927806E+03  0.26250807394E+03  0.13905121248E+04  0.14813301963E+04  0.00000000000E+00 0.  1.
        -11    1    3    3    0    0 -0.23492517724E+03  0.17491374766E+03  0.10034327631E+04  0.10453047249E+04  0.00000000000E+00 0. -1.
         22    1    1    2    0    0  0.67299445530E+03 -0.43742182160E+03 -0.94605681300E+03  0.12406783952E+04  0.00000000000E+00 0.  1.
<mgrwt>
<rscale>  0 0.34779692E+04</rscale>
<asrwt>0</asrwt>
<pdfrwt beam="1">  1        2 0.40116934E+00 0.34779692E+04</pdfrwt>
<pdfrwt beam="2">  1       -2 0.17841733E+00 0.34779692E+04</pdfrwt>
<totfact> 0.46100822E-01</totfact>
</mgrwt>
</event>
<event>
 6    1  0.9906445E-006  0.7872528E+03  0.7818608E-02  0.9578654E-01
          2   -1    0    0  501    0  0.00000000000E+00  0.00000000000E+00  0.21906694785E+03  0.21906694785E+03  0.00000000000E+00 0. -1.
         -2   -1    0    0    0  501 -0.00000000000E+00 -0.00000000000E+00 -0.70728040250E+03  0.70728040250E+03  0.00000000000E+00 0.  1.
         23    2    1    2    0    0 -0.11971818379E+02 -0.31898186393E+03  0.13082605451E+02  0.33204902978E+03  0.90513256810E+02 0.  0.
         13    1    3    3    0    0 -0.51583098205E+02 -0.17843756767E+03  0.51966622666E+01  0.18581654091E+03  0.00000000000E+00 0.  1.
        -13    1    3    3    0    0  0.39611279825E+02 -0.14054429626E+03  0.78859431849E+01  0.14623248887E+03  0.00000000000E+00 0. -1.
         22    1    1    2    0    0  0.11971818379E+02  0.31898186393E+03 -0.50129606010E+03  0.59429832057E+03  0.00000000000E+00 0.  1.
<mgrwt>
<rscale>  0 0.78725284E+03</rscale>
<asrwt>0</asrwt>
<pdfrwt beam="1">  1        2 0.33702607E-01 0.78725284E+03</pdfrwt>
<pdfrwt beam="2">  1       -2 0.10881237E+00 0.78725284E+03</pdfrwt>
<totfact> 0.10607747E+02</totfact>
</mgrwt>
</event>
<event>
 6    1  0.9906445E-006  0.2291671E+04  0.7818608E-02  0.8481212E-01
          1   -1    0    0  501    0  0.00000000000E+00  0.00000000000E+00  0.15524028223E+04  0.15524028223E+04  0.00000000000E+00 0. -1.
         -1   -1    0    0    0  501 -0.00000000000E+00 -0.00000000000E+00 -0.84574622299E+03  0.84574622299E+03  0.00000000000E+00 0.  1.
         23    2    1    2    0    0  0.69238809298E+03  0.74705758293E+03  0.89867330141E+03  0.13616324186E+04  0.94513687906E+02 0.  0.
         13    1    3    3    0    0  0.21982801966E+03  0.22700771758E+03  0.33769434408E+03  0.46248711559E+03  0.00000000000E+00 0. -1.
        -13    1    3    3    0    0  0.47256007332E+03  0.52004986536E+03  0.56097895733E+03  0.89914530301E+03  0.00000000000E+00 0.  1.
         22    1    1    2    0    0 -0.69238809298E+03 -0.74705758293E+03 -0.19201670209E+03  0.10365166267E+04  0.00000000000E+00 0.  1.
<mgrwt>
<rscale>  0 0.22916709E+04</rscale>
<asrwt>0</asrwt>
<pdfrwt beam="1">  1        1 0.23883120E+00 0.22916709E+04</pdfrwt>
<pdfrwt beam="2">  1       -1 0.13011480E+00 0.22916709E+04</pdfrwt>
<totfact> 0.27542902E+00</totfact>
</mgrwt>
</event>
<event>
 6    1  0.9906445E-006  0.4719927E+04  0.7818608E-02  0.7873226E-01
         -2   -1    0    0    0  501 -0.00000000000E+00  0.00000000000E+00  0.25790399677E+04  0.25790399677E+04  0.00000000000E+00 0.  1.
          2   -1    0    0  501    0  0.00000000000E+00 -0.00000000000E+00 -0.21594965260E+04  0.21594965260E+04  0.00000000000E+00 0. -1.
         23    2    1    2    0    0 -0.88789742833E+03  0.17092294703E+04  0.15774135022E+04  0.24912069001E+04  0.89728684093E+02 0.  0.
         13    1    3    3    0    0 -0.52013734290E+03  0.10948226749E+04  0.98584926414E+03  0.15623950578E+04  0.00000000000E+00 0. -1.
        -13    1    3    3    0    0 -0.36776008543E+03  0.61440679538E+03  0.59156423811E+03  0.92881184233E+03  0.00000000000E+00 0.  1.
         22    1    1    2    0    0  0.88789742833E+03 -0.17092294703E+04 -0.11578700605E+04  0.22473295936E+04  0.00000000000E+00 0. -1.
<mgrwt>
<rscale>  0 0.47199271E+04</rscale>
<asrwt>0</asrwt>
<pdfrwt beam="1">  1        2 0.33223023E+00 0.47199271E+04</pdfrwt>
<pdfrwt beam="2">  1       -2 0.39677538E+00 0.47199271E+04</pdfrwt>
<totfact> 0.31572550E-02</totfact>
</mgrwt>
</event>
<event>
 6    1  0.9906445E-006  0.3203483E+04  0.7818608E-02  0.8187898E-01
          2   -1    0    0  501    0  0.00000000000E+00  0.00000000000E+00  0.32406553508E+04  0.32406553508E+04  0.00000000000E+00 0. -1.
         -2   -1    0    0    0  501 -0.00000000000E+00 -0.00000000000E+00 -0.79168421732E+03  0.79168421732E+03  0.00000000000E+00 0.  1.
         23    2    1    2    0    0  0.76425658907E+03  0.66327073708E+03  0.27862118983E+04  0.29656870764E+04  0.91142132292E+02 0.  0.
         13    1    3    3    0    0  0.46656681809E+03  0.34823023987E+03  0.15558061633E+04  0.16611687794E+04  0.00000000000E+00 0. -1.
        -13    1    3    3    0    0  0.29768977098E+03  0.31504049721E+03  0.12304057350E+04  0.13045182970E+04  0.00000000000E+00 0.  1.
         22    1    1    2    0    0 -0.76425658907E+03 -0.66327073708E+03 -0.33724076484E+03  0.10666524917E+04  0.00000000000E+00 0.  1.
<mgrwt>
<rscale>  0 0.32034829E+04</rscale>
<asrwt>0</asrwt>
<pdfrwt beam="1">  1        2 0.49856235E+00 0.32034829E+04</pdfrwt>
<pdfrwt beam="2">  1       -2 0.12179757E+00 0.32034829E+04</pdfrwt>
<totfact> 0.52478322E-01</totfact>
</mgrwt>
</event>
<event>
 6    1  0.9906445E-006  0.3819288E+04  0.7818608E-02  0.8042028E-01
          1   -1    0    0  501    0  0.00000000000E+00  0.00000000000E+00  0.33538192032E+04  0.33538192032E+04  0.00000000000E+00 0. -1.
         -1   -1    0    0    0  501 -0.00000000000E+00 -0.00000000000E+00 -0.10873393874E+04  0.10873393874E+04  0.00000000000E+00 0.  1.
         23    2    1    2    0    0  0.55067804790E+03 -0.16553790119E+04  0.20338844864E+04  0.26811510416E+04  0.91426572688E+02 0.  0.
         13    1    3    3    0    0  0.25047555539E+03 -0.61256674860E+03  0.77320011727E+03  0.10177496975E+04  0.00000000000E+00 0.  1.
        -13    1    3    3    0    0  0.30020249251E+03 -0.10428122633E+04  0.12606843692E+04  0.16634013441E+04  0.00000000000E+00 0. -1.
         22    1    1    2    0    0 -0.55067804790E+03  0.16553790119E+04  0.23259532937E+03  0.17600075490E+04  0.00000000000E+00 0.  1.
<mgrwt>
<rscale>  0 0.38192877E+04</rscale>
<asrwt>0</asrwt>
<pdfrwt beam="1">  1        1 0.51597218E+00 0.38192877E+04</pdfrwt>
<pdfrwt beam="2">  1       -1 0.16728298E+00 0.38192877E+04</pdfrwt>
<totfact> 0.66406758E-02</totfact>
</mgrwt>
</event>
<event>
 6    1  0.9906445E-006  0.1896867E+04  0.7818608E-02  0.8656418E-01
          2   -1    0    0  501    0  0.00000000000E+00  0.00000000000E+00  0.15479788035E+04  0.15479788035E+04  0.00000000000E+00 0.  1.
         -2   -1    0    0    0  501 -0.00000000000E+00 -0.00000000000E+00 -0.58109700297E+03  0.58109700297E+03  0.00000000000E+00 0. -1.
         23    2    1    2    0    0 -0.74551942179E+03  0.23596449574E+03  0.10825729993E+04  0.13385931027E+04  0.91590087340E+02 0.  0.
         13    1    3    3    0    0 -0.26504214621E+03  0.10856283510E+03  0.33369657666E+03  0.43975747146E+03  0.00000000000E+00 0. -1.
        -13    1    3    3    0    0 -0.48047727558E+03  0.12740166065E+03  0.74887642268E+03  0.89883563121E+03  0.00000000000E+00 0.  1.
         22    1    1    2    0    0  0.74551942179E+03 -0.23596449574E+03 -0.11569119881E+03  0.79048270380E+03  0.00000000000E+00 0. -1.
<mgrwt>
<rscale>  0 0.18968667E+04</rscale>
<asrwt>0</asrwt>
<pdfrwt beam="1">  1        2 0.23815058E+00 0.18968667E+04</pdfrwt>
<pdfrwt beam="2">  1       -2 0.89399539E-01 0.18968667E+04</pdfrwt>
<totfact> 0.11992454E+01</totfact>
</mgrwt>
</event>
<event>
 6    1  0.9906445E-006  0.9921395E+03  0.7818608E-02  0.9317208E-01
         -1   -1    0    0    0  501 -0.00000000000E+00  0.00000000000E+00  0.56997392584E+03  0.56997392584E+03  0.00000000000E+00 0.  1.
          1   -1    0    0  501    0  0.00000000000E+00 -0.00000000000E+00 -0.43174812605E+03  0.43174812605E+03  0.00000000000E+00 0. -1.
         23    2    1    2    0    0 -0.18473961623E+03 -0.39552748300E+03 -0.15934005410E+03  0.47340760669E+03  0.90303895936E+02 0.  0.
         13    1    3    3    0    0 -0.60808977683E+02 -0.20455798104E+03 -0.11149834642E+03  0.24077703510E+03  0.00000000000E+00 0.  1.
        -13    1    3    3    0    0 -0.12393063854E+03 -0.19096950196E+03 -0.47841707680E+02  0.23263057160E+03  0.00000000000E+00 0. -1.
         22    1    1    2    0    0  0.18473961623E+03  0.39552748300E+03  0.29756585389E+03  0.52831444521E+03  0.00000000000E+00 0. -1.
<mgrwt>
<rscale>  0 0.99213945E+03</rscale>
<asrwt>0</asrwt>
<pdfrwt beam="1">  1        1 0.66422789E-01 0.99213945E+03</pdfrwt>
<pdfrwt beam="2">  1       -1 0.87688296E-01 0.99213945E+03</pdfrwt>
<totfact> 0.69528050E+01</totfact>
</mgrwt>
</event>
<event>
 6    1  0.9906445E-006  0.4086763E+04  0.7818608E-02  0.7987269E-01
         -1   -1    0    0    0  501 -0.00000000000E+00  0.00000000000E+00  0.24862972239E+04  0.24862972239E+04  0.00000000000E+00 0.  1.
          1   -1    0    0  501    0  0.00000000000E+00 -0.00000000000E+00 -0.16793681864E+04  0.16793681864E+04  0.00000000000E+00 0. -1.
         23    2    1    2    0    0 -0.17273433131E+04 -0.11205071268E+03  0.15087387409E+04  0.22978305291E+04  0.86384424412E+02 0.  0.
         11    1    3    3    0    0 -0.13790772606E+04 -0.83121187534E+02  0.12483043961E+04  0.18619954586E+04  0.00000000000E+00 0. -1.
        -11    1    3    3    0    0 -0.34826605257E+03 -0.28929525142E+02  0.26043434479E+03  0.43583507058E+03  0.00000000000E+00 0.  1.
         22    1    1    2    0    0  0.17273433131E+04  0.11205071268E+03 -0.70180970340E+03  0.18678348812E+04  0.00000000000E+00 0. -1.
<mgrwt>
<rscale>  0 0.40867632E+04</rscale>
<asrwt>0</asrwt>
<pdfrwt beam="1">  1        1 0.25836434E+00 0.40867632E+04</pdfrwt>
<pdfrwt beam="2">  1       -1 0.38250726E+00 0.40867632E+04</pdfrwt>
<totfact> 0.35979598E-02</totfact>
</mgrwt>
</event>
<event>
 6    1  0.9906445E-006  0.8844856E+03  0.7818608E-02  0.9445186E-01
          2   -1    0    0  501    0  0.00000000000E+00  0.00000000000E+00  0.13256389483E+04  0.13256389483E+04  0.00000000000E+00 0. -1.
         -2   -1    0    0    0  501 -0.00000000000E+00 -0.00000000000E+00 -0.14753542567E+03  0.14753542567E+03  0.00000000000E+00 0.  1.
         23    2    1    2    0    0  0.19889871817E+03  0.15257713561E+03  0.11925991979E+04  0.12220755747E+04  0.91298307802E+02 0.  0.
         11    1    3    3    0    0  0.66282440982E+02  0.24058997926E+01  0.28129838717E+03  0.28901199449E+03  0.00000000000E+00 0.  1.
        -11    1    3    3    0    0  0.13261627719E+03  0.15017123582E+03  0.91130081074E+03  0.93306358020E+03  0.00000000000E+00 0. -1.
         22    1    1    2    0    0 -0.19889871817E+03 -0.15257713561E+03 -0.14495675266E+02  0.25109879928E+03  0.00000000000E+00 0.  1.
<mgrwt>
<rscale>  0 0.88448563E+03</rscale>
<asrwt>0</asrwt>
<pdfrwt beam="1">  1        2 0.20394445E+00 0.88448563E+03</pdfrwt>
<pdfrwt beam="2">  1       -2 0.22697759E-01 0.88448563E+03</pdfrwt>
<totfact> 0.27332418E+02</totfact>
</mgrwt>
</event>
<event>
 6    1  0.9906445E-006  0.4219448E+04  0.7818608E-02  0.7961683E-01
          2   -1    0    0  501    0  0.00000000000E+00  0.00000000000E+00  0.40328895460E+04  0.40328895460E+04  0.00000000000E+00 0.  1.
         -2   -1    0    0    0  501 -0.00000000000E+00 -0.00000000000E+00 -0.11036589179E+04  0.11036589179E+04  0.00000000000E+00 0. -1.
         23    2    1    2    0    0 -0.58781502214E+02  0.15865398090E+04  0.31547231679E+04  0.35329865799E+04  0.95666488899E+02 0.  0.
         13    1    3    3    0    0 -0.40224267199E+02  0.72104925771E+03  0.15367458925E+04  0.16979746647E+04  0.00000000000E+00 0. -1.
        -13    1    3    3    0    0 -0.18557235015E+02  0.86549055129E+03  0.16179772754E+04  0.18350119152E+04  0.00000000000E+00 0.  1.
         22    1    1    2    0    0  0.58781502214E+02 -0.15865398090E+04 -0.22549253974E+03  0.16035618841E+04  0.00000000000E+00 0. -1.
<mgrwt>
<rscale>  0 0.42194476E+04</rscale>
<asrwt>0</asrwt>
<pdfrwt beam="1">  1        2 0.62044454E+00 0.42194476E+04</pdfrwt>
<pdfrwt beam="2">  1       -2 0.16979368E+00 0.42194476E+04</pdfrwt>
<totfact> 0.53094315E-02</totfact>
</mgrwt>
</event>
<event>
 6    1  0.9906445E-006  0.2605730E+04  0.7818608E-02  0.8366257E-01
          1   -1    0    0  501    0  0.00000000000E+00  0.00000000000E+00  0.15065450468E+04  0.15065450468E+04  0.00000000000E+00 0. -1.
         -1   -1    0    0    0  501 -0.00000000000E+00 -0.00000000000E+00 -0.11267222554E+04  0.11267222554E+04  0.00000000000E+00 0.  1.
         23    2    1    2    0    0 -0.59742834500E+03 -0.10897664604E+04  0.58027428040E+03  0.13744216544E+04  0.88346351773E+02 0.  0.
         13    1    3    3    0    0 -0.15452731176E+03 -0.26985439690E+03  0.10413643005E+03  0.32793975311E+03  0.00000000000E+00 0.  1.
        -13    1    3    3    0    0 -0.44290103324E+03 -0.81991206352E+03  0.47613785036E+03  0.10464819013E+04  0.00000000000E+00 0. -1.
         22    1    1    2    0    0  0.59742834500E+03  0.10897664604E+04 -0.20045148904E+03  0.12588456479E+04  0.00000000000E+00 0.  1.
<mgrwt>
<rscale>  0 0.26057305E+04</rscale>
<asrwt>0</asrwt>
<pdfrwt beam="1">  1        1 0.23177616E+00 0.26057305E+04</pdfrwt>
<pdfrwt beam="2">  1       -1 0.17334189E+00 0.26057305E+04</pdfrwt>
<totfact> 0.13254694E+00</totfact>
</mgrwt>
</event>
<event>
 6    1  0.9906445E-006  0.6646837E+03  0.7818608E-02  0.9779610E-01
         -2   -1    0    0    0  501 -0.00000000000E+00  0.00000000000E+00  0.28854131748E+03  0.28854131748E+03  0.00000000000E+00 0.  1.
          2   -1    0    0  501    0  0.00000000000E+00 -0.00000000000E+00 -0.38279129259E+03  0.38279129259E+03  0.00000000000E+00 0. -1.
         23    2    1    2    0    0  0.24813311328E+03  0.16018429498E+03  0.86793649229E+02  0.32491401331E+03  0.10395637660E+03 0.  0.
         11    1    3    3    0    0  0.14906729285E+03  0.34395959755E+02  0.43575486809E+02  0.15906905071E+03  0.00000000000E+00 0. -1.
        -11    1    3    3    0    0  0.99065820435E+02  0.12578833523E+03  0.43218162420E+02  0.16584496260E+03  0.00000000000E+00 0.  1.
         22    1    1    2    0    0 -0.24813311328E+03 -0.16018429498E+03 -0.18104362434E+03  0.34641859676E+03  0.00000000000E+00 0. -1.
<mgrwt>
<rscale>  0 0.66468370E+03</rscale>
<asrwt>0</asrwt>
<pdfrwt beam="1">  1        2 0.58890968E-01 0.66468370E+03</pdfrwt>
<pdfrwt beam="2">  1       -2 0.44390972E-01 0.66468370E+03</pdfrwt>
<totfact> 0.40568995E+02</totfact>
</mgrwt>
</event>
<event>
 6    1  0.9906445E-006  0.6855597E+03  0.7818608E-02  0.9742251E-01
         -1   -1    0    0    0  501 -0.00000000000E+00  0.00000000000E+00  0.14563184144E+03  0.14563184144E+03  0.00000000000E+00 0.  1.
          1   -1    0    0  501    0  0.00000000000E+00 -0.00000000000E+00 -0.80681551633E+03  0.80681551633E+03  0.00000000000E+00 0. -1.
         23    2    1    2    0    0  0.24993387443E+02  0.32089437750E+03 -0.20304798696E+03  0.39254899246E+03  0.96272298981E+02 0.  0.
         11    1    3    3    0    0  0.33085317069E+02  0.19763707464E+03 -0.17462437712E+03  0.26579827795E+03  0.00000000000E+00 0.  1.
        -11    1    3    3    0    0 -0.80919296269E+01  0.12325730286E+03 -0.28423609839E+02  0.12675071451E+03  0.00000000000E+00 0. -1.
         22    1    1    2    0    0 -0.24993387443E+02 -0.32089437750E+03 -0.45813568793E+03  0.55989836531E+03  0.00000000000E+00 0.  1.
<mgrwt>
<rscale>  0 0.68555971E+03</rscale>
<asrwt>0</asrwt>
<pdfrwt beam="1">  1        1 0.12412547E+00 0.68555971E+03</pdfrwt>
<pdfrwt beam="2">  1       -1 0.22404898E-01 0.68555971E+03</pdfrwt>
<totfact> 0.37247018E+02</totfact>
</mgrwt>
</event>
<event>
 6    1  0.9906445E-006  0.2118667E+04  0.7818608E-02  0.8553065E-01
         -1   -1    0    0    0  501 -0.00000000000E+00  0.00000000000E+00  0.64993026850E+03  0.64993026850E+03  0.00000000000E+00 0.  1.
          1   -1    0    0  501    0  0.00000000000E+00 -0.00000000000E+00 -0.17266281529E+04  0.17266281529E+04  0.00000000000E+00 0. -1.
         23    2    1    2    0    0  0.57317119815E+03 -0.80556153847E+03 -0.95961538554E+03  0.13809867634E+04  0.93851680007E+02 0.  0.
         11    1    3    3    0    0  0.24702044764E+03 -0.31845081155E+03 -0.45145156816E+03  0.60517645304E+03  0.00000000000E+00 0. -1.
        -11    1    3    3    0    0  0.32615075051E+03 -0.48711072692E+03 -0.50816381739E+03  0.77581031035E+03  0.00000000000E+00 0.  1.
         22    1    1    2    0    0 -0.57317119815E+03  0.80556153847E+03 -0.11708249884E+03  0.99557165798E+03  0.00000000000E+00 0.  1.
<mgrwt>
<rscale>  0 0.21186674E+04</rscale>
<asrwt>0</asrwt>
<pdfrwt beam="1">  1        1 0.26563510E+00 0.21186674E+04</pdfrwt>
<pdfrwt beam="2">  1       -1 0.99989273E-01 0.21186674E+04</pdfrwt>
<totfact> 0.40006344E+00</totfact>
</mgrwt>
</event>
<event>
 6    1  0.9906445E-006  0.3208968E+04  0.7818608E-02  0.8186453E-01
          1   -1    0    0  501    0  0.00000000000E+00  0.00000000000E+00  0.89362736509E+03  0.89362736509E+03  0.00000000000E+00 0. -1.
         -1   -1    0    0    0  501 -0.00000000000E+00 -0.00000000000E+00 -0.28808076860E+04  0.28808076860E+04  0.00000000000E+00 0.  1.
         23    2    1    2    0    0 -0.10559634165E+04  0.69126948814E+03 -0.21572155686E+04  0.25009264222E+04  0.90231467332E+02 0.  0.
         13    1    3    3    0    0 -0.75402196299E+03  0.46875664038E+03 -0.14444958277E+04  0.16955382936E+04  0.00000000000E+00 0. -1.
        -13    1    3    3    0    0 -0.30194145353E+03  0.22251284777E+03 -0.71271974086E+03  0.80538812866E+03  0.00000000000E+00 0.  1.
         22    1    1    2    0    0  0.10559634165E+04 -0.69126948814E+03  0.17003524772E+03  0.12735086288E+04  0.00000000000E+00 0. -1.
<mgrwt>
<rscale>  0 0.32089678E+04</rscale>
<asrwt>0</asrwt>
<pdfrwt beam="1">  1        1 0.13748113E+00 0.32089678E+04</pdfrwt>
<pdfrwt beam="2">  1       -1 0.44320118E+00 0.32089678E+04</pdfrwt>
<totfact> 0.55447228E-02</totfact>
</mgrwt>
</event>
<event>
 6    1  0.9906445E-006  0.3410405E+04  0.7818608E-02  0.8135357E-01
         -1   -1    0    0    0  501 -0.00000000000E+00  0.00000000000E+00  0.10139814749E+04  0.10139814749E+04  0.00000000000E+00 0.  1.
          1   -1    0    0  501    0  0.00000000000E+00 -0.00000000000E+00 -0.28676224889E+04  0.28676224889E+04  0.00000000000E+00 0. -1.
         23    2    1    2    0    0  0.69974431265E+03 -0.44901726125E+03  0.76537587164E+03  0.11337851832E+04  0.91706121341E+02 0.  0.
         11    1    3    3    0    0  0.34763228069E+03 -0.27013985693E+03  0.37227032163E+03  0.57654916290E+03  0.00000000000E+00 0. -1.
        -11    1    3    3    0    0  0.35211203196E+03 -0.17887740432E+03  0.39310555002E+03  0.55723602026E+03  0.00000000000E+00 0.  1.
         22    1    1    2    0    0 -0.69974431265E+03  0.44901726125E+03 -0.26190168856E+04  0.27478187806E+04  0.00000000000E+00 0. -1.
<mgrwt>
<rscale>  0 0.34104053E+04</rscale>
<asrwt>0</asrwt>
<pdfrwt beam="1">  1        1 0.44117268E+00 0.34104053E+04</pdfrwt>
<pdfrwt beam="2">  1       -1 0.15599715E+00 0.34104053E+04</pdfrwt>
<totfact> 0.19200147E-01</totfact>
</mgrwt>
</event>
<event>
 6    1  0.9906445E-006  0.1788009E+04  0.7818608E-02  0.8712702E-01
          2   -1    0    0  501    0  0.00000000000E+00  0.00000000000E+00  0.51794631242E+03  0.51794631242E+03  0.00000000000E+00 0. -1.
         -2   -1    0    0    0  501 -0.00000000000E+00 -0.00000000000E+00 -0.15431024932E+04  0.15431024932E+04  0.00000000000E+00 0.  1.
         23    2    1    2    0    0  0.63361929031E+03  0.48717092408E+03 -0.58082311141E+02  0.80644098496E+03  0.90358137655E+02 0.  0.
         13    1    3    3    0    0  0.45250774620E+03  0.36701301549E+03 -0.79542108300E+02  0.58803806076E+03  0.00000000000E+00 0.  1.
        -13    1    3    3    0    0  0.18111154410E+03  0.12015790859E+03  0.21459797159E+02  0.21840292420E+03  0.00000000000E+00 0. -1.
         22    1    1    2    0    0 -0.63361929031E+03 -0.48717092408E+03 -0.96707386963E+03  0.12546078207E+04  0.00000000000E+00 0. -1.
<mgrwt>
<rscale>  0 0.17880092E+04</rscale>
<asrwt>0</asrwt>
<pdfrwt beam="1">  1        2 0.79684050E-01 0.17880092E+04</pdfrwt>
<pdfrwt beam="2">  1       -2 0.23740038E+00 0.17880092E+04</pdfrwt>
<totfact> 0.42913646E+00</totfact>
</mgrwt>
</event>
<event>
 6    1  0.9906445E-006  0.3589379E+04  0.7818608E-02  0.8092929E-01
          2   -1    0    0  501    0  0.00000000000E+00  0.00000000000E+00  0.29477736398E+04  0.29477736398E+04  0.00000000000E+00 0. -1.
         -2   -1    0    0    0  501 -0.00000000000E+00 -0.00000000000E+00 -0.10926587492E+04  0.10926587492E+04  0.00000000000E+00 0.  1.
         23    2    1    2    0    0  0.18790385761E+03  0.16185911624E+04  0.17716886782E+04  0.24088365003E+04  0.92017944414E+02 0.  0.
         11    1    3    3    0    0  0.15149198378E+03  0.96923548240E+03  0.10992407195E+04  0.14733286806E+04  0.00000000000E+00 0.  1.
        -11    1    3    3    0    0  0.36411873829E+02  0.64935568002E+03  0.67244795868E+03  0.93550781977E+03  0.00000000000E+00 0. -1.
         22    1    1    2    0    0 -0.18790385761E+03 -0.16185911624E+04  0.83426212385E+02  0.16315958886E+04  0.00000000000E+00 0.  1.
<mgrwt>
<rscale>  0 0.35893791E+04</rscale>
<asrwt>0</asrwt>
<pdfrwt beam="1">  1        2 0.45350363E+00 0.35893791E+04</pdfrwt>
<pdfrwt beam="2">  1       -2 0.16810135E+00 0.35893791E+04</pdfrwt>
<totfact> 0.33646813E-01</totfact>
</mgrwt>
</event>
<event>
 6    1  0.9906445E-006  0.1703835E+04  0.7818608E-02  0.8759180E-01
         -2   -1    0    0    0  501 -0.00000000000E+00  0.00000000000E+00  0.64988815260E+03  0.64988815260E+03  0.00000000000E+00 0.  1.
          2   -1    0    0  501    0  0.00000000000E+00 -0.00000000000E+00 -0.11167517353E+04  0.11167517353E+04  0.00000000000E+00 0. -1.
         23    2    1    2    0    0 -0.20503102664E+03  0.71336794661E+03 -0.66287922068E+03  0.99894614720E+03  0.86907966648E+02 0.  0.
         11    1    3    3    0    0 -0.94341795004E+02  0.20121722118E+03 -0.22267485609E+03  0.31459948493E+03  0.00000000000E+00 0. -1.
        -11    1    3    3    0    0 -0.11068923163E+03  0.51215072543E+03 -0.44020436460E+03  0.68434666228E+03  0.00000000000E+00 0.  1.
         22    1    1    2    0    0  0.20503102664E+03 -0.71336794661E+03  0.19601563800E+03  0.76769374068E+03  0.00000000000E+00 0. -1.
<mgrwt>
<rscale>  0 0.17038353E+04</rscale>
<asrwt>0</asrwt>
<pdfrwt beam="1">  1        2 0.17180796E+00 0.17038353E+04</pdfrwt>
<pdfrwt beam="2">  1       -2 0.99982793E-01 0.17038353E+04</pdfrwt>
<totfact> 0.16726528E+01</totfact>
</mgrwt>
</event>
<event>
 6    1  0.9906445E-006  0.2875765E+04  0.7818608E-02  0.8280125E-01
          2   -1    0    0  501    0  0.00000000000E+00  0.00000000000E+00  0.14882014632E+04  0.14882014632E+04  0.00000000000E+00 0. -1.
         -2   -1    0    0    0  501 -0.00000000000E+00 -0.00000000000E+00 -0.13892646796E+04  0.13892646796E+04  0.00000000000E+00 0.  1.
         23    2    1    2    0    0  0.11947086680E+04  0.26301020340E+03 -0.70378512822E+03  0.14142964205E+04  0.91747968290E+02 0.  0.
         13    1    3    3    0    0  0.60618241538E+03  0.11275168698E+03 -0.40199315731E+03  0.73604929329E+03  0.00000000000E+00 0.  1.
        -13    1    3    3    0    0  0.58852625265E+03  0.15025851641E+03 -0.30179197091E+03  0.67824712717E+03  0.00000000000E+00 0. -1.
         22    1    1    2    0    0 -0.11947086680E+04 -0.26301020340E+03  0.80272191187E+03  0.14631697223E+04  0.00000000000E+00 0. -1.
<mgrwt>
<rscale>  0 0.28757648E+04</rscale>
<asrwt>0</asrwt>
<pdfrwt beam="1">  1        2 0.22895407E+00 0.28757648E+04</pdfrwt>
<pdfrwt beam="2">  1       -2 0.21373303E+00 0.28757648E+04</pdfrwt>
<totfact> 0.12079645E+00</totfact>
</mgrwt>
</event>
<event>
 6    1  0.9906445E-006  0.2331059E+04  0.7818608E-02  0.8465775E-01
          1   -1    0    0  501    0  0.00000000000E+00  0.00000000000E+00  0.24056227533E+04  0.24056227533E+04  0.00000000000E+00 0. -1.
         -1   -1    0    0    0  501 -0.00000000000E+00 -0.00000000000E+00 -0.56470155439E+03  0.56470155439E+03  0.00000000000E+00 0.  1.
         23    2    1    2    0    0  0.59816199821E+03  0.99369999281E+03  0.10442844057E+04  0.15632466154E+04  0.89289466199E+02 0.  0.
         13    1    3    3    0    0  0.13927579170E+03  0.23767806759E+03  0.19869796112E+03  0.33966084514E+03  0.00000000000E+00 0. -1.
        -13    1    3    3    0    0  0.45888620651E+03  0.75602192522E+03  0.84558644462E+03  0.12235857703E+04  0.00000000000E+00 0.  1.
         22    1    1    2    0    0 -0.59816199821E+03 -0.99369999281E+03  0.79663679318E+03  0.14070776923E+04  0.00000000000E+00 0.  1.
<mgrwt>
<rscale>  0 0.23310589E+04</rscale>
<asrwt>0</asrwt>
<pdfrwt beam="1">  1        1 0.37009580E+00 0.23310589E+04</pdfrwt>
<pdfrwt beam="2">  1       -1 0.86877163E-01 0.23310589E+04</pdfrwt>
<totfact> 0.18526429E+00</totfact>
</mgrwt>
</event>
<event>
 6    1  0.9906445E-006  0.2286604E+04  0.7818608E-02  0.8483222E-01
          1   -1    0    0  501    0  0.00000000000E+00  0.00000000000E+00  0.18201982381E+04  0.18201982381E+04  0.00000000000E+00 0. -1.
         -1   -1    0    0    0  501 -0.00000000000E+00 -0.00000000000E+00 -0.71813052779E+03  0.71813052779E+03  0.00000000000E+00 0.  1.
         23    2    1    2    0    0 -0.76567528100E+03 -0.53025881658E+03  0.12845236123E+04  0.15892643820E+04  0.91254134393E+02 0.  0.
         13    1    3    3    0    0 -0.45709427128E+03 -0.32607668240E+03  0.84773124479E+03  0.10168133747E+04  0.00000000000E+00 0. -1.
        -13    1    3    3    0    0 -0.30858100972E+03 -0.20418213418E+03  0.43679236749E+03  0.57245100731E+03  0.00000000000E+00 0.  1.
         22    1    1    2    0    0  0.76567528100E+03  0.53025881658E+03 -0.18245590197E+03  0.94906438383E+03  0.00000000000E+00 0.  1.
<mgrwt>
<rscale>  0 0.22866044E+04</rscale>
<asrwt>0</asrwt>
<pdfrwt beam="1">  1        1 0.28003050E+00 0.22866044E+04</pdfrwt>
<pdfrwt beam="2">  1       -1 0.11048162E+00 0.22866044E+04</pdfrwt>
<totfact> 0.26976134E+00</totfact>
</mgrwt>
</event>
<event>
 6    1  0.9906445E-006  0.5530129E+04  0.7818608E-02  0.7751557E-01
         -1   -1    0    0    0  501 -0.00000000000E+00  0.00000000000E+00  0.28875885306E+04  0.28875885306E+04  0.00000000000E+00 0.  1.
          1   -1    0    0  501    0  0.00000000000E+00 -0.00000000000E+00 -0.26477396149E+04  0.26477396149E+04  0.00000000000E+00 0. -1.
         23    2    1    2    0    0  0.14972406091E+04  0.50105998282E+03 -0.21512234425E+04  0.26700153231E+04  0.91809468047E+02 0.  0.
         13    1    3    3    0    0  0.86567003714E+03  0.25603178111E+03 -0.12832851097E+04  0.15689989034E+04  0.00000000000E+00 0. -1.
        -13    1    3    3    0    0  0.63157057197E+03  0.24502820171E+03 -0.86793833273E+03  0.11010164197E+04  0.00000000000E+00 0.  1.
         22    1    1    2    0    0 -0.14972406091E+04 -0.50105998282E+03  0.23910723582E+04  0.28653128224E+04  0.00000000000E+00 0.  1.
<mgrwt>
<rscale>  0 0.55301293E+04</rscale>
<asrwt>0</asrwt>
<pdfrwt beam="1">  1        1 0.40734456E+00 0.55301293E+04</pdfrwt>
<pdfrwt beam="2">  1       -1 0.44424439E+00 0.55301293E+04</pdfrwt>
<totfact> 0.26307927E-03</totfact>
</mgrwt>
</event>
<event>
 6    1  0.9906445E-006  0.1556555E+04  0.7818608E-02  0.8847692E-01
         -1   -1    0    0    0  501 -0.00000000000E+00  0.00000000000E+00  0.74678264277E+03  0.74678264277E+03  0.00000000000E+00 0.  1.
          1   -1    0    0  501    0  0.00000000000E+00 -0.00000000000E+00 -0.81110066782E+03  0.81110066782E+03  0.00000000000E+00 0. -1.
         23    2    1    2    0    0 -0.67598689881E+03  0.36923929280E+03  0.58452289830E+02  0.77790350769E+03  0.91767392818E+02 0.  0.
         11    1    3    3    0    0 -0.63756776490E+03  0.36316268473E+03  0.39950049583E+02  0.73483045451E+03  0.00000000000E+00 0. -1.
        -11    1    3    3    0    0 -0.38419133907E+02  0.60766080714E+01  0.18502240247E+02  0.43073053177E+02  0.00000000000E+00 0.  1.
         22    1    1    2    0    0  0.67598689881E+03 -0.36923929280E+03 -0.12277031488E+03  0.77997980289E+03  0.00000000000E+00 0.  1.
<mgrwt>
<rscale>  0 0.15565550E+04</rscale>
<asrwt>0</asrwt>
<pdfrwt beam="1">  1        1 0.12478472E+00 0.15565550E+04</pdfrwt>
<pdfrwt beam="2">  1       -1 0.11488964E+00 0.15565550E+04</pdfrwt>
<totfact> 0.14329455E+01</totfact>
</mgrwt>
</event>
<event>
 6    1  0.9906445E-006  0.1750487E+04  0.7818608E-02  0.8733083E-01
          2   -1    0    0  501    0  0.00000000000E+00  0.00000000000E+00  0.15665692171E+04  0.15665692171E+04  0.00000000000E+00 0. -1.
         -2   -1    0    0    0  501 -0.00000000000E+00 -0.00000000000E+00 -0.48899899691E+03  0.48899899691E+03  0.00000000000E+00 0.  1.
         23    2    1    2    0    0  0.80566139625E+02 -0.20820691281E+03  0.15311605532E+04  0.15500138533E+04  0.90825570223E+02 0.  0.
         13    1    3    3    0    0  0.57813444487E+02 -0.11439572887E+03  0.11371456896E+04  0.11443465806E+04  0.00000000000E+00 0. -1.
        -13    1    3    3    0    0  0.22752695137E+02 -0.93811183935E+02  0.39401486363E+03  0.40566727269E+03  0.00000000000E+00 0.  1.
         22    1    1    2    0    0 -0.80566139625E+02  0.20820691281E+03 -0.45359033305E+03  0.50555436071E+03  0.00000000000E+00 0.  1.
<mgrwt>
<rscale>  0 0.17504865E+04</rscale>
<asrwt>0</asrwt>
<pdfrwt beam="1">  1        2 0.24101065E+00 0.17504865E+04</pdfrwt>
<pdfrwt beam="2">  1       -2 0.75230616E-01 0.17504865E+04</pdfrwt>
<totfact> 0.17501300E+01</totfact>
</mgrwt>
</event>
<event>
 6    1  0.9906445E-006  0.5201535E+04  0.7818608E-02  0.7798149E-01
          1   -1    0    0  501    0  0.00000000000E+00  0.00000000000E+00  0.23677188253E+04  0.23677188253E+04  0.00000000000E+00 0. -1.
         -1   -1    0    0    0  501 -0.00000000000E+00 -0.00000000000E+00 -0.28567548769E+04  0.28567548769E+04  0.00000000000E+00 0.  1.
         23    2    1    2    0    0 -0.11498053203E+04 -0.18919567489E+04  0.11246033662E+04  0.24848779683E+04  0.91286209821E+02 0.  0.
         13    1    3    3    0    0 -0.71200132664E+03 -0.11612385203E+04  0.64224662766E+03  0.15059553516E+04  0.00000000000E+00 0.  1.
        -13    1    3    3    0    0 -0.43780399368E+03 -0.73071822858E+03  0.48235673850E+03  0.97892261677E+03  0.00000000000E+00 0. -1.
         22    1    1    2    0    0  0.11498053203E+04  0.18919567489E+04 -0.16136394178E+04  0.27395957338E+04  0.00000000000E+00 0.  1.
<mgrwt>
<rscale>  0 0.52015353E+04</rscale>
<asrwt>0</asrwt>
<pdfrwt beam="1">  1        1 0.36426444E+00 0.52015353E+04</pdfrwt>
<pdfrwt beam="2">  1       -1 0.43950075E+00 0.52015353E+04</pdfrwt>
<totfact> 0.45526871E-03</totfact>
</mgrwt>
</event>
<event>
 6    1  0.9906445E-006  0.2109038E+04  0.7818608E-02  0.8557273E-01
         -2   -1    0    0    0  501 -0.00000000000E+00  0.00000000000E+00  0.38393705248E+03  0.38393705248E+03  0.00000000000E+00 0. -1.
          2   -1    0    0  501    0  0.00000000000E+00 -0.00000000000E+00 -0.28963345486E+04  0.28963345486E+04  0.00000000000E+00 0.  1.
         23    2    1    2    0    0 -0.44167289427E+03  0.32881059812E+03 -0.26536106833E+04  0.27118241372E+04  0.95651123913E+02 0.  0.
         13    1    3    3    0    0 -0.30747909063E+03  0.17334657112E+03 -0.16201063390E+04  0.16581124734E+04  0.00000000000E+00 0.  1.
        -13    1    3    3    0    0 -0.13419380364E+03  0.15546402700E+03 -0.10335043443E+04  0.10537116637E+04  0.00000000000E+00 0. -1.
         22    1    1    2    0    0  0.44167289427E+03 -0.32881059812E+03  0.14121318719E+03  0.56844746389E+03  0.00000000000E+00 0. -1.
<mgrwt>
<rscale>  0 0.21090378E+04</rscale>
<asrwt>0</asrwt>
<pdfrwt beam="1">  1        2 0.44558992E+00 0.21090378E+04</pdfrwt>
<pdfrwt beam="2">  1       -2 0.59067240E-01 0.21090378E+04</pdfrwt>
<totfact> 0.49854521E+00</totfact>
</mgrwt>
</event>
<event>
 6    1  0.9906445E-006  0.1095824E+04  0.7818608E-02  0.9209272E-01
          2   -1    0    0  501    0  0.00000000000E+00  0.00000000000E+00  0.10527673264E+04  0.10527673264E+04  0.00000000000E+00 0. -1.
         -2   -1    0    0    0  501 -0.00000000000E+00 -0.00000000000E+00 -0.28516014975E+03  0.28516014975E+03  0.00000000000E+00 0.  1.
         23    2    1    2    0    0  0.36802971390E+03  0.22354310216E+03 -0.21418796864E+02  0.43905074616E+03  0.83002433772E+02 0.  0.
         13    1    3    3    0    0  0.26242534877E+03  0.12639912567E+03  0.12715742188E+02  0.29155701457E+03  0.00000000000E+00 0. -1.
        -13    1    3    3    0    0  0.10560436513E+03  0.97143976487E+02 -0.34134539052E+02  0.14749373159E+03  0.00000000000E+00 0.  1.
         22    1    1    2    0    0 -0.36802971390E+03 -0.22354310216E+03  0.78902597354E+03  0.89887673001E+03  0.00000000000E+00 0. -1.
<mgrwt>
<rscale>  0 0.10958235E+04</rscale>
<asrwt>0</asrwt>
<pdfrwt beam="1">  1        2 0.16196420E+00 0.10958235E+04</pdfrwt>
<pdfrwt beam="2">  1       -2 0.43870793E-01 0.10958235E+04</pdfrwt>
<totfact> 0.11402005E+02</totfact>
</mgrwt>
</event>
<event>
 6    1  0.9906445E-006  0.1671666E+04  0.7818608E-02  0.8777691E-01
         -2   -1    0    0    0  501 -0.00000000000E+00  0.00000000000E+00  0.27816833214E+03  0.27816833214E+03  0.00000000000E+00 0.  1.
          2   -1    0    0  501    0  0.00000000000E+00 -0.00000000000E+00 -0.25114885448E+04  0.25114885448E+04  0.00000000000E+00 0. -1.
         23    2    1    2    0    0 -0.20495751432E+02 -0.62709995963E+03 -0.20350538032E+04  0.21316416763E+04  0.93690014831E+02 0.  0.
         13    1    3    3    0    0  0.33900415066E+01 -0.46720189380E+03 -0.13805635259E+04  0.14574789024E+04  0.00000000000E+00 0.  1.
        -13    1    3    3    0    0 -0.23885792939E+02 -0.15989806583E+03 -0.65449027729E+03  0.67416277383E+03  0.00000000000E+00 0. -1.
         22    1    1    2    0    0  0.20495751432E+02  0.62709995963E+03 -0.19826640945E+03  0.65801520067E+03  0.00000000000E+00 0.  1.
<mgrwt>
<rscale>  0 0.16716657E+04</rscale>
<asrwt>0</asrwt>
<pdfrwt beam="1">  1        2 0.38638287E+00 0.16716657E+04</pdfrwt>
<pdfrwt beam="2">  1       -2 0.42795126E-01 0.16716657E+04</pdfrwt>
<totfact> 0.16954090E+01</totfact>
</mgrwt>
</event>
<event>
 6    1  0.9906445E-006  0.1488929E+04  0.7818608E-02  0.8891848E-01
         -2   -1    0    0    0  501 -0.00000000000E+00  0.00000000000E+00  0.26280680837E+03  0.26280680837E+03  0.00000000000E+00 0.  1.
          2   -1    0    0  501    0  0.00000000000E+00 -0.00000000000E+00 -0.21088789804E+04  0.21088789804E+04  0.00000000000E+00 0. -1.
         23    2    1    2    0    0 -0.71768271291E+02 -0.71956091080E+03 -0.11887940272E+04  0.13944789791E+04  0.91770338460E+02 0.  0.
         11    1    3    3    0    0 -0.43986602372E+02 -0.32566065930E+03 -0.62539674360E+03  0.70647772301E+03  0.00000000000E+00 0.  1.
        -11    1    3    3    0    0 -0.27781668919E+02 -0.39390025150E+03 -0.56339728362E+03  0.68800125614E+03  0.00000000000E+00 0. -1.
         22    1    1    2    0    0  0.71768271291E+02  0.71956091080E+03 -0.65727814479E+03  0.97720680960E+03  0.00000000000E+00 0.  1.
<mgrwt>
<rscale>  0 0.14889295E+04</rscale>
<asrwt>0</asrwt>
<pdfrwt beam="1">  1        2 0.32444294E+00 0.14889295E+04</pdfrwt>
<pdfrwt beam="2">  1       -2 0.40431815E-01 0.14889295E+04</pdfrwt>
<totfact> 0.32554197E+01</totfact>
</mgrwt>
</event>
<event>
 6    1  0.9906445E-006  0.7432924E+03  0.7818608E-02  0.9645933E-01
         -1   -1    0    0    0  501 -0.00000000000E+00  0.00000000000E+00  0.11187327389E+03  0.11187327389E+03  0.00000000000E+00 0.  1.
          1   -1    0    0  501    0  0.00000000000E+00 -0.00000000000E+00 -0.12346193544E+04  0.12346193544E+04  0.00000000000E+00 0. -1.
         23    2    1    2    0    0 -0.31229383846E+03  0.92795027548E+02 -0.26757013299E+03  0.43136189451E+03  0.91328797719E+02 0.  0.
         11    1    3    3    0    0 -0.19996124205E+03  0.95900053324E+02 -0.20857526414E+03  0.30444204598E+03  0.00000000000E+00 0. -1.
        -11    1    3    3    0    0 -0.11233259641E+03 -0.31050257761E+01 -0.58994868853E+02  0.12691984853E+03  0.00000000000E+00 0.  1.
         22    1    1    2    0    0  0.31229383846E+03 -0.92795027548E+02 -0.85517594753E+03  0.91513073378E+03  0.00000000000E+00 0. -1.
<mgrwt>
<rscale>  0 0.74329243E+03</rscale>
<asrwt>0</asrwt>
<pdfrwt beam="1">  1        1 0.18994142E+00 0.74329243E+03</pdfrwt>
<pdfrwt beam="2">  1       -1 0.17211275E-01 0.74329243E+03</pdfrwt>
<totfact> 0.26844042E+02</totfact>
</mgrwt>
</event>
<event>
 6    1  0.9906445E-006  0.9130455E+03  0.7818608E-02  0.9409419E-01
          1   -1    0    0  501    0  0.00000000000E+00  0.00000000000E+00  0.10016649158E+04  0.10016649158E+04  0.00000000000E+00 0. -1.
         -1   -1    0    0    0  501 -0.00000000000E+00 -0.00000000000E+00 -0.20806660753E+03  0.20806660753E+03  0.00000000000E+00 0.  1.
         23    2    1    2    0    0 -0.19824196266E+03 -0.19767480983E+03 -0.69138181631E+02  0.30270922083E+03  0.92073764021E+02 0.  0.
         13    1    3    3    0    0 -0.10955681954E+03 -0.13345566645E+03  0.10161973380E+01  0.17266772794E+03  0.00000000000E+00 0. -1.
        -13    1    3    3    0    0 -0.88685143112E+02 -0.64219143379E+02 -0.70154378969E+02  0.13004149289E+03  0.00000000000E+00 0.  1.
         22    1    1    2    0    0  0.19824196266E+03  0.19767480983E+03  0.86273648987E+03  0.90702230245E+03  0.00000000000E+00 0. -1.
<mgrwt>
<rscale>  0 0.91304550E+03</rscale>
<asrwt>0</asrwt>
<pdfrwt beam="1">  1        1 0.15410229E+00 0.91304550E+03</pdfrwt>
<pdfrwt beam="2">  1       -1 0.32010248E-01 0.91304550E+03</pdfrwt>
<totfact> 0.13805820E+02</totfact>
</mgrwt>
</event>
<event>
 6    1  0.9906445E-006  0.2704612E+04  0.7818608E-02  0.8333510E-01
         -1   -1    0    0    0  501 -0.00000000000E+00  0.00000000000E+00  0.80776209904E+03  0.80776209904E+03  0.00000000000E+00 0.  1.
          1   -1    0    0  501    0  0.00000000000E+00 -0.00000000000E+00 -0.22639481426E+04  0.22639481426E+04  0.00000000000E+00 0. -1.
         23    2    1    2    0    0 -0.97965694420E+03  0.63996442588E+03 -0.14950987556E+04  0.19009000974E+04  0.93907915290E+02 0.  0.
         11    1    3    3    0    0 -0.36735845810E+03  0.21903882708E+03 -0.47979132464E+03  0.64275186480E+03  0.00000000000E+00 0.  1.
        -11    1    3    3    0    0 -0.61229848610E+03  0.42092559881E+03 -0.10153074310E+04  0.12581482326E+04  0.00000000000E+00 0. -1.
         22    1    1    2    0    0  0.97965694420E+03 -0.63996442588E+03  0.38912712044E+02  0.11708101442E+04  0.00000000000E+00 0.  1.
<mgrwt>
<rscale>  0 0.27046120E+04</rscale>
<asrwt>0</asrwt>
<pdfrwt beam="1">  1        1 0.34829971E+00 0.27046120E+04</pdfrwt>
<pdfrwt beam="2">  1       -1 0.12427110E+00 0.27046120E+04</pdfrwt>
<totfact> 0.97607853E-01</totfact>
</mgrwt>
</event>
<event>
 6    1  0.9906445E-006  0.3365826E+04  0.7818608E-02  0.8146345E-01
          1   -1    0    0  501    0  0.00000000000E+00  0.00000000000E+00  0.15649393088E+04  0.15649393088E+04  0.00000000000E+00 0. -1.
         -1   -1    0    0    0  501 -0.00000000000E+00 -0.00000000000E+00 -0.18097798493E+04  0.18097798493E+04  0.00000000000E+00 0.  1.
         23    2    1    2    0    0 -0.37434530059E+02 -0.16015713145E+04  0.38974187011E+03  0.16516037077E+04  0.97283413422E+02 0.  0.
         11    1    3    3    0    0 -0.99123534970E+00 -0.13962177893E+04  0.34736493328E+03  0.14387798632E+04  0.00000000000E+00 0. -1.
        -11    1    3    3    0    0 -0.36443294709E+02 -0.20535352517E+03  0.42376936829E+02  0.21282384454E+03  0.00000000000E+00 0.  1.
         22    1    1    2    0    0  0.37434530059E+02  0.16015713145E+04 -0.63458241068E+03  0.17231154504E+04  0.00000000000E+00 0.  1.
<mgrwt>
<rscale>  0 0.33658257E+04</rscale>
<asrwt>0</asrwt>
<pdfrwt beam="1">  1        1 0.24075990E+00 0.33658257E+04</pdfrwt>
<pdfrwt beam="2">  1       -1 0.27842767E+00 0.33658257E+04</pdfrwt>
<totfact> 0.22174006E-01</totfact>
</mgrwt>
</event>
<event>
 6    1  0.9906445E-006  0.7140987E+03  0.7818608E-02  0.9693421E-01
          2   -1    0    0  501    0  0.00000000000E+00  0.00000000000E+00  0.63965666583E+03  0.63965666583E+03  0.00000000000E+00 0. -1.
         -2   -1    0    0    0  501 -0.00000000000E+00 -0.00000000000E+00 -0.19930103076E+03  0.19930103076E+03  0.00000000000E+00 0.  1.
         23    2    1    2    0    0 -0.16317390491E+03  0.30701574171E+03  0.28236242254E+03  0.45705948488E+03  0.91051887141E+02 0.  0.
         13    1    3    3    0    0 -0.11581386439E+02  0.98711469782E+02  0.55789847543E+02  0.11397626888E+03  0.00000000000E+00 0.  1.
        -13    1    3    3    0    0 -0.15159251847E+03  0.20830427193E+03  0.22657257500E+03  0.34308321600E+03  0.00000000000E+00 0. -1.
         22    1    1    2    0    0  0.16317390491E+03 -0.30701574171E+03  0.15799321253E+03  0.38189821171E+03  0.00000000000E+00 0.  1.
<mgrwt>
<rscale>  0 0.71409868E+03</rscale>
<asrwt>0</asrwt>
<pdfrwt beam="1">  1        2 0.98408717E-01 0.71409868E+03</pdfrwt>
<pdfrwt beam="2">  1       -2 0.30661697E-01 0.71409868E+03</pdfrwt>
<totfact> 0.45420347E+02</totfact>
</mgrwt>
</event>
<event>
 6    1  0.9906445E-006  0.1978256E+04  0.7818608E-02  0.8616855E-01
         -2   -1    0    0    0  501 -0.00000000000E+00  0.00000000000E+00  0.10438873747E+04  0.10438873747E+04  0.00000000000E+00 0.  1.
          2   -1    0    0  501    0  0.00000000000E+00 -0.00000000000E+00 -0.93724076485E+03  0.93724076485E+03  0.00000000000E+00 0. -1.
         23    2    1    2    0    0 -0.45259302646E+03 -0.79232087524E+03 -0.32325263314E+03  0.97245268326E+03  0.92515617087E+02 0.  0.
         11    1    3    3    0    0 -0.14036841428E+03 -0.18385198824E+03 -0.10955470769E+03  0.25594350800E+03  0.00000000000E+00 0.  1.
        -11    1    3    3    0    0 -0.31222461219E+03 -0.60846888700E+03 -0.21369792545E+03  0.71650917527E+03  0.00000000000E+00 0. -1.
         22    1    1    2    0    0  0.45259302646E+03  0.79232087524E+03  0.42989924296E+03  0.10086754562E+04  0.00000000000E+00 0.  1.
<mgrwt>
<rscale>  0 0.19782556E+04</rscale>
<asrwt>0</asrwt>
<pdfrwt beam="1">  1        2 0.14419089E+00 0.19782556E+04</pdfrwt>
<pdfrwt beam="2">  1       -2 0.16059806E+00 0.19782556E+04</pdfrwt>
<totfact> 0.64225624E+00</totfact>
</mgrwt>
</event>
<event>
 6    1  0.9906445E-006  0.1828106E+04  0.7818608E-02  0.8691494E-01
          2   -1    0    0  501    0  0.00000000000E+00  0.00000000000E+00  0.28991628647E+04  0.28991628647E+04  0.00000000000E+00 0. -1.
         -2   -1    0    0    0  501 -0.00000000000E+00 -0.00000000000E+00 -0.28818418762E+03  0.28818418762E+03  0.00000000000E+00 0.  1.
         23    2    1    2    0    0  0.32836242780E+03  0.82175175918E+03  0.92605878788E+03  0.12841778873E+04  0.91815738790E+02 0.  0.
         13    1    3    3    0    0  0.24419002751E+03  0.67476094962E+03  0.70805425883E+03  0.10081031406E+04  0.00000000000E+00 0. -1.
        -13    1    3    3    0    0  0.84172400293E+02  0.14699080955E+03  0.21800452905E+03  0.27607474668E+03  0.00000000000E+00 0.  1.
         22    1    1    2    0    0 -0.32836242780E+03 -0.82175175918E+03  0.16849198892E+04  0.19031691651E+04  0.00000000000E+00 0. -1.
<mgrwt>
<rscale>  0 0.18281060E+04</rscale>
<asrwt>0</asrwt>
<pdfrwt beam="1">  1        2 0.44602504E+00 0.18281060E+04</pdfrwt>
<pdfrwt beam="2">  1       -2 0.44336031E-01 0.18281060E+04</pdfrwt>
<totfact> 0.91681351E+00</totfact>
</mgrwt>
</event>
<event>
 6    1  0.9906445E-006  0.5645676E+04  0.7818608E-02  0.7735956E-01
          2   -1    0    0  501    0  0.00000000000E+00  0.00000000000E+00  0.36697457572E+04  0.36697457572E+04  0.00000000000E+00 0. -1.
         -2   -1    0    0    0  501 -0.00000000000E+00 -0.00000000000E+00 -0.21713801389E+04  0.21713801389E+04  0.00000000000E+00 0.  1.
         23    2    1    2    0    0  0.17921959002E+04 -0.17245729810E+03  0.29977760002E+04  0.34980639769E+04  0.89905364550E+02 0.  0.
         13    1    3    3    0    0  0.94771749480E+03 -0.12832128251E+03  0.15415477925E+04  0.18141125649E+04  0.00000000000E+00 0. -1.
        -13    1    3    3    0    0  0.84447840542E+03 -0.44136015584E+02  0.14562282077E+04  0.16839514120E+04  0.00000000000E+00 0.  1.
         22    1    1    2    0    0 -0.17921959002E+04  0.17245729810E+03 -0.14994103819E+04  0.23430619193E+04  0.00000000000E+00 0.  1.
<mgrwt>
<rscale>  0 0.56456755E+04</rscale>
<asrwt>0</asrwt>
<pdfrwt beam="1">  1        2 0.56457627E+00 0.56456755E+04</pdfrwt>
<pdfrwt beam="2">  1       -2 0.33405848E+00 0.56456755E+04</pdfrwt>
<totfact> 0.83006361E-03</totfact>
</mgrwt>
</event>
<event>
 6    1  0.9906445E-006  0.2205177E+04  0.7818608E-02  0.8516276E-01
         -1   -1    0    0    0  501 -0.00000000000E+00  0.00000000000E+00  0.66693476748E+03  0.66693476748E+03  0.00000000000E+00 0.  1.
          1   -1    0    0  501    0  0.00000000000E+00 -0.00000000000E+00 -0.18228197123E+04  0.18228197123E+04  0.00000000000E+00 0. -1.
         23    2    1    2    0    0 -0.87177314979E+03  0.19298742809E+03  0.14774475988E+03  0.90966493198E+03  0.91810687326E+02 0.  0.
         13    1    3    3    0    0 -0.38029667531E+03  0.45842498681E+02  0.89251293887E+02  0.39331016945E+03  0.00000000000E+00 0.  1.
        -13    1    3    3    0    0 -0.49147647448E+03  0.14714492940E+03  0.58493465994E+02  0.51635476252E+03  0.00000000000E+00 0. -1.
         22    1    1    2    0    0  0.87177314979E+03 -0.19298742809E+03 -0.13036297047E+04  0.15800895478E+04  0.00000000000E+00 0. -1.
<mgrwt>
<rscale>  0 0.22051774E+04</rscale>
<asrwt>0</asrwt>
<pdfrwt beam="1">  1        1 0.28043379E+00 0.22051774E+04</pdfrwt>
<pdfrwt beam="2">  1       -1 0.10260535E+00 0.22051774E+04</pdfrwt>
<totfact> 0.32174732E+00</totfact>
</mgrwt>
</event>
<event>
 6    1  0.9906445E-006  0.2320400E+04  0.7818608E-02  0.8469921E-01
          2   -1    0    0  501    0  0.00000000000E+00  0.00000000000E+00  0.26397281944E+04  0.26397281944E+04  0.00000000000E+00 0. -1.
         -2   -1    0    0    0  501 -0.00000000000E+00 -0.00000000000E+00 -0.50992541119E+03  0.50992541119E+03  0.00000000000E+00 0.  1.
         23    2    1    2    0    0  0.17215914095E+02  0.10404477651E+04  0.37574145339E+03  0.11101538903E+04  0.91826362041E+02 0.  0.
         13    1    3    3    0    0  0.41618607326E+02  0.39296221772E+03  0.11334914217E+03  0.41109541600E+03  0.00000000000E+00 0.  1.
        -13    1    3    3    0    0 -0.24402693231E+02  0.64748554743E+03  0.26239231122E+03  0.69905847435E+03  0.00000000000E+00 0. -1.
         22    1    1    2    0    0 -0.17215914095E+02 -0.10404477651E+04  0.17540613298E+04  0.20394997153E+04  0.00000000000E+00 0. -1.
<mgrwt>
<rscale>  0 0.23204004E+04</rscale>
<asrwt>0</asrwt>
<pdfrwt beam="1">  1        2 0.40611202E+00 0.23204004E+04</pdfrwt>
<pdfrwt beam="2">  1       -2 0.78450065E-01 0.23204004E+04</pdfrwt>
<totfact> 0.37700436E+00</totfact>
</mgrwt>
</event>
<event>
 6    1  0.9906445E-006  0.1673572E+04  0.7818608E-02  0.8776582E-01
         -2   -1    0    0    0  501 -0.00000000000E+00  0.00000000000E+00  0.44075649575E+03  0.44075649575E+03  0.00000000000E+00 0.  1.
          2   -1    0    0  501    0  0.00000000000E+00 -0.00000000000E+00 -0.15886566251E+04  0.15886566251E+04  0.00000000000E+00 0. -1.
         23    2    1    2    0    0  0.34558775222E+03 -0.20049060431E+03 -0.14638117232E+04  0.15200728494E+04  0.90825820699E+02 0.  0.
         13    1    3    3    0    0  0.23739006314E+03 -0.10277471145E+03 -0.81435586011E+03  0.85445429971E+03  0.00000000000E+00 0.  1.
        -13    1    3    3    0    0  0.10819768909E+03 -0.97715892858E+02 -0.64945586307E+03  0.66561854971E+03  0.00000000000E+00 0. -1.
         22    1    1    2    0    0 -0.34558775222E+03  0.20049060431E+03  0.31591159388E+03  0.50934027138E+03  0.00000000000E+00 0.  1.
<mgrwt>
<rscale>  0 0.16735719E+04</rscale>
<asrwt>0</asrwt>
<pdfrwt beam="1">  1        2 0.24440871E+00 0.16735719E+04</pdfrwt>
<pdfrwt beam="2">  1       -2 0.67808693E-01 0.16735719E+04</pdfrwt>
<totfact> 0.21495555E+01</totfact>
</mgrwt>
</event>
<event>
 6    1  0.9906445E-006  0.2951926E+04  0.7818608E-02  0.8257593E-01
         -2   -1    0    0    0  501 -0.00000000000E+00  0.00000000000E+00  0.10851726435E+04  0.10851726435E+04  0.00000000000E+00 0.  1.
          2   -1    0    0  501    0  0.00000000000E+00 -0.00000000000E+00 -0.20074841846E+04  0.20074841846E+04  0.00000000000E+00 0. -1.
         23    2    1    2    0    0  0.64850752587E+02 -0.10370106030E+04 -0.15577623718E+04  0.18747100439E+04  0.91200497748E+02 0.  0.
         11    1    3    3    0    0  0.58091966502E+02 -0.96108450579E+03 -0.14814559299E+04  0.17668530715E+04  0.00000000000E+00 0. -1.
        -11    1    3    3    0    0  0.67587860850E+01 -0.75926097237E+02 -0.76306441909E+02  0.10785697246E+03  0.00000000000E+00 0.  1.
         22    1    1    2    0    0 -0.64850752587E+02  0.10370106030E+04  0.63545083068E+03  0.12179467842E+04  0.00000000000E+00 0.  1.
<mgrwt>
<rscale>  0 0.29519261E+04</rscale>
<asrwt>0</asrwt>
<pdfrwt beam="1">  1        2 0.30884372E+00 0.29519261E+04</pdfrwt>
<pdfrwt beam="2">  1       -2 0.16694964E+00 0.29519261E+04</pdfrwt>
<totfact> 0.12747103E+00</totfact>
</mgrwt>
</event>
<event>
 6    1  0.9906445E-006  0.1692857E+04  0.7818608E-02  0.8765449E-01
          2   -1    0    0  501    0  0.00000000000E+00  0.00000000000E+00  0.18227224701E+04  0.18227224701E+04  0.00000000000E+00 0. -1.
         -2   -1    0    0    0  501 -0.00000000000E+00 -0.00000000000E+00 -0.39306092493E+03  0.39306092493E+03  0.00000000000E+00 0.  1.
         23    2    1    2    0    0 -0.68302908231E+03 -0.24413509767E+03  0.12817103904E+04  0.14754995188E+04  0.90480007883E+02 0.  0.
         13    1    3    3    0    0 -0.61301330703E+03 -0.24539091839E+03  0.11397252132E+04  0.13171847171E+04  0.00000000000E+00 0. -1.
        -13    1    3    3    0    0 -0.70015775286E+02  0.12558207260E+01  0.14198517724E+03  0.15831480168E+03  0.00000000000E+00 0.  1.
         22    1    1    2    0    0  0.68302908231E+03  0.24413509767E+03  0.14795115470E+03  0.74028387621E+03  0.00000000000E+00 0.  1.
<mgrwt>
<rscale>  0 0.16928567E+04</rscale>
<asrwt>0</asrwt>
<pdfrwt beam="1">  1        2 0.28041884E+00 0.16928567E+04</pdfrwt>
<pdfrwt beam="2">  1       -2 0.60470913E-01 0.16928567E+04</pdfrwt>
<totfact> 0.20327034E+01</totfact>
</mgrwt>
</event>
<event>
 6    1  0.9906445E-006  0.2483296E+04  0.7818608E-02  0.8408961E-01
          1   -1    0    0  501    0  0.00000000000E+00  0.00000000000E+00  0.17378463109E+04  0.17378463109E+04  0.00000000000E+00 0. -1.
         -1   -1    0    0    0  501 -0.00000000000E+00 -0.00000000000E+00 -0.88712689411E+03  0.88712689411E+03  0.00000000000E+00 0.  1.
         23    2    1    2    0    0  0.77418814340E+03 -0.15715730060E+03  0.14363377862E+04  0.16416042137E+04  0.87934406949E+02 0.  0.
         13    1    3    3    0    0  0.53360271099E+03 -0.12440269460E+03  0.91514655047E+03  0.10666307198E+04  0.00000000000E+00 0.  1.
        -13    1    3    3    0    0  0.24058543241E+03 -0.32754606001E+02  0.52119123570E+03  0.57497349389E+03  0.00000000000E+00 0. -1.
         22    1    1    2    0    0 -0.77418814340E+03  0.15715730060E+03 -0.58561836939E+03  0.98336899131E+03  0.00000000000E+00 0.  1.
<mgrwt>
<rscale>  0 0.24832964E+04</rscale>
<asrwt>0</asrwt>
<pdfrwt beam="1">  1        1 0.26736097E+00 0.24832964E+04</pdfrwt>
<pdfrwt beam="2">  1       -1 0.13648106E+00 0.24832964E+04</pdfrwt>
<totfact> 0.17894706E+00</totfact>
</mgrwt>
</event>
<event>
 6    1  0.9906445E-006  0.1187232E+04  0.7818608E-02  0.9124106E-01
         -2   -1    0    0    0  501 -0.00000000000E+00  0.00000000000E+00  0.35678745086E+03  0.35678745086E+03  0.00000000000E+00 0.  1.
          2   -1    0    0  501    0  0.00000000000E+00 -0.00000000000E+00 -0.98764735378E+03  0.98764735378E+03  0.00000000000E+00 0. -1.
         23    2    1    2    0    0 -0.49744111925E+02 -0.44045042891E+03  0.12332214047E+03  0.46964247982E+03  0.94258429489E+02 0.  0.
         11    1    3    3    0    0 -0.69315679841E+02 -0.21393706628E+03  0.76268858239E+02  0.23746719887E+03  0.00000000000E+00 0. -1.
        -11    1    3    3    0    0  0.19571567916E+02 -0.22651336262E+03  0.47053282227E+02  0.23217528095E+03  0.00000000000E+00 0.  1.
         22    1    1    2    0    0  0.49744111925E+02  0.44045042891E+03 -0.75418204339E+03  0.87479232482E+03  0.00000000000E+00 0. -1.
<mgrwt>
<rscale>  0 0.11872324E+04</rscale>
<asrwt>0</asrwt>
<pdfrwt beam="1">  1        2 0.15194574E+00 0.11872324E+04</pdfrwt>
<pdfrwt beam="2">  1       -2 0.54890378E-01 0.11872324E+04</pdfrwt>
<totfact> 0.79096338E+01</totfact>
</mgrwt>
</event>
<event>
 6    1  0.9906445E-006  0.2629566E+04  0.7818608E-02  0.8358227E-01
          1   -1    0    0  501    0  0.00000000000E+00  0.00000000000E+00  0.17418494367E+04  0.17418494367E+04  0.00000000000E+00 0. -1.
         -1   -1    0    0    0  501 -0.00000000000E+00 -0.00000000000E+00 -0.99242461237E+03  0.99242461237E+03  0.00000000000E+00 0.  1.
         23    2    1    2    0    0 -0.63251266124E+03  0.10954614658E+04  0.74198294940E+03  0.14692983690E+04  0.90503647722E+02 0.  0.
         13    1    3    3    0    0 -0.49571098129E+03  0.77815824665E+03  0.54273512714E+03  0.10704303116E+04  0.00000000000E+00 0.  1.
        -13    1    3    3    0    0 -0.13680167995E+03  0.31730321915E+03  0.19924782225E+03  0.39886805738E+03  0.00000000000E+00 0. -1.
         22    1    1    2    0    0  0.63251266124E+03 -0.10954614658E+04  0.74418749266E+01  0.12649756801E+04  0.00000000000E+00 0.  1.
<mgrwt>
<rscale>  0 0.26295659E+04</rscale>
<asrwt>0</asrwt>
<pdfrwt beam="1">  1        1 0.26797684E+00 0.26295659E+04</pdfrwt>
<pdfrwt beam="2">  1       -1 0.15268071E+00 0.26295659E+04</pdfrwt>
<totfact> 0.13037218E+00</totfact>
</mgrwt>
</event>
<event>
 6    1  0.9906445E-006  0.2493088E+04  0.7818608E-02  0.8405452E-01
         -2   -1    0    0    0  501 -0.00000000000E+00  0.00000000000E+00  0.73509177761E+03  0.73509177761E+03  0.00000000000E+00 0.  1.
          2   -1    0    0  501    0  0.00000000000E+00 -0.00000000000E+00 -0.21138482606E+04  0.21138482606E+04  0.00000000000E+00 0. -1.
         23    2    1    2    0    0 -0.98991020803E+01 -0.96845302259E+03 -0.15840495040E+04  0.18589175771E+04  0.91446586372E+02 0.  0.
         11    1    3    3    0    0  0.24565043998E+02 -0.27531102462E+03 -0.51190933072E+03  0.58176521427E+03  0.00000000000E+00 0. -1.
        -11    1    3    3    0    0 -0.34464146079E+02 -0.69314199797E+03 -0.10721401732E+04  0.12771523628E+04  0.00000000000E+00 0.  1.
         22    1    1    2    0    0  0.98991020803E+01  0.96845302259E+03  0.20529302093E+03  0.99002246118E+03  0.00000000000E+00 0.  1.
<mgrwt>
<rscale>  0 0.24930884E+04</rscale>
<asrwt>0</asrwt>
<pdfrwt beam="1">  1        2 0.32520742E+00 0.24930884E+04</pdfrwt>
<pdfrwt beam="2">  1       -2 0.11309104E+00 0.24930884E+04</pdfrwt>
<totfact> 0.31635669E+00</totfact>
</mgrwt>
</event>
<event>
 6    1  0.9906445E-006  0.3505673E+04  0.7818608E-02  0.8112447E-01
         -2   -1    0    0    0  501 -0.00000000000E+00  0.00000000000E+00  0.17493052429E+04  0.17493052429E+04  0.00000000000E+00 0.  1.
          2   -1    0    0  501    0  0.00000000000E+00 -0.00000000000E+00 -0.17563746748E+04  0.17563746748E+04  0.00000000000E+00 0. -1.
         23    2    1    2    0    0 -0.12579908295E+04  0.23777955546E+03  0.11918865547E+04  0.17516629559E+04  0.93002729140E+02 0.  0.
         11    1    3    3    0    0 -0.46091729030E+03  0.13269698498E+03  0.45116811077E+03  0.65848758719E+03  0.00000000000E+00 0.  1.
        -11    1    3    3    0    0 -0.79707353923E+03  0.10508257048E+03  0.74071844394E+03  0.10931753687E+04  0.00000000000E+00 0. -1.
         22    1    1    2    0    0  0.12579908295E+04 -0.23777955546E+03 -0.11989559867E+04  0.17540169618E+04  0.00000000000E+00 0. -1.
<mgrwt>
<rscale>  0 0.35056728E+04</rscale>
<asrwt>0</asrwt>
<pdfrwt beam="1">  1        2 0.27021149E+00 0.35056728E+04</pdfrwt>
<pdfrwt beam="2">  1       -2 0.26912388E+00 0.35056728E+04</pdfrwt>
<totfact> 0.36770993E-01</totfact>
</mgrwt>
</event>
<event>
 6    1  0.9906445E-006  0.1165468E+04  0.7818608E-02  0.9143631E-01
         -1   -1    0    0    0  501 -0.00000000000E+00  0.00000000000E+00  0.36896556284E+03  0.36896556284E+03  0.00000000000E+00 0.  1.
          1   -1    0    0  501    0  0.00000000000E+00 -0.00000000000E+00 -0.92035425292E+03  0.92035425292E+03  0.00000000000E+00 0. -1.
         23    2    1    2    0    0  0.12635051969E+03 -0.51436184187E+03 -0.18248146705E+02  0.53780707656E+03  0.91492614693E+02 0.  0.
         11    1    3    3    0    0  0.10262941926E+03 -0.41372181689E+03 -0.51106450909E+02  0.42931388143E+03  0.00000000000E+00 0. -1.
        -11    1    3    3    0    0  0.23721100439E+02 -0.10064002498E+03  0.32858304203E+02  0.10849319513E+03  0.00000000000E+00 0.  1.
         22    1    1    2    0    0 -0.12635051969E+03  0.51436184187E+03 -0.53314054338E+03  0.75151273921E+03  0.00000000000E+00 0. -1.
<mgrwt>
<rscale>  0 0.11654682E+04</rscale>
<asrwt>0</asrwt>
<pdfrwt beam="1">  1        1 0.14159296E+00 0.11654682E+04</pdfrwt>
<pdfrwt beam="2">  1       -1 0.56763933E-01 0.11654682E+04</pdfrwt>
<totfact> 0.54581599E+01</totfact>
</mgrwt>
</event>
<event>
 6    1  0.9906445E-006  0.2080913E+04  0.7818608E-02  0.8569698E-01
          1   -1    0    0  501    0  0.00000000000E+00  0.00000000000E+00  0.34111943483E+04  0.34111943483E+04  0.00000000000E+00 0. -1.
         -1   -1    0    0    0  501 -0.00000000000E+00 -0.00000000000E+00 -0.31735204899E+03  0.31735204899E+03  0.00000000000E+00 0.  1.
         23    2    1    2    0    0  0.22612877557E+03 -0.68081358168E+03  0.20446029135E+03  0.75143878351E+03  0.90635966844E+02 0.  0.
         13    1    3    3    0    0  0.13494050022E+03 -0.43272003779E+03  0.84116849287E+02  0.46101107800E+03  0.00000000000E+00 0.  1.
        -13    1    3    3    0    0  0.91188275351E+02 -0.24809354389E+03  0.12034344206E+03  0.29042770551E+03  0.00000000000E+00 0. -1.
         22    1    1    2    0    0 -0.22612877557E+03  0.68081358168E+03  0.28893820079E+04  0.29771076138E+04  0.00000000000E+00 0. -1.
<mgrwt>
<rscale>  0 0.20809128E+04</rscale>
<asrwt>0</asrwt>
<pdfrwt beam="1">  1        1 0.52479911E+00 0.20809128E+04</pdfrwt>
<pdfrwt beam="2">  1       -1 0.48823394E-01 0.20809128E+04</pdfrwt>
<totfact> 0.11383207E+00</totfact>
</mgrwt>
</event>
<event>
 6    1  0.9906445E-006  0.3053145E+04  0.7818608E-02  0.8228716E-01
         -1   -1    0    0    0  501 -0.00000000000E+00  0.00000000000E+00  0.11245348770E+04  0.11245348770E+04  0.00000000000E+00 0.  1.
          1   -1    0    0  501    0  0.00000000000E+00 -0.00000000000E+00 -0.20723450368E+04  0.20723450368E+04  0.00000000000E+00 0. -1.
         23    2    1    2    0    0 -0.36826849853E+03  0.14217474669E+04 -0.90515258817E+03  0.17275919178E+04  0.91022413630E+02 0.  0.
         11    1    3    3    0    0 -0.20695844605E+03  0.88666346396E+03 -0.60557520993E+03  0.10934922183E+04  0.00000000000E+00 0.  1.
        -11    1    3    3    0    0 -0.16131005248E+03  0.53508400296E+03 -0.29957737824E+03  0.63409969942E+03  0.00000000000E+00 0. -1.
         22    1    1    2    0    0  0.36826849853E+03 -0.14217474669E+04 -0.42657571597E+02  0.14692879960E+04  0.00000000000E+00 0.  1.
<mgrwt>
<rscale>  0 0.30531454E+04</rscale>
<asrwt>0</asrwt>
<pdfrwt beam="1">  1        1 0.31882231E+00 0.30531454E+04</pdfrwt>
<pdfrwt beam="2">  1       -1 0.17300537E+00 0.30531454E+04</pdfrwt>
<totfact> 0.52731407E-01</totfact>
</mgrwt>
</event>
<event>
 6    1  0.9906445E-006  0.2642095E+04  0.7818608E-02  0.8354041E-01
          1   -1    0    0  501    0  0.00000000000E+00  0.00000000000E+00  0.24366233340E+04  0.24366233340E+04  0.00000000000E+00 0. -1.
         -1   -1    0    0    0  501 -0.00000000000E+00 -0.00000000000E+00 -0.71622339940E+03  0.71622339940E+03  0.00000000000E+00 0.  1.
         23    2    1    2    0    0 -0.11482749615E+03  0.93077338461E+03 -0.24641100672E+03  0.97388603475E+03  0.90615545420E+02 0.  0.
         13    1    3    3    0    0 -0.63978350351E+02  0.20786883306E+03 -0.54588819886E+02  0.22423786551E+03  0.00000000000E+00 0. -1.
        -13    1    3    3    0    0 -0.50849145797E+02  0.72290455155E+03 -0.19182218683E+03  0.74964816924E+03  0.00000000000E+00 0.  1.
         22    1    1    2    0    0  0.11482749615E+03 -0.93077338461E+03  0.19668109413E+04  0.21789606986E+04  0.00000000000E+00 0. -1.
<mgrwt>
<rscale>  0 0.26420951E+04</rscale>
<asrwt>0</asrwt>
<pdfrwt beam="1">  1        1 0.37486512E+00 0.26420951E+04</pdfrwt>
<pdfrwt beam="2">  1       -1 0.11018822E+00 0.26420951E+04</pdfrwt>
<totfact> 0.99935060E-01</totfact>
</mgrwt>
</event>
<event>
 6    1  0.9906445E-006  0.8747155E+03  0.7818608E-02  0.9457752E-01
          1   -1    0    0  501    0  0.00000000000E+00  0.00000000000E+00  0.49912094584E+03  0.49912094584E+03  0.00000000000E+00 0. -1.
         -1   -1    0    0    0  501 -0.00000000000E+00 -0.00000000000E+00 -0.38323740216E+03  0.38323740216E+03  0.00000000000E+00 0.  1.
         23    2    1    2    0    0 -0.37613241156E+03  0.48608173706E+02 -0.15100811748E+03  0.41860248079E+03  0.92661965240E+02 0.  0.
         13    1    3    3    0    0 -0.20648591518E+03  0.70510377319E+02 -0.10065598329E+03  0.24029101825E+03  0.00000000000E+00 0. -1.
        -13    1    3    3    0    0 -0.16964649638E+03 -0.21902203613E+02 -0.50352134182E+02  0.17831146254E+03  0.00000000000E+00 0.  1.
         22    1    1    2    0    0  0.37613241156E+03 -0.48608173706E+02  0.26689166116E+03  0.46375586721E+03  0.00000000000E+00 0. -1.
<mgrwt>
<rscale>  0 0.87471553E+03</rscale>
<asrwt>0</asrwt>
<pdfrwt beam="1">  1        1 0.76787838E-01 0.87471553E+03</pdfrwt>
<pdfrwt beam="2">  1       -1 0.58959600E-01 0.87471553E+03</pdfrwt>
<totfact> 0.13073676E+02</totfact>
</mgrwt>
</event>
<event>
 6    1  0.9906445E-006  0.6084449E+03  0.7818608E-02  0.9888039E-01
          2   -1    0    0  501    0  0.00000000000E+00  0.00000000000E+00  0.62302936709E+03  0.62302936709E+03  0.00000000000E+00 0. -1.
         -2   -1    0    0    0  501 -0.00000000000E+00 -0.00000000000E+00 -0.14855044069E+03  0.14855044069E+03  0.00000000000E+00 0.  1.
         23    2    1    2    0    0  0.25519620255E+03  0.15177568447E+03  0.26114193076E+03  0.40596575731E+03  0.91935455186E+02 0.  0.
         13    1    3    3    0    0  0.12726730454E+03  0.84942423029E+02  0.74948450323E+02  0.17038031647E+03  0.00000000000E+00 0.  1.
        -13    1    3    3    0    0  0.12792889800E+03  0.66833261437E+02  0.18619348043E+03  0.23558544084E+03  0.00000000000E+00 0. -1.
         22    1    1    2    0    0 -0.25519620255E+03 -0.15177568447E+03  0.21333699564E+03  0.36561405047E+03  0.00000000000E+00 0.  1.
<mgrwt>
<rscale>  0 0.60844486E+03</rscale>
<asrwt>0</asrwt>
<pdfrwt beam="1">  1        2 0.95850670E-01 0.60844486E+03</pdfrwt>
<pdfrwt beam="2">  1       -2 0.22853914E-01 0.60844486E+03</pdfrwt>
<totfact> 0.80200065E+02</totfact>
</mgrwt>
</event>
<event>
 6    1  0.9906445E-006  0.2057651E+04  0.7818608E-02  0.8580131E-01
         -1   -1    0    0    0  501 -0.00000000000E+00  0.00000000000E+00  0.13636383257E+04  0.13636383257E+04  0.00000000000E+00 0.  1.
          1   -1    0    0  501    0  0.00000000000E+00 -0.00000000000E+00 -0.77621914546E+03  0.77621914546E+03  0.00000000000E+00 0. -1.
         23    2    1    2    0    0  0.57849286547E+03  0.52939726512E+03 -0.39511688107E+03  0.88276058886E+03  0.90738348161E+02 0.  0.
         13    1    3    3    0    0  0.28662179942E+03  0.23454772233E+03 -0.23166101974E+03  0.43684266964E+03  0.00000000000E+00 0. -1.
        -13    1    3    3    0    0  0.29187106605E+03  0.29484954278E+03 -0.16345586134E+03  0.44591791922E+03  0.00000000000E+00 0.  1.
         22    1    1    2    0    0 -0.57849286547E+03 -0.52939726512E+03  0.98253606130E+03  0.12570968823E+04  0.00000000000E+00 0.  1.
<mgrwt>
<rscale>  0 0.20576513E+04</rscale>
<asrwt>0</asrwt>
<pdfrwt beam="1">  1        1 0.11941833E+00 0.20576513E+04</pdfrwt>
<pdfrwt beam="2">  1       -1 0.20979051E+00 0.20576513E+04</pdfrwt>
<totfact> 0.27620281E+00</totfact>
</mgrwt>
</event>
<event>
 6    1  0.9906445E-006  0.9655266E+03  0.7818608E-02  0.9347184E-01
          2   -1    0    0  501    0  0.00000000000E+00  0.00000000000E+00  0.85198675995E+03  0.85198675995E+03  0.00000000000E+00 0.  1.
         -2   -1    0    0    0  501 -0.00000000000E+00 -0.00000000000E+00 -0.27354932986E+03  0.27354932986E+03  0.00000000000E+00 0. -1.
         23    2    1    2    0    0  0.23406271167E+03  0.27690764948E+03  0.65561680556E+03  0.75483424825E+03  0.92076855224E+02 0.  0.
         13    1    3    3    0    0  0.17500767623E+03  0.15935363381E+03  0.48227645219E+03  0.53722606385E+03  0.00000000000E+00 0.  1.
        -13    1    3    3    0    0  0.59055035442E+02  0.11755401567E+03  0.17334035337E+03  0.21760818440E+03  0.00000000000E+00 0. -1.
         22    1    1    2    0    0 -0.23406271167E+03 -0.27690764948E+03 -0.77179375475E+02  0.37070184155E+03  0.00000000000E+00 0. -1.
<mgrwt>
<rscale>  0 0.96552661E+03</rscale>
<asrwt>0</asrwt>
<pdfrwt beam="1">  1        2 0.13107488E+00 0.96552661E+03</pdfrwt>
<pdfrwt beam="2">  1       -2 0.42084513E-01 0.96552661E+03</pdfrwt>
<totfact> 0.16920909E+02</totfact>
</mgrwt>
</event>
<event>
 6    1  0.9906445E-006  0.1910339E+04  0.7818608E-02  0.8649727E-01
          1   -1    0    0  501    0  0.00000000000E+00  0.00000000000E+00  0.10811391109E+04  0.10811391109E+04  0.00000000000E+00 0. -1.
         -1   -1    0    0    0  501 -0.00000000000E+00 -0.00000000000E+00 -0.84387708249E+03  0.84387708249E+03  0.00000000000E+00 0.  1.
         23    2    1    2    0    0 -0.81635830251E+03 -0.34634463989E+03 -0.23290292892E+03  0.92129781919E+03  0.90279619493E+02 0.  0.
         13    1    3    3    0    0 -0.22672876940E+03 -0.11900155189E+03 -0.10382926228E+03  0.27631109267E+03  0.00000000000E+00 0.  1.
        -13    1    3    3    0    0 -0.58962953310E+03 -0.22734308801E+03 -0.12907366664E+03  0.64498672652E+03  0.00000000000E+00 0. -1.
         22    1    1    2    0    0  0.81635830251E+03  0.34634463989E+03  0.47016495736E+03  0.10037183742E+04  0.00000000000E+00 0. -1.
<mgrwt>
<rscale>  0 0.19103387E+04</rscale>
<asrwt>0</asrwt>
<pdfrwt beam="1">  1        1 0.16632909E+00 0.19103387E+04</pdfrwt>
<pdfrwt beam="2">  1       -1 0.12982724E+00 0.19103387E+04</pdfrwt>
<totfact> 0.62331337E+00</totfact>
</mgrwt>
</event>
<event>
 6    1  0.9906445E-006  0.1130415E+04  0.7818608E-02  0.9176044E-01
          1   -1    0    0  501    0  0.00000000000E+00  0.00000000000E+00  0.86039443957E+03  0.86039443957E+03  0.00000000000E+00 0. -1.
         -1   -1    0    0    0  501 -0.00000000000E+00 -0.00000000000E+00 -0.37129435863E+03  0.37129435863E+03  0.00000000000E+00 0.  1.
         23    2    1    2    0    0  0.39732721346E+02 -0.53746897932E+03  0.42189687326E+03  0.68857935803E+03  0.75451757855E+02 0.  0.
         11    1    3    3    0    0 -0.21827424487E+02 -0.10234684469E+03  0.76308600517E+02  0.12951569631E+03  0.00000000000E+00 0.  1.
        -11    1    3    3    0    0  0.61560145833E+02 -0.43512213463E+03  0.34558827274E+03  0.55906366172E+03  0.00000000000E+00 0. -1.
         22    1    1    2    0    0 -0.39732721346E+02  0.53746897932E+03  0.67203207679E+02  0.54310944017E+03  0.00000000000E+00 0.  1.
<mgrwt>
<rscale>  0 0.11304151E+04</rscale>
<asrwt>0</asrwt>
<pdfrwt beam="1">  1        1 0.13236837E+00 0.11304151E+04</pdfrwt>
<pdfrwt beam="2">  1       -1 0.57122209E-01 0.11304151E+04</pdfrwt>
<totfact> 0.60570196E+01</totfact>
</mgrwt>
</event>
<event>
 6    1  0.9906445E-006  0.2218733E+04  0.7818608E-02  0.8510671E-01
          1   -1    0    0  501    0  0.00000000000E+00  0.00000000000E+00  0.33518898865E+04  0.33518898865E+04  0.00000000000E+00 0. -1.
         -1   -1    0    0    0  501 -0.00000000000E+00 -0.00000000000E+00 -0.36716419624E+03  0.36716419624E+03  0.00000000000E+00 0.  1.
         23    2    1    2    0    0  0.88660173245E+03  0.62289026075E+03  0.18788222734E+04  0.21708043367E+04  0.91451757705E+02 0.  0.
         11    1    3    3    0    0  0.30425033978E+03  0.20177187403E+03  0.55089665729E+03  0.66088371551E+03  0.00000000000E+00 0. -1.
        -11    1    3    3    0    0  0.58235139268E+03  0.42111838672E+03  0.13279256161E+04  0.15099206211E+04  0.00000000000E+00 0.  1.
         22    1    1    2    0    0 -0.88660173245E+03 -0.62289026075E+03  0.11059034169E+04  0.15482497461E+04  0.00000000000E+00 0.  1.
<mgrwt>
<rscale>  0 0.22187329E+04</rscale>
<asrwt>0</asrwt>
<pdfrwt beam="1">  1        1 0.51567535E+00 0.22187329E+04</pdfrwt>
<pdfrwt beam="2">  1       -1 0.56486802E-01 0.22187329E+04</pdfrwt>
<totfact> 0.94276480E-01</totfact>
</mgrwt>
</event>
<event>
 6    1  0.9906445E-006  0.1145755E+04  0.7818608E-02  0.9161709E-01
          2   -1    0    0  501    0  0.00000000000E+00  0.00000000000E+00  0.75150079017E+03  0.75150079017E+03  0.00000000000E+00 0. -1.
         -2   -1    0    0    0  501 -0.00000000000E+00 -0.00000000000E+00 -0.43671060363E+03  0.43671060363E+03  0.00000000000E+00 0.  1.
         23    2    1    2    0    0 -0.51910554953E+03 -0.11468318639E+03  0.36954044800E+03  0.65377674305E+03  0.90780406796E+02 0.  0.
         11    1    3    3    0    0 -0.35656863846E+03 -0.39673681750E+02  0.26944413620E+03  0.44868177753E+03  0.00000000000E+00 0. -1.
        -11    1    3    3    0    0 -0.16253691107E+03 -0.75009504644E+02  0.10009631180E+03  0.20509496552E+03  0.00000000000E+00 0.  1.
         22    1    1    2    0    0  0.51910554953E+03  0.11468318639E+03 -0.54750261464E+02  0.53443465075E+03  0.00000000000E+00 0. -1.
<mgrwt>
<rscale>  0 0.11457545E+04</rscale>
<asrwt>0</asrwt>
<pdfrwt beam="1">  1        2 0.11561551E+00 0.11457545E+04</pdfrwt>
<pdfrwt beam="2">  1       -2 0.67186247E-01 0.11457545E+04</pdfrwt>
<totfact> 0.75310833E+01</totfact>
</mgrwt>
</event>
<event>
 6    1  0.9906445E-006  0.2493151E+04  0.7818608E-02  0.8405430E-01
          1   -1    0    0  501    0  0.00000000000E+00  0.00000000000E+00  0.10790963111E+04  0.10790963111E+04  0.00000000000E+00 0. -1.
         -1   -1    0    0    0  501 -0.00000000000E+00 -0.00000000000E+00 -0.14400475612E+04  0.14400475612E+04  0.00000000000E+00 0.  1.
         23    2    1    2    0    0 -0.51500704406E+03  0.59766863586E+03 -0.11537284571E+04  0.14006914800E+04  0.91690869976E+02 0.  0.
         13    1    3    3    0    0 -0.43779553432E+03  0.45296539316E+03 -0.89981461695E+03  0.10984120002E+04  0.00000000000E+00 0. -1.
        -13    1    3    3    0    0 -0.77211509739E+02  0.14470324270E+03 -0.25391384018E+03  0.30227947982E+03  0.00000000000E+00 0.  1.
         22    1    1    2    0    0  0.51500704406E+03 -0.59766863586E+03  0.79277720705E+03  0.11184523923E+04  0.00000000000E+00 0. -1.
<mgrwt>
<rscale>  0 0.24931506E+04</rscale>
<asrwt>0</asrwt>
<pdfrwt beam="1">  1        1 0.16601482E+00 0.24931506E+04</pdfrwt>
<pdfrwt beam="2">  1       -1 0.22154578E+00 0.24931506E+04</pdfrwt>
<totfact> 0.12560029E+00</totfact>
</mgrwt>
</event>
<event>
 6    1  0.9906445E-006  0.1860345E+04  0.7818608E-02  0.8674851E-01
         -2   -1    0    0    0  501 -0.00000000000E+00  0.00000000000E+00  0.52459009258E+03  0.52459009258E+03  0.00000000000E+00 0.  1.
          2   -1    0    0  501    0  0.00000000000E+00 -0.00000000000E+00 -0.16493277817E+04  0.16493277817E+04  0.00000000000E+00 0. -1.
         23    2    1    2    0    0 -0.62470296411E+03 -0.57027860700E+03 -0.11969501154E+03  0.86030367416E+03  0.10160724884E+03 0.  0.
         13    1    3    3    0    0 -0.29613535181E+03 -0.32760003352E+03 -0.33815294705E+02  0.44290112070E+03  0.00000000000E+00 0. -1.
        -13    1    3    3    0    0 -0.32856761230E+03 -0.24267857348E+03 -0.85879716833E+02  0.41740255347E+03  0.00000000000E+00 0.  1.
         22    1    1    2    0    0  0.62470296411E+03  0.57027860700E+03 -0.10050426776E+04  0.13136142001E+04  0.00000000000E+00 0. -1.
<mgrwt>
<rscale>  0 0.18603451E+04</rscale>
<asrwt>0</asrwt>
<pdfrwt beam="1">  1        2 0.25374273E+00 0.18603451E+04</pdfrwt>
<pdfrwt beam="2">  1       -2 0.80706168E-01 0.18603451E+04</pdfrwt>
<totfact> 0.13324953E+01</totfact>
</mgrwt>
</event>
<event>
 6    1  0.9906445E-006  0.1846533E+04  0.7818608E-02  0.8681938E-01
          1   -1    0    0  501    0  0.00000000000E+00  0.00000000000E+00  0.11606067414E+04  0.11606067414E+04  0.00000000000E+00 0. -1.
         -1   -1    0    0    0  501 -0.00000000000E+00 -0.00000000000E+00 -0.73446142348E+03  0.73446142348E+03  0.00000000000E+00 0.  1.
         23    2    1    2    0    0  0.38861608091E+03 -0.22855210991E+03  0.10376719524E+04  0.11353160014E+04  0.94450076695E+02 0.  0.
         11    1    3    3    0    0  0.16507208690E+03 -0.11131974838E+03  0.57155117750E+03  0.60523683691E+03  0.00000000000E+00 0. -1.
        -11    1    3    3    0    0  0.22354399401E+03 -0.11723236153E+03  0.46612077487E+03  0.53007916447E+03  0.00000000000E+00 0.  1.
         22    1    1    2    0    0 -0.38861608091E+03  0.22855210991E+03 -0.61152663445E+03  0.75975216349E+03  0.00000000000E+00 0.  1.
<mgrwt>
<rscale>  0 0.18465328E+04</rscale>
<asrwt>0</asrwt>
<pdfrwt beam="1">  1        1 0.17855488E+00 0.18465328E+04</pdfrwt>
<pdfrwt beam="2">  1       -1 0.11299406E+00 0.18465328E+04</pdfrwt>
<totfact> 0.76879729E+00</totfact>
</mgrwt>
</event>
<event>
 6    1  0.9906445E-006  0.1678850E+04  0.7818608E-02  0.8773520E-01
          1   -1    0    0  501    0  0.00000000000E+00  0.00000000000E+00  0.94604820796E+03  0.94604820796E+03  0.00000000000E+00 0. -1.
         -1   -1    0    0    0  501 -0.00000000000E+00 -0.00000000000E+00 -0.74481891861E+03  0.74481891861E+03  0.00000000000E+00 0.  1.
         23    2    1    2    0    0 -0.65251256481E+02  0.70449302756E+03 -0.34929652056E+03  0.79440361937E+03  0.92200319085E+02 0.  0.
         11    1    3    3    0    0  0.14845823042E+02  0.17843331536E+03 -0.11630630619E+03  0.21350878987E+03  0.00000000000E+00 0.  1.
        -11    1    3    3    0    0 -0.80097079523E+02  0.52605971219E+03 -0.23299021437E+03  0.58089482950E+03  0.00000000000E+00 0. -1.
         22    1    1    2    0    0  0.65251256481E+02 -0.70449302756E+03  0.55052580992E+03  0.89646350720E+03  0.00000000000E+00 0. -1.
<mgrwt>
<rscale>  0 0.16788503E+04</rscale>
<asrwt>0</asrwt>
<pdfrwt beam="1">  1        1 0.14554588E+00 0.16788503E+04</pdfrwt>
<pdfrwt beam="2">  1       -1 0.11458753E+00 0.16788503E+04</pdfrwt>
<totfact> 0.11022152E+01</totfact>
</mgrwt>
</event>
<event>
 6    1  0.9906445E-006  0.3452842E+04  0.7818608E-02  0.8125058E-01
         -1   -1    0    0    0  501 -0.00000000000E+00  0.00000000000E+00  0.20628284150E+04  0.20628284150E+04  0.00000000000E+00 0.  1.
          1   -1    0    0  501    0  0.00000000000E+00 -0.00000000000E+00 -0.14448749300E+04  0.14448749300E+04  0.00000000000E+00 0. -1.
         23    2    1    2    0    0 -0.14452462651E+04 -0.16361528672E+02 -0.64777967131E+03  0.15864837090E+04  0.91145981453E+02 0.  0.
         13    1    3    3    0    0 -0.51310442205E+03 -0.20652631629E+02 -0.18548677765E+03  0.54599269574E+03  0.00000000000E+00 0. -1.
        -13    1    3    3    0    0 -0.93214184306E+03  0.42911029572E+01 -0.46229289367E+03  0.10404910133E+04  0.00000000000E+00 0.  1.
         22    1    1    2    0    0  0.14452462651E+04  0.16361528672E+02  0.12657331564E+04  0.19212196359E+04  0.00000000000E+00 0.  1.
<mgrwt>
<rscale>  0 0.34528418E+04</rscale>
<asrwt>0</asrwt>
<pdfrwt beam="1">  1        1 0.22228845E+00 0.34528418E+04</pdfrwt>
<pdfrwt beam="2">  1       -1 0.31735822E+00 0.34528418E+04</pdfrwt>
<totfact> 0.14902165E-01</totfact>
</mgrwt>
</event>
<event>
 6    1  0.9906445E-006  0.1448297E+04  0.7818608E-02  0.8919582E-01
          1   -1    0    0  501    0  0.00000000000E+00  0.00000000000E+00  0.10610982497E+04  0.10610982497E+04  0.00000000000E+00 0. -1.
         -1   -1    0    0    0  501 -0.00000000000E+00 -0.00000000000E+00 -0.49419671849E+03  0.49419671849E+03  0.00000000000E+00 0.  1.
         23    2    1    2    0    0 -0.28845823319E+02 -0.43334019416E+03  0.90306068574E+03  0.10060966593E+04  0.89978221299E+02 0.  0.
         11    1    3    3    0    0 -0.23661014753E+02 -0.37462874034E+03  0.69554368915E+03  0.79037178607E+03  0.00000000000E+00 0. -1.
        -11    1    3    3    0    0 -0.51848085662E+01 -0.58711453820E+02  0.20751699660E+03  0.21572487322E+03  0.00000000000E+00 0.  1.
         22    1    1    2    0    0  0.28845823319E+02  0.43334019416E+03 -0.33615915448E+03  0.54919830894E+03  0.00000000000E+00 0.  1.
<mgrwt>
<rscale>  0 0.14482973E+04</rscale>
<asrwt>0</asrwt>
<pdfrwt beam="1">  1        1 0.16324588E+00 0.14482973E+04</pdfrwt>
<pdfrwt beam="2">  1       -1 0.76030265E-01 0.14482973E+04</pdfrwt>
<totfact> 0.22907265E+01</totfact>
</mgrwt>
</event>
<event>
 6    1  0.9906445E-006  0.4327732E+04  0.7818608E-02  0.7941510E-01
         -2   -1    0    0    0  501 -0.00000000000E+00  0.00000000000E+00  0.19416387311E+04  0.19416387311E+04  0.00000000000E+00 0.  1.
          2   -1    0    0  501    0  0.00000000000E+00 -0.00000000000E+00 -0.24115279207E+04  0.24115279207E+04  0.00000000000E+00 0. -1.
         23    2    1    2    0    0  0.12253567316E+04  0.12590243606E+04 -0.15039897109E+04  0.23145383511E+04  0.91985151952E+02 0.  0.
         11    1    3    3    0    0  0.99684947365E+02  0.12500008558E+03 -0.10989035813E+03  0.19400515698E+03  0.00000000000E+00 0. -1.
        -11    1    3    3    0    0  0.11256717843E+04  0.11340242750E+04 -0.13940993528E+04  0.21205331942E+04  0.00000000000E+00 0.  1.
         22    1    1    2    0    0 -0.12253567316E+04 -0.12590243606E+04  0.10341005213E+04  0.20386283007E+04  0.00000000000E+00 0.  1.
<mgrwt>
<rscale>  0 0.43277320E+04</rscale>
<asrwt>0</asrwt>
<pdfrwt beam="1">  1        2 0.37100429E+00 0.43277320E+04</pdfrwt>
<pdfrwt beam="2">  1       -2 0.29871365E+00 0.43277320E+04</pdfrwt>
<totfact> 0.97365245E-02</totfact>
</mgrwt>
</event>
<event>
 6    1  0.9906445E-006  0.3969802E+04  0.7818608E-02  0.8010666E-01
         -2   -1    0    0    0  501 -0.00000000000E+00  0.00000000000E+00  0.43692764521E+04  0.43692764521E+04  0.00000000000E+00 0.  1.
          2   -1    0    0  501    0  0.00000000000E+00 -0.00000000000E+00 -0.90171253245E+03  0.90171253245E+03  0.00000000000E+00 0. -1.
         23    2    1    2    0    0 -0.97655601055E+03  0.14049974350E+04  0.30677485140E+04  0.35138515987E+04  0.91611562545E+02 0.  0.
         13    1    3    3    0    0 -0.69510729886E+03  0.96575032781E+03  0.22079675790E+04  0.25081803529E+04  0.00000000000E+00 0. -1.
        -13    1    3    3    0    0 -0.28144871170E+03  0.43924710723E+03  0.85978093495E+03  0.10056712458E+04  0.00000000000E+00 0.  1.
         22    1    1    2    0    0  0.97655601055E+03 -0.14049974350E+04  0.39981540567E+03  0.17571373859E+04  0.00000000000E+00 0. -1.
<mgrwt>
<rscale>  0 0.39698017E+04</rscale>
<asrwt>0</asrwt>
<pdfrwt beam="1">  1        2 0.13872501E+00 0.39698017E+04</pdfrwt>
<pdfrwt beam="2">  1       -2 0.67219636E+00 0.39698017E+04</pdfrwt>
<totfact> 0.65455584E-03</totfact>
</mgrwt>
</event>
<event>
 6    1  0.9906445E-006  0.5074825E+04  0.7818608E-02  0.7817067E-01
         -2   -1    0    0    0  501 -0.00000000000E+00  0.00000000000E+00  0.15078042103E+04  0.15078042103E+04  0.00000000000E+00 0.  1.
          2   -1    0    0  501    0  0.00000000000E+00 -0.00000000000E+00 -0.42700923815E+04  0.42700923815E+04  0.00000000000E+00 0. -1.
         23    2    1    2    0    0 -0.18320482857E+04 -0.16507072612E+04 -0.20586386896E+04  0.32134555267E+04  0.84070117254E+02 0.  0.
         13    1    3    3    0    0 -0.86725545962E+03 -0.72864835849E+03 -0.92587982561E+03  0.14629811735E+04  0.00000000000E+00 0. -1.
        -13    1    3    3    0    0 -0.96479282608E+03 -0.92205890273E+03 -0.11327588640E+04  0.17504743532E+04  0.00000000000E+00 0.  1.
         22    1    1    2    0    0  0.18320482857E+04  0.16507072612E+04 -0.70364948159E+03  0.25644410651E+04  0.00000000000E+00 0. -1.
<mgrwt>
<rscale>  0 0.50748254E+04</rscale>
<asrwt>0</asrwt>
<pdfrwt beam="1">  1        2 0.65693728E+00 0.50748254E+04</pdfrwt>
<pdfrwt beam="2">  1       -2 0.23196988E+00 0.50748254E+04</pdfrwt>
<totfact> 0.12048277E-02</totfact>
</mgrwt>
</event>
<event>
 6    1  0.9906445E-006  0.3646964E+04  0.7818608E-02  0.8079818E-01
          2   -1    0    0  501    0  0.00000000000E+00  0.00000000000E+00  0.24610000523E+04  0.24610000523E+04  0.00000000000E+00 0. -1.
         -2   -1    0    0    0  501 -0.00000000000E+00 -0.00000000000E+00 -0.13511123143E+04  0.13511123143E+04  0.00000000000E+00 0.  1.
         23    2    1    2    0    0 -0.16652397857E+04  0.51825591749E+03  0.11081261805E+04  0.20680894761E+04  0.86242153606E+02 0.  0.
         13    1    3    3    0    0 -0.77587590657E+03  0.28338243217E+03  0.54310480682E+03  0.98856049711E+03  0.00000000000E+00 0. -1.
        -13    1    3    3    0    0 -0.88936387914E+03  0.23487348532E+03  0.56502137372E+03  0.10795289789E+04  0.00000000000E+00 0.  1.
         22    1    1    2    0    0  0.16652397857E+04 -0.51825591749E+03  0.17615574724E+01  0.17440228906E+04  0.00000000000E+00 0.  1.
<mgrwt>
<rscale>  0 0.36469645E+04</rscale>
<asrwt>0</asrwt>
<pdfrwt beam="1">  1        2 0.37861539E+00 0.36469645E+04</pdfrwt>
<pdfrwt beam="2">  1       -2 0.20786343E+00 0.36469645E+04</pdfrwt>
<totfact> 0.35188053E-01</totfact>
</mgrwt>
</event>
<event>
 6    1  0.9906445E-006  0.2559460E+04  0.7818608E-02  0.8382104E-01
          1   -1    0    0  501    0  0.00000000000E+00  0.00000000000E+00  0.16874020276E+04  0.16874020276E+04  0.00000000000E+00 0. -1.
         -1   -1    0    0    0  501 -0.00000000000E+00 -0.00000000000E+00 -0.97055058000E+03  0.97055058000E+03  0.00000000000E+00 0.  1.
         23    2    1    2    0    0  0.64147646177E+03  0.97399736229E+03  0.90202601708E+03  0.14770832101E+04  0.89224218904E+02 0.  0.
         13    1    3    3    0    0  0.87846181464E+02  0.19584478494E+03  0.16199347423E+03  0.26891265697E+03  0.00000000000E+00 0.  1.
        -13    1    3    3    0    0  0.55363028031E+03  0.77815257735E+03  0.74003254285E+03  0.12081705531E+04  0.00000000000E+00 0. -1.
         22    1    1    2    0    0 -0.64147646177E+03 -0.97399736229E+03 -0.18517456952E+03  0.11808693975E+04  0.00000000000E+00 0.  1.
<mgrwt>
<rscale>  0 0.25594601E+04</rscale>
<asrwt>0</asrwt>
<pdfrwt beam="1">  1        1 0.25960031E+00 0.25594601E+04</pdfrwt>
<pdfrwt beam="2">  1       -1 0.14931547E+00 0.25594601E+04</pdfrwt>
<totfact> 0.15177137E+00</totfact>
</mgrwt>
</event>
<event>
 6    1  0.9906445E-006  0.2032955E+04  0.7818608E-02  0.8591366E-01
          2   -1    0    0  501    0  0.00000000000E+00  0.00000000000E+00  0.28901929143E+04  0.28901929143E+04  0.00000000000E+00 0. -1.
         -2   -1    0    0    0  501 -0.00000000000E+00 -0.00000000000E+00 -0.35749408172E+03  0.35749408172E+03  0.00000000000E+00 0.  1.
         23    2    1    2    0    0 -0.77269998209E+03 -0.51736661975E+03  0.62530472312E+03  0.11256865789E+04  0.10691489861E+03 0.  0.
         11    1    3    3    0    0 -0.44346265487E+03 -0.33765650491E+03  0.32515640349E+03  0.64528887198E+03  0.00000000000E+00 0. -1.
        -11    1    3    3    0    0 -0.32923732721E+03 -0.17971011485E+03  0.30014831963E+03  0.48039770689E+03  0.00000000000E+00 0.  1.
         22    1    1    2    0    0  0.77269998209E+03  0.51736661975E+03  0.19073941094E+04  0.21220004171E+04  0.00000000000E+00 0. -1.
<mgrwt>
<rscale>  0 0.20329553E+04</rscale>
<asrwt>0</asrwt>
<pdfrwt beam="1">  1        2 0.44464505E+00 0.20329553E+04</pdfrwt>
<pdfrwt beam="2">  1       -2 0.54999091E-01 0.20329553E+04</pdfrwt>
<totfact> 0.58787877E+00</totfact>
</mgrwt>
</event>
<event>
 6    1  0.9906445E-006  0.3163438E+04  0.7818608E-02  0.8198540E-01
         -1   -1    0    0    0  501 -0.00000000000E+00  0.00000000000E+00  0.92916084689E+03  0.92916084689E+03  0.00000000000E+00 0.  1.
          1   -1    0    0  501    0  0.00000000000E+00 -0.00000000000E+00 -0.26925741550E+04  0.26925741550E+04  0.00000000000E+00 0. -1.
         23    2    1    2    0    0 -0.13403872622E+04  0.29148983661E+03 -0.17811637781E+04  0.22499043212E+04  0.88998384825E+02 0.  0.
         11    1    3    3    0    0 -0.95263395964E+03  0.17529351268E+03 -0.12130077998E+04  0.15522973939E+04  0.00000000000E+00 0. -1.
        -11    1    3    3    0    0 -0.38775330254E+03  0.11619632393E+03 -0.56815597825E+03  0.69760692725E+03  0.00000000000E+00 0.  1.
         22    1    1    2    0    0  0.13403872622E+04 -0.29148983661E+03  0.17750469968E+02  0.13718306807E+04  0.00000000000E+00 0.  1.
<mgrwt>
<rscale>  0 0.31634377E+04</rscale>
<asrwt>0</asrwt>
<pdfrwt beam="1">  1        1 0.41424217E+00 0.31634377E+04</pdfrwt>
<pdfrwt beam="2">  1       -1 0.14294783E+00 0.31634377E+04</pdfrwt>
<totfact> 0.33061410E-01</totfact>
</mgrwt>
</event>
<event>
 6    1  0.9906445E-006  0.3291239E+04  0.7818608E-02  0.8165128E-01
          2   -1    0    0  501    0  0.00000000000E+00  0.00000000000E+00  0.14569117894E+04  0.14569117894E+04  0.00000000000E+00 0. -1.
         -2   -1    0    0    0  501 -0.00000000000E+00 -0.00000000000E+00 -0.18587693909E+04  0.18587693909E+04  0.00000000000E+00 0.  1.
         23    2    1    2    0    0  0.13586362158E+03 -0.81908840458E+03 -0.16308668768E+04  0.18324992842E+04  0.94668468166E+02 0.  0.
         13    1    3    3    0    0  0.17963994372E+02 -0.29345365438E+03 -0.50381654905E+03  0.58332569587E+03  0.00000000000E+00 0. -1.
        -13    1    3    3    0    0  0.11789962721E+03 -0.52563475020E+03 -0.11270503277E+04  0.12491735884E+04  0.00000000000E+00 0.  1.
         22    1    1    2    0    0 -0.13586362158E+03  0.81908840458E+03  0.12290092753E+04  0.14831818961E+04  0.00000000000E+00 0. -1.
<mgrwt>
<rscale>  0 0.32912387E+04</rscale>
<asrwt>0</asrwt>
<pdfrwt beam="1">  1        2 0.22414028E+00 0.32912387E+04</pdfrwt>
<pdfrwt beam="2">  1       -2 0.28596452E+00 0.32912387E+04</pdfrwt>
<totfact> 0.43461267E-01</totfact>
</mgrwt>
</event>
<event>
 6    1  0.9906445E-006  0.4779393E+03  0.7818608E-02  0.1019703E+00
          2   -1    0    0  501    0  0.00000000000E+00  0.00000000000E+00  0.13804871479E+03  0.13804871479E+03  0.00000000000E+00 0. -1.
         -2   -1    0    0    0  501 -0.00000000000E+00 -0.00000000000E+00 -0.41366909008E+03  0.41366909008E+03  0.00000000000E+00 0.  1.
         23    2    1    2    0    0  0.63877187715E+02  0.20586106998E+03 -0.23629725155E+03  0.33261649656E+03  0.91314114186E+02 0.  0.
         11    1    3    3    0    0  0.78037839522E+02  0.10073270661E+03 -0.14060807463E+03  0.18975672117E+03  0.00000000000E+00 0. -1.
        -11    1    3    3    0    0 -0.14160651807E+02  0.10512836337E+03 -0.95689176920E+02  0.14285977539E+03  0.00000000000E+00 0.  1.
         22    1    1    2    0    0 -0.63877187715E+02 -0.20586106998E+03 -0.39323123735E+02  0.21910130831E+03  0.00000000000E+00 0.  1.
<mgrwt>
<rscale>  0 0.47793927E+03</rscale>
<asrwt>0</asrwt>
<pdfrwt beam="1">  1        2 0.21238264E-01 0.47793927E+03</pdfrwt>
<pdfrwt beam="2">  1       -2 0.63641397E-01 0.47793927E+03</pdfrwt>
<totfact> 0.60903718E+02</totfact>
</mgrwt>
</event>
<event>
 6    1  0.9906445E-006  0.1497207E+04  0.7818608E-02  0.8886312E-01
         -2   -1    0    0    0  501 -0.00000000000E+00  0.00000000000E+00  0.13479218378E+03  0.13479218378E+03  0.00000000000E+00 0.  1.
          2   -1    0    0  501    0  0.00000000000E+00 -0.00000000000E+00 -0.41575645597E+04  0.41575645597E+04  0.00000000000E+00 0. -1.
         23    2    1    2    0    0 -0.46798941048E+03  0.57452222091E+03 -0.17784012160E+04  0.19288229963E+04  0.92506190585E+02 0.  0.
         13    1    3    3    0    0 -0.45348727503E+03  0.54133089978E+03 -0.16363487151E+04  0.17822252858E+04  0.00000000000E+00 0. -1.
        -13    1    3    3    0    0 -0.14502135455E+02  0.33191321137E+02 -0.14205250086E+03  0.14659771053E+03  0.00000000000E+00 0.  1.
         22    1    1    2    0    0  0.46798941048E+03 -0.57452222091E+03 -0.22443711599E+04  0.23635337472E+04  0.00000000000E+00 0.  1.
<mgrwt>
<rscale>  0 0.14972070E+04</rscale>
<asrwt>0</asrwt>
<pdfrwt beam="1">  1        2 0.63962526E+00 0.14972070E+04</pdfrwt>
<pdfrwt beam="2">  1       -2 0.20737261E-01 0.14972070E+04</pdfrwt>
<totfact> 0.50382375E+00</totfact>
</mgrwt>
</event>
<event>
 6    1  0.9906445E-006  0.2014885E+04  0.7818608E-02  0.8599693E-01
          1   -1    0    0  501    0  0.00000000000E+00  0.00000000000E+00  0.14906123339E+04  0.14906123339E+04  0.00000000000E+00 0. -1.
         -1   -1    0    0    0  501 -0.00000000000E+00 -0.00000000000E+00 -0.68088819194E+03  0.68088819194E+03  0.00000000000E+00 0.  1.
         23    2    1    2    0    0  0.18438724010E+03  0.33921007372E+03  0.14061555944E+04  0.14610129426E+04  0.90681500557E+02 0.  0.
         13    1    3    3    0    0  0.45108726307E+02  0.54134055114E+02  0.39538515802E+03  0.40161513454E+03  0.00000000000E+00 0.  1.
        -13    1    3    3    0    0  0.13927851379E+03  0.28507601861E+03  0.10107704364E+04  0.10593978081E+04  0.00000000000E+00 0. -1.
         22    1    1    2    0    0 -0.18438724010E+03 -0.33921007372E+03 -0.59643145242E+03  0.71048758319E+03  0.00000000000E+00 0.  1.
<mgrwt>
<rscale>  0 0.20148849E+04</rscale>
<asrwt>0</asrwt>
<pdfrwt beam="1">  1        1 0.22932497E+00 0.20148849E+04</pdfrwt>
<pdfrwt beam="2">  1       -1 0.10475203E+00 0.20148849E+04</pdfrwt>
<totfact> 0.52665993E+00</totfact>
</mgrwt>
</event>
<event>
 6    1  0.9906445E-006  0.3432569E+04  0.7818608E-02  0.8129959E-01
         -2   -1    0    0    0  501 -0.00000000000E+00  0.00000000000E+00  0.12144915154E+04  0.12144915154E+04  0.00000000000E+00 0.  1.
          2   -1    0    0  501    0  0.00000000000E+00 -0.00000000000E+00 -0.24254033577E+04  0.24254033577E+04  0.00000000000E+00 0. -1.
         23    2    1    2    0    0 -0.90174816181E+03  0.51079384477E+03 -0.20550112494E+04  0.23032708017E+04  0.89022758019E+02 0.  0.
         13    1    3    3    0    0 -0.40100597705E+03  0.27743309495E+03 -0.98052098531E+03  0.10950782248E+04  0.00000000000E+00 0. -1.
        -13    1    3    3    0    0 -0.50074218476E+03  0.23336074983E+03 -0.10744902641E+04  0.12081925769E+04  0.00000000000E+00 0.  1.
         22    1    1    2    0    0  0.90174816181E+03 -0.51079384477E+03  0.84409940712E+03  0.13366240714E+04  0.00000000000E+00 0.  1.
<mgrwt>
<rscale>  0 0.34325686E+04</rscale>
<asrwt>0</asrwt>
<pdfrwt beam="1">  1        2 0.37313898E+00 0.34325686E+04</pdfrwt>
<pdfrwt beam="2">  1       -2 0.18684485E+00 0.34325686E+04</pdfrwt>
<totfact> 0.51700061E-01</totfact>
</mgrwt>
</event>
<event>
 6    1  0.9906445E-006  0.1928059E+04  0.7818608E-02  0.8641014E-01
          2   -1    0    0  501    0  0.00000000000E+00  0.00000000000E+00  0.29057970345E+04  0.29057970345E+04  0.00000000000E+00 0. -1.
         -2   -1    0    0    0  501 -0.00000000000E+00 -0.00000000000E+00 -0.31982718412E+03  0.31982718412E+03  0.00000000000E+00 0.  1.
         23    2    1    2    0    0 -0.32974598079E+03  0.81514854141E+03  0.19481160808E+04  0.21393199391E+04  0.91290640270E+02 0.  0.
         11    1    3    3    0    0 -0.23665527391E+03  0.64678825193E+03  0.15912158860E+04  0.17338710325E+04  0.00000000000E+00 0.  1.
        -11    1    3    3    0    0 -0.93090706885E+02  0.16836028948E+03  0.35690019478E+03  0.40544890654E+03  0.00000000000E+00 0. -1.
         22    1    1    2    0    0  0.32974598079E+03 -0.81514854141E+03  0.63785376957E+03  0.10863042795E+04  0.00000000000E+00 0.  1.
<mgrwt>
<rscale>  0 0.19280590E+04</rscale>
<asrwt>0</asrwt>
<pdfrwt beam="1">  1        2 0.44704568E+00 0.19280590E+04</pdfrwt>
<pdfrwt beam="2">  1       -2 0.49204184E-01 0.19280590E+04</pdfrwt>
<totfact> 0.72979993E+00</totfact>
</mgrwt>
</event>
<event>
 6    1  0.9906445E-006  0.4131539E+04  0.7818608E-02  0.7978524E-01
         -1   -1    0    0    0  501 -0.00000000000E+00  0.00000000000E+00  0.18586370668E+04  0.18586370668E+04  0.00000000000E+00 0.  1.
          1   -1    0    0  501    0  0.00000000000E+00 -0.00000000000E+00 -0.22959852318E+04  0.22959852318E+04  0.00000000000E+00 0. -1.
         23    2    1    2    0    0  0.77636550612E+03 -0.63915123587E+03 -0.20321900275E+04  0.22692103363E+04  0.90893021752E+02 0.  0.
         11    1    3    3    0    0  0.15904397178E+03 -0.17987764479E+03 -0.46532002493E+03  0.52361596390E+03  0.00000000000E+00 0. -1.
        -11    1    3    3    0    0  0.61732153434E+03 -0.45927359108E+03 -0.15668700025E+04  0.17455943724E+04  0.00000000000E+00 0.  1.
         22    1    1    2    0    0 -0.77636550612E+03  0.63915123587E+03  0.15948418624E+04  0.18854119623E+04  0.00000000000E+00 0.  1.
<mgrwt>
<rscale>  0 0.41315388E+04</rscale>
<asrwt>0</asrwt>
<pdfrwt beam="1">  1        1 0.35322850E+00 0.41315388E+04</pdfrwt>
<pdfrwt beam="2">  1       -1 0.28594417E+00 0.41315388E+04</pdfrwt>
<totfact> 0.59074457E-02</totfact>
</mgrwt>
</event>
<event>
 6    1  0.9906445E-006  0.1586806E+04  0.7818608E-02  0.8828695E-01
         -2   -1    0    0    0  501 -0.00000000000E+00  0.00000000000E+00  0.93093865763E+03  0.93093865763E+03  0.00000000000E+00 0.  1.
          2   -1    0    0  501    0  0.00000000000E+00 -0.00000000000E+00 -0.67618639869E+03  0.67618639869E+03  0.00000000000E+00 0. -1.
         23    2    1    2    0    0  0.23952246566E+03 -0.57966275848E+03 -0.36012126050E+03  0.72880315062E+03  0.89926553200E+02 0.  0.
         11    1    3    3    0    0  0.88445511554E+02 -0.11587800309E+03 -0.87380449304E+02  0.16995782723E+03  0.00000000000E+00 0.  1.
        -11    1    3    3    0    0  0.15107695410E+03 -0.46378475539E+03 -0.27274081119E+03  0.55884532339E+03  0.00000000000E+00 0. -1.
         22    1    1    2    0    0 -0.23952246566E+03  0.57966275848E+03  0.61487351944E+03  0.87832190570E+03  0.00000000000E+00 0.  1.
<mgrwt>
<rscale>  0 0.15868057E+04</rscale>
<asrwt>0</asrwt>
<pdfrwt beam="1">  1        2 0.10402868E+00 0.15868057E+04</pdfrwt>
<pdfrwt beam="2">  1       -2 0.14322133E+00 0.15868057E+04</pdfrwt>
<totfact> 0.13898434E+01</totfact>
</mgrwt>
</event>
<event>
 6    1  0.9906445E-006  0.1102611E+04  0.7818608E-02  0.9202651E-01
          1   -1    0    0  501    0  0.00000000000E+00  0.00000000000E+00  0.76005069435E+03  0.76005069435E+03  0.00000000000E+00 0. -1.
         -1   -1    0    0    0  501 -0.00000000000E+00 -0.00000000000E+00 -0.39989111487E+03  0.39989111487E+03  0.00000000000E+00 0.  1.
         23    2    1    2    0    0  0.22116517372E+03  0.45253578781E+03 -0.46249557362E+02  0.51273932172E+03  0.84023313223E+02 0.  0.
         13    1    3    3    0    0  0.12760183146E+03  0.18291579199E+03 -0.44071001729E+02  0.22733822280E+03  0.00000000000E+00 0.  1.
        -13    1    3    3    0    0  0.93563342260E+02  0.26961999582E+03 -0.21785556326E+01  0.28540109892E+03  0.00000000000E+00 0. -1.
         22    1    1    2    0    0 -0.22116517372E+03 -0.45253578781E+03  0.40640913684E+03  0.64720248750E+03  0.00000000000E+00 0. -1.
<mgrwt>
<rscale>  0 0.11026106E+04</rscale>
<asrwt>0</asrwt>
<pdfrwt beam="1">  1        1 0.11693088E+00 0.11026106E+04</pdfrwt>
<pdfrwt beam="2">  1       -1 0.61521710E-01 0.11026106E+04</pdfrwt>
<totfact> 0.64049113E+01</totfact>
</mgrwt>
</event>
<event>
 6    1  0.9906445E-006  0.6856253E+03  0.7818608E-02  0.9742136E-01
         -2   -1    0    0    0  501 -0.00000000000E+00  0.00000000000E+00  0.90369864790E+02  0.90369864790E+02  0.00000000000E+00 0.  1.
          2   -1    0    0  501    0  0.00000000000E+00 -0.00000000000E+00 -0.13004391030E+04  0.13004391030E+04  0.00000000000E+00 0. -1.
         23    2    1    2    0    0  0.21051261370E+03  0.11129094329E+03 -0.13543477602E+03  0.29010898055E+03  0.95495588672E+02 0.  0.
         11    1    3    3    0    0  0.11415785707E+03  0.21945089053E+02 -0.10167227029E+03  0.15443721640E+03  0.00000000000E+00 0. -1.
        -11    1    3    3    0    0  0.96354756627E+02  0.89345854233E+02 -0.33762505731E+02  0.13567176415E+03  0.00000000000E+00 0.  1.
         22    1    1    2    0    0 -0.21051261370E+03 -0.11129094329E+03 -0.10746344622E+04  0.11006999873E+04  0.00000000000E+00 0. -1.
<mgrwt>
<rscale>  0 0.68562528E+03</rscale>
<asrwt>0</asrwt>
<pdfrwt beam="1">  1        2 0.20006755E+00 0.68562528E+03</pdfrwt>
<pdfrwt beam="2">  1       -2 0.13903057E-01 0.68562528E+03</pdfrwt>
<totfact> 0.66556176E+02</totfact>
</mgrwt>
</event>
<event>
 6    1  0.9906445E-006  0.2260634E+04  0.7818608E-02  0.8493606E-01
         -2   -1    0    0    0  501 -0.00000000000E+00  0.00000000000E+00  0.52914422215E+03  0.52914422215E+03  0.00000000000E+00 0.  1.
          2   -1    0    0  501    0  0.00000000000E+00 -0.00000000000E+00 -0.24144957187E+04  0.24144957187E+04  0.00000000000E+00 0. -1.
         23    2    1    2    0    0 -0.16251232574E+03  0.82753097862E+03  0.32055367704E+02  0.84896410443E+03  0.92166845568E+02 0.  0.
         11    1    3    3    0    0 -0.79601078318E+01  0.25931936075E+03  0.50876624110E+01  0.25949138422E+03  0.00000000000E+00 0. -1.
        -11    1    3    3    0    0 -0.15455221791E+03  0.56821161787E+03  0.26967705293E+02  0.58947272021E+03  0.00000000000E+00 0.  1.
         22    1    1    2    0    0  0.16251232574E+03 -0.82753097862E+03 -0.19174068642E+04  0.20946758364E+04  0.00000000000E+00 0. -1.
<mgrwt>
<rscale>  0 0.22606339E+04</rscale>
<asrwt>0</asrwt>
<pdfrwt beam="1">  1        2 0.37146088E+00 0.22606339E+04</pdfrwt>
<pdfrwt beam="2">  1       -2 0.81406803E-01 0.22606339E+04</pdfrwt>
<totfact> 0.47139941E+00</totfact>
</mgrwt>
</event>
<event>
 6    1  0.9906445E-006  0.1363156E+04  0.7818608E-02  0.8980929E-01
         -1   -1    0    0    0  501 -0.00000000000E+00  0.00000000000E+00  0.55705738290E+03  0.55705738290E+03  0.00000000000E+00 0.  1.
          1   -1    0    0  501    0  0.00000000000E+00 -0.00000000000E+00 -0.83393269893E+03  0.83393269893E+03  0.00000000000E+00 0. -1.
         23    2    1    2    0    0  0.58621067626E+03  0.32762993829E+03 -0.23807128241E+03  0.71831624819E+03  0.91191904699E+02 0.  0.
         13    1    3    3    0    0  0.24335841275E+03  0.85448924466E+02 -0.93993369870E+02  0.27451701100E+03  0.00000000000E+00 0.  1.
        -13    1    3    3    0    0  0.34285226351E+03  0.24218101382E+03 -0.14407791254E+03  0.44379923719E+03  0.00000000000E+00 0. -1.
         22    1    1    2    0    0 -0.58621067626E+03 -0.32762993829E+03 -0.38804033623E+02  0.67267383363E+03  0.00000000000E+00 0.  1.
<mgrwt>
<rscale>  0 0.13631557E+04</rscale>
<asrwt>0</asrwt>
<pdfrwt beam="1">  1        1 0.12829734E+00 0.13631557E+04</pdfrwt>
<pdfrwt beam="2">  1       -1 0.85701136E-01 0.13631557E+04</pdfrwt>
<totfact> 0.27189056E+01</totfact>
</mgrwt>
</event>
<event>
 6    1  0.9906445E-006  0.1956162E+04  0.7818608E-02  0.8627395E-01
          2   -1    0    0  501    0  0.00000000000E+00  0.00000000000E+00  0.20648664812E+04  0.20648664812E+04  0.00000000000E+00 0. -1.
         -2   -1    0    0    0  501 -0.00000000000E+00 -0.00000000000E+00 -0.46329492340E+03  0.46329492340E+03  0.00000000000E+00 0.  1.
         23    2    1    2    0    0  0.72073692302E+03 -0.52054319931E+03  0.13225540789E+04  0.15963472127E+04  0.93531799918E+02 0.  0.
         13    1    3    3    0    0  0.37718694488E+03 -0.27788256939E+03  0.61349457953E+03  0.77192247854E+03  0.00000000000E+00 0. -1.
        -13    1    3    3    0    0  0.34354997814E+03 -0.24266062993E+03  0.70905949932E+03  0.82442473421E+03  0.00000000000E+00 0.  1.
         22    1    1    2    0    0 -0.72073692302E+03  0.52054319931E+03  0.27901747893E+03  0.93181419183E+03  0.00000000000E+00 0.  1.
<mgrwt>
<rscale>  0 0.19561617E+04</rscale>
<asrwt>0</asrwt>
<pdfrwt beam="1">  1        2 0.31767176E+00 0.19561617E+04</pdfrwt>
<pdfrwt beam="2">  1       -2 0.71276143E-01 0.19561617E+04</pdfrwt>
<totfact> 0.10240742E+01</totfact>
</mgrwt>
</event>
<event>
 6    1  0.9906445E-006  0.2687999E+04  0.7818608E-02  0.8338909E-01
          1   -1    0    0  501    0  0.00000000000E+00  0.00000000000E+00  0.77590002612E+03  0.77590002612E+03  0.00000000000E+00 0. -1.
         -1   -1    0    0    0  501 -0.00000000000E+00 -0.00000000000E+00 -0.23280513441E+04  0.23280513441E+04  0.00000000000E+00 0.  1.
         23    2    1    2    0    0  0.56502867154E+03 -0.97352170863E+03  0.69854748667E+02  0.11296399467E+04  0.64844478748E+02 0.  0.
         13    1    3    3    0    0  0.13686130252E+03 -0.19139875498E+03  0.53455833029E+00  0.23529722754E+03  0.00000000000E+00 0.  1.
        -13    1    3    3    0    0  0.42816736902E+03 -0.78212295365E+03  0.69320190336E+02  0.89434271916E+03  0.00000000000E+00 0. -1.
         22    1    1    2    0    0 -0.56502867154E+03  0.97352170863E+03 -0.16220060667E+04  0.19743114235E+04  0.00000000000E+00 0.  1.
<mgrwt>
<rscale>  0 0.26879993E+04</rscale>
<asrwt>0</asrwt>
<pdfrwt beam="1">  1        1 0.11936924E+00 0.26879993E+04</pdfrwt>
<pdfrwt beam="2">  1       -1 0.35816174E+00 0.26879993E+04</pdfrwt>
<totfact> 0.27826374E-01</totfact>
</mgrwt>
</event>
<event>
 6    1  0.9906445E-006  0.3447679E+04  0.7818608E-02  0.8126303E-01
         -2   -1    0    0    0  501 -0.00000000000E+00  0.00000000000E+00  0.10499898813E+04  0.10499898813E+04  0.00000000000E+00 0.  1.
          2   -1    0    0  501    0  0.00000000000E+00 -0.00000000000E+00 -0.28301435245E+04  0.28301435245E+04  0.00000000000E+00 0. -1.
         23    2    1    2    0    0 -0.13798719291E+04 -0.32165703178E+03  0.21196551677E+03  0.14355376244E+04  0.91263923463E+02 0.  0.
         13    1    3    3    0    0 -0.41885836960E+03 -0.90467320105E+02  0.22465502505E+02  0.42910531177E+03  0.00000000000E+00 0. -1.
        -13    1    3    3    0    0 -0.96101355955E+03 -0.23118971168E+03  0.18950001427E+03  0.10064323126E+04  0.00000000000E+00 0.  1.
         22    1    1    2    0    0  0.13798719291E+04  0.32165703178E+03 -0.19921191600E+04  0.24445957814E+04  0.00000000000E+00 0. -1.
<mgrwt>
<rscale>  0 0.34476787E+04</rscale>
<asrwt>0</asrwt>
<pdfrwt beam="1">  1        2 0.43540669E+00 0.34476787E+04</pdfrwt>
<pdfrwt beam="2">  1       -2 0.16153691E+00 0.34476787E+04</pdfrwt>
<totfact> 0.44875232E-01</totfact>
</mgrwt>
</event>
<event>
 6    1  0.9906445E-006  0.2367465E+04  0.7818608E-02  0.8451785E-01
         -2   -1    0    0    0  501 -0.00000000000E+00  0.00000000000E+00  0.50789612983E+03  0.50789612983E+03  0.00000000000E+00 0.  1.
          2   -1    0    0  501    0  0.00000000000E+00 -0.00000000000E+00 -0.27588771959E+04  0.27588771959E+04  0.00000000000E+00 0. -1.
         23    2    1    2    0    0 -0.81741000606E+03 -0.76830411495E+03 -0.16405766691E+04  0.19896500510E+04  0.93622578186E+02 0.  0.
         13    1    3    3    0    0 -0.27291738072E+03 -0.24977690488E+03 -0.62027601410E+03  0.72222900286E+03  0.00000000000E+00 0.  1.
        -13    1    3    3    0    0 -0.54449262534E+03 -0.51852721008E+03 -0.10203006550E+04  0.12674210481E+04  0.00000000000E+00 0. -1.
         22    1    1    2    0    0  0.81741000606E+03  0.76830411495E+03 -0.61040439698E+03  0.12771232748E+04  0.00000000000E+00 0.  1.
<mgrwt>
<rscale>  0 0.23674654E+04</rscale>
<asrwt>0</asrwt>
<pdfrwt beam="1">  1        2 0.42444265E+00 0.23674654E+04</pdfrwt>
<pdfrwt beam="2">  1       -2 0.78137866E-01 0.23674654E+04</pdfrwt>
<totfact> 0.32177242E+00</totfact>
</mgrwt>
</event>
<event>
 6    1  0.9906445E-006  0.9149937E+03  0.7818608E-02  0.9407030E-01
         -2   -1    0    0    0  501 -0.00000000000E+00  0.00000000000E+00  0.19455620538E+03  0.19455620538E+03  0.00000000000E+00 0.  1.
          2   -1    0    0  501    0  0.00000000000E+00 -0.00000000000E+00 -0.10757990733E+04  0.10757990733E+04  0.00000000000E+00 0. -1.
         23    2    1    2    0    0  0.39216958309E+03  0.71895997894E+02 -0.14624959994E+03  0.43418476951E+03  0.90340755936E+02 0.  0.
         13    1    3    3    0    0  0.14473212898E+03  0.67056741025E+02 -0.77418233307E+02  0.17730645371E+03  0.00000000000E+00 0.  1.
        -13    1    3    3    0    0  0.24743745410E+03  0.48392568697E+01 -0.68831366629E+02  0.25687831581E+03  0.00000000000E+00 0. -1.
         22    1    1    2    0    0 -0.39216958309E+03 -0.71895997894E+02 -0.73499326802E+03  0.83617050919E+03  0.00000000000E+00 0. -1.
<mgrwt>
<rscale>  0 0.91499374E+03</rscale>
<asrwt>0</asrwt>
<pdfrwt beam="1">  1        2 0.16550755E+00 0.91499374E+03</pdfrwt>
<pdfrwt beam="2">  1       -2 0.29931724E-01 0.91499374E+03</pdfrwt>
<totfact> 0.23238025E+02</totfact>
</mgrwt>
</event>
<event>
 6    1  0.9906445E-006  0.2444118E+04  0.7818608E-02  0.8423169E-01
         -1   -1    0    0    0  501 -0.00000000000E+00  0.00000000000E+00  0.16491420247E+04  0.16491420247E+04  0.00000000000E+00 0.  1.
          1   -1    0    0  501    0  0.00000000000E+00 -0.00000000000E+00 -0.90557864575E+03  0.90557864575E+03  0.00000000000E+00 0. -1.
         23    2    1    2    0    0 -0.46732011343E+03  0.71976229416E+03  0.12793236086E+04  0.15430463789E+04  0.88754623833E+02 0.  0.
         13    1    3    3    0    0 -0.30811338039E+03  0.53876149139E+03  0.95480764392E+03  0.11387956079E+04  0.00000000000E+00 0. -1.
        -13    1    3    3    0    0 -0.15920673304E+03  0.18100080277E+03  0.32451596472E+03  0.40425077095E+03  0.00000000000E+00 0.  1.
         22    1    1    2    0    0  0.46732011343E+03 -0.71976229416E+03 -0.53576022968E+03  0.10116742916E+04  0.00000000000E+00 0. -1.
<mgrwt>
<rscale>  0 0.24441177E+04</rscale>
<asrwt>0</asrwt>
<pdfrwt beam="1">  1        1 0.13931979E+00 0.24441177E+04</pdfrwt>
<pdfrwt beam="2">  1       -1 0.25371416E+00 0.24441177E+04</pdfrwt>
<totfact> 0.10597494E+00</totfact>
</mgrwt>
</event>
<event>
 6    1  0.9906445E-006  0.9936072E+03  0.7818608E-02  0.9315584E-01
          3   -1    0    0  501    0  0.00000000000E+00  0.00000000000E+00  0.92134772835E+03  0.92134772835E+03  0.00000000000E+00 0. -1.
         -3   -1    0    0    0  501 -0.00000000000E+00 -0.00000000000E+00 -0.26788345953E+03  0.26788345953E+03  0.00000000000E+00 0.  1.
         23    2    1    2    0    0 -0.33796415704E+03 -0.27383678286E+03  0.54893117239E+02  0.44930296258E+03  0.98252444084E+02 0.  0.
         11    1    3    3    0    0 -0.27346366074E+03 -0.24299426769E+03  0.12197112462E+02  0.36602917565E+03  0.00000000000E+00 0. -1.
        -11    1    3    3    0    0 -0.64500496298E+02 -0.30842515171E+02  0.42696004777E+02  0.83273786924E+02  0.00000000000E+00 0.  1.
         22    1    1    2    0    0  0.33796415704E+03  0.27383678286E+03  0.59857115158E+03  0.73992822530E+03  0.00000000000E+00 0. -1.
<mgrwt>
<rscale>  0 0.99360720E+03</rscale>
<asrwt>0</asrwt>
<pdfrwt beam="1">  1        3 0.14174580E+00 0.99360720E+03</pdfrwt>
<pdfrwt beam="2">  1       -3 0.41212840E-01 0.99360720E+03</pdfrwt>
<totfact> 0.57398416E+00</totfact>
</mgrwt>
</event>
<event>
 6    1  0.9906445E-006  0.2174806E+04  0.7818608E-02  0.8528988E-01
         -1   -1    0    0    0  501 -0.00000000000E+00  0.00000000000E+00  0.84043450872E+03  0.84043450872E+03  0.00000000000E+00 0.  1.
          1   -1    0    0  501    0  0.00000000000E+00 -0.00000000000E+00 -0.14069453675E+04  0.14069453675E+04  0.00000000000E+00 0. -1.
         23    2    1    2    0    0 -0.57056569224E+03  0.30258520412E+03  0.61802871045E+03  0.89821828250E+03  0.87940782186E+02 0.  0.
         13    1    3    3    0    0 -0.49107397035E+03  0.22678568929E+03  0.53212276259E+03  0.75877534731E+03  0.00000000000E+00 0.  1.
        -13    1    3    3    0    0 -0.79491721886E+02  0.75799514827E+02  0.85905947858E+02  0.13944293519E+03  0.00000000000E+00 0. -1.
         22    1    1    2    0    0  0.57056569224E+03 -0.30258520412E+03 -0.11845395693E+04  0.13491615938E+04  0.00000000000E+00 0. -1.
<mgrwt>
<rscale>  0 0.21748061E+04</rscale>
<asrwt>0</asrwt>
<pdfrwt beam="1">  1        1 0.21645313E+00 0.21748061E+04</pdfrwt>
<pdfrwt beam="2">  1       -1 0.12929762E+00 0.21748061E+04</pdfrwt>
<totfact> 0.35690290E+00</totfact>
</mgrwt>
</event>
<event>
 6    1  0.9906445E-006  0.2477051E+04  0.7818608E-02  0.8411207E-01
         -2   -1    0    0    0  501 -0.00000000000E+00  0.00000000000E+00  0.20418011264E+04  0.20418011264E+04  0.00000000000E+00 0.  1.
          2   -1    0    0  501    0  0.00000000000E+00 -0.00000000000E+00 -0.75127058212E+03  0.75127058212E+03  0.00000000000E+00 0. -1.
         23    2    1    2    0    0  0.11006008907E+04  0.27323640697E+03  0.92139893189E+02  0.11431866800E+04  0.11138029717E+03 0.  0.
         11    1    3    3    0    0  0.64444766116E+03  0.18981613494E+03  0.10107997769E+03  0.67938215677E+03  0.00000000000E+00 0.  1.
        -11    1    3    3    0    0  0.45615322957E+03  0.83420272027E+02 -0.89400844981E+01  0.46380452321E+03  0.00000000000E+00 0. -1.
         22    1    1    2    0    0 -0.11006008907E+04 -0.27323640697E+03  0.11983906511E+04  0.16498850285E+04  0.00000000000E+00 0.  1.
<mgrwt>
<rscale>  0 0.24770508E+04</rscale>
<asrwt>0</asrwt>
<pdfrwt beam="1">  1        2 0.11558009E+00 0.24770508E+04</pdfrwt>
<pdfrwt beam="2">  1       -2 0.31412325E+00 0.24770508E+04</pdfrwt>
<totfact> 0.87055050E-01</totfact>
</mgrwt>
</event>
<event>
 6    1  0.9906445E-006  0.2138369E+04  0.7818608E-02  0.8544527E-01
          1   -1    0    0  501    0  0.00000000000E+00  0.00000000000E+00  0.11805827647E+04  0.11805827647E+04  0.00000000000E+00 0. -1.
         -1   -1    0    0    0  501 -0.00000000000E+00 -0.00000000000E+00 -0.96829744561E+03  0.96829744561E+03  0.00000000000E+00 0.  1.
         23    2    1    2    0    0  0.22192666306E+03 -0.74155050757E+03 -0.63228702229E+03  0.10032576551E+04  0.87123159874E+02 0.  0.
         13    1    3    3    0    0  0.42000098157E+02 -0.28110663289E+03 -0.24553179115E+03  0.37559394000E+03  0.00000000000E+00 0.  1.
        -13    1    3    3    0    0  0.17992656491E+03 -0.46044387469E+03 -0.38675523114E+03  0.62766371515E+03  0.00000000000E+00 0. -1.
         22    1    1    2    0    0 -0.22192666306E+03  0.74155050757E+03  0.84457234135E+03  0.11456225551E+04  0.00000000000E+00 0. -1.
<mgrwt>
<rscale>  0 0.21383688E+04</rscale>
<asrwt>0</asrwt>
<pdfrwt beam="1">  1        1 0.18162812E+00 0.21383688E+04</pdfrwt>
<pdfrwt beam="2">  1       -1 0.14896884E+00 0.21383688E+04</pdfrwt>
<totfact> 0.35980131E+00</totfact>
</mgrwt>
</event>
<event>
 6    1  0.9906445E-006  0.1847490E+04  0.7818608E-02  0.8681445E-01
          2   -1    0    0  501    0  0.00000000000E+00  0.00000000000E+00  0.22547000532E+04  0.22547000532E+04  0.00000000000E+00 0. -1.
         -2   -1    0    0    0  501 -0.00000000000E+00 -0.00000000000E+00 -0.37845605701E+03  0.37845605701E+03  0.00000000000E+00 0.  1.
         23    2    1    2    0    0  0.79865158693E+03 -0.41337304786E+03  0.12268185209E+04  0.15238882967E+04  0.91816249772E+02 0.  0.
         13    1    3    3    0    0  0.42849946437E+03 -0.19881736065E+03  0.71273252360E+03  0.85506010553E+03  0.00000000000E+00 0. -1.
        -13    1    3    3    0    0  0.37015212255E+03 -0.21455568720E+03  0.51408599730E+03  0.66882819121E+03  0.00000000000E+00 0.  1.
         22    1    1    2    0    0 -0.79865158693E+03  0.41337304786E+03  0.64942547525E+03  0.11092678134E+04  0.00000000000E+00 0. -1.
<mgrwt>
<rscale>  0 0.18474901E+04</rscale>
<asrwt>0</asrwt>
<pdfrwt beam="1">  1        2 0.34687692E+00 0.18474901E+04</pdfrwt>
<pdfrwt beam="2">  1       -2 0.58224010E-01 0.18474901E+04</pdfrwt>
<totfact> 0.12486280E+01</totfact>
</mgrwt>
</event>
<event>
 6    1  0.9906445E-006  0.1848774E+04  0.7818608E-02  0.8680784E-01
          1   -1    0    0  501    0  0.00000000000E+00  0.00000000000E+00  0.11740055179E+04  0.11740055179E+04  0.00000000000E+00 0. -1.
         -1   -1    0    0    0  501 -0.00000000000E+00 -0.00000000000E+00 -0.72784254555E+03  0.72784254555E+03  0.00000000000E+00 0.  1.
         23    2    1    2    0    0  0.38433988881E+03 -0.40425792219E+03  0.97905522235E+03  0.11304105949E+04  0.90207354347E+02 0.  0.
         11    1    3    3    0    0  0.44918643384E+02 -0.13198516290E+02  0.93718821925E+02  0.10476212550E+03  0.00000000000E+00 0. -1.
        -11    1    3    3    0    0  0.33942124543E+03 -0.39105940590E+03  0.88533640042E+03  0.10256484694E+04  0.00000000000E+00 0.  1.
         22    1    1    2    0    0 -0.38433988881E+03  0.40425792219E+03 -0.53289225002E+03  0.77143746857E+03  0.00000000000E+00 0.  1.
<mgrwt>
<rscale>  0 0.18487738E+04</rscale>
<asrwt>0</asrwt>
<pdfrwt beam="1">  1        1 0.18061623E+00 0.18487738E+04</pdfrwt>
<pdfrwt beam="2">  1       -1 0.11197578E+00 0.18487738E+04</pdfrwt>
<totfact> 0.76772459E+00</totfact>
</mgrwt>
</event>
<event>
 6    1  0.9906445E-006  0.3756702E+04  0.7818608E-02  0.8055511E-01
         -2   -1    0    0    0  501 -0.00000000000E+00  0.00000000000E+00  0.12928428749E+04  0.12928428749E+04  0.00000000000E+00 0.  1.
          2   -1    0    0  501    0  0.00000000000E+00 -0.00000000000E+00 -0.27290272264E+04  0.27290272264E+04  0.00000000000E+00 0. -1.
         23    2    1    2    0    0  0.74940532299E+03 -0.90554159720E+03  0.84850099572E+03  0.14525509195E+04  0.91303404674E+02 0.  0.
         11    1    3    3    0    0  0.29395234746E+03 -0.28702302841E+03  0.29756976620E+03  0.50728489744E+03  0.00000000000E+00 0. -1.
        -11    1    3    3    0    0  0.45545297554E+03 -0.61851856879E+03  0.55093122952E+03  0.94526602210E+03  0.00000000000E+00 0.  1.
         22    1    1    2    0    0 -0.74940532299E+03  0.90554159720E+03 -0.22846853472E+04  0.25693191818E+04  0.00000000000E+00 0. -1.
<mgrwt>
<rscale>  0 0.37567025E+04</rscale>
<asrwt>0</asrwt>
<pdfrwt beam="1">  1        2 0.41985034E+00 0.37567025E+04</pdfrwt>
<pdfrwt beam="2">  1       -2 0.19889890E+00 0.37567025E+04</pdfrwt>
<totfact> 0.27758836E-01</totfact>
</mgrwt>
</event>
<event>
 6    1  0.9906445E-006  0.2570755E+04  0.7818608E-02  0.8378203E-01
         -2   -1    0    0    0  501 -0.00000000000E+00  0.00000000000E+00  0.17825797372E+04  0.17825797372E+04  0.00000000000E+00 0.  1.
          2   -1    0    0  501    0  0.00000000000E+00 -0.00000000000E+00 -0.92685633042E+03  0.92685633042E+03  0.00000000000E+00 0. -1.
         23    2    1    2    0    0 -0.11399223626E+03 -0.12758488733E+04  0.51647548509E+03  0.13843422107E+04  0.94190510219E+02 0.  0.
         13    1    3    3    0    0 -0.29315729668E+02 -0.37704630931E+03  0.10694918444E+03  0.39301585136E+03  0.00000000000E+00 0.  1.
        -13    1    3    3    0    0 -0.84676506593E+02 -0.89880256394E+03  0.40952630065E+03  0.99132635930E+03  0.00000000000E+00 0. -1.
         22    1    1    2    0    0  0.11399223626E+03  0.12758488733E+04  0.33924792164E+03  0.13250938569E+04  0.00000000000E+00 0. -1.
<mgrwt>
<rscale>  0 0.25707550E+04</rscale>
<asrwt>0</asrwt>
<pdfrwt beam="1">  1        2 0.14259328E+00 0.25707550E+04</pdfrwt>
<pdfrwt beam="2">  1       -2 0.27424304E+00 0.25707550E+04</pdfrwt>
<totfact> 0.11387435E+00</totfact>
</mgrwt>
</event>
<event>
 6    1  0.9906445E-006  0.5978105E+03  0.7818608E-02  0.9909959E-01
          2   -1    0    0  501    0  0.00000000000E+00  0.00000000000E+00  0.16470233804E+04  0.16470233804E+04  0.00000000000E+00 0.  1.
         -2   -1    0    0    0  501 -0.00000000000E+00 -0.00000000000E+00 -0.54245955915E+02  0.54245955915E+02  0.00000000000E+00 0. -1.
         23    2    1    2    0    0  0.66199689446E+02  0.26337815964E+03  0.50949113891E+03  0.58446155055E+03  0.90904508016E+02 0.  0.
         11    1    3    3    0    0  0.32672664375E+02  0.20618214943E+03  0.44704866437E+03  0.49338736309E+03  0.00000000000E+00 0.  1.
        -11    1    3    3    0    0  0.33527025071E+02  0.57196010208E+02  0.62442474545E+02  0.91074187458E+02  0.00000000000E+00 0. -1.
         22    1    1    2    0    0 -0.66199689446E+02 -0.26337815964E+03  0.10832862856E+04  0.11168077858E+04  0.00000000000E+00 0.  1.
<mgrwt>
<rscale>  0 0.59781053E+03</rscale>
<asrwt>0</asrwt>
<pdfrwt beam="1">  1        2 0.25338817E+00 0.59781053E+03</pdfrwt>
<pdfrwt beam="2">  1       -2 0.83455329E-02 0.59781053E+03</pdfrwt>
<totfact> 0.98705160E+02</totfact>
</mgrwt>
</event>
<event>
 6    1  0.9906445E-006  0.1149537E+04  0.7818608E-02  0.9158210E-01
         -1   -1    0    0    0  501 -0.00000000000E+00  0.00000000000E+00  0.25745511662E+03  0.25745511662E+03  0.00000000000E+00 0.  1.
          1   -1    0    0  501    0  0.00000000000E+00 -0.00000000000E+00 -0.12831716532E+04  0.12831716532E+04  0.00000000000E+00 0. -1.
         23    2    1    2    0    0 -0.62676953030E+02 -0.30018445981E+03 -0.11619401915E+04  0.12050735036E+04  0.89766530807E+02 0.  0.
         13    1    3    3    0    0 -0.64506425947E+02 -0.24669062457E+03 -0.81289322258E+03  0.85194643878E+03  0.00000000000E+00 0. -1.
        -13    1    3    3    0    0  0.18294729166E+01 -0.53493835244E+02 -0.34904696890E+03  0.35312706477E+03  0.00000000000E+00 0.  1.
         22    1    1    2    0    0  0.62676953030E+02  0.30018445981E+03  0.13622365490E+03  0.33555326627E+03  0.00000000000E+00 0.  1.
<mgrwt>
<rscale>  0 0.11495375E+04</rscale>
<asrwt>0</asrwt>
<pdfrwt beam="1">  1        1 0.19741102E+00 0.11495375E+04</pdfrwt>
<pdfrwt beam="2">  1       -1 0.39608480E-01 0.11495375E+04</pdfrwt>
<totfact> 0.57254623E+01</totfact>
</mgrwt>
</event>
<event>
 6    1  0.9906445E-006  0.2199872E+04  0.7818608E-02  0.8518482E-01
         -1   -1    0    0    0  501 -0.00000000000E+00  0.00000000000E+00  0.52167118198E+03  0.52167118198E+03  0.00000000000E+00 0.  1.
          1   -1    0    0  501    0  0.00000000000E+00 -0.00000000000E+00 -0.23191979565E+04  0.23191979565E+04  0.00000000000E+00 0. -1.
         23    2    1    2    0    0 -0.75087393063E+03  0.25400584180E+03 -0.18815077106E+04  0.20437597200E+04  0.92476486606E+02 0.  0.
         11    1    3    3    0    0 -0.50421935315E+03  0.21570626260E+03 -0.12867798718E+04  0.13987740298E+04  0.00000000000E+00 0. -1.
        -11    1    3    3    0    0 -0.24665457748E+03  0.38299579199E+02 -0.59472783882E+03  0.64498569024E+03  0.00000000000E+00 0.  1.
         22    1    1    2    0    0  0.75087393063E+03 -0.25400584180E+03  0.83980936131E+02  0.79710941846E+03  0.00000000000E+00 0.  1.
<mgrwt>
<rscale>  0 0.21998716E+04</rscale>
<asrwt>0</asrwt>
<pdfrwt beam="1">  1        1 0.35679969E+00 0.21998716E+04</pdfrwt>
<pdfrwt beam="2">  1       -1 0.80257104E-01 0.21998716E+04</pdfrwt>
<totfact> 0.25501185E+00</totfact>
</mgrwt>
</event>
<event>
 6    1  0.9906445E-006  0.1653460E+04  0.7818608E-02  0.8788362E-01
          3   -1    0    0  501    0  0.00000000000E+00  0.00000000000E+00  0.60187597590E+03  0.60187597590E+03  0.00000000000E+00 0. -1.
         -3   -1    0    0    0  501 -0.00000000000E+00 -0.00000000000E+00 -0.11355874328E+04  0.11355874328E+04  0.00000000000E+00 0.  1.
         23    2    1    2    0    0  0.22618718708E+03  0.41175086189E+03 -0.97916936295E+03  0.10900592367E+04  0.93579283413E+02 0.  0.
         13    1    3    3    0    0  0.17085279813E+03  0.35302771385E+03 -0.73785758574E+03  0.83561537935E+03  0.00000000000E+00 0.  1.
        -13    1    3    3    0    0  0.55334388942E+02  0.58723148035E+02 -0.24131177720E+03  0.25444385733E+03  0.00000000000E+00 0. -1.
         22    1    1    2    0    0 -0.22618718708E+03 -0.41175086189E+03  0.44545790606E+03  0.64740417200E+03  0.00000000000E+00 0. -1.
<mgrwt>
<rscale>  0 0.16534604E+04</rscale>
<asrwt>0</asrwt>
<pdfrwt beam="1">  1        3 0.92596305E-01 0.16534604E+04</pdfrwt>
<pdfrwt beam="2">  1       -3 0.17470576E+00 0.16534604E+04</pdfrwt>
<totfact> 0.56098092E-01</totfact>
</mgrwt>
</event>
<event>
 6    1  0.9906445E-006  0.2179240E+04  0.7818608E-02  0.8527119E-01
          1   -1    0    0  501    0  0.00000000000E+00  0.00000000000E+00  0.12132479943E+04  0.12132479943E+04  0.00000000000E+00 0. -1.
         -1   -1    0    0    0  501 -0.00000000000E+00 -0.00000000000E+00 -0.97858958846E+03  0.97858958846E+03  0.00000000000E+00 0.  1.
         23    2    1    2    0    0  0.84752847578E+03 -0.67273448526E+03  0.22865932379E+03  0.11097506205E+04  0.91570456019E+02 0.  0.
         13    1    3    3    0    0  0.42215450632E+03 -0.39329362789E+03  0.12467663560E+03  0.59028685265E+03  0.00000000000E+00 0. -1.
        -13    1    3    3    0    0  0.42537396946E+03 -0.27944085737E+03  0.10398268819E+03  0.51946376784E+03  0.00000000000E+00 0.  1.
         22    1    1    2    0    0 -0.84752847578E+03  0.67273448526E+03  0.59990820420E+01  0.10820869623E+04  0.00000000000E+00 0.  1.
<mgrwt>
<rscale>  0 0.21792401E+04</rscale>
<asrwt>0</asrwt>
<pdfrwt beam="1">  1        1 0.18665354E+00 0.21792401E+04</pdfrwt>
<pdfrwt beam="2">  1       -1 0.15055224E+00 0.21792401E+04</pdfrwt>
<totfact> 0.32975322E+00</totfact>
</mgrwt>
</event>
<event>
 6    1  0.9906445E-006  0.1373409E+04  0.7818608E-02  0.8973295E-01
          2   -1    0    0  501    0  0.00000000000E+00  0.00000000000E+00  0.35603503329E+04  0.35603503329E+04  0.00000000000E+00 0. -1.
         -2   -1    0    0    0  501 -0.00000000000E+00 -0.00000000000E+00 -0.13244845609E+03  0.13244845609E+03  0.00000000000E+00 0.  1.
         23    2    1    2    0    0  0.13703899251E+03 -0.22430321301E+03  0.34184866228E+04  0.34297773757E+04  0.90721772816E+02 0.  0.
         13    1    3    3    0    0  0.68471178740E+02 -0.11369589366E+03  0.11648919178E+04  0.11724283512E+04  0.00000000000E+00 0. -1.
        -13    1    3    3    0    0  0.68567813772E+02 -0.11060731934E+03  0.22535947050E+04  0.22573490245E+04  0.00000000000E+00 0.  1.
         22    1    1    2    0    0 -0.13703899251E+03  0.22430321301E+03  0.94152540318E+01  0.26302141328E+03  0.00000000000E+00 0.  1.
<mgrwt>
<rscale>  0 0.13734088E+04</rscale>
<asrwt>0</asrwt>
<pdfrwt beam="1">  1        2 0.54774613E+00 0.13734088E+04</pdfrwt>
<pdfrwt beam="2">  1       -2 0.20376688E-01 0.13734088E+04</pdfrwt>
<totfact> 0.15155668E+01</totfact>
</mgrwt>
</event>
<event>
 6    1  0.9906445E-006  0.1033606E+04  0.7818608E-02  0.9272436E-01
         -2   -1    0    0    0  501 -0.00000000000E+00  0.00000000000E+00  0.11824022635E+04  0.11824022635E+04  0.00000000000E+00 0.  1.
          2   -1    0    0  501    0  0.00000000000E+00 -0.00000000000E+00 -0.22588354043E+03  0.22588354043E+03  0.00000000000E+00 0. -1.
         23    2    1    2    0    0  0.12116186609E+03 -0.24573402162E+03  0.10725858768E+04  0.11107341423E+04  0.90688833259E+02 0.  0.
         13    1    3    3    0    0  0.50713866936E+02 -0.13750521616E+03  0.73112802481E+03  0.74567269591E+03  0.00000000000E+00 0.  1.
        -13    1    3    3    0    0  0.70447999155E+02 -0.10822880546E+03  0.34145785201E+03  0.36506144635E+03  0.00000000000E+00 0. -1.
         22    1    1    2    0    0 -0.12116186609E+03  0.24573402162E+03 -0.11606715375E+03  0.29755166166E+03  0.00000000000E+00 0. -1.
<mgrwt>
<rscale>  0 0.10336057E+04</rscale>
<asrwt>0</asrwt>
<pdfrwt beam="1">  1        2 0.34751315E-01 0.10336057E+04</pdfrwt>
<pdfrwt beam="2">  1       -2 0.18190804E+00 0.10336057E+04</pdfrwt>
<totfact> 0.26431702E+01</totfact>
</mgrwt>
</event>
<event>
 6    1  0.9906445E-006  0.9744046E+03  0.7818608E-02  0.9337072E-01
          2   -1    0    0  501    0  0.00000000000E+00  0.00000000000E+00  0.27581075636E+04  0.27581075636E+04  0.00000000000E+00 0.  1.
         -2   -1    0    0    0  501 -0.00000000000E+00 -0.00000000000E+00 -0.86061206939E+02  0.86061206939E+02  0.00000000000E+00 0. -1.
         23    2    1    2    0    0  0.33235081332E+03 -0.34757588887E+03  0.15041183057E+04  0.15811082043E+04  0.79153109084E+02 0.  0.
         13    1    3    3    0    0  0.13326821797E+03 -0.12942236996E+03  0.70825539247E+03  0.73221326725E+03  0.00000000000E+00 0.  1.
        -13    1    3    3    0    0  0.19908259535E+03 -0.21815351891E+03  0.79586291322E+03  0.84889493709E+03  0.00000000000E+00 0. -1.
         22    1    1    2    0    0 -0.33235081332E+03  0.34757588887E+03  0.11679280510E+04  0.12630605662E+04  0.00000000000E+00 0.  1.
<mgrwt>
<rscale>  0 0.97440457E+03</rscale>
<asrwt>0</asrwt>
<pdfrwt beam="1">  1        2 0.42432417E+00 0.97440457E+03</pdfrwt>
<pdfrwt beam="2">  1       -2 0.13240188E-01 0.97440457E+03</pdfrwt>
<totfact> 0.10824632E+02</totfact>
</mgrwt>
</event>
<event>
 6    1  0.9906445E-006  0.2663275E+04  0.7818608E-02  0.8347020E-01
          3   -1    0    0  501    0  0.00000000000E+00  0.00000000000E+00  0.12037178764E+04  0.12037178764E+04  0.00000000000E+00 0. -1.
         -3   -1    0    0    0  501 -0.00000000000E+00 -0.00000000000E+00 -0.14731510352E+04  0.14731510352E+04  0.00000000000E+00 0.  1.
         23    2    1    2    0    0  0.86784727746E+03  0.20601135319E+03  0.85686311887E+03  0.12401563864E+04  0.90409533238E+02 0.  0.
         13    1    3    3    0    0  0.78729619259E+03  0.16007218541E+03  0.75660713289E+03  0.11035908449E+04  0.00000000000E+00 0. -1.
        -13    1    3    3    0    0  0.80551084865E+02  0.45939167776E+02  0.10025598598E+03  0.13656554153E+03  0.00000000000E+00 0.  1.
         22    1    1    2    0    0 -0.86784727746E+03 -0.20601135319E+03 -0.11262962777E+04  0.14367125251E+04  0.00000000000E+00 0.  1.
<mgrwt>
<rscale>  0 0.26632749E+04</rscale>
<asrwt>0</asrwt>
<pdfrwt beam="1">  1        3 0.18518737E+00 0.26632749E+04</pdfrwt>
<pdfrwt beam="2">  1       -3 0.22663862E+00 0.26632749E+04</pdfrwt>
<totfact> 0.42152110E-02</totfact>
</mgrwt>
</event>
<event>
 6    1  0.9906445E-006  0.1368218E+04  0.7818608E-02  0.8977151E-01
         -2   -1    0    0    0  501 -0.00000000000E+00  0.00000000000E+00  0.28150414117E+03  0.28150414117E+03  0.00000000000E+00 0.  1.
          2   -1    0    0  501    0  0.00000000000E+00 -0.00000000000E+00 -0.16625148167E+04  0.16625148167E+04  0.00000000000E+00 0. -1.
         23    2    1    2    0    0 -0.60201936807E+03 -0.31188201300E+03 -0.60322119612E+03  0.91219814793E+03  0.92368501567E+02 0.  0.
         11    1    3    3    0    0 -0.21061462033E+03 -0.79288735247E+02 -0.15474275770E+03  0.27311269267E+03  0.00000000000E+00 0.  1.
        -11    1    3    3    0    0 -0.39140474773E+03 -0.23259327775E+03 -0.44847843842E+03  0.63908545526E+03  0.00000000000E+00 0. -1.
         22    1    1    2    0    0  0.60201936807E+03  0.31188201300E+03 -0.77778947945E+03  0.10318208100E+04  0.00000000000E+00 0. -1.
<mgrwt>
<rscale>  0 0.13682175E+04</rscale>
<asrwt>0</asrwt>
<pdfrwt beam="1">  1        2 0.25577151E+00 0.13682175E+04</pdfrwt>
<pdfrwt beam="2">  1       -2 0.43308329E-01 0.13682175E+04</pdfrwt>
<totfact> 0.50737595E+01</totfact>
</mgrwt>
</event>
<event>
 6    1  0.9906445E-006  0.1610394E+04  0.7818608E-02  0.8814188E-01
          1   -1    0    0  501    0  0.00000000000E+00  0.00000000000E+00  0.47823899094E+03  0.47823899094E+03  0.00000000000E+00 0. -1.
         -1   -1    0    0    0  501 -0.00000000000E+00 -0.00000000000E+00 -0.13556859431E+04  0.13556859431E+04  0.00000000000E+00 0.  1.
         23    2    1    2    0    0 -0.19361711909E+03 -0.77180579411E+03 -0.56149843831E+03  0.97777352448E+03  0.87113697752E+02 0.  0.
         13    1    3    3    0    0 -0.65396424241E+01 -0.17210638761E+03 -0.11667402091E+03  0.20802933143E+03  0.00000000000E+00 0. -1.
        -13    1    3    3    0    0 -0.18707747666E+03 -0.59969940650E+03 -0.44482441740E+03  0.76974419306E+03  0.00000000000E+00 0.  1.
         22    1    1    2    0    0  0.19361711909E+03  0.77180579411E+03 -0.31594851382E+03  0.85615140951E+03  0.00000000000E+00 0. -1.
<mgrwt>
<rscale>  0 0.16103936E+04</rscale>
<asrwt>0</asrwt>
<pdfrwt beam="1">  1        1 0.73575230E-01 0.16103936E+04</pdfrwt>
<pdfrwt beam="2">  1       -1 0.20856707E+00 0.16103936E+04</pdfrwt>
<totfact> 0.59388818E+00</totfact>
</mgrwt>
</event>
<event>
 6    1  0.9906445E-006  0.5163060E+04  0.7818608E-02  0.7803834E-01
          2   -1    0    0  501    0  0.00000000000E+00  0.00000000000E+00  0.32686130377E+04  0.32686130377E+04  0.00000000000E+00 0. -1.
         -2   -1    0    0    0  501 -0.00000000000E+00 -0.00000000000E+00 -0.20388757869E+04  0.20388757869E+04  0.00000000000E+00 0.  1.
         23    2    1    2    0    0 -0.87251708730E+03  0.20823501157E+04  0.18997479184E+04  0.29524129518E+04  0.10115341048E+03 0.  0.
         11    1    3    3    0    0 -0.83656562954E+03  0.19375907667E+04  0.17604117472E+04  0.27482993926E+04  0.00000000000E+00 0. -1.
        -11    1    3    3    0    0 -0.35951457758E+02  0.14475934899E+03  0.13933617118E+03  0.20411355917E+03  0.00000000000E+00 0.  1.
         22    1    1    2    0    0  0.87251708730E+03 -0.20823501157E+04 -0.67001066758E+03  0.23550758728E+04  0.00000000000E+00 0.  1.
<mgrwt>
<rscale>  0 0.51630596E+04</rscale>
<asrwt>0</asrwt>
<pdfrwt beam="1">  1        2 0.50286354E+00 0.51630596E+04</pdfrwt>
<pdfrwt beam="2">  1       -2 0.31367320E+00 0.51630596E+04</pdfrwt>
<totfact> 0.21977270E-02</totfact>
</mgrwt>
</event>
<event>
 6    1  0.9906445E-006  0.2879921E+04  0.7818608E-02  0.8278877E-01
         -2   -1    0    0    0  501 -0.00000000000E+00  0.00000000000E+00  0.76543504354E+03  0.76543504354E+03  0.00000000000E+00 0.  1.
          2   -1    0    0  501    0  0.00000000000E+00 -0.00000000000E+00 -0.27088981909E+04  0.27088981909E+04  0.00000000000E+00 0. -1.
         23    2    1    2    0    0 -0.10617963648E+04 -0.84913878769E+03 -0.15394157354E+04  0.20559882439E+04  0.94014103672E+02 0.  0.
         13    1    3    3    0    0 -0.38773429884E+03 -0.34176041614E+03 -0.64327698150E+03  0.82519291288E+03  0.00000000000E+00 0. -1.
        -13    1    3    3    0    0 -0.67406206591E+03 -0.50737837155E+03 -0.89613875391E+03  0.12307953310E+04  0.00000000000E+00 0.  1.
         22    1    1    2    0    0  0.10617963648E+04  0.84913878769E+03 -0.40404741191E+03  0.14183449905E+04  0.00000000000E+00 0.  1.
<mgrwt>
<rscale>  0 0.28799206E+04</rscale>
<asrwt>0</asrwt>
<pdfrwt beam="1">  1        2 0.41675357E+00 0.28799206E+04</pdfrwt>
<pdfrwt beam="2">  1       -2 0.11775924E+00 0.28799206E+04</pdfrwt>
<totfact> 0.12612816E+00</totfact>
</mgrwt>
</event>
<event>
 6    1  0.9906445E-006  0.3686909E+04  0.7818608E-02  0.8070869E-01
         -2   -1    0    0    0  501 -0.00000000000E+00  0.00000000000E+00  0.23628289155E+04  0.23628289155E+04  0.00000000000E+00 0.  1.
          2   -1    0    0  501    0  0.00000000000E+00 -0.00000000000E+00 -0.14382436079E+04  0.14382436079E+04  0.00000000000E+00 0. -1.
         23    2    1    2    0    0  0.75775908079E+03 -0.93415797609E+03  0.19012610032E+04  0.22516386386E+04  0.90737024999E+02 0.  0.
         13    1    3    3    0    0  0.27012217647E+03 -0.35259707943E+03  0.78164768640E+03  0.89903492496E+03  0.00000000000E+00 0. -1.
        -13    1    3    3    0    0  0.48763690432E+03 -0.58156089666E+03  0.11196133168E+04  0.13526037136E+04  0.00000000000E+00 0.  1.
         22    1    1    2    0    0 -0.75775908079E+03  0.93415797609E+03 -0.97667569566E+03  0.15494338848E+04  0.00000000000E+00 0. -1.
<mgrwt>
<rscale>  0 0.36869085E+04</rscale>
<asrwt>0</asrwt>
<pdfrwt beam="1">  1        2 0.22126825E+00 0.36869085E+04</pdfrwt>
<pdfrwt beam="2">  1       -2 0.36351214E+00 0.36869085E+04</pdfrwt>
<totfact> 0.14216554E-01</totfact>
</mgrwt>
</event>
<event>
 6    1  0.9906445E-006  0.3034268E+04  0.7818608E-02  0.8234013E-01
          2   -1    0    0  501    0  0.00000000000E+00  0.00000000000E+00  0.93419698231E+03  0.93419698231E+03  0.00000000000E+00 0.  1.
         -2   -1    0    0    0  501 -0.00000000000E+00 -0.00000000000E+00 -0.24638229245E+04  0.24638229245E+04  0.00000000000E+00 0. -1.
         23    2    1    2    0    0  0.13766070157E+04 -0.61854830405E+03 -0.92361997412E+03  0.17717074788E+04  0.90689876491E+02 0.  0.
         11    1    3    3    0    0  0.10749491375E+04 -0.49008200710E+03 -0.67885993130E+03  0.13625515874E+04  0.00000000000E+00 0.  1.
        -11    1    3    3    0    0  0.30165787819E+03 -0.12846629696E+03 -0.24476004281E+03  0.40915589142E+03  0.00000000000E+00 0. -1.
         22    1    1    2    0    0 -0.13766070157E+04  0.61854830405E+03 -0.60600596803E+03  0.16263124280E+04  0.00000000000E+00 0.  1.
<mgrwt>
<rscale>  0 0.30342682E+04</rscale>
<asrwt>0</asrwt>
<pdfrwt beam="1">  1        2 0.14372261E+00 0.30342682E+04</pdfrwt>
<pdfrwt beam="2">  1       -2 0.37904968E+00 0.30342682E+04</pdfrwt>
<totfact> 0.24095202E-01</totfact>
</mgrwt>
</event>
<event>
 6    1  0.9906445E-006  0.6010913E+03  0.7818608E-02  0.9903144E-01
         -1   -1    0    0    0  501 -0.00000000000E+00  0.00000000000E+00  0.64882092338E+02  0.64882092338E+02  0.00000000000E+00 0.  1.
          1   -1    0    0  501    0  0.00000000000E+00 -0.00000000000E+00 -0.13921822061E+04  0.13921822061E+04  0.00000000000E+00 0. -1.
         23    2    1    2    0    0  0.80878599029E+02 -0.15855881438E+03 -0.12447991644E+04  0.12608790491E+04  0.92783465305E+02 0.  0.
         13    1    3    3    0    0  0.91868333145E+02 -0.12722986975E+03 -0.82665331926E+03  0.84141722150E+03  0.00000000000E+00 0. -1.
        -13    1    3    3    0    0 -0.10989734116E+02 -0.31328944627E+02 -0.41814584517E+03  0.41946182765E+03  0.00000000000E+00 0.  1.
         22    1    1    2    0    0 -0.80878599029E+02  0.15855881438E+03 -0.82500949344E+02  0.19618524929E+03  0.00000000000E+00 0.  1.
<mgrwt>
<rscale>  0 0.60109132E+03</rscale>
<asrwt>0</asrwt>
<pdfrwt beam="1">  1        1 0.21418188E+00 0.60109132E+03</pdfrwt>
<pdfrwt beam="2">  1       -1 0.99818605E-02 0.60109132E+03</pdfrwt>
<totfact> 0.50401278E+02</totfact>
</mgrwt>
</event>
<event>
 6    1  0.9906445E-006  0.2178613E+04  0.7818608E-02  0.8527383E-01
         -2   -1    0    0    0  501 -0.00000000000E+00  0.00000000000E+00  0.62614731045E+03  0.62614731045E+03  0.00000000000E+00 0.  1.
          2   -1    0    0  501    0  0.00000000000E+00 -0.00000000000E+00 -0.18950626852E+04  0.18950626852E+04  0.00000000000E+00 0. -1.
         23    2    1    2    0    0  0.26482220304E+03 -0.86295396728E+03 -0.13372785515E+04  0.16159509870E+04  0.90351088090E+02 0.  0.
         11    1    3    3    0    0  0.15142437880E+03 -0.63188916207E+03 -0.95375277749E+03  0.11540613572E+04  0.00000000000E+00 0.  1.
        -11    1    3    3    0    0  0.11339782424E+03 -0.23106480521E+03 -0.38352577401E+03  0.46188962976E+03  0.00000000000E+00 0. -1.
         22    1    1    2    0    0 -0.26482220304E+03  0.86295396728E+03  0.68363176750E+02  0.90525900868E+03  0.00000000000E+00 0.  1.
<mgrwt>
<rscale>  0 0.21786128E+04</rscale>
<asrwt>0</asrwt>
<pdfrwt beam="1">  1        2 0.29154810E+00 0.21786128E+04</pdfrwt>
<pdfrwt beam="2">  1       -2 0.96330356E-01 0.21786128E+04</pdfrwt>
<totfact> 0.63118777E+00</totfact>
</mgrwt>
</event>
<event>
 6    1  0.9906445E-006  0.2044389E+04  0.7818608E-02  0.8586144E-01
         -1   -1    0    0    0  501 -0.00000000000E+00  0.00000000000E+00  0.55735275940E+03  0.55735275940E+03  0.00000000000E+00 0.  1.
          1   -1    0    0  501    0  0.00000000000E+00 -0.00000000000E+00 -0.18747222449E+04  0.18747222449E+04  0.00000000000E+00 0. -1.
         23    2    1    2    0    0  0.49537538073E+03  0.38064810778E+03 -0.16192128549E+04  0.17382456525E+04  0.96736391137E+02 0.  0.
         11    1    3    3    0    0  0.98197469056E+02  0.12845033416E+03 -0.41810225331E+03  0.44827639409E+03  0.00000000000E+00 0. -1.
        -11    1    3    3    0    0  0.39717791168E+03  0.25219777362E+03 -0.12011106016E+04  0.12899692584E+04  0.00000000000E+00 0.  1.
         22    1    1    2    0    0 -0.49537538073E+03 -0.38064810778E+03  0.30184336935E+03  0.69382935179E+03  0.00000000000E+00 0.  1.
<mgrwt>
<rscale>  0 0.20443890E+04</rscale>
<asrwt>0</asrwt>
<pdfrwt beam="1">  1        1 0.28841880E+00 0.20443890E+04</pdfrwt>
<pdfrwt beam="2">  1       -1 0.85746579E-01 0.20443890E+04</pdfrwt>
<totfact> 0.44988013E+00</totfact>
</mgrwt>
</event>
<event>
 6    1  0.9906445E-006  0.1425309E+04  0.7818608E-02  0.8935700E-01
          2   -1    0    0  501    0  0.00000000000E+00  0.00000000000E+00  0.39169131922E+04  0.39169131922E+04  0.00000000000E+00 0. -1.
         -2   -1    0    0    0  501 -0.00000000000E+00 -0.00000000000E+00 -0.12966240339E+03  0.12966240339E+03  0.00000000000E+00 0.  1.
         23    2    1    2    0    0  0.29661930477E+00 -0.62073261540E+03  0.92504659484E+03  0.11178349250E+04  0.92383164183E+02 0.  0.
         11    1    3    3    0    0  0.28955389915E+02 -0.76804145833E+02  0.10288744267E+03  0.13161731376E+03  0.00000000000E+00 0. -1.
        -11    1    3    3    0    0 -0.28658770610E+02 -0.54392846957E+03  0.82215915217E+03  0.98621761119E+03  0.00000000000E+00 0.  1.
         22    1    1    2    0    0 -0.29661930477E+00  0.62073261540E+03  0.28622041940E+04  0.29287406706E+04  0.00000000000E+00 0. -1.
<mgrwt>
<rscale>  0 0.14253089E+04</rscale>
<asrwt>0</asrwt>
<pdfrwt beam="1">  1        2 0.60260194E+00 0.14253089E+04</pdfrwt>
<pdfrwt beam="2">  1       -2 0.19948065E-01 0.14253089E+04</pdfrwt>
<totfact> 0.85278211E+00</totfact>
</mgrwt>
</event>
<event>
 6    1  0.1195311E-005  0.2083325E+04  0.7818608E-02  0.8568625E-01
          2   -1    0    0  501    0  0.00000000000E+00  0.00000000000E+00  0.78782617385E+03  0.78782617385E+03  0.00000000000E+00 0. -1.
         -2   -1    0    0    0  501 -0.00000000000E+00 -0.00000000000E+00 -0.13772841012E+04  0.13772841012E+04  0.00000000000E+00 0.  1.
         23    2    1    2    0    0 -0.16588022246E+03  0.50091971804E+02 -0.13606479803E+04  0.13746929476E+04  0.91609606091E+02 0.  0.
         11    1    3    3    0    0 -0.86780519388E+02  0.72726797050E+02 -0.73881868895E+03  0.74744437967E+03  0.00000000000E+00 0. -1.
        -11    1    3    3    0    0 -0.79099703076E+02 -0.22634825246E+02 -0.62182929134E+03  0.62724856788E+03  0.00000000000E+00 0.  1.
         22    1    1    2    0    0  0.16588022246E+03 -0.50091971804E+02  0.77119005294E+03  0.79041732749E+03  0.00000000000E+00 0. -1.
<mgrwt>
<rscale>  0 0.20833247E+04</rscale>
<asrwt>0</asrwt>
<pdfrwt beam="1">  1        2 0.12120403E+00 0.20833247E+04</pdfrwt>
<pdfrwt beam="2">  1       -2 0.21188986E+00 0.20833247E+04</pdfrwt>
<totfact> 0.36105222E+00</totfact>
</mgrwt>
</event>
<event>
 6    1  0.9906445E-006  0.2226985E+04  0.7818608E-02  0.8507280E-01
          2   -1    0    0  501    0  0.00000000000E+00  0.00000000000E+00  0.14576198123E+04  0.14576198123E+04  0.00000000000E+00 0. -1.
         -2   -1    0    0    0  501 -0.00000000000E+00 -0.00000000000E+00 -0.85060981817E+03  0.85060981817E+03  0.00000000000E+00 0.  1.
         23    2    1    2    0    0  0.40819403175E+03  0.66722189723E+03  0.11227205903E+04  0.13713385767E+04  0.90887515429E+02 0.  0.
         13    1    3    3    0    0  0.28830084781E+03  0.52876420617E+03  0.90109627138E+03  0.10838281482E+04  0.00000000000E+00 0. -1.
        -13    1    3    3    0    0  0.11989318394E+03  0.13845769106E+03  0.22162431888E+03  0.28751042849E+03  0.00000000000E+00 0.  1.
         22    1    1    2    0    0 -0.40819403175E+03 -0.66722189723E+03 -0.51571059612E+03  0.93689105378E+03  0.00000000000E+00 0.  1.
<mgrwt>
<rscale>  0 0.22269852E+04</rscale>
<asrwt>0</asrwt>
<pdfrwt beam="1">  1        2 0.22424920E+00 0.22269852E+04</pdfrwt>
<pdfrwt beam="2">  1       -2 0.13086305E+00 0.22269852E+04</pdfrwt>
<totfact> 0.52263182E+00</totfact>
</mgrwt>
</event>
<event>
 6    1  0.9906445E-006  0.2958307E+04  0.7818608E-02  0.8255738E-01
         -2   -1    0    0    0  501 -0.00000000000E+00  0.00000000000E+00  0.16318363377E+04  0.16318363377E+04  0.00000000000E+00 0.  1.
          2   -1    0    0  501    0  0.00000000000E+00 -0.00000000000E+00 -0.13407561066E+04  0.13407561066E+04  0.00000000000E+00 0. -1.
         23    2    1    2    0    0 -0.55732752087E+03 -0.47858308401E+03  0.14340005497E+04  0.16139451066E+04  0.93837607555E+02 0.  0.
         13    1    3    3    0    0 -0.31387339170E+03 -0.22579447276E+03  0.67928939847E+03  0.78162250276E+03  0.00000000000E+00 0.  1.
        -13    1    3    3    0    0 -0.24345412918E+03 -0.25278861125E+03  0.75471115125E+03  0.83232260380E+03  0.00000000000E+00 0. -1.
         22    1    1    2    0    0  0.55732752087E+03  0.47858308401E+03 -0.11429203186E+04  0.13586473378E+04  0.00000000000E+00 0. -1.
<mgrwt>
<rscale>  0 0.29583066E+04</rscale>
<asrwt>0</asrwt>
<pdfrwt beam="1">  1        2 0.20627017E+00 0.29583066E+04</pdfrwt>
<pdfrwt beam="2">  1       -2 0.25105174E+00 0.29583066E+04</pdfrwt>
<totfact> 0.85126122E-01</totfact>
</mgrwt>
</event>
<event>
 6    1  0.9906445E-006  0.1516487E+04  0.7818608E-02  0.8873563E-01
          2   -1    0    0  501    0  0.00000000000E+00  0.00000000000E+00  0.18474765357E+04  0.18474765357E+04  0.00000000000E+00 0. -1.
         -2   -1    0    0    0  501 -0.00000000000E+00 -0.00000000000E+00 -0.31119904607E+03  0.31119904607E+03  0.00000000000E+00 0.  1.
         23    2    1    2    0    0  0.57883570727E+03 -0.20006161008E+03  0.14071476401E+03  0.63464449778E+03  0.88868272784E+02 0.  0.
         11    1    3    3    0    0  0.19316662675E+03 -0.24193313380E+02  0.53442845362E+02  0.20187818065E+03  0.00000000000E+00 0.  1.
        -11    1    3    3    0    0  0.38566908053E+03 -0.17586829670E+03  0.87271918649E+02  0.43276631713E+03  0.00000000000E+00 0. -1.
         22    1    1    2    0    0 -0.57883570727E+03  0.20006161008E+03  0.13955627256E+04  0.15240310840E+04  0.00000000000E+00 0. -1.
<mgrwt>
<rscale>  0 0.15164866E+04</rscale>
<asrwt>0</asrwt>
<pdfrwt beam="1">  1        2 0.28422715E+00 0.15164866E+04</pdfrwt>
<pdfrwt beam="2">  1       -2 0.47876777E-01 0.15164866E+04</pdfrwt>
<totfact> 0.32393608E+01</totfact>
</mgrwt>
</event>
<event>
 6    1  0.9906445E-006  0.1710331E+04  0.7818608E-02  0.8755494E-01
         -2   -1    0    0    0  501 -0.00000000000E+00  0.00000000000E+00  0.75428533307E+03  0.75428533307E+03  0.00000000000E+00 0.  1.
          2   -1    0    0  501    0  0.00000000000E+00 -0.00000000000E+00 -0.96953749689E+03  0.96953749689E+03  0.00000000000E+00 0. -1.
         23    2    1    2    0    0 -0.26098926343E+03  0.77951055376E+03  0.12025116412E+03  0.83595201610E+03  0.92754146547E+02 0.  0.
         13    1    3    3    0    0 -0.20726916530E+03  0.50835864128E+03  0.53538765945E+02  0.55159352290E+03  0.00000000000E+00 0. -1.
        -13    1    3    3    0    0 -0.53720098133E+02  0.27115191248E+03  0.66712398171E+02  0.28435849320E+03  0.00000000000E+00 0.  1.
         22    1    1    2    0    0  0.26098926343E+03 -0.77951055376E+03 -0.33550332794E+03  0.88787081386E+03  0.00000000000E+00 0.  1.
<mgrwt>
<rscale>  0 0.17103309E+04</rscale>
<asrwt>0</asrwt>
<pdfrwt beam="1">  1        2 0.14915962E+00 0.17103309E+04</pdfrwt>
<pdfrwt beam="2">  1       -2 0.11604390E+00 0.17103309E+04</pdfrwt>
<totfact> 0.14456276E+01</totfact>
</mgrwt>
</event>
<event>
 6    1  0.9906445E-006  0.2128170E+04  0.7818608E-02  0.8548935E-01
          2   -1    0    0  501    0  0.00000000000E+00  0.00000000000E+00  0.50002280472E+03  0.50002280472E+03  0.00000000000E+00 0. -1.
         -2   -1    0    0    0  501 -0.00000000000E+00 -0.00000000000E+00 -0.22644494379E+04  0.22644494379E+04  0.00000000000E+00 0.  1.
         23    2    1    2    0    0 -0.40757025220E+03 -0.34777669313E+03  0.30759354499E+03  0.62430174532E+03  0.89870693362E+02 0.  0.
         11    1    3    3    0    0 -0.17720953633E+03 -0.12222999297E+03  0.79964122026E+02  0.22964679784E+03  0.00000000000E+00 0.  1.
        -11    1    3    3    0    0 -0.23036071588E+03 -0.22554670016E+03  0.22762942296E+03  0.39465494748E+03  0.00000000000E+00 0. -1.
         22    1    1    2    0    0  0.40757025220E+03  0.34777669313E+03 -0.20720201781E+04  0.21401704973E+04  0.00000000000E+00 0.  1.
<mgrwt>
<rscale>  0 0.21281695E+04</rscale>
<asrwt>0</asrwt>
<pdfrwt beam="1">  1        2 0.76926585E-01 0.21281695E+04</pdfrwt>
<pdfrwt beam="2">  1       -2 0.34837684E+00 0.21281695E+04</pdfrwt>
<totfact> 0.90337576E-01</totfact>
</mgrwt>
</event>
<event>
 6    1  0.9906445E-006  0.3205211E+04  0.7818608E-02  0.8187442E-01
          2   -1    0    0  501    0  0.00000000000E+00  0.00000000000E+00  0.31885155836E+04  0.31885155836E+04  0.00000000000E+00 0. -1.
         -2   -1    0    0    0  501 -0.00000000000E+00 -0.00000000000E+00 -0.80549834666E+03  0.80549834666E+03  0.00000000000E+00 0.  1.
         23    2    1    2    0    0 -0.12606414029E+04  0.97799293622E+03  0.13620495374E+04  0.20997958928E+04  0.90977574177E+02 0.  0.
         13    1    3    3    0    0 -0.86374044057E+03  0.72064675720E+03  0.94392864126E+03  0.14684619767E+04  0.00000000000E+00 0.  1.
        -13    1    3    3    0    0 -0.39690096232E+03  0.25734617902E+03  0.41812089612E+03  0.63133391602E+03  0.00000000000E+00 0. -1.
         22    1    1    2    0    0  0.12606414029E+04 -0.97799293622E+03  0.10209676995E+04  0.18942180375E+04  0.00000000000E+00 0.  1.
<mgrwt>
<rscale>  0 0.32052108E+04</rscale>
<asrwt>0</asrwt>
<pdfrwt beam="1">  1        2 0.49054085E+00 0.32052108E+04</pdfrwt>
<pdfrwt beam="2">  1       -2 0.12392282E+00 0.32052108E+04</pdfrwt>
<totfact> 0.54363533E-01</totfact>
</mgrwt>
</event>
<event>
 6    1  0.9906445E-006  0.2320883E+04  0.7818608E-02  0.8469732E-01
         -2   -1    0    0    0  501 -0.00000000000E+00  0.00000000000E+00  0.15942419798E+04  0.15942419798E+04  0.00000000000E+00 0.  1.
          2   -1    0    0  501    0  0.00000000000E+00 -0.00000000000E+00 -0.84468036229E+03  0.84468036229E+03  0.00000000000E+00 0. -1.
         23    2    1    2    0    0 -0.51765768619E+03  0.10364314198E+04  0.34624439846E+03  0.12122095202E+04  0.86064913559E+02 0.  0.
         13    1    3    3    0    0 -0.37987038419E+03  0.82920233253E+03  0.25366788469E+03  0.94669182567E+03  0.00000000000E+00 0. -1.
        -13    1    3    3    0    0 -0.13778730200E+03  0.20722908730E+03  0.92576513767E+02  0.26551769455E+03  0.00000000000E+00 0.  1.
         22    1    1    2    0    0  0.51765768619E+03 -0.10364314198E+04  0.40331721901E+03  0.12267128218E+04  0.00000000000E+00 0. -1.
<mgrwt>
<rscale>  0 0.23208834E+04</rscale>
<asrwt>0</asrwt>
<pdfrwt beam="1">  1        2 0.12995083E+00 0.23208834E+04</pdfrwt>
<pdfrwt beam="2">  1       -2 0.24526800E+00 0.23208834E+04</pdfrwt>
<totfact> 0.19907686E+00</totfact>
</mgrwt>
</event>
<event>
 6    1  0.9906445E-006  0.2233615E+04  0.7818608E-02  0.8504566E-01
          2   -1    0    0  501    0  0.00000000000E+00  0.00000000000E+00  0.21194612669E+04  0.21194612669E+04  0.00000000000E+00 0. -1.
         -2   -1    0    0    0  501 -0.00000000000E+00 -0.00000000000E+00 -0.58847924913E+03  0.58847924913E+03  0.00000000000E+00 0.  1.
         23    2    1    2    0    0  0.64717463211E+03 -0.21190610169E+03 -0.30346606840E+03  0.75117303335E+03  0.91815418030E+02 0.  0.
         11    1    3    3    0    0  0.26291807151E+03 -0.41734598775E+02 -0.10142144493E+03  0.28487540882E+03  0.00000000000E+00 0. -1.
        -11    1    3    3    0    0  0.38425656060E+03 -0.17017150292E+03 -0.20204462347E+03  0.46629762453E+03  0.00000000000E+00 0.  1.
         22    1    1    2    0    0 -0.64717463211E+03  0.21190610169E+03  0.18344480861E+04  0.19567674826E+04  0.00000000000E+00 0. -1.
<mgrwt>
<rscale>  0 0.22336150E+04</rscale>
<asrwt>0</asrwt>
<pdfrwt beam="1">  1        2 0.32607096E+00 0.22336150E+04</pdfrwt>
<pdfrwt beam="2">  1       -2 0.90535271E-01 0.22336150E+04</pdfrwt>
<totfact> 0.54443400E+00</totfact>
</mgrwt>
</event>
<event>
 6    1  0.9906445E-006  0.1998826E+04  0.7818608E-02  0.8607170E-01
         -1   -1    0    0    0  501 -0.00000000000E+00  0.00000000000E+00  0.60877411837E+03  0.60877411837E+03  0.00000000000E+00 0.  1.
          1   -1    0    0  501    0  0.00000000000E+00 -0.00000000000E+00 -0.16407170636E+04  0.16407170636E+04  0.00000000000E+00 0. -1.
         23    2    1    2    0    0 -0.45455861822E+03  0.13167955110E+03  0.47071536475E+03  0.67407217798E+03  0.94006940886E+02 0.  0.
         13    1    3    3    0    0 -0.40482978973E+03  0.94991977414E+02  0.37385037176E+03  0.55917326017E+03  0.00000000000E+00 0. -1.
        -13    1    3    3    0    0 -0.49728828495E+02  0.36687573687E+02  0.96864992995E+02  0.11489891781E+03  0.00000000000E+00 0.  1.
         22    1    1    2    0    0  0.45455861822E+03 -0.13167955110E+03 -0.15026583100E+04  0.15754190040E+04  0.00000000000E+00 0. -1.
<mgrwt>
<rscale>  0 0.19988257E+04</rscale>
<asrwt>0</asrwt>
<pdfrwt beam="1">  1        1 0.25241801E+00 0.19988257E+04</pdfrwt>
<pdfrwt beam="2">  1       -1 0.93657558E-01 0.19988257E+04</pdfrwt>
<totfact> 0.53660367E+00</totfact>
</mgrwt>
</event>
<event>
 6    1  0.9906445E-006  0.5938861E+04  0.7818608E-02  0.7698029E-01
         -1   -1    0    0    0  501 -0.00000000000E+00  0.00000000000E+00  0.22268453042E+04  0.22268453042E+04  0.00000000000E+00 0.  1.
          1   -1    0    0  501    0  0.00000000000E+00 -0.00000000000E+00 -0.39596457178E+04  0.39596457178E+04  0.00000000000E+00 0. -1.
         23    2    1    2    0    0  0.17281637284E+04 -0.18041313886E+04 -0.25372253754E+04  0.35618882980E+04  0.89976121311E+02 0.  0.
         13    1    3    3    0    0  0.33933739692E+03 -0.40623812944E+03 -0.52648546876E+03  0.74656964549E+03  0.00000000000E+00 0.  1.
        -13    1    3    3    0    0  0.13888263315E+04 -0.13978932592E+04 -0.20107399067E+04  0.28153186526E+04  0.00000000000E+00 0. -1.
         22    1    1    2    0    0 -0.17281637284E+04  0.18041313886E+04  0.80442496178E+03  0.26246027240E+04  0.00000000000E+00 0.  1.
<mgrwt>
<rscale>  0 0.59388613E+04</rscale>
<asrwt>0</asrwt>
<pdfrwt beam="1">  1        1 0.60917625E+00 0.59388613E+04</pdfrwt>
<pdfrwt beam="2">  1       -1 0.34259159E+00 0.59388613E+04</pdfrwt>
<totfact> 0.12110478E-03</totfact>
</mgrwt>
</event>
<event>
 6    1  0.9906445E-006  0.6168578E+04  0.7818608E-02  0.7669845E-01
         -2   -1    0    0    0  501 -0.00000000000E+00  0.00000000000E+00  0.27720972596E+04  0.27720972596E+04  0.00000000000E+00 0.  1.
          2   -1    0    0  501    0  0.00000000000E+00 -0.00000000000E+00 -0.34316395449E+04  0.34316395449E+04  0.00000000000E+00 0. -1.
         23    2    1    2    0    0  0.18280329634E+04 -0.80452100156E+03  0.20330076421E+04  0.28513072871E+04  0.88739030898E+02 0.  0.
         13    1    3    3    0    0  0.17514673985E+03 -0.78901027000E+02  0.23445707142E+03  0.30310372957E+03  0.00000000000E+00 0. -1.
        -13    1    3    3    0    0  0.16528862236E+04 -0.72561997456E+03  0.17985505707E+04  0.25482035576E+04  0.00000000000E+00 0.  1.
         22    1    1    2    0    0 -0.18280329634E+04  0.80452100156E+03 -0.26925499274E+04  0.33524295174E+04  0.00000000000E+00 0. -1.
<mgrwt>
<rscale>  0 0.61685780E+04</rscale>
<asrwt>0</asrwt>
<pdfrwt beam="1">  1        2 0.52794454E+00 0.61685780E+04</pdfrwt>
<pdfrwt beam="2">  1       -2 0.42647650E+00 0.61685780E+04</pdfrwt>
<totfact> 0.29970327E-03</totfact>
</mgrwt>
</event>
<event>
 6    1  0.9906445E-006  0.1518343E+04  0.7818608E-02  0.8872346E-01
          1   -1    0    0  501    0  0.00000000000E+00  0.00000000000E+00  0.51355770435E+03  0.51355770435E+03  0.00000000000E+00 0. -1.
         -1   -1    0    0    0  501 -0.00000000000E+00 -0.00000000000E+00 -0.11222527519E+04  0.11222527519E+04  0.00000000000E+00 0.  1.
         23    2    1    2    0    0 -0.46211935152E+03  0.57129810691E+03 -0.49868919659E+03  0.89281845812E+03  0.92184935627E+02 0.  0.
         11    1    3    3    0    0 -0.24147448011E+03  0.23948449675E+03 -0.26236875720E+03  0.42953476400E+03  0.00000000000E+00 0. -1.
        -11    1    3    3    0    0 -0.22064487141E+03  0.33181361016E+03 -0.23632043939E+03  0.46328369412E+03  0.00000000000E+00 0.  1.
         22    1    1    2    0    0  0.46211935152E+03 -0.57129810691E+03 -0.11000585093E+03  0.74299199810E+03  0.00000000000E+00 0.  1.
<mgrwt>
<rscale>  0 0.15183432E+04</rscale>
<asrwt>0</asrwt>
<pdfrwt beam="1">  1        1 0.79008878E-01 0.15183432E+04</pdfrwt>
<pdfrwt beam="2">  1       -1 0.17265427E+00 0.15183432E+04</pdfrwt>
<totfact> 0.97045433E+00</totfact>
</mgrwt>
</event>
<event>
 6    1  0.9906445E-006  0.1415335E+04  0.7818608E-02  0.8942793E-01
          2   -1    0    0  501    0  0.00000000000E+00  0.00000000000E+00  0.96126852019E+03  0.96126852019E+03  0.00000000000E+00 0. -1.
         -2   -1    0    0    0  501 -0.00000000000E+00 -0.00000000000E+00 -0.52097102015E+03  0.52097102015E+03  0.00000000000E+00 0.  1.
         23    2    1    2    0    0  0.49456478685E+03 -0.37404249385E+03 -0.12984788777E+03  0.63988101879E+03  0.89917343445E+02 0.  0.
         11    1    3    3    0    0  0.39197355250E+03 -0.32156727217E+03 -0.75916302679E+02  0.51265198859E+03  0.00000000000E+00 0. -1.
        -11    1    3    3    0    0  0.10259123435E+03 -0.52475221676E+02 -0.53931585088E+02  0.12722903020E+03  0.00000000000E+00 0.  1.
         22    1    1    2    0    0 -0.49456478685E+03  0.37404249385E+03  0.57014538780E+03  0.84235852155E+03  0.00000000000E+00 0. -1.
<mgrwt>
<rscale>  0 0.14153346E+04</rscale>
<asrwt>0</asrwt>
<pdfrwt beam="1">  1        2 0.14788746E+00 0.14153346E+04</pdfrwt>
<pdfrwt beam="2">  1       -2 0.80149388E-01 0.14153346E+04</pdfrwt>
<totfact> 0.35729680E+01</totfact>
</mgrwt>
</event>
<event>
 6    1  0.9906445E-006  0.1001180E+04  0.7818608E-02  0.9307251E-01
         -1   -1    0    0    0  501 -0.00000000000E+00  0.00000000000E+00  0.40091483812E+03  0.40091483812E+03  0.00000000000E+00 0.  1.
          1   -1    0    0  501    0  0.00000000000E+00 -0.00000000000E+00 -0.62504679297E+03  0.62504679297E+03  0.00000000000E+00 0. -1.
         23    2    1    2    0    0  0.44832838788E+03 -0.19502973550E+02  0.10474989525E+03  0.46959666034E+03  0.90386799323E+02 0.  0.
         13    1    3    3    0    0  0.30000621433E+03 -0.19302688788E+02  0.11271091724E+03  0.32106085606E+03  0.00000000000E+00 0.  1.
        -13    1    3    3    0    0  0.14832217356E+03 -0.20028476145E+00 -0.79610219945E+01  0.14853580428E+03  0.00000000000E+00 0. -1.
         22    1    1    2    0    0 -0.44832838788E+03  0.19502973550E+02 -0.32888185009E+03  0.55636497075E+03  0.00000000000E+00 0.  1.
<mgrwt>
<rscale>  0 0.10011804E+04</rscale>
<asrwt>0</asrwt>
<pdfrwt beam="1">  1        1 0.96161045E-01 0.10011804E+04</pdfrwt>
<pdfrwt beam="2">  1       -1 0.61679206E-01 0.10011804E+04</pdfrwt>
<totfact> 0.86264525E+01</totfact>
</mgrwt>
</event>
<event>
 6    1  0.9906445E-006  0.3803811E+04  0.7818608E-02  0.8045338E-01
         -2   -1    0    0    0  501 -0.00000000000E+00  0.00000000000E+00  0.18565648047E+04  0.18565648047E+04  0.00000000000E+00 0.  1.
          2   -1    0    0  501    0  0.00000000000E+00 -0.00000000000E+00 -0.19483534136E+04  0.19483534136E+04  0.00000000000E+00 0. -1.
         23    2    1    2    0    0  0.12862704427E+04 -0.63512425547E+03  0.12015952603E+04  0.18734119915E+04  0.89257204707E+02 0.  0.
         13    1    3    3    0    0  0.65341450247E+03 -0.27289960770E+03  0.59000017523E+03  0.92169675853E+03  0.00000000000E+00 0.  1.
        -13    1    3    3    0    0  0.63285594020E+03 -0.36222464777E+03  0.61159508507E+03  0.95171523292E+03  0.00000000000E+00 0. -1.
         22    1    1    2    0    0 -0.12862704427E+04  0.63512425547E+03 -0.12933838692E+04  0.19315062269E+04  0.00000000000E+00 0. -1.
<mgrwt>
<rscale>  0 0.38038109E+04</rscale>
<asrwt>0</asrwt>
<pdfrwt beam="1">  1        2 0.29974668E+00 0.38038109E+04</pdfrwt>
<pdfrwt beam="2">  1       -2 0.28562536E+00 0.38038109E+04</pdfrwt>
<totfact> 0.22264648E-01</totfact>
</mgrwt>
</event>
<event>
 6    1  0.9906445E-006  0.2957690E+04  0.7818608E-02  0.8255917E-01
         -2   -1    0    0    0  501 -0.00000000000E+00  0.00000000000E+00  0.97982127437E+03  0.97982127437E+03  0.00000000000E+00 0.  1.
          2   -1    0    0  501    0  0.00000000000E+00 -0.00000000000E+00 -0.22320225811E+04  0.22320225811E+04  0.00000000000E+00 0. -1.
         23    2    1    2    0    0  0.11221391478E+04  0.10690035288E+03 -0.16638413065E+04  0.20118140883E+04  0.91673770389E+02 0.  0.
         11    1    3    3    0    0  0.15277815682E+03  0.45049201265E+02 -0.25159643777E+03  0.29777737193E+03  0.00000000000E+00 0. -1.
        -11    1    3    3    0    0  0.96936099101E+03  0.61851151618E+02 -0.14122448688E+04  0.17140367164E+04  0.00000000000E+00 0.  1.
         22    1    1    2    0    0 -0.11221391478E+04 -0.10690035288E+03  0.41163999981E+03  0.12000297671E+04  0.00000000000E+00 0.  1.
<mgrwt>
<rscale>  0 0.29576905E+04</rscale>
<asrwt>0</asrwt>
<pdfrwt beam="1">  1        2 0.34338809E+00 0.29576905E+04</pdfrwt>
<pdfrwt beam="2">  1       -2 0.15074173E+00 0.29576905E+04</pdfrwt>
<totfact> 0.12582593E+00</totfact>
</mgrwt>
</event>
<event>
 6    1  0.9906445E-006  0.4648820E+04  0.7818608E-02  0.7885088E-01
         -1   -1    0    0    0  501 -0.00000000000E+00  0.00000000000E+00  0.46941458835E+04  0.46941458835E+04  0.00000000000E+00 0.  1.
          1   -1    0    0  501    0  0.00000000000E+00 -0.00000000000E+00 -0.11509831459E+04  0.11509831459E+04  0.00000000000E+00 0. -1.
         23    2    1    2    0    0 -0.11814870144E+03 -0.19371825955E+04  0.16594841124E+03  0.19499766408E+04  0.90744148177E+02 0.  0.
         13    1    3    3    0    0 -0.97018379668E+02 -0.13703120570E+04  0.78204327778E+02  0.13759664299E+04  0.00000000000E+00 0. -1.
        -13    1    3    3    0    0 -0.21130321777E+02 -0.56687053858E+03  0.87744083459E+02  0.57401021088E+03  0.00000000000E+00 0.  1.
         22    1    1    2    0    0  0.11814870144E+03  0.19371825955E+04  0.33772143263E+04  0.38951523886E+04  0.00000000000E+00 0. -1.
<mgrwt>
<rscale>  0 0.46488204E+04</rscale>
<asrwt>0</asrwt>
<pdfrwt beam="1">  1        1 0.17707433E+00 0.46488204E+04</pdfrwt>
<pdfrwt beam="2">  1       -1 0.72217628E+00 0.46488204E+04</pdfrwt>
<totfact> 0.14396357E-03</totfact>
</mgrwt>
</event>
<event>
 6    1  0.9906445E-006  0.2752438E+04  0.7818608E-02  0.8318188E-01
         -2   -1    0    0    0  501 -0.00000000000E+00  0.00000000000E+00  0.19484896944E+04  0.19484896944E+04  0.00000000000E+00 0.  1.
          2   -1    0    0  501    0  0.00000000000E+00 -0.00000000000E+00 -0.97202412872E+03  0.97202412872E+03  0.00000000000E+00 0. -1.
         23    2    1    2    0    0  0.90304956975E+02 -0.74861735598E+03  0.17084061260E+04  0.18696475544E+04  0.91364957573E+02 0.  0.
         13    1    3    3    0    0 -0.70288913667E+01 -0.20903239587E+03  0.53624709388E+03  0.57559090814E+03  0.00000000000E+00 0. -1.
        -13    1    3    3    0    0  0.97333848341E+02 -0.53958496011E+03  0.11721590321E+04  0.12940566463E+04  0.00000000000E+00 0.  1.
         22    1    1    2    0    0 -0.90304956975E+02  0.74861735598E+03 -0.73194056030E+03  0.10508662687E+04  0.00000000000E+00 0. -1.
<mgrwt>
<rscale>  0 0.27524382E+04</rscale>
<asrwt>0</asrwt>
<pdfrwt beam="1">  1        2 0.14954217E+00 0.27524382E+04</pdfrwt>
<pdfrwt beam="2">  1       -2 0.29976764E+00 0.27524382E+04</pdfrwt>
<totfact> 0.73154386E-01</totfact>
</mgrwt>
</event>
<event>
 6    1  0.9906445E-006  0.2682690E+04  0.7818608E-02  0.8340643E-01
         -1   -1    0    0    0  501 -0.00000000000E+00  0.00000000000E+00  0.12642841289E+04  0.12642841289E+04  0.00000000000E+00 0.  1.
          1   -1    0    0  501    0  0.00000000000E+00 -0.00000000000E+00 -0.14231029883E+04  0.14231029883E+04  0.00000000000E+00 0. -1.
         23    2    1    2    0    0  0.71543479289E+03 -0.70956868323E+03  0.80509398792E+03  0.12929472167E+04  0.90562224881E+02 0.  0.
         13    1    3    3    0    0  0.97008665814E+02 -0.56408619555E+02  0.89024200963E+02  0.14324078316E+03  0.00000000000E+00 0. -1.
        -13    1    3    3    0    0  0.61842612707E+03 -0.65316006367E+03  0.71606978696E+03  0.11497064335E+04  0.00000000000E+00 0.  1.
         22    1    1    2    0    0 -0.71543479289E+03  0.70956868323E+03 -0.96391284730E+03  0.13944399006E+04  0.00000000000E+00 0. -1.
<mgrwt>
<rscale>  0 0.26826901E+04</rscale>
<asrwt>0</asrwt>
<pdfrwt beam="1">  1        1 0.21893892E+00 0.26826901E+04</pdfrwt>
<pdfrwt beam="2">  1       -1 0.19450525E+00 0.26826901E+04</pdfrwt>
<totfact> 0.10635220E+00</totfact>
</mgrwt>
</event>
<event>
 6    1  0.9906445E-006  0.3401910E+04  0.7818608E-02  0.8137438E-01
         -2   -1    0    0    0  501 -0.00000000000E+00  0.00000000000E+00  0.10457975212E+04  0.10457975212E+04  0.00000000000E+00 0.  1.
          2   -1    0    0  501    0  0.00000000000E+00 -0.00000000000E+00 -0.27665476879E+04  0.27665476879E+04  0.00000000000E+00 0. -1.
         23    2    1    2    0    0  0.15901304027E+04 -0.31634814253E+02 -0.15322951378E+04  0.22107738690E+04  0.10038551489E+03 0.  0.
         11    1    3    3    0    0  0.44725409038E+03 -0.17066133273E+02 -0.49409094561E+03  0.66667333590E+03  0.00000000000E+00 0. -1.
        -11    1    3    3    0    0  0.11428763124E+04 -0.14568680980E+02 -0.10382041921E+04  0.15441005331E+04  0.00000000000E+00 0.  1.
         22    1    1    2    0    0 -0.15901304027E+04  0.31634814253E+02 -0.18845502895E+03  0.16015713400E+04  0.00000000000E+00 0. -1.
<mgrwt>
<rscale>  0 0.34019105E+04</rscale>
<asrwt>0</asrwt>
<pdfrwt beam="1">  1        2 0.42562272E+00 0.34019105E+04</pdfrwt>
<pdfrwt beam="2">  1       -2 0.16089193E+00 0.34019105E+04</pdfrwt>
<totfact> 0.49763393E-01</totfact>
</mgrwt>
</event>
<event>
 6    1  0.9906445E-006  0.2505643E+04  0.7818608E-02  0.8400978E-01
          3   -1    0    0  501    0  0.00000000000E+00  0.00000000000E+00  0.13184133170E+04  0.13184133170E+04  0.00000000000E+00 0. -1.
         -3   -1    0    0    0  501 -0.00000000000E+00 -0.00000000000E+00 -0.11904928286E+04  0.11904928286E+04  0.00000000000E+00 0.  1.
         23    2    1    2    0    0  0.39377171813E+03  0.18271480584E+03  0.12385719791E+04  0.13164349299E+04  0.10246712204E+03 0.  0.
         11    1    3    3    0    0  0.30001204249E+03  0.10982469567E+03  0.10024619939E+04  0.10521400756E+04  0.00000000000E+00 0.  1.
        -11    1    3    3    0    0  0.93759675641E+02  0.72890110166E+02  0.23610998522E+03  0.26429485439E+03  0.00000000000E+00 0. -1.
         22    1    1    2    0    0 -0.39377171813E+03 -0.18271480584E+03 -0.11106514908E+04  0.11924712157E+04  0.00000000000E+00 0.  1.
<mgrwt>
<rscale>  0 0.25056429E+04</rscale>
<asrwt>0</asrwt>
<pdfrwt beam="1">  1        3 0.20283282E+00 0.25056429E+04</pdfrwt>
<pdfrwt beam="2">  1       -3 0.18315274E+00 0.25056429E+04</pdfrwt>
<totfact> 0.61798586E-02</totfact>
</mgrwt>
</event>
<event>
 6    1  0.9906445E-006  0.2333148E+04  0.7818608E-02  0.8464965E-01
          2   -1    0    0  501    0  0.00000000000E+00  0.00000000000E+00  0.21919860014E+04  0.21919860014E+04  0.00000000000E+00 0. -1.
         -2   -1    0    0    0  501 -0.00000000000E+00 -0.00000000000E+00 -0.62085023888E+03  0.62085023888E+03  0.00000000000E+00 0.  1.
         23    2    1    2    0    0  0.10691218364E+04  0.33077310638E+03  0.11763832107E+04  0.16261341184E+04  0.89455932076E+02 0.  0.
         13    1    3    3    0    0  0.48140615484E+03  0.11109595773E+03  0.55574620629E+03  0.74360476299E+03  0.00000000000E+00 0. -1.
        -13    1    3    3    0    0  0.58771568153E+03  0.21967714864E+03  0.62063700438E+03  0.88252935541E+03  0.00000000000E+00 0.  1.
         22    1    1    2    0    0 -0.10691218364E+04 -0.33077310638E+03  0.39475255187E+03  0.11867021219E+04  0.00000000000E+00 0.  1.
<mgrwt>
<rscale>  0 0.23331481E+04</rscale>
<asrwt>0</asrwt>
<pdfrwt beam="1">  1        2 0.33722861E+00 0.23331481E+04</pdfrwt>
<pdfrwt beam="2">  1       -2 0.95515422E-01 0.23331481E+04</pdfrwt>
<totfact> 0.43410172E+00</totfact>
</mgrwt>
</event>
<event>
 6    1  0.9906445E-006  0.1685707E+04  0.7818608E-02  0.8769559E-01
         -2   -1    0    0    0  501 -0.00000000000E+00  0.00000000000E+00  0.25849040739E+03  0.25849040739E+03  0.00000000000E+00 0.  1.
          2   -1    0    0  501    0  0.00000000000E+00 -0.00000000000E+00 -0.27482714790E+04  0.27482714790E+04  0.00000000000E+00 0. -1.
         23    2    1    2    0    0  0.24837945775E+03 -0.48345529306E+01 -0.26806064679E+04  0.26935047081E+04  0.87182845801E+02 0.  0.
         11    1    3    3    0    0  0.19655557373E+03 -0.70311308837E+01 -0.16653438965E+04  0.16769179539E+04  0.00000000000E+00 0. -1.
        -11    1    3    3    0    0  0.51823884024E+02  0.21965779531E+01 -0.10152625714E+04  0.10165867541E+04  0.00000000000E+00 0.  1.
         22    1    1    2    0    0 -0.24837945775E+03  0.48345529306E+01  0.19082539627E+03  0.31325717836E+03  0.00000000000E+00 0.  1.
<mgrwt>
<rscale>  0 0.16857068E+04</rscale>
<asrwt>0</asrwt>
<pdfrwt beam="1">  1        2 0.42281100E+00 0.16857068E+04</pdfrwt>
<pdfrwt beam="2">  1       -2 0.39767755E-01 0.16857068E+04</pdfrwt>
<totfact> 0.14203310E+01</totfact>
</mgrwt>
</event>
<event>
 6    1  0.9906445E-006  0.1681750E+04  0.7818608E-02  0.8771842E-01
         -2   -1    0    0    0  501 -0.00000000000E+00  0.00000000000E+00  0.76187190501E+03  0.76187190501E+03  0.00000000000E+00 0.  1.
          2   -1    0    0  501    0  0.00000000000E+00 -0.00000000000E+00 -0.92807011437E+03  0.92807011437E+03  0.00000000000E+00 0. -1.
         23    2    1    2    0    0 -0.53504735242E+03  0.61670691161E+03 -0.27496513330E+03  0.86627137652E+03  0.90648712586E+02 0.  0.
         11    1    3    3    0    0 -0.15618733217E+03  0.12105888455E+03 -0.67289639101E+02  0.20875256115E+03  0.00000000000E+00 0. -1.
        -11    1    3    3    0    0 -0.37886002026E+03  0.49564802706E+03 -0.20767549420E+03  0.65751881537E+03  0.00000000000E+00 0.  1.
         22    1    1    2    0    0  0.53504735242E+03 -0.61670691161E+03  0.10876692394E+03  0.82367064286E+03  0.00000000000E+00 0.  1.
<mgrwt>
<rscale>  0 0.16817497E+04</rscale>
<asrwt>0</asrwt>
<pdfrwt beam="1">  1        2 0.14278002E+00 0.16817497E+04</pdfrwt>
<pdfrwt beam="2">  1       -2 0.11721106E+00 0.16817497E+04</pdfrwt>
<totfact> 0.15056561E+01</totfact>
</mgrwt>
</event>
<event>
 6    1  0.9906445E-006  0.1659058E+04  0.7818608E-02  0.8785066E-01
         -1   -1    0    0    0  501 -0.00000000000E+00  0.00000000000E+00  0.42306699555E+03  0.42306699555E+03  0.00000000000E+00 0.  1.
          1   -1    0    0  501    0  0.00000000000E+00 -0.00000000000E+00 -0.16265003515E+04  0.16265003515E+04  0.00000000000E+00 0. -1.
         23    2    1    2    0    0 -0.25811977257E+03  0.71478697419E+03 -0.20066205634E+03  0.79135571350E+03  0.91827931348E+02 0.  0.
         13    1    3    3    0    0 -0.52304122683E+02  0.20238554192E+03 -0.18316378531E+02  0.20983593246E+03  0.00000000000E+00 0.  1.
        -13    1    3    3    0    0 -0.20581564989E+03  0.51240143227E+03 -0.18234567781E+03  0.58151978104E+03  0.00000000000E+00 0. -1.
         22    1    1    2    0    0  0.25811977257E+03 -0.71478697419E+03 -0.10027712996E+04  0.12582116335E+04  0.00000000000E+00 0. -1.
<mgrwt>
<rscale>  0 0.16590583E+04</rscale>
<asrwt>0</asrwt>
<pdfrwt beam="1">  1        1 0.25023082E+00 0.16590583E+04</pdfrwt>
<pdfrwt beam="2">  1       -1 0.65087231E-01 0.16590583E+04</pdfrwt>
<totfact> 0.12227942E+01</totfact>
</mgrwt>
</event>
<event>
 6    1  0.9906445E-006  0.4181338E+04  0.7818608E-02  0.7968932E-01
          2   -1    0    0  501    0  0.00000000000E+00  0.00000000000E+00  0.41767712824E+04  0.41767712824E+04  0.00000000000E+00 0. -1.
         -2   -1    0    0    0  501 -0.00000000000E+00 -0.00000000000E+00 -0.10464772140E+04  0.10464772140E+04  0.00000000000E+00 0.  1.
         23    2    1    2    0    0  0.14729152373E+03  0.14900768946E+04 -0.25499392607E+03  0.15216003836E+04  0.90674583325E+02 0.  0.
         11    1    3    3    0    0  0.36246156340E+02  0.75530692730E+03 -0.15332644259E+03  0.77156421397E+03  0.00000000000E+00 0.  1.
        -11    1    3    3    0    0  0.11104536739E+03  0.73476996735E+03 -0.10166748348E+03  0.75003616961E+03  0.00000000000E+00 0. -1.
         22    1    1    2    0    0 -0.14729152373E+03 -0.14900768946E+04  0.33852879945E+04  0.37016481128E+04  0.00000000000E+00 0. -1.
<mgrwt>
<rscale>  0 0.41813376E+04</rscale>
<asrwt>0</asrwt>
<pdfrwt beam="1">  1        2 0.64258019E+00 0.41813376E+04</pdfrwt>
<pdfrwt beam="2">  1       -2 0.16099650E+00 0.41813376E+04</pdfrwt>
<totfact> 0.46657447E-02</totfact>
</mgrwt>
</event>
<event>
 6    1  0.9906445E-006  0.1959665E+04  0.7818608E-02  0.8625714E-01
          2   -1    0    0  501    0  0.00000000000E+00  0.00000000000E+00  0.10637495415E+04  0.10637495415E+04  0.00000000000E+00 0.  1.
         -2   -1    0    0    0  501 -0.00000000000E+00 -0.00000000000E+00 -0.90253577459E+03  0.90253577459E+03  0.00000000000E+00 0. -1.
         23    2    1    2    0    0 -0.23174737272E+03 -0.68227845849E+03 -0.58225813116E+03  0.93092972358E+03  0.91623573713E+02 0.  0.
         11    1    3    3    0    0 -0.13560720859E+03 -0.28296302302E+03 -0.21938444356E+03  0.38286671505E+03  0.00000000000E+00 0. -1.
        -11    1    3    3    0    0 -0.96140164128E+02 -0.39931543548E+03 -0.36287368760E+03  0.54806300854E+03  0.00000000000E+00 0.  1.
         22    1    1    2    0    0  0.23174737272E+03  0.68227845849E+03  0.74347189803E+03  0.10353555925E+04  0.00000000000E+00 0.  1.
<mgrwt>
<rscale>  0 0.19596653E+04</rscale>
<asrwt>0</asrwt>
<pdfrwt beam="1">  1        2 0.16365378E+00 0.19596653E+04</pdfrwt>
<pdfrwt beam="2">  1       -2 0.13885166E+00 0.19596653E+04</pdfrwt>
<totfact> 0.78483595E+00</totfact>
</mgrwt>
</event>
<event>
 6    1  0.9906445E-006  0.3632541E+04  0.7818608E-02  0.8083078E-01
         -2   -1    0    0    0  501 -0.00000000000E+00  0.00000000000E+00  0.94553208519E+03  0.94553208519E+03  0.00000000000E+00 0. -1.
          2   -1    0    0  501    0  0.00000000000E+00 -0.00000000000E+00 -0.34888699035E+04  0.34888699035E+04  0.00000000000E+00 0.  1.
         23    2    1    2    0    0  0.39583224908E+03  0.77126345339E+03 -0.32192260911E+04  0.33351497695E+04  0.90977333823E+02 0.  0.
         11    1    3    3    0    0  0.18992203678E+03  0.31878091373E+03 -0.15248336955E+04  0.15693340785E+04  0.00000000000E+00 0. -1.
        -11    1    3    3    0    0  0.20591021230E+03  0.45248253967E+03 -0.16943923957E+04  0.17658156910E+04  0.00000000000E+00 0.  1.
         22    1    1    2    0    0 -0.39583224908E+03 -0.77126345339E+03  0.67588827284E+03  0.10992522192E+04  0.00000000000E+00 0. -1.
<mgrwt>
<rscale>  0 0.36325409E+04</rscale>
<asrwt>0</asrwt>
<pdfrwt beam="1">  1        2 0.53674922E+00 0.36325409E+04</pdfrwt>
<pdfrwt beam="2">  1       -2 0.14546647E+00 0.36325409E+04</pdfrwt>
<totfact> 0.21824265E-01</totfact>
</mgrwt>
</event>
<event>
 6    1  0.9906445E-006  0.1455572E+04  0.7818608E-02  0.8914547E-01
          1   -1    0    0  501    0  0.00000000000E+00  0.00000000000E+00  0.42659600791E+03  0.42659600791E+03  0.00000000000E+00 0. -1.
         -1   -1    0    0    0  501 -0.00000000000E+00 -0.00000000000E+00 -0.12416249692E+04  0.12416249692E+04  0.00000000000E+00 0.  1.
         23    2    1    2    0    0  0.39379774794E+03 -0.95272694853E+02  0.27999561716E+03  0.50064554911E+03  0.89971481840E+02 0.  0.
         13    1    3    3    0    0  0.16020848340E+03 -0.32883012300E+02  0.61381165155E+02  0.17468742967E+03  0.00000000000E+00 0.  1.
        -13    1    3    3    0    0  0.23358926454E+03 -0.62389682553E+02  0.21861445201E+03  0.32595811943E+03  0.00000000000E+00 0. -1.
         22    1    1    2    0    0 -0.39379774794E+03  0.95272694853E+02 -0.10950245785E+04  0.11675754280E+04  0.00000000000E+00 0.  1.
<mgrwt>
<rscale>  0 0.14555717E+04</rscale>
<asrwt>0</asrwt>
<pdfrwt beam="1">  1        1 0.65630156E-01 0.14555717E+04</pdfrwt>
<pdfrwt beam="2">  1       -1 0.19101922E+00 0.14555717E+04</pdfrwt>
<totfact> 0.92853367E+00</totfact>
</mgrwt>
</event>
<event>
 6    1  0.9906445E-006  0.3557136E+04  0.7818608E-02  0.8100381E-01
         -3   -1    0    0    0  501 -0.00000000000E+00  0.00000000000E+00  0.10437225139E+04  0.10437225139E+04  0.00000000000E+00 0. -1.
          3   -1    0    0  501    0  0.00000000000E+00 -0.00000000000E+00 -0.30307908335E+04  0.30307908335E+04  0.00000000000E+00 0.  1.
         23    2    1    2    0    0  0.25259438305E+03  0.12831290495E+04 -0.23730073560E+04  0.27109983971E+04  0.90134995597E+02 0.  0.
         13    1    3    3    0    0  0.18561432976E+03  0.86739434356E+03 -0.16890894667E+04  0.19078387912E+04  0.00000000000E+00 0. -1.
        -13    1    3    3    0    0  0.66980053289E+02  0.41573470589E+03 -0.68391788923E+03  0.80315960583E+03  0.00000000000E+00 0.  1.
         22    1    1    2    0    0 -0.25259438305E+03 -0.12831290495E+04  0.38593903639E+03  0.13635149503E+04  0.00000000000E+00 0. -1.
<mgrwt>
<rscale>  0 0.35571363E+04</rscale>
<asrwt>0</asrwt>
<pdfrwt beam="1">  1        3 0.46627551E+00 0.35571363E+04</pdfrwt>
<pdfrwt beam="2">  1       -3 0.16057270E+00 0.35571363E+04</pdfrwt>
<totfact> 0.28771378E-03</totfact>
</mgrwt>
</event>
<event>
 6    1  0.1102273E-005  0.3184804E+04  0.7818608E-02  0.8192842E-01
          2   -1    0    0  501    0  0.00000000000E+00  0.00000000000E+00  0.22232160628E+04  0.22232160628E+04  0.00000000000E+00 0. -1.
         -2   -1    0    0    0  501 -0.00000000000E+00 -0.00000000000E+00 -0.11405750729E+04  0.11405750729E+04  0.00000000000E+00 0.  1.
         23    2    1    2    0    0 -0.14934958103E+04  0.45614688596E+03  0.21984718723E+03  0.15796911209E+04  0.92149523417E+02 0.  0.
         13    1    3    3    0    0 -0.11599277988E+04  0.35128326588E+03  0.13169833695E+03  0.12190885462E+04  0.00000000000E+00 0.  1.
        -13    1    3    3    0    0 -0.33356801147E+03  0.10486362008E+03  0.88148850280E+02  0.36060257473E+03  0.00000000000E+00 0. -1.
         22    1    1    2    0    0  0.14934958103E+04 -0.45614688596E+03  0.86279380271E+03  0.17841000149E+04  0.00000000000E+00 0. -1.
<mgrwt>
<rscale>  0 0.31848044E+04</rscale>
<asrwt>0</asrwt>
<pdfrwt beam="1">  1        2 0.34203324E+00 0.31848044E+04</pdfrwt>
<pdfrwt beam="2">  1       -2 0.17547309E+00 0.31848044E+04</pdfrwt>
<totfact> 0.82369465E-01</totfact>
</mgrwt>
</event>
<event>
 6    1  0.9906445E-006  0.6316034E+04  0.7818608E-02  0.7652406E-01
         -1   -1    0    0    0  501 -0.00000000000E+00  0.00000000000E+00  0.23475849004E+04  0.23475849004E+04  0.00000000000E+00 0.  1.
          1   -1    0    0  501    0  0.00000000000E+00 -0.00000000000E+00 -0.42482266794E+04  0.42482266794E+04  0.00000000000E+00 0. -1.
         23    2    1    2    0    0 -0.76377272582E+03 -0.23779197485E+04 -0.29676859153E+04  0.38798523947E+04  0.90795404395E+02 0.  0.
         11    1    3    3    0    0 -0.46117732539E+03 -0.13888515759E+04 -0.18042083779E+04  0.23230930020E+04  0.00000000000E+00 0. -1.
        -11    1    3    3    0    0 -0.30259540043E+03 -0.98906817262E+03 -0.11634775374E+04  0.15567593926E+04  0.00000000000E+00 0.  1.
         22    1    1    2    0    0  0.76377272582E+03  0.23779197485E+04  0.10670441363E+04  0.27159591852E+04  0.00000000000E+00 0.  1.
<mgrwt>
<rscale>  0 0.63160345E+04</rscale>
<asrwt>0</asrwt>
<pdfrwt beam="1">  1        1 0.65357333E+00 0.63160345E+04</pdfrwt>
<pdfrwt beam="2">  1       -1 0.36116691E+00 0.63160345E+04</pdfrwt>
<totfact> 0.48389925E-04</totfact>
</mgrwt>
</event>
<event>
 6    1  0.9906445E-006  0.5915283E+03  0.7818608E-02  0.9923140E-01
         -1   -1    0    0    0  501 -0.00000000000E+00  0.00000000000E+00  0.21258354511E+03  0.21258354511E+03  0.00000000000E+00 0.  1.
          1   -1    0    0  501    0  0.00000000000E+00 -0.00000000000E+00 -0.41149197927E+03  0.41149197927E+03  0.00000000000E+00 0. -1.
         23    2    1    2    0    0  0.28895487615E+03 -0.88486753400E+01 -0.99062412021E+02  0.31822842591E+03  0.88784852757E+02 0.  0.
         11    1    3    3    0    0  0.25778479760E+03  0.14398674400E+02 -0.64305517603E+02  0.26607428153E+03  0.00000000000E+00 0.  1.
        -11    1    3    3    0    0  0.31170078545E+02 -0.23247349739E+02 -0.34756894418E+02  0.52154144380E+02  0.00000000000E+00 0. -1.
         22    1    1    2    0    0 -0.28895487615E+03  0.88486753400E+01 -0.99846022142E+02  0.30584709847E+03  0.00000000000E+00 0. -1.
<mgrwt>
<rscale>  0 0.59152827E+03</rscale>
<asrwt>0</asrwt>
<pdfrwt beam="1">  1        1 0.63306459E-01 0.59152827E+03</pdfrwt>
<pdfrwt beam="2">  1       -1 0.32705160E-01 0.59152827E+03</pdfrwt>
<totfact> 0.51135983E+02</totfact>
</mgrwt>
</event>
<event>
 6    1  0.9906445E-006  0.1927027E+04  0.7818608E-02  0.8641519E-01
          1   -1    0    0  501    0  0.00000000000E+00  0.00000000000E+00  0.80996903744E+03  0.80996903744E+03  0.00000000000E+00 0.  1.
         -1   -1    0    0    0  501 -0.00000000000E+00 -0.00000000000E+00 -0.11461649820E+04  0.11461649820E+04  0.00000000000E+00 0. -1.
         23    2    1    2    0    0  0.21689521017E+03  0.42199393893E+03  0.68029434249E+03  0.83436090497E+03  0.90748612327E+02 0.  0.
         13    1    3    3    0    0  0.90919254145E+02  0.12630066633E+03  0.28663506920E+03  0.32615614663E+03  0.00000000000E+00 0.  1.
        -13    1    3    3    0    0  0.12597595603E+03  0.29569327260E+03  0.39365927329E+03  0.50820475834E+03  0.00000000000E+00 0. -1.
         22    1    1    2    0    0 -0.21689521017E+03 -0.42199393893E+03 -0.10164902871E+04  0.11217731145E+04  0.00000000000E+00 0. -1.
<mgrwt>
<rscale>  0 0.19270269E+04</rscale>
<asrwt>0</asrwt>
<pdfrwt beam="1">  1        1 0.12461062E+00 0.19270269E+04</pdfrwt>
<pdfrwt beam="2">  1       -1 0.17633307E+00 0.19270269E+04</pdfrwt>
<totfact> 0.44746649E+00</totfact>
</mgrwt>
</event>
<event>
 6    1  0.1448118E-005  0.3623321E+04  0.7818608E-02  0.8085170E-01
          2   -1    0    0  501    0  0.00000000000E+00  0.00000000000E+00  0.17682411244E+04  0.17682411244E+04  0.00000000000E+00 0. -1.
         -2   -1    0    0    0  501 -0.00000000000E+00 -0.00000000000E+00 -0.18561463826E+04  0.18561463826E+04  0.00000000000E+00 0.  1.
         23    2    1    2    0    0 -0.23612371021E+03 -0.11659271190E+04 -0.14092478776E+04  0.18464429715E+04  0.90728237616E+02 0.  0.
         13    1    3    3    0    0 -0.14307969896E+03 -0.73801606358E+03 -0.95649828376E+03  0.12165642101E+04  0.00000000000E+00 0. -1.
        -13    1    3    3    0    0 -0.93044011259E+02 -0.42791105542E+03 -0.45274959382E+03  0.62987876142E+03  0.00000000000E+00 0.  1.
         22    1    1    2    0    0  0.23612371021E+03  0.11659271190E+04  0.13213426194E+04  0.17779445355E+04  0.00000000000E+00 0. -1.
<mgrwt>
<rscale>  0 0.36233213E+04</rscale>
<asrwt>0</asrwt>
<pdfrwt beam="1">  1        2 0.27203710E+00 0.36233213E+04</pdfrwt>
<pdfrwt beam="2">  1       -2 0.28556098E+00 0.36233213E+04</pdfrwt>
<totfact> 0.28471345E-01</totfact>
</mgrwt>
</event>
<event>
 6    1  0.9906445E-006  0.2419860E+04  0.7818608E-02  0.8432106E-01
         -2   -1    0    0    0  501 -0.00000000000E+00  0.00000000000E+00  0.53142379075E+03  0.53142379075E+03  0.00000000000E+00 0.  1.
          2   -1    0    0  501    0  0.00000000000E+00 -0.00000000000E+00 -0.27547320036E+04  0.27547320036E+04  0.00000000000E+00 0. -1.
         23    2    1    2    0    0 -0.11420920132E+04  0.25838577707E+03 -0.70790864801E+03  0.13710648781E+04  0.86872720358E+02 0.  0.
         13    1    3    3    0    0 -0.44417917487E+03  0.14394925017E+03 -0.27771793603E+03  0.54327136682E+03  0.00000000000E+00 0. -1.
        -13    1    3    3    0    0 -0.69791283834E+03  0.11443652690E+03 -0.43019071198E+03  0.82779351126E+03  0.00000000000E+00 0.  1.
         22    1    1    2    0    0  0.11420920132E+04 -0.25838577707E+03 -0.15153995648E+04  0.19150909162E+04  0.00000000000E+00 0. -1.
<mgrwt>
<rscale>  0 0.24198596E+04</rscale>
<asrwt>0</asrwt>
<pdfrwt beam="1">  1        2 0.42380493E+00 0.24198596E+04</pdfrwt>
<pdfrwt beam="2">  1       -2 0.81757506E-01 0.24198596E+04</pdfrwt>
<totfact> 0.29098559E+00</totfact>
</mgrwt>
</event>
<event>
 6    1  0.9906445E-006  0.6646780E+04  0.7818608E-02  0.7615002E-01
         -2   -1    0    0    0  501 -0.00000000000E+00  0.00000000000E+00  0.34934875165E+04  0.34934875165E+04  0.00000000000E+00 0.  1.
          2   -1    0    0  501    0  0.00000000000E+00 -0.00000000000E+00 -0.31615745997E+04  0.31615745997E+04  0.00000000000E+00 0. -1.
         23    2    1    2    0    0  0.32112182989E+03  0.12096217478E+04 -0.29158261958E+04  0.31745286304E+04  0.96361916737E+02 0.  0.
         11    1    3    3    0    0  0.95111541061E+02  0.49531533499E+03 -0.10940772887E+04  0.12047359046E+04  0.00000000000E+00 0. -1.
        -11    1    3    3    0    0  0.22601028883E+03  0.71430641284E+03 -0.18217489071E+04  0.19697927258E+04  0.00000000000E+00 0.  1.
         22    1    1    2    0    0 -0.32112182989E+03 -0.12096217478E+04  0.32477391125E+04  0.34805334858E+04  0.00000000000E+00 0.  1.
<mgrwt>
<rscale>  0 0.66467801E+04</rscale>
<asrwt>0</asrwt>
<pdfrwt beam="1">  1        2 0.48639609E+00 0.66467801E+04</pdfrwt>
<pdfrwt beam="2">  1       -2 0.53745962E+00 0.66467801E+04</pdfrwt>
<totfact> 0.89280018E-04</totfact>
</mgrwt>
</event>
<event>
 6    1  0.9906445E-006  0.1446374E+04  0.7818608E-02  0.8920918E-01
         -2   -1    0    0    0  501 -0.00000000000E+00  0.00000000000E+00  0.24138296080E+03  0.24138296080E+03  0.00000000000E+00 0.  1.
          2   -1    0    0  501    0  0.00000000000E+00 -0.00000000000E+00 -0.21666788455E+04  0.21666788455E+04  0.00000000000E+00 0. -1.
         23    2    1    2    0    0 -0.49607582541E+03  0.39720783865E+03 -0.40046758799E+03  0.75610338488E+03  0.86329299562E+02 0.  0.
         11    1    3    3    0    0 -0.28880565275E+03  0.25286197825E+03 -0.19524424587E+03  0.43066019163E+03  0.00000000000E+00 0. -1.
        -11    1    3    3    0    0 -0.20727017266E+03  0.14434586040E+03 -0.20522334211E+03  0.32544319326E+03  0.00000000000E+00 0.  1.
         22    1    1    2    0    0  0.49607582541E+03 -0.39720783865E+03 -0.15248282968E+04  0.16519584215E+04  0.00000000000E+00 0. -1.
<mgrwt>
<rscale>  0 0.14463739E+04</rscale>
<asrwt>0</asrwt>
<pdfrwt beam="1">  1        2 0.33333519E+00 0.14463739E+04</pdfrwt>
<pdfrwt beam="2">  1       -2 0.37135842E-01 0.14463739E+04</pdfrwt>
<totfact> 0.35788458E+01</totfact>
</mgrwt>
</event>
<event>
 6    1  0.1372640E-005  0.2623091E+04  0.7818608E-02  0.8360400E-01
          2   -1    0    0  501    0  0.00000000000E+00  0.00000000000E+00  0.19800855748E+04  0.19800855748E+04  0.00000000000E+00 0. -1.
         -2   -1    0    0    0  501 -0.00000000000E+00 -0.00000000000E+00 -0.86872561962E+03  0.86872561962E+03  0.00000000000E+00 0.  1.
         23    2    1    2    0    0  0.98023956187E+03 -0.86091632803E+03  0.42797044068E+03  0.13760356681E+04  0.90933707694E+02 0.  0.
         11    1    3    3    0    0  0.42787809801E+03 -0.37059744942E+03  0.13857964138E+03  0.58277478778E+03  0.00000000000E+00 0.  1.
        -11    1    3    3    0    0  0.55236146386E+03 -0.49031887861E+03  0.28939079930E+03  0.79326088029E+03  0.00000000000E+00 0. -1.
         22    1    1    2    0    0 -0.98023956187E+03  0.86091632803E+03  0.68338951452E+03  0.14727755264E+04  0.00000000000E+00 0.  1.
<mgrwt>
<rscale>  0 0.26230906E+04</rscale>
<asrwt>0</asrwt>
<pdfrwt beam="1">  1        2 0.30462855E+00 0.26230906E+04</pdfrwt>
<pdfrwt beam="2">  1       -2 0.13365010E+00 0.26230906E+04</pdfrwt>
<totfact> 0.24494547E+00</totfact>
</mgrwt>
</event>
<event>
 6    1  0.9906445E-006  0.1435969E+04  0.7818608E-02  0.8928186E-01
          2   -1    0    0  501    0  0.00000000000E+00  0.00000000000E+00  0.53106651211E+03  0.53106651211E+03  0.00000000000E+00 0. -1.
         -2   -1    0    0    0  501 -0.00000000000E+00 -0.00000000000E+00 -0.97069111306E+03  0.97069111306E+03  0.00000000000E+00 0.  1.
         23    2    1    2    0    0  0.48601833337E+03  0.52018963701E+03 -0.29139401243E+03  0.77458269009E+03  0.90866905304E+02 0.  0.
         11    1    3    3    0    0  0.34406780591E+03  0.37819347755E+03 -0.25183553709E+03  0.56994218941E+03  0.00000000000E+00 0.  1.
        -11    1    3    3    0    0  0.14195052747E+03  0.14199615946E+03 -0.39558475343E+02  0.20464050069E+03  0.00000000000E+00 0. -1.
         22    1    1    2    0    0 -0.48601833337E+03 -0.52018963701E+03 -0.14823058852E+03  0.72717493508E+03  0.00000000000E+00 0. -1.
<mgrwt>
<rscale>  0 0.14359687E+04</rscale>
<asrwt>0</asrwt>
<pdfrwt beam="1">  1        2 0.81702540E-01 0.14359687E+04</pdfrwt>
<pdfrwt beam="2">  1       -2 0.14933710E+00 0.14359687E+04</pdfrwt>
<totfact> 0.16872973E+01</totfact>
</mgrwt>
</event>
<event>
 6    1  0.9906445E-006  0.1793706E+04  0.7818608E-02  0.8709654E-01
         -1   -1    0    0    0  501 -0.00000000000E+00  0.00000000000E+00  0.58380411122E+03  0.58380411122E+03  0.00000000000E+00 0.  1.
          1   -1    0    0  501    0  0.00000000000E+00 -0.00000000000E+00 -0.13777660627E+04  0.13777660627E+04  0.00000000000E+00 0. -1.
         23    2    1    2    0    0 -0.66391101134E+03 -0.55016281994E+03 -0.13620473289E+03  0.87708803111E+03  0.85292002207E+02 0.  0.
         13    1    3    3    0    0 -0.53030195238E+03 -0.39829083906E+03 -0.86877597544E+02  0.66888225431E+03  0.00000000000E+00 0.  1.
        -13    1    3    3    0    0 -0.13360905896E+03 -0.15187198088E+03 -0.49327135347E+02  0.20820577680E+03  0.00000000000E+00 0. -1.
         22    1    1    2    0    0  0.66391101134E+03  0.55016281994E+03 -0.65775721855E+03  0.10844821428E+04  0.00000000000E+00 0. -1.
<mgrwt>
<rscale>  0 0.17937062E+04</rscale>
<asrwt>0</asrwt>
<pdfrwt beam="1">  1        1 0.21196401E+00 0.17937062E+04</pdfrwt>
<pdfrwt beam="2">  1       -1 0.89816017E-01 0.17937062E+04</pdfrwt>
<totfact> 0.91248118E+00</totfact>
</mgrwt>
</event>
<event>
 6    1  0.9906445E-006  0.4569357E+04  0.7818608E-02  0.7898606E-01
         -2   -1    0    0    0  501 -0.00000000000E+00  0.00000000000E+00  0.23928832364E+04  0.23928832364E+04  0.00000000000E+00 0.  1.
          2   -1    0    0  501    0  0.00000000000E+00 -0.00000000000E+00 -0.21813666146E+04  0.21813666146E+04  0.00000000000E+00 0. -1.
         23    2    1    2    0    0 -0.37877841839E+03  0.55631234106E+03 -0.20786600451E+04  0.21872296005E+04  0.10094172213E+03 0.  0.
         13    1    3    3    0    0 -0.16912850737E+03  0.26897576345E+03 -0.11395870216E+04  0.11830515598E+04  0.00000000000E+00 0. -1.
        -13    1    3    3    0    0 -0.20964991102E+03  0.28733657761E+03 -0.93907302345E+03  0.10041780407E+04  0.00000000000E+00 0.  1.
         22    1    1    2    0    0  0.37877841839E+03 -0.55631234106E+03  0.22901766669E+04  0.23870202505E+04  0.00000000000E+00 0.  1.
<mgrwt>
<rscale>  0 0.45693569E+04</rscale>
<asrwt>0</asrwt>
<pdfrwt beam="1">  1        2 0.33559486E+00 0.45693569E+04</pdfrwt>
<pdfrwt beam="2">  1       -2 0.36813588E+00 0.45693569E+04</pdfrwt>
<totfact> 0.47565761E-02</totfact>
</mgrwt>
</event>
<event>
 6    1  0.9906445E-006  0.1757261E+04  0.7818608E-02  0.8729363E-01
          2   -1    0    0  501    0  0.00000000000E+00  0.00000000000E+00  0.12609571078E+04  0.12609571078E+04  0.00000000000E+00 0. -1.
         -2   -1    0    0    0  501 -0.00000000000E+00 -0.00000000000E+00 -0.61222691190E+03  0.61222691190E+03  0.00000000000E+00 0.  1.
         23    2    1    2    0    0  0.49394609349E+03 -0.61494824818E+03 -0.81871016831E+02  0.79804578523E+03  0.89610940832E+02 0.  0.
         11    1    3    3    0    0  0.37648221764E+02 -0.39047431604E+02 -0.28700885409E+02  0.61366369781E+02  0.00000000000E+00 0.  1.
        -11    1    3    3    0    0  0.45629787172E+03 -0.57590081658E+03 -0.53170131423E+02  0.73667941545E+03  0.00000000000E+00 0. -1.
         22    1    1    2    0    0 -0.49394609349E+03  0.61494824818E+03  0.73060121277E+03  0.10751382345E+04  0.00000000000E+00 0. -1.
<mgrwt>
<rscale>  0 0.17572614E+04</rscale>
<asrwt>0</asrwt>
<pdfrwt beam="1">  1        2 0.19399340E+00 0.17572614E+04</pdfrwt>
<pdfrwt beam="2">  1       -2 0.94188756E-01 0.17572614E+04</pdfrwt>
<totfact> 0.15699025E+01</totfact>
</mgrwt>
</event>
<event>
 6    1  0.1107161E-005  0.3932843E+04  0.7818608E-02  0.8018233E-01
         -2   -1    0    0    0  501 -0.00000000000E+00  0.00000000000E+00  0.18922207152E+04  0.18922207152E+04  0.00000000000E+00 0.  1.
          2   -1    0    0  501    0  0.00000000000E+00 -0.00000000000E+00 -0.20435321182E+04  0.20435321182E+04  0.00000000000E+00 0. -1.
         23    2    1    2    0    0  0.10322149191E+04  0.60038870192E+02  0.15970573966E+04  0.19045301069E+04  0.87007442826E+02 0.  0.
         13    1    3    3    0    0  0.46042116207E+03  0.51603681021E+02  0.65009279810E+03  0.79829269853E+03  0.00000000000E+00 0. -1.
        -13    1    3    3    0    0  0.57179375706E+03  0.84351891718E+01  0.94696459847E+03  0.11062374084E+04  0.00000000000E+00 0.  1.
         22    1    1    2    0    0 -0.10322149191E+04 -0.60038870192E+02 -0.17483687996E+04  0.20312227265E+04  0.00000000000E+00 0. -1.
<mgrwt>
<rscale>  0 0.39328431E+04</rscale>
<asrwt>0</asrwt>
<pdfrwt beam="1">  1        2 0.31438955E+00 0.39328431E+04</pdfrwt>
<pdfrwt beam="2">  1       -2 0.29111088E+00 0.39328431E+04</pdfrwt>
<totfact> 0.18053357E-01</totfact>
</mgrwt>
</event>
<event>
 6    1  0.9906445E-006  0.2235369E+04  0.7818608E-02  0.8503849E-01
          1   -1    0    0  501    0  0.00000000000E+00  0.00000000000E+00  0.19328929029E+04  0.19328929029E+04  0.00000000000E+00 0. -1.
         -1   -1    0    0    0  501 -0.00000000000E+00 -0.00000000000E+00 -0.64629496816E+03  0.64629496816E+03  0.00000000000E+00 0.  1.
         23    2    1    2    0    0 -0.97144538691E+03 -0.53970851099E+03  0.52712769229E+03  0.12331616953E+04  0.88502803647E+02 0.  0.
         13    1    3    3    0    0 -0.82559446458E+03 -0.45372497070E+03  0.41073667002E+03  0.10277048122E+04  0.00000000000E+00 0. -1.
        -13    1    3    3    0    0 -0.14585092233E+03 -0.85983540285E+02  0.11639102228E+03  0.20545688309E+03  0.00000000000E+00 0.  1.
         22    1    1    2    0    0  0.97144538691E+03  0.53970851099E+03  0.75947024244E+03  0.13460261757E+04  0.00000000000E+00 0.  1.
<mgrwt>
<rscale>  0 0.22353693E+04</rscale>
<asrwt>0</asrwt>
<pdfrwt beam="1">  1        1 0.29736814E+00 0.22353693E+04</pdfrwt>
<pdfrwt beam="2">  1       -1 0.99429996E-01 0.22353693E+04</pdfrwt>
<totfact> 0.29043547E+00</totfact>
</mgrwt>
</event>
<event>
 6    1  0.9906445E-006  0.3305071E+04  0.7818608E-02  0.8161606E-01
          2   -1    0    0  501    0  0.00000000000E+00  0.00000000000E+00  0.16016614384E+04  0.16016614384E+04  0.00000000000E+00 0. -1.
         -2   -1    0    0    0  501 -0.00000000000E+00 -0.00000000000E+00 -0.17050253318E+04  0.17050253318E+04  0.00000000000E+00 0.  1.
         23    2    1    2    0    0  0.45866453906E+03  0.58733187823E+03  0.14227786509E+04  0.16083219801E+04  0.84075011515E+02 0.  0.
         13    1    3    3    0    0  0.35761921750E+03  0.50894001462E+03  0.11753522138E+04  0.13297985824E+04  0.00000000000E+00 0. -1.
        -13    1    3    3    0    0  0.10104532156E+03  0.78391863605E+02  0.24742643712E+03  0.27852339771E+03  0.00000000000E+00 0.  1.
         22    1    1    2    0    0 -0.45866453906E+03 -0.58733187823E+03 -0.15261425443E+04  0.16983647901E+04  0.00000000000E+00 0.  1.
<mgrwt>
<rscale>  0 0.33050708E+04</rscale>
<asrwt>0</asrwt>
<pdfrwt beam="1">  1        2 0.24640945E+00 0.33050708E+04</pdfrwt>
<pdfrwt beam="2">  1       -2 0.26231159E+00 0.33050708E+04</pdfrwt>
<totfact> 0.50173663E-01</totfact>
</mgrwt>
</event>
<event>
 6    1  0.9906445E-006  0.3218945E+04  0.7818608E-02  0.8183832E-01
          1   -1    0    0  501    0  0.00000000000E+00  0.00000000000E+00  0.12651580569E+04  0.12651580569E+04  0.00000000000E+00 0. -1.
         -1   -1    0    0    0  501 -0.00000000000E+00 -0.00000000000E+00 -0.20474931213E+04  0.20474931213E+04  0.00000000000E+00 0.  1.
         23    2    1    2    0    0 -0.83651366079E+03  0.61078152682E+03 -0.16572770187E+04  0.19567999320E+04  0.98436168138E+02 0.  0.
         13    1    3    3    0    0 -0.43133436670E+03  0.36099414110E+03 -0.83725198015E+03  0.10086411572E+04  0.00000000000E+00 0.  1.
        -13    1    3    3    0    0 -0.40517929409E+03  0.24978738572E+03 -0.82002503852E+03  0.94815877480E+03  0.00000000000E+00 0. -1.
         22    1    1    2    0    0  0.83651366079E+03 -0.61078152682E+03  0.87494195432E+03  0.13558512461E+04  0.00000000000E+00 0. -1.
<mgrwt>
<rscale>  0 0.32189454E+04</rscale>
<asrwt>0</asrwt>
<pdfrwt beam="1">  1        1 0.19463970E+00 0.32189454E+04</pdfrwt>
<pdfrwt beam="2">  1       -1 0.31499894E+00 0.32189454E+04</pdfrwt>
<totfact> 0.21113133E-01</totfact>
</mgrwt>
</event>
<event>
 6    1  0.9906445E-006  0.1932759E+04  0.7818608E-02  0.8638720E-01
         -2   -1    0    0    0  501 -0.00000000000E+00  0.00000000000E+00  0.11329534141E+04  0.11329534141E+04  0.00000000000E+00 0.  1.
          2   -1    0    0  501    0  0.00000000000E+00 -0.00000000000E+00 -0.82429663529E+03  0.82429663529E+03  0.00000000000E+00 0. -1.
         23    2    1    2    0    0  0.22303655520E+03 -0.82046457599E+03 -0.30589101109E+03  0.90816644383E+03  0.91046985763E+02 0.  0.
         13    1    3    3    0    0  0.97770064281E+02 -0.50676444557E+03 -0.20836202620E+03  0.55658235934E+03  0.00000000000E+00 0.  1.
        -13    1    3    3    0    0  0.12526649092E+03 -0.31370013042E+03 -0.97528984895E+02  0.35158408449E+03  0.00000000000E+00 0. -1.
         22    1    1    2    0    0 -0.22303655520E+03  0.82046457599E+03  0.61454778992E+03  0.10490836056E+04  0.00000000000E+00 0.  1.
<mgrwt>
<rscale>  0 0.19327594E+04</rscale>
<asrwt>0</asrwt>
<pdfrwt beam="1">  1        2 0.12681487E+00 0.19327594E+04</pdfrwt>
<pdfrwt beam="2">  1       -2 0.17430052E+00 0.19327594E+04</pdfrwt>
<totfact> 0.61395898E+00</totfact>
</mgrwt>
</event>
<event>
 6    1  0.9906445E-006  0.2830398E+04  0.7818608E-02  0.8293893E-01
         -1   -1    0    0    0  501 -0.00000000000E+00  0.00000000000E+00  0.49896548299E+03  0.49896548299E+03  0.00000000000E+00 0.  1.
          1   -1    0    0  501    0  0.00000000000E+00 -0.00000000000E+00 -0.40138823862E+04  0.40138823862E+04  0.00000000000E+00 0. -1.
         23    2    1    2    0    0 -0.38682608331E+03  0.28749510638E+03 -0.38782725706E+04  0.39092625844E+04  0.95120803388E+02 0.  0.
         11    1    3    3    0    0 -0.64259710053E+02  0.15165242468E+02 -0.69280527191E+03  0.69594427916E+03  0.00000000000E+00 0. -1.
        -11    1    3    3    0    0 -0.32256637326E+03  0.27232986391E+03 -0.31854672987E+04  0.32133183052E+04  0.00000000000E+00 0.  1.
         22    1    1    2    0    0  0.38682608331E+03 -0.28749510638E+03  0.36335566740E+03  0.60358528474E+03  0.00000000000E+00 0.  1.
<mgrwt>
<rscale>  0 0.28303984E+04</rscale>
<asrwt>0</asrwt>
<pdfrwt beam="1">  1        1 0.61752038E+00 0.28303984E+04</pdfrwt>
<pdfrwt beam="2">  1       -1 0.76763919E-01 0.28303984E+04</pdfrwt>
<totfact> 0.13717389E-01</totfact>
</mgrwt>
</event>
<event>
 6    1  0.9906445E-006  0.1950952E+04  0.7818608E-02  0.8629902E-01
         -2   -1    0    0    0  501 -0.00000000000E+00  0.00000000000E+00  0.62460999354E+03  0.62460999354E+03  0.00000000000E+00 0.  1.
          2   -1    0    0  501    0  0.00000000000E+00 -0.00000000000E+00 -0.15234359140E+04  0.15234359140E+04  0.00000000000E+00 0. -1.
         23    2    1    2    0    0  0.85836897315E+03  0.32919782870E+03 -0.98367751410E+02  0.92907019617E+03  0.91250810533E+02 0.  0.
         11    1    3    3    0    0  0.59588635808E+03  0.22662884159E+03 -0.11033704980E+03  0.64700498309E+03  0.00000000000E+00 0.  1.
        -11    1    3    3    0    0  0.26248261507E+03  0.10256898711E+03  0.11969298386E+02  0.28206521308E+03  0.00000000000E+00 0. -1.
         22    1    1    2    0    0 -0.85836897315E+03 -0.32919782870E+03 -0.80045816905E+03  0.12189757114E+04  0.00000000000E+00 0. -1.
<mgrwt>
<rscale>  0 0.19509519E+04</rscale>
<asrwt>0</asrwt>
<pdfrwt beam="1">  1        2 0.23437475E+00 0.19509519E+04</pdfrwt>
<pdfrwt beam="2">  1       -2 0.96093848E-01 0.19509519E+04</pdfrwt>
<totfact> 0.10421557E+01</totfact>
</mgrwt>
</event>
<event>
 6    1  0.9906445E-006  0.3798166E+04  0.7818608E-02  0.8046549E-01
          2   -1    0    0  501    0  0.00000000000E+00  0.00000000000E+00  0.22016082378E+04  0.22016082378E+04  0.00000000000E+00 0. -1.
         -2   -1    0    0    0  501 -0.00000000000E+00 -0.00000000000E+00 -0.16381279444E+04  0.16381279444E+04  0.00000000000E+00 0.  1.
         23    2    1    2    0    0  0.16477788138E+04 -0.86076936035E+03 -0.10455520777E+03  0.18642943730E+04  0.92535435931E+02 0.  0.
         11    1    3    3    0    0  0.13997979395E+04 -0.74172727100E+03 -0.57408671800E+02  0.15852095671E+04  0.00000000000E+00 0. -1.
        -11    1    3    3    0    0  0.24798087422E+03 -0.11904208935E+03 -0.47146535966E+02  0.27908480588E+03  0.00000000000E+00 0.  1.
         22    1    1    2    0    0 -0.16477788138E+04  0.86076936035E+03  0.66803550116E+03  0.19754418092E+04  0.00000000000E+00 0. -1.
<mgrwt>
<rscale>  0 0.37981659E+04</rscale>
<asrwt>0</asrwt>
<pdfrwt beam="1">  1        2 0.33870896E+00 0.37981659E+04</pdfrwt>
<pdfrwt beam="2">  1       -2 0.25201968E+00 0.37981659E+04</pdfrwt>
<totfact> 0.25808388E-01</totfact>
</mgrwt>
</event>
<event>
 6    1  0.9906445E-006  0.2672607E+04  0.7818608E-02  0.8343948E-01
         -1   -1    0    0    0  501 -0.00000000000E+00  0.00000000000E+00  0.47497747987E+03  0.47497747987E+03  0.00000000000E+00 0.  1.
          1   -1    0    0  501    0  0.00000000000E+00 -0.00000000000E+00 -0.37595628449E+04  0.37595628449E+04  0.00000000000E+00 0. -1.
         23    2    1    2    0    0  0.77356748801E+03  0.16237352565E+03  0.59983400630E+02  0.79783957426E+03  0.90433166293E+02 0.  0.
         11    1    3    3    0    0  0.54187784446E+03  0.84013736540E+02  0.71459064945E+02  0.55298852086E+03  0.00000000000E+00 0. -1.
        -11    1    3    3    0    0  0.23168964355E+03  0.78359789113E+02 -0.11475664314E+02  0.24485105340E+03  0.00000000000E+00 0.  1.
         22    1    1    2    0    0 -0.77356748801E+03 -0.16237352565E+03 -0.33445687657E+04  0.34367007505E+04  0.00000000000E+00 0. -1.
<mgrwt>
<rscale>  0 0.26726075E+04</rscale>
<asrwt>0</asrwt>
<pdfrwt beam="1">  1        1 0.57839432E+00 0.26726075E+04</pdfrwt>
<pdfrwt beam="2">  1       -1 0.73073454E-01 0.26726075E+04</pdfrwt>
<totfact> 0.25466601E-01</totfact>
</mgrwt>
</event>
<event>
 6    1  0.9906445E-006  0.1335733E+04  0.7818608E-02  0.9001699E-01
          1   -1    0    0  501    0  0.00000000000E+00  0.00000000000E+00  0.16079832979E+04  0.16079832979E+04  0.00000000000E+00 0. -1.
         -1   -1    0    0    0  501 -0.00000000000E+00 -0.00000000000E+00 -0.27739448646E+03  0.27739448646E+03  0.00000000000E+00 0.  1.
         23    2    1    2    0    0  0.51007933455E+03 -0.21780172668E+03  0.15145891297E+03  0.58231760265E+03  0.92387598519E+02 0.  0.
         13    1    3    3    0    0  0.15100966946E+03 -0.10318655620E+03  0.75246450273E+02  0.19777111500E+03  0.00000000000E+00 0.  1.
        -13    1    3    3    0    0  0.35906966510E+03 -0.11461517048E+03  0.76212462694E+02  0.38454648766E+03  0.00000000000E+00 0. -1.
         22    1    1    2    0    0 -0.51007933455E+03  0.21780172668E+03  0.11791298985E+04  0.13030601817E+04  0.00000000000E+00 0. -1.
<mgrwt>
<rscale>  0 0.13357331E+04</rscale>
<asrwt>0</asrwt>
<pdfrwt beam="1">  1        1 0.24738204E+00 0.13357331E+04</pdfrwt>
<pdfrwt beam="2">  1       -1 0.42676076E-01 0.13357331E+04</pdfrwt>
<totfact> 0.29186286E+01</totfact>
</mgrwt>
</event>
<event>
 6    1  0.9906445E-006  0.2246140E+04  0.7818608E-02  0.8499465E-01
         -2   -1    0    0    0  501 -0.00000000000E+00  0.00000000000E+00  0.10550625260E+04  0.10550625260E+04  0.00000000000E+00 0.  1.
          2   -1    0    0  501    0  0.00000000000E+00 -0.00000000000E+00 -0.11954609414E+04  0.11954609414E+04  0.00000000000E+00 0. -1.
         23    2    1    2    0    0 -0.95431108220E+03 -0.56980333650E+03  0.76978096938E+02  0.11179873611E+04  0.92653268689E+02 0.  0.
         13    1    3    3    0    0 -0.40169251040E+03 -0.24569538224E+03 -0.12968262531E+02  0.47105336173E+03  0.00000000000E+00 0.  1.
        -13    1    3    3    0    0 -0.55261857180E+03 -0.32410795426E+03  0.89946359470E+02  0.64693399933E+03  0.00000000000E+00 0. -1.
         22    1    1    2    0    0  0.95431108220E+03  0.56980333650E+03 -0.21737651234E+03  0.11325361063E+04  0.00000000000E+00 0. -1.
<mgrwt>
<rscale>  0 0.22461398E+04</rscale>
<asrwt>0</asrwt>
<pdfrwt beam="1">  1        2 0.18391707E+00 0.22461398E+04</pdfrwt>
<pdfrwt beam="2">  1       -2 0.16231731E+00 0.22461398E+04</pdfrwt>
<totfact> 0.42035231E+00</totfact>
</mgrwt>
</event>
<event>
 6    1  0.1247086E-005  0.3274054E+04  0.7818608E-02  0.8169529E-01
          1   -1    0    0  501    0  0.00000000000E+00  0.00000000000E+00  0.17426515961E+04  0.17426515961E+04  0.00000000000E+00 0. -1.
         -1   -1    0    0    0  501 -0.00000000000E+00 -0.00000000000E+00 -0.15378043266E+04  0.15378043266E+04  0.00000000000E+00 0.  1.
         23    2    1    2    0    0 -0.20549637102E+03  0.15842067759E+04 -0.24996546383E+03  0.16194940057E+04  0.91313931121E+02 0.  0.
         11    1    3    3    0    0 -0.78078526480E+02  0.56869303719E+03 -0.13407173203E+03  0.58947710403E+03  0.00000000000E+00 0.  1.
        -11    1    3    3    0    0 -0.12741784454E+03  0.10155137387E+04 -0.11589373180E+03  0.10300169017E+04  0.00000000000E+00 0. -1.
         22    1    1    2    0    0  0.20549637102E+03 -0.15842067759E+04  0.45481273334E+03  0.16609619170E+04  0.00000000000E+00 0. -1.
<mgrwt>
<rscale>  0 0.32740539E+04</rscale>
<asrwt>0</asrwt>
<pdfrwt beam="1">  1        1 0.26810025E+00 0.32740539E+04</pdfrwt>
<pdfrwt beam="2">  1       -1 0.23658528E+00 0.32740539E+04</pdfrwt>
<totfact> 0.31642853E-01</totfact>
</mgrwt>
</event>
<event>
 6    1  0.9906445E-006  0.1384425E+04  0.7818608E-02  0.8965170E-01
          1   -1    0    0  501    0  0.00000000000E+00  0.00000000000E+00  0.10124032893E+04  0.10124032893E+04  0.00000000000E+00 0. -1.
         -1   -1    0    0    0  501 -0.00000000000E+00 -0.00000000000E+00 -0.47328764672E+03  0.47328764672E+03  0.00000000000E+00 0.  1.
         23    2    1    2    0    0 -0.51911299522E+03 -0.43704985350E+03  0.14195761197E+03  0.69941784254E+03  0.92425530085E+02 0.  0.
         13    1    3    3    0    0 -0.93036104866E+02 -0.11620740596E+03  0.59435626786E+01  0.14898054889E+03  0.00000000000E+00 0. -1.
        -13    1    3    3    0    0 -0.42607689036E+03 -0.32084244753E+03  0.13601404929E+03  0.55043729365E+03  0.00000000000E+00 0.  1.
         22    1    1    2    0    0  0.51911299522E+03  0.43704985350E+03  0.39715803061E+03  0.78627309348E+03  0.00000000000E+00 0. -1.
<mgrwt>
<rscale>  0 0.13844247E+04</rscale>
<asrwt>0</asrwt>
<pdfrwt beam="1">  1        1 0.15575435E+00 0.13844247E+04</pdfrwt>
<pdfrwt beam="2">  1       -1 0.72813484E-01 0.13844247E+04</pdfrwt>
<totfact> 0.27477527E+01</totfact>
</mgrwt>
</event>
<event>
 6    1  0.9906445E-006  0.1923566E+04  0.7818608E-02  0.8643214E-01
          1   -1    0    0  501    0  0.00000000000E+00  0.00000000000E+00  0.91236196397E+03  0.91236196397E+03  0.00000000000E+00 0. -1.
         -1   -1    0    0    0  501 -0.00000000000E+00 -0.00000000000E+00 -0.10138809083E+04  0.10138809083E+04  0.00000000000E+00 0.  1.
         23    2    1    2    0    0 -0.66449555767E+03 -0.12164686258E+03  0.63171663196E+03  0.92925404804E+03  0.89971536473E+02 0.  0.
         13    1    3    3    0    0 -0.33772062877E+03 -0.10327277604E+03  0.35364834223E+03  0.49978759422E+03  0.00000000000E+00 0. -1.
        -13    1    3    3    0    0 -0.32677492890E+03 -0.18374086543E+02  0.27806828973E+03  0.42946645383E+03  0.00000000000E+00 0.  1.
         22    1    1    2    0    0  0.66449555767E+03  0.12164686258E+03 -0.73323557633E+03  0.99698882428E+03  0.00000000000E+00 0.  1.
<mgrwt>
<rscale>  0 0.19235658E+04</rscale>
<asrwt>0</asrwt>
<pdfrwt beam="1">  1        1 0.14036338E+00 0.19235658E+04</pdfrwt>
<pdfrwt beam="2">  1       -1 0.15598168E+00 0.19235658E+04</pdfrwt>
<totfact> 0.52063287E+00</totfact>
</mgrwt>
</event>
<event>
 6    1  0.9906445E-006  0.4886548E+04  0.7818608E-02  0.7846251E-01
          2   -1    0    0  501    0  0.00000000000E+00  0.00000000000E+00  0.32678331113E+04  0.32678331113E+04  0.00000000000E+00 0. -1.
         -2   -1    0    0    0  501 -0.00000000000E+00 -0.00000000000E+00 -0.18267721858E+04  0.18267721858E+04  0.00000000000E+00 0.  1.
         23    2    1    2    0    0  0.18634644295E+04 -0.34888772921E+03  0.23261384047E+04  0.30023375151E+04  0.94278041332E+02 0.  0.
         13    1    3    3    0    0  0.89750990742E+03 -0.12349401551E+03  0.10829961748E+04  0.14119686684E+04  0.00000000000E+00 0.  1.
        -13    1    3    3    0    0  0.96595452211E+03 -0.22539371370E+03  0.12431422298E+04  0.15903688467E+04  0.00000000000E+00 0. -1.
         22    1    1    2    0    0 -0.18634644295E+04  0.34888772921E+03 -0.88507747913E+03  0.20922677820E+04  0.00000000000E+00 0.  1.
<mgrwt>
<rscale>  0 0.48865475E+04</rscale>
<asrwt>0</asrwt>
<pdfrwt beam="1">  1        2 0.50274356E+00 0.48865475E+04</pdfrwt>
<pdfrwt beam="2">  1       -2 0.28104187E+00 0.48865475E+04</pdfrwt>
<totfact> 0.35631412E-02</totfact>
</mgrwt>
</event>
<event>
 6    1  0.9906445E-006  0.3747069E+04  0.7818608E-02  0.8057610E-01
          2   -1    0    0  501    0  0.00000000000E+00  0.00000000000E+00  0.23149595755E+04  0.23149595755E+04  0.00000000000E+00 0. -1.
         -2   -1    0    0    0  501 -0.00000000000E+00 -0.00000000000E+00 -0.15162818944E+04  0.15162818944E+04  0.00000000000E+00 0.  1.
         23    2    1    2    0    0 -0.87764016926E+02 -0.10795151968E+04 -0.11621732232E+04  0.15911540047E+04  0.89826960951E+02 0.  0.
         13    1    3    3    0    0 -0.36529143042E+02 -0.87932969861E+03 -0.93408536382E+03  0.12833824699E+04  0.00000000000E+00 0. -1.
        -13    1    3    3    0    0 -0.51234873884E+02 -0.20018549820E+03 -0.22808785941E+03  0.30777153475E+03  0.00000000000E+00 0.  1.
         22    1    1    2    0    0  0.87764016926E+02  0.10795151968E+04  0.19608509043E+04  0.22400874652E+04  0.00000000000E+00 0. -1.
<mgrwt>
<rscale>  0 0.37470689E+04</rscale>
<asrwt>0</asrwt>
<pdfrwt beam="1">  1        2 0.35614763E+00 0.37470689E+04</pdfrwt>
<pdfrwt beam="2">  1       -2 0.23327414E+00 0.37470689E+04</pdfrwt>
<totfact> 0.29201571E-01</totfact>
</mgrwt>
</event>
<event>
 6    1  0.9906445E-006  0.1441283E+04  0.7818608E-02  0.8924466E-01
          1   -1    0    0  501    0  0.00000000000E+00  0.00000000000E+00  0.11755331854E+04  0.11755331854E+04  0.00000000000E+00 0. -1.
         -1   -1    0    0    0  501 -0.00000000000E+00 -0.00000000000E+00 -0.44177775344E+03  0.44177775344E+03  0.00000000000E+00 0.  1.
         23    2    1    2    0    0  0.36354955238E+03 -0.50462957776E+03 -0.33924451731E+02  0.62930704634E+03  0.89761920432E+02 0.  0.
         13    1    3    3    0    0  0.53184344012E+02 -0.79187705725E+02  0.27098454748E+02  0.99164476682E+02  0.00000000000E+00 0. -1.
        -13    1    3    3    0    0  0.31036520837E+03 -0.42544187203E+03 -0.61022906479E+02  0.53014256965E+03  0.00000000000E+00 0.  1.
         22    1    1    2    0    0 -0.36354955238E+03  0.50462957776E+03  0.76767988369E+03  0.98800389251E+03  0.00000000000E+00 0. -1.
<mgrwt>
<rscale>  0 0.14412833E+04</rscale>
<asrwt>0</asrwt>
<pdfrwt beam="1">  1        1 0.18085126E+00 0.14412833E+04</pdfrwt>
<pdfrwt beam="2">  1       -1 0.67965809E-01 0.14412833E+04</pdfrwt>
<totfact> 0.23725869E+01</totfact>
</mgrwt>
</event>
<event>
 6    1  0.9906445E-006  0.1940204E+04  0.7818608E-02  0.8635099E-01
          1   -1    0    0  501    0  0.00000000000E+00  0.00000000000E+00  0.15882098551E+04  0.15882098551E+04  0.00000000000E+00 0. -1.
         -1   -1    0    0    0  501 -0.00000000000E+00 -0.00000000000E+00 -0.59255291205E+03  0.59255291205E+03  0.00000000000E+00 0.  1.
         23    2    1    2    0    0 -0.66151117535E+03 -0.21837892353E+02  0.12927164579E+04  0.14552847977E+04  0.93081003844E+02 0.  0.
         13    1    3    3    0    0 -0.25783251108E+03 -0.45368408349E+02  0.45096038948E+03  0.52144143403E+03  0.00000000000E+00 0.  1.
        -13    1    3    3    0    0 -0.40367866427E+03  0.23530515996E+02  0.84175606844E+03  0.93384336370E+03  0.00000000000E+00 0. -1.
         22    1    1    2    0    0  0.66151117535E+03  0.21837892353E+02 -0.29705951491E+03  0.72547796938E+03  0.00000000000E+00 0.  1.
<mgrwt>
<rscale>  0 0.19402045E+04</rscale>
<asrwt>0</asrwt>
<pdfrwt beam="1">  1        1 0.24433998E+00 0.19402045E+04</pdfrwt>
<pdfrwt beam="2">  1       -1 0.91161987E-01 0.19402045E+04</pdfrwt>
<totfact> 0.62235150E+00</totfact>
</mgrwt>
</event>
<event>
 6    1  0.9906445E-006  0.4543046E+04  0.7818608E-02  0.7903144E-01
         -2   -1    0    0    0  501 -0.00000000000E+00  0.00000000000E+00  0.22707500579E+04  0.22707500579E+04  0.00000000000E+00 0. -1.
          2   -1    0    0  501    0  0.00000000000E+00 -0.00000000000E+00 -0.22722963546E+04  0.22722963546E+04  0.00000000000E+00 0.  1.
         23    2    1    2    0    0  0.70320804738E+03 -0.17337091633E+04 -0.12873856574E+04  0.22728852106E+04  0.91631482842E+02 0.  0.
         13    1    3    3    0    0  0.57741734256E+03 -0.13784091675E+04 -0.98780588038E+03  0.17914192915E+04  0.00000000000E+00 0.  1.
        -13    1    3    3    0    0  0.12579070482E+03 -0.35529999583E+03 -0.29957977707E+03  0.48146591913E+03  0.00000000000E+00 0. -1.
         22    1    1    2    0    0 -0.70320804738E+03  0.17337091633E+04  0.12858393608E+04  0.22701612019E+04  0.00000000000E+00 0. -1.
<mgrwt>
<rscale>  0 0.45430461E+04</rscale>
<asrwt>0</asrwt>
<pdfrwt beam="1">  1        2 0.34958405E+00 0.45430461E+04</pdfrwt>
<pdfrwt beam="2">  1       -2 0.34934616E+00 0.45430461E+04</pdfrwt>
<totfact> 0.55747780E-02</totfact>
</mgrwt>
</event>
<event>
 6    1  0.9906445E-006  0.6137928E+04  0.7818608E-02  0.7673532E-01
          2   -1    0    0  501    0  0.00000000000E+00  0.00000000000E+00  0.33416385530E+04  0.33416385530E+04  0.00000000000E+00 0. -1.
         -2   -1    0    0    0  501 -0.00000000000E+00 -0.00000000000E+00 -0.28185395879E+04  0.28185395879E+04  0.00000000000E+00 0.  1.
         23    2    1    2    0    0 -0.10829696585E+03  0.28958061701E+04  0.12737548981E+04  0.31667009090E+04  0.90119359612E+02 0.  0.
         11    1    3    3    0    0 -0.77411499840E+02  0.99487164029E+03  0.45461839011E+03  0.10965582527E+04  0.00000000000E+00 0. -1.
        -11    1    3    3    0    0 -0.30885466007E+02  0.19009345299E+04  0.81913650798E+03  0.20701426563E+04  0.00000000000E+00 0.  1.
         22    1    1    2    0    0  0.10829696585E+03 -0.28958061701E+04 -0.75065593302E+03  0.29934772319E+04  0.00000000000E+00 0. -1.
<mgrwt>
<rscale>  0 0.61379282E+04</rscale>
<asrwt>0</asrwt>
<pdfrwt beam="1">  1        2 0.51409824E+00 0.61379282E+04</pdfrwt>
<pdfrwt beam="2">  1       -2 0.43362148E+00 0.61379282E+04</pdfrwt>
<totfact> 0.31054938E-03</totfact>
</mgrwt>
</event>
<event>
 6    1  0.9906445E-006  0.5035484E+04  0.7818608E-02  0.7823057E-01
         -2   -1    0    0    0  501 -0.00000000000E+00  0.00000000000E+00  0.15894107452E+04  0.15894107452E+04  0.00000000000E+00 0.  1.
          2   -1    0    0  501    0  0.00000000000E+00 -0.00000000000E+00 -0.39882858348E+04  0.39882858348E+04  0.00000000000E+00 0. -1.
         23    2    1    2    0    0 -0.16044142192E+04  0.72944112891E+03  0.79022582946E+03  0.19339904970E+04  0.98148018048E+02 0.  0.
         11    1    3    3    0    0 -0.47762952532E+03  0.26089617823E+03  0.22012229007E+03  0.58706950342E+03  0.00000000000E+00 0.  1.
        -11    1    3    3    0    0 -0.11267846939E+04  0.46854495068E+03  0.57010353939E+03  0.13469209935E+04  0.00000000000E+00 0. -1.
         22    1    1    2    0    0  0.16044142192E+04 -0.72944112891E+03 -0.31891009191E+04  0.36437060830E+04  0.00000000000E+00 0. -1.
<mgrwt>
<rscale>  0 0.50354838E+04</rscale>
<asrwt>0</asrwt>
<pdfrwt beam="1">  1        2 0.61358243E+00 0.50354838E+04</pdfrwt>
<pdfrwt beam="2">  1       -2 0.24452473E+00 0.50354838E+04</pdfrwt>
<totfact> 0.17550089E-02</totfact>
</mgrwt>
</event>
<event>
 6    1  0.9906445E-006  0.2591298E+04  0.7818608E-02  0.8371163E-01
          2   -1    0    0  501    0  0.00000000000E+00  0.00000000000E+00  0.16148898465E+04  0.16148898465E+04  0.00000000000E+00 0.  1.
         -2   -1    0    0    0  501 -0.00000000000E+00 -0.00000000000E+00 -0.10395178276E+04  0.10395178276E+04  0.00000000000E+00 0. -1.
         23    2    1    2    0    0 -0.11115352151E+04  0.11930185843E+03 -0.37956894282E+03  0.11841506529E+04  0.91633611183E+02 0.  0.
         11    1    3    3    0    0 -0.13665077321E+03 -0.98780672108E+00 -0.74210840011E+02  0.15550452841E+03  0.00000000000E+00 0. -1.
        -11    1    3    3    0    0 -0.97488444186E+03  0.12028966516E+03 -0.30535810281E+03  0.10286461245E+04  0.00000000000E+00 0.  1.
         22    1    1    2    0    0  0.11115352151E+04 -0.11930185843E+03  0.95494096171E+03  0.14702570211E+04  0.00000000000E+00 0.  1.
<mgrwt>
<rscale>  0 0.25912984E+04</rscale>
<asrwt>0</asrwt>
<pdfrwt beam="1">  1        2 0.24844459E+00 0.25912984E+04</pdfrwt>
<pdfrwt beam="2">  1       -2 0.15992582E+00 0.25912984E+04</pdfrwt>
<totfact> 0.24428208E+00</totfact>
</mgrwt>
</event>
<event>
 6    1  0.9906445E-006  0.1425394E+04  0.7818608E-02  0.8935640E-01
          1   -1    0    0  501    0  0.00000000000E+00  0.00000000000E+00  0.14952871473E+04  0.14952871473E+04  0.00000000000E+00 0. -1.
         -1   -1    0    0    0  501 -0.00000000000E+00 -0.00000000000E+00 -0.33969173716E+03  0.33969173716E+03  0.00000000000E+00 0.  1.
         23    2    1    2    0    0  0.54453539046E+03 -0.44329155639E+03  0.44585146844E+03  0.83659886753E+03  0.89932962912E+02 0.  0.
         13    1    3    3    0    0  0.37098089864E+03 -0.24967130015E+03  0.26382686685E+03  0.51919861416E+03  0.00000000000E+00 0. -1.
        -13    1    3    3    0    0  0.17355449182E+03 -0.19362025624E+03  0.18202460159E+03  0.31740025337E+03  0.00000000000E+00 0.  1.
         22    1    1    2    0    0 -0.54453539046E+03  0.44329155639E+03  0.70974394172E+03  0.99838001695E+03  0.00000000000E+00 0. -1.
<mgrwt>
<rscale>  0 0.14253935E+04</rscale>
<asrwt>0</asrwt>
<pdfrwt beam="1">  1        1 0.23004417E+00 0.14253935E+04</pdfrwt>
<pdfrwt beam="2">  1       -1 0.52260268E-01 0.14253935E+04</pdfrwt>
<totfact> 0.23653063E+01</totfact>
</mgrwt>
</event>
<event>
 6    1  0.9906445E-006  0.3503387E+04  0.7818608E-02  0.8112988E-01
          2   -1    0    0  501    0  0.00000000000E+00  0.00000000000E+00  0.13866472677E+04  0.13866472677E+04  0.00000000000E+00 0.  1.
         -2   -1    0    0    0  501 -0.00000000000E+00 -0.00000000000E+00 -0.22128405926E+04  0.22128405926E+04  0.00000000000E+00 0. -1.
         23    2    1    2    0    0 -0.13481993503E+04 -0.11606340812E+03  0.72764552734E+03  0.15390201023E+04  0.89457582580E+02 0.  0.
         13    1    3    3    0    0 -0.99840129712E+03 -0.96788772717E+02  0.49581947941E+03  0.11189326042E+04  0.00000000000E+00 0.  1.
        -13    1    3    3    0    0 -0.34979805319E+03 -0.19274635402E+02  0.23182604793E+03  0.42008749813E+03  0.00000000000E+00 0. -1.
         22    1    1    2    0    0  0.13481993503E+04  0.11606340812E+03 -0.15538388522E+04  0.20604677579E+04  0.00000000000E+00 0. -1.
<mgrwt>
<rscale>  0 0.35033866E+04</rscale>
<asrwt>0</asrwt>
<pdfrwt beam="1">  1        2 0.21333035E+00 0.35033866E+04</pdfrwt>
<pdfrwt beam="2">  1       -2 0.34043702E+00 0.35033866E+04</pdfrwt>
<totfact> 0.21610666E-01</totfact>
</mgrwt>
</event>
<event>
 6    1  0.9906445E-006  0.1374701E+04  0.7818608E-02  0.8972338E-01
         -1   -1    0    0    0  501 -0.00000000000E+00  0.00000000000E+00  0.30326547172E+03  0.30326547172E+03  0.00000000000E+00 0.  1.
          1   -1    0    0  501    0  0.00000000000E+00 -0.00000000000E+00 -0.15578772125E+04  0.15578772125E+04  0.00000000000E+00 0. -1.
         23    2    1    2    0    0 -0.40506274373E+03  0.51096346899E+03 -0.34885017693E+03  0.74509452060E+03  0.91158684105E+02 0.  0.
         11    1    3    3    0    0 -0.18755370098E+03  0.27772491526E+03 -0.22138243531E+03  0.40164375007E+03  0.00000000000E+00 0. -1.
        -11    1    3    3    0    0 -0.21750904275E+03  0.23323855373E+03 -0.12746774161E+03  0.34345077053E+03  0.00000000000E+00 0.  1.
         22    1    1    2    0    0  0.40506274373E+03 -0.51096346899E+03 -0.90576156387E+03  0.11160481636E+04  0.00000000000E+00 0. -1.
<mgrwt>
<rscale>  0 0.13747005E+04</rscale>
<asrwt>0</asrwt>
<pdfrwt beam="1">  1        1 0.23967341E+00 0.13747005E+04</pdfrwt>
<pdfrwt beam="2">  1       -1 0.46656227E-01 0.13747005E+04</pdfrwt>
<totfact> 0.26670117E+01</totfact>
</mgrwt>
</event>
<event>
 6    1  0.9906445E-006  0.5787603E+03  0.7818608E-02  0.9950479E-01
          2   -1    0    0  501    0  0.00000000000E+00  0.00000000000E+00  0.14134994790E+04  0.14134994790E+04  0.00000000000E+00 0.  1.
         -2   -1    0    0    0  501 -0.00000000000E+00 -0.00000000000E+00 -0.59243647831E+02  0.59243647831E+02  0.00000000000E+00 0. -1.
         23    2    1    2    0    0 -0.27486236169E+02  0.38118851065E+02  0.14019633081E+04  0.14057763936E+04  0.92182490398E+02 0.  0.
         11    1    3    3    0    0  0.32831412784E+02  0.14227404101E+02  0.66541244246E+03  0.66637379846E+03  0.00000000000E+00 0. -1.
        -11    1    3    3    0    0 -0.60317648953E+02  0.23891446964E+02  0.73655086568E+03  0.73940259518E+03  0.00000000000E+00 0.  1.
         22    1    1    2    0    0  0.27486236169E+02 -0.38118851065E+02 -0.47707477020E+02  0.66966733151E+02  0.00000000000E+00 0. -1.
<mgrwt>
<rscale>  0 0.57876028E+03</rscale>
<asrwt>0</asrwt>
<pdfrwt beam="1">  1        2 0.21746143E+00 0.57876028E+03</pdfrwt>
<pdfrwt beam="2">  1       -2 0.91144084E-02 0.57876028E+03</pdfrwt>
<totfact> 0.11533313E+03</totfact>
</mgrwt>
</event>
<event>
 6    1  0.9906445E-006  0.3754990E+04  0.7818608E-02  0.8055883E-01
         -2   -1    0    0    0  501 -0.00000000000E+00  0.00000000000E+00  0.11319354028E+04  0.11319354028E+04  0.00000000000E+00 0.  1.
          2   -1    0    0  501    0  0.00000000000E+00 -0.00000000000E+00 -0.31141246331E+04  0.31141246331E+04  0.00000000000E+00 0. -1.
         23    2    1    2    0    0 -0.15890966098E+04  0.88788202132E+03 -0.15063988102E+04  0.23645874629E+04  0.92054197111E+02 0.  0.
         11    1    3    3    0    0 -0.14942714041E+04  0.85867112680E+03 -0.14258617168E+04  0.22367934121E+04  0.00000000000E+00 0. -1.
        -11    1    3    3    0    0 -0.94825205737E+02  0.29210894517E+02 -0.80537093445E+02  0.12779405081E+03  0.00000000000E+00 0.  1.
         22    1    1    2    0    0  0.15890966098E+04 -0.88788202132E+03 -0.47579042007E+03  0.18814725730E+04  0.00000000000E+00 0.  1.
<mgrwt>
<rscale>  0 0.37549902E+04</rscale>
<asrwt>0</asrwt>
<pdfrwt beam="1">  1        2 0.47909609E+00 0.37549902E+04</pdfrwt>
<pdfrwt beam="2">  1       -2 0.17414391E+00 0.37549902E+04</pdfrwt>
<totfact> 0.23609177E-01</totfact>
</mgrwt>
</event>
<event>
 6    1  0.9906445E-006  0.1660235E+04  0.7818608E-02  0.8784375E-01
         -1   -1    0    0    0  501 -0.00000000000E+00  0.00000000000E+00  0.82935891954E+03  0.82935891954E+03  0.00000000000E+00 0.  1.
          1   -1    0    0  501    0  0.00000000000E+00 -0.00000000000E+00 -0.83087657286E+03  0.83087657286E+03  0.00000000000E+00 0. -1.
         23    2    1    2    0    0  0.20892827593E+03 -0.72704637747E+03  0.33497639079E+03  0.83230089281E+03  0.90929281984E+02 0.  0.
         11    1    3    3    0    0  0.16787668508E+02 -0.14689807604E+03  0.94950067548E+02  0.17571677747E+03  0.00000000000E+00 0.  1.
        -11    1    3    3    0    0  0.19214060742E+03 -0.58014830143E+03  0.24002632324E+03  0.65658411534E+03  0.00000000000E+00 0. -1.
         22    1    1    2    0    0 -0.20892827593E+03  0.72704637747E+03 -0.33649404411E+03  0.82793459959E+03  0.00000000000E+00 0. -1.
<mgrwt>
<rscale>  0 0.16602348E+04</rscale>
<asrwt>0</asrwt>
<pdfrwt beam="1">  1        1 0.12782716E+00 0.16602348E+04</pdfrwt>
<pdfrwt beam="2">  1       -1 0.12759368E+00 0.16602348E+04</pdfrwt>
<totfact> 0.10555260E+01</totfact>
</mgrwt>
</event>
<event>
 6    1  0.9906445E-006  0.2839677E+04  0.7818608E-02  0.8291055E-01
          2   -1    0    0  501    0  0.00000000000E+00  0.00000000000E+00  0.20218222082E+04  0.20218222082E+04  0.00000000000E+00 0. -1.
         -2   -1    0    0    0  501 -0.00000000000E+00 -0.00000000000E+00 -0.99709139667E+03  0.99709139667E+03  0.00000000000E+00 0.  1.
         23    2    1    2    0    0 -0.12479966489E+04 -0.56769680359E+03  0.89936151055E+03  0.16421446489E+04  0.89513266570E+02 0.  0.
         13    1    3    3    0    0 -0.18925114510E+03 -0.67837313935E+02  0.16502616294E+03  0.26009908024E+03  0.00000000000E+00 0. -1.
        -13    1    3    3    0    0 -0.10587455038E+04 -0.49985948966E+03  0.73433534760E+03  0.13820455687E+04  0.00000000000E+00 0.  1.
         22    1    1    2    0    0  0.12479966489E+04  0.56769680359E+03  0.12536930100E+03  0.13767689560E+04  0.00000000000E+00 0.  1.
<mgrwt>
<rscale>  0 0.28396771E+04</rscale>
<asrwt>0</asrwt>
<pdfrwt beam="1">  1        2 0.31104957E+00 0.28396771E+04</pdfrwt>
<pdfrwt beam="2">  1       -2 0.15339868E+00 0.28396771E+04</pdfrwt>
<totfact> 0.15906512E+00</totfact>
</mgrwt>
</event>
<event>
 6    1  0.9906445E-006  0.3791392E+04  0.7818608E-02  0.8048005E-01
          1   -1    0    0  501    0  0.00000000000E+00  0.00000000000E+00  0.30444694270E+04  0.30444694270E+04  0.00000000000E+00 0. -1.
         -1   -1    0    0    0  501 -0.00000000000E+00 -0.00000000000E+00 -0.11803906809E+04  0.11803906809E+04  0.00000000000E+00 0.  1.
         23    2    1    2    0    0 -0.42054256568E+03 -0.43627326730E+03  0.29328726179E+04  0.29962386227E+04  0.92269593137E+02 0.  0.
         11    1    3    3    0    0 -0.28041385786E+03 -0.22632229523E+03  0.16892855557E+04  0.17272925061E+04  0.00000000000E+00 0.  1.
        -11    1    3    3    0    0 -0.14012870782E+03 -0.20995097207E+03  0.12435870622E+04  0.12689461166E+04  0.00000000000E+00 0. -1.
         22    1    1    2    0    0  0.42054256568E+03  0.43627326730E+03 -0.10687938719E+04  0.12286214852E+04  0.00000000000E+00 0.  1.
<mgrwt>
<rscale>  0 0.37913920E+04</rscale>
<asrwt>0</asrwt>
<pdfrwt beam="1">  1        1 0.46837991E+00 0.37913920E+04</pdfrwt>
<pdfrwt beam="2">  1       -1 0.18159857E+00 0.37913920E+04</pdfrwt>
<totfact> 0.89434706E-02</totfact>
</mgrwt>
</event>
<event>
 6    1  0.9906445E-006  0.2070476E+04  0.7818608E-02  0.8574362E-01
         -2   -1    0    0    0  501 -0.00000000000E+00  0.00000000000E+00  0.25793920859E+03  0.25793920859E+03  0.00000000000E+00 0.  1.
          2   -1    0    0  501    0  0.00000000000E+00 -0.00000000000E+00 -0.41549222370E+04  0.41549222370E+04  0.00000000000E+00 0. -1.
         23    2    1    2    0    0 -0.93111760671E+03 -0.44666493579E+03 -0.19317288926E+04  0.21927908654E+04  0.10131980461E+03 0.  0.
         13    1    3    3    0    0 -0.31982968577E+03 -0.14404063428E+03 -0.55903188066E+03  0.65996619294E+03  0.00000000000E+00 0.  1.
        -13    1    3    3    0    0 -0.61128792094E+03 -0.30262430150E+03 -0.13726970119E+04  0.15328246725E+04  0.00000000000E+00 0. -1.
         22    1    1    2    0    0  0.93111760671E+03  0.44666493579E+03 -0.19652541358E+04  0.22200705801E+04  0.00000000000E+00 0. -1.
<mgrwt>
<rscale>  0 0.20704756E+04</rscale>
<asrwt>0</asrwt>
<pdfrwt beam="1">  1        2 0.63921872E+00 0.20704756E+04</pdfrwt>
<pdfrwt beam="2">  1       -2 0.39682960E-01 0.20704756E+04</pdfrwt>
<totfact> 0.14265253E+00</totfact>
</mgrwt>
</event>
<event>
 6    1  0.9906445E-006  0.2245947E+04  0.7818608E-02  0.8499543E-01
         -1   -1    0    0    0  501 -0.00000000000E+00  0.00000000000E+00  0.37026338573E+03  0.37026338573E+03  0.00000000000E+00 0.  1.
          1   -1    0    0  501    0  0.00000000000E+00 -0.00000000000E+00 -0.34058728500E+04  0.34058728500E+04  0.00000000000E+00 0. -1.
         23    2    1    2    0    0  0.50569277409E+03 -0.98065817624E+03 -0.11850438831E+04  0.16216041263E+04  0.88630114410E+02 0.  0.
         13    1    3    3    0    0  0.26078982353E+03 -0.43709453773E+03 -0.50047918842E+03  0.71382237638E+03  0.00000000000E+00 0. -1.
        -13    1    3    3    0    0  0.24490295056E+03 -0.54356363851E+03 -0.68456469471E+03  0.90778174995E+03  0.00000000000E+00 0.  1.
         22    1    1    2    0    0 -0.50569277409E+03  0.98065817624E+03 -0.18505655811E+04  0.21545321094E+04  0.00000000000E+00 0. -1.
<mgrwt>
<rscale>  0 0.22459475E+04</rscale>
<asrwt>0</asrwt>
<pdfrwt beam="1">  1        1 0.52398044E+00 0.22459475E+04</pdfrwt>
<pdfrwt beam="2">  1       -1 0.56963598E-01 0.22459475E+04</pdfrwt>
<totfact> 0.84057020E-01</totfact>
</mgrwt>
</event>
<event>
 6    1  0.9906445E-006  0.8258012E+03  0.7818608E-02  0.9523404E-01
         -1   -1    0    0    0  501 -0.00000000000E+00  0.00000000000E+00  0.18896322594E+03  0.18896322594E+03  0.00000000000E+00 0.  1.
          1   -1    0    0  501    0  0.00000000000E+00 -0.00000000000E+00 -0.90222277343E+03  0.90222277343E+03  0.00000000000E+00 0. -1.
         23    2    1    2    0    0 -0.15449254436E+03 -0.30436055800E+03 -0.66453106728E+02  0.35984348908E+03  0.92563630618E+02 0.  0.
         11    1    3    3    0    0 -0.16209566412E+03 -0.24960529250E+03 -0.47397578285E+02  0.30137076301E+03  0.00000000000E+00 0.  1.
        -11    1    3    3    0    0  0.76031197617E+01 -0.54755265500E+02 -0.19055528443E+02  0.58472726072E+02  0.00000000000E+00 0. -1.
         22    1    1    2    0    0  0.15449254436E+03  0.30436055800E+03 -0.64680644077E+03  0.73134251028E+03  0.00000000000E+00 0. -1.
<mgrwt>
<rscale>  0 0.82580125E+03</rscale>
<asrwt>0</asrwt>
<pdfrwt beam="1">  1        1 0.13880351E+00 0.82580125E+03</pdfrwt>
<pdfrwt beam="2">  1       -1 0.29071265E-01 0.82580125E+03</pdfrwt>
<totfact> 0.19712227E+02</totfact>
</mgrwt>
</event>
<event>
 6    1  0.9906445E-006  0.2847594E+04  0.7818608E-02  0.8288643E-01
          1   -1    0    0  501    0  0.00000000000E+00  0.00000000000E+00  0.14850584544E+04  0.14850584544E+04  0.00000000000E+00 0. -1.
         -1   -1    0    0    0  501 -0.00000000000E+00 -0.00000000000E+00 -0.13650622507E+04  0.13650622507E+04  0.00000000000E+00 0.  1.
         23    2    1    2    0    0  0.52317967940E+03 -0.39115889955E+03  0.13246770088E+04  0.14797272931E+04  0.90007902346E+02 0.  0.
         11    1    3    3    0    0  0.47897790900E+03 -0.37361334530E+03  0.11759262628E+04  0.13235593469E+04  0.00000000000E+00 0.  1.
        -11    1    3    3    0    0  0.44201770396E+02 -0.17545554248E+02  0.14875074600E+03  0.15616794618E+03  0.00000000000E+00 0. -1.
         22    1    1    2    0    0 -0.52317967940E+03  0.39115889955E+03 -0.12046808051E+04  0.13703934121E+04  0.00000000000E+00 0.  1.
<mgrwt>
<rscale>  0 0.28475935E+04</rscale>
<asrwt>0</asrwt>
<pdfrwt beam="1">  1        1 0.22847053E+00 0.28475935E+04</pdfrwt>
<pdfrwt beam="2">  1       -1 0.21000958E+00 0.28475935E+04</pdfrwt>
<totfact> 0.74257417E-01</totfact>
</mgrwt>
</event>
<event>
 6    1  0.9906445E-006  0.2008672E+04  0.7818608E-02  0.8602577E-01
          2   -1    0    0  501    0  0.00000000000E+00  0.00000000000E+00  0.15194409827E+04  0.15194409827E+04  0.00000000000E+00 0. -1.
         -2   -1    0    0    0  501 -0.00000000000E+00 -0.00000000000E+00 -0.66385656184E+03  0.66385656184E+03  0.00000000000E+00 0.  1.
         23    2    1    2    0    0  0.59657674306E+03  0.16829126806E+03  0.12847587396E+04  0.14293636236E+04  0.90827244020E+02 0.  0.
         13    1    3    3    0    0  0.43914226080E+03  0.16465470476E+03  0.95904042532E+03  0.10675746505E+04  0.00000000000E+00 0.  1.
        -13    1    3    3    0    0  0.15743448226E+03  0.36365632975E+01  0.32571831430E+03  0.36178897311E+03  0.00000000000E+00 0. -1.
         22    1    1    2    0    0 -0.59657674306E+03 -0.16829126806E+03 -0.42917431873E+03  0.75393392093E+03  0.00000000000E+00 0.  1.
<mgrwt>
<rscale>  0 0.20086721E+04</rscale>
<asrwt>0</asrwt>
<pdfrwt beam="1">  1        2 0.23376015E+00 0.20086721E+04</pdfrwt>
<pdfrwt beam="2">  1       -2 0.10213178E+00 0.20086721E+04</pdfrwt>
<totfact> 0.90273118E+00</totfact>
</mgrwt>
</event>
<event>
 6    1  0.9906445E-006  0.2043650E+04  0.7818608E-02  0.8586481E-01
         -2   -1    0    0    0  501 -0.00000000000E+00  0.00000000000E+00  0.80375599929E+03  0.80375599929E+03  0.00000000000E+00 0.  1.
          2   -1    0    0  501    0  0.00000000000E+00 -0.00000000000E+00 -0.12990584513E+04  0.12990584513E+04  0.00000000000E+00 0. -1.
         23    2    1    2    0    0 -0.91630764877E+03  0.37802686397E+03 -0.15675259702E+01  0.99543096043E+03  0.91412924440E+02 0.  0.
         11    1    3    3    0    0 -0.90431285671E+02  0.41325567158E+02  0.27244178944E+02  0.10309153804E+03  0.00000000000E+00 0.  1.
        -11    1    3    3    0    0 -0.82587636310E+03  0.33670129682E+03 -0.28811704914E+02  0.89233942239E+03  0.00000000000E+00 0. -1.
         22    1    1    2    0    0  0.91630764877E+03 -0.37802686397E+03 -0.49373492603E+03  0.11073834902E+04  0.00000000000E+00 0. -1.
<mgrwt>
<rscale>  0 0.20436497E+04</rscale>
<asrwt>0</asrwt>
<pdfrwt beam="1">  1        2 0.19985515E+00 0.20436497E+04</pdfrwt>
<pdfrwt beam="2">  1       -2 0.12365477E+00 0.20436497E+04</pdfrwt>
<totfact> 0.75510394E+00</totfact>
</mgrwt>
</event>
<event>
 6    1  0.9906445E-006  0.2651718E+04  0.7818608E-02  0.8350843E-01
         -2   -1    0    0    0  501 -0.00000000000E+00  0.00000000000E+00  0.19711401901E+04  0.19711401901E+04  0.00000000000E+00 0. -1.
          2   -1    0    0  501    0  0.00000000000E+00 -0.00000000000E+00 -0.89181988706E+03  0.89181988706E+03  0.00000000000E+00 0.  1.
         23    2    1    2    0    0  0.77136519850E+03  0.85979607672E+03 -0.15888859981E+03  0.11696157973E+04  0.92206090587E+02 0.  0.
         11    1    3    3    0    0  0.55141256498E+03  0.61364238503E+03 -0.71193679007E+02  0.82805877416E+03  0.00000000000E+00 0. -1.
        -11    1    3    3    0    0  0.21995263352E+03  0.24615369168E+03 -0.87694920799E+02  0.34155702314E+03  0.00000000000E+00 0.  1.
         22    1    1    2    0    0 -0.77136519850E+03 -0.85979607672E+03  0.12382089028E+04  0.16933442798E+04  0.00000000000E+00 0.  1.
<mgrwt>
<rscale>  0 0.26517180E+04</rscale>
<asrwt>0</asrwt>
<pdfrwt beam="1">  1        2 0.13720306E+00 0.26517180E+04</pdfrwt>
<pdfrwt beam="2">  1       -2 0.30325234E+00 0.26517180E+04</pdfrwt>
<totfact> 0.79418604E-01</totfact>
</mgrwt>
</event>
<event>
 6    1  0.9906445E-006  0.3303308E+04  0.7818608E-02  0.8162054E-01
         -1   -1    0    0    0  501 -0.00000000000E+00  0.00000000000E+00  0.27290504869E+04  0.27290504869E+04  0.00000000000E+00 0.  1.
          1   -1    0    0  501    0  0.00000000000E+00 -0.00000000000E+00 -0.99960064823E+03  0.99960064823E+03  0.00000000000E+00 0. -1.
         23    2    1    2    0    0 -0.11143787830E+04 -0.12169753517E+04  0.88170608348E+03  0.18735127163E+04  0.98869620276E+02 0.  0.
         11    1    3    3    0    0 -0.65906365192E+03 -0.64758449192E+03  0.48612077721E+03  0.10440517140E+04  0.00000000000E+00 0. -1.
        -11    1    3    3    0    0 -0.45531513104E+03 -0.56939085981E+03  0.39558530627E+03  0.82946100229E+03  0.00000000000E+00 0.  1.
         22    1    1    2    0    0  0.11143787830E+04  0.12169753517E+04  0.84774375517E+03  0.18551384188E+04  0.00000000000E+00 0. -1.
<mgrwt>
<rscale>  0 0.33033078E+04</rscale>
<asrwt>0</asrwt>
<pdfrwt beam="1">  1        1 0.15378472E+00 0.33033078E+04</pdfrwt>
<pdfrwt beam="2">  1       -1 0.41985392E+00 0.33033078E+04</pdfrwt>
<totfact> 0.65565758E-02</totfact>
</mgrwt>
</event>
<event>
 6    1  0.9906445E-006  0.1422625E+04  0.7818608E-02  0.8937603E-01
         -2   -1    0    0    0  501 -0.00000000000E+00  0.00000000000E+00  0.12794123864E+03  0.12794123864E+03  0.00000000000E+00 0.  1.
          2   -1    0    0  501    0  0.00000000000E+00 -0.00000000000E+00 -0.39546683225E+04  0.39546683225E+04  0.00000000000E+00 0. -1.
         23    2    1    2    0    0  0.23114290537E+03  0.66543544716E+03 -0.21367615897E+04  0.22517041162E+04  0.90498389273E+02 0.  0.
         11    1    3    3    0    0  0.99284562945E+02  0.36652265408E+03 -0.12635613307E+04  0.13193875536E+04  0.00000000000E+00 0. -1.
        -11    1    3    3    0    0  0.13185834243E+03  0.29891279308E+03 -0.87320025908E+03  0.93231656255E+03  0.00000000000E+00 0.  1.
         22    1    1    2    0    0 -0.23114290537E+03 -0.66543544716E+03 -0.16899654942E+04  0.18309054450E+04  0.00000000000E+00 0.  1.
<mgrwt>
<rscale>  0 0.14226246E+04</rscale>
<asrwt>0</asrwt>
<pdfrwt beam="1">  1        2 0.60841050E+00 0.14226246E+04</pdfrwt>
<pdfrwt beam="2">  1       -2 0.19683268E-01 0.14226246E+04</pdfrwt>
<totfact> 0.81581370E+00</totfact>
</mgrwt>
</event>
<event>
 6    1  0.9906445E-006  0.1356615E+04  0.7818608E-02  0.8985835E-01
         -1   -1    0    0    0  501 -0.00000000000E+00  0.00000000000E+00  0.34598270181E+03  0.34598270181E+03  0.00000000000E+00 0.  1.
          1   -1    0    0  501    0  0.00000000000E+00 -0.00000000000E+00 -0.13298389893E+04  0.13298389893E+04  0.00000000000E+00 0. -1.
         23    2    1    2    0    0  0.31255943909E+03  0.59025846895E+03 -0.61804312991E+03  0.91429839575E+03  0.88689249109E+02 0.  0.
         11    1    3    3    0    0  0.18385546539E+03  0.41329833825E+03 -0.37803075902E+03  0.58951302218E+03  0.00000000000E+00 0. -1.
        -11    1    3    3    0    0  0.12870397370E+03  0.17696013070E+03 -0.24001237089E+03  0.32478537357E+03  0.00000000000E+00 0.  1.
         22    1    1    2    0    0 -0.31255943909E+03 -0.59025846895E+03 -0.36581315760E+03  0.76152329538E+03  0.00000000000E+00 0.  1.
<mgrwt>
<rscale>  0 0.13566153E+04</rscale>
<asrwt>0</asrwt>
<pdfrwt beam="1">  1        1 0.20459061E+00 0.13566153E+04</pdfrwt>
<pdfrwt beam="2">  1       -1 0.53228109E-01 0.13566153E+04</pdfrwt>
<totfact> 0.29992179E+01</totfact>
</mgrwt>
</event>
<event>
 6    1  0.9906445E-006  0.7534427E+03  0.7818608E-02  0.9629965E-01
         -1   -1    0    0    0  501 -0.00000000000E+00  0.00000000000E+00  0.65851435819E+02  0.65851435819E+02  0.00000000000E+00 0.  1.
          1   -1    0    0  501    0  0.00000000000E+00 -0.00000000000E+00 -0.21551386582E+04  0.21551386582E+04  0.00000000000E+00 0. -1.
         23    2    1    2    0    0 -0.27149627059E+02  0.36942285740E+03 -0.11843999807E+04  0.12432215785E+04  0.74741080380E+02 0.  0.
         13    1    3    3    0    0  0.20314919896E+02  0.16107387258E+03 -0.45131979545E+03  0.47963219884E+03  0.00000000000E+00 0. -1.
        -13    1    3    3    0    0 -0.47464546955E+02  0.20834898482E+03 -0.73308018525E+03  0.76358937964E+03  0.00000000000E+00 0.  1.
         22    1    1    2    0    0  0.27149627059E+02 -0.36942285740E+03 -0.90488724168E+03  0.97776851554E+03  0.00000000000E+00 0.  1.
<mgrwt>
<rscale>  0 0.75344270E+03</rscale>
<asrwt>0</asrwt>
<pdfrwt beam="1">  1        1 0.33155975E+00 0.75344270E+03</pdfrwt>
<pdfrwt beam="2">  1       -1 0.10130991E-01 0.75344270E+03</pdfrwt>
<totfact> 0.14924007E+02</totfact>
</mgrwt>
</event>
<event>
 6    1  0.9906445E-006  0.2032848E+04  0.7818608E-02  0.8591415E-01
         -1   -1    0    0    0  501 -0.00000000000E+00  0.00000000000E+00  0.64497052172E+03  0.64497052172E+03  0.00000000000E+00 0.  1.
          1   -1    0    0  501    0  0.00000000000E+00 -0.00000000000E+00 -0.16018061618E+04  0.16018061618E+04  0.00000000000E+00 0. -1.
         23    2    1    2    0    0  0.98899092386E+03  0.22299855982E+03 -0.44120799398E+03  0.11093659070E+04  0.90536271431E+02 0.  0.
         13    1    3    3    0    0  0.43748636400E+03  0.56280222201E+02 -0.17231615346E+03  0.47355531761E+03  0.00000000000E+00 0. -1.
        -13    1    3    3    0    0  0.55150455986E+03  0.16671833761E+03 -0.26889184052E+03  0.63581058936E+03  0.00000000000E+00 0.  1.
         22    1    1    2    0    0 -0.98899092386E+03 -0.22299855982E+03 -0.51562764609E+03  0.11374107765E+04  0.00000000000E+00 0. -1.
<mgrwt>
<rscale>  0 0.20328480E+04</rscale>
<asrwt>0</asrwt>
<pdfrwt beam="1">  1        1 0.24643171E+00 0.20328480E+04</pdfrwt>
<pdfrwt beam="2">  1       -1 0.99226235E-01 0.20328480E+04</pdfrwt>
<totfact> 0.49933259E+00</totfact>
</mgrwt>
</event>
<event>
 6    1  0.9906445E-006  0.7862168E+03  0.7818608E-02  0.9580185E-01
         -1   -1    0    0    0  501 -0.00000000000E+00  0.00000000000E+00  0.78333113273E+03  0.78333113273E+03  0.00000000000E+00 0. -1.
          1   -1    0    0  501    0  0.00000000000E+00 -0.00000000000E+00 -0.19727826272E+03  0.19727826272E+03  0.00000000000E+00 0.  1.
         23    2    1    2    0    0 -0.20373279035E+03 -0.14079086666E+03 -0.75343308220E+02  0.27437004327E+03  0.90957069818E+02 0.  0.
         13    1    3    3    0    0 -0.67837774678E+02 -0.15268950961E+00 -0.26210398068E+02  0.72725318523E+02  0.00000000000E+00 0. -1.
        -13    1    3    3    0    0 -0.13589501567E+03 -0.14063817715E+03 -0.49132910152E+02  0.20164472474E+03  0.00000000000E+00 0.  1.
         22    1    1    2    0    0  0.20373279035E+03  0.14079086666E+03  0.66139617823E+03  0.70623935219E+03  0.00000000000E+00 0. -1.
<mgrwt>
<rscale>  0 0.78621678E+03</rscale>
<asrwt>0</asrwt>
<pdfrwt beam="1">  1        1 0.30350502E-01 0.78621678E+03</pdfrwt>
<pdfrwt beam="2">  1       -1 0.12051248E+00 0.78621678E+03</pdfrwt>
<totfact> 0.94059901E+01</totfact>
</mgrwt>
</event>
<event>
 6    1  0.9906445E-006  0.3520675E+04  0.7818608E-02  0.8108908E-01
         -2   -1    0    0    0  501 -0.00000000000E+00  0.00000000000E+00  0.11577680778E+04  0.11577680778E+04  0.00000000000E+00 0.  1.
          2   -1    0    0  501    0  0.00000000000E+00 -0.00000000000E+00 -0.26765190687E+04  0.26765190687E+04  0.00000000000E+00 0. -1.
         23    2    1    2    0    0  0.43899954840E+03  0.23036910242E+03 -0.25981003898E+04  0.26465221648E+04  0.90351573535E+02 0.  0.
         11    1    3    3    0    0  0.28860940535E+03  0.19467827470E+03 -0.18824594287E+04  0.19143794086E+04  0.00000000000E+00 0.  1.
        -11    1    3    3    0    0  0.15039014306E+03  0.35690827716E+02 -0.71564096110E+03  0.73214275624E+03  0.00000000000E+00 0. -1.
         22    1    1    2    0    0 -0.43899954840E+03 -0.23036910242E+03  0.10793493988E+04  0.11877649816E+04  0.00000000000E+00 0.  1.
<mgrwt>
<rscale>  0 0.35206751E+04</rscale>
<asrwt>0</asrwt>
<pdfrwt beam="1">  1        2 0.41177216E+00 0.35206751E+04</pdfrwt>
<pdfrwt beam="2">  1       -2 0.17811817E+00 0.35206751E+04</pdfrwt>
<totfact> 0.42024974E-01</totfact>
</mgrwt>
</event>
<event>
 6    1  0.9906445E-006  0.1096163E+04  0.7818608E-02  0.9208940E-01
         -1   -1    0    0    0  501 -0.00000000000E+00  0.00000000000E+00  0.32490264301E+03  0.32490264301E+03  0.00000000000E+00 0.  1.
          1   -1    0    0  501    0  0.00000000000E+00 -0.00000000000E+00 -0.92456366274E+03  0.92456366274E+03  0.00000000000E+00 0. -1.
         23    2    1    2    0    0  0.15025786875E+03 -0.52200599919E+03 -0.26812390614E+03  0.61308234303E+03  0.94402542276E+02 0.  0.
         11    1    3    3    0    0  0.72853284101E+02 -0.11858201107E+03 -0.87096036127E+02  0.16417982173E+03  0.00000000000E+00 0. -1.
        -11    1    3    3    0    0  0.77404584648E+02 -0.40342398812E+03 -0.18102787001E+03  0.44890252131E+03  0.00000000000E+00 0.  1.
         22    1    1    2    0    0 -0.15025786875E+03  0.52200599919E+03 -0.33153711360E+03  0.63638396272E+03  0.00000000000E+00 0.  1.
<mgrwt>
<rscale>  0 0.10961627E+04</rscale>
<asrwt>0</asrwt>
<pdfrwt beam="1">  1        1 0.14224056E+00 0.10961627E+04</pdfrwt>
<pdfrwt beam="2">  1       -1 0.49985022E-01 0.10961627E+04</pdfrwt>
<totfact> 0.69531782E+01</totfact>
</mgrwt>
</event>
<event>
 6    1  0.9906445E-006  0.1510818E+04  0.7818608E-02  0.8877291E-01
         -1   -1    0    0    0  501 -0.00000000000E+00  0.00000000000E+00  0.35647368683E+03  0.35647368683E+03  0.00000000000E+00 0.  1.
          1   -1    0    0  501    0  0.00000000000E+00 -0.00000000000E+00 -0.16007992890E+04  0.16007992890E+04  0.00000000000E+00 0. -1.
         23    2    1    2    0    0 -0.24992645060E+03 -0.39805641083E+03  0.13667204167E+03  0.49848353620E+03  0.94310402215E+02 0.  0.
         13    1    3    3    0    0 -0.48398214733E+02 -0.92719156473E+02 -0.83885420720E+01  0.10492662581E+03  0.00000000000E+00 0.  1.
        -13    1    3    3    0    0 -0.20152823587E+03 -0.30533725436E+03  0.14506058374E+03  0.39355691038E+03  0.00000000000E+00 0. -1.
         22    1    1    2    0    0  0.24992645060E+03  0.39805641083E+03 -0.13809976439E+04  0.14587894397E+04  0.00000000000E+00 0. -1.
<mgrwt>
<rscale>  0 0.15108181E+04</rscale>
<asrwt>0</asrwt>
<pdfrwt beam="1">  1        1 0.24627681E+00 0.15108181E+04</pdfrwt>
<pdfrwt beam="2">  1       -1 0.54842106E-01 0.15108181E+04</pdfrwt>
<totfact> 0.18096764E+01</totfact>
</mgrwt>
</event>
<event>
 6    1  0.9906445E-006  0.2074021E+04  0.7818608E-02  0.8572774E-01
          2   -1    0    0  501    0  0.00000000000E+00  0.00000000000E+00  0.15539695222E+04  0.15539695222E+04  0.00000000000E+00 0. -1.
         -2   -1    0    0    0  501 -0.00000000000E+00 -0.00000000000E+00 -0.69202849870E+03  0.69202849870E+03  0.00000000000E+00 0.  1.
         23    2    1    2    0    0 -0.66670838404E+02 -0.10323829066E+04  0.45724986788E+03  0.11351270122E+04  0.95793661484E+02 0.  0.
         13    1    3    3    0    0 -0.10628757383E+02 -0.42531793424E+03  0.14012589706E+03  0.44793256490E+03  0.00000000000E+00 0.  1.
        -13    1    3    3    0    0 -0.56042081021E+02 -0.60706497238E+03  0.31712397082E+03  0.68719444730E+03  0.00000000000E+00 0. -1.
         22    1    1    2    0    0  0.66670838404E+02  0.10323829066E+04  0.40469115564E+03  0.11108710087E+04  0.00000000000E+00 0.  1.
<mgrwt>
<rscale>  0 0.20740214E+04</rscale>
<asrwt>0</asrwt>
<pdfrwt beam="1">  1        2 0.23907223E+00 0.20740214E+04</pdfrwt>
<pdfrwt beam="2">  1       -2 0.10646592E+00 0.20740214E+04</pdfrwt>
<totfact> 0.77716043E+00</totfact>
</mgrwt>
</event>
<event>
 6    1  0.9906445E-006  0.1296689E+04  0.7818608E-02  0.9032195E-01
         -2   -1    0    0    0  501 -0.00000000000E+00  0.00000000000E+00  0.34797067177E+03  0.34797067177E+03  0.00000000000E+00 0.  1.
          2   -1    0    0  501    0  0.00000000000E+00 -0.00000000000E+00 -0.12080050420E+04  0.12080050420E+04  0.00000000000E+00 0. -1.
         23    2    1    2    0    0 -0.45354721023E+03 -0.28643181699E+03 -0.86226107006E+03  0.10195493760E+04  0.90766290498E+02 0.  0.
         13    1    3    3    0    0 -0.23954315052E+03 -0.20425005509E+03 -0.49668596474E+03  0.58804417652E+03  0.00000000000E+00 0.  1.
        -13    1    3    3    0    0 -0.21400405971E+03 -0.82181761904E+02 -0.36557510532E+03  0.43150519950E+03  0.00000000000E+00 0. -1.
         22    1    1    2    0    0  0.45354721023E+03  0.28643181699E+03  0.22266997792E+01  0.53642633780E+03  0.00000000000E+00 0.  1.
<mgrwt>
<rscale>  0 0.12966886E+04</rscale>
<asrwt>0</asrwt>
<pdfrwt beam="1">  1        2 0.18584693E+00 0.12966886E+04</pdfrwt>
<pdfrwt beam="2">  1       -2 0.53533950E-01 0.12966886E+04</pdfrwt>
<totfact> 0.60384527E+01</totfact>
</mgrwt>
</event>
<event>
 6    1  0.9906445E-006  0.1417393E+04  0.7818608E-02  0.8941324E-01
         -2   -1    0    0    0  501 -0.00000000000E+00  0.00000000000E+00  0.11906644377E+03  0.11906644377E+03  0.00000000000E+00 0. -1.
          2   -1    0    0  501    0  0.00000000000E+00 -0.00000000000E+00 -0.42182401169E+04  0.42182401169E+04  0.00000000000E+00 0.  1.
         23    2    1    2    0    0 -0.18692901915E+03 -0.57946180809E+03 -0.96589566732E+03  0.11454184820E+04  0.91162566046E+02 0.  0.
         13    1    3    3    0    0 -0.14415955769E+03 -0.31866697956E+03 -0.59090302052E+03  0.68665639267E+03  0.00000000000E+00 0. -1.
        -13    1    3    3    0    0 -0.42769461460E+02 -0.26079482853E+03 -0.37499264680E+03  0.45876208930E+03  0.00000000000E+00 0.  1.
         22    1    1    2    0    0  0.18692901915E+03  0.57946180809E+03 -0.31332780059E+04  0.31918880787E+04  0.00000000000E+00 0.  1.
<mgrwt>
<rscale>  0 0.14173932E+04</rscale>
<asrwt>0</asrwt>
<pdfrwt beam="1">  1        2 0.64895995E+00 0.14173932E+04</pdfrwt>
<pdfrwt beam="2">  1       -2 0.18317916E-01 0.14173932E+04</pdfrwt>
<totfact> 0.56128297E+00</totfact>
</mgrwt>
</event>
<event>
 6    1  0.9906445E-006  0.1403203E+04  0.7818608E-02  0.8951503E-01
         -1   -1    0    0    0  501 -0.00000000000E+00  0.00000000000E+00  0.31926371529E+03  0.31926371529E+03  0.00000000000E+00 0.  1.
          1   -1    0    0  501    0  0.00000000000E+00 -0.00000000000E+00 -0.15418131334E+04  0.15418131334E+04  0.00000000000E+00 0. -1.
         23    2    1    2    0    0 -0.68232752370E+03  0.14302681724E+03 -0.67043360325E+03  0.97177409199E+03  0.94000794872E+02 0.  0.
         11    1    3    3    0    0 -0.37515375382E+03  0.55805577845E+02 -0.30674515285E+03  0.48779830907E+03  0.00000000000E+00 0. -1.
        -11    1    3    3    0    0 -0.30717376988E+03  0.87221239393E+02 -0.36368845039E+03  0.48397578292E+03  0.00000000000E+00 0.  1.
         22    1    1    2    0    0  0.68232752370E+03 -0.14302681724E+03 -0.55211581483E+03  0.88930275668E+03  0.00000000000E+00 0.  1.
<mgrwt>
<rscale>  0 0.14032035E+04</rscale>
<asrwt>0</asrwt>
<pdfrwt beam="1">  1        1 0.23720203E+00 0.14032035E+04</pdfrwt>
<pdfrwt beam="2">  1       -1 0.49117493E-01 0.14032035E+04</pdfrwt>
<totfact> 0.24769896E+01</totfact>
</mgrwt>
</event>
<event>
 6    1  0.1004161E-005  0.4437765E+04  0.7818608E-02  0.7921624E-01
         -1   -1    0    0    0  501 -0.00000000000E+00  0.00000000000E+00  0.25340771574E+04  0.25340771574E+04  0.00000000000E+00 0.  1.
          1   -1    0    0  501    0  0.00000000000E+00 -0.00000000000E+00 -0.19428924715E+04  0.19428924715E+04  0.00000000000E+00 0. -1.
         23    2    1    2    0    0 -0.64968499988E+02 -0.22170435076E+04  0.29879003117E+03  0.22397844657E+04  0.88634922350E+02 0.  0.
         13    1    3    3    0    0 -0.71791587095E+02 -0.13046960490E+04  0.20404577518E+03  0.13225053840E+04  0.00000000000E+00 0. -1.
        -13    1    3    3    0    0  0.68230871072E+01 -0.91234745859E+03  0.94744255984E+02  0.91727908172E+03  0.00000000000E+00 0.  1.
         22    1    1    2    0    0  0.64968499988E+02  0.22170435076E+04  0.29239465478E+03  0.22371851632E+04  0.00000000000E+00 0.  1.
<mgrwt>
<rscale>  0 0.44377649E+04</rscale>
<asrwt>0</asrwt>
<pdfrwt beam="1">  1        1 0.29890654E+00 0.44377649E+04</pdfrwt>
<pdfrwt beam="2">  1       -1 0.38985802E+00 0.44377649E+04</pdfrwt>
<totfact> 0.20636682E-02</totfact>
</mgrwt>
</event>
<event>
 6    1  0.9906445E-006  0.2120038E+04  0.7818608E-02  0.8552467E-01
          1   -1    0    0  501    0  0.00000000000E+00  0.00000000000E+00  0.11729104700E+04  0.11729104700E+04  0.00000000000E+00 0. -1.
         -1   -1    0    0    0  501 -0.00000000000E+00 -0.00000000000E+00 -0.95799329644E+03  0.95799329644E+03  0.00000000000E+00 0.  1.
         23    2    1    2    0    0 -0.39020009112E+03 -0.47192478041E+03 -0.75955307069E+03  0.98000786915E+03  0.92333346801E+02 0.  0.
         13    1    3    3    0    0 -0.16740997026E+03 -0.14431964905E+03 -0.23444340901E+03  0.32220796278E+03  0.00000000000E+00 0. -1.
        -13    1    3    3    0    0 -0.22279012085E+03 -0.32760513136E+03 -0.52510966167E+03  0.65779990637E+03  0.00000000000E+00 0.  1.
         22    1    1    2    0    0  0.39020009112E+03  0.47192478041E+03  0.97447024421E+03  0.11508958973E+04  0.00000000000E+00 0. -1.
<mgrwt>
<rscale>  0 0.21200381E+04</rscale>
<asrwt>0</asrwt>
<pdfrwt beam="1">  1        1 0.18044777E+00 0.21200381E+04</pdfrwt>
<pdfrwt beam="2">  1       -1 0.14738358E+00 0.21200381E+04</pdfrwt>
<totfact> 0.37573702E+00</totfact>
</mgrwt>
</event>
<event>
 6    1  0.9906445E-006  0.2062747E+04  0.7818608E-02  0.8577833E-01
         -1   -1    0    0    0  501 -0.00000000000E+00  0.00000000000E+00  0.39960689658E+03  0.39960689658E+03  0.00000000000E+00 0.  1.
          1   -1    0    0  501    0  0.00000000000E+00 -0.00000000000E+00 -0.26619454824E+04  0.26619454824E+04  0.00000000000E+00 0. -1.
         23    2    1    2    0    0  0.80159944842E+03  0.97611341125E+02 -0.18615832746E+03  0.83385982505E+03  0.92615524209E+02 0.  0.
         11    1    3    3    0    0  0.50816308859E+03  0.58832502583E+02 -0.16330523224E+03  0.53699123535E+03  0.00000000000E+00 0.  1.
        -11    1    3    3    0    0  0.29343635983E+03  0.38778838542E+02 -0.22853095221E+02  0.29686858970E+03  0.00000000000E+00 0. -1.
         22    1    1    2    0    0 -0.80159944842E+03 -0.97611341125E+02 -0.20761802584E+04  0.22276925539E+04  0.00000000000E+00 0. -1.
<mgrwt>
<rscale>  0 0.20627475E+04</rscale>
<asrwt>0</asrwt>
<pdfrwt beam="1">  1        1 0.40953007E+00 0.20627475E+04</pdfrwt>
<pdfrwt beam="2">  1       -1 0.61477985E-01 0.20627475E+04</pdfrwt>
<totfact> 0.25863262E+00</totfact>
</mgrwt>
</event>
<event>
 6    1  0.9906445E-006  0.2087180E+04  0.7818608E-02  0.8566912E-01
         -2   -1    0    0    0  501 -0.00000000000E+00  0.00000000000E+00  0.38946765179E+03  0.38946765179E+03  0.00000000000E+00 0.  1.
          2   -1    0    0  501    0  0.00000000000E+00 -0.00000000000E+00 -0.27963299101E+04  0.27963299101E+04  0.00000000000E+00 0. -1.
         23    2    1    2    0    0 -0.94974965896E+03 -0.29996746803E+03 -0.16709659685E+04  0.19474324114E+04  0.91437588012E+02 0.  0.
         13    1    3    3    0    0 -0.61599513846E+03 -0.16232170802E+03 -0.10044124350E+04  0.11893875260E+04  0.00000000000E+00 0.  1.
        -13    1    3    3    0    0 -0.33375452050E+03 -0.13764576001E+03 -0.66655353354E+03  0.75804488539E+03  0.00000000000E+00 0. -1.
         22    1    1    2    0    0  0.94974965896E+03  0.29996746803E+03 -0.73589628978E+03  0.12383651505E+04  0.00000000000E+00 0.  1.
<mgrwt>
<rscale>  0 0.20871800E+04</rscale>
<asrwt>0</asrwt>
<pdfrwt beam="1">  1        2 0.43020463E+00 0.20871800E+04</pdfrwt>
<pdfrwt beam="2">  1       -2 0.59918097E-01 0.20871800E+04</pdfrwt>
<totfact> 0.55754795E+00</totfact>
</mgrwt>
</event>
<event>
 6    1  0.9906445E-006  0.1085009E+04  0.7818608E-02  0.9219928E-01
          1   -1    0    0  501    0  0.00000000000E+00  0.00000000000E+00  0.62456512149E+03  0.62456512149E+03  0.00000000000E+00 0. -1.
         -1   -1    0    0    0  501 -0.00000000000E+00 -0.00000000000E+00 -0.47122565153E+03  0.47122565153E+03  0.00000000000E+00 0.  1.
         23    2    1    2    0    0  0.89312157245E+02 -0.49983828345E+03  0.25907209828E+03  0.57714411130E+03  0.90343799287E+02 0.  0.
         11    1    3    3    0    0  0.95418908214E+01 -0.30558411603E+03  0.15422360518E+03  0.34242900001E+03  0.00000000000E+00 0. -1.
        -11    1    3    3    0    0  0.79770266423E+02 -0.19425416741E+03  0.10484849310E+03  0.23471511129E+03  0.00000000000E+00 0.  1.
         22    1    1    2    0    0 -0.89312157245E+02  0.49983828345E+03 -0.10573262832E+03  0.51864666173E+03  0.00000000000E+00 0.  1.
<mgrwt>
<rscale>  0 0.10850090E+04</rscale>
<asrwt>0</asrwt>
<pdfrwt beam="1">  1        1 0.96086942E-01 0.10850090E+04</pdfrwt>
<pdfrwt beam="2">  1       -1 0.72496254E-01 0.10850090E+04</pdfrwt>
<totfact> 0.61863559E+01</totfact>
</mgrwt>
</event>
<event>
 6    1  0.9906445E-006  0.2714733E+04  0.7818608E-02  0.8330240E-01
         -2   -1    0    0    0  501 -0.00000000000E+00  0.00000000000E+00  0.11996944132E+04  0.11996944132E+04  0.00000000000E+00 0.  1.
          2   -1    0    0  501    0  0.00000000000E+00 -0.00000000000E+00 -0.15357609061E+04  0.15357609061E+04  0.00000000000E+00 0. -1.
         23    2    1    2    0    0  0.75997176583E+03  0.10395270750E+04 -0.59576804905E+03  0.14218273191E+04  0.92085464064E+02 0.  0.
         11    1    3    3    0    0  0.29600952529E+03  0.33357112416E+03 -0.19263349189E+03  0.48579727884E+03  0.00000000000E+00 0.  1.
        -11    1    3    3    0    0  0.46396224054E+03  0.70595595084E+03 -0.40313455716E+03  0.93603004030E+03  0.00000000000E+00 0. -1.
         22    1    1    2    0    0 -0.75997176583E+03 -0.10395270750E+04  0.25970155607E+03  0.13136280001E+04  0.00000000000E+00 0.  1.
<mgrwt>
<rscale>  0 0.27147330E+04</rscale>
<asrwt>0</asrwt>
<pdfrwt beam="1">  1        2 0.23627091E+00 0.27147330E+04</pdfrwt>
<pdfrwt beam="2">  1       -2 0.18456837E+00 0.27147330E+04</pdfrwt>
<totfact> 0.17914069E+00</totfact>
</mgrwt>
</event>
<event>
 6    1  0.9906445E-006  0.4756683E+04  0.7818608E-02  0.7867178E-01
         -2   -1    0    0    0  501 -0.00000000000E+00  0.00000000000E+00  0.21228528501E+04  0.21228528501E+04  0.00000000000E+00 0.  1.
          2   -1    0    0  501    0  0.00000000000E+00 -0.00000000000E+00 -0.26645790480E+04  0.26645790480E+04  0.00000000000E+00 0. -1.
         23    2    1    2    0    0 -0.20203604874E+04 -0.12488013600E+04 -0.16554572166E+03  0.23826713931E+04  0.91412503387E+02 0.  0.
         13    1    3    3    0    0 -0.18944933433E+03 -0.13855022046E+03  0.39200597824E+01  0.23473938898E+03  0.00000000000E+00 0. -1.
        -13    1    3    3    0    0 -0.18309111531E+04 -0.11102511396E+04 -0.16946578144E+03  0.21479320041E+04  0.00000000000E+00 0.  1.
         22    1    1    2    0    0  0.20203604874E+04  0.12488013600E+04 -0.37618047626E+03  0.24047605050E+04  0.00000000000E+00 0.  1.
<mgrwt>
<rscale>  0 0.47566834E+04</rscale>
<asrwt>0</asrwt>
<pdfrwt beam="1">  1        2 0.40993524E+00 0.47566834E+04</pdfrwt>
<pdfrwt beam="2">  1       -2 0.32659275E+00 0.47566834E+04</pdfrwt>
<totfact> 0.45089525E-02</totfact>
</mgrwt>
</event>
<event>
 6    1  0.9906445E-006  0.1931923E+04  0.7818608E-02  0.8639128E-01
          4   -1    0    0  501    0  0.00000000000E+00  0.00000000000E+00  0.37003686567E+03  0.37003686567E+03  0.00000000000E+00 0. -1.
         -4   -1    0    0    0  501 -0.00000000000E+00 -0.00000000000E+00 -0.25215898435E+04  0.25215898435E+04  0.00000000000E+00 0.  1.
         23    2    1    2    0    0  0.37146765865E+03 -0.33733561900E+03  0.15362291937E+03  0.53247019501E+03  0.90227301567E+02 0.  0.
         11    1    3    3    0    0  0.21646443905E+03 -0.24357471029E+03  0.12526763960E+03  0.34910954498E+03  0.00000000000E+00 0. -1.
        -11    1    3    3    0    0  0.15500321960E+03 -0.93760908710E+02  0.28355279779E+02  0.18336065003E+03  0.00000000000E+00 0.  1.
         22    1    1    2    0    0 -0.37146765865E+03  0.33733561900E+03 -0.23051758972E+04  0.23591565142E+04  0.00000000000E+00 0.  1.
<mgrwt>
<rscale>  0 0.19319226E+04</rscale>
<asrwt>0</asrwt>
<pdfrwt beam="1">  1        4 0.56928750E-01 0.19319226E+04</pdfrwt>
<pdfrwt beam="2">  1       -4 0.38793689E+00 0.19319226E+04</pdfrwt>
<totfact> 0.45575159E-02</totfact>
</mgrwt>
</event>
<event>
 6    1  0.9906445E-006  0.2505802E+04  0.7818608E-02  0.8400922E-01
         -2   -1    0    0    0  501 -0.00000000000E+00  0.00000000000E+00  0.45963707626E+03  0.45963707626E+03  0.00000000000E+00 0.  1.
          2   -1    0    0  501    0  0.00000000000E+00 -0.00000000000E+00 -0.34152169795E+04  0.34152169795E+04  0.00000000000E+00 0. -1.
         23    2    1    2    0    0 -0.21260657624E+03  0.58413847937E+03 -0.31589139311E+04  0.32208173242E+04  0.92237150303E+02 0.  0.
         11    1    3    3    0    0 -0.20804552220E+03  0.54781629450E+03 -0.28411280753E+04  0.29009299151E+04  0.00000000000E+00 0. -1.
        -11    1    3    3    0    0 -0.45610540391E+01  0.36322184874E+02 -0.31778585579E+03  0.31988740905E+03  0.00000000000E+00 0.  1.
         22    1    1    2    0    0  0.21260657624E+03 -0.58413847937E+03  0.20333402792E+03  0.65403673158E+03  0.00000000000E+00 0.  1.
<mgrwt>
<rscale>  0 0.25058015E+04</rscale>
<asrwt>0</asrwt>
<pdfrwt beam="1">  1        2 0.52541801E+00 0.25058015E+04</pdfrwt>
<pdfrwt beam="2">  1       -2 0.70713395E-01 0.25058015E+04</pdfrwt>
<totfact> 0.15101346E+00</totfact>
</mgrwt>
</event>
<event>
 6    1  0.9906445E-006  0.4078897E+04  0.7818608E-02  0.7988817E-01
         -1   -1    0    0    0  501 -0.00000000000E+00  0.00000000000E+00  0.11153549921E+04  0.11153549921E+04  0.00000000000E+00 0.  1.
          1   -1    0    0  501    0  0.00000000000E+00 -0.00000000000E+00 -0.37291724627E+04  0.37291724627E+04  0.00000000000E+00 0. -1.
         23    2    1    2    0    0 -0.10620774759E+04  0.12114575738E+04 -0.27905904828E+04  0.32237601316E+04  0.97959812966E+02 0.  0.
         13    1    3    3    0    0 -0.18490015020E+03  0.26704266250E+03 -0.58811647525E+03  0.67184882049E+03  0.00000000000E+00 0.  1.
        -13    1    3    3    0    0 -0.87717732573E+03  0.94441491130E+03 -0.22024740076E+04  0.25519113111E+04  0.00000000000E+00 0. -1.
         22    1    1    2    0    0  0.10620774759E+04 -0.12114575738E+04  0.17677301222E+03  0.16207673232E+04  0.00000000000E+00 0.  1.
<mgrwt>
<rscale>  0 0.40788975E+04</rscale>
<asrwt>0</asrwt>
<pdfrwt beam="1">  1        1 0.57371884E+00 0.40788975E+04</pdfrwt>
<pdfrwt beam="2">  1       -1 0.17159308E+00 0.40788975E+04</pdfrwt>
<totfact> 0.30337544E-02</totfact>
</mgrwt>
</event>
<event>
 6    1  0.9906445E-006  0.3368005E+04  0.7818608E-02  0.8145804E-01
         -1   -1    0    0    0  501 -0.00000000000E+00  0.00000000000E+00  0.12318751438E+04  0.12318751438E+04  0.00000000000E+00 0.  1.
          1   -1    0    0  501    0  0.00000000000E+00 -0.00000000000E+00 -0.23020710085E+04  0.23020710085E+04  0.00000000000E+00 0. -1.
         23    2    1    2    0    0 -0.58359539890E+03 -0.53335979306E+03  0.10231461312E+04  0.12962828689E+04  0.92005500445E+02 0.  0.
         11    1    3    3    0    0 -0.84113603508E+02 -0.11720751737E+03  0.21826518574E+03  0.26163407983E+03  0.00000000000E+00 0. -1.
        -11    1    3    3    0    0 -0.49948179539E+03 -0.41615227569E+03  0.80488094542E+03  0.10346487891E+04  0.00000000000E+00 0.  1.
         22    1    1    2    0    0  0.58359539890E+03  0.53335979306E+03 -0.20933419958E+04  0.22376632834E+04  0.00000000000E+00 0. -1.
<mgrwt>
<rscale>  0 0.33680048E+04</rscale>
<asrwt>0</asrwt>
<pdfrwt beam="1">  1        1 0.35416477E+00 0.33680048E+04</pdfrwt>
<pdfrwt beam="2">  1       -1 0.18951925E+00 0.33680048E+04</pdfrwt>
<totfact> 0.27249097E-01</totfact>
</mgrwt>
</event>
<event>
 6    1  0.9906445E-006  0.1690816E+04  0.7818608E-02  0.8766620E-01
         -2   -1    0    0    0  501 -0.00000000000E+00  0.00000000000E+00  0.65221364492E+03  0.65221364492E+03  0.00000000000E+00 0.  1.
          2   -1    0    0  501    0  0.00000000000E+00 -0.00000000000E+00 -0.10958292252E+04  0.10958292252E+04  0.00000000000E+00 0. -1.
         23    2    1    2    0    0  0.49798865365E+03  0.67625149759E+03 -0.29658968196E+03  0.89544366658E+03  0.92439890777E+02 0.  0.
         11    1    3    3    0    0  0.28588951949E+03  0.34930931699E+03 -0.11678004147E+03  0.46624821112E+03  0.00000000000E+00 0.  1.
        -11    1    3    3    0    0  0.21209913416E+03  0.32694218060E+03 -0.17980964049E+03  0.42919545545E+03  0.00000000000E+00 0. -1.
         22    1    1    2    0    0 -0.49798865365E+03 -0.67625149759E+03 -0.14702589834E+03  0.85259920358E+03  0.00000000000E+00 0. -1.
<mgrwt>
<rscale>  0 0.16908161E+04</rscale>
<asrwt>0</asrwt>
<pdfrwt beam="1">  1        2 0.16858911E+00 0.16908161E+04</pdfrwt>
<pdfrwt beam="2">  1       -2 0.10034056E+00 0.16908161E+04</pdfrwt>
<totfact> 0.17102510E+01</totfact>
</mgrwt>
</event>
<event>
 6    1  0.9906445E-006  0.5814716E+04  0.7818608E-02  0.7713809E-01
          2   -1    0    0  501    0  0.00000000000E+00  0.00000000000E+00  0.27348420070E+04  0.27348420070E+04  0.00000000000E+00 0. -1.
         -2   -1    0    0    0  501 -0.00000000000E+00 -0.00000000000E+00 -0.30907567292E+04  0.30907567292E+04  0.00000000000E+00 0.  1.
         23    2    1    2    0    0 -0.11911924440E+04 -0.14767097533E+04 -0.23841531651E+04  0.30483046727E+04  0.91454517062E+02 0.  0.
         11    1    3    3    0    0 -0.19990563221E+03 -0.20220105932E+03 -0.33240296208E+03  0.43742343259E+03  0.00000000000E+00 0. -1.
        -11    1    3    3    0    0 -0.99128681180E+03 -0.12745086940E+04 -0.20517502030E+04  0.26108812401E+04  0.00000000000E+00 0.  1.
         22    1    1    2    0    0  0.11911924440E+04  0.14767097533E+04  0.20282384429E+04  0.27772940635E+04  0.00000000000E+00 0. -1.
<mgrwt>
<rscale>  0 0.58147163E+04</rscale>
<asrwt>0</asrwt>
<pdfrwt beam="1">  1        2 0.42074493E+00 0.58147163E+04</pdfrwt>
<pdfrwt beam="2">  1       -2 0.47550103E+00 0.58147163E+04</pdfrwt>
<totfact> 0.41105229E-03</totfact>
</mgrwt>
</event>
<event>
 6    1  0.9906445E-006  0.3395985E+04  0.7818608E-02  0.8138892E-01
         -2   -1    0    0    0  501 -0.00000000000E+00  0.00000000000E+00  0.17827587580E+04  0.17827587580E+04  0.00000000000E+00 0.  1.
          2   -1    0    0  501    0  0.00000000000E+00 -0.00000000000E+00 -0.16172571453E+04  0.16172571453E+04  0.00000000000E+00 0. -1.
         23    2    1    2    0    0  0.30816966882E+03 -0.91532637842E+03 -0.13138530978E+04  0.16333010753E+04  0.93120975646E+02 0.  0.
         13    1    3    3    0    0  0.22583025371E+03 -0.68465270621E+03 -0.90984703268E+03  0.11608489370E+04  0.00000000000E+00 0.  1.
        -13    1    3    3    0    0  0.82339415108E+02 -0.23067367222E+03 -0.40400606514E+03  0.47245213832E+03  0.00000000000E+00 0. -1.
         22    1    1    2    0    0 -0.30816966882E+03  0.91532637842E+03  0.14793547106E+04  0.17667148280E+04  0.00000000000E+00 0.  1.
<mgrwt>
<rscale>  0 0.33959855E+04</rscale>
<asrwt>0</asrwt>
<pdfrwt beam="1">  1        2 0.24880879E+00 0.33959855E+04</pdfrwt>
<pdfrwt beam="2">  1       -2 0.27427058E+00 0.33959855E+04</pdfrwt>
<totfact> 0.41253194E-01</totfact>
</mgrwt>
</event>
<event>
 6    1  0.9906445E-006  0.5400135E+04  0.7818608E-02  0.7769582E-01
          2   -1    0    0  501    0  0.00000000000E+00  0.00000000000E+00  0.30178692673E+04  0.30178692673E+04  0.00000000000E+00 0. -1.
         -2   -1    0    0    0  501 -0.00000000000E+00 -0.00000000000E+00 -0.24157327226E+04  0.24157327226E+04  0.00000000000E+00 0.  1.
         23    2    1    2    0    0  0.69200898133E+03  0.21185044258E+04 -0.12313060263E+04  0.25476967430E+04  0.87787991173E+02 0.  0.
         13    1    3    3    0    0  0.22720492991E+03  0.79435112272E+03 -0.42296776895E+03  0.92817968084E+03  0.00000000000E+00 0.  1.
        -13    1    3    3    0    0  0.46480405142E+03  0.13241533031E+04 -0.80833825739E+03  0.16195170622E+04  0.00000000000E+00 0. -1.
         22    1    1    2    0    0 -0.69200898133E+03 -0.21185044258E+04  0.18334425711E+04  0.28859052469E+04  0.00000000000E+00 0. -1.
<mgrwt>
<rscale>  0 0.54001354E+04</rscale>
<asrwt>0</asrwt>
<pdfrwt beam="1">  1        2 0.46428758E+00 0.54001354E+04</pdfrwt>
<pdfrwt beam="2">  1       -2 0.37165119E+00 0.54001354E+04</pdfrwt>
<totfact> 0.13557775E-02</totfact>
</mgrwt>
</event>
<event>
 6    1  0.9906445E-006  0.2957772E+04  0.7818608E-02  0.8255893E-01
          2   -1    0    0  501    0  0.00000000000E+00  0.00000000000E+00  0.28928582780E+04  0.28928582780E+04  0.00000000000E+00 0. -1.
         -2   -1    0    0    0  501 -0.00000000000E+00 -0.00000000000E+00 -0.75603541918E+03  0.75603541918E+03  0.00000000000E+00 0.  1.
         23    2    1    2    0    0 -0.12297894923E+04  0.80954703067E+03  0.12212480483E+04  0.19151042567E+04  0.91809194683E+02 0.  0.
         11    1    3    3    0    0 -0.62416236323E+03  0.46101743615E+03  0.66676382874E+03  0.10230785578E+04  0.00000000000E+00 0. -1.
        -11    1    3    3    0    0 -0.60562712907E+03  0.34852959452E+03  0.55448421954E+03  0.89202569887E+03  0.00000000000E+00 0.  1.
         22    1    1    2    0    0  0.12297894923E+04 -0.80954703067E+03  0.91557481049E+03  0.17337894405E+04  0.00000000000E+00 0.  1.
<mgrwt>
<rscale>  0 0.29577717E+04</rscale>
<asrwt>0</asrwt>
<pdfrwt beam="1">  1        2 0.44505511E+00 0.29577717E+04</pdfrwt>
<pdfrwt beam="2">  1       -2 0.11631314E+00 0.29577717E+04</pdfrwt>
<totfact> 0.99928520E-01</totfact>
</mgrwt>
</event>
<event>
 6    1  0.9906445E-006  0.1853023E+04  0.7818608E-02  0.8678600E-01
          1   -1    0    0  501    0  0.00000000000E+00  0.00000000000E+00  0.18173750737E+04  0.18173750737E+04  0.00000000000E+00 0. -1.
         -1   -1    0    0    0  501 -0.00000000000E+00 -0.00000000000E+00 -0.47234239199E+03  0.47234239199E+03  0.00000000000E+00 0.  1.
         23    2    1    2    0    0 -0.89085880090E+02 -0.80482721875E+03  0.12425823157E+03  0.82480333708E+03  0.95798176827E+02 0.  0.
         13    1    3    3    0    0 -0.94379808498E+02 -0.44058319589E+03  0.83464446283E+02  0.45824383743E+03  0.00000000000E+00 0.  1.
        -13    1    3    3    0    0  0.52939284085E+01 -0.36424402286E+03  0.40793785284E+02  0.36655949965E+03  0.00000000000E+00 0. -1.
         22    1    1    2    0    0  0.89085880090E+02  0.80482721875E+03  0.12207744501E+04  0.14649141286E+04  0.00000000000E+00 0. -1.
<mgrwt>
<rscale>  0 0.18530227E+04</rscale>
<asrwt>0</asrwt>
<pdfrwt beam="1">  1        1 0.27959616E+00 0.18530227E+04</pdfrwt>
<pdfrwt beam="2">  1       -1 0.72668061E-01 0.18530227E+04</pdfrwt>
<totfact> 0.71117023E+00</totfact>
</mgrwt>
</event>
<event>
 6    1  0.9906445E-006  0.2304072E+04  0.7818608E-02  0.8476317E-01
          3   -1    0    0  501    0  0.00000000000E+00  0.00000000000E+00  0.54613301635E+03  0.54613301635E+03  0.00000000000E+00 0. -1.
         -3   -1    0    0    0  501 -0.00000000000E+00 -0.00000000000E+00 -0.24301523954E+04  0.24301523954E+04  0.00000000000E+00 0.  1.
         23    2    1    2    0    0 -0.39637423848E+03 -0.47748161210E+03  0.30750593477E+03  0.69859262563E+03  0.91490599803E+02 0.  0.
         11    1    3    3    0    0 -0.11462209268E+03 -0.14369463295E+03  0.13884568666E+03  0.23035732324E+03  0.00000000000E+00 0. -1.
        -11    1    3    3    0    0 -0.28175214580E+03 -0.33378697915E+03  0.16866024811E+03  0.46823530239E+03  0.00000000000E+00 0.  1.
         22    1    1    2    0    0  0.39637423848E+03  0.47748161210E+03 -0.21915253138E+04  0.22776927861E+04  0.00000000000E+00 0.  1.
<mgrwt>
<rscale>  0 0.23040716E+04</rscale>
<asrwt>0</asrwt>
<pdfrwt beam="1">  1        3 0.84020462E-01 0.23040716E+04</pdfrwt>
<pdfrwt beam="2">  1       -3 0.37386961E+00 0.23040716E+04</pdfrwt>
<totfact> 0.45519741E-02</totfact>
</mgrwt>
</event>
<event>
 6    1  0.9906445E-006  0.1183736E+04  0.7818608E-02  0.9127213E-01
          1   -1    0    0  501    0  0.00000000000E+00  0.00000000000E+00  0.68429488922E+03  0.68429488922E+03  0.00000000000E+00 0. -1.
         -1   -1    0    0    0  501 -0.00000000000E+00 -0.00000000000E+00 -0.51192508278E+03  0.51192508278E+03  0.00000000000E+00 0.  1.
         23    2    1    2    0    0  0.52526469535E+02  0.47280162087E+03  0.43500975147E+03  0.65282311571E+03  0.10317041164E+03 0.  0.
         13    1    3    3    0    0  0.89836108988E+01  0.10768516691E+03  0.45728981547E+02  0.11733686629E+03  0.00000000000E+00 0.  1.
        -13    1    3    3    0    0  0.43542858636E+02  0.36511645395E+03  0.38928076992E+03  0.53548624942E+03  0.00000000000E+00 0. -1.
         22    1    1    2    0    0 -0.52526469535E+02 -0.47280162087E+03 -0.26263994503E+03  0.54339685628E+03  0.00000000000E+00 0.  1.
<mgrwt>
<rscale>  0 0.11837360E+04</rscale>
<asrwt>0</asrwt>
<pdfrwt beam="1">  1        1 0.10527614E+00 0.11837360E+04</pdfrwt>
<pdfrwt beam="2">  1       -1 0.78757706E-01 0.11837360E+04</pdfrwt>
<totfact> 0.45082732E+01</totfact>
</mgrwt>
</event>
<event>
 6    1  0.9906445E-006  0.1689832E+04  0.7818608E-02  0.8767185E-01
          1   -1    0    0  501    0  0.00000000000E+00  0.00000000000E+00  0.19762054697E+04  0.19762054697E+04  0.00000000000E+00 0. -1.
         -1   -1    0    0    0  501 -0.00000000000E+00 -0.00000000000E+00 -0.36123946666E+03  0.36123946666E+03  0.00000000000E+00 0.  1.
         23    2    1    2    0    0  0.53745475674E+03  0.49067952562E+03  0.22271121293E+03  0.76645880880E+03  0.90745847354E+02 0.  0.
         13    1    3    3    0    0  0.39165292459E+03  0.35425622334E+03  0.11852013790E+03  0.54123609285E+03  0.00000000000E+00 0.  1.
        -13    1    3    3    0    0  0.14580183215E+03  0.13642330229E+03  0.10419107503E+03  0.22522271595E+03  0.00000000000E+00 0. -1.
         22    1    1    2    0    0 -0.53745475674E+03 -0.49067952562E+03  0.13922547901E+04  0.15709861276E+04  0.00000000000E+00 0. -1.
<mgrwt>
<rscale>  0 0.16898324E+04</rscale>
<asrwt>0</asrwt>
<pdfrwt beam="1">  1        1 0.30403160E+00 0.16898324E+04</pdfrwt>
<pdfrwt beam="2">  1       -1 0.55575304E-01 0.16898324E+04</pdfrwt>
<totfact> 0.96471312E+00</totfact>
</mgrwt>
</event>
<event>
 6    1  0.9906445E-006  0.2020269E+04  0.7818608E-02  0.8597202E-01
         -1   -1    0    0    0  501 -0.00000000000E+00  0.00000000000E+00  0.38801879789E+03  0.38801879789E+03  0.00000000000E+00 0.  1.
          1   -1    0    0  501    0  0.00000000000E+00 -0.00000000000E+00 -0.26296973908E+04  0.26296973908E+04  0.00000000000E+00 0. -1.
         23    2    1    2    0    0  0.59612619486E+03  0.28787160017E+03 -0.22587632908E+04  0.23555014310E+04  0.90215790890E+02 0.  0.
         13    1    3    3    0    0  0.67025586117E+02  0.63172320642E+02 -0.26658387561E+03  0.28204633312E+03  0.00000000000E+00 0. -1.
        -13    1    3    3    0    0  0.52910060874E+03  0.22469927953E+03 -0.19921794152E+04  0.20734550979E+04  0.00000000000E+00 0.  1.
         22    1    1    2    0    0 -0.59612619486E+03 -0.28787160017E+03  0.17084697957E+02  0.66221475768E+03  0.00000000000E+00 0.  1.
<mgrwt>
<rscale>  0 0.20202693E+04</rscale>
<asrwt>0</asrwt>
<pdfrwt beam="1">  1        1 0.40456882E+00 0.20202693E+04</pdfrwt>
<pdfrwt beam="2">  1       -1 0.59695201E-01 0.20202693E+04</pdfrwt>
<totfact> 0.28997370E+00</totfact>
</mgrwt>
</event>
<event>
 6    1  0.9906445E-006  0.1311473E+04  0.7818608E-02  0.9020517E-01
          1   -1    0    0  501    0  0.00000000000E+00  0.00000000000E+00  0.78629787026E+03  0.78629787026E+03  0.00000000000E+00 0. -1.
         -1   -1    0    0    0  501 -0.00000000000E+00 -0.00000000000E+00 -0.54685388443E+03  0.54685388443E+03  0.00000000000E+00 0.  1.
         23    2    1    2    0    0 -0.13877729109E+03  0.29667067666E+03  0.69399149648E+03  0.77289639653E+03  0.92043553170E+02 0.  0.
         11    1    3    3    0    0 -0.17600215412E+02  0.22400312087E+02  0.14094406295E+03  0.14379419475E+03  0.00000000000E+00 0. -1.
        -11    1    3    3    0    0 -0.12117707568E+03  0.27427036458E+03  0.55304743353E+03  0.62910220178E+03  0.00000000000E+00 0.  1.
         22    1    1    2    0    0  0.13877729109E+03 -0.29667067666E+03 -0.45454751065E+03  0.56025535816E+03  0.00000000000E+00 0.  1.
<mgrwt>
<rscale>  0 0.13114725E+04</rscale>
<asrwt>0</asrwt>
<pdfrwt beam="1">  1        1 0.12096890E+00 0.13114725E+04</pdfrwt>
<pdfrwt beam="2">  1       -1 0.84131366E-01 0.13114725E+04</pdfrwt>
<totfact> 0.31251387E+01</totfact>
</mgrwt>
</event>
<event>
 6    1  0.9906445E-006  0.2818227E+04  0.7818608E-02  0.8297632E-01
          2   -1    0    0  501    0  0.00000000000E+00  0.00000000000E+00  0.23054285023E+04  0.23054285023E+04  0.00000000000E+00 0. -1.
         -2   -1    0    0    0  501 -0.00000000000E+00 -0.00000000000E+00 -0.86127176536E+03  0.86127176536E+03  0.00000000000E+00 0.  1.
         23    2    1    2    0    0  0.11277015185E+04  0.44501409336E+03  0.15266121564E+04  0.19515677011E+04  0.91233533838E+02 0.  0.
         11    1    3    3    0    0  0.73584055397E+03  0.26452941516E+03  0.92441291003E+03  0.12107751073E+04  0.00000000000E+00 0. -1.
        -11    1    3    3    0    0  0.39186096452E+03  0.18048467820E+03  0.60219924637E+03  0.74079259372E+03  0.00000000000E+00 0.  1.
         22    1    1    2    0    0 -0.11277015185E+04 -0.44501409336E+03 -0.82455419505E+02  0.12151325666E+04  0.00000000000E+00 0.  1.
<mgrwt>
<rscale>  0 0.28182267E+04</rscale>
<asrwt>0</asrwt>
<pdfrwt beam="1">  1        2 0.35468131E+00 0.28182267E+04</pdfrwt>
<pdfrwt beam="2">  1       -2 0.13250335E+00 0.28182267E+04</pdfrwt>
<totfact> 0.16181230E+00</totfact>
</mgrwt>
</event>
<event>
 6    1  0.9906445E-006  0.4025079E+03  0.7818608E-02  0.1042915E+00
         -2   -1    0    0    0  501 -0.00000000000E+00  0.00000000000E+00  0.30197240626E+03  0.30197240626E+03  0.00000000000E+00 0.  1.
          2   -1    0    0  501    0  0.00000000000E+00 -0.00000000000E+00 -0.13412864647E+03  0.13412864647E+03  0.00000000000E+00 0. -1.
         23    2    1    2    0    0  0.80234854207E+02  0.69543317636E+02 -0.83824154911E+02  0.16295156225E+03  0.90845020980E+02 0.  0.
         11    1    3    3    0    0  0.81422627576E+02  0.60696314014E+02 -0.26527547258E+02  0.10496379176E+03  0.00000000000E+00 0.  1.
        -11    1    3    3    0    0 -0.11877733695E+01  0.88470036221E+01 -0.57296607653E+02  0.57987770497E+02  0.00000000000E+00 0. -1.
         22    1    1    2    0    0 -0.80234854207E+02 -0.69543317636E+02  0.25166791470E+03  0.27314949047E+03  0.00000000000E+00 0.  1.
<mgrwt>
<rscale>  0 0.40250789E+03</rscale>
<asrwt>0</asrwt>
<pdfrwt beam="1">  1        2 0.20635177E-01 0.40250789E+03</pdfrwt>
<pdfrwt beam="2">  1       -2 0.46457293E-01 0.40250789E+03</pdfrwt>
<totfact> 0.11997984E+03</totfact>
</mgrwt>
</event>
<event>
 6    1  0.9906445E-006  0.2707834E+04  0.7818608E-02  0.8332467E-01
          1   -1    0    0  501    0  0.00000000000E+00  0.00000000000E+00  0.11140968380E+04  0.11140968380E+04  0.00000000000E+00 0. -1.
         -1   -1    0    0    0  501 -0.00000000000E+00 -0.00000000000E+00 -0.16453613727E+04  0.16453613727E+04  0.00000000000E+00 0.  1.
         23    2    1    2    0    0  0.84820666661E+03 -0.98158524912E+03  0.12417771247E+03  0.13059903954E+04  0.85009752730E+02 0.  0.
         11    1    3    3    0    0  0.55005311074E+03 -0.69180031814E+03  0.10083577462E+03  0.88955829390E+03  0.00000000000E+00 0.  1.
        -11    1    3    3    0    0  0.29815355588E+03 -0.28978493099E+03  0.23341937850E+02  0.41643210151E+03  0.00000000000E+00 0. -1.
         22    1    1    2    0    0 -0.84820666661E+03  0.98158524912E+03 -0.65544224717E+03  0.14534678152E+04  0.00000000000E+00 0.  1.
<mgrwt>
<rscale>  0 0.27078345E+04</rscale>
<asrwt>0</asrwt>
<pdfrwt beam="1">  1        1 0.17139951E+00 0.27078345E+04</pdfrwt>
<pdfrwt beam="2">  1       -1 0.25313252E+00 0.27078345E+04</pdfrwt>
<totfact> 0.71802831E-01</totfact>
</mgrwt>
</event>
<event>
 6    1  0.9906445E-006  0.4474875E+03  0.7818608E-02  0.1028474E+00
          2   -1    0    0  501    0  0.00000000000E+00  0.00000000000E+00  0.45853945809E+02  0.45853945809E+02  0.00000000000E+00 0.  1.
         -2   -1    0    0    0  501 -0.00000000000E+00 -0.00000000000E+00 -0.10917547327E+04  0.10917547327E+04  0.00000000000E+00 0. -1.
         23    2    1    2    0    0  0.10972389951E+03  0.17276802413E+03 -0.70612695366E+03  0.74095469575E+03  0.92252166286E+02 0.  0.
         11    1    3    3    0    0  0.89543810648E+02  0.56554331560E+02 -0.36199253682E+03  0.37716718197E+03  0.00000000000E+00 0. -1.
        -11    1    3    3    0    0  0.20180088865E+02  0.11621369257E+03 -0.34413441684E+03  0.36378751378E+03  0.00000000000E+00 0.  1.
         22    1    1    2    0    0 -0.10972389951E+03 -0.17276802413E+03 -0.33977383323E+03  0.39665398275E+03  0.00000000000E+00 0. -1.
<mgrwt>
<rscale>  0 0.44748749E+03</rscale>
<asrwt>0</asrwt>
<pdfrwt beam="1">  1        2 0.70544537E-02 0.44748749E+03</pdfrwt>
<pdfrwt beam="2">  1       -2 0.16796225E+00 0.44748749E+03</pdfrwt>
<totfact> 0.23497354E+02</totfact>
</mgrwt>
</event>
<event>
 6    1  0.9906445E-006  0.2542978E+04  0.7818608E-02  0.8387833E-01
         -2   -1    0    0    0  501 -0.00000000000E+00  0.00000000000E+00  0.17187756547E+04  0.17187756547E+04  0.00000000000E+00 0.  1.
          2   -1    0    0  501    0  0.00000000000E+00 -0.00000000000E+00 -0.94060202244E+03  0.94060202244E+03  0.00000000000E+00 0. -1.
         23    2    1    2    0    0  0.10898113516E+04 -0.62094200832E+03  0.59727556404E+03  0.13921042769E+04  0.89210193689E+02 0.  0.
         11    1    3    3    0    0  0.83297842667E+03 -0.51479439332E+03  0.45164948892E+03  0.10783568925E+04  0.00000000000E+00 0. -1.
        -11    1    3    3    0    0  0.25683292491E+03 -0.10614761500E+03  0.14562607512E+03  0.31374738445E+03  0.00000000000E+00 0.  1.
         22    1    1    2    0    0 -0.10898113516E+04  0.62094200832E+03  0.18089806817E+03  0.12672734002E+04  0.00000000000E+00 0. -1.
<mgrwt>
<rscale>  0 0.25429777E+04</rscale>
<asrwt>0</asrwt>
<pdfrwt beam="1">  1        2 0.14470800E+00 0.25429777E+04</pdfrwt>
<pdfrwt beam="2">  1       -2 0.26442702E+00 0.25429777E+04</pdfrwt>
<totfact> 0.12830044E+00</totfact>
</mgrwt>
</event>
<event>
 6    1  0.9906445E-006  0.2108530E+04  0.7818608E-02  0.8557495E-01
          2   -1    0    0  501    0  0.00000000000E+00  0.00000000000E+00  0.17653405578E+04  0.17653405578E+04  0.00000000000E+00 0. -1.
         -2   -1    0    0    0  501 -0.00000000000E+00 -0.00000000000E+00 -0.62960911504E+03  0.62960911504E+03  0.00000000000E+00 0.  1.
         23    2    1    2    0    0 -0.14817886947E+03  0.99086346461E+03  0.93431666861E+03  0.13730224278E+04  0.92062843218E+02 0.  0.
         11    1    3    3    0    0 -0.10826948734E+03  0.57865536733E+03  0.60241523999E+03  0.84229949388E+03  0.00000000000E+00 0.  1.
        -11    1    3    3    0    0 -0.39909382131E+02  0.41220809729E+03  0.33190142861E+03  0.53072293390E+03  0.00000000000E+00 0. -1.
         22    1    1    2    0    0  0.14817886947E+03 -0.99086346461E+03  0.20141477411E+03  0.10219272450E+04  0.00000000000E+00 0.  1.
<mgrwt>
<rscale>  0 0.21085298E+04</rscale>
<asrwt>0</asrwt>
<pdfrwt beam="1">  1        2 0.27159085E+00 0.21085298E+04</pdfrwt>
<pdfrwt beam="2">  1       -2 0.96862942E-01 0.21085298E+04</pdfrwt>
<totfact> 0.73971287E+00</totfact>
</mgrwt>
</event>
<event>
 6    1  0.9906445E-006  0.9310962E+03  0.7818608E-02  0.9387523E-01
         -1   -1    0    0    0  501 -0.00000000000E+00  0.00000000000E+00  0.14989761475E+03  0.14989761475E+03  0.00000000000E+00 0.  1.
          1   -1    0    0  501    0  0.00000000000E+00 -0.00000000000E+00 -0.14458871433E+04  0.14458871433E+04  0.00000000000E+00 0. -1.
         23    2    1    2    0    0  0.44825679439E+02  0.76757838853E+02 -0.14297063906E+04  0.14352191747E+04  0.88840355979E+02 0.  0.
         11    1    3    3    0    0  0.52628516796E+02  0.45376426036E+02 -0.48430066435E+03  0.48926057915E+03  0.00000000000E+00 0. -1.
        -11    1    3    3    0    0 -0.78028373577E+01  0.31381412817E+02 -0.94540572624E+03  0.94595859558E+03  0.00000000000E+00 0.  1.
         22    1    1    2    0    0 -0.44825679439E+02 -0.76757838853E+02  0.13371686202E+03  0.16056558334E+03  0.00000000000E+00 0.  1.
<mgrwt>
<rscale>  0 0.93109620E+03</rscale>
<asrwt>0</asrwt>
<pdfrwt beam="1">  1        1 0.22244417E+00 0.93109620E+03</pdfrwt>
<pdfrwt beam="2">  1       -1 0.23061172E-01 0.93109620E+03</pdfrwt>
<totfact> 0.11546462E+02</totfact>
</mgrwt>
</event>
<event>
 6    1  0.9906445E-006  0.1656220E+04  0.7818608E-02  0.8786735E-01
         -1   -1    0    0    0  501 -0.00000000000E+00  0.00000000000E+00  0.28514886771E+03  0.28514886771E+03  0.00000000000E+00 0.  1.
          1   -1    0    0  501    0  0.00000000000E+00 -0.00000000000E+00 -0.24049417225E+04  0.24049417225E+04  0.00000000000E+00 0. -1.
         23    2    1    2    0    0 -0.30272978160E+03  0.17058744857E+03 -0.22795111769E+04  0.23076571442E+04  0.91459778753E+02 0.  0.
         11    1    3    3    0    0 -0.16659820804E+03  0.42774588317E+02 -0.11590316921E+04  0.11717248361E+04  0.00000000000E+00 0.  1.
        -11    1    3    3    0    0 -0.13613157356E+03  0.12781286025E+03 -0.11204794849E+04  0.11359323081E+04  0.00000000000E+00 0. -1.
         22    1    1    2    0    0  0.30272978160E+03 -0.17058744857E+03  0.15971832207E+03  0.38243344609E+03  0.00000000000E+00 0.  1.
<mgrwt>
<rscale>  0 0.16562203E+04</rscale>
<asrwt>0</asrwt>
<pdfrwt beam="1">  1        1 0.36999104E+00 0.16562203E+04</pdfrwt>
<pdfrwt beam="2">  1       -1 0.43869056E-01 0.16562203E+04</pdfrwt>
<totfact> 0.77424215E+00</totfact>
</mgrwt>
</event>
<event>
 6    1  0.9906445E-006  0.1740783E+04  0.7818608E-02  0.8738440E-01
          4   -1    0    0  501    0  0.00000000000E+00  0.00000000000E+00  0.46627013091E+03  0.46627013091E+03  0.00000000000E+00 0. -1.
         -4   -1    0    0    0  501 -0.00000000000E+00 -0.00000000000E+00 -0.16247687387E+04  0.16247687387E+04  0.00000000000E+00 0.  1.
         23    2    1    2    0    0  0.67127982486E+03 -0.14572354669E+03 -0.12161459914E+04  0.14017093576E+04  0.11800887894E+03 0.  0.
         11    1    3    3    0    0  0.23931378552E+03 -0.54342819194E+02 -0.55320933684E+03  0.60519814962E+03  0.00000000000E+00 0.  1.
        -11    1    3    3    0    0  0.43196603934E+03 -0.91380727492E+02 -0.66293665454E+03  0.79651120798E+03  0.00000000000E+00 0. -1.
         22    1    1    2    0    0 -0.67127982486E+03  0.14572354669E+03  0.57647383572E+02  0.68932951203E+03  0.00000000000E+00 0. -1.
<mgrwt>
<rscale>  0 0.17407827E+04</rscale>
<asrwt>0</asrwt>
<pdfrwt beam="1">  1        4 0.71733867E-01 0.17407827E+04</pdfrwt>
<pdfrwt beam="2">  1       -4 0.24996442E+00 0.17407827E+04</pdfrwt>
<totfact> 0.21287664E-01</totfact>
</mgrwt>
</event>
<event>
 6    1  0.9906445E-006  0.1732302E+04  0.7818608E-02  0.8743153E-01
         -2   -1    0    0    0  501 -0.00000000000E+00  0.00000000000E+00  0.59103129324E+03  0.59103129324E+03  0.00000000000E+00 0.  1.
          2   -1    0    0  501    0  0.00000000000E+00 -0.00000000000E+00 -0.12693358448E+04  0.12693358448E+04  0.00000000000E+00 0. -1.
         23    2    1    2    0    0  0.38793424111E+03 -0.69641743279E+03  0.16626232370E+02  0.80281382468E+03  0.93506092724E+02 0.  0.
         11    1    3    3    0    0  0.14772661083E+03 -0.17936660923E+03 -0.21852944373E+01  0.23237966254E+03  0.00000000000E+00 0. -1.
        -11    1    3    3    0    0  0.24020763029E+03 -0.51705082356E+03  0.18811526808E+02  0.57043416214E+03  0.00000000000E+00 0.  1.
         22    1    1    2    0    0 -0.38793424111E+03  0.69641743279E+03 -0.69493078393E+03  0.10575533133E+04  0.00000000000E+00 0. -1.
<mgrwt>
<rscale>  0 0.17323016E+04</rscale>
<asrwt>0</asrwt>
<pdfrwt beam="1">  1        2 0.19528244E+00 0.17323016E+04</pdfrwt>
<pdfrwt beam="2">  1       -2 0.90927892E-01 0.17323016E+04</pdfrwt>
<totfact> 0.16879665E+01</totfact>
</mgrwt>
</event>
<event>
 6    1  0.9906445E-006  0.2543811E+04  0.7818608E-02  0.8387542E-01
         -1   -1    0    0    0  501 -0.00000000000E+00  0.00000000000E+00  0.43573587682E+03  0.43573587682E+03  0.00000000000E+00 0.  1.
          1   -1    0    0  501    0  0.00000000000E+00 -0.00000000000E+00 -0.37126704876E+04  0.37126704876E+04  0.00000000000E+00 0. -1.
         23    2    1    2    0    0  0.31750997793E+02 -0.85482767805E+03 -0.10907820613E+03  0.86708762259E+03  0.90578171603E+02 0.  0.
         11    1    3    3    0    0  0.55806025779E+02 -0.40102704791E+03 -0.31936648144E+02  0.40614893225E+03  0.00000000000E+00 0. -1.
        -11    1    3    3    0    0 -0.24055027986E+02 -0.45380063013E+03 -0.77141557984E+02  0.46093869034E+03  0.00000000000E+00 0.  1.
         22    1    1    2    0    0 -0.31750997793E+02  0.85482767805E+03 -0.31678564047E+04  0.32813187419E+04  0.00000000000E+00 0. -1.
<mgrwt>
<rscale>  0 0.25438111E+04</rscale>
<asrwt>0</asrwt>
<pdfrwt beam="1">  1        1 0.57118010E+00 0.25438111E+04</pdfrwt>
<pdfrwt beam="2">  1       -1 0.67036286E-01 0.25438111E+04</pdfrwt>
<totfact> 0.33647638E-01</totfact>
</mgrwt>
</event>
<event>
 6    1  0.9906445E-006  0.1332889E+04  0.7818608E-02  0.9003883E-01
          1   -1    0    0  501    0  0.00000000000E+00  0.00000000000E+00  0.29841993200E+03  0.29841993200E+03  0.00000000000E+00 0.  1.
         -1   -1    0    0    0  501 -0.00000000000E+00 -0.00000000000E+00 -0.14883334594E+04  0.14883334594E+04  0.00000000000E+00 0. -1.
         23    2    1    2    0    0  0.39665685883E+03 -0.35837820754E+02  0.11335831569E+03  0.42398469861E+03  0.91059891659E+02 0.  0.
         13    1    3    3    0    0  0.25644154590E+03  0.17176994105E+01  0.34406620043E+02  0.25874511098E+03  0.00000000000E+00 0. -1.
        -13    1    3    3    0    0  0.14021531294E+03 -0.37555520165E+02  0.78951695648E+02  0.16523958764E+03  0.00000000000E+00 0.  1.
         22    1    1    2    0    0 -0.39665685883E+03  0.35837820754E+02 -0.13032718431E+04  0.13627686928E+04  0.00000000000E+00 0. -1.
<mgrwt>
<rscale>  0 0.13328891E+04</rscale>
<asrwt>0</asrwt>
<pdfrwt beam="1">  1        1 0.45910760E-01 0.13328891E+04</pdfrwt>
<pdfrwt beam="2">  1       -1 0.22897437E+00 0.13328891E+04</pdfrwt>
<totfact> 0.83013159E+00</totfact>
</mgrwt>
</event>
<event>
 6    1  0.9906445E-006  0.2114528E+04  0.7818608E-02  0.8554871E-01
         -2   -1    0    0    0  501 -0.00000000000E+00  0.00000000000E+00  0.88144573440E+03  0.88144573440E+03  0.00000000000E+00 0.  1.
          2   -1    0    0  501    0  0.00000000000E+00 -0.00000000000E+00 -0.12681520033E+04  0.12681520033E+04  0.00000000000E+00 0. -1.
         23    2    1    2    0    0 -0.89356641780E+02  0.33252884261E+03  0.82035890235E+03  0.89438207167E+03  0.91490550631E+02 0.  0.
         11    1    3    3    0    0 -0.30171806176E+02  0.98949036950E+02  0.15155281907E+03  0.18349252511E+03  0.00000000000E+00 0.  1.
        -11    1    3    3    0    0 -0.59184835604E+02  0.23357980566E+03  0.66880608328E+03  0.71088954656E+03  0.00000000000E+00 0. -1.
         22    1    1    2    0    0  0.89356641780E+02 -0.33252884261E+03 -0.12070651712E+04  0.12552156660E+04  0.00000000000E+00 0. -1.
<mgrwt>
<rscale>  0 0.21145280E+04</rscale>
<asrwt>0</asrwt>
<pdfrwt beam="1">  1        2 0.19510031E+00 0.21145280E+04</pdfrwt>
<pdfrwt beam="2">  1       -2 0.13560704E+00 0.21145280E+04</pdfrwt>
<totfact> 0.61960990E+00</totfact>
</mgrwt>
</event>
<event>
 6    1  0.9906445E-006  0.1968293E+04  0.7818608E-02  0.8621590E-01
         -1   -1    0    0    0  501 -0.00000000000E+00  0.00000000000E+00  0.11349225812E+04  0.11349225812E+04  0.00000000000E+00 0.  1.
          1   -1    0    0  501    0  0.00000000000E+00 -0.00000000000E+00 -0.85340105467E+03  0.85340105467E+03  0.00000000000E+00 0. -1.
         23    2    1    2    0    0  0.29595476619E+03 -0.26197768887E+03  0.10493599855E+04  0.11247279944E+04  0.87379340552E+02 0.  0.
         11    1    3    3    0    0  0.21783631305E+03 -0.22089307836E+03  0.72532386176E+03  0.78888599669E+03  0.00000000000E+00 0.  1.
        -11    1    3    3    0    0  0.78118453145E+02 -0.41084610512E+02  0.32403612371E+03  0.33584199769E+03  0.00000000000E+00 0. -1.
         22    1    1    2    0    0 -0.29595476619E+03  0.26197768887E+03 -0.76783845890E+03  0.86359564152E+03  0.00000000000E+00 0. -1.
<mgrwt>
<rscale>  0 0.19682928E+04</rscale>
<asrwt>0</asrwt>
<pdfrwt beam="1">  1        1 0.13129247E+00 0.19682928E+04</pdfrwt>
<pdfrwt beam="2">  1       -1 0.17460347E+00 0.19682928E+04</pdfrwt>
<totfact> 0.42138100E+00</totfact>
</mgrwt>
</event>
<event>
 6    1  0.9906445E-006  0.3189623E+04  0.7818608E-02  0.8191563E-01
         -1   -1    0    0    0  501 -0.00000000000E+00  0.00000000000E+00  0.10748449645E+04  0.10748449645E+04  0.00000000000E+00 0.  1.
          1   -1    0    0  501    0  0.00000000000E+00 -0.00000000000E+00 -0.23663165387E+04  0.23663165387E+04  0.00000000000E+00 0. -1.
         23    2    1    2    0    0 -0.71528567900E+03  0.33089446183E+03  0.84804418884E+03  0.11611061425E+04  0.88677959645E+02 0.  0.
         13    1    3    3    0    0 -0.96991384397E+02  0.31847701741E+02  0.72807048470E+02  0.12538927809E+03  0.00000000000E+00 0. -1.
        -13    1    3    3    0    0 -0.61829429461E+03  0.29904676009E+03  0.77523714037E+03  0.10357168644E+04  0.00000000000E+00 0.  1.
         22    1    1    2    0    0  0.71528567900E+03 -0.33089446183E+03 -0.21395157630E+04  0.22800553606E+04  0.00000000000E+00 0. -1.
<mgrwt>
<rscale>  0 0.31896228E+04</rscale>
<asrwt>0</asrwt>
<pdfrwt beam="1">  1        1 0.36404870E+00 0.31896228E+04</pdfrwt>
<pdfrwt beam="2">  1       -1 0.16536076E+00 0.31896228E+04</pdfrwt>
<totfact> 0.37368099E-01</totfact>
</mgrwt>
</event>
<event>
 6    1  0.9906445E-006  0.1821843E+04  0.7818608E-02  0.8694769E-01
          1   -1    0    0  501    0  0.00000000000E+00  0.00000000000E+00  0.85699608330E+03  0.85699608330E+03  0.00000000000E+00 0. -1.
         -1   -1    0    0    0  501 -0.00000000000E+00 -0.00000000000E+00 -0.96823993770E+03  0.96823993770E+03  0.00000000000E+00 0.  1.
         23    2    1    2    0    0 -0.85893062256E+03 -0.29419283232E+03 -0.92145729071E+02  0.91711930198E+03  0.91135842081E+02 0.  0.
         11    1    3    3    0    0 -0.60881015130E+03 -0.25155803235E+03 -0.64107851013E+02  0.66184670470E+03  0.00000000000E+00 0. -1.
        -11    1    3    3    0    0 -0.25012047127E+03 -0.42634799966E+02 -0.28037878058E+02  0.25527259728E+03  0.00000000000E+00 0.  1.
         22    1    1    2    0    0  0.85893062256E+03  0.29419283232E+03 -0.19098125331E+02  0.90811671902E+03  0.00000000000E+00 0.  1.
<mgrwt>
<rscale>  0 0.18218428E+04</rscale>
<asrwt>0</asrwt>
<pdfrwt beam="1">  1        1 0.13184555E+00 0.18218428E+04</pdfrwt>
<pdfrwt beam="2">  1       -1 0.14895999E+00 0.18218428E+04</pdfrwt>
<totfact> 0.66160986E+00</totfact>
</mgrwt>
</event>
<event>
 6    1  0.9906445E-006  0.4922814E+04  0.7818608E-02  0.7840525E-01
          2   -1    0    0  501    0  0.00000000000E+00  0.00000000000E+00  0.36633089464E+04  0.36633089464E+04  0.00000000000E+00 0. -1.
         -2   -1    0    0    0  501 -0.00000000000E+00 -0.00000000000E+00 -0.16538390988E+04  0.16538390988E+04  0.00000000000E+00 0.  1.
         23    2    1    2    0    0  0.49099523245E+03 -0.20141934658E+04 -0.42648395594E+03  0.21184103927E+04  0.87877136466E+02 0.  0.
         13    1    3    3    0    0  0.40457506071E+02 -0.19527469433E+03 -0.15783691268E+02  0.20004534724E+03  0.00000000000E+00 0. -1.
        -13    1    3    3    0    0  0.45053772637E+03 -0.18189187715E+04 -0.41070026467E+03  0.19183650455E+04  0.00000000000E+00 0.  1.
         22    1    1    2    0    0 -0.49099523245E+03  0.20141934658E+04  0.24359538035E+04  0.31987376524E+04  0.00000000000E+00 0.  1.
<mgrwt>
<rscale>  0 0.49228137E+04</rscale>
<asrwt>0</asrwt>
<pdfrwt beam="1">  1        2 0.56358599E+00 0.49228137E+04</pdfrwt>
<pdfrwt beam="2">  1       -2 0.25443679E+00 0.49228137E+04</pdfrwt>
<totfact> 0.27383582E-02</totfact>
</mgrwt>
</event>
<event>
 6    1  0.9906445E-006  0.9276070E+03  0.7818608E-02  0.9391714E-01
         -1   -1    0    0    0  501 -0.00000000000E+00  0.00000000000E+00  0.89035812067E+02  0.89035812067E+02  0.00000000000E+00 0.  1.
          1   -1    0    0  501    0  0.00000000000E+00 -0.00000000000E+00 -0.24160354410E+04  0.24160354410E+04  0.00000000000E+00 0. -1.
         23    2    1    2    0    0  0.42938338427E+03 -0.12682897625E+03 -0.14398147352E+04  0.15113143836E+04  0.10270839559E+03 0.  0.
         13    1    3    3    0    0  0.84569347756E+01 -0.20191060087E+02 -0.38772302688E+02  0.44525162650E+02  0.00000000000E+00 0. -1.
        -13    1    3    3    0    0  0.42092644950E+03 -0.10663791616E+03 -0.14010424325E+04  0.14667892209E+04  0.00000000000E+00 0.  1.
         22    1    1    2    0    0 -0.42938338427E+03  0.12682897625E+03 -0.88718489374E+03  0.99375686945E+03  0.00000000000E+00 0.  1.
<mgrwt>
<rscale>  0 0.92760698E+03</rscale>
<asrwt>0</asrwt>
<pdfrwt beam="1">  1        1 0.37169779E+00 0.92760698E+03</pdfrwt>
<pdfrwt beam="2">  1       -1 0.13697816E-01 0.92760698E+03</pdfrwt>
<totfact> 0.60319692E+01</totfact>
</mgrwt>
</event>
<event>
 6    1  0.9906445E-006  0.1181882E+04  0.7818608E-02  0.9128864E-01
         -3   -1    0    0    0  501 -0.00000000000E+00  0.00000000000E+00  0.17095726669E+04  0.17095726669E+04  0.00000000000E+00 0.  1.
          3   -1    0    0  501    0  0.00000000000E+00 -0.00000000000E+00 -0.20426831722E+03  0.20426831722E+03  0.00000000000E+00 0. -1.
         23    2    1    2    0    0 -0.55830541719E+03 -0.10179201466E+03  0.51036960897E+03  0.76843202162E+03  0.89129574067E+02 0.  0.
         11    1    3    3    0    0 -0.32118563328E+03 -0.83077778180E+02  0.34570577576E+03  0.47913944906E+03  0.00000000000E+00 0. -1.
        -11    1    3    3    0    0 -0.23711978391E+03 -0.18714236481E+02  0.16466383321E+03  0.28929257255E+03  0.00000000000E+00 0.  1.
         22    1    1    2    0    0  0.55830541719E+03  0.10179201466E+03  0.99493474068E+03  0.11454089625E+04  0.00000000000E+00 0.  1.
<mgrwt>
<rscale>  0 0.11818825E+04</rscale>
<asrwt>0</asrwt>
<pdfrwt beam="1">  1        3 0.31425896E-01 0.11818825E+04</pdfrwt>
<pdfrwt beam="2">  1       -3 0.26301117E+00 0.11818825E+04</pdfrwt>
<totfact> 0.15916356E+00</totfact>
</mgrwt>
</event>
<event>
 6    1  0.9906445E-006  0.2036309E+04  0.7818608E-02  0.8589831E-01
          2   -1    0    0  501    0  0.00000000000E+00  0.00000000000E+00  0.20620395773E+04  0.20620395773E+04  0.00000000000E+00 0. -1.
         -2   -1    0    0    0  501 -0.00000000000E+00 -0.00000000000E+00 -0.50272503681E+03  0.50272503681E+03  0.00000000000E+00 0.  1.
         23    2    1    2    0    0 -0.34737157668E+03  0.73027237241E+03  0.15561440350E+04  0.17560775286E+04  0.90880572810E+02 0.  0.
         13    1    3    3    0    0 -0.30145059081E+03  0.62076573412E+03  0.13898067172E+04  0.15517039881E+04  0.00000000000E+00 0.  1.
        -13    1    3    3    0    0 -0.45920985869E+02  0.10950663829E+03  0.16633731775E+03  0.20437354048E+03  0.00000000000E+00 0. -1.
         22    1    1    2    0    0  0.34737157668E+03 -0.73027237241E+03  0.31705054875E+01  0.80868708552E+03  0.00000000000E+00 0.  1.
<mgrwt>
<rscale>  0 0.20363093E+04</rscale>
<asrwt>0</asrwt>
<pdfrwt beam="1">  1        2 0.31723685E+00 0.20363093E+04</pdfrwt>
<pdfrwt beam="2">  1       -2 0.77342314E-01 0.20363093E+04</pdfrwt>
<totfact> 0.85216108E+00</totfact>
</mgrwt>
</event>
<event>
 6    1  0.9906445E-006  0.2224811E+04  0.7818608E-02  0.8508172E-01
          1   -1    0    0  501    0  0.00000000000E+00  0.00000000000E+00  0.78430414654E+03  0.78430414654E+03  0.00000000000E+00 0. -1.
         -1   -1    0    0    0  501 -0.00000000000E+00 -0.00000000000E+00 -0.15777631636E+04  0.15777631636E+04  0.00000000000E+00 0.  1.
         23    2    1    2    0    0  0.70087833228E+03  0.86139442287E+03 -0.39593484604E+03  0.11825520474E+04  0.91837651130E+02 0.  0.
         11    1    3    3    0    0  0.86101272773E+02  0.13171066384E+03 -0.27479840355E+02  0.15973812872E+03  0.00000000000E+00 0. -1.
        -11    1    3    3    0    0  0.61477705951E+03  0.72968375903E+03 -0.36845500569E+03  0.10228139187E+04  0.00000000000E+00 0.  1.
         22    1    1    2    0    0 -0.70087833228E+03 -0.86139442287E+03 -0.39752417100E+03  0.11795152627E+04  0.00000000000E+00 0. -1.
<mgrwt>
<rscale>  0 0.22248112E+04</rscale>
<asrwt>0</asrwt>
<pdfrwt beam="1">  1        1 0.12066218E+00 0.22248112E+04</pdfrwt>
<pdfrwt beam="2">  1       -1 0.24273279E+00 0.22248112E+04</pdfrwt>
<totfact> 0.16150671E+00</totfact>
</mgrwt>
</event>
<event>
 6    1  0.9906445E-006  0.5309009E+04  0.7818608E-02  0.7782531E-01
          2   -1    0    0  501    0  0.00000000000E+00  0.00000000000E+00  0.39257203506E+04  0.39257203506E+04  0.00000000000E+00 0. -1.
         -2   -1    0    0    0  501 -0.00000000000E+00 -0.00000000000E+00 -0.17949301291E+04  0.17949301291E+04  0.00000000000E+00 0.  1.
         23    2    1    2    0    0 -0.20951881541E+04 -0.82025261617E+03  0.25817902458E+04  0.34258675320E+04  0.91102786551E+02 0.  0.
         13    1    3    3    0    0 -0.63235566646E+03 -0.29201490296E+03  0.81033886762E+03  0.10685483016E+04  0.00000000000E+00 0. -1.
        -13    1    3    3    0    0 -0.14628324876E+04 -0.52823771322E+03  0.17714513782E+04  0.23573192304E+04  0.00000000000E+00 0.  1.
         22    1    1    2    0    0  0.20951881541E+04  0.82025261617E+03 -0.45100002441E+03  0.22947829478E+04  0.00000000000E+00 0.  1.
<mgrwt>
<rscale>  0 0.53090088E+04</rscale>
<asrwt>0</asrwt>
<pdfrwt beam="1">  1        2 0.60395698E+00 0.53090088E+04</pdfrwt>
<pdfrwt beam="2">  1       -2 0.27614310E+00 0.53090088E+04</pdfrwt>
<totfact> 0.12337137E-02</totfact>
</mgrwt>
</event>
<event>
 6    1  0.9906445E-006  0.3473727E+04  0.7818608E-02  0.8120045E-01
          1   -1    0    0  501    0  0.00000000000E+00  0.00000000000E+00  0.23983231530E+04  0.23983231530E+04  0.00000000000E+00 0. -1.
         -1   -1    0    0    0  501 -0.00000000000E+00 -0.00000000000E+00 -0.12578347185E+04  0.12578347185E+04  0.00000000000E+00 0.  1.
         23    2    1    2    0    0  0.15381577265E+04  0.60678967797E+03  0.11259058187E+04  0.20025752283E+04  0.92307786508E+02 0.  0.
         11    1    3    3    0    0  0.85603310373E+03  0.28829788774E+03  0.61521312788E+03  0.10928840467E+04  0.00000000000E+00 0. -1.
        -11    1    3    3    0    0  0.68212462278E+03  0.31849179024E+03  0.51069269087E+03  0.90969118164E+03  0.00000000000E+00 0.  1.
         22    1    1    2    0    0 -0.15381577265E+04 -0.60678967797E+03  0.14582615750E+02  0.16535826431E+04  0.00000000000E+00 0.  1.
<mgrwt>
<rscale>  0 0.34737266E+04</rscale>
<asrwt>0</asrwt>
<pdfrwt beam="1">  1        1 0.36897279E+00 0.34737266E+04</pdfrwt>
<pdfrwt beam="2">  1       -1 0.19351303E+00 0.34737266E+04</pdfrwt>
<totfact> 0.21743719E-01</totfact>
</mgrwt>
</event>
<event>
 6    1  0.9906445E-006  0.4117080E+04  0.7818608E-02  0.7981335E-01
          2   -1    0    0  501    0  0.00000000000E+00  0.00000000000E+00  0.26498917332E+04  0.26498917332E+04  0.00000000000E+00 0. -1.
         -2   -1    0    0    0  501 -0.00000000000E+00 -0.00000000000E+00 -0.15991547756E+04  0.15991547756E+04  0.00000000000E+00 0.  1.
         23    2    1    2    0    0 -0.17084674430E+04 -0.47877868790E+03  0.16008415498E+04  0.23914391504E+04  0.90540084999E+02 0.  0.
         13    1    3    3    0    0 -0.79519048577E+03 -0.26689593641E+03  0.77695127378E+03  0.11433348728E+04  0.00000000000E+00 0.  1.
        -13    1    3    3    0    0 -0.91327695719E+03 -0.21188275149E+03  0.82389027600E+03  0.12481042776E+04  0.00000000000E+00 0. -1.
         22    1    1    2    0    0  0.17084674430E+04  0.47877868790E+03 -0.55010459220E+03  0.18576073584E+04  0.00000000000E+00 0.  1.
<mgrwt>
<rscale>  0 0.41170800E+04</rscale>
<asrwt>0</asrwt>
<pdfrwt beam="1">  1        2 0.40767565E+00 0.41170800E+04</pdfrwt>
<pdfrwt beam="2">  1       -2 0.24602381E+00 0.41170800E+04</pdfrwt>
<totfact> 0.15109048E-01</totfact>
</mgrwt>
</event>
<event>
 6    1  0.9906445E-006  0.3089790E+04  0.7818608E-02  0.8218545E-01
         -2   -1    0    0    0  501 -0.00000000000E+00  0.00000000000E+00  0.20170836139E+04  0.20170836139E+04  0.00000000000E+00 0.  1.
          2   -1    0    0  501    0  0.00000000000E+00 -0.00000000000E+00 -0.11832435297E+04  0.11832435297E+04  0.00000000000E+00 0. -1.
         23    2    1    2    0    0 -0.30332451134E+03 -0.74549528067E+03 -0.94589626345E+03  0.12470656557E+04  0.11262342473E+03 0.  0.
         13    1    3    3    0    0 -0.19955722566E+03 -0.34548012208E+03 -0.44379800953E+03  0.59677154283E+03  0.00000000000E+00 0.  1.
        -13    1    3    3    0    0 -0.10376728568E+03 -0.40001515859E+03 -0.50209825392E+03  0.65029411290E+03  0.00000000000E+00 0. -1.
         22    1    1    2    0    0  0.30332451134E+03  0.74549528067E+03  0.17797363477E+04  0.19532614879E+04  0.00000000000E+00 0.  1.
<mgrwt>
<rscale>  0 0.30897904E+04</rscale>
<asrwt>0</asrwt>
<pdfrwt beam="1">  1        2 0.18203747E+00 0.30897904E+04</pdfrwt>
<pdfrwt beam="2">  1       -2 0.31032056E+00 0.30897904E+04</pdfrwt>
<totfact> 0.45241938E-01</totfact>
</mgrwt>
</event>
<event>
 6    1  0.9906445E-006  0.2286791E+04  0.7818608E-02  0.8483148E-01
          2   -1    0    0  501    0  0.00000000000E+00  0.00000000000E+00  0.32393461337E+04  0.32393461337E+04  0.00000000000E+00 0.  1.
         -2   -1    0    0    0  501 -0.00000000000E+00 -0.00000000000E+00 -0.40358541628E+03  0.40358541628E+03  0.00000000000E+00 0. -1.
         23    2    1    2    0    0 -0.84723675581E+02 -0.10762180359E+04  0.20126912905E+04  0.22854093058E+04  0.82134658815E+02 0.  0.
         11    1    3    3    0    0 -0.24162347730E+02 -0.74201070465E+03  0.13447891781E+04  0.15361059984E+04  0.00000000000E+00 0. -1.
        -11    1    3    3    0    0 -0.60561327851E+02 -0.33420733123E+03  0.66790211238E+03  0.74930330735E+03  0.00000000000E+00 0.  1.
         22    1    1    2    0    0  0.84723675581E+02  0.10762180359E+04  0.82306942695E+03  0.13575222442E+04  0.00000000000E+00 0. -1.
<mgrwt>
<rscale>  0 0.22867906E+04</rscale>
<asrwt>0</asrwt>
<pdfrwt beam="1">  1        2 0.49836093E+00 0.22867906E+04</pdfrwt>
<pdfrwt beam="2">  1       -2 0.62090066E-01 0.22867906E+04</pdfrwt>
<totfact> 0.26751711E+00</totfact>
</mgrwt>
</event>
<event>
 6    1  0.9906445E-006  0.3501220E+03  0.7818608E-02  0.1062565E+00
         -1   -1    0    0    0  501 -0.00000000000E+00  0.00000000000E+00  0.30028937244E+02  0.30028937244E+02  0.00000000000E+00 0.  1.
          1   -1    0    0  501    0  0.00000000000E+00 -0.00000000000E+00 -0.10205607811E+04  0.10205607811E+04  0.00000000000E+00 0. -1.
         23    2    1    2    0    0  0.14318223952E+03  0.54604887032E+02 -0.35980573827E+03  0.40151478610E+03  0.90945625298E+02 0.  0.
         11    1    3    3    0    0  0.35041835503E+02  0.55168076934E+02 -0.93390672601E+02  0.11398800234E+03  0.00000000000E+00 0. -1.
        -11    1    3    3    0    0  0.10814040402E+03 -0.56318990120E+00 -0.26641506567E+03  0.28752678376E+03  0.00000000000E+00 0.  1.
         22    1    1    2    0    0 -0.14318223952E+03 -0.54604887032E+02 -0.63072610554E+03  0.64907493220E+03  0.00000000000E+00 0. -1.
<mgrwt>
<rscale>  0 0.35012201E+03</rscale>
<asrwt>0</asrwt>
<pdfrwt beam="1">  1        1 0.15700933E+00 0.35012201E+03</pdfrwt>
<pdfrwt beam="2">  1       -1 0.46198373E-02 0.35012201E+03</pdfrwt>
<totfact> 0.30670095E+03</totfact>
</mgrwt>
</event>
<event>
 6    1  0.9906445E-006  0.1511711E+04  0.7818608E-02  0.8876702E-01
         -1   -1    0    0    0  501 -0.00000000000E+00  0.00000000000E+00  0.29447819675E+03  0.29447819675E+03  0.00000000000E+00 0.  1.
          1   -1    0    0  501    0  0.00000000000E+00 -0.00000000000E+00 -0.19401015107E+04  0.19401015107E+04  0.00000000000E+00 0. -1.
         23    2    1    2    0    0  0.51826846900E+03 -0.48463516615E+03 -0.45313795327E+03  0.84695771799E+03  0.92357572140E+02 0.  0.
         11    1    3    3    0    0  0.34618124835E+03 -0.33845611307E+03 -0.35708104173E+03  0.60158197076E+03  0.00000000000E+00 0. -1.
        -11    1    3    3    0    0  0.17208722065E+03 -0.14617905308E+03 -0.96056911540E+02  0.24537574722E+03  0.00000000000E+00 0.  1.
         22    1    1    2    0    0 -0.51826846900E+03  0.48463516615E+03 -0.11924853607E+04  0.13876219895E+04  0.00000000000E+00 0. -1.
<mgrwt>
<rscale>  0 0.15117111E+04</rscale>
<asrwt>0</asrwt>
<pdfrwt beam="1">  1        1 0.29847716E+00 0.15117111E+04</pdfrwt>
<pdfrwt beam="2">  1       -1 0.45304337E-01 0.15117111E+04</pdfrwt>
<totfact> 0.15301410E+01</totfact>
</mgrwt>
</event>
<event>
 6    1  0.9906445E-006  0.5959327E+03  0.7818608E-02  0.9913881E-01
          1   -1    0    0  501    0  0.00000000000E+00  0.00000000000E+00  0.17179240444E+03  0.17179240444E+03  0.00000000000E+00 0. -1.
         -1   -1    0    0    0  501 -0.00000000000E+00 -0.00000000000E+00 -0.51680944208E+03  0.51680944208E+03  0.00000000000E+00 0.  1.
         23    2    1    2    0    0  0.10749503278E+03 -0.22492433386E+03 -0.27593119918E+01  0.26517949379E+03  0.90368202858E+02 0.  0.
         11    1    3    3    0    0  0.94764504722E+01 -0.61047942892E+02 -0.35779962649E+02  0.71392297709E+02  0.00000000000E+00 0. -1.
        -11    1    3    3    0    0  0.98018582307E+02 -0.16387639097E+03  0.33020650657E+02  0.19378719608E+03  0.00000000000E+00 0.  1.
         22    1    1    2    0    0 -0.10749503278E+03  0.22492433386E+03 -0.34225772564E+03  0.42342235274E+03  0.00000000000E+00 0.  1.
<mgrwt>
<rscale>  0 0.59593267E+03</rscale>
<asrwt>0</asrwt>
<pdfrwt beam="1">  1        1 0.26429601E-01 0.59593267E+03</pdfrwt>
<pdfrwt beam="2">  1       -1 0.79509144E-01 0.59593267E+03</pdfrwt>
<totfact> 0.29135322E+02</totfact>
</mgrwt>
</event>
<event>
 6    1  0.9906445E-006  0.3180312E+04  0.7818608E-02  0.8194036E-01
          2   -1    0    0  501    0  0.00000000000E+00  0.00000000000E+00  0.87699222463E+03  0.87699222463E+03  0.00000000000E+00 0. -1.
         -2   -1    0    0    0  501 -0.00000000000E+00 -0.00000000000E+00 -0.28832600690E+04  0.28832600690E+04  0.00000000000E+00 0.  1.
         23    2    1    2    0    0  0.28499528967E+03 -0.13335565869E+04 -0.19681429431E+04  0.23960495984E+04  0.88721743314E+02 0.  0.
         13    1    3    3    0    0  0.99904952208E+02 -0.41663577516E+03 -0.54993162925E+03  0.69713066599E+03  0.00000000000E+00 0. -1.
        -13    1    3    3    0    0  0.18509033747E+03 -0.91692081172E+03 -0.14182113139E+04  0.16989189324E+04  0.00000000000E+00 0.  1.
         22    1    1    2    0    0 -0.28499528967E+03  0.13335565869E+04 -0.38124901206E+02  0.13642026952E+04  0.00000000000E+00 0. -1.
<mgrwt>
<rscale>  0 0.31803124E+04</rscale>
<asrwt>0</asrwt>
<pdfrwt beam="1">  1        2 0.13492188E+00 0.31803124E+04</pdfrwt>
<pdfrwt beam="2">  1       -2 0.44357848E+00 0.31803124E+04</pdfrwt>
<totfact> 0.98006961E-02</totfact>
</mgrwt>
</event>
<event>
 6    1  0.9906445E-006  0.3768675E+04  0.7818608E-02  0.8052911E-01
          2   -1    0    0  501    0  0.00000000000E+00  0.00000000000E+00  0.18571148779E+04  0.18571148779E+04  0.00000000000E+00 0. -1.
         -2   -1    0    0    0  501 -0.00000000000E+00 -0.00000000000E+00 -0.19119595998E+04  0.19119595998E+04  0.00000000000E+00 0.  1.
         23    2    1    2    0    0  0.44508571526E+03 -0.17383046580E+04  0.54442476013E+03  0.18772689142E+04  0.89083549531E+02 0.  0.
         11    1    3    3    0    0  0.44333780147E+03 -0.17089546486E+04  0.52462381853E+03  0.18418209870E+04  0.00000000000E+00 0.  1.
        -11    1    3    3    0    0  0.17479137867E+01 -0.29350009478E+02  0.19800941605E+02  0.35447927266E+02  0.00000000000E+00 0. -1.
         22    1    1    2    0    0 -0.44508571526E+03  0.17383046580E+04 -0.59926948204E+03  0.18918055635E+04  0.00000000000E+00 0.  1.
<mgrwt>
<rscale>  0 0.37686754E+04</rscale>
<asrwt>0</asrwt>
<pdfrwt beam="1">  1        2 0.28570998E+00 0.37686754E+04</pdfrwt>
<pdfrwt beam="2">  1       -2 0.29414763E+00 0.37686754E+04</pdfrwt>
<totfact> 0.22255621E-01</totfact>
</mgrwt>
</event>
<event>
 6    1  0.9906445E-006  0.1603955E+04  0.7818608E-02  0.8818122E-01
          2   -1    0    0  501    0  0.00000000000E+00  0.00000000000E+00  0.11292358567E+04  0.11292358567E+04  0.00000000000E+00 0. -1.
         -2   -1    0    0    0  501 -0.00000000000E+00 -0.00000000000E+00 -0.56956010736E+03  0.56956010736E+03  0.00000000000E+00 0.  1.
         23    2    1    2    0    0  0.21162344963E+03 -0.58564292803E+03 -0.25066678192E+03  0.67682867419E+03  0.86608862483E+02 0.  0.
         13    1    3    3    0    0  0.12786362461E+03 -0.36382963545E+03 -0.19981740888E+03  0.43433639845E+03  0.00000000000E+00 0.  1.
        -13    1    3    3    0    0  0.83759825013E+02 -0.22181329258E+03 -0.50849373039E+02  0.24249227573E+03  0.00000000000E+00 0. -1.
         22    1    1    2    0    0 -0.21162344963E+03  0.58564292803E+03  0.81034253126E+03  0.10219672899E+04  0.00000000000E+00 0. -1.
<mgrwt>
<rscale>  0 0.16039547E+04</rscale>
<asrwt>0</asrwt>
<pdfrwt beam="1">  1        2 0.17372859E+00 0.16039547E+04</pdfrwt>
<pdfrwt beam="2">  1       -2 0.87624632E-01 0.16039547E+04</pdfrwt>
<totfact> 0.22526061E+01</totfact>
</mgrwt>
</event>
<event>
 6    1  0.9906445E-006  0.3824834E+03  0.7818608E-02  0.1050020E+00
          1   -1    0    0  501    0  0.00000000000E+00  0.00000000000E+00  0.16807956643E+03  0.16807956643E+03  0.00000000000E+00 0. -1.
         -1   -1    0    0    0  501 -0.00000000000E+00 -0.00000000000E+00 -0.21759567094E+03  0.21759567094E+03  0.00000000000E+00 0.  1.
         23    2    1    2    0    0  0.46706438792E+02 -0.53000339687E+02 -0.19366660892E+03  0.22514519235E+03  0.90515605272E+02 0.  0.
         13    1    3    3    0    0  0.57965304385E+01 -0.60665591362E+02 -0.61502733315E+02  0.86582330447E+02  0.00000000000E+00 0. -1.
        -13    1    3    3    0    0  0.40909908353E+02  0.76652516755E+01 -0.13216387561E+03  0.13856286191E+03  0.00000000000E+00 0.  1.
         22    1    1    2    0    0 -0.46706438792E+02  0.53000339687E+02  0.14415050441E+03  0.16053004501E+03  0.00000000000E+00 0. -1.
<mgrwt>
<rscale>  0 0.38248339E+03</rscale>
<asrwt>0</asrwt>
<pdfrwt beam="1">  1        1 0.25858395E-01 0.38248339E+03</pdfrwt>
<pdfrwt beam="2">  1       -1 0.33476257E-01 0.38248339E+03</pdfrwt>
<totfact> 0.15559416E+03</totfact>
</mgrwt>
</event>
<event>
 6    1  0.9906445E-006  0.2242977E+04  0.7818608E-02  0.8500750E-01
          2   -1    0    0  501    0  0.00000000000E+00  0.00000000000E+00  0.16307764144E+04  0.16307764144E+04  0.00000000000E+00 0. -1.
         -2   -1    0    0    0  501 -0.00000000000E+00 -0.00000000000E+00 -0.77124989414E+03  0.77124989414E+03  0.00000000000E+00 0.  1.
         23    2    1    2    0    0 -0.23238309866E+03 -0.43150386630E+03 -0.64783779341E+03  0.81698855967E+03  0.87057503283E+02 0.  0.
         11    1    3    3    0    0 -0.58541863223E+02 -0.19591412215E+03 -0.24827379367E+03  0.32163546078E+03  0.00000000000E+00 0. -1.
        -11    1    3    3    0    0 -0.17384123544E+03 -0.23558974415E+03 -0.39956399974E+03  0.49535309889E+03  0.00000000000E+00 0.  1.
         22    1    1    2    0    0  0.23238309866E+03  0.43150386630E+03  0.15073643137E+04  0.15850377488E+04  0.00000000000E+00 0. -1.
<mgrwt>
<rscale>  0 0.22429767E+04</rscale>
<asrwt>0</asrwt>
<pdfrwt beam="1">  1        2 0.25088868E+00 0.22429767E+04</pdfrwt>
<pdfrwt beam="2">  1       -2 0.11865383E+00 0.22429767E+04</pdfrwt>
<totfact> 0.53321359E+00</totfact>
</mgrwt>
</event>
<event>
 6    1  0.9906445E-006  0.2995596E+04  0.7818608E-02  0.8244990E-01
          2   -1    0    0  501    0  0.00000000000E+00  0.00000000000E+00  0.19510031300E+04  0.19510031300E+04  0.00000000000E+00 0. -1.
         -2   -1    0    0    0  501 -0.00000000000E+00 -0.00000000000E+00 -0.11498693079E+04  0.11498693079E+04  0.00000000000E+00 0.  1.
         23    2    1    2    0    0  0.41318129146E+03  0.12927693075E+04 -0.25134147184E+03  0.13834105005E+04  0.93170894319E+02 0.  0.
         13    1    3    3    0    0  0.30660767109E+03  0.95639083121E+03 -0.22729063127E+03  0.10297342944E+04  0.00000000000E+00 0.  1.
        -13    1    3    3    0    0  0.10657362037E+03  0.33637847624E+03 -0.24050840570E+02  0.35367620611E+03  0.00000000000E+00 0. -1.
         22    1    1    2    0    0 -0.41318129146E+03 -0.12927693075E+04  0.10524752940E+04  0.17174619374E+04  0.00000000000E+00 0. -1.
<mgrwt>
<rscale>  0 0.29955958E+04</rscale>
<asrwt>0</asrwt>
<pdfrwt beam="1">  1        2 0.30015433E+00 0.29955958E+04</pdfrwt>
<pdfrwt beam="2">  1       -2 0.17690297E+00 0.29955958E+04</pdfrwt>
<totfact> 0.11608475E+00</totfact>
</mgrwt>
</event>
<event>
 6    1  0.9906445E-006  0.3069363E+04  0.7818608E-02  0.8224197E-01
         -2   -1    0    0    0  501 -0.00000000000E+00  0.00000000000E+00  0.95211522044E+03  0.95211522044E+03  0.00000000000E+00 0.  1.
          2   -1    0    0  501    0  0.00000000000E+00 -0.00000000000E+00 -0.24736998433E+04  0.24736998433E+04  0.00000000000E+00 0. -1.
         23    2    1    2    0    0  0.90744790158E+03  0.12331982632E+04 -0.85196795282E+03  0.17546998268E+04  0.94246692517E+02 0.  0.
         11    1    3    3    0    0  0.67393951423E+03  0.91132535352E+03 -0.67712530353E+03  0.13203056637E+04  0.00000000000E+00 0. -1.
        -11    1    3    3    0    0  0.23350838735E+03  0.32187290967E+03 -0.17484264929E+03  0.43439416312E+03  0.00000000000E+00 0.  1.
         22    1    1    2    0    0 -0.90744790158E+03 -0.12331982632E+04 -0.66961667005E+03  0.16711152370E+04  0.00000000000E+00 0. -1.
<mgrwt>
<rscale>  0 0.30693630E+04</rscale>
<asrwt>0</asrwt>
<pdfrwt beam="1">  1        2 0.38056920E+00 0.30693630E+04</pdfrwt>
<pdfrwt beam="2">  1       -2 0.14647927E+00 0.30693630E+04</pdfrwt>
<totfact> 0.97887215E-01</totfact>
</mgrwt>
</event>
<event>
 6    1  0.9906445E-006  0.2561270E+04  0.7818608E-02  0.8381477E-01
         -2   -1    0    0    0  501 -0.00000000000E+00  0.00000000000E+00  0.28689682499E+04  0.28689682499E+04  0.00000000000E+00 0.  1.
          2   -1    0    0  501    0  0.00000000000E+00 -0.00000000000E+00 -0.57164332057E+03  0.57164332057E+03  0.00000000000E+00 0. -1.
         23    2    1    2    0    0  0.28255040968E+03  0.39786804769E+03  0.27387202634E+04  0.27826119061E+04  0.64858474028E+02 0.  0.
         13    1    3    3    0    0  0.89517863874E+02  0.78281332594E+02  0.66620121875E+03  0.67673146731E+03  0.00000000000E+00 0.  1.
        -13    1    3    3    0    0  0.19303254581E+03  0.31958671510E+03  0.20725190446E+04  0.21058804388E+04  0.00000000000E+00 0. -1.
         22    1    1    2    0    0 -0.28255040968E+03 -0.39786804769E+03 -0.44139533404E+03  0.65799966436E+03  0.00000000000E+00 0. -1.
<mgrwt>
<rscale>  0 0.25612704E+04</rscale>
<asrwt>0</asrwt>
<pdfrwt beam="1">  1        2 0.87945128E-01 0.25612704E+04</pdfrwt>
<pdfrwt beam="2">  1       -2 0.44137972E+00 0.25612704E+04</pdfrwt>
<totfact> 0.18453119E-01</totfact>
</mgrwt>
</event>
<event>
 6    1  0.9906445E-006  0.1294141E+04  0.7818608E-02  0.9034224E-01
          2   -1    0    0  501    0  0.00000000000E+00  0.00000000000E+00  0.15526574783E+04  0.15526574783E+04  0.00000000000E+00 0. -1.
         -2   -1    0    0    0  501 -0.00000000000E+00 -0.00000000000E+00 -0.26966702608E+03  0.26966702608E+03  0.00000000000E+00 0.  1.
         23    2    1    2    0    0  0.60295630748E+03  0.11241346135E+02  0.96240990291E+03  0.11393497134E+04  0.90566393005E+02 0.  0.
         13    1    3    3    0    0  0.34411575180E+03 -0.33227279778E+02  0.50737971365E+03  0.61396569658E+03  0.00000000000E+00 0. -1.
        -13    1    3    3    0    0  0.25884055568E+03  0.44468625913E+02  0.45503018926E+03  0.52538401679E+03  0.00000000000E+00 0.  1.
         22    1    1    2    0    0 -0.60295630748E+03 -0.11241346135E+02  0.32058054936E+03  0.68297479106E+03  0.00000000000E+00 0.  1.
<mgrwt>
<rscale>  0 0.12941415E+04</rscale>
<asrwt>0</asrwt>
<pdfrwt beam="1">  1        2 0.23887038E+00 0.12941415E+04</pdfrwt>
<pdfrwt beam="2">  1       -2 0.41487236E-01 0.12941415E+04</pdfrwt>
<totfact> 0.63965676E+01</totfact>
</mgrwt>
</event>
<event>
 6    1  0.9906445E-006  0.3107161E+04  0.7818608E-02  0.8213775E-01
         -1   -1    0    0    0  501 -0.00000000000E+00  0.00000000000E+00  0.11669297357E+04  0.11669297357E+04  0.00000000000E+00 0.  1.
          1   -1    0    0  501    0  0.00000000000E+00 -0.00000000000E+00 -0.20683446359E+04  0.20683446359E+04  0.00000000000E+00 0. -1.
         23    2    1    2    0    0  0.41495072957E+03 -0.11542220058E+04 -0.14416521595E+04  0.18950248266E+04  0.91354242966E+02 0.  0.
         13    1    3    3    0    0  0.16978208636E+03 -0.39911652005E+03 -0.45469156221E+03  0.62838234394E+03  0.00000000000E+00 0. -1.
        -13    1    3    3    0    0  0.24516864320E+03 -0.75510548573E+03 -0.98696059734E+03  0.12666424827E+04  0.00000000000E+00 0.  1.
         22    1    1    2    0    0 -0.41495072957E+03  0.11542220058E+04  0.54023725932E+03  0.13402495450E+04  0.00000000000E+00 0.  1.
<mgrwt>
<rscale>  0 0.31071613E+04</rscale>
<asrwt>0</asrwt>
<pdfrwt beam="1">  1        1 0.31820687E+00 0.31071613E+04</pdfrwt>
<pdfrwt beam="2">  1       -1 0.17952765E+00 0.31071613E+04</pdfrwt>
<totfact> 0.47365896E-01</totfact>
</mgrwt>
</event>
<event>
 6    1  0.9906445E-006  0.7848597E+03  0.7818608E-02  0.9582194E-01
         -2   -1    0    0    0  501 -0.00000000000E+00  0.00000000000E+00  0.17073437079E+03  0.17073437079E+03  0.00000000000E+00 0.  1.
          2   -1    0    0  501    0  0.00000000000E+00 -0.00000000000E+00 -0.90199289955E+03  0.90199289955E+03  0.00000000000E+00 0. -1.
         23    2    1    2    0    0 -0.33633077210E+03  0.10196296358E+03 -0.14852259126E+03  0.39221569289E+03  0.90880995956E+02 0.  0.
         11    1    3    3    0    0 -0.50108234350E+02  0.51833137700E+02 -0.36323634746E+02  0.80727416376E+02  0.00000000000E+00 0. -1.
        -11    1    3    3    0    0 -0.28622253775E+03  0.50129825878E+02 -0.11219895652E+03  0.31148827651E+03  0.00000000000E+00 0.  1.
         22    1    1    2    0    0  0.33633077210E+03 -0.10196296358E+03 -0.58273593749E+03  0.68051157745E+03  0.00000000000E+00 0. -1.
<mgrwt>
<rscale>  0 0.78485971E+03</rscale>
<asrwt>0</asrwt>
<pdfrwt beam="1">  1        2 0.13876814E+00 0.78485971E+03</pdfrwt>
<pdfrwt beam="2">  1       -2 0.26266826E-01 0.78485971E+03</pdfrwt>
<totfact> 0.38480920E+02</totfact>
</mgrwt>
</event>
<event>
 6    1  0.9906445E-006  0.3883029E+04  0.7818608E-02  0.8028568E-01
          2   -1    0    0  501    0  0.00000000000E+00  0.00000000000E+00  0.23193161105E+04  0.23193161105E+04  0.00000000000E+00 0. -1.
         -2   -1    0    0    0  501 -0.00000000000E+00 -0.00000000000E+00 -0.16252545261E+04  0.16252545261E+04  0.00000000000E+00 0.  1.
         23    2    1    2    0    0  0.69319886746E+03 -0.12284470479E+04  0.17009104737E+04  0.22115526029E+04  0.90893656241E+02 0.  0.
         13    1    3    3    0    0  0.56469813960E+03 -0.94851343421E+03  0.13716633172E+04  0.17606879279E+04  0.00000000000E+00 0.  1.
        -13    1    3    3    0    0  0.12850072786E+03 -0.27993361367E+03  0.32924715641E+03  0.45086467496E+03  0.00000000000E+00 0. -1.
         22    1    1    2    0    0 -0.69319886746E+03  0.12284470479E+04 -0.10068488892E+04  0.17330180337E+04  0.00000000000E+00 0.  1.
<mgrwt>
<rscale>  0 0.38830292E+04</rscale>
<asrwt>0</asrwt>
<pdfrwt beam="1">  1        2 0.35681787E+00 0.38830292E+04</pdfrwt>
<pdfrwt beam="2">  1       -2 0.25003916E+00 0.38830292E+04</pdfrwt>
<totfact> 0.22611269E-01</totfact>
</mgrwt>
</event>
<event>
 6    1  0.9906445E-006  0.1267726E+04  0.7818608E-02  0.9055557E-01
          2   -1    0    0  501    0  0.00000000000E+00  0.00000000000E+00  0.15511194713E+04  0.15511194713E+04  0.00000000000E+00 0.  1.
         -2   -1    0    0    0  501 -0.00000000000E+00 -0.00000000000E+00 -0.25902746164E+03  0.25902746164E+03  0.00000000000E+00 0. -1.
         23    2    1    2    0    0 -0.18130833266E+03 -0.54698388011E+03  0.10151374284E+04  0.11707973285E+04  0.90544515419E+02 0.  0.
         11    1    3    3    0    0 -0.15216122103E+03 -0.52423724564E+03  0.93848662122E+03  0.10856955674E+04  0.00000000000E+00 0.  1.
        -11    1    3    3    0    0 -0.29147111632E+02 -0.22746634462E+02  0.76650807197E+02  0.85101761085E+02  0.00000000000E+00 0. -1.
         22    1    1    2    0    0  0.18130833266E+03  0.54698388011E+03  0.27695458120E+03  0.63934960439E+03  0.00000000000E+00 0. -1.
<mgrwt>
<rscale>  0 0.12677264E+04</rscale>
<asrwt>0</asrwt>
<pdfrwt beam="1">  1        2 0.23863376E+00 0.12677264E+04</pdfrwt>
<pdfrwt beam="2">  1       -2 0.39850380E-01 0.12677264E+04</pdfrwt>
<totfact> 0.69493706E+01</totfact>
</mgrwt>
</event>
<event>
 6    1  0.9906445E-006  0.1544735E+04  0.7818608E-02  0.8855238E-01
         -2   -1    0    0    0  501 -0.00000000000E+00  0.00000000000E+00  0.54996898079E+03  0.54996898079E+03  0.00000000000E+00 0.  1.
          2   -1    0    0  501    0  0.00000000000E+00 -0.00000000000E+00 -0.10847004959E+04  0.10847004959E+04  0.00000000000E+00 0. -1.
         23    2    1    2    0    0  0.49005388121E+03 -0.57838056599E+03 -0.12972679629E+03  0.77518957122E+03  0.97020328038E+02 0.  0.
         11    1    3    3    0    0  0.12928167908E+03 -0.11881060590E+03  0.47658181119E+01  0.17564858565E+03  0.00000000000E+00 0.  1.
        -11    1    3    3    0    0  0.36077220213E+03 -0.45956996010E+03 -0.13449261440E+03  0.59954098557E+03  0.00000000000E+00 0. -1.
         22    1    1    2    0    0 -0.49005388121E+03  0.57838056599E+03 -0.40500471880E+03  0.85947990544E+03  0.00000000000E+00 0.  1.
<mgrwt>
<rscale>  0 0.15447351E+04</rscale>
<asrwt>0</asrwt>
<pdfrwt beam="1">  1        2 0.16687700E+00 0.15447351E+04</pdfrwt>
<pdfrwt beam="2">  1       -2 0.84610612E-01 0.15447351E+04</pdfrwt>
<totfact> 0.26112843E+01</totfact>
</mgrwt>
</event>
<event>
 6    1  0.9906445E-006  0.8065322E+03  0.7818608E-02  0.9550610E-01
          1   -1    0    0  501    0  0.00000000000E+00  0.00000000000E+00  0.16517582553E+03  0.16517582553E+03  0.00000000000E+00 0. -1.
         -1   -1    0    0    0  501 -0.00000000000E+00 -0.00000000000E+00 -0.98454810745E+03  0.98454810745E+03  0.00000000000E+00 0.  1.
         23    2    1    2    0    0 -0.29188289400E+03 -0.52226421786E+02 -0.35323967266E+02  0.31147875247E+03  0.88588981477E+02 0.  0.
         11    1    3    3    0    0 -0.82771987730E+02 -0.31375048186E+02  0.26543869417E+02  0.92413054300E+02  0.00000000000E+00 0.  1.
        -11    1    3    3    0    0 -0.20911090627E+03 -0.20851373599E+02 -0.61867836683E+02  0.21906569817E+03  0.00000000000E+00 0. -1.
         22    1    1    2    0    0  0.29188289400E+03  0.52226421786E+02 -0.78404831465E+03  0.83824518051E+03  0.00000000000E+00 0.  1.
<mgrwt>
<rscale>  0 0.80653220E+03</rscale>
<asrwt>0</asrwt>
<pdfrwt beam="1">  1        1 0.25411665E-01 0.80653220E+03</pdfrwt>
<pdfrwt beam="2">  1       -1 0.15146894E+00 0.80653220E+03</pdfrwt>
<totfact> 0.65880912E+01</totfact>
</mgrwt>
</event>
<event>
 6    1  0.9906445E-006  0.1319645E+04  0.7818608E-02  0.9014130E-01
          2   -1    0    0  501    0  0.00000000000E+00  0.00000000000E+00  0.12741896695E+04  0.12741896695E+04  0.00000000000E+00 0. -1.
         -2   -1    0    0    0  501 -0.00000000000E+00 -0.00000000000E+00 -0.34168022690E+03  0.34168022690E+03  0.00000000000E+00 0.  1.
         23    2    1    2    0    0 -0.56792611468E+03 -0.40031032510E+02  0.67658310245E+02  0.58044243085E+03  0.90516370273E+02 0.  0.
         13    1    3    3    0    0 -0.23475857046E+03 -0.22331197791E+02 -0.16371449704E+02  0.23638589883E+03  0.00000000000E+00 0.  1.
        -13    1    3    3    0    0 -0.33316754422E+03 -0.17699834718E+02  0.84029759948E+02  0.34405653202E+03  0.00000000000E+00 0. -1.
         22    1    1    2    0    0  0.56792611468E+03  0.40031032510E+02  0.86485113240E+03  0.10354274656E+04  0.00000000000E+00 0. -1.
<mgrwt>
<rscale>  0 0.13196445E+04</rscale>
<asrwt>0</asrwt>
<pdfrwt beam="1">  1        2 0.19602918E+00 0.13196445E+04</pdfrwt>
<pdfrwt beam="2">  1       -2 0.52566189E-01 0.13196445E+04</pdfrwt>
<totfact> 0.57201492E+01</totfact>
</mgrwt>
</event>
<event>
 6    1  0.9906445E-006  0.1627523E+04  0.7818608E-02  0.8803816E-01
         -1   -1    0    0    0  501 -0.00000000000E+00  0.00000000000E+00  0.20491568133E+03  0.20491568133E+03  0.00000000000E+00 0.  1.
          1   -1    0    0  501    0  0.00000000000E+00 -0.00000000000E+00 -0.32316122821E+04  0.32316122821E+04  0.00000000000E+00 0. -1.
         23    2    1    2    0    0 -0.47030632292E+03 -0.25503482309E+03 -0.28059170317E+04  0.28577582195E+04  0.85911895141E+02 0.  0.
         13    1    3    3    0    0 -0.14639333517E+03 -0.11811348870E+03 -0.86141688893E+03  0.88171472787E+03  0.00000000000E+00 0. -1.
        -13    1    3    3    0    0 -0.32391298775E+03 -0.13692133439E+03 -0.19445001428E+04  0.19760434916E+04  0.00000000000E+00 0.  1.
         22    1    1    2    0    0  0.47030632292E+03  0.25503482309E+03 -0.22077956901E+03  0.57876974391E+03  0.00000000000E+00 0.  1.
<mgrwt>
<rscale>  0 0.16275233E+04</rscale>
<asrwt>0</asrwt>
<pdfrwt beam="1">  1        1 0.49717112E+00 0.16275233E+04</pdfrwt>
<pdfrwt beam="2">  1       -1 0.31525489E-01 0.16275233E+04</pdfrwt>
<totfact> 0.36255835E+00</totfact>
</mgrwt>
</event>
<event>
 6    1  0.9906445E-006  0.2760608E+04  0.7818608E-02  0.8315604E-01
         -1   -1    0    0    0  501 -0.00000000000E+00  0.00000000000E+00  0.93077620668E+03  0.93077620668E+03  0.00000000000E+00 0.  1.
          1   -1    0    0  501    0  0.00000000000E+00 -0.00000000000E+00 -0.20469351237E+04  0.20469351237E+04  0.00000000000E+00 0. -1.
         23    2    1    2    0    0 -0.10554443906E+04 -0.54575026770E+03  0.19591582639E+03  0.12075852477E+04  0.89849336210E+02 0.  0.
         11    1    3    3    0    0 -0.25215935662E+03 -0.96528172400E+02  0.67440302233E+02  0.27829880266E+03  0.00000000000E+00 0. -1.
        -11    1    3    3    0    0 -0.80328503394E+03 -0.44922209530E+03  0.12847552415E+03  0.92928644506E+03  0.00000000000E+00 0.  1.
         22    1    1    2    0    0  0.10554443906E+04  0.54575026770E+03 -0.13120747434E+04  0.17701260827E+04  0.00000000000E+00 0. -1.
<mgrwt>
<rscale>  0 0.27606075E+04</rscale>
<asrwt>0</asrwt>
<pdfrwt beam="1">  1        1 0.31491309E+00 0.27606075E+04</pdfrwt>
<pdfrwt beam="2">  1       -1 0.14319634E+00 0.27606075E+04</pdfrwt>
<totfact> 0.94994552E-01</totfact>
</mgrwt>
</event>
<event>
 6    1  0.9906445E-006  0.2230037E+04  0.7818608E-02  0.8506029E-01
          1   -1    0    0  501    0  0.00000000000E+00  0.00000000000E+00  0.13401053967E+04  0.13401053967E+04  0.00000000000E+00 0. -1.
         -1   -1    0    0    0  501 -0.00000000000E+00 -0.00000000000E+00 -0.92773760795E+03  0.92773760795E+03  0.00000000000E+00 0.  1.
         23    2    1    2    0    0 -0.63024868074E+03 -0.24239169806E+03  0.11064317858E+04  0.12994980419E+04  0.92394422685E+02 0.  0.
         11    1    3    3    0    0 -0.74516084654E+02 -0.31531504841E+02  0.19792677195E+03  0.21382677504E+03  0.00000000000E+00 0. -1.
        -11    1    3    3    0    0 -0.55573259609E+03 -0.21086019321E+03  0.90850501384E+03  0.10856712668E+04  0.00000000000E+00 0.  1.
         22    1    1    2    0    0  0.63024868074E+03  0.24239169806E+03 -0.69406399707E+03  0.96834496275E+03  0.00000000000E+00 0.  1.
<mgrwt>
<rscale>  0 0.22300369E+04</rscale>
<asrwt>0</asrwt>
<pdfrwt beam="1">  1        1 0.20617006E+00 0.22300369E+04</pdfrwt>
<pdfrwt beam="2">  1       -1 0.14272886E+00 0.22300369E+04</pdfrwt>
<totfact> 0.30685415E+00</totfact>
</mgrwt>
</event>
<event>
 6    1  0.9906445E-006  0.2742865E+04  0.7818608E-02  0.8321229E-01
          1   -1    0    0  501    0  0.00000000000E+00  0.00000000000E+00  0.11069435897E+04  0.11069435897E+04  0.00000000000E+00 0. -1.
         -1   -1    0    0    0  501 -0.00000000000E+00 -0.00000000000E+00 -0.16991171373E+04  0.16991171373E+04  0.00000000000E+00 0.  1.
         23    2    1    2    0    0 -0.91855696811E+02  0.13647685407E+04 -0.37071395870E+03  0.14203930222E+04  0.95167534313E+02 0.  0.
         11    1    3    3    0    0  0.29591395774E+01  0.54246134593E+03 -0.12112724831E+03  0.55582810168E+03  0.00000000000E+00 0. -1.
        -11    1    3    3    0    0 -0.94814836388E+02  0.82230719475E+03 -0.24958671038E+03  0.86456492048E+03  0.00000000000E+00 0.  1.
         22    1    1    2    0    0  0.91855696811E+02 -0.13647685407E+04 -0.22145958891E+03  0.13856677048E+04  0.00000000000E+00 0. -1.
<mgrwt>
<rscale>  0 0.27428648E+04</rscale>
<asrwt>0</asrwt>
<pdfrwt beam="1">  1        1 0.17029902E+00 0.27428648E+04</pdfrwt>
<pdfrwt beam="2">  1       -1 0.26140263E+00 0.27428648E+04</pdfrwt>
<totfact> 0.64027733E-01</totfact>
</mgrwt>
</event>
<event>
 6    1  0.9906445E-006  0.1550952E+04  0.7818608E-02  0.8851260E-01
         -1   -1    0    0    0  501 -0.00000000000E+00  0.00000000000E+00  0.19273032289E+03  0.19273032289E+03  0.00000000000E+00 0.  1.
          1   -1    0    0  501    0  0.00000000000E+00 -0.00000000000E+00 -0.31202287925E+04  0.31202287925E+04  0.00000000000E+00 0. -1.
         23    2    1    2    0    0 -0.59856658618E+03  0.52083919774E+01 -0.25127836024E+04  0.25847438268E+04  0.92250378895E+02 0.  0.
         11    1    3    3    0    0 -0.65267630948E+02 -0.18517932720E+02 -0.39065914507E+03  0.39650642505E+03  0.00000000000E+00 0.  1.
        -11    1    3    3    0    0 -0.53329895523E+03  0.23726324697E+02 -0.21221244573E+04  0.21882374018E+04  0.00000000000E+00 0. -1.
         22    1    1    2    0    0  0.59856658618E+03 -0.52083919774E+01 -0.41471486726E+03  0.72821528861E+03  0.00000000000E+00 0.  1.
<mgrwt>
<rscale>  0 0.15509516E+04</rscale>
<asrwt>0</asrwt>
<pdfrwt beam="1">  1        1 0.48003516E+00 0.15509516E+04</pdfrwt>
<pdfrwt beam="2">  1       -1 0.29650821E-01 0.15509516E+04</pdfrwt>
<totfact> 0.49244645E+00</totfact>
</mgrwt>
</event>
<event>
 6    1  0.9906445E-006  0.2584795E+04  0.7818608E-02  0.8373384E-01
          2   -1    0    0  501    0  0.00000000000E+00  0.00000000000E+00  0.21256726649E+04  0.21256726649E+04  0.00000000000E+00 0. -1.
         -2   -1    0    0    0  501 -0.00000000000E+00 -0.00000000000E+00 -0.78577099722E+03  0.78577099722E+03  0.00000000000E+00 0.  1.
         23    2    1    2    0    0 -0.10457045286E+04  0.42142733139E+03  0.13787816187E+04  0.17833432201E+04  0.90417540849E+02 0.  0.
         11    1    3    3    0    0 -0.64922552814E+03  0.30841522977E+03  0.87100744572E+03  0.11292775172E+04  0.00000000000E+00 0. -1.
        -11    1    3    3    0    0 -0.39647900047E+03  0.11301210162E+03  0.50777417298E+03  0.65406570287E+03  0.00000000000E+00 0.  1.
         22    1    1    2    0    0  0.10457045286E+04 -0.42142733139E+03 -0.38879951022E+02  0.11281004421E+04  0.00000000000E+00 0.  1.
<mgrwt>
<rscale>  0 0.25847955E+04</rscale>
<asrwt>0</asrwt>
<pdfrwt beam="1">  1        2 0.32702656E+00 0.25847955E+04</pdfrwt>
<pdfrwt beam="2">  1       -2 0.12088785E+00 0.25847955E+04</pdfrwt>
<totfact> 0.26246913E+00</totfact>
</mgrwt>
</event>
<event>
 6    1  0.9906445E-006  0.9344350E+03  0.7818608E-02  0.9383531E-01
          4   -1    0    0  501    0  0.00000000000E+00  0.00000000000E+00  0.15225192753E+03  0.15225192753E+03  0.00000000000E+00 0. -1.
         -4   -1    0    0    0  501 -0.00000000000E+00 -0.00000000000E+00 -0.14337564568E+04  0.14337564568E+04  0.00000000000E+00 0.  1.
         23    2    1    2    0    0  0.20594081136E+03 -0.33142352145E+03 -0.10686888481E+04  0.11415495195E+04  0.93735175152E+02 0.  0.
         13    1    3    3    0    0  0.72060674253E+02 -0.11664374688E+03 -0.25655340898E+03  0.29089200079E+03  0.00000000000E+00 0. -1.
        -13    1    3    3    0    0  0.13388013711E+03 -0.21477977458E+03 -0.81213543911E+03  0.85065751871E+03  0.00000000000E+00 0.  1.
         22    1    1    2    0    0 -0.20594081136E+03  0.33142352145E+03 -0.21281568113E+03  0.44445886479E+03  0.00000000000E+00 0. -1.
<mgrwt>
<rscale>  0 0.93443498E+03</rscale>
<asrwt>0</asrwt>
<pdfrwt beam="1">  1        4 0.23423374E-01 0.93443498E+03</pdfrwt>
<pdfrwt beam="2">  1       -4 0.22057791E+00 0.93443498E+03</pdfrwt>
<totfact> 0.33423591E+00</totfact>
</mgrwt>
</event>
<event>
 6    1  0.9906445E-006  0.1353795E+04  0.7818608E-02  0.8987960E-01
         -2   -1    0    0    0  501 -0.00000000000E+00  0.00000000000E+00  0.36994575530E+03  0.36994575530E+03  0.00000000000E+00 0.  1.
          2   -1    0    0  501    0  0.00000000000E+00 -0.00000000000E+00 -0.12385336728E+04  0.12385336728E+04  0.00000000000E+00 0. -1.
         23    2    1    2    0    0  0.23871643269E+03 -0.12208510973E+03  0.29689893387E+03  0.41254886576E+03  0.10078333419E+03 0.  0.
         11    1    3    3    0    0  0.18894755046E+03 -0.10726779012E+03  0.17143225042E+03  0.27676085725E+03  0.00000000000E+00 0.  1.
        -11    1    3    3    0    0  0.49768882230E+02 -0.14817319613E+02  0.12546668344E+03  0.13578800850E+03  0.00000000000E+00 0. -1.
         22    1    1    2    0    0 -0.23871643269E+03  0.12208510973E+03 -0.11654868514E+04  0.11959305623E+04  0.00000000000E+00 0. -1.
<mgrwt>
<rscale>  0 0.13537951E+04</rscale>
<asrwt>0</asrwt>
<pdfrwt beam="1">  1        2 0.19054364E+00 0.13537951E+04</pdfrwt>
<pdfrwt beam="2">  1       -2 0.56914731E-01 0.13537951E+04</pdfrwt>
<totfact> 0.50777339E+01</totfact>
</mgrwt>
</event>
<event>
 6    1  0.9906445E-006  0.2468463E+04  0.7818608E-02  0.8414308E-01
          2   -1    0    0  501    0  0.00000000000E+00  0.00000000000E+00  0.15878037541E+04  0.15878037541E+04  0.00000000000E+00 0. -1.
         -2   -1    0    0    0  501 -0.00000000000E+00 -0.00000000000E+00 -0.95939277624E+03  0.95939277624E+03  0.00000000000E+00 0.  1.
         23    2    1    2    0    0  0.47061711547E+03  0.11342906765E+04  0.20570627404E+03  0.12484374785E+04  0.90472418319E+02 0.  0.
         13    1    3    3    0    0  0.27986788428E+03  0.57836309905E+03  0.13393429626E+03  0.65632941630E+03  0.00000000000E+00 0. -1.
        -13    1    3    3    0    0  0.19074923119E+03  0.55592757742E+03  0.71771977777E+02  0.59210806221E+03  0.00000000000E+00 0.  1.
         22    1    1    2    0    0 -0.47061711547E+03 -0.11342906765E+04  0.42270470384E+03  0.12987590518E+04  0.00000000000E+00 0. -1.
<mgrwt>
<rscale>  0 0.24684630E+04</rscale>
<asrwt>0</asrwt>
<pdfrwt beam="1">  1        2 0.24427750E+00 0.24684630E+04</pdfrwt>
<pdfrwt beam="2">  1       -2 0.14759889E+00 0.24684630E+04</pdfrwt>
<totfact> 0.31681750E+00</totfact>
</mgrwt>
</event>
<event>
 6    1  0.9906445E-006  0.1422313E+04  0.7818608E-02  0.8937824E-01
         -2   -1    0    0    0  501 -0.00000000000E+00  0.00000000000E+00  0.62393900777E+03  0.62393900777E+03  0.00000000000E+00 0.  1.
          2   -1    0    0  501    0  0.00000000000E+00 -0.00000000000E+00 -0.81056553185E+03  0.81056553185E+03  0.00000000000E+00 0. -1.
         23    2    1    2    0    0 -0.39567095187E+03  0.49366474289E+03 -0.41401332610E+03  0.76222101442E+03  0.96506269765E+02 0.  0.
         13    1    3    3    0    0 -0.33973890356E+03  0.38500437529E+03 -0.29781254919E+03  0.59358504533E+03  0.00000000000E+00 0. -1.
        -13    1    3    3    0    0 -0.55932048307E+02  0.10866036760E+03 -0.11620077691E+03  0.16863596909E+03  0.00000000000E+00 0.  1.
         22    1    1    2    0    0  0.39567095187E+03 -0.49366474289E+03  0.22738680202E+03  0.67228352521E+03  0.00000000000E+00 0. -1.
<mgrwt>
<rscale>  0 0.14223128E+04</rscale>
<asrwt>0</asrwt>
<pdfrwt beam="1">  1        2 0.12470239E+00 0.14223128E+04</pdfrwt>
<pdfrwt beam="2">  1       -2 0.95990617E-01 0.14223128E+04</pdfrwt>
<totfact> 0.29926622E+01</totfact>
</mgrwt>
</event>
<event>
 6    1  0.9906445E-006  0.5612466E+04  0.7818608E-02  0.7740401E-01
          2   -1    0    0  501    0  0.00000000000E+00  0.00000000000E+00  0.28433989459E+04  0.28433989459E+04  0.00000000000E+00 0. -1.
         -2   -1    0    0    0  501 -0.00000000000E+00 -0.00000000000E+00 -0.27695529191E+04  0.27695529191E+04  0.00000000000E+00 0.  1.
         23    2    1    2    0    0 -0.23340490074E+04  0.20299527545E+03  0.15803412529E+04  0.28275399175E+04  0.92258650779E+02 0.  0.
         13    1    3    3    0    0 -0.20503040977E+04  0.18224838052E+03  0.14235951573E+04  0.25027154327E+04  0.00000000000E+00 0. -1.
        -13    1    3    3    0    0 -0.28374490974E+03  0.20746894928E+02  0.15674609558E+03  0.32482448482E+03  0.00000000000E+00 0.  1.
         22    1    1    2    0    0  0.23340490074E+04 -0.20299527545E+03 -0.15064952261E+04  0.27854119475E+04  0.00000000000E+00 0.  1.
<mgrwt>
<rscale>  0 0.56124661E+04</rscale>
<asrwt>0</asrwt>
<pdfrwt beam="1">  1        2 0.43744599E+00 0.56124661E+04</pdfrwt>
<pdfrwt beam="2">  1       -2 0.42608507E+00 0.56124661E+04</pdfrwt>
<totfact> 0.75602323E-03</totfact>
</mgrwt>
</event>
<event>
 6    1  0.9906445E-006  0.2201978E+04  0.7818608E-02  0.8517605E-01
         -1   -1    0    0    0  501 -0.00000000000E+00  0.00000000000E+00  0.21715649434E+04  0.21715649434E+04  0.00000000000E+00 0.  1.
          1   -1    0    0  501    0  0.00000000000E+00 -0.00000000000E+00 -0.55820440890E+03  0.55820440890E+03  0.00000000000E+00 0. -1.
         23    2    1    2    0    0 -0.40061043693E+03  0.25693118692E+03  0.20362676742E+04  0.20930961192E+04  0.90349134455E+02 0.  0.
         11    1    3    3    0    0 -0.20146388912E+03  0.17759692975E+03  0.10502406369E+04  0.10840358682E+04  0.00000000000E+00 0. -1.
        -11    1    3    3    0    0 -0.19914654781E+03  0.79334257172E+02  0.98602703730E+03  0.10090602510E+04  0.00000000000E+00 0.  1.
         22    1    1    2    0    0  0.40061043693E+03 -0.25693118692E+03 -0.42290713970E+03  0.63667323314E+03  0.00000000000E+00 0. -1.
<mgrwt>
<rscale>  0 0.22019783E+04</rscale>
<asrwt>0</asrwt>
<pdfrwt beam="1">  1        1 0.85877602E-01 0.22019783E+04</pdfrwt>
<pdfrwt beam="2">  1       -1 0.33408691E+00 0.22019783E+04</pdfrwt>
<totfact> 0.68576740E-01</totfact>
</mgrwt>
</event>
<event>
 6    1  0.9906445E-006  0.4670521E+04  0.7818608E-02  0.7881445E-01
          2   -1    0    0  501    0  0.00000000000E+00  0.00000000000E+00  0.19921568770E+04  0.19921568770E+04  0.00000000000E+00 0. -1.
         -2   -1    0    0    0  501 -0.00000000000E+00 -0.00000000000E+00 -0.27374558709E+04  0.27374558709E+04  0.00000000000E+00 0.  1.
         23    2    1    2    0    0 -0.77239572703E+03  0.10097078106E+04 -0.23554169071E+04  0.26781292075E+04  0.91006722872E+02 0.  0.
         13    1    3    3    0    0 -0.16019046770E+03  0.15695242527E+03 -0.44359498710E+03  0.49706293598E+03  0.00000000000E+00 0. -1.
        -13    1    3    3    0    0 -0.61220525933E+03  0.85275538534E+03 -0.19118219200E+04  0.21810662715E+04  0.00000000000E+00 0.  1.
         22    1    1    2    0    0  0.77239572703E+03 -0.10097078106E+04  0.16101179133E+04  0.20514835404E+04  0.00000000000E+00 0. -1.
<mgrwt>
<rscale>  0 0.46705210E+04</rscale>
<asrwt>0</asrwt>
<pdfrwt beam="1">  1        2 0.30648567E+00 0.46705210E+04</pdfrwt>
<pdfrwt beam="2">  1       -2 0.42114706E+00 0.46705210E+04</pdfrwt>
<totfact> 0.27196626E-02</totfact>
</mgrwt>
</event>
<event>
 6    1  0.9906445E-006  0.3769565E+04  0.7818608E-02  0.8052718E-01
         -2   -1    0    0    0  501 -0.00000000000E+00  0.00000000000E+00  0.11505220419E+04  0.11505220419E+04  0.00000000000E+00 0.  1.
          2   -1    0    0  501    0  0.00000000000E+00 -0.00000000000E+00 -0.30876457316E+04  0.30876457316E+04  0.00000000000E+00 0. -1.
         23    2    1    2    0    0  0.16069353910E+04 -0.39007412388E+03  0.45230934114E+02  0.16566703345E+04  0.90064346697E+02 0.  0.
         13    1    3    3    0    0  0.93488675832E+03 -0.18144244988E+03  0.31243450765E+02  0.95284351638E+03  0.00000000000E+00 0.  1.
        -13    1    3    3    0    0  0.67204863273E+03 -0.20863167400E+03  0.13987483349E+02  0.70382681808E+03  0.00000000000E+00 0. -1.
         22    1    1    2    0    0 -0.16069353910E+04  0.39007412388E+03 -0.19823546239E+04  0.25814974391E+04  0.00000000000E+00 0.  1.
<mgrwt>
<rscale>  0 0.37695647E+04</rscale>
<asrwt>0</asrwt>
<pdfrwt beam="1">  1        2 0.47502242E+00 0.37695647E+04</pdfrwt>
<pdfrwt beam="2">  1       -2 0.17700339E+00 0.37695647E+04</pdfrwt>
<totfact> 0.23413877E-01</totfact>
</mgrwt>
</event>
<event>
 6    1  0.9906445E-006  0.1252824E+04  0.7818608E-02  0.9067836E-01
          1   -1    0    0  501    0  0.00000000000E+00  0.00000000000E+00  0.89947176379E+03  0.89947176379E+03  0.00000000000E+00 0. -1.
         -1   -1    0    0    0  501 -0.00000000000E+00 -0.00000000000E+00 -0.43624709843E+03  0.43624709843E+03  0.00000000000E+00 0.  1.
         23    2    1    2    0    0 -0.25876180893E+03  0.18402942615E+03 -0.33879349492E+03  0.47313110850E+03  0.90815803617E+02 0.  0.
         13    1    3    3    0    0 -0.23230793429E+03  0.12106066639E+03 -0.26928183071E+03  0.37567987121E+03  0.00000000000E+00 0. -1.
        -13    1    3    3    0    0 -0.26453874635E+02  0.62968759762E+02 -0.69511664211E+02  0.97451237296E+02  0.00000000000E+00 0.  1.
         22    1    1    2    0    0  0.25876180893E+03 -0.18402942615E+03  0.80201816027E+03  0.86258775372E+03  0.00000000000E+00 0. -1.
<mgrwt>
<rscale>  0 0.12528239E+04</rscale>
<asrwt>0</asrwt>
<pdfrwt beam="1">  1        1 0.13838027E+00 0.12528239E+04</pdfrwt>
<pdfrwt beam="2">  1       -1 0.67114938E-01 0.12528239E+04</pdfrwt>
<totfact> 0.40394437E+01</totfact>
</mgrwt>
</event>
<event>
 6    1  0.9906445E-006  0.7572261E+03  0.7818608E-02  0.9624082E-01
          2   -1    0    0  501    0  0.00000000000E+00  0.00000000000E+00  0.10118248699E+04  0.10118248699E+04  0.00000000000E+00 0. -1.
         -2   -1    0    0    0  501 -0.00000000000E+00 -0.00000000000E+00 -0.14167256373E+03  0.14167256373E+03  0.00000000000E+00 0.  1.
         23    2    1    2    0    0  0.73047275136E+02  0.32384404338E+03  0.18217725109E+03  0.38961226866E+03  0.91642240447E+02 0.  0.
         13    1    3    3    0    0 -0.17197968470E+02  0.10698154199E+03  0.42931490439E+02  0.11655013220E+03  0.00000000000E+00 0. -1.
        -13    1    3    3    0    0  0.90245243606E+02  0.21686250140E+03  0.13924576065E+03  0.27306213645E+03  0.00000000000E+00 0.  1.
         22    1    1    2    0    0 -0.73047275136E+02 -0.32384404338E+03  0.68797505507E+03  0.76388516495E+03  0.00000000000E+00 0. -1.
<mgrwt>
<rscale>  0 0.75722605E+03</rscale>
<asrwt>0</asrwt>
<pdfrwt beam="1">  1        2 0.15566536E+00 0.75722605E+03</pdfrwt>
<pdfrwt beam="2">  1       -2 0.21795780E-01 0.75722605E+03</pdfrwt>
<totfact> 0.45645317E+02</totfact>
</mgrwt>
</event>
<event>
 6    1  0.9906445E-006  0.3588121E+04  0.7818608E-02  0.8093218E-01
         -1   -1    0    0    0  501 -0.00000000000E+00  0.00000000000E+00  0.13036737146E+04  0.13036737146E+04  0.00000000000E+00 0.  1.
          1   -1    0    0  501    0  0.00000000000E+00 -0.00000000000E+00 -0.24689098786E+04  0.24689098786E+04  0.00000000000E+00 0. -1.
         23    2    1    2    0    0  0.67499969870E+02  0.17097771011E+04 -0.11459464857E+04  0.20613658768E+04  0.90232746304E+02 0.  0.
         13    1    3    3    0    0  0.68063403982E+02  0.10239004610E+04 -0.64512461724E+03  0.12121017089E+04  0.00000000000E+00 0.  1.
        -13    1    3    3    0    0 -0.56343411136E+00  0.68587664014E+03 -0.50082186848E+03  0.84926416791E+03  0.00000000000E+00 0. -1.
         22    1    1    2    0    0 -0.67499969870E+02 -0.17097771011E+04 -0.19289678278E+02  0.17112177164E+04  0.00000000000E+00 0.  1.
<mgrwt>
<rscale>  0 0.35881209E+04</rscale>
<asrwt>0</asrwt>
<pdfrwt beam="1">  1        1 0.37983229E+00 0.35881209E+04</pdfrwt>
<pdfrwt beam="2">  1       -1 0.20056519E+00 0.35881209E+04</pdfrwt>
<totfact> 0.17196163E-01</totfact>
</mgrwt>
</event>
<event>
 6    1  0.9906445E-006  0.1919732E+04  0.7818608E-02  0.8645096E-01
          1   -1    0    0  501    0  0.00000000000E+00  0.00000000000E+00  0.18089386921E+04  0.18089386921E+04  0.00000000000E+00 0. -1.
         -1   -1    0    0    0  501 -0.00000000000E+00 -0.00000000000E+00 -0.50932773015E+03  0.50932773015E+03  0.00000000000E+00 0.  1.
         23    2    1    2    0    0  0.74876671892E+03 -0.55014672205E+03  0.93163893076E+03  0.13189084129E+04  0.90858621810E+02 0.  0.
         13    1    3    3    0    0  0.60628959630E+03 -0.41488325500E+03  0.77279257797E+03  0.10662661762E+04  0.00000000000E+00 0.  1.
        -13    1    3    3    0    0  0.14247712261E+03 -0.13526346704E+03  0.15884635280E+03  0.25264223673E+03  0.00000000000E+00 0. -1.
         22    1    1    2    0    0 -0.74876671892E+03  0.55014672205E+03  0.36797203118E+03  0.99935800936E+03  0.00000000000E+00 0.  1.
<mgrwt>
<rscale>  0 0.19197319E+04</rscale>
<asrwt>0</asrwt>
<pdfrwt beam="1">  1        1 0.27829826E+00 0.19197319E+04</pdfrwt>
<pdfrwt beam="2">  1       -1 0.78358113E-01 0.19197319E+04</pdfrwt>
<totfact> 0.61168065E+00</totfact>
</mgrwt>
</event>
<event>
 6    1  0.9906445E-006  0.4032610E+04  0.7818608E-02  0.7998000E-01
         -2   -1    0    0    0  501 -0.00000000000E+00  0.00000000000E+00  0.18860227096E+04  0.18860227096E+04  0.00000000000E+00 0.  1.
          2   -1    0    0  501    0  0.00000000000E+00 -0.00000000000E+00 -0.21555863723E+04  0.21555863723E+04  0.00000000000E+00 0. -1.
         23    2    1    2    0    0  0.55106610222E+03 -0.45156254328E+03  0.17544559238E+04  0.18958602928E+04  0.92671904982E+02 0.  0.
         13    1    3    3    0    0  0.52407828713E+02 -0.12761124970E+02  0.11845427760E+03  0.13015699252E+03  0.00000000000E+00 0.  1.
        -13    1    3    3    0    0  0.49865827350E+03 -0.43880141831E+03  0.16360016462E+04  0.17657033003E+04  0.00000000000E+00 0. -1.
         22    1    1    2    0    0 -0.55106610222E+03  0.45156254328E+03 -0.20240195865E+04  0.21457487891E+04  0.00000000000E+00 0. -1.
<mgrwt>
<rscale>  0 0.40326095E+04</rscale>
<asrwt>0</asrwt>
<pdfrwt beam="1">  1        2 0.33162867E+00 0.40326095E+04</pdfrwt>
<pdfrwt beam="2">  1       -2 0.29015734E+00 0.40326095E+04</pdfrwt>
<totfact> 0.15711785E-01</totfact>
</mgrwt>
</event>
<event>
 6    1  0.9906445E-006  0.4625625E+04  0.7818608E-02  0.7889005E-01
         -2   -1    0    0    0  501 -0.00000000000E+00  0.00000000000E+00  0.22445610396E+04  0.22445610396E+04  0.00000000000E+00 0.  1.
          2   -1    0    0  501    0  0.00000000000E+00 -0.00000000000E+00 -0.23831391077E+04  0.23831391077E+04  0.00000000000E+00 0. -1.
         23    2    1    2    0    0 -0.51177777552E+03 -0.85322786594E+03 -0.21571064947E+04  0.23772843431E+04  0.91968123129E+02 0.  0.
         13    1    3    3    0    0 -0.22969308694E+03 -0.37918025764E+03 -0.85347859420E+03  0.96174959980E+03  0.00000000000E+00 0.  1.
        -13    1    3    3    0    0 -0.28208468858E+03 -0.47404760831E+03 -0.13036279005E+04  0.14155347433E+04  0.00000000000E+00 0. -1.
         22    1    1    2    0    0  0.51177777552E+03  0.85322786594E+03  0.20185284266E+04  0.22504158042E+04  0.00000000000E+00 0.  1.
<mgrwt>
<rscale>  0 0.46256248E+04</rscale>
<asrwt>0</asrwt>
<pdfrwt beam="1">  1        2 0.36663679E+00 0.46256248E+04</pdfrwt>
<pdfrwt beam="2">  1       -2 0.34531708E+00 0.46256248E+04</pdfrwt>
<totfact> 0.50770116E-02</totfact>
</mgrwt>
</event>
<event>
 6    1  0.9906445E-006  0.1420791E+04  0.7818608E-02  0.8938905E-01
          2   -1    0    0  501    0  0.00000000000E+00  0.00000000000E+00  0.10347891840E+04  0.10347891840E+04  0.00000000000E+00 0. -1.
         -2   -1    0    0    0  501 -0.00000000000E+00 -0.00000000000E+00 -0.48769501807E+03  0.48769501807E+03  0.00000000000E+00 0.  1.
         23    2    1    2    0    0  0.15284159805E+03  0.48642303588E+03 -0.25078399507E+03  0.57560644665E+03  0.91990463171E+02 0.  0.
         13    1    3    3    0    0  0.88560102246E+02  0.37331540803E+03 -0.21862526137E+03  0.44159290132E+03  0.00000000000E+00 0. -1.
        -13    1    3    3    0    0  0.64281495802E+02  0.11310762784E+03 -0.32158733699E+02  0.13401354533E+03  0.00000000000E+00 0.  1.
         22    1    1    2    0    0 -0.15284159805E+03 -0.48642303588E+03  0.79787816102E+03  0.94687775545E+03  0.00000000000E+00 0. -1.
<mgrwt>
<rscale>  0 0.14207907E+04</rscale>
<asrwt>0</asrwt>
<pdfrwt beam="1">  1        2 0.15919834E+00 0.14207907E+04</pdfrwt>
<pdfrwt beam="2">  1       -2 0.75030003E-01 0.14207907E+04</pdfrwt>
<totfact> 0.37114726E+01</totfact>
</mgrwt>
</event>
<event>
 6    1  0.9906445E-006  0.1212029E+04  0.7818608E-02  0.9102392E-01
         -1   -1    0    0    0  501 -0.00000000000E+00  0.00000000000E+00  0.47344969210E+03  0.47344969210E+03  0.00000000000E+00 0.  1.
          1   -1    0    0  501    0  0.00000000000E+00 -0.00000000000E+00 -0.77569742552E+03  0.77569742552E+03  0.00000000000E+00 0. -1.
         23    2    1    2    0    0  0.20214794075E+03  0.56362258334E+03 -0.84210848716E+02  0.61190753199E+03  0.93835783488E+02 0.  0.
         13    1    3    3    0    0  0.13790332187E+03  0.24792224448E+03 -0.47651212254E+02  0.28766891302E+03  0.00000000000E+00 0. -1.
        -13    1    3    3    0    0  0.64244618887E+02  0.31570033886E+03 -0.36559636462E+02  0.32423861897E+03  0.00000000000E+00 0.  1.
         22    1    1    2    0    0 -0.20214794075E+03 -0.56362258334E+03 -0.21803688470E+03  0.63723958563E+03  0.00000000000E+00 0. -1.
<mgrwt>
<rscale>  0 0.12120292E+04</rscale>
<asrwt>0</asrwt>
<pdfrwt beam="1">  1        1 0.11933806E+00 0.12120292E+04</pdfrwt>
<pdfrwt beam="2">  1       -1 0.72838415E-01 0.12120292E+04</pdfrwt>
<totfact> 0.43665329E+01</totfact>
</mgrwt>
</event>
<event>
 6    1  0.9906445E-006  0.5369876E+04  0.7818608E-02  0.7773852E-01
         -2   -1    0    0    0  501 -0.00000000000E+00  0.00000000000E+00  0.26521031398E+04  0.26521031398E+04  0.00000000000E+00 0. -1.
          2   -1    0    0  501    0  0.00000000000E+00 -0.00000000000E+00 -0.27181795751E+04  0.27181795751E+04  0.00000000000E+00 0.  1.
         23    2    1    2    0    0 -0.16664200680E+04 -0.17786864418E+04 -0.11574693156E+04  0.26997360067E+04  0.90321578681E+02 0.  0.
         11    1    3    3    0    0 -0.12944804646E+04 -0.13713642057E+04 -0.93622226104E+03  0.21054290726E+04  0.00000000000E+00 0. -1.
        -11    1    3    3    0    0 -0.37193960349E+03 -0.40732223612E+03 -0.22124705453E+03  0.59430693402E+03  0.00000000000E+00 0.  1.
         22    1    1    2    0    0  0.16664200680E+04  0.17786864418E+04  0.10913928803E+04  0.26705467082E+04  0.00000000000E+00 0. -1.
<mgrwt>
<rscale>  0 0.53698762E+04</rscale>
<asrwt>0</asrwt>
<pdfrwt beam="1">  1        2 0.41818147E+00 0.53698762E+04</pdfrwt>
<pdfrwt beam="2">  1       -2 0.40801587E+00 0.53698762E+04</pdfrwt>
<totfact> 0.12056518E-02</totfact>
</mgrwt>
</event>
<event>
 6    1  0.9906445E-006  0.1016285E+04  0.7818608E-02  0.9290862E-01
         -1   -1    0    0    0  501 -0.00000000000E+00  0.00000000000E+00  0.15053599444E+04  0.15053599444E+04  0.00000000000E+00 0.  1.
          1   -1    0    0  501    0  0.00000000000E+00 -0.00000000000E+00 -0.17152630255E+03  0.17152630255E+03  0.00000000000E+00 0. -1.
         23    2    1    2    0    0 -0.44897534852E+03  0.22510334081E+03  0.75298110324E+03  0.90900601591E+03  0.84029860758E+02 0.  0.
         11    1    3    3    0    0 -0.61798830743E+02  0.59505636065E+02  0.16241542197E+03  0.18368120616E+03  0.00000000000E+00 0.  1.
        -11    1    3    3    0    0 -0.38717651778E+03  0.16559770474E+03  0.59056568127E+03  0.72532480974E+03  0.00000000000E+00 0. -1.
         22    1    1    2    0    0  0.44897534852E+03 -0.22510334081E+03  0.58085253861E+03  0.76788023105E+03  0.00000000000E+00 0.  1.
<mgrwt>
<rscale>  0 0.10162850E+04</rscale>
<asrwt>0</asrwt>
<pdfrwt beam="1">  1        1 0.26388663E-01 0.10162850E+04</pdfrwt>
<pdfrwt beam="2">  1       -1 0.23159383E+00 0.10162850E+04</pdfrwt>
<totfact> 0.16853926E+01</totfact>
</mgrwt>
</event>
<event>
 6    1  0.9906445E-006  0.2945153E+04  0.7818608E-02  0.8259569E-01
         -1   -1    0    0    0  501 -0.00000000000E+00  0.00000000000E+00  0.24432389960E+04  0.24432389960E+04  0.00000000000E+00 0.  1.
          1   -1    0    0  501    0  0.00000000000E+00 -0.00000000000E+00 -0.88754365779E+03  0.88754365779E+03  0.00000000000E+00 0. -1.
         23    2    1    2    0    0  0.47039225309E+03  0.67245865160E+03  0.21594620654E+04  0.23119579531E+04  0.91671451867E+02 0.  0.
         13    1    3    3    0    0  0.47006897815E+02  0.46577950369E+02  0.24466001738E+03  0.25345152990E+03  0.00000000000E+00 0.  1.
        -13    1    3    3    0    0  0.42338535527E+03  0.62588070123E+03  0.19148020480E+04  0.20585064232E+04  0.00000000000E+00 0. -1.
         22    1    1    2    0    0 -0.47039225309E+03 -0.67245865160E+03 -0.60376672719E+03  0.10188247007E+04  0.00000000000E+00 0. -1.
<mgrwt>
<rscale>  0 0.29451528E+04</rscale>
<asrwt>0</asrwt>
<pdfrwt beam="1">  1        1 0.13654518E+00 0.29451528E+04</pdfrwt>
<pdfrwt beam="2">  1       -1 0.37588292E+00 0.29451528E+04</pdfrwt>
<totfact> 0.16610929E-01</totfact>
</mgrwt>
</event>
<event>
 6    1  0.9906445E-006  0.4484718E+04  0.7818608E-02  0.7913318E-01
         -2   -1    0    0    0  501 -0.00000000000E+00  0.00000000000E+00  0.12478509962E+04  0.12478509962E+04  0.00000000000E+00 0.  1.
          2   -1    0    0  501    0  0.00000000000E+00 -0.00000000000E+00 -0.40294666000E+04  0.40294666000E+04  0.00000000000E+00 0. -1.
         23    2    1    2    0    0  0.11827108160E+04  0.15807337903E+04 -0.26403342762E+04  0.32980539444E+04  0.90942508951E+02 0.  0.
         13    1    3    3    0    0  0.29689230590E+03  0.36595918473E+03 -0.68810570322E+03  0.83400277277E+03  0.00000000000E+00 0. -1.
        -13    1    3    3    0    0  0.88581851006E+03  0.12147746056E+04 -0.19522285730E+04  0.24640511716E+04  0.00000000000E+00 0.  1.
         22    1    1    2    0    0 -0.11827108160E+04 -0.15807337903E+04 -0.14128132754E+03  0.19792636518E+04  0.00000000000E+00 0.  1.
<mgrwt>
<rscale>  0 0.44847180E+04</rscale>
<asrwt>0</asrwt>
<pdfrwt beam="1">  1        2 0.61991795E+00 0.44847180E+04</pdfrwt>
<pdfrwt beam="2">  1       -2 0.19197707E+00 0.44847180E+04</pdfrwt>
<totfact> 0.36762443E-02</totfact>
</mgrwt>
</event>
<event>
 6    1  0.9906445E-006  0.2631879E+03  0.7818608E-02  0.1105243E+00
         -2   -1    0    0    0  501 -0.00000000000E+00  0.00000000000E+00  0.59750060217E+02  0.59750060217E+02  0.00000000000E+00 0. -1.
          2   -1    0    0  501    0  0.00000000000E+00 -0.00000000000E+00 -0.28982353061E+03  0.28982353061E+03  0.00000000000E+00 0.  1.
         23    2    1    2    0    0 -0.11087555771E+03  0.17430315864E+02 -0.85359595564E+02  0.16643618128E+03  0.88416834799E+02 0.  0.
         11    1    3    3    0    0 -0.57418408373E+02 -0.29450337769E+02 -0.66956853868E+02  0.92991485065E+02  0.00000000000E+00 0.  1.
        -11    1    3    3    0    0 -0.53457149333E+02  0.46880653633E+02 -0.18402741696E+02  0.73444696213E+02  0.00000000000E+00 0. -1.
         22    1    1    2    0    0  0.11087555771E+03 -0.17430315864E+02 -0.14471387483E+03  0.18313740954E+03  0.00000000000E+00 0. -1.
<mgrwt>
<rscale>  0 0.26318794E+03</rscale>
<asrwt>0</asrwt>
<pdfrwt beam="1">  1        2 0.44588236E-01 0.26318794E+03</pdfrwt>
<pdfrwt beam="2">  1       -2 0.91923169E-02 0.26318794E+03</pdfrwt>
<totfact> 0.85275790E+03</totfact>
</mgrwt>
</event>
<event>
 6    1  0.9906445E-006  0.3811152E+04  0.7818608E-02  0.8043766E-01
         -1   -1    0    0    0  501 -0.00000000000E+00  0.00000000000E+00  0.21828768624E+04  0.21828768624E+04  0.00000000000E+00 0.  1.
          1   -1    0    0  501    0  0.00000000000E+00 -0.00000000000E+00 -0.16635019297E+04  0.16635019297E+04  0.00000000000E+00 0. -1.
         23    2    1    2    0    0  0.14062138679E+04  0.63923700626E+03 -0.86442616795E+03  0.17725015348E+04  0.92020099900E+02 0.  0.
         13    1    3    3    0    0  0.59941491947E+03  0.28725792971E+03 -0.32224471710E+03  0.73868601014E+03  0.00000000000E+00 0.  1.
        -13    1    3    3    0    0  0.80679894839E+03  0.35197907654E+03 -0.54218145084E+03  0.10338155247E+04  0.00000000000E+00 0. -1.
         22    1    1    2    0    0 -0.14062138679E+04 -0.63923700626E+03  0.13838011007E+04  0.20738772573E+04  0.00000000000E+00 0.  1.
<mgrwt>
<rscale>  0 0.38111520E+04</rscale>
<asrwt>0</asrwt>
<pdfrwt beam="1">  1        1 0.25592337E+00 0.38111520E+04</pdfrwt>
<pdfrwt beam="2">  1       -1 0.33582721E+00 0.38111520E+04</pdfrwt>
<totfact> 0.77322494E-02</totfact>
</mgrwt>
</event>
<event>
 6    1  0.9906445E-006  0.2791742E+04  0.7818608E-02  0.8305837E-01
         -2   -1    0    0    0  501 -0.00000000000E+00  0.00000000000E+00  0.79727560895E+03  0.79727560895E+03  0.00000000000E+00 0. -1.
          2   -1    0    0  501    0  0.00000000000E+00 -0.00000000000E+00 -0.24438926552E+04  0.24438926552E+04  0.00000000000E+00 0.  1.
         23    2    1    2    0    0 -0.61020825041E+02 -0.29432352219E+03 -0.24049594123E+04  0.24254274837E+04  0.92297490525E+02 0.  0.
         11    1    3    3    0    0 -0.39389959099E+02 -0.12062882748E+03 -0.69115152123E+03  0.70270428218E+03  0.00000000000E+00 0. -1.
        -11    1    3    3    0    0 -0.21630865942E+02 -0.17369469471E+03 -0.17138078911E+04  0.17227232015E+04  0.00000000000E+00 0.  1.
         22    1    1    2    0    0  0.61020825041E+02  0.29432352219E+03  0.75834236607E+03  0.81574078050E+03  0.00000000000E+00 0. -1.
<mgrwt>
<rscale>  0 0.27917421E+04</rscale>
<asrwt>0</asrwt>
<pdfrwt beam="1">  1        2 0.37598348E+00 0.27917421E+04</pdfrwt>
<pdfrwt beam="2">  1       -2 0.12265779E+00 0.27917421E+04</pdfrwt>
<totfact> 0.16418219E+00</totfact>
</mgrwt>
</event>
<event>
 6    1  0.9906445E-006  0.1321364E+04  0.7818608E-02  0.9012793E-01
         -2   -1    0    0    0  501 -0.00000000000E+00  0.00000000000E+00  0.79360516186E+03  0.79360516186E+03  0.00000000000E+00 0. -1.
          2   -1    0    0  501    0  0.00000000000E+00 -0.00000000000E+00 -0.55002259641E+03  0.55002259641E+03  0.00000000000E+00 0.  1.
         23    2    1    2    0    0  0.64999538739E+03 -0.80371628614E+02  0.43008677465E+02  0.65865806051E+03  0.55019015140E+02 0.  0.
         11    1    3    3    0    0  0.34474990956E+03 -0.56859398334E+02  0.46503786307E+02  0.35248843025E+03  0.00000000000E+00 0.  1.
        -11    1    3    3    0    0  0.30524547783E+03 -0.23512230280E+02 -0.34951088413E+01  0.30616963026E+03  0.00000000000E+00 0. -1.
         22    1    1    2    0    0 -0.64999538739E+03  0.80371628614E+02  0.20057388798E+03  0.68496969776E+03  0.00000000000E+00 0. -1.
<mgrwt>
<rscale>  0 0.13213641E+04</rscale>
<asrwt>0</asrwt>
<pdfrwt beam="1">  1        2 0.84618862E-01 0.13213641E+04</pdfrwt>
<pdfrwt beam="2">  1       -2 0.12209310E+00 0.13213641E+04</pdfrwt>
<totfact> 0.27394015E+01</totfact>
</mgrwt>
</event>
<event>
 6    1  0.9906445E-006  0.8476779E+03  0.7818608E-02  0.9493459E-01
          1   -1    0    0  501    0  0.00000000000E+00  0.00000000000E+00  0.71800479810E+03  0.71800479810E+03  0.00000000000E+00 0. -1.
         -1   -1    0    0    0  501 -0.00000000000E+00 -0.00000000000E+00 -0.25019257643E+03  0.25019257643E+03  0.00000000000E+00 0.  1.
         23    2    1    2    0    0 -0.34009134821E+03  0.16484005077E+03  0.28534220833E+02  0.38871525274E+03  0.86319050573E+02 0.  0.
         13    1    3    3    0    0 -0.18725688486E+03  0.66126522115E+02 -0.22215346877E+02  0.19982837509E+03  0.00000000000E+00 0. -1.
        -13    1    3    3    0    0 -0.15283446335E+03  0.98713528650E+02  0.50749567710E+02  0.18888687765E+03  0.00000000000E+00 0.  1.
         22    1    1    2    0    0  0.34009134821E+03 -0.16484005077E+03  0.43927800083E+03  0.57948212179E+03  0.00000000000E+00 0. -1.
<mgrwt>
<rscale>  0 0.84767793E+03</rscale>
<asrwt>0</asrwt>
<pdfrwt beam="1">  1        1 0.11046228E+00 0.84767793E+03</pdfrwt>
<pdfrwt beam="2">  1       -1 0.38491166E-01 0.84767793E+03</pdfrwt>
<totfact> 0.17274210E+02</totfact>
</mgrwt>
</event>
<event>
 6    1  0.9906445E-006  0.3048090E+04  0.7818608E-02  0.8230130E-01
         -2   -1    0    0    0  501 -0.00000000000E+00  0.00000000000E+00  0.10055985644E+04  0.10055985644E+04  0.00000000000E+00 0.  1.
          2   -1    0    0  501    0  0.00000000000E+00 -0.00000000000E+00 -0.23097816949E+04  0.23097816949E+04  0.00000000000E+00 0. -1.
         23    2    1    2    0    0 -0.94222008502E+03  0.72794335917E+03  0.38057713869E+03  0.12523491429E+04  0.76545374882E+02 0.  0.
         13    1    3    3    0    0 -0.74330591406E+03  0.56499581987E+03  0.26579594021E+03  0.97075817801E+03  0.00000000000E+00 0. -1.
        -13    1    3    3    0    0 -0.19891417095E+03  0.16294753931E+03  0.11478119848E+03  0.28159096487E+03  0.00000000000E+00 0.  1.
         22    1    1    2    0    0  0.94222008502E+03 -0.72794335917E+03 -0.16847602692E+04  0.20630311164E+04  0.00000000000E+00 0. -1.
<mgrwt>
<rscale>  0 0.30480900E+04</rscale>
<asrwt>0</asrwt>
<pdfrwt beam="1">  1        2 0.35535102E+00 0.30480900E+04</pdfrwt>
<pdfrwt beam="2">  1       -2 0.15470747E+00 0.30480900E+04</pdfrwt>
<totfact> 0.10529382E+00</totfact>
</mgrwt>
</event>
<event>
 6    1  0.9906445E-006  0.3105040E+04  0.7818608E-02  0.8214356E-01
         -1   -1    0    0    0  501 -0.00000000000E+00  0.00000000000E+00  0.17560240735E+04  0.17560240735E+04  0.00000000000E+00 0.  1.
          1   -1    0    0  501    0  0.00000000000E+00 -0.00000000000E+00 -0.13726000603E+04  0.13726000603E+04  0.00000000000E+00 0. -1.
         23    2    1    2    0    0 -0.52529868988E+03  0.14571897399E+04  0.11080931534E+03  0.15558369819E+04  0.94917638354E+02 0.  0.
         11    1    3    3    0    0 -0.93242238743E+02  0.36908183337E+03  0.10906088502E+02  0.38083389762E+03  0.00000000000E+00 0. -1.
        -11    1    3    3    0    0 -0.43205645114E+03  0.10881079065E+04  0.99903226839E+02  0.11750030842E+04  0.00000000000E+00 0.  1.
         22    1    1    2    0    0  0.52529868988E+03 -0.14571897399E+04  0.27261469790E+03  0.15727871519E+04  0.00000000000E+00 0.  1.
<mgrwt>
<rscale>  0 0.31050403E+04</rscale>
<asrwt>0</asrwt>
<pdfrwt beam="1">  1        1 0.21116924E+00 0.31050403E+04</pdfrwt>
<pdfrwt beam="2">  1       -1 0.27015755E+00 0.31050403E+04</pdfrwt>
<totfact> 0.34920400E-01</totfact>
</mgrwt>
</event>
<event>
 6    1  0.9906445E-006  0.1991422E+04  0.7818608E-02  0.8610642E-01
         -1   -1    0    0    0  501 -0.00000000000E+00  0.00000000000E+00  0.13064477388E+04  0.13064477388E+04  0.00000000000E+00 0.  1.
          1   -1    0    0  501    0  0.00000000000E+00 -0.00000000000E+00 -0.75888224358E+03  0.75888224358E+03  0.00000000000E+00 0. -1.
         23    2    1    2    0    0 -0.93473122552E+03 -0.31027968233E+03  0.13761704566E+03  0.99853399601E+03  0.90198363039E+02 0.  0.
         11    1    3    3    0    0 -0.67598536106E+03 -0.26262969805E+03  0.11751620277E+03  0.73467041902E+03  0.00000000000E+00 0. -1.
        -11    1    3    3    0    0 -0.25874586446E+03 -0.47649984283E+02  0.20100842894E+02  0.26386357699E+03  0.00000000000E+00 0.  1.
         22    1    1    2    0    0  0.93473122552E+03  0.31027968233E+03  0.40994844956E+03  0.10667959864E+04  0.00000000000E+00 0. -1.
<mgrwt>
<rscale>  0 0.19914216E+04</rscale>
<asrwt>0</asrwt>
<pdfrwt beam="1">  1        1 0.11675111E+00 0.19914216E+04</pdfrwt>
<pdfrwt beam="2">  1       -1 0.20099196E+00 0.19914216E+04</pdfrwt>
<totfact> 0.33065454E+00</totfact>
</mgrwt>
</event>
<event>
 6    1  0.9906445E-006  0.1030886E+04  0.7818608E-02  0.9275303E-01
          2   -1    0    0  501    0  0.00000000000E+00  0.00000000000E+00  0.19290821822E+03  0.19290821822E+03  0.00000000000E+00 0. -1.
         -2   -1    0    0    0  501 -0.00000000000E+00 -0.00000000000E+00 -0.13772432949E+04  0.13772432949E+04  0.00000000000E+00 0.  1.
         23    2    1    2    0    0 -0.18005167248E+03  0.22505076197E+03 -0.12403053866E+04  0.12765546367E+04  0.90376092328E+02 0.  0.
         11    1    3    3    0    0 -0.11216552100E+03  0.11283373221E+03 -0.49940196960E+03  0.52413250469E+03  0.00000000000E+00 0. -1.
        -11    1    3    3    0    0 -0.67886151483E+02  0.11221702976E+03 -0.74090341703E+03  0.75242213199E+03  0.00000000000E+00 0.  1.
         22    1    1    2    0    0  0.18005167248E+03 -0.22505076197E+03  0.55970310002E+02  0.29359687639E+03  0.00000000000E+00 0. -1.
<mgrwt>
<rscale>  0 0.10308861E+04</rscale>
<asrwt>0</asrwt>
<pdfrwt beam="1">  1        2 0.29678187E-01 0.10308861E+04</pdfrwt>
<pdfrwt beam="2">  1       -2 0.21188359E+00 0.10308861E+04</pdfrwt>
<totfact> 0.20041397E+01</totfact>
</mgrwt>
</event>
<event>
 6    1  0.9906445E-006  0.1787275E+04  0.7818608E-02  0.8713096E-01
          2   -1    0    0  501    0  0.00000000000E+00  0.00000000000E+00  0.25674157944E+04  0.25674157944E+04  0.00000000000E+00 0.  1.
         -2   -1    0    0    0  501 -0.00000000000E+00 -0.00000000000E+00 -0.31104731769E+03  0.31104731769E+03  0.00000000000E+00 0. -1.
         23    2    1    2    0    0 -0.20922215606E+03 -0.38023302506E+03  0.23849248123E+04  0.24258288278E+04  0.91804560641E+02 0.  0.
         13    1    3    3    0    0 -0.38853112863E+02 -0.10767735985E+03  0.44674491583E+03  0.46117783774E+03  0.00000000000E+00 0.  1.
        -13    1    3    3    0    0 -0.17036904320E+03 -0.27255566521E+03  0.19381798965E+04  0.19646509900E+04  0.00000000000E+00 0. -1.
         22    1    1    2    0    0  0.20922215606E+03  0.38023302506E+03 -0.12855633559E+03  0.45263428433E+03  0.00000000000E+00 0. -1.
<mgrwt>
<rscale>  0 0.17872748E+04</rscale>
<asrwt>0</asrwt>
<pdfrwt beam="1">  1        2 0.39498703E+00 0.17872748E+04</pdfrwt>
<pdfrwt beam="2">  1       -2 0.47853435E-01 0.17872748E+04</pdfrwt>
<totfact> 0.12453664E+01</totfact>
</mgrwt>
</event>
<event>
 6    1  0.9906445E-006  0.2013087E+04  0.7818608E-02  0.8600526E-01
          1   -1    0    0  501    0  0.00000000000E+00  0.00000000000E+00  0.21972207668E+04  0.21972207668E+04  0.00000000000E+00 0. -1.
         -1   -1    0    0    0  501 -0.00000000000E+00 -0.00000000000E+00 -0.46109596261E+03  0.46109596261E+03  0.00000000000E+00 0.  1.
         23    2    1    2    0    0 -0.92938876513E+03 -0.37439575368E+03  0.77504841053E+03  0.12699351206E+04  0.89997304792E+02 0.  0.
         11    1    3    3    0    0 -0.35650389347E+03 -0.18975297355E+03  0.29775818235E+03  0.50175806140E+03  0.00000000000E+00 0. -1.
        -11    1    3    3    0    0 -0.57288487166E+03 -0.18464278013E+03  0.47729022818E+03  0.76817705924E+03  0.00000000000E+00 0.  1.
         22    1    1    2    0    0  0.92938876513E+03  0.37439575368E+03  0.96107639368E+03  0.13883816088E+04  0.00000000000E+00 0. -1.
<mgrwt>
<rscale>  0 0.20130868E+04</rscale>
<asrwt>0</asrwt>
<pdfrwt beam="1">  1        1 0.33803396E+00 0.20130868E+04</pdfrwt>
<pdfrwt beam="2">  1       -1 0.70937841E-01 0.20130868E+04</pdfrwt>
<totfact> 0.40701654E+00</totfact>
</mgrwt>
</event>
<event>
 6    1  0.9906445E-006  0.3356231E+04  0.7818608E-02  0.8148733E-01
         -1   -1    0    0    0  501 -0.00000000000E+00  0.00000000000E+00  0.97514482391E+03  0.97514482391E+03  0.00000000000E+00 0.  1.
          1   -1    0    0  501    0  0.00000000000E+00 -0.00000000000E+00 -0.28878499530E+04  0.28878499530E+04  0.00000000000E+00 0. -1.
         23    2    1    2    0    0 -0.35517331299E+03  0.10840029319E+04 -0.23708177985E+04  0.26337357901E+04  0.12073416976E+03 0.  0.
         13    1    3    3    0    0 -0.87854470297E+02  0.16569817592E+03 -0.46487997955E+03  0.50128603495E+03  0.00000000000E+00 0. -1.
        -13    1    3    3    0    0 -0.26731884269E+03  0.91830475603E+03 -0.19059378189E+04  0.21324497551E+04  0.00000000000E+00 0.  1.
         22    1    1    2    0    0  0.35517331299E+03 -0.10840029319E+04  0.45811266941E+03  0.12292589868E+04  0.00000000000E+00 0.  1.
<mgrwt>
<rscale>  0 0.33562312E+04</rscale>
<asrwt>0</asrwt>
<pdfrwt beam="1">  1        1 0.44428461E+00 0.33562312E+04</pdfrwt>
<pdfrwt beam="2">  1       -1 0.15002228E+00 0.33562312E+04</pdfrwt>
<totfact> 0.20745771E-01</totfact>
</mgrwt>
</event>
<event>
 6    1  0.9906445E-006  0.2440081E+04  0.7818608E-02  0.8424648E-01
         -2   -1    0    0    0  501 -0.00000000000E+00  0.00000000000E+00  0.58628803864E+03  0.58628803864E+03  0.00000000000E+00 0.  1.
          2   -1    0    0  501    0  0.00000000000E+00 -0.00000000000E+00 -0.25388528527E+04  0.25388528527E+04  0.00000000000E+00 0. -1.
         23    2    1    2    0    0 -0.20324969541E+03 -0.78976881374E+03  0.18155808192E+03  0.84051274808E+03  0.91940876259E+02 0.  0.
         13    1    3    3    0    0 -0.12398051032E+03 -0.36989487985E+03  0.12405873321E+03  0.40937019721E+03  0.00000000000E+00 0. -1.
        -13    1    3    3    0    0 -0.79269185092E+02 -0.41987393389E+03  0.57499348709E+02  0.43114255087E+03  0.00000000000E+00 0.  1.
         22    1    1    2    0    0  0.20324969541E+03  0.78976881374E+03 -0.21341228960E+04  0.22846281433E+04  0.00000000000E+00 0. -1.
<mgrwt>
<rscale>  0 0.24400812E+04</rscale>
<asrwt>0</asrwt>
<pdfrwt beam="1">  1        2 0.39059274E+00 0.24400812E+04</pdfrwt>
<pdfrwt beam="2">  1       -2 0.90198162E-01 0.24400812E+04</pdfrwt>
<totfact> 0.31138935E+00</totfact>
</mgrwt>
</event>
<event>
 6    1  0.9906445E-006  0.3786341E+04  0.7818608E-02  0.8049092E-01
         -2   -1    0    0    0  501 -0.00000000000E+00  0.00000000000E+00  0.14018169575E+04  0.14018169575E+04  0.00000000000E+00 0.  1.
          2   -1    0    0  501    0  0.00000000000E+00 -0.00000000000E+00 -0.25567496725E+04  0.25567496725E+04  0.00000000000E+00 0. -1.
         23    2    1    2    0    0  0.44102987281E+03  0.12551761490E+04 -0.19843189750E+04  0.23908115209E+04  0.92105484835E+02 0.  0.
         11    1    3    3    0    0  0.18833457982E+03  0.52254832885E+03 -0.91026147642E+03  0.10663501420E+04  0.00000000000E+00 0. -1.
        -11    1    3    3    0    0  0.25269529299E+03  0.73262782013E+03 -0.10740574985E+04  0.13244613789E+04  0.00000000000E+00 0.  1.
         22    1    1    2    0    0 -0.44102987281E+03 -0.12551761490E+04  0.82938625996E+03  0.15677551090E+04  0.00000000000E+00 0.  1.
<mgrwt>
<rscale>  0 0.37863413E+04</rscale>
<asrwt>0</asrwt>
<pdfrwt beam="1">  1        2 0.39334610E+00 0.37863413E+04</pdfrwt>
<pdfrwt beam="2">  1       -2 0.21566415E+00 0.37863413E+04</pdfrwt>
<totfact> 0.27270973E-01</totfact>
</mgrwt>
</event>
<event>
 6    1  0.9906445E-006  0.4550709E+04  0.7818608E-02  0.7901819E-01
          1   -1    0    0  501    0  0.00000000000E+00  0.00000000000E+00  0.30578687339E+04  0.30578687339E+04  0.00000000000E+00 0. -1.
         -1   -1    0    0    0  501 -0.00000000000E+00 -0.00000000000E+00 -0.16930868407E+04  0.16930868407E+04  0.00000000000E+00 0.  1.
         23    2    1    2    0    0  0.14652529309E+04  0.15830849248E+04 -0.70270001710E+02  0.21601066844E+04  0.89437041862E+02 0.  0.
         11    1    3    3    0    0  0.92429905384E+03  0.10415310392E+04 -0.13987355207E+02  0.13925915742E+04  0.00000000000E+00 0. -1.
        -11    1    3    3    0    0  0.54095387702E+03  0.54155388565E+03 -0.56282646502E+02  0.76751511023E+03  0.00000000000E+00 0.  1.
         22    1    1    2    0    0 -0.14652529309E+04 -0.15830849248E+04  0.14350518949E+04  0.25908488901E+04  0.00000000000E+00 0. -1.
<mgrwt>
<rscale>  0 0.45507087E+04</rscale>
<asrwt>0</asrwt>
<pdfrwt beam="1">  1        1 0.47044134E+00 0.45507087E+04</pdfrwt>
<pdfrwt beam="2">  1       -1 0.26047490E+00 0.45507087E+04</pdfrwt>
<totfact> 0.24161746E-02</totfact>
</mgrwt>
</event>
<event>
 6    1  0.9906445E-006  0.6710982E+03  0.7818608E-02  0.9767976E-01
         -4   -1    0    0    0  501 -0.00000000000E+00  0.00000000000E+00  0.12129861976E+04  0.12129861976E+04  0.00000000000E+00 0.  1.
          4   -1    0    0  501    0  0.00000000000E+00 -0.00000000000E+00 -0.92823161653E+02  0.92823161653E+02  0.00000000000E+00 0. -1.
         23    2    1    2    0    0  0.10661765644E+03  0.45933155690E+02  0.11709226691E+04  0.11791060846E+04  0.75855668456E+02 0.  0.
         11    1    3    3    0    0  0.65056934364E+02 -0.64073547678E+01  0.75755247579E+03  0.76036781395E+03  0.00000000000E+00 0. -1.
        -11    1    3    3    0    0  0.41560722078E+02  0.52340510458E+02  0.41337019327E+03  0.41873827069E+03  0.00000000000E+00 0.  1.
         22    1    1    2    0    0 -0.10661765644E+03 -0.45933155690E+02 -0.50759633083E+02  0.12670327465E+03  0.00000000000E+00 0. -1.
<mgrwt>
<rscale>  0 0.67109825E+03</rscale>
<asrwt>0</asrwt>
<pdfrwt beam="1">  1        4 0.14280487E-01 0.67109825E+03</pdfrwt>
<pdfrwt beam="2">  1       -4 0.18661325E+00 0.67109825E+03</pdfrwt>
<totfact> 0.13778508E+01</totfact>
</mgrwt>
</event>
<event>
 6    1  0.1094432E-005  0.3638917E+04  0.7818608E-02  0.8081635E-01
          2   -1    0    0  501    0  0.00000000000E+00  0.00000000000E+00  0.17394660106E+04  0.17394660106E+04  0.00000000000E+00 0. -1.
         -2   -1    0    0    0  501 -0.00000000000E+00 -0.00000000000E+00 -0.19031298394E+04  0.19031298394E+04  0.00000000000E+00 0.  1.
         23    2    1    2    0    0  0.23056375008E+03 -0.26809951073E+03 -0.18672961866E+04  0.19026532643E+04  0.90870265773E+02 0.  0.
         11    1    3    3    0    0  0.48798173077E+02 -0.10657756486E+02 -0.25250279190E+03  0.25739562814E+03  0.00000000000E+00 0.  1.
        -11    1    3    3    0    0  0.18176557701E+03 -0.25744175424E+03 -0.16147933947E+04  0.16452576362E+04  0.00000000000E+00 0. -1.
         22    1    1    2    0    0 -0.23056375008E+03  0.26809951073E+03  0.17036323579E+04  0.17399425857E+04  0.00000000000E+00 0. -1.
<mgrwt>
<rscale>  0 0.36389172E+04</rscale>
<asrwt>0</asrwt>
<pdfrwt beam="1">  1        2 0.26761016E+00 0.36389172E+04</pdfrwt>
<pdfrwt beam="2">  1       -2 0.29278921E+00 0.36389172E+04</pdfrwt>
<totfact> 0.26648420E-01</totfact>
</mgrwt>
</event>
<event>
 6    1  0.9906445E-006  0.3758893E+04  0.7818608E-02  0.8055034E-01
         -1   -1    0    0    0  501 -0.00000000000E+00  0.00000000000E+00  0.18593786073E+04  0.18593786073E+04  0.00000000000E+00 0.  1.
          1   -1    0    0  501    0  0.00000000000E+00 -0.00000000000E+00 -0.18997314343E+04  0.18997314343E+04  0.00000000000E+00 0. -1.
         23    2    1    2    0    0 -0.36383058116E+03 -0.75737548786E+03 -0.17001790614E+04  0.18987301207E+04  0.92611601763E+02 0.  0.
         11    1    3    3    0    0 -0.70175308212E+02 -0.23954353054E+03 -0.47568143935E+03  0.53719503781E+03  0.00000000000E+00 0.  1.
        -11    1    3    3    0    0 -0.29365527295E+03 -0.51783195732E+03 -0.12244976221E+04  0.13615350829E+04  0.00000000000E+00 0. -1.
         22    1    1    2    0    0  0.36383058116E+03  0.75737548786E+03  0.16598262345E+04  0.18603799209E+04  0.00000000000E+00 0.  1.
<mgrwt>
<rscale>  0 0.37588934E+04</rscale>
<asrwt>0</asrwt>
<pdfrwt beam="1">  1        1 0.29226637E+00 0.37588934E+04</pdfrwt>
<pdfrwt beam="2">  1       -1 0.28605825E+00 0.37588934E+04</pdfrwt>
<totfact> 0.11315887E-01</totfact>
</mgrwt>
</event>
<event>
 6    1  0.9906445E-006  0.3409805E+04  0.7818608E-02  0.8135504E-01
         -2   -1    0    0    0  501 -0.00000000000E+00  0.00000000000E+00  0.95614930506E+03  0.95614930506E+03  0.00000000000E+00 0.  1.
          2   -1    0    0  501    0  0.00000000000E+00 -0.00000000000E+00 -0.30399986367E+04  0.30399986367E+04  0.00000000000E+00 0. -1.
         23    2    1    2    0    0 -0.56852644024E+03  0.15975216431E+04 -0.12350471997E+04  0.20998982818E+04  0.94517167410E+02 0.  0.
         11    1    3    3    0    0 -0.42127090529E+02  0.75345870881E+02 -0.82189330755E+02  0.11919218978E+03  0.00000000000E+00 0. -1.
        -11    1    3    3    0    0 -0.52639934971E+03  0.15221757723E+04 -0.11528578689E+04  0.19807060920E+04  0.00000000000E+00 0.  1.
         22    1    1    2    0    0  0.56852644024E+03 -0.15975216431E+04 -0.84880213194E+03  0.18962496599E+04  0.00000000000E+00 0.  1.
<mgrwt>
<rscale>  0 0.34098050E+04</rscale>
<asrwt>0</asrwt>
<pdfrwt beam="1">  1        2 0.46769209E+00 0.34098050E+04</pdfrwt>
<pdfrwt beam="2">  1       -2 0.14709990E+00 0.34098050E+04</pdfrwt>
<totfact> 0.42877027E-01</totfact>
</mgrwt>
</event>
<event>
 6    1  0.9906445E-006  0.7570782E+04  0.7818608E-02  0.7521273E-01
         -2   -1    0    0    0  501 -0.00000000000E+00  0.00000000000E+00  0.42943780607E+04  0.42943780607E+04  0.00000000000E+00 0.  1.
          2   -1    0    0  501    0  0.00000000000E+00 -0.00000000000E+00 -0.33367313494E+04  0.33367313494E+04  0.00000000000E+00 0. -1.
         23    2    1    2    0    0 -0.32821861056E+03 -0.23286583425E+04  0.34680924483E+04  0.41912380562E+04  0.91837254129E+02 0.  0.
         11    1    3    3    0    0 -0.23111441764E+03 -0.13265812132E+04  0.19622594030E+04  0.23798515823E+04  0.00000000000E+00 0.  1.
        -11    1    3    3    0    0 -0.97104192915E+02 -0.10020771294E+04  0.15058330453E+04  0.18113864739E+04  0.00000000000E+00 0. -1.
         22    1    1    2    0    0  0.32821861056E+03  0.23286583425E+04 -0.25104457370E+04  0.34398713539E+04  0.00000000000E+00 0. -1.
<mgrwt>
<rscale>  0 0.75707822E+04</rscale>
<asrwt>0</asrwt>
<pdfrwt beam="1">  1        2 0.51334329E+00 0.75707822E+04</pdfrwt>
<pdfrwt beam="2">  1       -2 0.66067355E+00 0.75707822E+04</pdfrwt>
<totfact> 0.20100624E-04</totfact>
</mgrwt>
</event>
<event>
 6    1  0.9906445E-006  0.5540492E+04  0.7818608E-02  0.7750142E-01
         -1   -1    0    0    0  501 -0.00000000000E+00  0.00000000000E+00  0.17265561038E+04  0.17265561038E+04  0.00000000000E+00 0.  1.
          1   -1    0    0  501    0  0.00000000000E+00 -0.00000000000E+00 -0.44448387606E+04  0.44448387606E+04  0.00000000000E+00 0. -1.
         23    2    1    2    0    0  0.16890114854E+04 -0.50352328706E+03  0.10200564468E+04  0.20384207838E+04  0.91370885522E+02 0.  0.
         13    1    3    3    0    0  0.11545306382E+04 -0.32556860786E+03  0.73838802317E+03  0.14085995831E+04  0.00000000000E+00 0.  1.
        -13    1    3    3    0    0  0.53448084724E+03 -0.17795467919E+03  0.28166842360E+03  0.62982120063E+03  0.00000000000E+00 0. -1.
         22    1    1    2    0    0 -0.16890114854E+04  0.50352328706E+03 -0.37383391035E+04  0.41329740806E+04  0.00000000000E+00 0. -1.
<mgrwt>
<rscale>  0 0.55404922E+04</rscale>
<asrwt>0</asrwt>
<pdfrwt beam="1">  1        1 0.68382133E+00 0.55404922E+04</pdfrwt>
<pdfrwt beam="2">  1       -1 0.26562402E+00 0.55404922E+04</pdfrwt>
<totfact> 0.13886414E-03</totfact>
</mgrwt>
</event>
<event>
 6    1  0.9906445E-006  0.3742013E+04  0.7818608E-02  0.8058714E-01
         -1   -1    0    0    0  501 -0.00000000000E+00  0.00000000000E+00  0.12629611323E+04  0.12629611323E+04  0.00000000000E+00 0.  1.
          1   -1    0    0  501    0  0.00000000000E+00 -0.00000000000E+00 -0.27717923784E+04  0.27717923784E+04  0.00000000000E+00 0. -1.
         23    2    1    2    0    0 -0.18683652987E+04 -0.47110813424E+02 -0.69418065645E+03  0.19959636978E+04  0.94741652849E+02 0.  0.
         13    1    3    3    0    0 -0.10978189331E+04 -0.17222417918E+02 -0.45611730930E+03  0.11889264155E+04  0.00000000000E+00 0.  1.
        -13    1    3    3    0    0 -0.77054636559E+03 -0.29888395506E+02 -0.23806334715E+03  0.80703728226E+03  0.00000000000E+00 0. -1.
         22    1    1    2    0    0  0.18683652987E+04  0.47110813424E+02 -0.81465058964E+03  0.20387898130E+04  0.00000000000E+00 0. -1.
<mgrwt>
<rscale>  0 0.37420134E+04</rscale>
<asrwt>0</asrwt>
<pdfrwt beam="1">  1        1 0.42642960E+00 0.37420134E+04</pdfrwt>
<pdfrwt beam="2">  1       -1 0.19430171E+00 0.37420134E+04</pdfrwt>
<totfact> 0.11501185E-01</totfact>
</mgrwt>
</event>
<event>
 6    1  0.9906445E-006  0.2504872E+04  0.7818608E-02  0.8401252E-01
          2   -1    0    0  501    0  0.00000000000E+00  0.00000000000E+00  0.16581657056E+04  0.16581657056E+04  0.00000000000E+00 0. -1.
         -2   -1    0    0    0  501 -0.00000000000E+00 -0.00000000000E+00 -0.94598224714E+03  0.94598224714E+03  0.00000000000E+00 0.  1.
         23    2    1    2    0    0 -0.84990854201E+03 -0.81981947442E+03  0.78519298299E+03  0.14210254354E+04  0.91305898867E+02 0.  0.
         11    1    3    3    0    0 -0.65822454259E+03 -0.62105878494E+03  0.55562029699E+03  0.10619263050E+04  0.00000000000E+00 0. -1.
        -11    1    3    3    0    0 -0.19168399942E+03 -0.19876068948E+03  0.22957268600E+03  0.35909913043E+03  0.00000000000E+00 0.  1.
         22    1    1    2    0    0  0.84990854201E+03  0.81981947442E+03 -0.73009524498E+02  0.11831225174E+04  0.00000000000E+00 0.  1.
<mgrwt>
<rscale>  0 0.25048715E+04</rscale>
<asrwt>0</asrwt>
<pdfrwt beam="1">  1        2 0.25510242E+00 0.25048715E+04</pdfrwt>
<pdfrwt beam="2">  1       -2 0.14553573E+00 0.25048715E+04</pdfrwt>
<totfact> 0.29942088E+00</totfact>
</mgrwt>
</event>
<event>
 6    1  0.9906445E-006  0.2355724E+04  0.7818608E-02  0.8456268E-01
         -2   -1    0    0    0  501 -0.00000000000E+00  0.00000000000E+00  0.25688691400E+04  0.25688691400E+04  0.00000000000E+00 0.  1.
          2   -1    0    0  501    0  0.00000000000E+00 -0.00000000000E+00 -0.54006621869E+03  0.54006621869E+03  0.00000000000E+00 0. -1.
         23    2    1    2    0    0 -0.39568390597E+03 -0.66277266580E+03  0.21869941453E+04  0.23209900413E+04  0.90653296110E+02 0.  0.
         11    1    3    3    0    0 -0.80043058928E+02 -0.18753667282E+03  0.66628066622E+03  0.69678319520E+03  0.00000000000E+00 0. -1.
        -11    1    3    3    0    0 -0.31564084704E+03 -0.47523599298E+03  0.15207134791E+04  0.16242068461E+04  0.00000000000E+00 0.  1.
         22    1    1    2    0    0  0.39568390597E+03  0.66277266580E+03 -0.15819122396E+03  0.78794531746E+03  0.00000000000E+00 0. -1.
<mgrwt>
<rscale>  0 0.23557245E+04</rscale>
<asrwt>0</asrwt>
<pdfrwt beam="1">  1        2 0.83087112E-01 0.23557245E+04</pdfrwt>
<pdfrwt beam="2">  1       -2 0.39521063E+00 0.23557245E+04</pdfrwt>
<totfact> 0.40534654E-01</totfact>
</mgrwt>
</event>
<event>
 6    1  0.9906445E-006  0.3328254E+04  0.7818608E-02  0.8155743E-01
          1   -1    0    0  501    0  0.00000000000E+00  0.00000000000E+00  0.35303883163E+04  0.35303883163E+04  0.00000000000E+00 0. -1.
         -1   -1    0    0    0  501 -0.00000000000E+00 -0.00000000000E+00 -0.78442304711E+03  0.78442304711E+03  0.00000000000E+00 0.  1.
         23    2    1    2    0    0 -0.15186867005E+04  0.36904106749E+03  0.21110057541E+04  0.26278691031E+04  0.82159145293E+02 0.  0.
         11    1    3    3    0    0 -0.97038330881E+03  0.19945413960E+03  0.13064451407E+04  0.16395806248E+04  0.00000000000E+00 0. -1.
        -11    1    3    3    0    0 -0.54830339170E+03  0.16958692789E+03  0.80456061347E+03  0.98828847823E+03  0.00000000000E+00 0.  1.
         22    1    1    2    0    0  0.15186867005E+04 -0.36904106749E+03  0.63495951502E+03  0.16869422603E+04  0.00000000000E+00 0.  1.
<mgrwt>
<rscale>  0 0.33282536E+04</rscale>
<asrwt>0</asrwt>
<pdfrwt beam="1">  1        1 0.54313665E+00 0.33282536E+04</pdfrwt>
<pdfrwt beam="2">  1       -1 0.12068047E+00 0.33282536E+04</pdfrwt>
<totfact> 0.11930237E-01</totfact>
</mgrwt>
</event>
<event>
 6    1  0.9906445E-006  0.3584348E+04  0.7818608E-02  0.8094086E-01
          2   -1    0    0  501    0  0.00000000000E+00  0.00000000000E+00  0.29905285739E+04  0.29905285739E+04  0.00000000000E+00 0.  1.
         -2   -1    0    0    0  501 -0.00000000000E+00 -0.00000000000E+00 -0.10740199269E+04  0.10740199269E+04  0.00000000000E+00 0. -1.
         23    2    1    2    0    0  0.36071014389E+03 -0.66852924377E+02  0.29467586608E+04  0.29709323833E+04  0.92040748219E+02 0.  0.
         11    1    3    3    0    0  0.15256036326E+03 -0.56971728579E+02  0.10171246540E+04  0.10300791251E+04  0.00000000000E+00 0. -1.
        -11    1    3    3    0    0  0.20814978063E+03 -0.98811957983E+01  0.19296340069E+04  0.19408532581E+04  0.00000000000E+00 0.  1.
         22    1    1    2    0    0 -0.36071014389E+03  0.66852924377E+02 -0.10302500139E+04  0.10936161176E+04  0.00000000000E+00 0. -1.
<mgrwt>
<rscale>  0 0.35843478E+04</rscale>
<asrwt>0</asrwt>
<pdfrwt beam="1">  1        2 0.46008132E+00 0.35843478E+04</pdfrwt>
<pdfrwt beam="2">  1       -2 0.16523384E+00 0.35843478E+04</pdfrwt>
<totfact> 0.33196784E-01</totfact>
</mgrwt>
</event>
<event>
 6    1  0.9906445E-006  0.2109706E+04  0.7818608E-02  0.8556980E-01
          2   -1    0    0  501    0  0.00000000000E+00  0.00000000000E+00  0.92997639192E+03  0.92997639192E+03  0.00000000000E+00 0. -1.
         -2   -1    0    0    0  501 -0.00000000000E+00 -0.00000000000E+00 -0.11964974137E+04  0.11964974137E+04  0.00000000000E+00 0.  1.
         23    2    1    2    0    0 -0.19364854663E+03 -0.10202934473E+04 -0.30610748979E+03  0.10872117757E+04  0.99142179382E+02 0.  0.
         11    1    3    3    0    0 -0.15326199200E+03 -0.70249413338E+03 -0.16817475388E+03  0.73842399302E+03  0.00000000000E+00 0.  1.
        -11    1    3    3    0    0 -0.40386554637E+02 -0.31779931396E+03 -0.13793273591E+03  0.34878778273E+03  0.00000000000E+00 0. -1.
         22    1    1    2    0    0  0.19364854663E+03  0.10202934473E+04  0.39586468009E+02  0.10392620299E+04  0.00000000000E+00 0.  1.
<mgrwt>
<rscale>  0 0.21097055E+04</rscale>
<asrwt>0</asrwt>
<pdfrwt beam="1">  1        2 0.14307329E+00 0.21097055E+04</pdfrwt>
<pdfrwt beam="2">  1       -2 0.18407652E+00 0.21097055E+04</pdfrwt>
<totfact> 0.43805620E+00</totfact>
</mgrwt>
</event>
<event>
 6    1  0.9906445E-006  0.2777269E+04  0.7818608E-02  0.8310360E-01
          1   -1    0    0  501    0  0.00000000000E+00  0.00000000000E+00  0.16186211384E+04  0.16186211384E+04  0.00000000000E+00 0. -1.
         -1   -1    0    0    0  501 -0.00000000000E+00 -0.00000000000E+00 -0.11913265813E+04  0.11913265813E+04  0.00000000000E+00 0.  1.
         23    2    1    2    0    0 -0.11004621598E+04  0.80401820019E+03 -0.45270661299E+02  0.13674567779E+04  0.10210962454E+03 0.  0.
         13    1    3    3    0    0 -0.58886307482E+03  0.37345140771E+03 -0.66292132805E+00  0.69729915694E+03  0.00000000000E+00 0.  1.
        -13    1    3    3    0    0 -0.51159908494E+03  0.43056679249E+03 -0.44607739971E+02  0.67015762099E+03  0.00000000000E+00 0. -1.
         22    1    1    2    0    0  0.11004621598E+04 -0.80401820019E+03  0.47256521844E+03  0.14424909417E+04  0.00000000000E+00 0.  1.
<mgrwt>
<rscale>  0 0.27772694E+04</rscale>
<asrwt>0</asrwt>
<pdfrwt beam="1">  1        1 0.24901864E+00 0.27772694E+04</pdfrwt>
<pdfrwt beam="2">  1       -1 0.18328101E+00 0.27772694E+04</pdfrwt>
<totfact> 0.92660685E-01</totfact>
</mgrwt>
</event>
<event>
 6    1  0.9906445E-006  0.2220621E+04  0.7818608E-02  0.8509894E-01
          2   -1    0    0  501    0  0.00000000000E+00  0.00000000000E+00  0.31369163896E+04  0.31369163896E+04  0.00000000000E+00 0. -1.
         -2   -1    0    0    0  501 -0.00000000000E+00 -0.00000000000E+00 -0.39299386867E+03  0.39299386867E+03  0.00000000000E+00 0.  1.
         23    2    1    2    0    0 -0.89855327839E+03  0.56876615041E+03  0.87941637197E+03  0.13834536183E+04  0.98375965885E+02 0.  0.
         11    1    3    3    0    0 -0.31700896970E+03  0.17002733345E+03  0.34802221702E+03  0.50052317082E+03  0.00000000000E+00 0.  1.
        -11    1    3    3    0    0 -0.58154430868E+03  0.39873881696E+03  0.53139415496E+03  0.88293044745E+03  0.00000000000E+00 0. -1.
         22    1    1    2    0    0  0.89855327839E+03 -0.56876615041E+03  0.18645061490E+04  0.21464566400E+04  0.00000000000E+00 0. -1.
<mgrwt>
<rscale>  0 0.22206206E+04</rscale>
<asrwt>0</asrwt>
<pdfrwt beam="1">  1        2 0.48260251E+00 0.22206206E+04</pdfrwt>
<pdfrwt beam="2">  1       -2 0.60460597E-01 0.22206206E+04</pdfrwt>
<totfact> 0.33187193E+00</totfact>
</mgrwt>
</event>
<event>
 6    1  0.9906445E-006  0.1783495E+04  0.7818608E-02  0.8715126E-01
         -1   -1    0    0    0  501 -0.00000000000E+00  0.00000000000E+00  0.50071927540E+03  0.50071927540E+03  0.00000000000E+00 0.  1.
          1   -1    0    0  501    0  0.00000000000E+00 -0.00000000000E+00 -0.15881428304E+04  0.15881428304E+04  0.00000000000E+00 0. -1.
         23    2    1    2    0    0  0.76505348569E+03  0.22543566694E+03 -0.83875338680E+02  0.80697400680E+03  0.89687787993E+02 0.  0.
         13    1    3    3    0    0  0.26669036305E+03  0.84038018307E+02  0.13173213172E+02  0.27992797611E+03  0.00000000000E+00 0.  1.
        -13    1    3    3    0    0  0.49836312264E+03  0.14139764863E+03 -0.97048551852E+02  0.52704603069E+03  0.00000000000E+00 0. -1.
         22    1    1    2    0    0 -0.76505348569E+03 -0.22543566694E+03 -0.10035482164E+04  0.12818880990E+04  0.00000000000E+00 0. -1.
<mgrwt>
<rscale>  0 0.17834951E+04</rscale>
<asrwt>0</asrwt>
<pdfrwt beam="1">  1        1 0.24432967E+00 0.17834951E+04</pdfrwt>
<pdfrwt beam="2">  1       -1 0.77033734E-01 0.17834951E+04</pdfrwt>
<totfact> 0.90799236E+00</totfact>
</mgrwt>
</event>
<event>
 6    1  0.9906445E-006  0.2750876E+04  0.7818608E-02  0.8318684E-01
          1   -1    0    0  501    0  0.00000000000E+00  0.00000000000E+00  0.10668204821E+04  0.10668204821E+04  0.00000000000E+00 0. -1.
         -1   -1    0    0    0  501 -0.00000000000E+00 -0.00000000000E+00 -0.17733342555E+04  0.17733342555E+04  0.00000000000E+00 0.  1.
         23    2    1    2    0    0  0.66592835887E+02 -0.10408135396E+04 -0.12770741072E+04  0.16513458697E+04  0.91090482229E+02 0.  0.
         13    1    3    3    0    0 -0.56334049914E+01 -0.28053128219E+03 -0.39638911762E+03  0.48564788490E+03  0.00000000000E+00 0. -1.
        -13    1    3    3    0    0  0.72226240878E+02 -0.76028225741E+03 -0.88068498962E+03  0.11656979848E+04  0.00000000000E+00 0.  1.
         22    1    1    2    0    0 -0.66592835887E+02  0.10408135396E+04  0.57056033382E+03  0.11888088680E+04  0.00000000000E+00 0. -1.
<mgrwt>
<rscale>  0 0.27508757E+04</rscale>
<asrwt>0</asrwt>
<pdfrwt beam="1">  1        1 0.16412623E+00 0.27508757E+04</pdfrwt>
<pdfrwt beam="2">  1       -1 0.27282065E+00 0.27508757E+04</pdfrwt>
<totfact> 0.57856748E-01</totfact>
</mgrwt>
</event>
<event>
 6    1  0.9906445E-006  0.5599936E+04  0.7818608E-02  0.7742086E-01
          1   -1    0    0  501    0  0.00000000000E+00  0.00000000000E+00  0.19567603462E+04  0.19567603462E+04  0.00000000000E+00 0. -1.
         -1   -1    0    0    0  501 -0.00000000000E+00 -0.00000000000E+00 -0.40065309639E+04  0.40065309639E+04  0.00000000000E+00 0.  1.
         23    2    1    2    0    0 -0.71067877924E+03  0.10498880448E+04  0.16322770704E+04  0.20690899271E+04  0.97341964472E+02 0.  0.
         13    1    3    3    0    0 -0.56814110812E+03  0.87425304896E+03  0.13907043781E+04  0.17381488370E+04  0.00000000000E+00 0. -1.
        -13    1    3    3    0    0 -0.14253767112E+03  0.17563499582E+03  0.24157269235E+03  0.33094109013E+03  0.00000000000E+00 0.  1.
         22    1    1    2    0    0  0.71067877924E+03 -0.10498880448E+04 -0.36820476881E+04  0.38942013830E+04  0.00000000000E+00 0.  1.
<mgrwt>
<rscale>  0 0.55999360E+04</rscale>
<asrwt>0</asrwt>
<pdfrwt beam="1">  1        1 0.30104006E+00 0.55999360E+04</pdfrwt>
<pdfrwt beam="2">  1       -1 0.61638937E+00 0.55999360E+04</pdfrwt>
<totfact> 0.85344615E-04</totfact>
</mgrwt>
</event>
<event>
 6    1  0.9906445E-006  0.3791950E+04  0.7818608E-02  0.8047885E-01
          1   -1    0    0  501    0  0.00000000000E+00  0.00000000000E+00  0.11138436300E+04  0.11138436300E+04  0.00000000000E+00 0. -1.
         -1   -1    0    0    0  501 -0.00000000000E+00 -0.00000000000E+00 -0.32273122425E+04  0.32273122425E+04  0.00000000000E+00 0.  1.
         23    2    1    2    0    0 -0.10691166567E+04 -0.15604016343E+04 -0.11865974331E+04  0.22347480608E+04  0.90673815718E+02 0.  0.
         11    1    3    3    0    0 -0.76201306961E+03 -0.10374162825E+04 -0.80883853233E+03  0.15202355846E+04  0.00000000000E+00 0.  1.
        -11    1    3    3    0    0 -0.30710358712E+03 -0.52298535186E+03 -0.37775890074E+03  0.71451247615E+03  0.00000000000E+00 0. -1.
         22    1    1    2    0    0  0.10691166567E+04  0.15604016343E+04 -0.92687117945E+03  0.21064078118E+04  0.00000000000E+00 0. -1.
<mgrwt>
<rscale>  0 0.37919500E+04</rscale>
<asrwt>0</asrwt>
<pdfrwt beam="1">  1        1 0.17136056E+00 0.37919500E+04</pdfrwt>
<pdfrwt beam="2">  1       -1 0.49650957E+00 0.37919500E+04</pdfrwt>
<totfact> 0.15474958E-02</totfact>
</mgrwt>
</event>
<event>
 6    1  0.9906445E-006  0.1082130E+04  0.7818608E-02  0.9222786E-01
          1   -1    0    0  501    0  0.00000000000E+00  0.00000000000E+00  0.10848238190E+04  0.10848238190E+04  0.00000000000E+00 0. -1.
         -1   -1    0    0    0  501 -0.00000000000E+00 -0.00000000000E+00 -0.26986080400E+03  0.26986080400E+03  0.00000000000E+00 0.  1.
         23    2    1    2    0    0  0.20594805935E+03  0.10978187221E+03 -0.19535502497E+03  0.31776167286E+03  0.91335821788E+02 0.  0.
         11    1    3    3    0    0  0.19814484633E+03  0.95526131936E+02 -0.14160317568E+03  0.26160673036E+03  0.00000000000E+00 0. -1.
        -11    1    3    3    0    0  0.78032130186E+01  0.14255740276E+02 -0.53751849295E+02  0.56154942497E+02  0.00000000000E+00 0.  1.
         22    1    1    2    0    0 -0.20594805935E+03 -0.10978187221E+03  0.10103180399E+04  0.10369229501E+04  0.00000000000E+00 0. -1.
<mgrwt>
<rscale>  0 0.10821302E+04</rscale>
<asrwt>0</asrwt>
<pdfrwt beam="1">  1        1 0.16689597E+00 0.10821302E+04</pdfrwt>
<pdfrwt beam="2">  1       -1 0.41517047E-01 0.10821302E+04</pdfrwt>
<totfact> 0.73817026E+01</totfact>
</mgrwt>
</event>
<event>
 6    1  0.9906445E-006  0.2433237E+04  0.7818608E-02  0.8427164E-01
         -2   -1    0    0    0  501 -0.00000000000E+00  0.00000000000E+00  0.56150774337E+03  0.56150774337E+03  0.00000000000E+00 0.  1.
          2   -1    0    0  501    0  0.00000000000E+00 -0.00000000000E+00 -0.26360469641E+04  0.26360469641E+04  0.00000000000E+00 0. -1.
         23    2    1    2    0    0  0.97729160290E+03 -0.59177376951E+03 -0.15816865494E+04  0.19532883264E+04  0.91147541415E+02 0.  0.
         13    1    3    3    0    0  0.89317132733E+03 -0.56844435847E+03 -0.14538375880E+04  0.17984792857E+04  0.00000000000E+00 0. -1.
        -13    1    3    3    0    0  0.84120275570E+02 -0.23329411043E+02 -0.12784896131E+03  0.15480904072E+03  0.00000000000E+00 0.  1.
         22    1    1    2    0    0 -0.97729160290E+03  0.59177376951E+03 -0.49285267140E+03  0.12442663811E+04  0.00000000000E+00 0.  1.
<mgrwt>
<rscale>  0 0.24332372E+04</rscale>
<asrwt>0</asrwt>
<pdfrwt beam="1">  1        2 0.40554569E+00 0.24332372E+04</pdfrwt>
<pdfrwt beam="2">  1       -2 0.86385807E-01 0.24332372E+04</pdfrwt>
<totfact> 0.30176518E+00</totfact>
</mgrwt>
</event>
<event>
 6    1  0.9906445E-006  0.8982830E+03  0.7818608E-02  0.9427730E-01
          1   -1    0    0  501    0  0.00000000000E+00  0.00000000000E+00  0.27610798101E+03  0.27610798101E+03  0.00000000000E+00 0. -1.
         -1   -1    0    0    0  501 -0.00000000000E+00 -0.00000000000E+00 -0.73061298406E+03  0.73061298406E+03  0.00000000000E+00 0.  1.
         23    2    1    2    0    0  0.27077614997E+03  0.30375658280E+03 -0.43030342000E+03  0.59907712345E+03  0.90247335601E+02 0.  0.
         13    1    3    3    0    0  0.28702050420E+02  0.55338975962E+02 -0.11261769445E+03  0.12872045316E+03  0.00000000000E+00 0. -1.
        -13    1    3    3    0    0  0.24207409955E+03  0.24841760684E+03 -0.31768572555E+03  0.47035667028E+03  0.00000000000E+00 0.  1.
         22    1    1    2    0    0 -0.27077614997E+03 -0.30375658280E+03 -0.24201583050E+02  0.40764384162E+03  0.00000000000E+00 0.  1.
<mgrwt>
<rscale>  0 0.89828298E+03</rscale>
<asrwt>0</asrwt>
<pdfrwt beam="1">  1        1 0.42478151E-01 0.89828298E+03</pdfrwt>
<pdfrwt beam="2">  1       -1 0.11240200E+00 0.89828298E+03</pdfrwt>
<totfact> 0.71441136E+01</totfact>
</mgrwt>
</event>
<event>
 6    1  0.1098050E-005  0.4215112E+04  0.7818608E-02  0.7962504E-01
         -2   -1    0    0    0  501 -0.00000000000E+00  0.00000000000E+00  0.15417387662E+04  0.15417387662E+04  0.00000000000E+00 0.  1.
          2   -1    0    0  501    0  0.00000000000E+00 -0.00000000000E+00 -0.28810282764E+04  0.28810282764E+04  0.00000000000E+00 0. -1.
         23    2    1    2    0    0 -0.18400322210E+04  0.83200593409E+03 -0.40690337849E+02  0.20218688234E+04  0.91353088492E+02 0.  0.
         13    1    3    3    0    0 -0.12692830248E+04  0.53856697070E+03 -0.55520865671E+02  0.13799334569E+04  0.00000000000E+00 0. -1.
        -13    1    3    3    0    0 -0.57074919617E+03  0.29343896339E+03  0.14830527821E+02  0.64193536646E+03  0.00000000000E+00 0.  1.
         22    1    1    2    0    0  0.18400322210E+04 -0.83200593409E+03 -0.12985991723E+04  0.24008982192E+04  0.00000000000E+00 0. -1.
<mgrwt>
<rscale>  0 0.42151123E+04</rscale>
<asrwt>0</asrwt>
<pdfrwt beam="1">  1        2 0.44323511E+00 0.42151123E+04</pdfrwt>
<pdfrwt beam="2">  1       -2 0.23719058E+00 0.42151123E+04</pdfrwt>
<totfact> 0.12333587E-01</totfact>
</mgrwt>
</event>
<event>
 6    1  0.9906445E-006  0.2765979E+04  0.7818608E-02  0.8313909E-01
          1   -1    0    0  501    0  0.00000000000E+00  0.00000000000E+00  0.29365700736E+04  0.29365700736E+04  0.00000000000E+00 0. -1.
         -1   -1    0    0    0  501 -0.00000000000E+00 -0.00000000000E+00 -0.65132459926E+03  0.65132459926E+03  0.00000000000E+00 0.  1.
         23    2    1    2    0    0 -0.32586642885E+03  0.17119211689E+03  0.28710883138E+04  0.28960077580E+04  0.90648544072E+02 0.  0.
         13    1    3    3    0    0 -0.13942282638E+03  0.89492723941E+02  0.16223218861E+04  0.16307593244E+04  0.00000000000E+00 0. -1.
        -13    1    3    3    0    0 -0.18644360247E+03  0.81699392946E+02  0.12487664278E+04  0.12652484336E+04  0.00000000000E+00 0.  1.
         22    1    1    2    0    0  0.32586642885E+03 -0.17119211689E+03 -0.58584283948E+03  0.69188691482E+03  0.00000000000E+00 0.  1.
<mgrwt>
<rscale>  0 0.27659793E+04</rscale>
<asrwt>0</asrwt>
<pdfrwt beam="1">  1        1 0.45178000E+00 0.27659793E+04</pdfrwt>
<pdfrwt beam="2">  1       -1 0.10020379E+00 0.27659793E+04</pdfrwt>
<totfact> 0.54724796E-01</totfact>
</mgrwt>
</event>
<event>
 6    1  0.9906445E-006  0.1814888E+04  0.7818608E-02  0.8698422E-01
          2   -1    0    0  501    0  0.00000000000E+00  0.00000000000E+00  0.14144546286E+04  0.14144546286E+04  0.00000000000E+00 0. -1.
         -2   -1    0    0    0  501 -0.00000000000E+00 -0.00000000000E+00 -0.58217085464E+03  0.58217085464E+03  0.00000000000E+00 0.  1.
         23    2    1    2    0    0  0.49024938813E+03  0.62316984757E+03  0.89788078853E+03  0.12010199970E+04  0.87028738433E+02 0.  0.
         11    1    3    3    0    0  0.40149991327E+03  0.45119961498E+03  0.69037703521E+03  0.91728061337E+03  0.00000000000E+00 0. -1.
        -11    1    3    3    0    0  0.88749474855E+02  0.17197023259E+03  0.20750375331E+03  0.28373938363E+03  0.00000000000E+00 0.  1.
         22    1    1    2    0    0 -0.49024938813E+03 -0.62316984757E+03 -0.65597014533E+02  0.79560548628E+03  0.00000000000E+00 0.  1.
<mgrwt>
<rscale>  0 0.18148876E+04</rscale>
<asrwt>0</asrwt>
<pdfrwt beam="1">  1        2 0.21760840E+00 0.18148876E+04</pdfrwt>
<pdfrwt beam="2">  1       -2 0.89564747E-01 0.18148876E+04</pdfrwt>
<totfact> 0.14308436E+01</totfact>
</mgrwt>
</event>
<event>
 6    1  0.9906445E-006  0.2498945E+04  0.7818608E-02  0.8403362E-01
          2   -1    0    0  501    0  0.00000000000E+00  0.00000000000E+00  0.27862505683E+04  0.27862505683E+04  0.00000000000E+00 0. -1.
         -2   -1    0    0    0  501 -0.00000000000E+00 -0.00000000000E+00 -0.56031609771E+03  0.56031609771E+03  0.00000000000E+00 0.  1.
         23    2    1    2    0    0  0.69941306356E+03  0.10282711922E+04  0.12525164279E+04  0.17673064075E+04  0.89745515627E+02 0.  0.
         13    1    3    3    0    0  0.15397062033E+03  0.24150369654E+03  0.23785747274E+03  0.37229983173E+03  0.00000000000E+00 0.  1.
        -13    1    3    3    0    0  0.54544244323E+03  0.78676749570E+03  0.10146589552E+04  0.13950065758E+04  0.00000000000E+00 0. -1.
         22    1    1    2    0    0 -0.69941306356E+03 -0.10282711922E+04  0.97341804266E+03  0.15792602585E+04  0.00000000000E+00 0.  1.
<mgrwt>
<rscale>  0 0.24989446E+04</rscale>
<asrwt>0</asrwt>
<pdfrwt beam="1">  1        2 0.42865392E+00 0.24989446E+04</pdfrwt>
<pdfrwt beam="2">  1       -2 0.86202478E-01 0.24989446E+04</pdfrwt>
<totfact> 0.24531649E+00</totfact>
</mgrwt>
</event>
<event>
 6    1  0.9906445E-006  0.1640170E+04  0.7818608E-02  0.8796243E-01
          2   -1    0    0  501    0  0.00000000000E+00  0.00000000000E+00  0.17425157094E+04  0.17425157094E+04  0.00000000000E+00 0. -1.
         -2   -1    0    0    0  501 -0.00000000000E+00 -0.00000000000E+00 -0.38595868848E+03  0.38595868848E+03  0.00000000000E+00 0.  1.
         23    2    1    2    0    0  0.11254499628E+03 -0.37178182060E+03 -0.25298932227E+03  0.47271851938E+03  0.92580252061E+02 0.  0.
         11    1    3    3    0    0  0.36830272518E+02 -0.26966117293E+03 -0.17519909344E+03  0.32367937763E+03  0.00000000000E+00 0. -1.
        -11    1    3    3    0    0  0.75714723758E+02 -0.10212064767E+03 -0.77790228827E+02  0.14903914176E+03  0.00000000000E+00 0.  1.
         22    1    1    2    0    0 -0.11254499628E+03  0.37178182060E+03  0.16095463432E+04  0.16557558785E+04  0.00000000000E+00 0. -1.
<mgrwt>
<rscale>  0 0.16401696E+04</rscale>
<asrwt>0</asrwt>
<pdfrwt beam="1">  1        2 0.26807934E+00 0.16401696E+04</pdfrwt>
<pdfrwt beam="2">  1       -2 0.59378261E-01 0.16401696E+04</pdfrwt>
<totfact> 0.23504171E+01</totfact>
</mgrwt>
</event>
<event>
 6    1  0.9906445E-006  0.7066464E+03  0.7818608E-02  0.9705933E-01
         -2   -1    0    0    0  501 -0.00000000000E+00  0.00000000000E+00  0.62512169653E+02  0.62512169653E+02  0.00000000000E+00 0.  1.
          2   -1    0    0  501    0  0.00000000000E+00 -0.00000000000E+00 -0.19970075980E+04  0.19970075980E+04  0.00000000000E+00 0. -1.
         23    2    1    2    0    0  0.18896400533E+03 -0.17417659334E+03 -0.16648754018E+04  0.16870417955E+04  0.90857226161E+02 0.  0.
         13    1    3    3    0    0  0.71202527247E+02 -0.12082234682E+02 -0.44526217260E+03  0.45108112644E+03  0.00000000000E+00 0.  1.
        -13    1    3    3    0    0  0.11776147808E+03 -0.16209435866E+03 -0.12196132292E+04  0.12359606691E+04  0.00000000000E+00 0. -1.
         22    1    1    2    0    0 -0.18896400533E+03  0.17417659334E+03 -0.26962002662E+03  0.37247797214E+03  0.00000000000E+00 0.  1.
<mgrwt>
<rscale>  0 0.70664638E+03</rscale>
<asrwt>0</asrwt>
<pdfrwt beam="1">  1        2 0.30723191E+00 0.70664638E+03</pdfrwt>
<pdfrwt beam="2">  1       -2 0.96172577E-02 0.70664638E+03</pdfrwt>
<totfact> 0.50357075E+02</totfact>
</mgrwt>
</event>
<event>
 6    1  0.9906445E-006  0.1327361E+04  0.7818608E-02  0.9008145E-01
          1   -1    0    0  501    0  0.00000000000E+00  0.00000000000E+00  0.13342573528E+04  0.13342573528E+04  0.00000000000E+00 0. -1.
         -1   -1    0    0    0  501 -0.00000000000E+00 -0.00000000000E+00 -0.33012491521E+03  0.33012491521E+03  0.00000000000E+00 0.  1.
         23    2    1    2    0    0  0.25780899277E+03 -0.43846286423E+03  0.10329105938E+04  0.11549283031E+04  0.90774062915E+02 0.  0.
         11    1    3    3    0    0  0.12938616658E+03 -0.25049815618E+03  0.66478925633E+03  0.72210446730E+03  0.00000000000E+00 0.  1.
        -11    1    3    3    0    0  0.12842282619E+03 -0.18796470804E+03  0.36812133746E+03  0.43282383581E+03  0.00000000000E+00 0. -1.
         22    1    1    2    0    0 -0.25780899277E+03  0.43846286423E+03 -0.28778156227E+02  0.50945396488E+03  0.00000000000E+00 0.  1.
<mgrwt>
<rscale>  0 0.13273607E+04</rscale>
<asrwt>0</asrwt>
<pdfrwt beam="1">  1        1 0.20527036E+00 0.13273607E+04</pdfrwt>
<pdfrwt beam="2">  1       -1 0.50788449E-01 0.13273607E+04</pdfrwt>
<totfact> 0.32656306E+01</totfact>
</mgrwt>
</event>
<event>
 6    1  0.9906445E-006  0.1240515E+04  0.7818608E-02  0.9078115E-01
          2   -1    0    0  501    0  0.00000000000E+00  0.00000000000E+00  0.14294269079E+04  0.14294269079E+04  0.00000000000E+00 0. -1.
         -2   -1    0    0    0  501 -0.00000000000E+00 -0.00000000000E+00 -0.26914224809E+03  0.26914224809E+03  0.00000000000E+00 0.  1.
         23    2    1    2    0    0 -0.14254901437E+02 -0.31477862515E+03 -0.14349178152E+03  0.35725569746E+03  0.88050877002E+02 0.  0.
         11    1    3    3    0    0 -0.13088892528E+02 -0.18449889587E+03 -0.36184469461E+02  0.18846877066E+03  0.00000000000E+00 0.  1.
        -11    1    3    3    0    0 -0.11660089087E+01 -0.13027972928E+03 -0.10730731206E+03  0.16878692680E+03  0.00000000000E+00 0. -1.
         22    1    1    2    0    0  0.14254901437E+02  0.31477862515E+03  0.13037764413E+04  0.13413134585E+04  0.00000000000E+00 0. -1.
<mgrwt>
<rscale>  0 0.12405147E+04</rscale>
<asrwt>0</asrwt>
<pdfrwt beam="1">  1        2 0.21991183E+00 0.12405147E+04</pdfrwt>
<pdfrwt beam="2">  1       -2 0.41406501E-01 0.12405147E+04</pdfrwt>
<totfact> 0.75661765E+01</totfact>
</mgrwt>
</event>
<event>
 6    1  0.9906445E-006  0.4412734E+04  0.7818608E-02  0.7926095E-01
          2   -1    0    0  501    0  0.00000000000E+00  0.00000000000E+00  0.45012351205E+04  0.45012351205E+04  0.00000000000E+00 0. -1.
         -2   -1    0    0    0  501 -0.00000000000E+00 -0.00000000000E+00 -0.10814931991E+04  0.10814931991E+04  0.00000000000E+00 0.  1.
         23    2    1    2    0    0  0.65947848626E+03  0.20992836029E+04  0.18982747012E+04  0.29075150530E+04  0.91068232721E+02 0.  0.
         13    1    3    3    0    0  0.49615095012E+03  0.14448823831E+04  0.13013732352E+04  0.20068440805E+04  0.00000000000E+00 0.  1.
        -13    1    3    3    0    0  0.16332753614E+03  0.65440121982E+03  0.59690146600E+03  0.90067097248E+03  0.00000000000E+00 0. -1.
         22    1    1    2    0    0 -0.65947848626E+03 -0.20992836029E+04  0.15214672202E+04  0.26752132666E+04  0.00000000000E+00 0.  1.
<mgrwt>
<rscale>  0 0.44127339E+04</rscale>
<asrwt>0</asrwt>
<pdfrwt beam="1">  1        2 0.69249770E+00 0.44127339E+04</pdfrwt>
<pdfrwt beam="2">  1       -2 0.16638357E+00 0.44127339E+04</pdfrwt>
<totfact> 0.21011027E-02</totfact>
</mgrwt>
</event>
<event>
 6    1  0.9906445E-006  0.1301132E+04  0.7818608E-02  0.9028668E-01
         -2   -1    0    0    0  501 -0.00000000000E+00  0.00000000000E+00  0.29322750455E+03  0.29322750455E+03  0.00000000000E+00 0.  1.
          2   -1    0    0  501    0  0.00000000000E+00 -0.00000000000E+00 -0.14433712224E+04  0.14433712224E+04  0.00000000000E+00 0. -1.
         23    2    1    2    0    0  0.18663494802E+03  0.38255282773E+03  0.72851297873E+02  0.44164850462E+03  0.92557118623E+02 0.  0.
         11    1    3    3    0    0  0.70601486952E+02  0.60689034641E+02  0.82789560349E+01  0.93468015912E+02  0.00000000000E+00 0. -1.
        -11    1    3    3    0    0  0.11603346107E+03  0.32186379308E+03  0.64572341838E+02  0.34818048871E+03  0.00000000000E+00 0.  1.
         22    1    1    2    0    0 -0.18663494802E+03 -0.38255282773E+03 -0.12229950157E+04  0.12949502223E+04  0.00000000000E+00 0. -1.
<mgrwt>
<rscale>  0 0.13011320E+04</rscale>
<asrwt>0</asrwt>
<pdfrwt beam="1">  1        2 0.22205711E+00 0.13011320E+04</pdfrwt>
<pdfrwt beam="2">  1       -2 0.45111925E-01 0.13011320E+04</pdfrwt>
<totfact> 0.62402761E+01</totfact>
</mgrwt>
</event>
<event>
 6    1  0.9906445E-006  0.3889141E+03  0.7818608E-02  0.1047687E+00
          1   -1    0    0  501    0  0.00000000000E+00  0.00000000000E+00  0.29200992195E+03  0.29200992195E+03  0.00000000000E+00 0. -1.
         -1   -1    0    0    0  501 -0.00000000000E+00 -0.00000000000E+00 -0.12949406323E+03  0.12949406323E+03  0.00000000000E+00 0.  1.
         23    2    1    2    0    0 -0.56531217438E+02  0.88902014556E+02  0.24865627633E+03  0.28541754838E+03  0.92379036744E+02 0.  0.
         13    1    3    3    0    0 -0.78818698338E+02  0.52254828173E+02  0.14358924508E+03  0.17193261930E+03  0.00000000000E+00 0.  1.
        -13    1    3    3    0    0  0.22287480900E+02  0.36647186383E+02  0.10506703124E+03  0.11348492908E+03  0.00000000000E+00 0. -1.
         22    1    1    2    0    0  0.56531217438E+02 -0.88902014556E+02 -0.86140417598E+02  0.13608643680E+03  0.00000000000E+00 0.  1.
<mgrwt>
<rscale>  0 0.38891414E+03</rscale>
<asrwt>0</asrwt>
<pdfrwt beam="1">  1        1 0.44924603E-01 0.38891414E+03</pdfrwt>
<pdfrwt beam="2">  1       -1 0.19922164E-01 0.38891414E+03</pdfrwt>
<totfact> 0.18488819E+03</totfact>
</mgrwt>
</event>
<event>
 6    1  0.9906445E-006  0.2257270E+04  0.7818608E-02  0.8494962E-01
         -1   -1    0    0    0  501 -0.00000000000E+00  0.00000000000E+00  0.15295069348E+04  0.15295069348E+04  0.00000000000E+00 0.  1.
          1   -1    0    0  501    0  0.00000000000E+00 -0.00000000000E+00 -0.83282834924E+03  0.83282834924E+03  0.00000000000E+00 0. -1.
         23    2    1    2    0    0  0.10290944491E+04  0.41902368092E+03  0.15034491010E+03  0.11241524561E+04  0.80615893102E+02 0.  0.
         13    1    3    3    0    0  0.19343024106E+03  0.62544534965E+02  0.55266211510E+02  0.21066900851E+03  0.00000000000E+00 0. -1.
        -13    1    3    3    0    0  0.83566420805E+03  0.35647914595E+03  0.95078698591E+02  0.91348344760E+03  0.00000000000E+00 0.  1.
         22    1    1    2    0    0 -0.10290944491E+04 -0.41902368092E+03  0.54633367541E+03  0.12381828279E+04  0.00000000000E+00 0.  1.
<mgrwt>
<rscale>  0 0.22572698E+04</rscale>
<asrwt>0</asrwt>
<pdfrwt beam="1">  1        1 0.12812744E+00 0.22572698E+04</pdfrwt>
<pdfrwt beam="2">  1       -1 0.23530876E+00 0.22572698E+04</pdfrwt>
<totfact> 0.16356639E+00</totfact>
</mgrwt>
</event>
<event>
 6    1  0.9906445E-006  0.2250806E+04  0.7818608E-02  0.8497574E-01
         -2   -1    0    0    0  501 -0.00000000000E+00  0.00000000000E+00  0.47942452121E+03  0.47942452121E+03  0.00000000000E+00 0. -1.
          2   -1    0    0  501    0  0.00000000000E+00 -0.00000000000E+00 -0.26417753951E+04  0.26417753951E+04  0.00000000000E+00 0.  1.
         23    2    1    2    0    0 -0.95335795999E+03 -0.20086713878E+03 -0.30735981418E+03  0.10259121464E+04  0.93737235725E+02 0.  0.
         11    1    3    3    0    0 -0.75654611299E+03 -0.19767630876E+03 -0.24688451445E+03  0.81999384607E+03  0.00000000000E+00 0. -1.
        -11    1    3    3    0    0 -0.19681184700E+03 -0.31908300216E+01 -0.60475299732E+02  0.20591830029E+03  0.00000000000E+00 0.  1.
         22    1    1    2    0    0  0.95335795999E+03  0.20086713878E+03 -0.18549910597E+04  0.20952877700E+04  0.00000000000E+00 0.  1.
<mgrwt>
<rscale>  0 0.22508060E+04</rscale>
<asrwt>0</asrwt>
<pdfrwt beam="1">  1        2 0.40642699E+00 0.22508060E+04</pdfrwt>
<pdfrwt beam="2">  1       -2 0.73757618E-01 0.22508060E+04</pdfrwt>
<totfact> 0.43379958E+00</totfact>
</mgrwt>
</event>
<event>
 6    1  0.9906445E-006  0.1168428E+04  0.7818608E-02  0.9140949E-01
          1   -1    0    0  501    0  0.00000000000E+00  0.00000000000E+00  0.10552651453E+04  0.10552651453E+04  0.00000000000E+00 0. -1.
         -1   -1    0    0    0  501 -0.00000000000E+00 -0.00000000000E+00 -0.32343177017E+03  0.32343177017E+03  0.00000000000E+00 0.  1.
         23    2    1    2    0    0 -0.50890225125E+03  0.24595844634E+03  0.52818896588E+03  0.77790734827E+03  0.81726373719E+02 0.  0.
         13    1    3    3    0    0 -0.30922955743E+03  0.18856480183E+03  0.31154834839E+03  0.47774677086E+03  0.00000000000E+00 0.  1.
        -13    1    3    3    0    0 -0.19967269382E+03  0.57393644508E+02  0.21664061749E+03  0.30016057741E+03  0.00000000000E+00 0. -1.
         22    1    1    2    0    0  0.50890225125E+03 -0.24595844634E+03  0.20364440929E+03  0.60078956723E+03  0.00000000000E+00 0.  1.
<mgrwt>
<rscale>  0 0.11684285E+04</rscale>
<asrwt>0</asrwt>
<pdfrwt beam="1">  1        1 0.16234848E+00 0.11684285E+04</pdfrwt>
<pdfrwt beam="2">  1       -1 0.49758734E-01 0.11684285E+04</pdfrwt>
<totfact> 0.55077851E+01</totfact>
</mgrwt>
</event>
<event>
 6    1  0.9906445E-006  0.8169858E+03  0.7818608E-02  0.9535751E-01
          1   -1    0    0  501    0  0.00000000000E+00  0.00000000000E+00  0.76915060834E+03  0.76915060834E+03  0.00000000000E+00 0. -1.
         -1   -1    0    0    0  501 -0.00000000000E+00 -0.00000000000E+00 -0.21694899206E+03  0.21694899206E+03  0.00000000000E+00 0.  1.
         23    2    1    2    0    0  0.19557873033E+03  0.35186980115E+03  0.24755028839E+03  0.48124731675E+03  0.90853937017E+02 0.  0.
         13    1    3    3    0    0  0.15403394018E+03  0.28090977194E+03  0.15024170695E+03  0.35384929731E+03  0.00000000000E+00 0. -1.
        -13    1    3    3    0    0  0.41544790151E+02  0.70960029211E+02  0.97308581437E+02  0.12739801943E+03  0.00000000000E+00 0.  1.
         22    1    1    2    0    0 -0.19557873033E+03 -0.35186980115E+03  0.30465132789E+03  0.50485228365E+03  0.00000000000E+00 0.  1.
<mgrwt>
<rscale>  0 0.81698580E+03</rscale>
<asrwt>0</asrwt>
<pdfrwt beam="1">  1        1 0.11833086E+00 0.81698580E+03</pdfrwt>
<pdfrwt beam="2">  1       -1 0.33376768E-01 0.81698580E+03</pdfrwt>
<totfact> 0.20074503E+02</totfact>
</mgrwt>
</event>
<event>
 6    1  0.9906445E-006  0.4424733E+04  0.7818608E-02  0.7923948E-01
          1   -1    0    0  501    0  0.00000000000E+00  0.00000000000E+00  0.17324490064E+04  0.17324490064E+04  0.00000000000E+00 0. -1.
         -1   -1    0    0    0  501 -0.00000000000E+00 -0.00000000000E+00 -0.28252293557E+04  0.28252293557E+04  0.00000000000E+00 0.  1.
         23    2    1    2    0    0 -0.24893438482E+03 -0.21901913564E+04 -0.72969823103E+03  0.23236830330E+04  0.90204344082E+02 0.  0.
         11    1    3    3    0    0 -0.12296491374E+03 -0.10163868765E+04 -0.38568810514E+03  0.10940374616E+04  0.00000000000E+00 0. -1.
        -11    1    3    3    0    0 -0.12596947107E+03 -0.11738044799E+04 -0.34401012589E+03  0.12296455714E+04  0.00000000000E+00 0.  1.
         22    1    1    2    0    0  0.24893438482E+03  0.21901913564E+04 -0.36308211831E+03  0.22339953291E+04  0.00000000000E+00 0.  1.
<mgrwt>
<rscale>  0 0.44247331E+04</rscale>
<asrwt>0</asrwt>
<pdfrwt beam="1">  1        1 0.26653062E+00 0.44247331E+04</pdfrwt>
<pdfrwt beam="2">  1       -1 0.43465067E+00 0.44247331E+04</pdfrwt>
<totfact> 0.14147467E-02</totfact>
</mgrwt>
</event>
<event>
 6    1  0.9906445E-006  0.1791610E+04  0.7818608E-02  0.8710774E-01
         -2   -1    0    0    0  501 -0.00000000000E+00  0.00000000000E+00  0.15439461757E+04  0.15439461757E+04  0.00000000000E+00 0.  1.
          2   -1    0    0  501    0  0.00000000000E+00 -0.00000000000E+00 -0.51975019228E+03  0.51975019228E+03  0.00000000000E+00 0. -1.
         23    2    1    2    0    0  0.38219129309E+03  0.80700914339E+03  0.47494542540E+03  0.10153595340E+04  0.89709999768E+02 0.  0.
         13    1    3    3    0    0  0.31915123170E+03  0.61497143752E+03  0.33554696805E+03  0.76983059528E+03  0.00000000000E+00 0. -1.
        -13    1    3    3    0    0  0.63040061387E+02  0.19203770587E+03  0.13939845735E+03  0.24552893867E+03  0.00000000000E+00 0.  1.
         22    1    1    2    0    0 -0.38219129309E+03 -0.80700914339E+03  0.54925055798E+03  0.10483368340E+04  0.00000000000E+00 0.  1.
<mgrwt>
<rscale>  0 0.17916097E+04</rscale>
<asrwt>0</asrwt>
<pdfrwt beam="1">  1        2 0.79961569E-01 0.17916097E+04</pdfrwt>
<pdfrwt beam="2">  1       -2 0.23753018E+00 0.17916097E+04</pdfrwt>
<totfact> 0.42647544E+00</totfact>
</mgrwt>
</event>
<event>
 6    1  0.9906445E-006  0.2699649E+04  0.7818608E-02  0.8335119E-01
         -2   -1    0    0    0  501 -0.00000000000E+00  0.00000000000E+00  0.19115387639E+04  0.19115387639E+04  0.00000000000E+00 0.  1.
          2   -1    0    0  501    0  0.00000000000E+00 -0.00000000000E+00 -0.95317252743E+03  0.95317252743E+03  0.00000000000E+00 0. -1.
         23    2    1    2    0    0 -0.78154041954E+03  0.85182512437E+03  0.12160635123E+04  0.16803045386E+04  0.90561617286E+02 0.  0.
         11    1    3    3    0    0 -0.43339936481E+03  0.40727926601E+03  0.60845791575E+03  0.85084219758E+03  0.00000000000E+00 0.  1.
        -11    1    3    3    0    0 -0.34814105473E+03  0.44454585836E+03  0.60760559659E+03  0.82946234103E+03  0.00000000000E+00 0. -1.
         22    1    1    2    0    0  0.78154041954E+03 -0.85182512437E+03 -0.25769727588E+03  0.11844067527E+04  0.00000000000E+00 0.  1.
<mgrwt>
<rscale>  0 0.26996490E+04</rscale>
<asrwt>0</asrwt>
<pdfrwt beam="1">  1        2 0.14664193E+00 0.26996490E+04</pdfrwt>
<pdfrwt beam="2">  1       -2 0.29408289E+00 0.26996490E+04</pdfrwt>
<totfact> 0.81893177E-01</totfact>
</mgrwt>
</event>
<event>
 6    1  0.9906445E-006  0.5601127E+04  0.7818608E-02  0.7741925E-01
         -2   -1    0    0    0  501 -0.00000000000E+00  0.00000000000E+00  0.24641841844E+04  0.24641841844E+04  0.00000000000E+00 0.  1.
          2   -1    0    0  501    0  0.00000000000E+00 -0.00000000000E+00 -0.31828610390E+04  0.31828610390E+04  0.00000000000E+00 0. -1.
         23    2    1    2    0    0 -0.30495218464E+02  0.55227568810E+03 -0.31265638742E+04  0.31764464513E+04  0.92043489393E+02 0.  0.
         11    1    3    3    0    0 -0.40571078519E+02  0.97919129536E+02 -0.63033294778E+03  0.63918212850E+03  0.00000000000E+00 0. -1.
        -11    1    3    3    0    0  0.10075860055E+02  0.45435655857E+03 -0.24962309265E+04  0.25372643228E+04  0.00000000000E+00 0.  1.
         22    1    1    2    0    0  0.30495218464E+02 -0.55227568810E+03  0.24078870196E+04  0.24705987722E+04  0.00000000000E+00 0.  1.
<mgrwt>
<rscale>  0 0.56011270E+04</rscale>
<asrwt>0</asrwt>
<pdfrwt beam="1">  1        2 0.48967093E+00 0.56011270E+04</pdfrwt>
<pdfrwt beam="2">  1       -2 0.37910526E+00 0.56011270E+04</pdfrwt>
<totfact> 0.93689738E-03</totfact>
</mgrwt>
</event>
<event>
 6    1  0.9906445E-006  0.2238803E+04  0.7818608E-02  0.8502449E-01
         -1   -1    0    0    0  501 -0.00000000000E+00  0.00000000000E+00  0.57177297573E+03  0.57177297573E+03  0.00000000000E+00 0.  1.
          1   -1    0    0  501    0  0.00000000000E+00 -0.00000000000E+00 -0.21915328987E+04  0.21915328987E+04  0.00000000000E+00 0. -1.
         23    2    1    2    0    0 -0.50914909334E+03  0.96518791726E+03 -0.51083182104E+03  0.12074967441E+04  0.79238391251E+02 0.  0.
         13    1    3    3    0    0 -0.18005172627E+03  0.36248534650E+03 -0.23057313289E+03  0.46580921006E+03  0.00000000000E+00 0. -1.
        -13    1    3    3    0    0 -0.32909736707E+03  0.60270257076E+03 -0.28025868815E+03  0.74168753401E+03  0.00000000000E+00 0.  1.
         22    1    1    2    0    0  0.50914909334E+03 -0.96518791726E+03 -0.11089281019E+04  0.15558091304E+04  0.00000000000E+00 0. -1.
<mgrwt>
<rscale>  0 0.22388026E+04</rscale>
<asrwt>0</asrwt>
<pdfrwt beam="1">  1        1 0.33715891E+00 0.22388026E+04</pdfrwt>
<pdfrwt beam="2">  1       -1 0.87965073E-01 0.22388026E+04</pdfrwt>
<totfact> 0.25479170E+00</totfact>
</mgrwt>
</event>
<event>
 6    1  0.1204702E-005  0.2473984E+04  0.7818608E-02  0.8412313E-01
          2   -1    0    0  501    0  0.00000000000E+00  0.00000000000E+00  0.20354409439E+04  0.20354409439E+04  0.00000000000E+00 0.  1.
         -2   -1    0    0    0  501 -0.00000000000E+00 -0.00000000000E+00 -0.75175330693E+03  0.75175330693E+03  0.00000000000E+00 0. -1.
         23    2    1    2    0    0 -0.27152362237E+03 -0.53883958842E+03  0.18571152656E+04  0.19547926502E+04  0.90906633217E+02 0.  0.
         13    1    3    3    0    0 -0.95778958007E+02 -0.22701307320E+03  0.62756067984E+03  0.67419652260E+03  0.00000000000E+00 0.  1.
        -13    1    3    3    0    0 -0.17574466437E+03 -0.31182651522E+03  0.12295545858E+04  0.12805961276E+04  0.00000000000E+00 0. -1.
         22    1    1    2    0    0  0.27152362237E+03  0.53883958842E+03 -0.57342762860E+03  0.83240160067E+03  0.00000000000E+00 0. -1.
<mgrwt>
<rscale>  0 0.24739842E+04</rscale>
<asrwt>0</asrwt>
<pdfrwt beam="1">  1        2 0.31314476E+00 0.24739842E+04</pdfrwt>
<pdfrwt beam="2">  1       -2 0.11565436E+00 0.24739842E+04</pdfrwt>
<totfact> 0.33182214E+00</totfact>
</mgrwt>
</event>
<event>
 6    1  0.9906445E-006  0.1158565E+04  0.7818608E-02  0.9149918E-01
         -2   -1    0    0    0  501 -0.00000000000E+00  0.00000000000E+00  0.18951011031E+03  0.18951011031E+03  0.00000000000E+00 0.  1.
          2   -1    0    0  501    0  0.00000000000E+00 -0.00000000000E+00 -0.17707138482E+04  0.17707138482E+04  0.00000000000E+00 0. -1.
         23    2    1    2    0    0 -0.57479523001E+03  0.10742036123E+01 -0.74679763565E+03  0.94699927770E+03  0.93328521868E+02 0.  0.
         11    1    3    3    0    0 -0.34394597588E+03  0.47180399640E+00 -0.51942308889E+03  0.62297624529E+03  0.00000000000E+00 0. -1.
        -11    1    3    3    0    0 -0.23084925413E+03  0.60239961593E+00 -0.22737454676E+03  0.32402303241E+03  0.00000000000E+00 0.  1.
         22    1    1    2    0    0  0.57479523001E+03 -0.10742036123E+01 -0.83440610225E+03  0.10132246808E+04  0.00000000000E+00 0. -1.
<mgrwt>
<rscale>  0 0.11585649E+04</rscale>
<asrwt>0</asrwt>
<pdfrwt beam="1">  1        2 0.27241751E+00 0.11585649E+04</pdfrwt>
<pdfrwt beam="2">  1       -2 0.29155402E-01 0.11585649E+04</pdfrwt>
<totfact> 0.95868151E+01</totfact>
</mgrwt>
</event>
<event>
 6    1  0.9906445E-006  0.1535529E+04  0.7818608E-02  0.8861164E-01
         -2   -1    0    0    0  501 -0.00000000000E+00  0.00000000000E+00  0.28171580049E+03  0.28171580049E+03  0.00000000000E+00 0.  1.
          2   -1    0    0  501    0  0.00000000000E+00 -0.00000000000E+00 -0.20924003908E+04  0.20924003908E+04  0.00000000000E+00 0. -1.
         23    2    1    2    0    0 -0.64642032418E+02 -0.28427037614E+03 -0.20021606669E+04  0.20253306884E+04  0.91262381104E+02 0.  0.
         13    1    3    3    0    0 -0.19939295410E+02 -0.10612620917E+03 -0.10561227372E+04  0.10616287410E+04  0.00000000000E+00 0. -1.
        -13    1    3    3    0    0 -0.44702737008E+02 -0.17814416696E+03 -0.94603792974E+03  0.96370194740E+03  0.00000000000E+00 0.  1.
         22    1    1    2    0    0  0.64642032418E+02  0.28427037614E+03  0.19147607660E+03  0.34878550287E+03  0.00000000000E+00 0.  1.
<mgrwt>
<rscale>  0 0.15355289E+04</rscale>
<asrwt>0</asrwt>
<pdfrwt beam="1">  1        2 0.32190774E+00 0.15355289E+04</pdfrwt>
<pdfrwt beam="2">  1       -2 0.43340894E-01 0.15355289E+04</pdfrwt>
<totfact> 0.28878812E+01</totfact>
</mgrwt>
</event>
<event>
 6    1  0.9906445E-006  0.1051791E+04  0.7818608E-02  0.9253497E-01
          1   -1    0    0  501    0  0.00000000000E+00  0.00000000000E+00  0.88438623207E+03  0.88438623207E+03  0.00000000000E+00 0. -1.
         -1   -1    0    0    0  501 -0.00000000000E+00 -0.00000000000E+00 -0.31272085257E+03  0.31272085257E+03  0.00000000000E+00 0.  1.
         23    2    1    2    0    0  0.51474030625E+03 -0.69479540704E+02  0.23161795426E+03  0.57628727111E+03  0.93140499534E+02 0.  0.
         11    1    3    3    0    0  0.19167922849E+03 -0.65345046157E+02  0.64484963417E+02  0.21253049710E+03  0.00000000000E+00 0. -1.
        -11    1    3    3    0    0  0.32306107776E+03 -0.41344945472E+01  0.16713299084E+03  0.36375677401E+03  0.00000000000E+00 0.  1.
         22    1    1    2    0    0 -0.51474030625E+03  0.69479540704E+02  0.34004742524E+03  0.62081981353E+03  0.00000000000E+00 0.  1.
<mgrwt>
<rscale>  0 0.10517909E+04</rscale>
<asrwt>0</asrwt>
<pdfrwt beam="1">  1        1 0.13605942E+00 0.10517909E+04</pdfrwt>
<pdfrwt beam="2">  1       -1 0.48110901E-01 0.10517909E+04</pdfrwt>
<totfact> 0.80874210E+01</totfact>
</mgrwt>
</event>
<event>
 6    1  0.9906445E-006  0.2893909E+04  0.7818608E-02  0.8274692E-01
         -2   -1    0    0    0  501 -0.00000000000E+00  0.00000000000E+00  0.16147408876E+04  0.16147408876E+04  0.00000000000E+00 0.  1.
          2   -1    0    0  501    0  0.00000000000E+00 -0.00000000000E+00 -0.12966029810E+04  0.12966029810E+04  0.00000000000E+00 0. -1.
         23    2    1    2    0    0 -0.31646650735E+03  0.91632066902E+03 -0.91949061679E+03  0.13392373262E+04  0.91098862040E+02 0.  0.
         11    1    3    3    0    0 -0.13866936014E+03  0.53945840150E+03 -0.52343072861E+03  0.76434565874E+03  0.00000000000E+00 0. -1.
        -11    1    3    3    0    0 -0.17779714721E+03  0.37686226752E+03 -0.39605988819E+03  0.57489166742E+03  0.00000000000E+00 0.  1.
         22    1    1    2    0    0  0.31646650735E+03 -0.91632066902E+03  0.12376285235E+04  0.15721065425E+04  0.00000000000E+00 0.  1.
<mgrwt>
<rscale>  0 0.28939094E+04</rscale>
<asrwt>0</asrwt>
<pdfrwt beam="1">  1        2 0.19947738E+00 0.28939094E+04</pdfrwt>
<pdfrwt beam="2">  1       -2 0.24842168E+00 0.28939094E+04</pdfrwt>
<totfact> 0.94238512E-01</totfact>
</mgrwt>
</event>
<event>
 6    1  0.9906445E-006  0.2027250E+04  0.7818608E-02  0.8593986E-01
         -1   -1    0    0    0  501 -0.00000000000E+00  0.00000000000E+00  0.17034687929E+04  0.17034687929E+04  0.00000000000E+00 0.  1.
          1   -1    0    0  501    0  0.00000000000E+00 -0.00000000000E+00 -0.60314291871E+03  0.60314291871E+03  0.00000000000E+00 0. -1.
         23    2    1    2    0    0  0.16049783111E+03  0.60142649251E+03 -0.35578540314E+03  0.72302924402E+03  0.93352316202E+02 0.  0.
         13    1    3    3    0    0  0.60305526551E+02  0.91270371273E+02 -0.67659559172E+02  0.12862679796E+03  0.00000000000E+00 0.  1.
        -13    1    3    3    0    0  0.10019230456E+03  0.51015612124E+03 -0.28812584397E+03  0.59440244607E+03  0.00000000000E+00 0. -1.
         22    1    1    2    0    0 -0.16049783111E+03 -0.60142649251E+03  0.14561112774E+04  0.15835824676E+04  0.00000000000E+00 0.  1.
<mgrwt>
<rscale>  0 0.20272495E+04</rscale>
<asrwt>0</asrwt>
<pdfrwt beam="1">  1        1 0.92791219E-01 0.20272495E+04</pdfrwt>
<pdfrwt beam="2">  1       -1 0.26207212E+00 0.20272495E+04</pdfrwt>
<totfact> 0.18300203E+00</totfact>
</mgrwt>
</event>
<event>
 6    1  0.9906445E-006  0.6367952E+04  0.7818608E-02  0.7646382E-01
         -1   -1    0    0    0  501 -0.00000000000E+00  0.00000000000E+00  0.38929731215E+04  0.38929731215E+04  0.00000000000E+00 0.  1.
          1   -1    0    0  501    0  0.00000000000E+00 -0.00000000000E+00 -0.26041026960E+04  0.26041026960E+04  0.00000000000E+00 0. -1.
         23    2    1    2    0    0 -0.20363067585E+04  0.82626300496E+03 -0.17052401307E+04  0.27830545747E+04  0.91066427739E+02 0.  0.
         11    1    3    3    0    0 -0.11083671877E+04  0.40768898076E+03 -0.94529685952E+03  0.15127042938E+04  0.00000000000E+00 0. -1.
        -11    1    3    3    0    0 -0.92793957086E+03  0.41857402419E+03 -0.75994327122E+03  0.12703502810E+04  0.00000000000E+00 0.  1.
         22    1    1    2    0    0  0.20363067585E+04 -0.82626300496E+03  0.29941105562E+04  0.37140212427E+04  0.00000000000E+00 0.  1.
<mgrwt>
<rscale>  0 0.63679516E+04</rscale>
<asrwt>0</asrwt>
<pdfrwt beam="1">  1        1 0.40063119E+00 0.63679516E+04</pdfrwt>
<pdfrwt beam="2">  1       -1 0.59891894E+00 0.63679516E+04</pdfrwt>
<totfact> 0.33972084E-04</totfact>
</mgrwt>
</event>
<event>
 6    1  0.9906445E-006  0.5016270E+04  0.7818608E-02  0.7826002E-01
         -1   -1    0    0    0  501 -0.00000000000E+00  0.00000000000E+00  0.18927092791E+04  0.18927092791E+04  0.00000000000E+00 0.  1.
          1   -1    0    0  501    0  0.00000000000E+00 -0.00000000000E+00 -0.33236704089E+04  0.33236704089E+04  0.00000000000E+00 0. -1.
         23    2    1    2    0    0  0.15872537556E+02 -0.12686008401E+04 -0.29646162632E+04  0.32259781965E+04  0.91573507862E+02 0.  0.
         13    1    3    3    0    0  0.35150158750E+02 -0.52894254187E+03 -0.13269780311E+04  0.14289459197E+04  0.00000000000E+00 0.  1.
        -13    1    3    3    0    0 -0.19277621194E+02 -0.73965829827E+03 -0.16376382320E+04  0.17970322768E+04  0.00000000000E+00 0. -1.
         22    1    1    2    0    0 -0.15872537556E+02  0.12686008401E+04  0.15336551334E+04  0.19904014914E+04  0.00000000000E+00 0.  1.
<mgrwt>
<rscale>  0 0.50162703E+04</rscale>
<asrwt>0</asrwt>
<pdfrwt beam="1">  1        1 0.51133390E+00 0.50162703E+04</pdfrwt>
<pdfrwt beam="2">  1       -1 0.29118605E+00 0.50162703E+04</pdfrwt>
<totfact> 0.92978919E-03</totfact>
</mgrwt>
</event>
<event>
 6    1  0.9906445E-006  0.1009041E+04  0.7818608E-02  0.9298684E-01
         -2   -1    0    0    0  501 -0.00000000000E+00  0.00000000000E+00  0.37806701220E+03  0.37806701220E+03  0.00000000000E+00 0.  1.
          2   -1    0    0  501    0  0.00000000000E+00 -0.00000000000E+00 -0.67326899473E+03  0.67326899473E+03  0.00000000000E+00 0. -1.
         23    2    1    2    0    0  0.32840922116E+03  0.20067529442E+03  0.18421634436E+03  0.43654732576E+03  0.92275217504E+02 0.  0.
         13    1    3    3    0    0  0.10956381846E+03  0.84385409878E+02  0.11329247636E+03  0.17877447501E+03  0.00000000000E+00 0.  1.
        -13    1    3    3    0    0  0.21884540270E+03  0.11628988454E+03  0.70923867997E+02  0.25777285075E+03  0.00000000000E+00 0. -1.
         22    1    1    2    0    0 -0.32840922116E+03 -0.20067529442E+03 -0.47941832689E+03  0.61478868117E+03  0.00000000000E+00 0. -1.
<mgrwt>
<rscale>  0 0.10090407E+04</rscale>
<asrwt>0</asrwt>
<pdfrwt beam="1">  1        2 0.10357984E+00 0.10090407E+04</pdfrwt>
<pdfrwt beam="2">  1       -2 0.58164157E-01 0.10090407E+04</pdfrwt>
<totfact> 0.11882138E+02</totfact>
</mgrwt>
</event>
<event>
 6    1  0.9906445E-006  0.1475036E+04  0.7818608E-02  0.8901226E-01
         -1   -1    0    0    0  501 -0.00000000000E+00  0.00000000000E+00  0.13206825721E+04  0.13206825721E+04  0.00000000000E+00 0.  1.
          1   -1    0    0  501    0  0.00000000000E+00 -0.00000000000E+00 -0.41185731284E+03  0.41185731284E+03  0.00000000000E+00 0. -1.
         23    2    1    2    0    0  0.89500710385E+02 -0.20745744421E+03  0.12770536730E+04  0.13005200555E+04  0.97146088829E+02 0.  0.
         13    1    3    3    0    0  0.16227606246E+02 -0.14282436659E+03  0.63436062245E+03  0.65044256796E+03  0.00000000000E+00 0.  1.
        -13    1    3    3    0    0  0.73273104139E+02 -0.64633077621E+02  0.64269305058E+03  0.65007748752E+03  0.00000000000E+00 0. -1.
         22    1    1    2    0    0 -0.89500710385E+02  0.20745744421E+03 -0.36822841379E+03  0.43201982945E+03  0.00000000000E+00 0. -1.
<mgrwt>
<rscale>  0 0.14750360E+04</rscale>
<asrwt>0</asrwt>
<pdfrwt beam="1">  1        1 0.63362664E-01 0.14750360E+04</pdfrwt>
<pdfrwt beam="2">  1       -1 0.20318193E+00 0.14750360E+04</pdfrwt>
<totfact> 0.80021115E+00</totfact>
</mgrwt>
</event>
<event>
 6    1  0.9906445E-006  0.1790105E+04  0.7818608E-02  0.8711579E-01
         -1   -1    0    0    0  501 -0.00000000000E+00  0.00000000000E+00  0.43007051160E+03  0.43007051160E+03  0.00000000000E+00 0.  1.
          1   -1    0    0  501    0  0.00000000000E+00 -0.00000000000E+00 -0.18627628298E+04  0.18627628298E+04  0.00000000000E+00 0. -1.
         23    2    1    2    0    0 -0.46362917902E+03 -0.59142048726E+03 -0.13355611444E+04  0.15350967953E+04  0.89824228939E+02 0.  0.
         11    1    3    3    0    0 -0.14671563944E+03 -0.21258822335E+03 -0.54166041923E+03  0.60009602675E+03  0.00000000000E+00 0. -1.
        -11    1    3    3    0    0 -0.31691353959E+03 -0.37883226391E+03 -0.79390072515E+03  0.93500076853E+03  0.00000000000E+00 0.  1.
         22    1    1    2    0    0  0.46362917902E+03  0.59142048726E+03 -0.97131173821E+02  0.75773654612E+03  0.00000000000E+00 0.  1.
<mgrwt>
<rscale>  0 0.17901054E+04</rscale>
<asrwt>0</asrwt>
<pdfrwt beam="1">  1        1 0.28657889E+00 0.17901054E+04</pdfrwt>
<pdfrwt beam="2">  1       -1 0.66164695E-01 0.17901054E+04</pdfrwt>
<totfact> 0.80737293E+00</totfact>
</mgrwt>
</event>
<event>
 6    1  0.9906445E-006  0.3743947E+04  0.7818608E-02  0.8058292E-01
         -1   -1    0    0    0  501 -0.00000000000E+00  0.00000000000E+00  0.23456426986E+04  0.23456426986E+04  0.00000000000E+00 0.  1.
          1   -1    0    0  501    0  0.00000000000E+00 -0.00000000000E+00 -0.14939550077E+04  0.14939550077E+04  0.00000000000E+00 0. -1.
         23    2    1    2    0    0  0.37679220008E+03 -0.11655814177E+04 -0.10240879488E+04  0.15992658885E+04  0.91339213660E+02 0.  0.
         13    1    3    3    0    0  0.19661173284E+03 -0.73803560131E+03 -0.66186730912E+03  0.10106537771E+04  0.00000000000E+00 0.  1.
        -13    1    3    3    0    0  0.18018046724E+03 -0.42754581640E+03 -0.36222063971E+03  0.58861211144E+03  0.00000000000E+00 0. -1.
         22    1    1    2    0    0 -0.37679220008E+03  0.11655814177E+04  0.18757756397E+04  0.22403318178E+04  0.00000000000E+00 0.  1.
<mgrwt>
<rscale>  0 0.37439469E+04</rscale>
<asrwt>0</asrwt>
<pdfrwt beam="1">  1        1 0.22983923E+00 0.37439469E+04</pdfrwt>
<pdfrwt beam="2">  1       -1 0.36086811E+00 0.37439469E+04</pdfrwt>
<totfact> 0.69418889E-02</totfact>
</mgrwt>
</event>
<event>
 6    1  0.9906445E-006  0.1100271E+04  0.7818608E-02  0.9204928E-01
         -2   -1    0    0    0  501 -0.00000000000E+00  0.00000000000E+00  0.29401369949E+03  0.29401369949E+03  0.00000000000E+00 0.  1.
          2   -1    0    0  501    0  0.00000000000E+00 -0.00000000000E+00 -0.10293703456E+04  0.10293703456E+04  0.00000000000E+00 0. -1.
         23    2    1    2    0    0  0.30511515004E+03  0.24377822518E+03 -0.82981574643E+03  0.92158110897E+03  0.90523419781E+02 0.  0.
         11    1    3    3    0    0  0.14703791641E+03  0.16170562903E+03 -0.38997156416E+03  0.44704214586E+03  0.00000000000E+00 0. -1.
        -11    1    3    3    0    0  0.15807723364E+03  0.82072596152E+02 -0.43984418227E+03  0.47453896311E+03  0.00000000000E+00 0.  1.
         22    1    1    2    0    0 -0.30511515004E+03 -0.24377822518E+03  0.94459100307E+02  0.40180293614E+03  0.00000000000E+00 0.  1.
<mgrwt>
<rscale>  0 0.11002708E+04</rscale>
<asrwt>0</asrwt>
<pdfrwt beam="1">  1        2 0.15836467E+00 0.11002708E+04</pdfrwt>
<pdfrwt beam="2">  1       -2 0.45232876E-01 0.11002708E+04</pdfrwt>
<totfact> 0.11095660E+02</totfact>
</mgrwt>
</event>
<event>
 6    1  0.9906445E-006  0.1246836E+04  0.7818608E-02  0.9072821E-01
          2   -1    0    0  501    0  0.00000000000E+00  0.00000000000E+00  0.89410258069E+03  0.89410258069E+03  0.00000000000E+00 0. -1.
         -2   -1    0    0    0  501 -0.00000000000E+00 -0.00000000000E+00 -0.43468144645E+03  0.43468144645E+03  0.00000000000E+00 0.  1.
         23    2    1    2    0    0 -0.31142443903E+03 -0.32331818971E+03  0.68684900204E+03  0.82555121018E+03  0.90848313111E+02 0.  0.
         11    1    3    3    0    0 -0.24219550011E+02 -0.71455289574E+02  0.12908077546E+03  0.14951351646E+03  0.00000000000E+00 0. -1.
        -11    1    3    3    0    0 -0.28720488902E+03 -0.25186290013E+03  0.55776822659E+03  0.67603769372E+03  0.00000000000E+00 0.  1.
         22    1    1    2    0    0  0.31142443903E+03  0.32331818971E+03 -0.22742786781E+03  0.50323281697E+03  0.00000000000E+00 0.  1.
<mgrwt>
<rscale>  0 0.12468357E+04</rscale>
<asrwt>0</asrwt>
<pdfrwt beam="1">  1        2 0.13755424E+00 0.12468357E+04</pdfrwt>
<pdfrwt beam="2">  1       -2 0.66874069E-01 0.12468357E+04</pdfrwt>
<totfact> 0.59790036E+01</totfact>
</mgrwt>
</event>
<event>
 6    1  0.9906445E-006  0.2569010E+04  0.7818608E-02  0.8378805E-01
         -2   -1    0    0    0  501 -0.00000000000E+00  0.00000000000E+00  0.72483656831E+03  0.72483656831E+03  0.00000000000E+00 0. -1.
          2   -1    0    0  501    0  0.00000000000E+00 -0.00000000000E+00 -0.22763109013E+04  0.22763109013E+04  0.00000000000E+00 0.  1.
         23    2    1    2    0    0  0.31787166519E+03  0.11472579049E+04 -0.13347377942E+04  0.17910987834E+04  0.96264098634E+02 0.  0.
         13    1    3    3    0    0  0.24016676648E+03  0.85372197805E+03 -0.92942409317E+03  0.12846596578E+04  0.00000000000E+00 0. -1.
        -13    1    3    3    0    0  0.77704898706E+02  0.29353592684E+03 -0.40531370100E+03  0.50643912551E+03  0.00000000000E+00 0.  1.
         22    1    1    2    0    0 -0.31787166519E+03 -0.11472579049E+04 -0.21673653880E+03  0.12100486863E+04  0.00000000000E+00 0. -1.
<mgrwt>
<rscale>  0 0.25690102E+04</rscale>
<asrwt>0</asrwt>
<pdfrwt beam="1">  1        2 0.35020167E+00 0.25690102E+04</pdfrwt>
<pdfrwt beam="2">  1       -2 0.11151332E+00 0.25690102E+04</pdfrwt>
<totfact> 0.26352981E+00</totfact>
</mgrwt>
</event>
<event>
 6    1  0.9906445E-006  0.1768247E+04  0.7818608E-02  0.8723370E-01
         -2   -1    0    0    0  501 -0.00000000000E+00  0.00000000000E+00  0.24994841658E+03  0.24994841658E+03  0.00000000000E+00 0.  1.
          2   -1    0    0  501    0  0.00000000000E+00 -0.00000000000E+00 -0.31273432421E+04  0.31273432421E+04  0.00000000000E+00 0. -1.
         23    2    1    2    0    0 -0.87009061906E+03  0.92663471687E+02 -0.16434670665E+04  0.18646046723E+04  0.10061004333E+03 0.  0.
         13    1    3    3    0    0 -0.14756497763E+03  0.53745229180E+02 -0.30668820647E+03  0.34456005031E+03  0.00000000000E+00 0. -1.
        -13    1    3    3    0    0 -0.72252564143E+03  0.38918242507E+02 -0.13367788601E+04  0.15200446220E+04  0.00000000000E+00 0.  1.
         22    1    1    2    0    0  0.87009061906E+03 -0.92663471687E+02 -0.12339277589E+04  0.15126869863E+04  0.00000000000E+00 0. -1.
<mgrwt>
<rscale>  0 0.17682471E+04</rscale>
<asrwt>0</asrwt>
<pdfrwt beam="1">  1        2 0.48112974E+00 0.17682471E+04</pdfrwt>
<pdfrwt beam="2">  1       -2 0.38453602E-01 0.17682471E+04</pdfrwt>
<totfact> 0.87830510E+00</totfact>
</mgrwt>
</event>
<event>
 6    1  0.9906445E-006  0.1332521E+04  0.7818608E-02  0.9004166E-01
         -2   -1    0    0    0  501 -0.00000000000E+00  0.00000000000E+00  0.17275898446E+03  0.17275898446E+03  0.00000000000E+00 0.  1.
          2   -1    0    0  501    0  0.00000000000E+00 -0.00000000000E+00 -0.25694920558E+04  0.25694920558E+04  0.00000000000E+00 0. -1.
         23    2    1    2    0    0 -0.17500204181E+03  0.82285306308E+02 -0.25093583993E+04  0.25184630809E+04  0.91543034296E+02 0.  0.
         11    1    3    3    0    0 -0.94446802345E+02  0.49773949497E+02 -0.18936276525E+04  0.18966347383E+04  0.00000000000E+00 0.  1.
        -11    1    3    3    0    0 -0.80555239460E+02  0.32511356811E+02 -0.61573074686E+03  0.62182834252E+03  0.00000000000E+00 0. -1.
         22    1    1    2    0    0  0.17500204181E+03 -0.82285306308E+02  0.11262532798E+03  0.22378795940E+03  0.00000000000E+00 0.  1.
<mgrwt>
<rscale>  0 0.13325207E+04</rscale>
<asrwt>0</asrwt>
<pdfrwt beam="1">  1        2 0.39530644E+00 0.13325207E+04</pdfrwt>
<pdfrwt beam="2">  1       -2 0.26578307E-01 0.13325207E+04</pdfrwt>
<totfact> 0.39994913E+01</totfact>
</mgrwt>
</event>
<event>
 6    1  0.9906445E-006  0.2740288E+04  0.7818608E-02  0.8322050E-01
         -1   -1    0    0    0  501 -0.00000000000E+00  0.00000000000E+00  0.86290510406E+03  0.86290510406E+03  0.00000000000E+00 0.  1.
          1   -1    0    0  501    0  0.00000000000E+00 -0.00000000000E+00 -0.21755513699E+04  0.21755513699E+04  0.00000000000E+00 0. -1.
         23    2    1    2    0    0 -0.11317785509E+04  0.76828014767E+03 -0.60901378020E+03  0.15001860984E+04  0.92105764057E+02 0.  0.
         11    1    3    3    0    0 -0.16192937372E+03  0.14983984956E+03 -0.90259138083E+02  0.23836907223E+03  0.00000000000E+00 0. -1.
        -11    1    3    3    0    0 -0.96984917717E+03  0.61844029811E+03 -0.51875464211E+03  0.12618170262E+04  0.00000000000E+00 0.  1.
         22    1    1    2    0    0  0.11317785509E+04 -0.76828014767E+03 -0.70363248566E+03  0.15382703756E+04  0.00000000000E+00 0. -1.
<mgrwt>
<rscale>  0 0.27402879E+04</rscale>
<asrwt>0</asrwt>
<pdfrwt beam="1">  1        1 0.33470021E+00 0.27402879E+04</pdfrwt>
<pdfrwt beam="2">  1       -1 0.13275463E+00 0.27402879E+04</pdfrwt>
<totfact> 0.94696870E-01</totfact>
</mgrwt>
</event>
<event>
 6    1  0.9906445E-006  0.4697901E+04  0.7818608E-02  0.7876878E-01
          1   -1    0    0  501    0  0.00000000000E+00  0.00000000000E+00  0.44118281417E+04  0.44118281417E+04  0.00000000000E+00 0. -1.
         -1   -1    0    0    0  501 -0.00000000000E+00 -0.00000000000E+00 -0.12506306053E+04  0.12506306053E+04  0.00000000000E+00 0.  1.
         23    2    1    2    0    0  0.73166935170E+03  0.19718358619E+04  0.32273315360E+03  0.21297039072E+04  0.89472552147E+02 0.  0.
         13    1    3    3    0    0  0.40944514826E+03  0.10275869827E+04  0.20614481396E+03  0.11252004358E+04  0.00000000000E+00 0.  1.
        -13    1    3    3    0    0  0.32222420344E+03  0.94424887919E+03  0.11658833964E+03  0.10045034714E+04  0.00000000000E+00 0. -1.
         22    1    1    2    0    0 -0.73166935170E+03 -0.19718358619E+04  0.28384643828E+04  0.35327548399E+04  0.00000000000E+00 0. -1.
<mgrwt>
<rscale>  0 0.46979005E+04</rscale>
<asrwt>0</asrwt>
<pdfrwt beam="1">  1        1 0.67874278E+00 0.46979005E+04</pdfrwt>
<pdfrwt beam="2">  1       -1 0.19240471E+00 0.46979005E+04</pdfrwt>
<totfact> 0.49397583E-03</totfact>
</mgrwt>
</event>
<event>
 6    1  0.9906445E-006  0.2182576E+04  0.7818608E-02  0.8525716E-01
         -1   -1    0    0    0  501 -0.00000000000E+00  0.00000000000E+00  0.12517092980E+04  0.12517092980E+04  0.00000000000E+00 0.  1.
          1   -1    0    0  501    0  0.00000000000E+00 -0.00000000000E+00 -0.95142618192E+03  0.95142618192E+03  0.00000000000E+00 0. -1.
         23    2    1    2    0    0  0.18565512777E+03  0.82543938821E+03  0.84321003382E+03  0.11978555945E+04  0.89648503220E+02 0.  0.
         11    1    3    3    0    0  0.11234422546E+03  0.57076513817E+03  0.63206290630E+03  0.85900965388E+03  0.00000000000E+00 0.  1.
        -11    1    3    3    0    0  0.73310902312E+02  0.25467425004E+03  0.21114712752E+03  0.33884594065E+03  0.00000000000E+00 0. -1.
         22    1    1    2    0    0 -0.18565512777E+03 -0.82543938821E+03 -0.54292691770E+03  0.10052798854E+04  0.00000000000E+00 0.  1.
<mgrwt>
<rscale>  0 0.21825755E+04</rscale>
<asrwt>0</asrwt>
<pdfrwt beam="1">  1        1 0.14637326E+00 0.21825755E+04</pdfrwt>
<pdfrwt beam="2">  1       -1 0.19257066E+00 0.21825755E+04</pdfrwt>
<totfact> 0.25587264E+00</totfact>
</mgrwt>
</event>
<event>
 6    1  0.9906445E-006  0.1362587E+04  0.7818608E-02  0.8981354E-01
          2   -1    0    0  501    0  0.00000000000E+00  0.00000000000E+00  0.15950020015E+04  0.15950020015E+04  0.00000000000E+00 0. -1.
         -2   -1    0    0    0  501 -0.00000000000E+00 -0.00000000000E+00 -0.29100961852E+03  0.29100961852E+03  0.00000000000E+00 0.  1.
         23    2    1    2    0    0 -0.39257220012E+03  0.12864218251E+03  0.13994571198E+04  0.14620124934E+04  0.91315701231E+02 0.  0.
         11    1    3    3    0    0 -0.20387901083E+03  0.11235546117E+03  0.81877863902E+03  0.85122785459E+03  0.00000000000E+00 0. -1.
        -11    1    3    3    0    0 -0.18869318929E+03  0.16286721345E+02  0.58067848078E+03  0.61078463882E+03  0.00000000000E+00 0.  1.
         22    1    1    2    0    0  0.39257220012E+03 -0.12864218251E+03 -0.95464736788E+02  0.42399912664E+03  0.00000000000E+00 0.  1.
<mgrwt>
<rscale>  0 0.13625871E+04</rscale>
<asrwt>0</asrwt>
<pdfrwt beam="1">  1        2 0.24538492E+00 0.13625871E+04</pdfrwt>
<pdfrwt beam="2">  1       -2 0.44770711E-01 0.13625871E+04</pdfrwt>
<totfact> 0.51812370E+01</totfact>
</mgrwt>
</event>
<event>
 6    1  0.9906445E-006  0.2179909E+04  0.7818608E-02  0.8526837E-01
          2   -1    0    0  501    0  0.00000000000E+00  0.00000000000E+00  0.13281953800E+04  0.13281953800E+04  0.00000000000E+00 0. -1.
         -2   -1    0    0    0  501 -0.00000000000E+00 -0.00000000000E+00 -0.89444727519E+03  0.89444727519E+03  0.00000000000E+00 0.  1.
         23    2    1    2    0    0 -0.88230575121E+03  0.38076741685E+03  0.73753547138E+03  0.12148063448E+04  0.91370780144E+02 0.  0.
         11    1    3    3    0    0 -0.37613182391E+03  0.19355849497E+03  0.36852626988E+03  0.56102731798E+03  0.00000000000E+00 0. -1.
        -11    1    3    3    0    0 -0.50617392730E+03  0.18720892188E+03  0.36900920150E+03  0.65377902682E+03  0.00000000000E+00 0.  1.
         22    1    1    2    0    0  0.88230575121E+03 -0.38076741685E+03 -0.30378736662E+03  0.10078363104E+04  0.00000000000E+00 0.  1.
<mgrwt>
<rscale>  0 0.21799089E+04</rscale>
<asrwt>0</asrwt>
<pdfrwt beam="1">  1        2 0.20433775E+00 0.21799089E+04</pdfrwt>
<pdfrwt beam="2">  1       -2 0.13760727E+00 0.21799089E+04</pdfrwt>
<totfact> 0.54747158E+00</totfact>
</mgrwt>
</event>
<event>
 6    1  0.9906445E-006  0.6071487E+04  0.7818608E-02  0.7681601E-01
         -1   -1    0    0    0  501 -0.00000000000E+00  0.00000000000E+00  0.22467657861E+04  0.22467657861E+04  0.00000000000E+00 0.  1.
          1   -1    0    0  501    0  0.00000000000E+00 -0.00000000000E+00 -0.41017800985E+04  0.41017800985E+04  0.00000000000E+00 0. -1.
         23    2    1    2    0    0  0.29612501806E+04  0.57039316081E+03 -0.56964878903E+03  0.30703580439E+04  0.90817314212E+02 0.  0.
         11    1    3    3    0    0  0.24736360548E+04  0.49727444516E+03 -0.44928649495E+03  0.25628139925E+04  0.00000000000E+00 0. -1.
        -11    1    3    3    0    0  0.48761412581E+03  0.73118715650E+02 -0.12036229408E+03  0.50754405139E+03  0.00000000000E+00 0.  1.
         22    1    1    2    0    0 -0.29612501806E+04 -0.57039316081E+03 -0.12853655234E+04  0.32781878407E+04  0.00000000000E+00 0. -1.
<mgrwt>
<rscale>  0 0.60714872E+04</rscale>
<asrwt>0</asrwt>
<pdfrwt beam="1">  1        1 0.63104310E+00 0.60714872E+04</pdfrwt>
<pdfrwt beam="2">  1       -1 0.34565627E+00 0.60714872E+04</pdfrwt>
<totfact> 0.85473412E-04</totfact>
</mgrwt>
</event>
<event>
 6    1  0.9906445E-006  0.4589670E+04  0.7818608E-02  0.7895124E-01
          2   -1    0    0  501    0  0.00000000000E+00  0.00000000000E+00  0.42097262860E+04  0.42097262860E+04  0.00000000000E+00 0. -1.
         -2   -1    0    0    0  501 -0.00000000000E+00 -0.00000000000E+00 -0.12509761076E+04  0.12509761076E+04  0.00000000000E+00 0.  1.
         23    2    1    2    0    0  0.16324522459E+04  0.13253862389E+04  0.38921508800E+03  0.21404524636E+04  0.92191903265E+02 0.  0.
         11    1    3    3    0    0  0.68577586683E+03  0.54857460659E+03  0.20839130868E+03  0.90257940153E+03  0.00000000000E+00 0. -1.
        -11    1    3    3    0    0  0.94667637902E+03  0.77681163232E+03  0.18082377932E+03  0.12378730621E+04  0.00000000000E+00 0.  1.
         22    1    1    2    0    0 -0.16324522459E+04 -0.13253862389E+04  0.25695350904E+04  0.33202499300E+04  0.00000000000E+00 0.  1.
<mgrwt>
<rscale>  0 0.45896697E+04</rscale>
<asrwt>0</asrwt>
<pdfrwt beam="1">  1        2 0.64765019E+00 0.45896697E+04</pdfrwt>
<pdfrwt beam="2">  1       -2 0.19245786E+00 0.45896697E+04</pdfrwt>
<totfact> 0.25449886E-02</totfact>
</mgrwt>
</event>
<event>
 6    1  0.9906445E-006  0.6877139E+03  0.7818608E-02  0.9738477E-01
          2   -1    0    0  501    0  0.00000000000E+00  0.00000000000E+00  0.71134609520E+03  0.71134609520E+03  0.00000000000E+00 0. -1.
         -2   -1    0    0    0  501 -0.00000000000E+00 -0.00000000000E+00 -0.16621669860E+03  0.16621669860E+03  0.00000000000E+00 0.  1.
         23    2    1    2    0    0 -0.68878161768E+02  0.32521095471E+03  0.35042167829E+03  0.49231292449E+03  0.95238105663E+02 0.  0.
         11    1    3    3    0    0 -0.47115951995E+02  0.22484772869E+03  0.30013944116E+03  0.37796838250E+03  0.00000000000E+00 0. -1.
        -11    1    3    3    0    0 -0.21762209773E+02  0.10036322602E+03  0.50282237130E+02  0.11434454199E+03  0.00000000000E+00 0.  1.
         22    1    1    2    0    0  0.68878161768E+02 -0.32521095471E+03  0.19470771831E+03  0.38524986931E+03  0.00000000000E+00 0.  1.
<mgrwt>
<rscale>  0 0.68771389E+03</rscale>
<asrwt>0</asrwt>
<pdfrwt beam="1">  1        2 0.10943786E+00 0.68771389E+03</pdfrwt>
<pdfrwt beam="2">  1       -2 0.25571800E-01 0.68771389E+03</pdfrwt>
<totfact> 0.55552083E+02</totfact>
</mgrwt>
</event>
<event>
 6    1  0.9906445E-006  0.1030243E+04  0.7818608E-02  0.9275982E-01
         -2   -1    0    0    0  501 -0.00000000000E+00  0.00000000000E+00  0.49735351449E+03  0.49735351449E+03  0.00000000000E+00 0.  1.
          2   -1    0    0  501    0  0.00000000000E+00 -0.00000000000E+00 -0.53352473296E+03  0.53352473296E+03  0.00000000000E+00 0. -1.
         23    2    1    2    0    0 -0.35427197511E+02  0.43151638700E+03  0.25374402865E+03  0.50980979793E+03  0.89769256543E+02 0.  0.
         13    1    3    3    0    0 -0.42630788721E+02  0.96839207391E+02  0.80038234772E+02  0.13267002397E+03  0.00000000000E+00 0. -1.
        -13    1    3    3    0    0  0.72035912102E+01  0.33467717961E+03  0.17370579388E+03  0.37713977396E+03  0.00000000000E+00 0.  1.
         22    1    1    2    0    0  0.35427197511E+02 -0.43151638700E+03 -0.28991524711E+03  0.52106844952E+03  0.00000000000E+00 0. -1.
<mgrwt>
<rscale>  0 0.10302435E+04</rscale>
<asrwt>0</asrwt>
<pdfrwt beam="1">  1        2 0.82080729E-01 0.10302435E+04</pdfrwt>
<pdfrwt beam="2">  1       -2 0.76515925E-01 0.10302435E+04</pdfrwt>
<totfact> 0.86945586E+01</totfact>
</mgrwt>
</event>
<event>
 6    1  0.9906445E-006  0.1728331E+04  0.7818608E-02  0.8745369E-01
         -2   -1    0    0    0  501 -0.00000000000E+00  0.00000000000E+00  0.87190931226E+03  0.87190931226E+03  0.00000000000E+00 0.  1.
          2   -1    0    0  501    0  0.00000000000E+00 -0.00000000000E+00 -0.85649054581E+03  0.85649054581E+03  0.00000000000E+00 0. -1.
         23    2    1    2    0    0 -0.68597932020E+03  0.39766325397E+03  0.34509202740E+03  0.86968678010E+03  0.92535921672E+02 0.  0.
         11    1    3    3    0    0 -0.39753937711E+03  0.18316806254E+03  0.21245350153E+03  0.48654350864E+03  0.00000000000E+00 0. -1.
        -11    1    3    3    0    0 -0.28843994309E+03  0.21449519144E+03  0.13263852586E+03  0.38314327146E+03  0.00000000000E+00 0.  1.
         22    1    1    2    0    0  0.68597932020E+03 -0.39766325397E+03 -0.32967326094E+03  0.85871307798E+03  0.00000000000E+00 0. -1.
<mgrwt>
<rscale>  0 0.17283311E+04</rscale>
<asrwt>0</asrwt>
<pdfrwt beam="1">  1        2 0.13176778E+00 0.17283311E+04</pdfrwt>
<pdfrwt beam="2">  1       -2 0.13413989E+00 0.17283311E+04</pdfrwt>
<totfact> 0.11956700E+01</totfact>
</mgrwt>
</event>
<event>
 6    1  0.9906445E-006  0.4164395E+04  0.7818608E-02  0.7972180E-01
          2   -1    0    0  501    0  0.00000000000E+00  0.00000000000E+00  0.30171119921E+04  0.30171119921E+04  0.00000000000E+00 0. -1.
         -2   -1    0    0    0  501 -0.00000000000E+00 -0.00000000000E+00 -0.14369857474E+04  0.14369857474E+04  0.00000000000E+00 0.  1.
         23    2    1    2    0    0 -0.23728390309E+03  0.10584259682E+04 -0.11092546242E+04  0.15542117696E+04  0.92516066362E+02 0.  0.
         13    1    3    3    0    0 -0.12931886577E+03  0.62620725246E+03 -0.71621616893E+03  0.96011691617E+03  0.00000000000E+00 0. -1.
        -13    1    3    3    0    0 -0.10796503732E+03  0.43221871571E+03 -0.39303845529E+03  0.59409485340E+03  0.00000000000E+00 0.  1.
         22    1    1    2    0    0  0.23728390309E+03 -0.10584259682E+04  0.26893808689E+04  0.28998859700E+04  0.00000000000E+00 0. -1.
<mgrwt>
<rscale>  0 0.41643952E+04</rscale>
<asrwt>0</asrwt>
<pdfrwt beam="1">  1        2 0.46417108E+00 0.41643952E+04</pdfrwt>
<pdfrwt beam="2">  1       -2 0.22107473E+00 0.41643952E+04</pdfrwt>
<totfact> 0.12858269E-01</totfact>
</mgrwt>
</event>
<event>
 6    1  0.9906445E-006  0.1251790E+04  0.7818608E-02  0.9068695E-01
         -2   -1    0    0    0  501 -0.00000000000E+00  0.00000000000E+00  0.17094337408E+03  0.17094337408E+03  0.00000000000E+00 0.  1.
          2   -1    0    0  501    0  0.00000000000E+00 -0.00000000000E+00 -0.22916618806E+04  0.22916618806E+04  0.00000000000E+00 0. -1.
         23    2    1    2    0    0  0.43021175065E+03 -0.20468555105E+03 -0.27739050126E+03  0.55870492636E+03  0.90704902550E+02 0.  0.
         13    1    3    3    0    0  0.18657733900E+03 -0.13891780197E+03 -0.13117122091E+03  0.26704896242E+03  0.00000000000E+00 0. -1.
        -13    1    3    3    0    0  0.24363441165E+03 -0.65767749078E+02 -0.14621928034E+03  0.29165596394E+03  0.00000000000E+00 0.  1.
         22    1    1    2    0    0 -0.43021175065E+03  0.20468555105E+03 -0.18433280052E+04  0.19039003283E+04  0.00000000000E+00 0. -1.
<mgrwt>
<rscale>  0 0.12517898E+04</rscale>
<asrwt>0</asrwt>
<pdfrwt beam="1">  1        2 0.35256334E+00 0.12517898E+04</pdfrwt>
<pdfrwt beam="2">  1       -2 0.26298982E-01 0.12517898E+04</pdfrwt>
<totfact> 0.59150430E+01</totfact>
</mgrwt>
</event>
<event>
 6    1  0.9906445E-006  0.2553600E+04  0.7818608E-02  0.8384135E-01
         -2   -1    0    0    0  501 -0.00000000000E+00  0.00000000000E+00  0.50088790974E+03  0.50088790974E+03  0.00000000000E+00 0.  1.
          2   -1    0    0  501    0  0.00000000000E+00 -0.00000000000E+00 -0.32546571685E+04  0.32546571685E+04  0.00000000000E+00 0. -1.
         23    2    1    2    0    0 -0.21650916409E+03  0.95342370971E+03 -0.25822182841E+04  0.27629108428E+04  0.99659772696E+02 0.  0.
         13    1    3    3    0    0 -0.13280942473E+03  0.73924163806E+03 -0.20440214746E+04  0.21776455936E+04  0.00000000000E+00 0. -1.
        -13    1    3    3    0    0 -0.83699739361E+02  0.21418207165E+03 -0.53819680951E+03  0.58526524923E+03  0.00000000000E+00 0.  1.
         22    1    1    2    0    0  0.21650916409E+03 -0.95342370971E+03 -0.17155097464E+03  0.99263423539E+03  0.00000000000E+00 0.  1.
<mgrwt>
<rscale>  0 0.25536001E+04</rscale>
<asrwt>0</asrwt>
<pdfrwt beam="1">  1        2 0.50071647E+00 0.25536001E+04</pdfrwt>
<pdfrwt beam="2">  1       -2 0.77059680E-01 0.25536001E+04</pdfrwt>
<totfact> 0.15943283E+00</totfact>
</mgrwt>
</event>
<event>
 6    1  0.9906445E-006  0.2482688E+04  0.7818608E-02  0.8409179E-01
          1   -1    0    0  501    0  0.00000000000E+00  0.00000000000E+00  0.19925779329E+04  0.19925779329E+04  0.00000000000E+00 0. -1.
         -1   -1    0    0    0  501 -0.00000000000E+00 -0.00000000000E+00 -0.77333727219E+03  0.77333727219E+03  0.00000000000E+00 0.  1.
         23    2    1    2    0    0 -0.17799891982E+03 -0.65852507692E+03  0.17636194192E+04  0.18931683202E+04  0.91618449859E+02 0.  0.
         13    1    3    3    0    0  0.38596248687E+01 -0.64233163404E+02  0.21728733910E+03  0.22661549753E+03  0.00000000000E+00 0.  1.
        -13    1    3    3    0    0 -0.18185854468E+03 -0.59429191352E+03  0.15463320801E+04  0.16665528227E+04  0.00000000000E+00 0. -1.
         22    1    1    2    0    0  0.17799891982E+03  0.65852507692E+03 -0.54437875850E+03  0.87274688490E+03  0.00000000000E+00 0.  1.
<mgrwt>
<rscale>  0 0.24826879E+04</rscale>
<asrwt>0</asrwt>
<pdfrwt beam="1">  1        1 0.30655045E+00 0.24826879E+04</pdfrwt>
<pdfrwt beam="2">  1       -1 0.11897497E+00 0.24826879E+04</pdfrwt>
<totfact> 0.16955823E+00</totfact>
</mgrwt>
</event>
<event>
 6    1  0.9906445E-006  0.1004931E+04  0.7818608E-02  0.9303153E-01
          2   -1    0    0  501    0  0.00000000000E+00  0.00000000000E+00  0.15313229480E+04  0.15313229480E+04  0.00000000000E+00 0. -1.
         -2   -1    0    0    0  501 -0.00000000000E+00 -0.00000000000E+00 -0.16487165925E+03  0.16487165925E+03  0.00000000000E+00 0.  1.
         23    2    1    2    0    0  0.19313406985E+02  0.36200202013E+03  0.11165808405E+03  0.39008417669E+03  0.90992675006E+02 0.  0.
         13    1    3    3    0    0 -0.22737417625E+02  0.14167793454E+03  0.77851459865E+02  0.16324973843E+03  0.00000000000E+00 0. -1.
        -13    1    3    3    0    0  0.42050824610E+02  0.22032408559E+03  0.33806624187E+02  0.22683443826E+03  0.00000000000E+00 0.  1.
         22    1    1    2    0    0 -0.19313406985E+02 -0.36200202013E+03  0.12547932047E+04  0.13061104305E+04  0.00000000000E+00 0. -1.
<mgrwt>
<rscale>  0 0.10049314E+04</rscale>
<asrwt>0</asrwt>
<pdfrwt beam="1">  1        2 0.23558814E+00 0.10049314E+04</pdfrwt>
<pdfrwt beam="2">  1       -2 0.25364872E-01 0.10049314E+04</pdfrwt>
<totfact> 0.16986259E+02</totfact>
</mgrwt>
</event>
<event>
 6    1  0.9906445E-006  0.1200297E+04  0.7818608E-02  0.9112596E-01
         -2   -1    0    0    0  501 -0.00000000000E+00  0.00000000000E+00  0.12096822211E+03  0.12096822211E+03  0.00000000000E+00 0. -1.
          2   -1    0    0  501    0  0.00000000000E+00 -0.00000000000E+00 -0.29774621405E+04  0.29774621405E+04  0.00000000000E+00 0.  1.
         23    2    1    2    0    0  0.10368887184E+02  0.24861353497E+03 -0.28364318935E+04  0.28487932491E+04  0.91437881377E+02 0.  0.
         13    1    3    3    0    0 -0.32490491425E+02  0.12826550083E+03 -0.17182801868E+04  0.17233671898E+04  0.00000000000E+00 0.  1.
        -13    1    3    3    0    0  0.42859378608E+02  0.12034803414E+03 -0.11181517068E+04  0.11254260593E+04  0.00000000000E+00 0. -1.
         22    1    1    2    0    0 -0.10368887184E+02 -0.24861353497E+03 -0.20062024889E+02  0.24963711350E+03  0.00000000000E+00 0. -1.
<mgrwt>
<rscale>  0 0.12002971E+04</rscale>
<asrwt>0</asrwt>
<pdfrwt beam="1">  1        2 0.45807105E+00 0.12002971E+04</pdfrwt>
<pdfrwt beam="2">  1       -2 0.18610497E-01 0.12002971E+04</pdfrwt>
<totfact> 0.43642795E+01</totfact>
</mgrwt>
</event>
<event>
 6    1  0.9906445E-006  0.3253581E+04  0.7818608E-02  0.8174808E-01
         -2   -1    0    0    0  501 -0.00000000000E+00  0.00000000000E+00  0.12965345327E+04  0.12965345327E+04  0.00000000000E+00 0. -1.
          2   -1    0    0  501    0  0.00000000000E+00 -0.00000000000E+00 -0.20411697863E+04  0.20411697863E+04  0.00000000000E+00 0.  1.
         23    2    1    2    0    0  0.13822539062E+04 -0.83730552408E+03 -0.55248141477E+03  0.17102432596E+04  0.89386193346E+02 0.  0.
         13    1    3    3    0    0  0.31022783023E+03 -0.23222006238E+03 -0.13673769071E+03  0.41093145424E+03  0.00000000000E+00 0. -1.
        -13    1    3    3    0    0  0.10720260760E+04 -0.60508546170E+03 -0.41574372406E+03  0.12993118054E+04  0.00000000000E+00 0.  1.
         22    1    1    2    0    0 -0.13822539062E+04  0.83730552408E+03 -0.19215383885E+03  0.16274610593E+04  0.00000000000E+00 0.  1.
<mgrwt>
<rscale>  0 0.32535809E+04</rscale>
<asrwt>0</asrwt>
<pdfrwt beam="1">  1        2 0.31402612E+00 0.32535809E+04</pdfrwt>
<pdfrwt beam="2">  1       -2 0.19946685E+00 0.32535809E+04</pdfrwt>
<totfact> 0.71242847E-01</totfact>
</mgrwt>
</event>
<event>
 6    1  0.9906445E-006  0.2074587E+04  0.7818608E-02  0.8572521E-01
         -2   -1    0    0    0  501 -0.00000000000E+00  0.00000000000E+00  0.91293829321E+03  0.91293829321E+03  0.00000000000E+00 0.  1.
          2   -1    0    0  501    0  0.00000000000E+00 -0.00000000000E+00 -0.11785876365E+04  0.11785876365E+04  0.00000000000E+00 0. -1.
         23    2    1    2    0    0 -0.98929735511E+03 -0.25882584785E+03 -0.29531271241E+03  0.10685010074E+04  0.93726881210E+02 0.  0.
         11    1    3    3    0    0 -0.92329093646E+03 -0.25741685701E+03 -0.29358161882E+03  0.10024568612E+04  0.00000000000E+00 0.  1.
        -11    1    3    3    0    0 -0.66006418653E+02 -0.14089908350E+01 -0.17310935865E+01  0.66044146172E+02  0.00000000000E+00 0. -1.
         22    1    1    2    0    0  0.98929735511E+03  0.25882584785E+03  0.29663369097E+02  0.10230249224E+04  0.00000000000E+00 0.  1.
<mgrwt>
<rscale>  0 0.20745870E+04</rscale>
<asrwt>0</asrwt>
<pdfrwt beam="1">  1        2 0.18132118E+00 0.20745870E+04</pdfrwt>
<pdfrwt beam="2">  1       -2 0.14045204E+00 0.20745870E+04</pdfrwt>
<totfact> 0.64174054E+00</totfact>
</mgrwt>
</event>
<event>
 6    1  0.9906445E-006  0.2927525E+04  0.7818608E-02  0.8264735E-01
         -1   -1    0    0    0  501 -0.00000000000E+00  0.00000000000E+00  0.13886658303E+04  0.13886658303E+04  0.00000000000E+00 0.  1.
          1   -1    0    0  501    0  0.00000000000E+00 -0.00000000000E+00 -0.15429207671E+04  0.15429207671E+04  0.00000000000E+00 0. -1.
         23    2    1    2    0    0  0.33716243823E+03 -0.13692036845E+04  0.31067789204E+03  0.14468105959E+04  0.91339523913E+02 0.  0.
         11    1    3    3    0    0  0.21413660897E+03 -0.82550847550E+03  0.14331235235E+03  0.86478735002E+03  0.00000000000E+00 0. -1.
        -11    1    3    3    0    0  0.12302582926E+03 -0.54369520895E+03  0.16736553969E+03  0.58202324591E+03  0.00000000000E+00 0.  1.
         22    1    1    2    0    0 -0.33716243823E+03  0.13692036845E+04 -0.46493282888E+03  0.14847760015E+04  0.00000000000E+00 0.  1.
<mgrwt>
<rscale>  0 0.29275255E+04</rscale>
<asrwt>0</asrwt>
<pdfrwt beam="1">  1        1 0.23737243E+00 0.29275255E+04</pdfrwt>
<pdfrwt beam="2">  1       -1 0.21364090E+00 0.29275255E+04</pdfrwt>
<totfact> 0.63541208E-01</totfact>
</mgrwt>
</event>
<event>
 6    1  0.9906445E-006  0.3940924E+04  0.7818608E-02  0.8016571E-01
          2   -1    0    0  501    0  0.00000000000E+00  0.00000000000E+00  0.15362356002E+04  0.15362356002E+04  0.00000000000E+00 0. -1.
         -2   -1    0    0    0  501 -0.00000000000E+00 -0.00000000000E+00 -0.25274249498E+04  0.25274249498E+04  0.00000000000E+00 0.  1.
         23    2    1    2    0    0  0.22170502977E+03  0.19562527457E+04 -0.44453561036E+03  0.20204013309E+04  0.91278168095E+02 0.  0.
         11    1    3    3    0    0  0.54854174623E+02  0.60889132323E+03 -0.17901516743E+03  0.63702751443E+03  0.00000000000E+00 0. -1.
        -11    1    3    3    0    0  0.16685085514E+03  0.13473614225E+04 -0.26552044293E+03  0.13833738165E+04  0.00000000000E+00 0.  1.
         22    1    1    2    0    0 -0.22170502977E+03 -0.19562527457E+04 -0.54665373925E+03  0.20432592190E+04  0.00000000000E+00 0.  1.
<mgrwt>
<rscale>  0 0.39409238E+04</rscale>
<asrwt>0</asrwt>
<pdfrwt beam="1">  1        2 0.23634394E+00 0.39409238E+04</pdfrwt>
<pdfrwt beam="2">  1       -2 0.38883461E+00 0.39409238E+04</pdfrwt>
<totfact> 0.84204651E-02</totfact>
</mgrwt>
</event>
<event>
 6    1  0.9906445E-006  0.1962116E+04  0.7818608E-02  0.8624540E-01
          2   -1    0    0  501    0  0.00000000000E+00  0.00000000000E+00  0.34279767418E+04  0.34279767418E+04  0.00000000000E+00 0. -1.
         -2   -1    0    0    0  501 -0.00000000000E+00 -0.00000000000E+00 -0.28077044401E+03  0.28077044401E+03  0.00000000000E+00 0.  1.
         23    2    1    2    0    0  0.87184986562E+03 -0.44152376388E+03  0.14746084689E+04  0.17715716854E+04  0.94502262400E+02 0.  0.
         13    1    3    3    0    0  0.41439408495E+03 -0.22971813004E+03  0.79363178348E+03  0.92430746219E+03  0.00000000000E+00 0. -1.
        -13    1    3    3    0    0  0.45745578068E+03 -0.21180563384E+03  0.68097668546E+03  0.84726422321E+03  0.00000000000E+00 0.  1.
         22    1    1    2    0    0 -0.87184986562E+03  0.44152376388E+03  0.16725978288E+04  0.19371755004E+04  0.00000000000E+00 0. -1.
<mgrwt>
<rscale>  0 0.19621157E+04</rscale>
<asrwt>0</asrwt>
<pdfrwt beam="1">  1        2 0.52738101E+00 0.19621157E+04</pdfrwt>
<pdfrwt beam="2">  1       -2 0.43195455E-01 0.19621157E+04</pdfrwt>
<totfact> 0.43436251E+00</totfact>
</mgrwt>
</event>
<event>
 6    1  0.9906445E-006  0.1599784E+04  0.7818608E-02  0.8820681E-01
          1   -1    0    0  501    0  0.00000000000E+00  0.00000000000E+00  0.75763776953E+03  0.75763776953E+03  0.00000000000E+00 0. -1.
         -1   -1    0    0    0  501 -0.00000000000E+00 -0.00000000000E+00 -0.84450227473E+03  0.84450227473E+03  0.00000000000E+00 0.  1.
         23    2    1    2    0    0 -0.68844620802E+03  0.37915554893E+03  0.90624869194E+02  0.79639840475E+03  0.91216448874E+02 0.  0.
         11    1    3    3    0    0 -0.38065490364E+03  0.18312169528E+03  0.87952506539E+02  0.43147115124E+03  0.00000000000E+00 0. -1.
        -11    1    3    3    0    0 -0.30779130439E+03  0.19603385365E+03  0.26723626548E+01  0.36492725351E+03  0.00000000000E+00 0.  1.
         22    1    1    2    0    0  0.68844620802E+03 -0.37915554893E+03 -0.17748937439E+03  0.80574163951E+03  0.00000000000E+00 0.  1.
<mgrwt>
<rscale>  0 0.15997835E+04</rscale>
<asrwt>0</asrwt>
<pdfrwt beam="1">  1        1 0.11655966E+00 0.15997835E+04</pdfrwt>
<pdfrwt beam="2">  1       -1 0.12992343E+00 0.15997835E+04</pdfrwt>
<totfact> 0.11751136E+01</totfact>
</mgrwt>
</event>
<event>
 6    1  0.9906445E-006  0.1998369E+04  0.7818608E-02  0.8607384E-01
         -1   -1    0    0    0  501 -0.00000000000E+00  0.00000000000E+00  0.46481825871E+03  0.46481825871E+03  0.00000000000E+00 0.  1.
          1   -1    0    0  501    0  0.00000000000E+00 -0.00000000000E+00 -0.21478705420E+04  0.21478705420E+04  0.00000000000E+00 0. -1.
         23    2    1    2    0    0  0.85139150106E+03 -0.50456007008E+03 -0.68432771689E+03  0.12066663571E+04  0.91054493713E+02 0.  0.
         13    1    3    3    0    0  0.65084664571E+03 -0.35961367460E+03 -0.55184818865E+03  0.92599123889E+03  0.00000000000E+00 0. -1.
        -13    1    3    3    0    0  0.20054485535E+03 -0.14494639549E+03 -0.13247952824E+03  0.28067511820E+03  0.00000000000E+00 0.  1.
         22    1    1    2    0    0 -0.85139150106E+03  0.50456007008E+03 -0.99872456635E+03  0.14060224436E+04  0.00000000000E+00 0. -1.
<mgrwt>
<rscale>  0 0.19983688E+04</rscale>
<asrwt>0</asrwt>
<pdfrwt beam="1">  1        1 0.33044162E+00 0.19983688E+04</pdfrwt>
<pdfrwt beam="2">  1       -1 0.71510502E-01 0.19983688E+04</pdfrwt>
<totfact> 0.43308480E+00</totfact>
</mgrwt>
</event>
<event>
 6    1  0.9906445E-006  0.2214133E+04  0.7818608E-02  0.8512569E-01
         -2   -1    0    0    0  501 -0.00000000000E+00  0.00000000000E+00  0.15091388798E+04  0.15091388798E+04  0.00000000000E+00 0.  1.
          2   -1    0    0  501    0  0.00000000000E+00 -0.00000000000E+00 -0.81211615730E+03  0.81211615730E+03  0.00000000000E+00 0. -1.
         23    2    1    2    0    0 -0.47329071281E+03  0.95318977011E+03  0.36378165356E+02  0.10686473301E+04  0.90049478504E+02 0.  0.
         11    1    3    3    0    0 -0.34666105353E+03  0.77096769977E+03  0.11928709715E+02  0.84540367531E+03  0.00000000000E+00 0.  1.
        -11    1    3    3    0    0 -0.12662965927E+03  0.18222207034E+03  0.24449455642E+02  0.22324365480E+03  0.00000000000E+00 0. -1.
         22    1    1    2    0    0  0.47329071281E+03 -0.95318977011E+03  0.66064455712E+03  0.12526077070E+04  0.00000000000E+00 0. -1.
<mgrwt>
<rscale>  0 0.22141328E+04</rscale>
<asrwt>0</asrwt>
<pdfrwt beam="1">  1        2 0.12494095E+00 0.22141328E+04</pdfrwt>
<pdfrwt beam="2">  1       -2 0.23217521E+00 0.22141328E+04</pdfrwt>
<totfact> 0.25532065E+00</totfact>
</mgrwt>
</event>
<event>
 6    1  0.9906445E-006  0.1172204E+04  0.7818608E-02  0.9137540E-01
          1   -1    0    0  501    0  0.00000000000E+00  0.00000000000E+00  0.12772308426E+04  0.12772308426E+04  0.00000000000E+00 0. -1.
         -1   -1    0    0    0  501 -0.00000000000E+00 -0.00000000000E+00 -0.26895330642E+03  0.26895330642E+03  0.00000000000E+00 0.  1.
         23    2    1    2    0    0 -0.56561805894E+03  0.13864796242E+03  0.51064517190E+03  0.78016520928E+03  0.93553279504E+02 0.  0.
         13    1    3    3    0    0 -0.14776960147E+03  0.41574628539E+02  0.83291978897E+02  0.17464781306E+03  0.00000000000E+00 0. -1.
        -13    1    3    3    0    0 -0.41784845746E+03  0.97073333882E+02  0.42735319301E+03  0.60551739622E+03  0.00000000000E+00 0.  1.
         22    1    1    2    0    0  0.56561805894E+03 -0.13864796242E+03  0.49763236428E+03  0.76601893975E+03  0.00000000000E+00 0.  1.
<mgrwt>
<rscale>  0 0.11722038E+04</rscale>
<asrwt>0</asrwt>
<pdfrwt beam="1">  1        1 0.19649705E+00 0.11722038E+04</pdfrwt>
<pdfrwt beam="2">  1       -1 0.41377432E-01 0.11722038E+04</pdfrwt>
<totfact> 0.53280629E+01</totfact>
</mgrwt>
</event>
<event>
 6    1  0.9906445E-006  0.1895255E+04  0.7818608E-02  0.8657222E-01
         -3   -1    0    0    0  501 -0.00000000000E+00  0.00000000000E+00  0.72511369126E+03  0.72511369126E+03  0.00000000000E+00 0.  1.
          3   -1    0    0  501    0  0.00000000000E+00 -0.00000000000E+00 -0.12384237392E+04  0.12384237392E+04  0.00000000000E+00 0. -1.
         23    2    1    2    0    0  0.10036846997E+00 -0.71185362728E+03 -0.90212360440E+03  0.11524199430E+04  0.86655240873E+02 0.  0.
         11    1    3    3    0    0  0.19322063977E+02 -0.21949745826E+03 -0.22425678689E+03  0.31439399295E+03  0.00000000000E+00 0. -1.
        -11    1    3    3    0    0 -0.19221695507E+02 -0.49235616903E+03 -0.67786681750E+03  0.83802595009E+03  0.00000000000E+00 0.  1.
         22    1    1    2    0    0 -0.10036846997E+00  0.71185362728E+03  0.38881355643E+03  0.81111748743E+03  0.00000000000E+00 0.  1.
<mgrwt>
<rscale>  0 0.18952551E+04</rscale>
<asrwt>0</asrwt>
<pdfrwt beam="1">  1        3 0.19052673E+00 0.18952551E+04</pdfrwt>
<pdfrwt beam="2">  1       -3 0.11155595E+00 0.18952551E+04</pdfrwt>
<totfact> 0.27968419E-01</totfact>
</mgrwt>
</event>
<event>
 6    1  0.9906445E-006  0.1810298E+04  0.7818608E-02  0.8700842E-01
          2   -1    0    0  501    0  0.00000000000E+00  0.00000000000E+00  0.84195838972E+03  0.84195838972E+03  0.00000000000E+00 0.  1.
         -2   -1    0    0    0  501 -0.00000000000E+00 -0.00000000000E+00 -0.97308172718E+03  0.97308172718E+03  0.00000000000E+00 0. -1.
         23    2    1    2    0    0  0.36370914297E+03 -0.79903356428E+03 -0.27431338589E+03  0.92552206341E+03  0.10297707838E+03 0.  0.
         11    1    3    3    0    0  0.30922381408E+02 -0.65767023912E+02  0.58940299577E+01  0.72912513983E+02  0.00000000000E+00 0.  1.
        -11    1    3    3    0    0  0.33278676156E+03 -0.73326654036E+03 -0.28020741585E+03  0.85260954943E+03  0.00000000000E+00 0. -1.
         22    1    1    2    0    0 -0.36370914297E+03  0.79903356428E+03  0.14319004843E+03  0.88951805349E+03  0.00000000000E+00 0. -1.
<mgrwt>
<rscale>  0 0.18102976E+04</rscale>
<asrwt>0</asrwt>
<pdfrwt beam="1">  1        2 0.12953206E+00 0.18102976E+04</pdfrwt>
<pdfrwt beam="2">  1       -2 0.14970488E+00 0.18102976E+04</pdfrwt>
<totfact> 0.91321030E+00</totfact>
</mgrwt>
</event>
<event>
 6    1  0.9906445E-006  0.1973153E+04  0.7818608E-02  0.8619276E-01
         -1   -1    0    0    0  501 -0.00000000000E+00  0.00000000000E+00  0.73104131980E+03  0.73104131980E+03  0.00000000000E+00 0.  1.
          1   -1    0    0  501    0  0.00000000000E+00 -0.00000000000E+00 -0.13314338618E+04  0.13314338618E+04  0.00000000000E+00 0. -1.
         23    2    1    2    0    0  0.47175837556E+03  0.62809149733E+03  0.31938819214E+03  0.85290852664E+03  0.91592814199E+02 0.  0.
         11    1    3    3    0    0  0.18123093511E+03  0.23206452837E+03  0.72771378797E+02  0.30330557321E+03  0.00000000000E+00 0. -1.
        -11    1    3    3    0    0  0.29052744045E+03  0.39602696895E+03  0.24661681334E+03  0.54960295343E+03  0.00000000000E+00 0.  1.
         22    1    1    2    0    0 -0.47175837556E+03 -0.62809149733E+03 -0.91978073419E+03  0.12095666550E+04  0.00000000000E+00 0. -1.
<mgrwt>
<rscale>  0 0.19731530E+04</rscale>
<asrwt>0</asrwt>
<pdfrwt beam="1">  1        1 0.20483598E+00 0.19731530E+04</pdfrwt>
<pdfrwt beam="2">  1       -1 0.11246790E+00 0.19731530E+04</pdfrwt>
<totfact> 0.57828360E+00</totfact>
</mgrwt>
</event>
<event>
 6    1  0.9906445E-006  0.1745437E+04  0.7818608E-02  0.8735866E-01
          3   -1    0    0  501    0  0.00000000000E+00  0.00000000000E+00  0.44369870575E+03  0.44369870575E+03  0.00000000000E+00 0. -1.
         -3   -1    0    0    0  501 -0.00000000000E+00 -0.00000000000E+00 -0.17165648062E+04  0.17165648062E+04  0.00000000000E+00 0.  1.
         23    2    1    2    0    0 -0.28125964723E+03 -0.80204519095E+03 -0.40572035250E+03  0.94604556376E+03  0.89497077072E+02 0.  0.
         13    1    3    3    0    0 -0.12078900230E+03 -0.45024171590E+03 -0.19118669309E+03  0.50384515223E+03  0.00000000000E+00 0. -1.
        -13    1    3    3    0    0 -0.16047064493E+03 -0.35180347505E+03 -0.21453365942E+03  0.44220041154E+03  0.00000000000E+00 0.  1.
         22    1    1    2    0    0  0.28125964723E+03  0.80204519095E+03 -0.86714574791E+03  0.12142179481E+04  0.00000000000E+00 0. -1.
<mgrwt>
<rscale>  0 0.17454370E+04</rscale>
<asrwt>0</asrwt>
<pdfrwt beam="1">  1        3 0.68261339E-01 0.17454370E+04</pdfrwt>
<pdfrwt beam="2">  1       -3 0.26408689E+00 0.17454370E+04</pdfrwt>
<totfact> 0.31056885E-01</totfact>
</mgrwt>
</event>
<event>
 6    1  0.9906445E-006  0.2372574E+04  0.7818608E-02  0.8449843E-01
          2   -1    0    0  501    0  0.00000000000E+00  0.00000000000E+00  0.21556021002E+04  0.21556021002E+04  0.00000000000E+00 0. -1.
         -2   -1    0    0    0  501 -0.00000000000E+00 -0.00000000000E+00 -0.65284645471E+03  0.65284645471E+03  0.00000000000E+00 0.  1.
         23    2    1    2    0    0 -0.13130788910E+02  0.10490020584E+04  0.10109818285E+03  0.10576711908E+04  0.88711718471E+02 0.  0.
         11    1    3    3    0    0  0.17560987497E+02  0.84163119724E+02  0.24040402025E+02  0.89273511934E+02  0.00000000000E+00 0.  1.
        -11    1    3    3    0    0 -0.30691776407E+02  0.96483893871E+03  0.77057780829E+02  0.96839767884E+03  0.00000000000E+00 0. -1.
         22    1    1    2    0    0  0.13130788910E+02 -0.10490020584E+04  0.14016574626E+04  0.17507773641E+04  0.00000000000E+00 0. -1.
<mgrwt>
<rscale>  0 0.23725743E+04</rscale>
<asrwt>0</asrwt>
<pdfrwt beam="1">  1        2 0.33163109E+00 0.23725743E+04</pdfrwt>
<pdfrwt beam="2">  1       -2 0.10043792E+00 0.23725743E+04</pdfrwt>
<totfact> 0.40290084E+00</totfact>
</mgrwt>
</event>
<event>
 6    1  0.9906445E-006  0.1270306E+04  0.7818608E-02  0.9053450E-01
         -1   -1    0    0    0  501 -0.00000000000E+00  0.00000000000E+00  0.69047044936E+03  0.69047044936E+03  0.00000000000E+00 0.  1.
          1   -1    0    0  501    0  0.00000000000E+00 -0.00000000000E+00 -0.58426707681E+03  0.58426707681E+03  0.00000000000E+00 0. -1.
         23    2    1    2    0    0  0.42066085844E+03  0.90456624115E+02 -0.41093260024E+03  0.60200609905E+03  0.91693962123E+02 0.  0.
         13    1    3    3    0    0  0.71579319066E+02 -0.96400195425E+01 -0.38566019718E+02  0.81877144378E+02  0.00000000000E+00 0.  1.
        -13    1    3    3    0    0  0.34908153938E+03  0.10009664366E+03 -0.37236658052E+03  0.52012895468E+03  0.00000000000E+00 0. -1.
         22    1    1    2    0    0 -0.42066085844E+03 -0.90456624115E+02  0.51713597278E+03  0.67273142711E+03  0.00000000000E+00 0.  1.
<mgrwt>
<rscale>  0 0.12703057E+04</rscale>
<asrwt>0</asrwt>
<pdfrwt beam="1">  1        1 0.89887242E-01 0.12703057E+04</pdfrwt>
<pdfrwt beam="2">  1       -1 0.10622622E+00 0.12703057E+04</pdfrwt>
<totfact> 0.29049655E+01</totfact>
</mgrwt>
</event>
<event>
 6    1  0.9906445E-006  0.3548211E+04  0.7818608E-02  0.8102459E-01
          3   -1    0    0  501    0  0.00000000000E+00  0.00000000000E+00  0.27701356326E+04  0.27701356326E+04  0.00000000000E+00 0. -1.
         -3   -1    0    0    0  501 -0.00000000000E+00 -0.00000000000E+00 -0.11362083055E+04  0.11362083055E+04  0.00000000000E+00 0.  1.
         23    2    1    2    0    0  0.15222926498E+04  0.62748235656E+03  0.15411793300E+04  0.22571892425E+04  0.92523131323E+02 0.  0.
         11    1    3    3    0    0  0.47372181974E+03  0.18223429759E+03  0.53199742264E+03  0.73528427115E+03  0.00000000000E+00 0. -1.
        -11    1    3    3    0    0  0.10485708300E+04  0.44524805896E+03  0.10091819073E+04  0.15219049713E+04  0.00000000000E+00 0.  1.
         22    1    1    2    0    0 -0.15222926498E+04 -0.62748235656E+03  0.92747997102E+02  0.16491546957E+04  0.00000000000E+00 0.  1.
<mgrwt>
<rscale>  0 0.35482114E+04</rscale>
<asrwt>0</asrwt>
<pdfrwt beam="1">  1        3 0.42617471E+00 0.35482114E+04</pdfrwt>
<pdfrwt beam="2">  1       -3 0.17480128E+00 0.35482114E+04</pdfrwt>
<totfact> 0.36765178E-03</totfact>
</mgrwt>
</event>
<event>
 6    1  0.9906445E-006  0.1575016E+04  0.7818608E-02  0.8836045E-01
          2   -1    0    0  501    0  0.00000000000E+00  0.00000000000E+00  0.13303658672E+04  0.13303658672E+04  0.00000000000E+00 0. -1.
         -2   -1    0    0    0  501 -0.00000000000E+00 -0.00000000000E+00 -0.46616403619E+03  0.46616403619E+03  0.00000000000E+00 0.  1.
         23    2    1    2    0    0 -0.30859566331E+03 -0.63940745646E+03  0.81503089399E+03  0.10848481206E+04  0.92449488356E+02 0.  0.
         13    1    3    3    0    0 -0.13078063479E+03 -0.35743238610E+03  0.39381146190E+03  0.54767595583E+03  0.00000000000E+00 0.  1.
        -13    1    3    3    0    0 -0.17781502853E+03 -0.28197507036E+03  0.42121943209E+03  0.53717216480E+03  0.00000000000E+00 0. -1.
         22    1    1    2    0    0  0.30859566331E+03  0.63940745646E+03  0.49170936970E+02  0.71168178271E+03  0.00000000000E+00 0. -1.
<mgrwt>
<rscale>  0 0.15750158E+04</rscale>
<asrwt>0</asrwt>
<pdfrwt beam="1">  1        2 0.20467167E+00 0.15750158E+04</pdfrwt>
<pdfrwt beam="2">  1       -2 0.71717545E-01 0.15750158E+04</pdfrwt>
<totfact> 0.26880480E+01</totfact>
</mgrwt>
</event>
<event>
 6    1  0.9906445E-006  0.8325471E+03  0.7818608E-02  0.9514066E-01
         -1   -1    0    0    0  501 -0.00000000000E+00  0.00000000000E+00  0.17090269088E+03  0.17090269088E+03  0.00000000000E+00 0.  1.
          1   -1    0    0  501    0  0.00000000000E+00 -0.00000000000E+00 -0.10139317130E+04  0.10139317130E+04  0.00000000000E+00 0. -1.
         23    2    1    2    0    0 -0.15521765375E+02  0.36463360274E+03 -0.69659096608E+03  0.79158805148E+03  0.90410617582E+02 0.  0.
         13    1    3    3    0    0 -0.36712973058E+02  0.23674861179E+03 -0.37670834455E+03  0.44643804097E+03  0.00000000000E+00 0. -1.
        -13    1    3    3    0    0  0.21191207683E+02  0.12788499094E+03 -0.31988262153E+03  0.34515001050E+03  0.00000000000E+00 0.  1.
         22    1    1    2    0    0  0.15521765375E+02 -0.36463360274E+03 -0.14643805607E+03  0.39324635244E+03  0.00000000000E+00 0.  1.
<mgrwt>
<rscale>  0 0.83254708E+03</rscale>
<asrwt>0</asrwt>
<pdfrwt beam="1">  1        1 0.15598949E+00 0.83254708E+03</pdfrwt>
<pdfrwt beam="2">  1       -1 0.26292722E-01 0.83254708E+03</pdfrwt>
<totfact> 0.19116515E+02</totfact>
</mgrwt>
</event>
<event>
 6    1  0.9906445E-006  0.1672133E+04  0.7818608E-02  0.8777419E-01
         -2   -1    0    0    0  501 -0.00000000000E+00  0.00000000000E+00  0.35091321493E+03  0.35091321493E+03  0.00000000000E+00 0.  1.
          2   -1    0    0  501    0  0.00000000000E+00 -0.00000000000E+00 -0.19919658751E+04  0.19919658751E+04  0.00000000000E+00 0. -1.
         23    2    1    2    0    0 -0.36944456406E+03  0.74610951909E+03 -0.76512638389E+03  0.11344025525E+04  0.91005864258E+02 0.  0.
         13    1    3    3    0    0 -0.20121041918E+03  0.44128490008E+03 -0.38767269512E+03  0.62089299751E+03  0.00000000000E+00 0. -1.
        -13    1    3    3    0    0 -0.16823414488E+03  0.30482461901E+03 -0.37745368877E+03  0.51350955495E+03  0.00000000000E+00 0.  1.
         22    1    1    2    0    0  0.36944456406E+03 -0.74610951909E+03 -0.87592627629E+03  0.12084765376E+04  0.00000000000E+00 0.  1.
<mgrwt>
<rscale>  0 0.16721329E+04</rscale>
<asrwt>0</asrwt>
<pdfrwt beam="1">  1        2 0.30645629E+00 0.16721329E+04</pdfrwt>
<pdfrwt beam="2">  1       -2 0.53986648E-01 0.16721329E+04</pdfrwt>
<totfact> 0.20804345E+01</totfact>
</mgrwt>
</event>
<event>
 6    1  0.9906445E-006  0.5001822E+04  0.7818608E-02  0.7828226E-01
          1   -1    0    0  501    0  0.00000000000E+00  0.00000000000E+00  0.35553294660E+04  0.35553294660E+04  0.00000000000E+00 0. -1.
         -1   -1    0    0    0  501 -0.00000000000E+00 -0.00000000000E+00 -0.17592054715E+04  0.17592054715E+04  0.00000000000E+00 0.  1.
         23    2    1    2    0    0 -0.19114697820E+04  0.51642928912E+03 -0.72375934726E+03  0.21098152938E+04  0.84125163371E+02 0.  0.
         13    1    3    3    0    0 -0.17586850186E+04  0.45854558921E+03 -0.68155288872E+03  0.19410696515E+04  0.00000000000E+00 0. -1.
        -13    1    3    3    0    0 -0.15278476346E+03  0.57883699912E+02 -0.42206458544E+02  0.16874564232E+03  0.00000000000E+00 0.  1.
         22    1    1    2    0    0  0.19114697820E+04 -0.51642928912E+03  0.25198833417E+04  0.32047196436E+04  0.00000000000E+00 0. -1.
<mgrwt>
<rscale>  0 0.50018217E+04</rscale>
<asrwt>0</asrwt>
<pdfrwt beam="1">  1        1 0.54697377E+00 0.50018217E+04</pdfrwt>
<pdfrwt beam="2">  1       -1 0.27064700E+00 0.50018217E+04</pdfrwt>
<totfact> 0.83325096E-03</totfact>
</mgrwt>
</event>
<event>
 6    1  0.1067659E-005  0.3658241E+04  0.7818608E-02  0.8077280E-01
         -1   -1    0    0    0  501 -0.00000000000E+00  0.00000000000E+00  0.10948598115E+04  0.10948598115E+04  0.00000000000E+00 0.  1.
          1   -1    0    0  501    0  0.00000000000E+00 -0.00000000000E+00 -0.30558075753E+04  0.30558075753E+04  0.00000000000E+00 0. -1.
         23    2    1    2    0    0 -0.75482785469E+03 -0.18357620458E+03  0.89628485904E+03  0.11897142338E+04  0.92887547848E+02 0.  0.
         11    1    3    3    0    0 -0.37162984069E+03 -0.62107733188E+02  0.37687253219E+03  0.53291557918E+03  0.00000000000E+00 0. -1.
        -11    1    3    3    0    0 -0.38319801400E+03 -0.12146847139E+03  0.51941232685E+03  0.65679865466E+03  0.00000000000E+00 0.  1.
         22    1    1    2    0    0  0.75482785469E+03  0.18357620458E+03 -0.28572326228E+04  0.29609531530E+04  0.00000000000E+00 0. -1.
<mgrwt>
<rscale>  0 0.36582405E+04</rscale>
<asrwt>0</asrwt>
<pdfrwt beam="1">  1        1 0.47012425E+00 0.36582405E+04</pdfrwt>
<pdfrwt beam="2">  1       -1 0.16843997E+00 0.36582405E+04</pdfrwt>
<totfact> 0.11058320E-01</totfact>
</mgrwt>
</event>
<event>
 6    1  0.9906445E-006  0.1738868E+04  0.7818608E-02  0.8739502E-01
         -2   -1    0    0    0  501 -0.00000000000E+00  0.00000000000E+00  0.72527867012E+03  0.72527867012E+03  0.00000000000E+00 0.  1.
          2   -1    0    0  501    0  0.00000000000E+00 -0.00000000000E+00 -0.10422416520E+04  0.10422416520E+04  0.00000000000E+00 0. -1.
         23    2    1    2    0    0  0.84343098493E+03 -0.19126172980E+03 -0.22075977792E+03  0.89734106926E+03  0.92353881412E+02 0.  0.
         11    1    3    3    0    0  0.49690879010E+03 -0.14319084882E+03 -0.96285510353E+02  0.52601603053E+03  0.00000000000E+00 0. -1.
        -11    1    3    3    0    0  0.34652219482E+03 -0.48070880984E+02 -0.12447426757E+03  0.37132503873E+03  0.00000000000E+00 0.  1.
         22    1    1    2    0    0 -0.84343098493E+03  0.19126172980E+03 -0.96203203934E+02  0.87017925284E+03  0.00000000000E+00 0. -1.
<mgrwt>
<rscale>  0 0.17388682E+04</rscale>
<asrwt>0</asrwt>
<pdfrwt beam="1">  1        2 0.16034487E+00 0.17388682E+04</pdfrwt>
<pdfrwt beam="2">  1       -2 0.11158133E+00 0.17388682E+04</pdfrwt>
<totfact> 0.14254934E+01</totfact>
</mgrwt>
</event>
<event>
 6    1  0.9906445E-006  0.2138746E+04  0.7818608E-02  0.8544365E-01
         -1   -1    0    0    0  501 -0.00000000000E+00  0.00000000000E+00  0.62538972530E+03  0.62538972530E+03  0.00000000000E+00 0.  1.
          1   -1    0    0  501    0  0.00000000000E+00 -0.00000000000E+00 -0.18285532701E+04  0.18285532701E+04  0.00000000000E+00 0. -1.
         23    2    1    2    0    0 -0.83806818864E+03 -0.46777421748E+03 -0.11386885471E+04  0.14920032713E+04  0.91055736047E+02 0.  0.
         13    1    3    3    0    0 -0.43116740918E+03 -0.19156923496E+03 -0.58124796527E+03  0.74863429233E+03  0.00000000000E+00 0. -1.
        -13    1    3    3    0    0 -0.40690077946E+03 -0.27620498253E+03 -0.55744058182E+03  0.74336897901E+03  0.00000000000E+00 0.  1.
         22    1    1    2    0    0  0.83806818864E+03  0.46777421748E+03 -0.64474997692E+02  0.96193972404E+03  0.00000000000E+00 0.  1.
<mgrwt>
<rscale>  0 0.21387458E+04</rscale>
<asrwt>0</asrwt>
<pdfrwt beam="1">  1        1 0.28131588E+00 0.21387458E+04</pdfrwt>
<pdfrwt beam="2">  1       -1 0.96213807E-01 0.21387458E+04</pdfrwt>
<totfact> 0.37153055E+00</totfact>
</mgrwt>
</event>
<event>
 6    1  0.9906445E-006  0.2583451E+04  0.7818608E-02  0.8373844E-01
         -1   -1    0    0    0  501 -0.00000000000E+00  0.00000000000E+00  0.10668990001E+04  0.10668990001E+04  0.00000000000E+00 0.  1.
          1   -1    0    0  501    0  0.00000000000E+00 -0.00000000000E+00 -0.15639298891E+04  0.15639298891E+04  0.00000000000E+00 0. -1.
         23    2    1    2    0    0  0.12117759276E+04  0.43909932150E+03 -0.19100358510E+03  0.13061169116E+04  0.90828984079E+02 0.  0.
         13    1    3    3    0    0  0.51050307073E+03  0.22324781863E+03 -0.10977162580E+03  0.56789328538E+03  0.00000000000E+00 0.  1.
        -13    1    3    3    0    0  0.70127285686E+03  0.21585150287E+03 -0.81231959296E+02  0.73822362619E+03  0.00000000000E+00 0. -1.
         22    1    1    2    0    0 -0.12117759276E+04 -0.43909932150E+03 -0.30602730389E+03  0.13247119776E+04  0.00000000000E+00 0. -1.
<mgrwt>
<rscale>  0 0.25834514E+04</rscale>
<asrwt>0</asrwt>
<pdfrwt beam="1">  1        1 0.24060460E+00 0.25834514E+04</pdfrwt>
<pdfrwt beam="2">  1       -1 0.16413831E+00 0.25834514E+04</pdfrwt>
<totfact> 0.14174837E+00</totfact>
</mgrwt>
</event>
<event>
 6    1  0.9906445E-006  0.2748840E+04  0.7818608E-02  0.8319330E-01
         -2   -1    0    0    0  501 -0.00000000000E+00  0.00000000000E+00  0.15308374939E+04  0.15308374939E+04  0.00000000000E+00 0. -1.
          2   -1    0    0  501    0  0.00000000000E+00 -0.00000000000E+00 -0.12339848370E+04  0.12339848370E+04  0.00000000000E+00 0.  1.
         23    2    1    2    0    0  0.33652009103E+02  0.13711514864E+04  0.87499861028E+02  0.13773723500E+04  0.91156505312E+02 0.  0.
         13    1    3    3    0    0  0.23885842495E+01  0.76789820528E+03  0.91196153432E+02  0.77329819436E+03  0.00000000000E+00 0. -1.
        -13    1    3    3    0    0  0.31263424853E+02  0.60325328112E+03 -0.36962924039E+01  0.60407415562E+03  0.00000000000E+00 0.  1.
         22    1    1    2    0    0 -0.33652009103E+02 -0.13711514864E+04  0.20935279580E+03  0.13874499809E+04  0.00000000000E+00 0. -1.
<mgrwt>
<rscale>  0 0.27488399E+04</rscale>
<asrwt>0</asrwt>
<pdfrwt beam="1">  1        2 0.18984382E+00 0.27488399E+04</pdfrwt>
<pdfrwt beam="2">  1       -2 0.23551346E+00 0.27488399E+04</pdfrwt>
<totfact> 0.12476591E+00</totfact>
</mgrwt>
</event>
<event>
 6    1  0.9906445E-006  0.2167738E+04  0.7818608E-02  0.8531978E-01
         -2   -1    0    0    0  501 -0.00000000000E+00  0.00000000000E+00  0.10214002413E+04  0.10214002413E+04  0.00000000000E+00 0.  1.
          2   -1    0    0  501    0  0.00000000000E+00 -0.00000000000E+00 -0.11501583072E+04  0.11501583072E+04  0.00000000000E+00 0. -1.
         23    2    1    2    0    0  0.30184396842E+03 -0.10316495942E+04  0.59689434172E+02  0.10802643045E+04  0.89428589216E+02 0.  0.
         11    1    3    3    0    0  0.11559562823E+03 -0.55251717162E+03  0.24860323399E+02  0.56502708774E+03  0.00000000000E+00 0. -1.
        -11    1    3    3    0    0  0.18624834019E+03 -0.47913242259E+03  0.34829110773E+02  0.51523721678E+03  0.00000000000E+00 0.  1.
         22    1    1    2    0    0 -0.30184396842E+03  0.10316495942E+04 -0.18844750004E+03  0.10912942439E+04  0.00000000000E+00 0. -1.
<mgrwt>
<rscale>  0 0.21677380E+04</rscale>
<asrwt>0</asrwt>
<pdfrwt beam="1">  1        2 0.17694743E+00 0.21677380E+04</pdfrwt>
<pdfrwt beam="2">  1       -2 0.15713850E+00 0.21677380E+04</pdfrwt>
<totfact> 0.49213452E+00</totfact>
</mgrwt>
</event>
<event>
 6    1  0.9906445E-006  0.1507906E+04  0.7818608E-02  0.8879213E-01
          1   -1    0    0  501    0  0.00000000000E+00  0.00000000000E+00  0.82731950167E+03  0.82731950167E+03  0.00000000000E+00 0. -1.
         -1   -1    0    0    0  501 -0.00000000000E+00 -0.00000000000E+00 -0.68709258152E+03  0.68709258152E+03  0.00000000000E+00 0.  1.
         23    2    1    2    0    0  0.80214077420E+01 -0.33555899012E+03 -0.60436994417E+03  0.69765712042E+03  0.93798984132E+02 0.  0.
         13    1    3    3    0    0 -0.32031882850E+02 -0.19498687697E+03 -0.28942310122E+03  0.35044493894E+03  0.00000000000E+00 0.  1.
        -13    1    3    3    0    0  0.40053290592E+02 -0.14057211315E+03 -0.31494684296E+03  0.34721218148E+03  0.00000000000E+00 0. -1.
         22    1    1    2    0    0 -0.80214077420E+01  0.33555899012E+03  0.74459686433E+03  0.81675496276E+03  0.00000000000E+00 0. -1.
<mgrwt>
<rscale>  0 0.15079060E+04</rscale>
<asrwt>0</asrwt>
<pdfrwt beam="1">  1        1 0.12727992E+00 0.15079060E+04</pdfrwt>
<pdfrwt beam="2">  1       -1 0.10570655E+00 0.15079060E+04</pdfrwt>
<totfact> 0.16971002E+01</totfact>
</mgrwt>
</event>
<event>
 6    1  0.9906445E-006  0.8471046E+03  0.7818608E-02  0.9494231E-01
          1   -1    0    0  501    0  0.00000000000E+00  0.00000000000E+00  0.13546268802E+04  0.13546268802E+04  0.00000000000E+00 0. -1.
         -1   -1    0    0    0  501 -0.00000000000E+00 -0.00000000000E+00 -0.13243244054E+03  0.13243244054E+03  0.00000000000E+00 0.  1.
         23    2    1    2    0    0  0.13518264155E+03 -0.37323433050E+03  0.85259199883E+03  0.94467184272E+03  0.88958203155E+02 0.  0.
         13    1    3    3    0    0  0.13497399446E+03 -0.30138361415E+03  0.74936745081E+03  0.81890270386E+03  0.00000000000E+00 0.  1.
        -13    1    3    3    0    0  0.20864708533E+00 -0.71850716354E+02  0.10322454803E+03  0.12576913886E+03  0.00000000000E+00 0. -1.
         22    1    1    2    0    0 -0.13518264155E+03  0.37323433050E+03  0.36960244083E+03  0.54238747801E+03  0.00000000000E+00 0.  1.
<mgrwt>
<rscale>  0 0.84710458E+03</rscale>
<asrwt>0</asrwt>
<pdfrwt beam="1">  1        1 0.20840413E+00 0.84710458E+03</pdfrwt>
<pdfrwt beam="2">  1       -1 0.20374223E-01 0.84710458E+03</pdfrwt>
<totfact> 0.16568419E+02</totfact>
</mgrwt>
</event>
<event>
 6    1  0.9906445E-006  0.2753445E+04  0.7818608E-02  0.8317869E-01
          2   -1    0    0  501    0  0.00000000000E+00  0.00000000000E+00  0.92950479949E+03  0.92950479949E+03  0.00000000000E+00 0. -1.
         -2   -1    0    0    0  501 -0.00000000000E+00 -0.00000000000E+00 -0.20391130605E+04  0.20391130605E+04  0.00000000000E+00 0.  1.
         23    2    1    2    0    0 -0.48202255125E+03  0.12600996507E+04 -0.84285879959E+03  0.15933534692E+04  0.90373957694E+02 0.  0.
         13    1    3    3    0    0 -0.41302198253E+03  0.98602531533E+03 -0.68423143778E+03  0.12692540096E+04  0.00000000000E+00 0.  1.
        -13    1    3    3    0    0 -0.69000568722E+02  0.27407433533E+03 -0.15862736180E+03  0.32409945956E+03  0.00000000000E+00 0. -1.
         22    1    1    2    0    0  0.48202255125E+03 -0.12600996507E+04 -0.26674946145E+03  0.13752643908E+04  0.00000000000E+00 0.  1.
<mgrwt>
<rscale>  0 0.27534454E+04</rscale>
<asrwt>0</asrwt>
<pdfrwt beam="1">  1        2 0.14300074E+00 0.27534454E+04</pdfrwt>
<pdfrwt beam="2">  1       -2 0.31370970E+00 0.27534454E+04</pdfrwt>
<totfact> 0.64064933E-01</totfact>
</mgrwt>
</event>
<event>
 6    1  0.9906445E-006  0.2417040E+04  0.7818608E-02  0.8433152E-01
         -1   -1    0    0    0  501 -0.00000000000E+00  0.00000000000E+00  0.83634742147E+03  0.83634742147E+03  0.00000000000E+00 0. -1.
          1   -1    0    0  501    0  0.00000000000E+00 -0.00000000000E+00 -0.17463077634E+04  0.17463077634E+04  0.00000000000E+00 0.  1.
         23    2    1    2    0    0  0.10371243992E+04  0.61305435938E+03 -0.53062872330E+03  0.13195814959E+04  0.90916529059E+02 0.  0.
         11    1    3    3    0    0  0.74732723486E+03  0.41948367321E+03 -0.41660118023E+03  0.95290140698E+03  0.00000000000E+00 0. -1.
        -11    1    3    3    0    0  0.28979716433E+03  0.19357068617E+03 -0.11402754307E+03  0.36668008887E+03  0.00000000000E+00 0.  1.
         22    1    1    2    0    0 -0.10371243992E+04 -0.61305435938E+03 -0.37933161859E+03  0.12630736890E+04  0.00000000000E+00 0.  1.
<mgrwt>
<rscale>  0 0.24170395E+04</rscale>
<asrwt>0</asrwt>
<pdfrwt beam="1">  1        1 0.26866273E+00 0.24170395E+04</pdfrwt>
<pdfrwt beam="2">  1       -1 0.12866883E+00 0.24170395E+04</pdfrwt>
<totfact> 0.20638773E+00</totfact>
</mgrwt>
</event>
<event>
 6    1  0.9906445E-006  0.3053174E+04  0.7818608E-02  0.8228708E-01
          2   -1    0    0  501    0  0.00000000000E+00  0.00000000000E+00  0.17106101365E+04  0.17106101365E+04  0.00000000000E+00 0. -1.
         -2   -1    0    0    0  501 -0.00000000000E+00 -0.00000000000E+00 -0.13623602672E+04  0.13623602672E+04  0.00000000000E+00 0.  1.
         23    2    1    2    0    0  0.55842257250E+03 -0.86785652789E+03  0.13046416934E+04  0.16659536861E+04  0.91109897651E+02 0.  0.
         11    1    3    3    0    0  0.34494970013E+03 -0.45410659319E+03  0.73311785987E+03  0.92879755063E+03  0.00000000000E+00 0.  1.
        -11    1    3    3    0    0  0.21347287237E+03 -0.41374993470E+03  0.57152383355E+03  0.73715613544E+03  0.00000000000E+00 0. -1.
         22    1    1    2    0    0 -0.55842257250E+03  0.86785652789E+03 -0.95639182412E+03  0.14070167176E+04  0.00000000000E+00 0.  1.
<mgrwt>
<rscale>  0 0.30531736E+04</rscale>
<asrwt>0</asrwt>
<pdfrwt beam="1">  1        2 0.26317079E+00 0.30531736E+04</pdfrwt>
<pdfrwt beam="2">  1       -2 0.20959389E+00 0.30531736E+04</pdfrwt>
<totfact> 0.94997725E-01</totfact>
</mgrwt>
</event>
<event>
 6    1  0.9906445E-006  0.1249220E+04  0.7818608E-02  0.9070832E-01
          2   -1    0    0  501    0  0.00000000000E+00  0.00000000000E+00  0.26419382950E+04  0.26419382950E+04  0.00000000000E+00 0. -1.
         -2   -1    0    0    0  501 -0.00000000000E+00 -0.00000000000E+00 -0.14767110808E+03  0.14767110808E+03  0.00000000000E+00 0.  1.
         23    2    1    2    0    0  0.36224414107E+03 -0.47848453933E+03  0.89423687551E+03  0.10807310371E+04  0.90286837346E+02 0.  0.
         13    1    3    3    0    0  0.14437737858E+03 -0.12599192861E+03  0.31037056291E+03  0.36475838557E+03  0.00000000000E+00 0. -1.
        -13    1    3    3    0    0  0.21786676249E+03 -0.35249261072E+03  0.58386631260E+03  0.71597265157E+03  0.00000000000E+00 0.  1.
         22    1    1    2    0    0 -0.36224414107E+03  0.47848453933E+03  0.16000303114E+04  0.17088783659E+04  0.00000000000E+00 0. -1.
<mgrwt>
<rscale>  0 0.12492205E+04</rscale>
<asrwt>0</asrwt>
<pdfrwt beam="1">  1        2 0.40645201E+00 0.12492205E+04</pdfrwt>
<pdfrwt beam="2">  1       -2 0.22718634E-01 0.12492205E+04</pdfrwt>
<totfact> 0.48557306E+01</totfact>
</mgrwt>
</event>
<event>
 6    1  0.9906445E-006  0.2043001E+04  0.7818608E-02  0.8586776E-01
          2   -1    0    0  501    0  0.00000000000E+00  0.00000000000E+00  0.12406240763E+04  0.12406240763E+04  0.00000000000E+00 0.  1.
         -2   -1    0    0    0  501 -0.00000000000E+00 -0.00000000000E+00 -0.84107909689E+03  0.84107909689E+03  0.00000000000E+00 0. -1.
         23    2    1    2    0    0  0.40988658281E+03  0.34220596034E+03 -0.68446499515E+03  0.87332013997E+03  0.95309009153E+02 0.  0.
         11    1    3    3    0    0  0.34375053294E+03  0.29010790237E+03 -0.51280806048E+03  0.68212838294E+03  0.00000000000E+00 0. -1.
        -11    1    3    3    0    0  0.66136049878E+02  0.52098057968E+02 -0.17165693467E+03  0.19119175703E+03  0.00000000000E+00 0.  1.
         22    1    1    2    0    0 -0.40988658281E+03 -0.34220596034E+03  0.10840099746E+04  0.12083830332E+04  0.00000000000E+00 0.  1.
<mgrwt>
<rscale>  0 0.20430007E+04</rscale>
<asrwt>0</asrwt>
<pdfrwt beam="1">  1        2 0.19086524E+00 0.20430007E+04</pdfrwt>
<pdfrwt beam="2">  1       -2 0.12939678E+00 0.20430007E+04</pdfrwt>
<totfact> 0.72899319E+00</totfact>
</mgrwt>
</event>
<event>
 6    1  0.9906445E-006  0.2044378E+04  0.7818608E-02  0.8586149E-01
          2   -1    0    0  501    0  0.00000000000E+00  0.00000000000E+00  0.19120346383E+04  0.19120346383E+04  0.00000000000E+00 0. -1.
         -2   -1    0    0    0  501 -0.00000000000E+00 -0.00000000000E+00 -0.54647059878E+03  0.54647059878E+03  0.00000000000E+00 0.  1.
         23    2    1    2    0    0 -0.85222150894E+03  0.50536241796E+03  0.97625434405E+03  0.13939702622E+04  0.91694458524E+02 0.  0.
         11    1    3    3    0    0 -0.37396540163E+03  0.17615616531E+03  0.43761413549E+03  0.60198608603E+03  0.00000000000E+00 0. -1.
        -11    1    3    3    0    0 -0.47825610732E+03  0.32920625265E+03  0.53864020856E+03  0.79198417613E+03  0.00000000000E+00 0.  1.
         22    1    1    2    0    0  0.85222150894E+03 -0.50536241796E+03  0.38930969544E+03  0.10645349749E+04  0.00000000000E+00 0.  1.
<mgrwt>
<rscale>  0 0.20443784E+04</rscale>
<asrwt>0</asrwt>
<pdfrwt beam="1">  1        2 0.29415917E+00 0.20443784E+04</pdfrwt>
<pdfrwt beam="2">  1       -2 0.84072401E-01 0.20443784E+04</pdfrwt>
<totfact> 0.85508533E+00</totfact>
</mgrwt>
</event>
<event>
 6    1  0.9906445E-006  0.2308104E+04  0.7818608E-02  0.8474733E-01
          1   -1    0    0  501    0  0.00000000000E+00  0.00000000000E+00  0.81561430532E+03  0.81561430532E+03  0.00000000000E+00 0. -1.
         -1   -1    0    0    0  501 -0.00000000000E+00 -0.00000000000E+00 -0.16329239700E+04  0.16329239700E+04  0.00000000000E+00 0.  1.
         23    2    1    2    0    0 -0.53156946594E+03 -0.89455873482E+03 -0.93416945522E+03  0.14014195438E+04  0.92210300412E+02 0.  0.
         13    1    3    3    0    0 -0.27140980347E+03 -0.47059865744E+03 -0.42644362543E+03  0.69063778023E+03  0.00000000000E+00 0.  1.
        -13    1    3    3    0    0 -0.26015966247E+03 -0.42396007738E+03 -0.50772582978E+03  0.71078176356E+03  0.00000000000E+00 0. -1.
         22    1    1    2    0    0  0.53156946594E+03  0.89455873482E+03  0.11685979058E+03  0.10471187315E+04  0.00000000000E+00 0. -1.
<mgrwt>
<rscale>  0 0.23081041E+04</rscale>
<asrwt>0</asrwt>
<pdfrwt beam="1">  1        1 0.12547913E+00 0.23081041E+04</pdfrwt>
<pdfrwt beam="2">  1       -1 0.25121907E+00 0.23081041E+04</pdfrwt>
<totfact> 0.13249200E+00</totfact>
</mgrwt>
</event>
<event>
 6    1  0.9906445E-006  0.2798719E+04  0.7818608E-02  0.8303666E-01
          2   -1    0    0  501    0  0.00000000000E+00  0.00000000000E+00  0.22626012812E+04  0.22626012812E+04  0.00000000000E+00 0. -1.
         -2   -1    0    0    0  501 -0.00000000000E+00 -0.00000000000E+00 -0.86546709034E+03  0.86546709034E+03  0.00000000000E+00 0.  1.
         23    2    1    2    0    0  0.37667560508E+03 -0.34278904685E+03  0.21543550763E+04  0.22155047784E+04  0.88469127030E+02 0.  0.
         11    1    3    3    0    0  0.17679122384E+03 -0.21502813435E+03  0.12417962221E+04  0.12726154536E+04  0.00000000000E+00 0. -1.
        -11    1    3    3    0    0  0.19988438124E+03 -0.12776091250E+03  0.91255885415E+03  0.94288932484E+03  0.00000000000E+00 0.  1.
         22    1    1    2    0    0 -0.37667560508E+03  0.34278904685E+03 -0.75722088543E+03  0.91256359309E+03  0.00000000000E+00 0.  1.
<mgrwt>
<rscale>  0 0.27987190E+04</rscale>
<asrwt>0</asrwt>
<pdfrwt beam="1">  1        2 0.34809250E+00 0.27987190E+04</pdfrwt>
<pdfrwt beam="2">  1       -2 0.13314878E+00 0.27987190E+04</pdfrwt>
<totfact> 0.16928502E+00</totfact>
</mgrwt>
</event>
<event>
 6    1  0.9906445E-006  0.2910789E+04  0.7818608E-02  0.8269675E-01
          2   -1    0    0  501    0  0.00000000000E+00  0.00000000000E+00  0.38192640450E+04  0.38192640450E+04  0.00000000000E+00 0. -1.
         -2   -1    0    0    0  501 -0.00000000000E+00 -0.00000000000E+00 -0.55460227628E+03  0.55460227628E+03  0.00000000000E+00 0.  1.
         23    2    1    2    0    0 -0.72275741653E+03 -0.11761910597E+04  0.94786065789E+03  0.16769475091E+04  0.88934973587E+02 0.  0.
         13    1    3    3    0    0 -0.22118174486E+03 -0.30918484381E+03  0.29704090419E+03  0.48244163447E+03  0.00000000000E+00 0. -1.
        -13    1    3    3    0    0 -0.50157567166E+03 -0.86700621590E+03  0.65081975370E+03  0.11945058747E+04  0.00000000000E+00 0.  1.
         22    1    1    2    0    0  0.72275741653E+03  0.11761910597E+04  0.23168011108E+04  0.26969188121E+04  0.00000000000E+00 0. -1.
<mgrwt>
<rscale>  0 0.29107886E+04</rscale>
<asrwt>0</asrwt>
<pdfrwt beam="1">  1        2 0.58757907E+00 0.29107886E+04</pdfrwt>
<pdfrwt beam="2">  1       -2 0.85323429E-01 0.29107886E+04</pdfrwt>
<totfact> 0.48889928E-01</totfact>
</mgrwt>
</event>
<event>
 6    1  0.9906445E-006  0.1872444E+04  0.7818608E-02  0.8668696E-01
         -1   -1    0    0    0  501 -0.00000000000E+00  0.00000000000E+00  0.10933742531E+04  0.10933742531E+04  0.00000000000E+00 0.  1.
          1   -1    0    0  501    0  0.00000000000E+00 -0.00000000000E+00 -0.80165709353E+03  0.80165709353E+03  0.00000000000E+00 0. -1.
         23    2    1    2    0    0  0.79823916861E+02 -0.82659098276E+03  0.57857454328E+03  0.10164463086E+04  0.93755456726E+02 0.  0.
         11    1    3    3    0    0  0.52484387469E+02 -0.74269582268E+03  0.48937003627E+03  0.89097403350E+03  0.00000000000E+00 0. -1.
        -11    1    3    3    0    0  0.27339529392E+02 -0.83895160079E+02  0.89204507008E+02  0.12547227511E+03  0.00000000000E+00 0.  1.
         22    1    1    2    0    0 -0.79823916861E+02  0.82659098276E+03 -0.28685738369E+03  0.87858503804E+03  0.00000000000E+00 0. -1.
<mgrwt>
<rscale>  0 0.18724436E+04</rscale>
<asrwt>0</asrwt>
<pdfrwt beam="1">  1        1 0.12333186E+00 0.18724436E+04</pdfrwt>
<pdfrwt beam="2">  1       -1 0.16821142E+00 0.18724436E+04</pdfrwt>
<totfact> 0.52418595E+00</totfact>
</mgrwt>
</event>
<event>
 6    1  0.9906445E-006  0.6247756E+03  0.7818608E-02  0.9855297E-01
          2   -1    0    0  501    0  0.00000000000E+00  0.00000000000E+00  0.45726632718E+03  0.45726632718E+03  0.00000000000E+00 0. -1.
         -2   -1    0    0    0  501 -0.00000000000E+00 -0.00000000000E+00 -0.21341203255E+03  0.21341203255E+03  0.00000000000E+00 0.  1.
         23    2    1    2    0    0  0.43560642268E+01  0.29957926866E+03  0.60215538902E+02  0.31926705354E+03  0.92405772777E+02 0.  0.
         13    1    3    3    0    0 -0.24669158449E+02  0.24094758072E+03  0.72235131812E+02  0.25274931909E+03  0.00000000000E+00 0. -1.
        -13    1    3    3    0    0  0.29025222675E+02  0.58631687943E+02 -0.12019592910E+02  0.66517734448E+02  0.00000000000E+00 0.  1.
         22    1    1    2    0    0 -0.43560642268E+01 -0.29957926866E+03  0.18363875573E+03  0.35141130618E+03  0.00000000000E+00 0. -1.
<mgrwt>
<rscale>  0 0.62477560E+03</rscale>
<asrwt>0</asrwt>
<pdfrwt beam="1">  1        2 0.70348666E-01 0.62477560E+03</pdfrwt>
<pdfrwt beam="2">  1       -2 0.32832620E-01 0.62477560E+03</pdfrwt>
<totfact> 0.59467435E+02</totfact>
</mgrwt>
</event>
<event>
 6    1  0.9906445E-006  0.1931799E+04  0.7818608E-02  0.8639188E-01
         -1   -1    0    0    0  501 -0.00000000000E+00  0.00000000000E+00  0.15551224483E+04  0.15551224483E+04  0.00000000000E+00 0.  1.
          1   -1    0    0  501    0  0.00000000000E+00 -0.00000000000E+00 -0.59992810621E+03  0.59992810621E+03  0.00000000000E+00 0. -1.
         23    2    1    2    0    0  0.50031632590E+03 -0.25200378881E+03  0.13533271037E+04  0.14677863903E+04  0.95290621095E+02 0.  0.
         13    1    3    3    0    0  0.39572797473E+03 -0.23332007491E+03  0.11503139278E+04  0.12386529053E+04  0.00000000000E+00 0. -1.
        -13    1    3    3    0    0  0.10458835116E+03 -0.18683713901E+02  0.20301317590E+03  0.22913348501E+03  0.00000000000E+00 0.  1.
         22    1    1    2    0    0 -0.50031632590E+03  0.25200378881E+03 -0.39813276160E+03  0.68726416420E+03  0.00000000000E+00 0. -1.
<mgrwt>
<rscale>  0 0.19317988E+04</rscale>
<asrwt>0</asrwt>
<pdfrwt beam="1">  1        1 0.92296632E-01 0.19317988E+04</pdfrwt>
<pdfrwt beam="2">  1       -1 0.23924961E+00 0.19317988E+04</pdfrwt>
<totfact> 0.26207506E+00</totfact>
</mgrwt>
</event>
<event>
 6    1  0.9906445E-006  0.3001542E+03  0.7818608E-02  0.1085164E+00
          2   -1    0    0  501    0  0.00000000000E+00  0.00000000000E+00  0.14184721828E+03  0.14184721828E+03  0.00000000000E+00 0. -1.
         -2   -1    0    0    0  501 -0.00000000000E+00 -0.00000000000E+00 -0.15878445040E+03  0.15878445040E+03  0.00000000000E+00 0.  1.
         23    2    1    2    0    0  0.21461853815E+02  0.12738053332E+03 -0.53764370099E+02  0.16630873866E+03  0.89897595214E+02 0.  0.
         11    1    3    3    0    0 -0.48560248376E+01 -0.99660929349E+01 -0.19334566862E+02  0.22287428325E+02  0.00000000000E+00 0. -1.
        -11    1    3    3    0    0  0.26317878653E+02  0.13734662625E+03 -0.34429803237E+02  0.14402131034E+03  0.00000000000E+00 0.  1.
         22    1    1    2    0    0 -0.21461853815E+02 -0.12738053332E+03  0.36827137977E+02  0.13432293002E+03  0.00000000000E+00 0. -1.
<mgrwt>
<rscale>  0 0.30015418E+03</rscale>
<asrwt>0</asrwt>
<pdfrwt beam="1">  1        2 0.21822649E-01 0.30015418E+03</pdfrwt>
<pdfrwt beam="2">  1       -2 0.24428377E-01 0.30015418E+03</pdfrwt>
<totfact> 0.37132035E+03</totfact>
</mgrwt>
</event>
<event>
 6    1  0.9906445E-006  0.2289043E+04  0.7818608E-02  0.8482254E-01
         -2   -1    0    0    0  501 -0.00000000000E+00  0.00000000000E+00  0.54340483929E+03  0.54340483929E+03  0.00000000000E+00 0.  1.
          2   -1    0    0  501    0  0.00000000000E+00 -0.00000000000E+00 -0.24105953384E+04  0.24105953384E+04  0.00000000000E+00 0. -1.
         23    2    1    2    0    0 -0.85038164939E+03  0.53104951209E+03 -0.22753616651E+03  0.10321185829E+04  0.91288160372E+02 0.  0.
         13    1    3    3    0    0 -0.72398411024E+03  0.42441445679E+03 -0.16476575470E+03  0.85523586042E+03  0.00000000000E+00 0.  1.
        -13    1    3    3    0    0 -0.12639753915E+03  0.10663505530E+03 -0.62770411812E+02  0.17688272250E+03  0.00000000000E+00 0. -1.
         22    1    1    2    0    0  0.85038164939E+03 -0.53104951209E+03 -0.16396543326E+04  0.19218815948E+04  0.00000000000E+00 0. -1.
<mgrwt>
<rscale>  0 0.22890427E+04</rscale>
<asrwt>0</asrwt>
<pdfrwt beam="1">  1        2 0.37086082E+00 0.22890427E+04</pdfrwt>
<pdfrwt beam="2">  1       -2 0.83600744E-01 0.22890427E+04</pdfrwt>
<totfact> 0.44508613E+00</totfact>
</mgrwt>
</event>
<event>
 6    1  0.9999677E-006  0.2316469E+04  0.7818608E-02  0.8471456E-01
         -1   -1    0    0    0  501 -0.00000000000E+00  0.00000000000E+00  0.62001934293E+03  0.62001934293E+03  0.00000000000E+00 0.  1.
          1   -1    0    0  501    0  0.00000000000E+00 -0.00000000000E+00 -0.21636541237E+04  0.21636541237E+04  0.00000000000E+00 0. -1.
         23    2    1    2    0    0 -0.49876212198E+03  0.35800657941E+03 -0.19507702281E+04  0.20469973928E+04  0.88099251206E+02 0.  0.
         13    1    3    3    0    0 -0.12964049014E+03  0.11564273040E+03 -0.67373395000E+03  0.69577103502E+03  0.00000000000E+00 0.  1.
        -13    1    3    3    0    0 -0.36912163183E+03  0.24236384901E+03 -0.12770362781E+04  0.13512263578E+04  0.00000000000E+00 0. -1.
         22    1    1    2    0    0  0.49876212198E+03 -0.35800657941E+03  0.40713544735E+03  0.73667607380E+03  0.00000000000E+00 0.  1.
<mgrwt>
<rscale>  0 0.23164692E+04</rscale>
<asrwt>0</asrwt>
<pdfrwt beam="1">  1        1 0.33286986E+00 0.23164692E+04</pdfrwt>
<pdfrwt beam="2">  1       -1 0.95387592E-01 0.23164692E+04</pdfrwt>
<totfact> 0.22083260E+00</totfact>
</mgrwt>
</event>
<event>
 6    1  0.9906445E-006  0.5217565E+04  0.7818608E-02  0.7795795E-01
         -2   -1    0    0    0  501 -0.00000000000E+00  0.00000000000E+00  0.19165789444E+04  0.19165789444E+04  0.00000000000E+00 0.  1.
          2   -1    0    0  501    0  0.00000000000E+00 -0.00000000000E+00 -0.35509863557E+04  0.35509863557E+04  0.00000000000E+00 0. -1.
         23    2    1    2    0    0  0.18442817878E+04 -0.15612187657E+04  0.21110729705E+03  0.24270548354E+04  0.85144208516E+02 0.  0.
         11    1    3    3    0    0  0.13102566985E+04 -0.10982000200E+04  0.18727483291E+03  0.17198510874E+04  0.00000000000E+00 0.  1.
        -11    1    3    3    0    0  0.53402508930E+03 -0.46301874567E+03  0.23832464137E+02  0.70720374801E+03  0.00000000000E+00 0. -1.
         22    1    1    2    0    0 -0.18442817878E+04  0.15612187657E+04 -0.18455147083E+04  0.30405104646E+04  0.00000000000E+00 0.  1.
<mgrwt>
<rscale>  0 0.52175648E+04</rscale>
<asrwt>0</asrwt>
<pdfrwt beam="1">  1        2 0.54630560E+00 0.52175648E+04</pdfrwt>
<pdfrwt beam="2">  1       -2 0.29485830E+00 0.52175648E+04</pdfrwt>
<totfact> 0.18258827E-02</totfact>
</mgrwt>
</event>
<event>
 6    1  0.9906445E-006  0.4992198E+04  0.7818608E-02  0.7829712E-01
         -1   -1    0    0    0  501 -0.00000000000E+00  0.00000000000E+00  0.14444832298E+04  0.14444832298E+04  0.00000000000E+00 0.  1.
          1   -1    0    0  501    0  0.00000000000E+00 -0.00000000000E+00 -0.43133145327E+04  0.43133145327E+04  0.00000000000E+00 0. -1.
         23    2    1    2    0    0 -0.82065481749E+02 -0.13534546087E+04  0.97994234090E+03  0.16771565529E+04  0.11829197068E+03 0.  0.
         13    1    3    3    0    0 -0.14165217139E+02 -0.68479845372E+02  0.83505439885E+02  0.10891878208E+03  0.00000000000E+00 0.  1.
        -13    1    3    3    0    0 -0.67900264609E+02 -0.12849747633E+04  0.89643690101E+03  0.15682377708E+04  0.00000000000E+00 0. -1.
         22    1    1    2    0    0  0.82065481749E+02  0.13534546087E+04 -0.38487736438E+04  0.40806412097E+04  0.00000000000E+00 0. -1.
<mgrwt>
<rscale>  0 0.49921981E+04</rscale>
<asrwt>0</asrwt>
<pdfrwt beam="1">  1        1 0.66358684E+00 0.49921981E+04</pdfrwt>
<pdfrwt beam="2">  1       -1 0.22222819E+00 0.49921981E+04</pdfrwt>
<totfact> 0.37728419E-03</totfact>
</mgrwt>
</event>
<event>
 6    1  0.9906445E-006  0.9787207E+03  0.7818608E-02  0.9332196E-01
         -3   -1    0    0    0  501 -0.00000000000E+00  0.00000000000E+00  0.45320521030E+03  0.45320521030E+03  0.00000000000E+00 0.  1.
          3   -1    0    0  501    0  0.00000000000E+00 -0.00000000000E+00 -0.52839981011E+03  0.52839981011E+03  0.00000000000E+00 0. -1.
         23    2    1    2    0    0  0.13013882165E+03 -0.30596245371E+03  0.31570063079E+03  0.46843037442E+03  0.95973910069E+02 0.  0.
         13    1    3    3    0    0  0.31778571681E+02 -0.16587027614E+03  0.11339182557E+03  0.20342205443E+03  0.00000000000E+00 0.  1.
        -13    1    3    3    0    0  0.98360249966E+02 -0.14009217758E+03  0.20230880522E+03  0.26500831999E+03  0.00000000000E+00 0. -1.
         22    1    1    2    0    0 -0.13013882165E+03  0.30596245371E+03 -0.39089523060E+03  0.51317464599E+03  0.00000000000E+00 0. -1.
<mgrwt>
<rscale>  0 0.97872069E+03</rscale>
<asrwt>0</asrwt>
<pdfrwt beam="1">  1        3 0.81292279E-01 0.97872069E+03</pdfrwt>
<pdfrwt beam="2">  1       -3 0.69723878E-01 0.97872069E+03</pdfrwt>
<totfact> 0.72375818E+00</totfact>
</mgrwt>
</event>
<event>
 6    1  0.9906445E-006  0.3739412E+04  0.7818608E-02  0.8059283E-01
          2   -1    0    0  501    0  0.00000000000E+00  0.00000000000E+00  0.34188661091E+04  0.34188661091E+04  0.00000000000E+00 0. -1.
         -2   -1    0    0    0  501 -0.00000000000E+00 -0.00000000000E+00 -0.10225026356E+04  0.10225026356E+04  0.00000000000E+00 0.  1.
         23    2    1    2    0    0 -0.89572427701E+03 -0.91421582666E+03 -0.41805699844E+03  0.13495933404E+04  0.92292861365E+02 0.  0.
         13    1    3    3    0    0 -0.28984785598E+03 -0.23837501420E+03 -0.13495852344E+03  0.39880851302E+03  0.00000000000E+00 0. -1.
        -13    1    3    3    0    0 -0.60587642103E+03 -0.67584081245E+03 -0.28309847500E+03  0.95078482733E+03  0.00000000000E+00 0.  1.
         22    1    1    2    0    0  0.89572427701E+03  0.91421582666E+03  0.28144204719E+04  0.30917754043E+04  0.00000000000E+00 0. -1.
<mgrwt>
<rscale>  0 0.37394115E+04</rscale>
<asrwt>0</asrwt>
<pdfrwt beam="1">  1        2 0.52597940E+00 0.37394115E+04</pdfrwt>
<pdfrwt beam="2">  1       -2 0.15730810E+00 0.37394115E+04</pdfrwt>
<totfact> 0.19640210E-01</totfact>
</mgrwt>
</event>
<event>
 6    1  0.9906445E-006  0.3359310E+04  0.7818608E-02  0.8147966E-01
          2   -1    0    0  501    0  0.00000000000E+00  0.00000000000E+00  0.14827840294E+04  0.14827840294E+04  0.00000000000E+00 0. -1.
         -2   -1    0    0    0  501 -0.00000000000E+00 -0.00000000000E+00 -0.19026649480E+04  0.19026649480E+04  0.00000000000E+00 0.  1.
         23    2    1    2    0    0 -0.20612947726E+03 -0.10009665548E+04 -0.15518510675E+04  0.18603982165E+04  0.91740847886E+02 0.  0.
         13    1    3    3    0    0 -0.16746966270E+03 -0.70522174789E+03 -0.10330759146E+04  0.12619943134E+04  0.00000000000E+00 0.  1.
        -13    1    3    3    0    0 -0.38659814564E+02 -0.29574480693E+03 -0.51877515288E+03  0.59840390317E+03  0.00000000000E+00 0. -1.
         22    1    1    2    0    0  0.20612947726E+03  0.10009665548E+04  0.11319701489E+04  0.15250507609E+04  0.00000000000E+00 0. -1.
<mgrwt>
<rscale>  0 0.33593102E+04</rscale>
<asrwt>0</asrwt>
<pdfrwt beam="1">  1        2 0.22812062E+00 0.33593102E+04</pdfrwt>
<pdfrwt beam="2">  1       -2 0.29271768E+00 0.33593102E+04</pdfrwt>
<totfact> 0.37996885E-01</totfact>
</mgrwt>
</event>
<event>
 6    1  0.9906445E-006  0.2429981E+04  0.7818608E-02  0.8428364E-01
         -1   -1    0    0    0  501 -0.00000000000E+00  0.00000000000E+00  0.10139932333E+04  0.10139932333E+04  0.00000000000E+00 0.  1.
          1   -1    0    0  501    0  0.00000000000E+00 -0.00000000000E+00 -0.14558306868E+04  0.14558306868E+04  0.00000000000E+00 0. -1.
         23    2    1    2    0    0 -0.10649808210E+04  0.37688558646E+03 -0.67108697830E+03  0.13170957478E+04  0.90313798191E+02 0.  0.
         13    1    3    3    0    0 -0.23048349247E+03  0.51473220531E+02 -0.16755396944E+03  0.28956254145E+03  0.00000000000E+00 0. -1.
        -13    1    3    3    0    0 -0.83449732851E+03  0.32541236593E+03 -0.50353300885E+03  0.10275332064E+04  0.00000000000E+00 0.  1.
         22    1    1    2    0    0  0.10649808210E+04 -0.37688558646E+03  0.22924952481E+03  0.11527281722E+04  0.00000000000E+00 0.  1.
<mgrwt>
<rscale>  0 0.24299815E+04</rscale>
<asrwt>0</asrwt>
<pdfrwt beam="1">  1        1 0.22397395E+00 0.24299815E+04</pdfrwt>
<pdfrwt beam="2">  1       -1 0.15599896E+00 0.24299815E+04</pdfrwt>
<totfact> 0.19677209E+00</totfact>
</mgrwt>
</event>
<event>
 6    1  0.9906445E-006  0.1752753E+04  0.7818608E-02  0.8731837E-01
          1   -1    0    0  501    0  0.00000000000E+00  0.00000000000E+00  0.27142806804E+04  0.27142806804E+04  0.00000000000E+00 0. -1.
         -1   -1    0    0    0  501 -0.00000000000E+00 -0.00000000000E+00 -0.28296096769E+03  0.28296096769E+03  0.00000000000E+00 0.  1.
         23    2    1    2    0    0  0.47066261537E+02 -0.66571961442E+03  0.21839751081E+04  0.22854992850E+04  0.91443267104E+02 0.  0.
         13    1    3    3    0    0  0.16841457532E+02 -0.43553048907E+03  0.15595543166E+04  0.16193147032E+04  0.00000000000E+00 0.  1.
        -13    1    3    3    0    0  0.30224804004E+02 -0.23018912535E+03  0.62442079148E+03  0.66618458181E+03  0.00000000000E+00 0. -1.
         22    1    1    2    0    0 -0.47066261537E+02  0.66571961442E+03  0.24734460468E+03  0.71174236313E+03  0.00000000000E+00 0.  1.
<mgrwt>
<rscale>  0 0.17527527E+04</rscale>
<asrwt>0</asrwt>
<pdfrwt beam="1">  1        1 0.41758163E+00 0.17527527E+04</pdfrwt>
<pdfrwt beam="2">  1       -1 0.43532458E-01 0.17527527E+04</pdfrwt>
<totfact> 0.47425640E+00</totfact>
</mgrwt>
</event>
<event>
 6    1  0.9906445E-006  0.2804283E+04  0.7818608E-02  0.8301940E-01
          2   -1    0    0  501    0  0.00000000000E+00  0.00000000000E+00  0.26545234801E+04  0.26545234801E+04  0.00000000000E+00 0. -1.
         -2   -1    0    0    0  501 -0.00000000000E+00 -0.00000000000E+00 -0.74062285025E+03  0.74062285025E+03  0.00000000000E+00 0.  1.
         23    2    1    2    0    0  0.94693659722E+03  0.27561688498E+03 -0.24584461915E+03  0.10208773635E+04  0.95380438616E+02 0.  0.
         11    1    3    3    0    0  0.73033790207E+03  0.18093132039E+03 -0.21467046225E+03  0.78244041388E+03  0.00000000000E+00 0. -1.
        -11    1    3    3    0    0  0.21659869515E+03  0.94685564589E+02 -0.31174156902E+02  0.23843694961E+03  0.00000000000E+00 0.  1.
         22    1    1    2    0    0 -0.94693659722E+03 -0.27561688498E+03  0.21597452490E+04  0.23742689669E+04  0.00000000000E+00 0. -1.
<mgrwt>
<rscale>  0 0.28042830E+04</rscale>
<asrwt>0</asrwt>
<pdfrwt beam="1">  1        2 0.40838822E+00 0.28042830E+04</pdfrwt>
<pdfrwt beam="2">  1       -2 0.11394198E+00 0.28042830E+04</pdfrwt>
<totfact> 0.14820817E+00</totfact>
</mgrwt>
</event>
<event>
 6    1  0.9906445E-006  0.1603137E+04  0.7818608E-02  0.8818623E-01
         -1   -1    0    0    0  501 -0.00000000000E+00  0.00000000000E+00  0.14195406766E+04  0.14195406766E+04  0.00000000000E+00 0.  1.
          1   -1    0    0  501    0  0.00000000000E+00 -0.00000000000E+00 -0.45261942157E+03  0.45261942157E+03  0.00000000000E+00 0. -1.
         23    2    1    2    0    0 -0.61930301381E+03  0.11434075805E+03 -0.89300554120E+02  0.64243877121E+03  0.90238317406E+02 0.  0.
         11    1    3    3    0    0 -0.45230061552E+03  0.11010637475E+03 -0.35190079740E+02  0.46683787579E+03  0.00000000000E+00 0. -1.
        -11    1    3    3    0    0 -0.16700239828E+03  0.42343833060E+01 -0.54110474380E+02  0.17560089542E+03  0.00000000000E+00 0.  1.
         22    1    1    2    0    0  0.61930301381E+03 -0.11434075805E+03  0.10562218092E+04  0.12297213270E+04  0.00000000000E+00 0.  1.
<mgrwt>
<rscale>  0 0.16031365E+04</rscale>
<asrwt>0</asrwt>
<pdfrwt beam="1">  1        1 0.69633758E-01 0.16031365E+04</pdfrwt>
<pdfrwt beam="2">  1       -1 0.21839087E+00 0.16031365E+04</pdfrwt>
<totfact> 0.54976759E+00</totfact>
</mgrwt>
</event>
<event>
 6    1  0.9906445E-006  0.5900074E+04  0.7818608E-02  0.7702916E-01
         -2   -1    0    0    0  501 -0.00000000000E+00  0.00000000000E+00  0.49685478052E+04  0.49685478052E+04  0.00000000000E+00 0.  1.
          2   -1    0    0  501    0  0.00000000000E+00 -0.00000000000E+00 -0.17515619973E+04  0.17515619973E+04  0.00000000000E+00 0. -1.
         23    2    1    2    0    0 -0.29170809197E+04 -0.36582559423E+03  0.18772542781E+04  0.34893095875E+04  0.89489193433E+02 0.  0.
         13    1    3    3    0    0 -0.17028201000E+04 -0.17555336036E+03  0.11199002715E+04  0.20456275060E+04  0.00000000000E+00 0. -1.
        -13    1    3    3    0    0 -0.12142608197E+04 -0.19027223387E+03  0.75735400656E+03  0.14436820815E+04  0.00000000000E+00 0.  1.
         22    1    1    2    0    0  0.29170809197E+04  0.36582559423E+03  0.13397315298E+04  0.32308002150E+04  0.00000000000E+00 0. -1.
<mgrwt>
<rscale>  0 0.59000744E+04</rscale>
<asrwt>0</asrwt>
<pdfrwt beam="1">  1        2 0.26947108E+00 0.59000744E+04</pdfrwt>
<pdfrwt beam="2">  1       -2 0.76439197E+00 0.59000744E+04</pdfrwt>
<totfact> 0.77142384E-04</totfact>
</mgrwt>
</event>
<event>
 6    1  0.9906445E-006  0.1273205E+04  0.7818608E-02  0.9051088E-01
         -2   -1    0    0    0  501 -0.00000000000E+00  0.00000000000E+00  0.24991267696E+03  0.24991267696E+03  0.00000000000E+00 0. -1.
          2   -1    0    0  501    0  0.00000000000E+00 -0.00000000000E+00 -0.16216173598E+04  0.16216173598E+04  0.00000000000E+00 0.  1.
         23    2    1    2    0    0  0.39454974949E+03 -0.45202894821E+03 -0.39138634859E+03  0.72217208063E+03  0.91375956027E+02 0.  0.
         11    1    3    3    0    0  0.26400335920E+03 -0.26149123949E+03 -0.28275026308E+03  0.46692949496E+03  0.00000000000E+00 0. -1.
        -11    1    3    3    0    0  0.13054639029E+03 -0.19053770872E+03 -0.10863608552E+03  0.25524258567E+03  0.00000000000E+00 0.  1.
         22    1    1    2    0    0 -0.39454974949E+03  0.45202894821E+03 -0.98031833421E+03  0.11493579561E+04  0.00000000000E+00 0.  1.
<mgrwt>
<rscale>  0 0.12732050E+04</rscale>
<asrwt>0</asrwt>
<pdfrwt beam="1">  1        2 0.24947960E+00 0.12732050E+04</pdfrwt>
<pdfrwt beam="2">  1       -2 0.38448104E-01 0.12732050E+04</pdfrwt>
<totfact> 0.68027701E+01</totfact>
</mgrwt>
</event>
<event>
 6    1  0.9906445E-006  0.1236897E+04  0.7818608E-02  0.9081160E-01
         -2   -1    0    0    0  501 -0.00000000000E+00  0.00000000000E+00  0.27355970673E+03  0.27355970673E+03  0.00000000000E+00 0.  1.
          2   -1    0    0  501    0  0.00000000000E+00 -0.00000000000E+00 -0.13981532692E+04  0.13981532692E+04  0.00000000000E+00 0. -1.
         23    2    1    2    0    0 -0.56795756521E+03  0.23586592367E+03 -0.57462745256E+03  0.84668494497E+03  0.92033455645E+02 0.  0.
         11    1    3    3    0    0 -0.10049644409E+03  0.17353755319E+02 -0.13224593981E+03  0.16700202601E+03  0.00000000000E+00 0. -1.
        -11    1    3    3    0    0 -0.46746112113E+03  0.21851216836E+03 -0.44238151276E+03  0.67968291895E+03  0.00000000000E+00 0.  1.
         22    1    1    2    0    0  0.56795756521E+03 -0.23586592367E+03 -0.54996610991E+03  0.82502803097E+03  0.00000000000E+00 0.  1.
<mgrwt>
<rscale>  0 0.12368968E+04</rscale>
<asrwt>0</asrwt>
<pdfrwt beam="1">  1        2 0.21510051E+00 0.12368968E+04</pdfrwt>
<pdfrwt beam="2">  1       -2 0.42086108E-01 0.12368968E+04</pdfrwt>
<totfact> 0.76365158E+01</totfact>
</mgrwt>
</event>
<event>
 6    1  0.9906445E-006  0.4301303E+04  0.7818608E-02  0.7946377E-01
          2   -1    0    0  501    0  0.00000000000E+00  0.00000000000E+00  0.27533626575E+04  0.27533626575E+04  0.00000000000E+00 0. -1.
         -2   -1    0    0    0  501 -0.00000000000E+00 -0.00000000000E+00 -0.16798740977E+04  0.16798740977E+04  0.00000000000E+00 0.  1.
         23    2    1    2    0    0  0.21280717149E+03  0.84043635400E+03  0.25644469828E+04  0.27085404989E+04  0.90460760503E+02 0.  0.
         13    1    3    3    0    0  0.18473788526E+03  0.56526344197E+03  0.17126636871E+04  0.18129720765E+04  0.00000000000E+00 0.  1.
        -13    1    3    3    0    0  0.28069286236E+02  0.27517291203E+03  0.85178329576E+03  0.89556842245E+03  0.00000000000E+00 0. -1.
         22    1    1    2    0    0 -0.21280717149E+03 -0.84043635400E+03 -0.14909584230E+04  0.17246962563E+04  0.00000000000E+00 0.  1.
<mgrwt>
<rscale>  0 0.43013033E+04</rscale>
<asrwt>0</asrwt>
<pdfrwt beam="1">  1        2 0.42359426E+00 0.43013033E+04</pdfrwt>
<pdfrwt beam="2">  1       -2 0.25844217E+00 0.43013033E+04</pdfrwt>
<totfact> 0.10831915E-01</totfact>
</mgrwt>
</event>
<event>
 6    1  0.9906445E-006  0.3546921E+04  0.7818608E-02  0.8102759E-01
         -2   -1    0    0    0  501 -0.00000000000E+00  0.00000000000E+00  0.96722365384E+03  0.96722365384E+03  0.00000000000E+00 0.  1.
          2   -1    0    0  501    0  0.00000000000E+00 -0.00000000000E+00 -0.32517430154E+04  0.32517430154E+04  0.00000000000E+00 0. -1.
         23    2    1    2    0    0  0.10467024192E+04 -0.11184187159E+04 -0.82525786586E+02  0.15365755563E+04  0.88360378517E+02 0.  0.
         11    1    3    3    0    0  0.35219712658E+03 -0.43700413007E+03 -0.20588870378E+02  0.56163985547E+03  0.00000000000E+00 0.  1.
        -11    1    3    3    0    0  0.69450529265E+03 -0.68141458579E+03 -0.61936916208E+02  0.97493570087E+03  0.00000000000E+00 0. -1.
         22    1    1    2    0    0 -0.10467024192E+04  0.11184187159E+04 -0.22019935750E+04  0.26823911129E+04  0.00000000000E+00 0. -1.
<mgrwt>
<rscale>  0 0.35469213E+04</rscale>
<asrwt>0</asrwt>
<pdfrwt beam="1">  1        2 0.50026815E+00 0.35469213E+04</pdfrwt>
<pdfrwt beam="2">  1       -2 0.14880364E+00 0.35469213E+04</pdfrwt>
<totfact> 0.30006949E-01</totfact>
</mgrwt>
</event>
<event>
 6    1  0.9906445E-006  0.2657530E+04  0.7818608E-02  0.8348918E-01
          2   -1    0    0  501    0  0.00000000000E+00  0.00000000000E+00  0.20674146163E+04  0.20674146163E+04  0.00000000000E+00 0.  1.
         -2   -1    0    0    0  501 -0.00000000000E+00 -0.00000000000E+00 -0.85402145874E+03  0.85402145874E+03  0.00000000000E+00 0. -1.
         23    2    1    2    0    0 -0.67177131770E+03 -0.11442156260E+04  0.57481516932E+03  0.14489253113E+04  0.92010743338E+02 0.  0.
         11    1    3    3    0    0 -0.12435888906E+03 -0.16846968498E+03  0.11878933691E+03  0.24074483299E+03  0.00000000000E+00 0. -1.
        -11    1    3    3    0    0 -0.54741242864E+03 -0.97574594102E+03  0.45602583240E+03  0.12081804784E+04  0.00000000000E+00 0.  1.
         22    1    1    2    0    0  0.67177131770E+03  0.11442156260E+04  0.63857798821E+03  0.14725107637E+04  0.00000000000E+00 0.  1.
<mgrwt>
<rscale>  0 0.26575300E+04</rscale>
<asrwt>0</asrwt>
<pdfrwt beam="1">  1        2 0.31806378E+00 0.26575300E+04</pdfrwt>
<pdfrwt beam="2">  1       -2 0.13138792E+00 0.26575300E+04</pdfrwt>
<totfact> 0.22805037E+00</totfact>
</mgrwt>
</event>
<event>
 6    1  0.9906445E-006  0.2826997E+04  0.7818608E-02  0.8294935E-01
         -1   -1    0    0    0  501 -0.00000000000E+00  0.00000000000E+00  0.18673334889E+04  0.18673334889E+04  0.00000000000E+00 0.  1.
          1   -1    0    0  501    0  0.00000000000E+00 -0.00000000000E+00 -0.10699633833E+04  0.10699633833E+04  0.00000000000E+00 0. -1.
         23    2    1    2    0    0 -0.46683765682E+03 -0.64552931461E+03 -0.81174755034E+03  0.11417732370E+04  0.10033217534E+03 0.  0.
         11    1    3    3    0    0 -0.37627115056E+03 -0.49918545725E+03 -0.68942026629E+03  0.93062688712E+03  0.00000000000E+00 0. -1.
        -11    1    3    3    0    0 -0.90566506261E+02 -0.14634385736E+03 -0.12232728406E+03  0.21114634988E+03  0.00000000000E+00 0.  1.
         22    1    1    2    0    0  0.46683765682E+03  0.64552931461E+03  0.16091176559E+04  0.17955236352E+04  0.00000000000E+00 0.  1.
<mgrwt>
<rscale>  0 0.28269973E+04</rscale>
<asrwt>0</asrwt>
<pdfrwt beam="1">  1        1 0.16460975E+00 0.28269973E+04</pdfrwt>
<pdfrwt beam="2">  1       -1 0.28728207E+00 0.28269973E+04</pdfrwt>
<totfact> 0.46074222E-01</totfact>
</mgrwt>
</event>
<event>
 6    1  0.9906445E-006  0.1947581E+04  0.7818608E-02  0.8631528E-01
          2   -1    0    0  501    0  0.00000000000E+00  0.00000000000E+00  0.26132681137E+04  0.26132681137E+04  0.00000000000E+00 0. -1.
         -2   -1    0    0    0  501 -0.00000000000E+00 -0.00000000000E+00 -0.36286656648E+03  0.36286656648E+03  0.00000000000E+00 0.  1.
         23    2    1    2    0    0  0.10959175323E+03 -0.71159336032E+03  0.21247910028E+04  0.22452766422E+04  0.90304658984E+02 0.  0.
         13    1    3    3    0    0  0.11606861208E+02 -0.24151752521E+03  0.82132542820E+03  0.85617807331E+03  0.00000000000E+00 0.  1.
        -13    1    3    3    0    0  0.97984892021E+02 -0.47007583511E+03  0.13034655746E+04  0.13890985689E+04  0.00000000000E+00 0. -1.
         22    1    1    2    0    0 -0.10959175323E+03  0.71159336032E+03  0.12561054438E+03  0.73085803799E+03  0.00000000000E+00 0.  1.
<mgrwt>
<rscale>  0 0.19475807E+04</rscale>
<asrwt>0</asrwt>
<pdfrwt beam="1">  1        2 0.40204124E+00 0.19475807E+04</pdfrwt>
<pdfrwt beam="2">  1       -2 0.55825627E-01 0.19475807E+04</pdfrwt>
<totfact> 0.84137554E+00</totfact>
</mgrwt>
</event>
<event>
 6    1  0.9906445E-006  0.7284083E+03  0.7818608E-02  0.9669847E-01
         -1   -1    0    0    0  501 -0.00000000000E+00  0.00000000000E+00  0.15848285318E+03  0.15848285318E+03  0.00000000000E+00 0.  1.
          1   -1    0    0  501    0  0.00000000000E+00 -0.00000000000E+00 -0.83696542912E+03  0.83696542912E+03  0.00000000000E+00 0. -1.
         23    2    1    2    0    0 -0.31622694943E+03  0.41428740537E+02 -0.12087407176E+03  0.35307528473E+03  0.91300555145E+02 0.  0.
         13    1    3    3    0    0 -0.12306649451E+03 -0.33535395353E+01 -0.89772982682E+02  0.15236730856E+03  0.00000000000E+00 0. -1.
        -13    1    3    3    0    0 -0.19316045492E+03  0.44782280073E+02 -0.31101089079E+02  0.20070797616E+03  0.00000000000E+00 0.  1.
         22    1    1    2    0    0  0.31622694943E+03 -0.41428740537E+02 -0.55760850418E+03  0.64237299758E+03  0.00000000000E+00 0. -1.
<mgrwt>
<rscale>  0 0.72840832E+03</rscale>
<asrwt>0</asrwt>
<pdfrwt beam="1">  1        1 0.12876391E+00 0.72840832E+03</pdfrwt>
<pdfrwt beam="2">  1       -1 0.24381978E-01 0.72840832E+03</pdfrwt>
<totfact> 0.30367821E+02</totfact>
</mgrwt>
</event>
<event>
 6    1  0.9906445E-006  0.1178560E+04  0.7818608E-02  0.9131833E-01
         -2   -1    0    0    0  501 -0.00000000000E+00  0.00000000000E+00  0.37583530087E+03  0.37583530087E+03  0.00000000000E+00 0.  1.
          2   -1    0    0  501    0  0.00000000000E+00 -0.00000000000E+00 -0.92394374481E+03  0.92394374481E+03  0.00000000000E+00 0. -1.
         23    2    1    2    0    0  0.18120279080E+03  0.54110682738E+03 -0.42140882917E+03  0.71524175653E+03  0.91401963587E+02 0.  0.
         13    1    3    3    0    0  0.30706871080E+02  0.21586975766E+03 -0.13467071362E+03  0.25627888191E+03  0.00000000000E+00 0.  1.
        -13    1    3    3    0    0  0.15049591972E+03  0.32523706972E+03 -0.28673811555E+03  0.45896287462E+03  0.00000000000E+00 0. -1.
         22    1    1    2    0    0 -0.18120279080E+03 -0.54110682738E+03 -0.12669961477E+03  0.58453728916E+03  0.00000000000E+00 0.  1.
<mgrwt>
<rscale>  0 0.11785596E+04</rscale>
<asrwt>0</asrwt>
<pdfrwt beam="1">  1        2 0.14214519E+00 0.11785596E+04</pdfrwt>
<pdfrwt beam="2">  1       -2 0.57820816E-01 0.11785596E+04</pdfrwt>
<totfact> 0.78182734E+01</totfact>
</mgrwt>
</event>
<event>
 6    1  0.9906445E-006  0.3107922E+04  0.7818608E-02  0.8213567E-01
          2   -1    0    0  501    0  0.00000000000E+00  0.00000000000E+00  0.11850140155E+04  0.11850140155E+04  0.00000000000E+00 0. -1.
         -2   -1    0    0    0  501 -0.00000000000E+00 -0.00000000000E+00 -0.20377771211E+04  0.20377771211E+04  0.00000000000E+00 0.  1.
         23    2    1    2    0    0 -0.14153187324E+04  0.15064630212E+03 -0.10699507632E+04  0.17830022973E+04  0.92093071493E+02 0.  0.
         11    1    3    3    0    0 -0.14076886394E+03 -0.11738305784E+02 -0.97628900225E+02  0.17171215168E+03  0.00000000000E+00 0. -1.
        -11    1    3    3    0    0 -0.12745498685E+04  0.16238460790E+03 -0.97232186302E+03  0.16112901457E+04  0.00000000000E+00 0.  1.
         22    1    1    2    0    0  0.14153187324E+04 -0.15064630212E+03  0.21718765766E+03  0.14397888392E+04  0.00000000000E+00 0.  1.
<mgrwt>
<rscale>  0 0.31079218E+04</rscale>
<asrwt>0</asrwt>
<pdfrwt beam="1">  1        2 0.18230985E+00 0.31079218E+04</pdfrwt>
<pdfrwt beam="2">  1       -2 0.31350417E+00 0.31079218E+04</pdfrwt>
<totfact> 0.43075269E-01</totfact>
</mgrwt>
</event>
<event>
 6    1  0.9906445E-006  0.4816314E+03  0.7818608E-02  0.1018688E+00
         -2   -1    0    0    0  501 -0.00000000000E+00  0.00000000000E+00  0.58692548648E+03  0.58692548648E+03  0.00000000000E+00 0.  1.
          2   -1    0    0  501    0  0.00000000000E+00 -0.00000000000E+00 -0.98806736297E+02  0.98806736297E+02  0.00000000000E+00 0. -1.
         23    2    1    2    0    0  0.22888057241E+03 -0.24719367500E+01  0.19234359782E+03  0.31173306816E+03  0.88255420601E+02 0.  0.
         13    1    3    3    0    0  0.20603158976E+03  0.22546886165E+02  0.18324172425E+03  0.27664943080E+03  0.00000000000E+00 0. -1.
        -13    1    3    3    0    0  0.22848982653E+02 -0.25018822915E+02  0.91018735681E+01  0.35083637365E+02  0.00000000000E+00 0.  1.
         22    1    1    2    0    0 -0.22888057241E+03  0.24719367500E+01  0.29577515236E+03  0.37399915462E+03  0.00000000000E+00 0.  1.
<mgrwt>
<rscale>  0 0.48163136E+03</rscale>
<asrwt>0</asrwt>
<pdfrwt beam="1">  1        2 0.15201037E-01 0.48163136E+03</pdfrwt>
<pdfrwt beam="2">  1       -2 0.90296227E-01 0.48163136E+03</pdfrwt>
<totfact> 0.41795956E+02</totfact>
</mgrwt>
</event>
<event>
 6    1  0.9906445E-006  0.1459415E+04  0.7818608E-02  0.8911900E-01
          2   -1    0    0  501    0  0.00000000000E+00  0.00000000000E+00  0.54014520122E+03  0.54014520122E+03  0.00000000000E+00 0. -1.
         -2   -1    0    0    0  501 -0.00000000000E+00 -0.00000000000E+00 -0.98579555029E+03  0.98579555029E+03  0.00000000000E+00 0.  1.
         23    2    1    2    0    0  0.37655861276E+02 -0.12058246311E+03 -0.97204030136E+03  0.98460492583E+03  0.92878513121E+02 0.  0.
         11    1    3    3    0    0  0.68490041722E+02 -0.91330405344E+02 -0.68984349165E+03  0.69922540839E+03  0.00000000000E+00 0. -1.
        -11    1    3    3    0    0 -0.30834180447E+02 -0.29252057767E+02 -0.28219680971E+03  0.28537951744E+03  0.00000000000E+00 0.  1.
         22    1    1    2    0    0 -0.37655861276E+02  0.12058246311E+03  0.52638995229E+03  0.54133582569E+03  0.00000000000E+00 0. -1.
<mgrwt>
<rscale>  0 0.14594146E+04</rscale>
<asrwt>0</asrwt>
<pdfrwt beam="1">  1        2 0.83099262E-01 0.14594146E+04</pdfrwt>
<pdfrwt beam="2">  1       -2 0.15166085E+00 0.14594146E+04</pdfrwt>
<totfact> 0.15846466E+01</totfact>
</mgrwt>
</event>
<event>
 6    1  0.9906445E-006  0.4811631E+04  0.7818608E-02  0.7858241E-01
         -3   -1    0    0    0  501 -0.00000000000E+00  0.00000000000E+00  0.21916912360E+04  0.21916912360E+04  0.00000000000E+00 0. -1.
          3   -1    0    0  501    0  0.00000000000E+00 -0.00000000000E+00 -0.26408590222E+04  0.26408590222E+04  0.00000000000E+00 0.  1.
         23    2    1    2    0    0  0.11295375567E+04 -0.11107752455E+04 -0.20420118204E+04  0.25860354341E+04  0.89945837264E+02 0.  0.
         11    1    3    3    0    0  0.63540965150E+03 -0.58887486178E+03 -0.10560751543E+04  0.13659479345E+04  0.00000000000E+00 0. -1.
        -11    1    3    3    0    0  0.49412790515E+03 -0.52190038373E+03 -0.98593666607E+03  0.12200874996E+04  0.00000000000E+00 0.  1.
         22    1    1    2    0    0 -0.11295375567E+04  0.11107752455E+04  0.15928440342E+04  0.22465148242E+04  0.00000000000E+00 0. -1.
<mgrwt>
<rscale>  0 0.48116307E+04</rscale>
<asrwt>0</asrwt>
<pdfrwt beam="1">  1        3 0.40628600E+00 0.48116307E+04</pdfrwt>
<pdfrwt beam="2">  1       -3 0.33718327E+00 0.48116307E+04</pdfrwt>
<totfact> 0.46027202E-04</totfact>
</mgrwt>
</event>
<event>
 6    1  0.9906445E-006  0.1075831E+04  0.7818608E-02  0.9229075E-01
          1   -1    0    0  501    0  0.00000000000E+00  0.00000000000E+00  0.64494621792E+03  0.64494621792E+03  0.00000000000E+00 0. -1.
         -1   -1    0    0    0  501 -0.00000000000E+00 -0.00000000000E+00 -0.44864646955E+03  0.44864646955E+03  0.00000000000E+00 0.  1.
         23    2    1    2    0    0 -0.27694550598E+03 -0.50965523197E+02 -0.36250542349E+03  0.46784551972E+03  0.90404371719E+02 0.  0.
         13    1    3    3    0    0 -0.18675622938E+03 -0.34526016555E+02 -0.17113733176E+03  0.25565195354E+03  0.00000000000E+00 0. -1.
        -13    1    3    3    0    0 -0.90189276602E+02 -0.16439506642E+02 -0.19136809174E+03  0.21219356618E+03  0.00000000000E+00 0.  1.
         22    1    1    2    0    0  0.27694550598E+03  0.50965523197E+02  0.55880517186E+03  0.62574716774E+03  0.00000000000E+00 0. -1.
<mgrwt>
<rscale>  0 0.10758306E+04</rscale>
<asrwt>0</asrwt>
<pdfrwt beam="1">  1        1 0.99222495E-01 0.10758306E+04</pdfrwt>
<pdfrwt beam="2">  1       -1 0.69022534E-01 0.10758306E+04</pdfrwt>
<totfact> 0.65329218E+01</totfact>
</mgrwt>
</event>
<event>
 6    1  0.9906445E-006  0.1223804E+04  0.7818608E-02  0.9092272E-01
         -2   -1    0    0    0  501 -0.00000000000E+00  0.00000000000E+00  0.54932555608E+03  0.54932555608E+03  0.00000000000E+00 0.  1.
          2   -1    0    0  501    0  0.00000000000E+00 -0.00000000000E+00 -0.68160714215E+03  0.68160714215E+03  0.00000000000E+00 0. -1.
         23    2    1    2    0    0 -0.57385632394E+03 -0.19998866446E+03 -0.97758911248E+02  0.62224693240E+03  0.91257294019E+02 0.  0.
         11    1    3    3    0    0 -0.11654024990E+03 -0.26053315224E+02  0.14393182339E+02  0.12028120709E+03  0.00000000000E+00 0.  1.
        -11    1    3    3    0    0 -0.45731607404E+03 -0.17393534923E+03 -0.11215209359E+03  0.50196572531E+03  0.00000000000E+00 0. -1.
         22    1    1    2    0    0  0.57385632394E+03  0.19998866446E+03 -0.34522674820E+02  0.60868576582E+03  0.00000000000E+00 0. -1.
<mgrwt>
<rscale>  0 0.12238043E+04</rscale>
<asrwt>0</asrwt>
<pdfrwt beam="1">  1        2 0.10486264E+00 0.12238043E+04</pdfrwt>
<pdfrwt beam="2">  1       -2 0.84511623E-01 0.12238043E+04</pdfrwt>
<totfact> 0.50991320E+01</totfact>
</mgrwt>
</event>
<event>
 6    1  0.9906445E-006  0.2533739E+04  0.7818608E-02  0.8391063E-01
          1   -1    0    0  501    0  0.00000000000E+00  0.00000000000E+00  0.20480876536E+04  0.20480876536E+04  0.00000000000E+00 0. -1.
         -1   -1    0    0    0  501 -0.00000000000E+00 -0.00000000000E+00 -0.78363752525E+03  0.78363752525E+03  0.00000000000E+00 0.  1.
         23    2    1    2    0    0 -0.11210343668E+04  0.56637197383E+03  0.80269559024E+03  0.14935501090E+04  0.94214930741E+02 0.  0.
         13    1    3    3    0    0 -0.90545988155E+03  0.46721789754E+03  0.60718851363E+03  0.11860978256E+04  0.00000000000E+00 0. -1.
        -13    1    3    3    0    0 -0.21557448522E+03  0.99154076295E+02  0.19550707661E+03  0.30745228333E+03  0.00000000000E+00 0.  1.
         22    1    1    2    0    0  0.11210343668E+04 -0.56637197383E+03  0.46175453812E+03  0.13381750699E+04  0.00000000000E+00 0. -1.
<mgrwt>
<rscale>  0 0.25337390E+04</rscale>
<asrwt>0</asrwt>
<pdfrwt beam="1">  1        1 0.31509041E+00 0.25337390E+04</pdfrwt>
<pdfrwt beam="2">  1       -1 0.12055962E+00 0.25337390E+04</pdfrwt>
<totfact> 0.14983165E+00</totfact>
</mgrwt>
</event>
<event>
 6    1  0.9906445E-006  0.6176160E+04  0.7818608E-02  0.7668936E-01
         -2   -1    0    0    0  501 -0.00000000000E+00  0.00000000000E+00  0.19654539286E+04  0.19654539286E+04  0.00000000000E+00 0. -1.
          2   -1    0    0  501    0  0.00000000000E+00 -0.00000000000E+00 -0.48519258340E+04  0.48519258340E+04  0.00000000000E+00 0.  1.
         23    2    1    2    0    0 -0.24453826889E+04  0.19867357056E+03  0.62464044878E+03  0.25340075343E+04  0.10793892097E+03 0.  0.
         13    1    3    3    0    0 -0.19429628817E+04  0.14705031961E+03  0.45206648151E+03  0.20002731463E+04  0.00000000000E+00 0. -1.
        -13    1    3    3    0    0 -0.50241980724E+03  0.51623250949E+02  0.17257396727E+03  0.53373438799E+03  0.00000000000E+00 0.  1.
         22    1    1    2    0    0  0.24453826889E+04 -0.19867357056E+03 -0.35111123542E+04  0.42833722284E+04  0.00000000000E+00 0.  1.
<mgrwt>
<rscale>  0 0.61761595E+04</rscale>
<asrwt>0</asrwt>
<pdfrwt beam="1">  1        2 0.74645013E+00 0.61761595E+04</pdfrwt>
<pdfrwt beam="2">  1       -2 0.30237753E+00 0.61761595E+04</pdfrwt>
<totfact> 0.10395939E-03</totfact>
</mgrwt>
</event>
<event>
 6    1  0.9906445E-006  0.9666584E+03  0.7818608E-02  0.9345889E-01
          2   -1    0    0  501    0  0.00000000000E+00  0.00000000000E+00  0.49902215324E+03  0.49902215324E+03  0.00000000000E+00 0.  1.
         -2   -1    0    0    0  501 -0.00000000000E+00 -0.00000000000E+00 -0.46812976070E+03  0.46812976070E+03  0.00000000000E+00 0. -1.
         23    2    1    2    0    0 -0.11288612728E+03 -0.20909801697E+03  0.43210815125E+03  0.50084799645E+03  0.87555712225E+02 0.  0.
         11    1    3    3    0    0 -0.45616222298E+02 -0.15028108716E+03  0.32792666829E+03  0.36359475336E+03  0.00000000000E+00 0. -1.
        -11    1    3    3    0    0 -0.67269904980E+02 -0.58816929808E+02  0.10418148296E+03  0.13725324309E+03  0.00000000000E+00 0.  1.
         22    1    1    2    0    0  0.11288612728E+03  0.20909801697E+03 -0.40121575871E+03  0.46630391749E+03  0.00000000000E+00 0. -1.
<mgrwt>
<rscale>  0 0.96665841E+03</rscale>
<asrwt>0</asrwt>
<pdfrwt beam="1">  1        2 0.76772639E-01 0.96665841E+03</pdfrwt>
<pdfrwt beam="2">  1       -2 0.72019963E-01 0.96665841E+03</pdfrwt>
<totfact> 0.10789042E+02</totfact>
</mgrwt>
</event>
<event>
 6    1  0.9906445E-006  0.1725466E+04  0.7818608E-02  0.8746972E-01
          2   -1    0    0  501    0  0.00000000000E+00  0.00000000000E+00  0.25678023763E+04  0.25678023763E+04  0.00000000000E+00 0. -1.
         -2   -1    0    0    0  501 -0.00000000000E+00 -0.00000000000E+00 -0.28986205403E+03  0.28986205403E+03  0.00000000000E+00 0.  1.
         23    2    1    2    0    0  0.53472460097E+03  0.63503177067E+03  0.15161149240E+04  0.17309108255E+04  0.90840928534E+02 0.  0.
         13    1    3    3    0    0  0.11400386674E+03  0.82868584398E+02  0.25265191828E+03  0.28930446889E+03  0.00000000000E+00 0. -1.
        -13    1    3    3    0    0  0.42072073423E+03  0.55216318628E+03  0.12634630057E+04  0.14416063566E+04  0.00000000000E+00 0.  1.
         22    1    1    2    0    0 -0.53472460097E+03 -0.63503177067E+03  0.76182539832E+03  0.11267536049E+04  0.00000000000E+00 0. -1.
<mgrwt>
<rscale>  0 0.17254663E+04</rscale>
<asrwt>0</asrwt>
<pdfrwt beam="1">  1        2 0.39504650E+00 0.17254663E+04</pdfrwt>
<pdfrwt beam="2">  1       -2 0.44594164E-01 0.17254663E+04</pdfrwt>
<totfact> 0.14420864E+01</totfact>
</mgrwt>
</event>
<event>
 6    1  0.9906445E-006  0.1312164E+04  0.7818608E-02  0.9019974E-01
         -2   -1    0    0    0  501 -0.00000000000E+00  0.00000000000E+00  0.24703528102E+03  0.24703528102E+03  0.00000000000E+00 0.  1.
          2   -1    0    0  501    0  0.00000000000E+00 -0.00000000000E+00 -0.17424384716E+04  0.17424384716E+04  0.00000000000E+00 0. -1.
         23    2    1    2    0    0  0.26952445764E+03 -0.16113544407E+03 -0.16192575881E+04  0.16519119414E+04  0.90608282994E+02 0.  0.
         13    1    3    3    0    0  0.22182061055E+03 -0.87498962946E+02 -0.12280149714E+04  0.12509521261E+04  0.00000000000E+00 0.  1.
        -13    1    3    3    0    0  0.47703847081E+02 -0.73636481124E+02 -0.39124261673E+03  0.40095981535E+03  0.00000000000E+00 0. -1.
         22    1    1    2    0    0 -0.26952445764E+03  0.16113544407E+03  0.12385439753E+03  0.33756181121E+03  0.00000000000E+00 0.  1.
<mgrwt>
<rscale>  0 0.13121643E+04</rscale>
<asrwt>0</asrwt>
<pdfrwt beam="1">  1        2 0.26806747E+00 0.13121643E+04</pdfrwt>
<pdfrwt beam="2">  1       -2 0.38005427E-01 0.13121643E+04</pdfrwt>
<totfact> 0.59441766E+01</totfact>
</mgrwt>
</event>
<event>
 6    1  0.9906445E-006  0.3177688E+04  0.7818608E-02  0.8194735E-01
         -2   -1    0    0    0  501 -0.00000000000E+00  0.00000000000E+00  0.91240834262E+03  0.91240834262E+03  0.00000000000E+00 0.  1.
          2   -1    0    0  501    0  0.00000000000E+00 -0.00000000000E+00 -0.27667713596E+04  0.27667713596E+04  0.00000000000E+00 0. -1.
         23    2    1    2    0    0 -0.63742769758E+01 -0.59960971553E+03 -0.26298650688E+04  0.26988859327E+04  0.90678307618E+02 0.  0.
         11    1    3    3    0    0 -0.46249907403E+01 -0.20599060614E+03 -0.72120850416E+03  0.75006348187E+03  0.00000000000E+00 0. -1.
        -11    1    3    3    0    0 -0.17492862354E+01 -0.39361910940E+03 -0.19086565646E+04  0.19488224508E+04  0.00000000000E+00 0.  1.
         22    1    1    2    0    0  0.63742769758E+01  0.59960971553E+03  0.77550205174E+03  0.98029376955E+03  0.00000000000E+00 0.  1.
<mgrwt>
<rscale>  0 0.31776880E+04</rscale>
<asrwt>0</asrwt>
<pdfrwt beam="1">  1        2 0.42565713E+00 0.31776880E+04</pdfrwt>
<pdfrwt beam="2">  1       -2 0.14037051E+00 0.31776880E+04</pdfrwt>
<totfact> 0.72842520E-01</totfact>
</mgrwt>
</event>
<event>
 6    1  0.9906445E-006  0.3008413E+04  0.7818608E-02  0.8241332E-01
         -1   -1    0    0    0  501 -0.00000000000E+00  0.00000000000E+00  0.19656962279E+04  0.19656962279E+04  0.00000000000E+00 0.  1.
          1   -1    0    0  501    0  0.00000000000E+00 -0.00000000000E+00 -0.11510618424E+04  0.11510618424E+04  0.00000000000E+00 0. -1.
         23    2    1    2    0    0 -0.11464611279E+04 -0.49162570937E+03  0.12759670790E+04  0.17867592696E+04  0.91365993736E+02 0.  0.
         13    1    3    3    0    0 -0.48973573548E+03 -0.17280755017E+03  0.57249405879E+03  0.77295083113E+03  0.00000000000E+00 0. -1.
        -13    1    3    3    0    0 -0.65672539242E+03 -0.31881815920E+03  0.70347302022E+03  0.10138084384E+04  0.00000000000E+00 0.  1.
         22    1    1    2    0    0  0.11464611279E+04  0.49162570937E+03 -0.46133269346E+03  0.13299988007E+04  0.00000000000E+00 0. -1.
<mgrwt>
<rscale>  0 0.30084135E+04</rscale>
<asrwt>0</asrwt>
<pdfrwt beam="1">  1        1 0.17708644E+00 0.30084135E+04</pdfrwt>
<pdfrwt beam="2">  1       -1 0.30241480E+00 0.30084135E+04</pdfrwt>
<totfact> 0.31452062E-01</totfact>
</mgrwt>
</event>
<event>
 6    1  0.9906445E-006  0.2673478E+04  0.7818608E-02  0.8343662E-01
          2   -1    0    0  501    0  0.00000000000E+00  0.00000000000E+00  0.31072415024E+04  0.31072415024E+04  0.00000000000E+00 0. -1.
         -2   -1    0    0    0  501 -0.00000000000E+00 -0.00000000000E+00 -0.57506662590E+03  0.57506662590E+03  0.00000000000E+00 0.  1.
         23    2    1    2    0    0  0.86705367443E+03 -0.13382269618E+03 -0.11865204400E+03  0.89007354812E+03  0.91989266543E+02 0.  0.
         11    1    3    3    0    0  0.35529050456E+03 -0.78347227692E+02 -0.99620380725E+01  0.36396273562E+03  0.00000000000E+00 0.  1.
        -11    1    3    3    0    0  0.51176316987E+03 -0.55475468489E+02 -0.10869000592E+03  0.52611081250E+03  0.00000000000E+00 0. -1.
         22    1    1    2    0    0 -0.86705367443E+03  0.13382269618E+03  0.26508269205E+04  0.27922345802E+04  0.00000000000E+00 0. -1.
<mgrwt>
<rscale>  0 0.26734778E+04</rscale>
<asrwt>0</asrwt>
<pdfrwt beam="1">  1        2 0.47803715E+00 0.26734778E+04</pdfrwt>
<pdfrwt beam="2">  1       -2 0.88471790E-01 0.26734778E+04</pdfrwt>
<totfact> 0.14388434E+00</totfact>
</mgrwt>
</event>
<event>
 6    1  0.9906445E-006  0.3536080E+04  0.7818608E-02  0.8105292E-01
          1   -1    0    0  501    0  0.00000000000E+00  0.00000000000E+00  0.32713216836E+04  0.32713216836E+04  0.00000000000E+00 0. -1.
         -1   -1    0    0    0  501 -0.00000000000E+00 -0.00000000000E+00 -0.95556673993E+03  0.95556673993E+03  0.00000000000E+00 0.  1.
         23    2    1    2    0    0 -0.11306735356E+04  0.10271059389E+04  0.97300068900E+02  0.15333941716E+04  0.91984391378E+02 0.  0.
         13    1    3    3    0    0 -0.97046506603E+03  0.83597290132E+03  0.84851049022E+02  0.12836872036E+04  0.00000000000E+00 0.  1.
        -13    1    3    3    0    0 -0.16020846954E+03  0.19113303761E+03  0.12449019878E+02  0.24970696801E+03  0.00000000000E+00 0. -1.
         22    1    1    2    0    0  0.11306735356E+04 -0.10271059389E+04  0.22184548748E+04  0.26934942519E+04  0.00000000000E+00 0. -1.
<mgrwt>
<rscale>  0 0.35360804E+04</rscale>
<asrwt>0</asrwt>
<pdfrwt beam="1">  1        1 0.50328025E+00 0.35360804E+04</pdfrwt>
<pdfrwt beam="2">  1       -1 0.14701027E+00 0.35360804E+04</pdfrwt>
<totfact> 0.11236520E-01</totfact>
</mgrwt>
</event>
<event>
 6    1  0.9906445E-006  0.7276993E+03  0.7818608E-02  0.9671001E-01
          1   -1    0    0  501    0  0.00000000000E+00  0.00000000000E+00  0.16060042943E+04  0.16060042943E+04  0.00000000000E+00 0. -1.
         -1   -1    0    0    0  501 -0.00000000000E+00 -0.00000000000E+00 -0.82432254176E+02  0.82432254176E+02  0.00000000000E+00 0.  1.
         23    2    1    2    0    0 -0.23151940918E+03  0.21906282965E+03  0.11524674505E+04  0.11992449944E+04  0.91747326441E+02 0.  0.
         11    1    3    3    0    0 -0.11755209284E+03  0.72059214862E+02  0.62237797312E+03  0.63746793362E+03  0.00000000000E+00 0. -1.
        -11    1    3    3    0    0 -0.11396731634E+03  0.14700361478E+03  0.53008947742E+03  0.56177706079E+03  0.00000000000E+00 0.  1.
         22    1    1    2    0    0  0.23151940918E+03 -0.21906282965E+03  0.37110458960E+03  0.48919155408E+03  0.00000000000E+00 0. -1.
<mgrwt>
<rscale>  0 0.72769926E+03</rscale>
<asrwt>0</asrwt>
<pdfrwt beam="1">  1        1 0.24707756E+00 0.72769926E+03</pdfrwt>
<pdfrwt beam="2">  1       -1 0.12681886E-01 0.72769926E+03</pdfrwt>
<totfact> 0.24389844E+02</totfact>
</mgrwt>
</event>
<event>
 6    1  0.9906445E-006  0.3693953E+04  0.7818608E-02  0.8069303E-01
          2   -1    0    0  501    0  0.00000000000E+00  0.00000000000E+00  0.16201044859E+04  0.16201044859E+04  0.00000000000E+00 0. -1.
         -2   -1    0    0    0  501 -0.00000000000E+00 -0.00000000000E+00 -0.21056182730E+04  0.21056182730E+04  0.00000000000E+00 0.  1.
         23    2    1    2    0    0  0.74332157540E+03 -0.38296086059E+03  0.14168484103E+04  0.16477025677E+04  0.90985430745E+02 0.  0.
         11    1    3    3    0    0  0.24955660654E+03 -0.16075941413E+03  0.43886326124E+03  0.52983304084E+03  0.00000000000E+00 0.  1.
        -11    1    3    3    0    0  0.49376496885E+03 -0.22220144646E+03  0.97798514905E+03  0.11178695268E+04  0.00000000000E+00 0. -1.
         22    1    1    2    0    0 -0.74332157540E+03  0.38296086059E+03 -0.19023621974E+04  0.20780201912E+04  0.00000000000E+00 0.  1.
<mgrwt>
<rscale>  0 0.36939527E+04</rscale>
<asrwt>0</asrwt>
<pdfrwt beam="1">  1        2 0.24924684E+00 0.36939527E+04</pdfrwt>
<pdfrwt beam="2">  1       -2 0.32394127E+00 0.36939527E+04</pdfrwt>
<totfact> 0.19891374E-01</totfact>
</mgrwt>
</event>
<event>
 6    1  0.9906445E-006  0.2112210E+04  0.7818608E-02  0.8555884E-01
          2   -1    0    0  501    0  0.00000000000E+00  0.00000000000E+00  0.17616342022E+04  0.17616342022E+04  0.00000000000E+00 0. -1.
         -2   -1    0    0    0  501 -0.00000000000E+00 -0.00000000000E+00 -0.63313814446E+03  0.63313814446E+03  0.00000000000E+00 0.  1.
         23    2    1    2    0    0 -0.81721000397E+03  0.66491118081E+03  0.52571916778E+03  0.11809852780E+04  0.91687046809E+02 0.  0.
         13    1    3    3    0    0 -0.44796735540E+03  0.32248817083E+03  0.31081282635E+03  0.63346506206E+03  0.00000000000E+00 0.  1.
        -13    1    3    3    0    0 -0.36924264857E+03  0.34242300998E+03  0.21490634143E+03  0.54752021595E+03  0.00000000000E+00 0. -1.
         22    1    1    2    0    0  0.81721000397E+03 -0.66491118081E+03  0.60277688998E+03  0.12137870687E+04  0.00000000000E+00 0. -1.
<mgrwt>
<rscale>  0 0.21122100E+04</rscale>
<asrwt>0</asrwt>
<pdfrwt beam="1">  1        2 0.27102064E+00 0.21122100E+04</pdfrwt>
<pdfrwt beam="2">  1       -2 0.97405869E-01 0.21122100E+04</pdfrwt>
<totfact> 0.73330560E+00</totfact>
</mgrwt>
</event>
<event>
 6    1  0.9906445E-006  0.3368840E+04  0.7818608E-02  0.8145597E-01
         -2   -1    0    0    0  501 -0.00000000000E+00  0.00000000000E+00  0.19235877380E+04  0.19235877380E+04  0.00000000000E+00 0. -1.
          2   -1    0    0  501    0  0.00000000000E+00 -0.00000000000E+00 -0.14749886013E+04  0.14749886013E+04  0.00000000000E+00 0.  1.
         23    2    1    2    0    0  0.98657066258E+03  0.95200164245E+03  0.12095089620E+04  0.18305799868E+04  0.92099724439E+02 0.  0.
         11    1    3    3    0    0  0.26281854443E+03  0.19908263549E+03  0.28730788895E+03  0.43732517204E+03  0.00000000000E+00 0.  1.
        -11    1    3    3    0    0  0.72375211815E+03  0.75291900697E+03  0.92220107305E+03  0.13932548147E+04  0.00000000000E+00 0. -1.
         22    1    1    2    0    0 -0.98657066258E+03 -0.95200164245E+03 -0.76090982532E+03  0.15679963526E+04  0.00000000000E+00 0.  1.
<mgrwt>
<rscale>  0 0.33688396E+04</rscale>
<asrwt>0</asrwt>
<pdfrwt beam="1">  1        2 0.22692132E+00 0.33688396E+04</pdfrwt>
<pdfrwt beam="2">  1       -2 0.29593658E+00 0.33688396E+04</pdfrwt>
<totfact> 0.36655720E-01</totfact>
</mgrwt>
</event>
<event>
 6    1  0.9906445E-006  0.3303987E+04  0.7818608E-02  0.8161882E-01
         -2   -1    0    0    0  501 -0.00000000000E+00  0.00000000000E+00  0.94228987048E+03  0.94228987048E+03  0.00000000000E+00 0.  1.
          2   -1    0    0  501    0  0.00000000000E+00 -0.00000000000E+00 -0.28962244170E+04  0.28962244170E+04  0.00000000000E+00 0. -1.
         23    2    1    2    0    0  0.15659887487E+04  0.11270232808E+03 -0.15700214655E+04  0.22222185753E+04  0.90914345419E+02 0.  0.
         13    1    3    3    0    0  0.74562398533E+03  0.19431805112E+02 -0.78750224671E+03  0.10846623950E+04  0.00000000000E+00 0.  1.
        -13    1    3    3    0    0  0.82036476335E+03  0.93270522973E+02 -0.78251921883E+03  0.11375561803E+04  0.00000000000E+00 0. -1.
         22    1    1    2    0    0 -0.15659887487E+04 -0.11270232808E+03 -0.38391308102E+03  0.16162957123E+04  0.00000000000E+00 0.  1.
<mgrwt>
<rscale>  0 0.33039872E+04</rscale>
<asrwt>0</asrwt>
<pdfrwt beam="1">  1        2 0.44557298E+00 0.33039872E+04</pdfrwt>
<pdfrwt beam="2">  1       -2 0.14496768E+00 0.33039872E+04</pdfrwt>
<totfact> 0.55260540E-01</totfact>
</mgrwt>
</event>
<event>
 6    1  0.9906445E-006  0.1827252E+04  0.7818608E-02  0.8691940E-01
          1   -1    0    0  501    0  0.00000000000E+00  0.00000000000E+00  0.14153955816E+04  0.14153955816E+04  0.00000000000E+00 0. -1.
         -1   -1    0    0    0  501 -0.00000000000E+00 -0.00000000000E+00 -0.58973784635E+03  0.58973784635E+03  0.00000000000E+00 0.  1.
         23    2    1    2    0    0  0.25270302702E+03 -0.55274003813E+03  0.11589626571E+04  0.13119721620E+04  0.93253115960E+02 0.  0.
         11    1    3    3    0    0  0.84125779658E+02 -0.10478403260E+03  0.21359653301E+03  0.25234959719E+03  0.00000000000E+00 0. -1.
        -11    1    3    3    0    0  0.16857724736E+03 -0.44795600553E+03  0.94536612410E+03  0.10596225648E+04  0.00000000000E+00 0.  1.
         22    1    1    2    0    0 -0.25270302702E+03  0.55274003813E+03 -0.33330492190E+03  0.69316126593E+03  0.00000000000E+00 0.  1.
<mgrwt>
<rscale>  0 0.18272519E+04</rscale>
<asrwt>0</asrwt>
<pdfrwt beam="1">  1        1 0.21775317E+00 0.18272519E+04</pdfrwt>
<pdfrwt beam="2">  1       -1 0.90728900E-01 0.18272519E+04</pdfrwt>
<totfact> 0.83710623E+00</totfact>
</mgrwt>
</event>
<event>
 6    1  0.9906445E-006  0.3070371E+04  0.7818608E-02  0.8223917E-01
         -2   -1    0    0    0  501 -0.00000000000E+00  0.00000000000E+00  0.65721243510E+03  0.65721243510E+03  0.00000000000E+00 0. -1.
          2   -1    0    0  501    0  0.00000000000E+00 -0.00000000000E+00 -0.35860460771E+04  0.35860460771E+04  0.00000000000E+00 0.  1.
         23    2    1    2    0    0  0.62645942357E+03 -0.10829394039E+04 -0.26920500423E+04  0.29699652879E+04  0.91385006494E+02 0.  0.
         13    1    3    3    0    0  0.14640534891E+03 -0.18350663585E+03 -0.52120882911E+03  0.57163612127E+03  0.00000000000E+00 0.  1.
        -13    1    3    3    0    0  0.48005407466E+03 -0.89943276805E+03 -0.21708412132E+04  0.23983291667E+04  0.00000000000E+00 0. -1.
         22    1    1    2    0    0 -0.62645942357E+03  0.10829394039E+04 -0.23678359971E+03  0.12732932243E+04  0.00000000000E+00 0. -1.
<mgrwt>
<rscale>  0 0.30703707E+04</rscale>
<asrwt>0</asrwt>
<pdfrwt beam="1">  1        2 0.55169941E+00 0.30703707E+04</pdfrwt>
<pdfrwt beam="2">  1       -2 0.10110960E+00 0.30703707E+04</pdfrwt>
<totfact> 0.48331646E-01</totfact>
</mgrwt>
</event>
<event>
 6    1  0.9906445E-006  0.2536842E+04  0.7818608E-02  0.8389977E-01
         -2   -1    0    0    0  501 -0.00000000000E+00  0.00000000000E+00  0.44891388177E+03  0.44891388177E+03  0.00000000000E+00 0.  1.
          2   -1    0    0  501    0  0.00000000000E+00 -0.00000000000E+00 -0.35839653383E+04  0.35839653383E+04  0.00000000000E+00 0. -1.
         23    2    1    2    0    0  0.50331675703E+02  0.91950822811E+03 -0.29524558650E+04  0.30940662413E+04  0.90673102716E+02 0.  0.
         11    1    3    3    0    0 -0.36716878115E+01  0.48422275511E+03 -0.14357841880E+04  0.15152430143E+04  0.00000000000E+00 0. -1.
        -11    1    3    3    0    0  0.54003363515E+02  0.43528547300E+03 -0.15166716770E+04  0.15788232270E+04  0.00000000000E+00 0.  1.
         22    1    1    2    0    0 -0.50331675703E+02 -0.91950822811E+03 -0.18259559157E+03  0.93881297882E+03  0.00000000000E+00 0.  1.
<mgrwt>
<rscale>  0 0.25368420E+04</rscale>
<asrwt>0</asrwt>
<pdfrwt beam="1">  1        2 0.55137926E+00 0.25368420E+04</pdfrwt>
<pdfrwt beam="2">  1       -2 0.69063677E-01 0.25368420E+04</pdfrwt>
<totfact> 0.12083917E+00</totfact>
</mgrwt>
</event>
<event>
 6    1  0.9906445E-006  0.1246794E+04  0.7818608E-02  0.9072856E-01
          1   -1    0    0  501    0  0.00000000000E+00  0.00000000000E+00  0.16748965408E+04  0.16748965408E+04  0.00000000000E+00 0. -1.
         -1   -1    0    0    0  501 -0.00000000000E+00 -0.00000000000E+00 -0.23202867326E+03  0.23202867326E+03  0.00000000000E+00 0.  1.
         23    2    1    2    0    0  0.15576540798E+03  0.43938170383E+03  0.13507278364E+04  0.14317316437E+04  0.89836894081E+02 0.  0.
         13    1    3    3    0    0  0.16126849969E+03  0.35899668000E+03  0.11475920856E+04  0.12131997940E+04  0.00000000000E+00 0. -1.
        -13    1    3    3    0    0 -0.55030917092E+01  0.80385023827E+02  0.20313575084E+03  0.21853184973E+03  0.00000000000E+00 0.  1.
         22    1    1    2    0    0 -0.15576540798E+03 -0.43938170383E+03  0.92140031157E+02  0.47519357038E+03  0.00000000000E+00 0.  1.
<mgrwt>
<rscale>  0 0.12467943E+04</rscale>
<asrwt>0</asrwt>
<pdfrwt beam="1">  1        1 0.25767638E+00 0.12467943E+04</pdfrwt>
<pdfrwt beam="2">  1       -1 0.35696720E-01 0.12467943E+04</pdfrwt>
<totfact> 0.36634586E+01</totfact>
</mgrwt>
</event>
<event>
 6    1  0.9906445E-006  0.2709351E+04  0.7818608E-02  0.8331977E-01
         -1   -1    0    0    0  501 -0.00000000000E+00  0.00000000000E+00  0.26139248623E+04  0.26139248623E+04  0.00000000000E+00 0.  1.
          1   -1    0    0  501    0  0.00000000000E+00 -0.00000000000E+00 -0.70206537472E+03  0.70206537472E+03  0.00000000000E+00 0. -1.
         23    2    1    2    0    0 -0.15550058246E+03  0.67686854640E+03  0.23783263134E+04  0.24793763715E+04  0.92410380751E+02 0.  0.
         13    1    3    3    0    0 -0.63425767398E+02  0.12202827117E+03  0.51165257015E+03  0.52981324962E+03  0.00000000000E+00 0. -1.
        -13    1    3    3    0    0 -0.92074815066E+02  0.55484027523E+03  0.18666737433E+04  0.19495631219E+04  0.00000000000E+00 0.  1.
         22    1    1    2    0    0  0.15550058246E+03 -0.67686854640E+03 -0.46646682585E+03  0.83661386546E+03  0.00000000000E+00 0. -1.
<mgrwt>
<rscale>  0 0.27093513E+04</rscale>
<asrwt>0</asrwt>
<pdfrwt beam="1">  1        1 0.10801006E+00 0.27093513E+04</pdfrwt>
<pdfrwt beam="2">  1       -1 0.40214228E+00 0.27093513E+04</pdfrwt>
<totfact> 0.16359374E-01</totfact>
</mgrwt>
</event>
<event>
 6    1  0.9906445E-006  0.2611176E+04  0.7818608E-02  0.8364415E-01
         -2   -1    0    0    0  501 -0.00000000000E+00  0.00000000000E+00  0.64731425261E+03  0.64731425261E+03  0.00000000000E+00 0.  1.
          2   -1    0    0  501    0  0.00000000000E+00 -0.00000000000E+00 -0.26332801391E+04  0.26332801391E+04  0.00000000000E+00 0. -1.
         23    2    1    2    0    0  0.11620455302E+04  0.51388013441E+03 -0.13626799704E+04  0.18653530908E+04  0.90679903198E+02 0.  0.
         13    1    3    3    0    0  0.45137745855E+03  0.18530339947E+03 -0.46222617248E+03  0.67211010590E+03  0.00000000000E+00 0.  1.
        -13    1    3    3    0    0  0.71066807161E+03  0.32857673494E+03 -0.90045379790E+03  0.11932429849E+04  0.00000000000E+00 0. -1.
         22    1    1    2    0    0 -0.11620455302E+04 -0.51388013441E+03 -0.62328591610E+03  0.14152413009E+04  0.00000000000E+00 0. -1.
<mgrwt>
<rscale>  0 0.26111758E+04</rscale>
<asrwt>0</asrwt>
<pdfrwt beam="1">  1        2 0.40512002E+00 0.26111758E+04</pdfrwt>
<pdfrwt beam="2">  1       -2 0.99586808E-01 0.26111758E+04</pdfrwt>
<totfact> 0.21438926E+00</totfact>
</mgrwt>
</event>
<event>
 6    1  0.9906445E-006  0.1728244E+04  0.7818608E-02  0.8745418E-01
         -2   -1    0    0    0  501 -0.00000000000E+00  0.00000000000E+00  0.52970705073E+03  0.52970705073E+03  0.00000000000E+00 0.  1.
          2   -1    0    0  501    0  0.00000000000E+00 -0.00000000000E+00 -0.14096603633E+04  0.14096603633E+04  0.00000000000E+00 0. -1.
         23    2    1    2    0    0  0.16831456535E+03  0.72999207758E+03  0.36597910985E+02  0.75560883576E+03  0.91580998841E+02 0.  0.
         13    1    3    3    0    0  0.16675736210E+03  0.56526453291E+03  0.41428481313E+02  0.59080312207E+03  0.00000000000E+00 0. -1.
        -13    1    3    3    0    0  0.15572032443E+01  0.16472754467E+03 -0.48305703275E+01  0.16480571369E+03  0.00000000000E+00 0.  1.
         22    1    1    2    0    0 -0.16831456535E+03 -0.72999207758E+03 -0.91655122356E+03  0.11837585783E+04  0.00000000000E+00 0. -1.
<mgrwt>
<rscale>  0 0.17282442E+04</rscale>
<asrwt>0</asrwt>
<pdfrwt beam="1">  1        2 0.21687082E+00 0.17282442E+04</pdfrwt>
<pdfrwt beam="2">  1       -2 0.81493393E-01 0.17282442E+04</pdfrwt>
<totfact> 0.17985544E+01</totfact>
</mgrwt>
</event>
<event>
 6    1  0.9906445E-006  0.1558675E+04  0.7818608E-02  0.8846345E-01
          2   -1    0    0  501    0  0.00000000000E+00  0.00000000000E+00  0.19643885507E+04  0.19643885507E+04  0.00000000000E+00 0. -1.
         -2   -1    0    0    0  501 -0.00000000000E+00 -0.00000000000E+00 -0.30918892550E+03  0.30918892550E+03  0.00000000000E+00 0.  1.
         23    2    1    2    0    0 -0.14220443289E+03 -0.53092054462E+03  0.16309707353E+04  0.17234086253E+04  0.89291797319E+02 0.  0.
         11    1    3    3    0    0 -0.28793683368E+02 -0.13868107845E+03  0.31110677110E+03  0.34183174333E+03  0.00000000000E+00 0. -1.
        -11    1    3    3    0    0 -0.11341074953E+03 -0.39223946617E+03  0.13198639641E+04  0.13815768820E+04  0.00000000000E+00 0.  1.
         22    1    1    2    0    0  0.14220443289E+03  0.53092054462E+03  0.24228889988E+02  0.55016885094E+03  0.00000000000E+00 0.  1.
<mgrwt>
<rscale>  0 0.15586753E+04</rscale>
<asrwt>0</asrwt>
<pdfrwt beam="1">  1        2 0.30221362E+00 0.15586753E+04</pdfrwt>
<pdfrwt beam="2">  1       -2 0.47567528E-01 0.15586753E+04</pdfrwt>
<totfact> 0.28179115E+01</totfact>
</mgrwt>
</event>
<event>
 6    1  0.9906445E-006  0.1033619E+04  0.7818608E-02  0.9272422E-01
         -1   -1    0    0    0  501 -0.00000000000E+00  0.00000000000E+00  0.13764447148E+03  0.13764447148E+03  0.00000000000E+00 0.  1.
          1   -1    0    0  501    0  0.00000000000E+00 -0.00000000000E+00 -0.19404490164E+04  0.19404490164E+04  0.00000000000E+00 0. -1.
         23    2    1    2    0    0  0.34311773668E+03  0.49370736960E+02 -0.16681424452E+04  0.17062048863E+04  0.90932092884E+02 0.  0.
         13    1    3    3    0    0  0.22645895720E+03  0.75712269512E+02 -0.11078813239E+04  0.11333212408E+04  0.00000000000E+00 0.  1.
        -13    1    3    3    0    0  0.11665877948E+03 -0.26341532551E+02 -0.56026112131E+03  0.57288364544E+03  0.00000000000E+00 0. -1.
         22    1    1    2    0    0 -0.34311773668E+03 -0.49370736960E+02 -0.13466209966E+03  0.37188860157E+03  0.00000000000E+00 0.  1.
<mgrwt>
<rscale>  0 0.10336190E+04</rscale>
<asrwt>0</asrwt>
<pdfrwt beam="1">  1        1 0.29853063E+00 0.10336190E+04</pdfrwt>
<pdfrwt beam="2">  1       -1 0.21176072E-01 0.10336190E+04</pdfrwt>
<totfact> 0.61014465E+01</totfact>
</mgrwt>
</event>
<event>
 6    1  0.9906445E-006  0.2365133E+04  0.7818608E-02  0.8452674E-01
         -1   -1    0    0    0  501 -0.00000000000E+00  0.00000000000E+00  0.17798138092E+04  0.17798138092E+04  0.00000000000E+00 0.  1.
          1   -1    0    0  501    0  0.00000000000E+00 -0.00000000000E+00 -0.78573565139E+03  0.78573565139E+03  0.00000000000E+00 0. -1.
         23    2    1    2    0    0 -0.11440590575E+04 -0.54907110796E+02  0.80901828017E+03  0.14053197091E+04  0.92341698450E+02 0.  0.
         11    1    3    3    0    0 -0.46338415640E+03  0.77810856926E+01  0.28561882696E+03  0.54439281407E+03  0.00000000000E+00 0.  1.
        -11    1    3    3    0    0 -0.68067490111E+03 -0.62688196489E+02  0.52339945321E+03  0.86092689504E+03  0.00000000000E+00 0. -1.
         22    1    1    2    0    0  0.11440590575E+04  0.54907110796E+02  0.18505987764E+03  0.11602297515E+04  0.00000000000E+00 0. -1.
<mgrwt>
<rscale>  0 0.23651327E+04</rscale>
<asrwt>0</asrwt>
<pdfrwt beam="1">  1        1 0.12088241E+00 0.23651327E+04</pdfrwt>
<pdfrwt beam="2">  1       -1 0.27381751E+00 0.23651327E+04</pdfrwt>
<totfact> 0.99830908E-01</totfact>
</mgrwt>
</event>
<event>
 6    1  0.9906445E-006  0.1462939E+04  0.7818608E-02  0.8909479E-01
          1   -1    0    0  501    0  0.00000000000E+00  0.00000000000E+00  0.99933112402E+03  0.99933112402E+03  0.00000000000E+00 0. -1.
         -1   -1    0    0    0  501 -0.00000000000E+00 -0.00000000000E+00 -0.53540538626E+03  0.53540538626E+03  0.00000000000E+00 0.  1.
         23    2    1    2    0    0 -0.15726665068E+03 -0.55881594995E+03  0.69466903346E+03  0.91003615503E+03  0.92696667031E+02 0.  0.
         13    1    3    3    0    0 -0.11257167844E+03 -0.23047814765E+03  0.30025892274E+03  0.39490249432E+03  0.00000000000E+00 0. -1.
        -13    1    3    3    0    0 -0.44694972237E+02 -0.32833780230E+03  0.39441011071E+03  0.51513366071E+03  0.00000000000E+00 0.  1.
         22    1    1    2    0    0  0.15726665068E+03  0.55881594995E+03 -0.23074329571E+03  0.62470035525E+03  0.00000000000E+00 0.  1.
<mgrwt>
<rscale>  0 0.14629385E+04</rscale>
<asrwt>0</asrwt>
<pdfrwt beam="1">  1        1 0.15374325E+00 0.14629385E+04</pdfrwt>
<pdfrwt beam="2">  1       -1 0.82370060E-01 0.14629385E+04</pdfrwt>
<totfact> 0.21543095E+01</totfact>
</mgrwt>
</event>
<event>
 6    1  0.9906445E-006  0.7414003E+03  0.7818608E-02  0.9648939E-01
         -1   -1    0    0    0  501 -0.00000000000E+00  0.00000000000E+00  0.13014869127E+03  0.13014869127E+03  0.00000000000E+00 0.  1.
          1   -1    0    0  501    0  0.00000000000E+00 -0.00000000000E+00 -0.10558586010E+04  0.10558586010E+04  0.00000000000E+00 0. -1.
         23    2    1    2    0    0  0.15306985738E+02 -0.30088885996E+03 -0.14010526103E+03  0.34461376132E+03  0.91437139385E+02 0.  0.
         13    1    3    3    0    0  0.19697092538E+02 -0.46039672434E+02 -0.58447706325E+02  0.76965974735E+02  0.00000000000E+00 0. -1.
        -13    1    3    3    0    0 -0.43901068005E+01 -0.25484918753E+03 -0.81657554703E+02  0.26764778658E+03  0.00000000000E+00 0.  1.
         22    1    1    2    0    0 -0.15306985738E+02  0.30088885996E+03 -0.78560464872E+03  0.84139353097E+03  0.00000000000E+00 0. -1.
<mgrwt>
<rscale>  0 0.74140034E+03</rscale>
<asrwt>0</asrwt>
<pdfrwt beam="1">  1        1 0.16243979E+00 0.74140034E+03</pdfrwt>
<pdfrwt beam="2">  1       -1 0.20022875E-01 0.74140034E+03</pdfrwt>
<totfact> 0.28295005E+02</totfact>
</mgrwt>
</event>
<event>
 6    1  0.9906445E-006  0.9349604E+03  0.7818608E-02  0.9382904E-01
          2   -1    0    0  501    0  0.00000000000E+00  0.00000000000E+00  0.49967649799E+03  0.49967649799E+03  0.00000000000E+00 0. -1.
         -2   -1    0    0    0  501 -0.00000000000E+00 -0.00000000000E+00 -0.43735848390E+03  0.43735848390E+03  0.00000000000E+00 0.  1.
         23    2    1    2    0    0  0.41347172845E+03  0.74581097468E+02 -0.16491047638E+03  0.45938029782E+03  0.85519485973E+02 0.  0.
         13    1    3    3    0    0  0.29584476620E+03  0.53164087076E+02 -0.75038943415E+02  0.30980863266E+03  0.00000000000E+00 0. -1.
        -13    1    3    3    0    0  0.11762696226E+03  0.21417010392E+02 -0.89871532961E+02  0.14957166517E+03  0.00000000000E+00 0.  1.
         22    1    1    2    0    0 -0.41347172845E+03 -0.74581097468E+02  0.22722849047E+03  0.47765468407E+03  0.00000000000E+00 0. -1.
<mgrwt>
<rscale>  0 0.93496044E+03</rscale>
<asrwt>0</asrwt>
<pdfrwt beam="1">  1        2 0.76873307E-01 0.93496044E+03</pdfrwt>
<pdfrwt beam="2">  1       -2 0.67285921E-01 0.93496044E+03</pdfrwt>
<totfact> 0.12516261E+02</totfact>
</mgrwt>
</event>
<event>
 6    1  0.9906445E-006  0.2298446E+04  0.7818608E-02  0.8478534E-01
          1   -1    0    0  501    0  0.00000000000E+00  0.00000000000E+00  0.14684889348E+04  0.14684889348E+04  0.00000000000E+00 0. -1.
         -1   -1    0    0    0  501 -0.00000000000E+00 -0.00000000000E+00 -0.89936912991E+03  0.89936912991E+03  0.00000000000E+00 0.  1.
         23    2    1    2    0    0 -0.34243126023E+03 -0.54438640103E+03  0.12639096988E+04  0.14211011170E+04  0.91896334795E+02 0.  0.
         13    1    3    3    0    0 -0.12316731998E+03 -0.20498222275E+03  0.56974092203E+03  0.61789369522E+03  0.00000000000E+00 0.  1.
        -13    1    3    3    0    0 -0.21926394025E+03 -0.33940417828E+03  0.69416877674E+03  0.80320742173E+03  0.00000000000E+00 0. -1.
         22    1    1    2    0    0  0.34243126023E+03  0.54438640103E+03 -0.69478989384E+03  0.94675694780E+03  0.00000000000E+00 0.  1.
<mgrwt>
<rscale>  0 0.22984461E+04</rscale>
<asrwt>0</asrwt>
<pdfrwt beam="1">  1        1 0.22592137E+00 0.22984461E+04</pdfrwt>
<pdfrwt beam="2">  1       -1 0.13836448E+00 0.22984461E+04</pdfrwt>
<totfact> 0.26884156E+00</totfact>
</mgrwt>
</event>
<event>
 6    1  0.9906445E-006  0.2079683E+04  0.7818608E-02  0.8570246E-01
          1   -1    0    0  501    0  0.00000000000E+00  0.00000000000E+00  0.35786965250E+04  0.35786965250E+04  0.00000000000E+00 0. -1.
         -1   -1    0    0    0  501 -0.00000000000E+00 -0.00000000000E+00 -0.30214080137E+03  0.30214080137E+03  0.00000000000E+00 0.  1.
         23    2    1    2    0    0 -0.89893108475E+03 -0.20240723058E+03  0.75021921307E+03  0.11917069936E+04  0.91054427667E+02 0.  0.
         13    1    3    3    0    0 -0.60661722821E+03 -0.14039854729E+03  0.45098395190E+03  0.76881905447E+03  0.00000000000E+00 0. -1.
        -13    1    3    3    0    0 -0.29231385654E+03 -0.62008683290E+02  0.29923526118E+03  0.42288793913E+03  0.00000000000E+00 0.  1.
         22    1    1    2    0    0  0.89893108475E+03  0.20240723058E+03  0.25263365106E+04  0.26891303328E+04  0.00000000000E+00 0. -1.
<mgrwt>
<rscale>  0 0.20796829E+04</rscale>
<asrwt>0</asrwt>
<pdfrwt beam="1">  1        1 0.55056867E+00 0.20796829E+04</pdfrwt>
<pdfrwt beam="2">  1       -1 0.46483203E-01 0.20796829E+04</pdfrwt>
<totfact> 0.92248970E-01</totfact>
</mgrwt>
</event>
<event>
 6    1  0.9906445E-006  0.2171646E+04  0.7818608E-02  0.8530323E-01
          2   -1    0    0  501    0  0.00000000000E+00  0.00000000000E+00  0.17192997623E+04  0.17192997623E+04  0.00000000000E+00 0. -1.
         -2   -1    0    0    0  501 -0.00000000000E+00 -0.00000000000E+00 -0.68575132923E+03  0.68575132923E+03  0.00000000000E+00 0.  1.
         23    2    1    2    0    0  0.48009943329E+03  0.82007014399E+03 -0.59807628302E+02  0.95645246395E+03  0.90630328814E+02 0.  0.
         13    1    3    3    0    0  0.25741314875E+03  0.45520321545E+03  0.11606659853E+02  0.52307381033E+03  0.00000000000E+00 0.  1.
        -13    1    3    3    0    0  0.22268628453E+03  0.36486692854E+03 -0.71414288155E+02  0.43337865362E+03  0.00000000000E+00 0. -1.
         22    1    1    2    0    0 -0.48009943329E+03 -0.82007014399E+03  0.10933560614E+04  0.14485986276E+04  0.00000000000E+00 0. -1.
<mgrwt>
<rscale>  0 0.21716465E+04</rscale>
<asrwt>0</asrwt>
<pdfrwt beam="1">  1        2 0.26450765E+00 0.21716465E+04</pdfrwt>
<pdfrwt beam="2">  1       -2 0.10550021E+00 0.21716465E+04</pdfrwt>
<totfact> 0.63704025E+00</totfact>
</mgrwt>
</event>
<event>
 6    1  0.9906445E-006  0.3279429E+04  0.7818608E-02  0.8168149E-01
         -2   -1    0    0    0  501 -0.00000000000E+00  0.00000000000E+00  0.79805025766E+03  0.79805025766E+03  0.00000000000E+00 0.  1.
          2   -1    0    0  501    0  0.00000000000E+00 -0.00000000000E+00 -0.33690413168E+04  0.33690413168E+04  0.00000000000E+00 0. -1.
         23    2    1    2    0    0  0.12172382695E+04 -0.57777966686E+02 -0.26781282727E+04  0.29437822593E+04  0.92063277439E+02 0.  0.
         13    1    3    3    0    0  0.58803727338E+03 -0.35772670516E+02 -0.14040475464E+04  0.15226348976E+04  0.00000000000E+00 0.  1.
        -13    1    3    3    0    0  0.62920099612E+03 -0.22005296169E+02 -0.12740807263E+04  0.14211473617E+04  0.00000000000E+00 0. -1.
         22    1    1    2    0    0 -0.12172382695E+04  0.57777966686E+02  0.10713721350E+03  0.12233093152E+04  0.00000000000E+00 0.  1.
<mgrwt>
<rscale>  0 0.32794294E+04</rscale>
<asrwt>0</asrwt>
<pdfrwt beam="1">  1        2 0.51831405E+00 0.32794294E+04</pdfrwt>
<pdfrwt beam="2">  1       -2 0.12277696E+00 0.32794294E+04</pdfrwt>
<totfact> 0.41942860E-01</totfact>
</mgrwt>
</event>
<event>
 6    1  0.9906445E-006  0.1204596E+04  0.7818608E-02  0.9108843E-01
         -2   -1    0    0    0  501 -0.00000000000E+00  0.00000000000E+00  0.24136053340E+03  0.24136053340E+03  0.00000000000E+00 0.  1.
          2   -1    0    0  501    0  0.00000000000E+00 -0.00000000000E+00 -0.15029922682E+04  0.15029922682E+04  0.00000000000E+00 0. -1.
         23    2    1    2    0    0  0.16063839716E+03 -0.22912841609E+03 -0.14011382460E+04  0.14316763037E+04  0.90576643780E+02 0.  0.
         11    1    3    3    0    0  0.96259567599E+02 -0.10759358395E+03 -0.51202009344E+03  0.53198389050E+03  0.00000000000E+00 0. -1.
        -11    1    3    3    0    0  0.64378829561E+02 -0.12153483214E+03 -0.88911815257E+03  0.89969241319E+03  0.00000000000E+00 0.  1.
         22    1    1    2    0    0 -0.16063839716E+03  0.22912841609E+03  0.13950651119E+03  0.31267649794E+03  0.00000000000E+00 0.  1.
<mgrwt>
<rscale>  0 0.12045962E+04</rscale>
<asrwt>0</asrwt>
<pdfrwt beam="1">  1        2 0.23122958E+00 0.12045962E+04</pdfrwt>
<pdfrwt beam="2">  1       -2 0.37132389E-01 0.12045962E+04</pdfrwt>
<totfact> 0.85223185E+01</totfact>
</mgrwt>
</event>
<event>
 6    1  0.9906445E-006  0.9593958E+03  0.7818608E-02  0.9354235E-01
          2   -1    0    0  501    0  0.00000000000E+00  0.00000000000E+00  0.18261061141E+03  0.18261061141E+03  0.00000000000E+00 0. -1.
         -2   -1    0    0    0  501 -0.00000000000E+00 -0.00000000000E+00 -0.12601135042E+04  0.12601135042E+04  0.00000000000E+00 0.  1.
         23    2    1    2    0    0 -0.38415777837E+03  0.19662530527E+02 -0.96357074537E+03  0.10415454173E+04  0.91566703243E+02 0.  0.
         11    1    3    3    0    0 -0.20465172331E+03 -0.20560555326E+02 -0.41936423890E+03  0.46708824558E+03  0.00000000000E+00 0. -1.
        -11    1    3    3    0    0 -0.17950605505E+03  0.40223085854E+02 -0.54420650648E+03  0.57445717171E+03  0.00000000000E+00 0.  1.
         22    1    1    2    0    0  0.38415777837E+03 -0.19662530527E+02 -0.11393214744E+03  0.40117869835E+03  0.00000000000E+00 0. -1.
<mgrwt>
<rscale>  0 0.95939585E+03</rscale>
<asrwt>0</asrwt>
<pdfrwt beam="1">  1        2 0.28093939E-01 0.95939585E+03</pdfrwt>
<pdfrwt beam="2">  1       -2 0.19386362E+00 0.95939585E+03</pdfrwt>
<totfact> 0.28066811E+01</totfact>
</mgrwt>
</event>
<event>
 6    1  0.9906445E-006  0.5228437E+04  0.7818608E-02  0.7794203E-01
         -2   -1    0    0    0  501 -0.00000000000E+00  0.00000000000E+00  0.22049628363E+04  0.22049628363E+04  0.00000000000E+00 0.  1.
          2   -1    0    0  501    0  0.00000000000E+00 -0.00000000000E+00 -0.30994346869E+04  0.30994346869E+04  0.00000000000E+00 0. -1.
         23    2    1    2    0    0  0.20958503794E+04 -0.15482254911E+04 -0.65081682415E+03  0.26873459845E+04  0.93139237076E+02 0.  0.
         11    1    3    3    0    0  0.46302622625E+03 -0.29621872854E+03 -0.12777444052E+03  0.56432714713E+03  0.00000000000E+00 0. -1.
        -11    1    3    3    0    0  0.16328241531E+04 -0.12520067626E+04 -0.52304238363E+03  0.21230188373E+04  0.00000000000E+00 0.  1.
         22    1    1    2    0    0 -0.20958503794E+04  0.15482254911E+04 -0.24365502643E+03  0.26170515387E+04  0.00000000000E+00 0.  1.
<mgrwt>
<rscale>  0 0.52284370E+04</rscale>
<asrwt>0</asrwt>
<pdfrwt beam="1">  1        2 0.47683610E+00 0.52284370E+04</pdfrwt>
<pdfrwt beam="2">  1       -2 0.33922506E+00 0.52284370E+04</pdfrwt>
<totfact> 0.19567440E-02</totfact>
</mgrwt>
</event>
<event>
 6    1  0.9906445E-006  0.2286012E+04  0.7818608E-02  0.8483457E-01
         -1   -1    0    0    0  501 -0.00000000000E+00  0.00000000000E+00  0.56454020753E+03  0.56454020753E+03  0.00000000000E+00 0.  1.
          1   -1    0    0  501    0  0.00000000000E+00 -0.00000000000E+00 -0.23142076413E+04  0.23142076413E+04  0.00000000000E+00 0. -1.
         23    2    1    2    0    0  0.74031297445E+03 -0.69108882631E+03 -0.15382166682E+04  0.18441568706E+04  0.95587546712E+02 0.  0.
         13    1    3    3    0    0  0.36869371872E+03 -0.30571576919E+03 -0.65668302040E+03  0.81279135025E+03  0.00000000000E+00 0.  1.
        -13    1    3    3    0    0  0.37161925574E+03 -0.38537305712E+03 -0.88153364779E+03  0.10313655204E+04  0.00000000000E+00 0. -1.
         22    1    1    2    0    0 -0.74031297445E+03  0.69108882631E+03 -0.21145076560E+03  0.10345909782E+04  0.00000000000E+00 0.  1.
<mgrwt>
<rscale>  0 0.22860125E+04</rscale>
<asrwt>0</asrwt>
<pdfrwt beam="1">  1        1 0.35603194E+00 0.22860125E+04</pdfrwt>
<pdfrwt beam="2">  1       -1 0.86852340E-01 0.22860125E+04</pdfrwt>
<totfact> 0.21509436E+00</totfact>
</mgrwt>
</event>
<event>
 6    1  0.9906445E-006  0.1548587E+04  0.7818608E-02  0.8852771E-01
         -2   -1    0    0    0  501 -0.00000000000E+00  0.00000000000E+00  0.38193102606E+03  0.38193102606E+03  0.00000000000E+00 0.  1.
          2   -1    0    0  501    0  0.00000000000E+00 -0.00000000000E+00 -0.15697339838E+04  0.15697339838E+04  0.00000000000E+00 0. -1.
         23    2    1    2    0    0 -0.27776592599E+03 -0.99430382594E+02 -0.14945114321E+04  0.15260943356E+04  0.91428605314E+02 0.  0.
         13    1    3    3    0    0 -0.12393277169E+02  0.54508895624E+01 -0.20230672397E+03  0.20275925646E+03  0.00000000000E+00 0.  1.
        -13    1    3    3    0    0 -0.26537264882E+03 -0.10488127216E+03 -0.12922047081E+04  0.13233350791E+04  0.00000000000E+00 0. -1.
         22    1    1    2    0    0  0.27776592599E+03  0.99430382594E+02  0.30670847430E+03  0.42557067431E+03  0.00000000000E+00 0.  1.
<mgrwt>
<rscale>  0 0.15485866E+04</rscale>
<asrwt>0</asrwt>
<pdfrwt beam="1">  1        2 0.24149754E+00 0.15485866E+04</pdfrwt>
<pdfrwt beam="2">  1       -2 0.58758619E-01 0.15485866E+04</pdfrwt>
<totfact> 0.30214021E+01</totfact>
</mgrwt>
</event>
<event>
 6    1  0.9906445E-006  0.2175421E+04  0.7818608E-02  0.8528729E-01
         -1   -1    0    0    0  501 -0.00000000000E+00  0.00000000000E+00  0.16888741097E+04  0.16888741097E+04  0.00000000000E+00 0.  1.
          1   -1    0    0  501    0  0.00000000000E+00 -0.00000000000E+00 -0.70053404935E+03  0.70053404935E+03  0.00000000000E+00 0. -1.
         23    2    1    2    0    0  0.90527889984E+03  0.35473969275E+03 -0.35656105720E+02  0.97733936318E+03  0.92470194330E+02 0.  0.
         13    1    3    3    0    0  0.65868866806E+03  0.26983829471E+03 -0.65579086619E+02  0.71483150695E+03  0.00000000000E+00 0. -1.
        -13    1    3    3    0    0  0.24659023178E+03  0.84901398039E+02  0.29922980898E+02  0.26250785623E+03  0.00000000000E+00 0.  1.
         22    1    1    2    0    0 -0.90527889984E+03 -0.35473969275E+03  0.10239961660E+04  0.14120687958E+04  0.00000000000E+00 0.  1.
<mgrwt>
<rscale>  0 0.21754207E+04</rscale>
<asrwt>0</asrwt>
<pdfrwt beam="1">  1        1 0.10777447E+00 0.21754207E+04</pdfrwt>
<pdfrwt beam="2">  1       -1 0.25982679E+00 0.21754207E+04</pdfrwt>
<totfact> 0.14957315E+00</totfact>
</mgrwt>
</event>
<event>
 6    1  0.9906445E-006  0.8519086E+03  0.7818608E-02  0.9487779E-01
          2   -1    0    0  501    0  0.00000000000E+00  0.00000000000E+00  0.17804348798E+04  0.17804348798E+04  0.00000000000E+00 0. -1.
         -2   -1    0    0    0  501 -0.00000000000E+00 -0.00000000000E+00 -0.10190603681E+03  0.10190603681E+03  0.00000000000E+00 0.  1.
         23    2    1    2    0    0  0.23079806361E+03 -0.32090284776E+03  0.11704717507E+04  0.12386263891E+04  0.89133768963E+02 0.  0.
         13    1    3    3    0    0  0.16216253701E+03 -0.18478617403E+03  0.60700822987E+03  0.65490580213E+03  0.00000000000E+00 0.  1.
        -13    1    3    3    0    0  0.68635526598E+02 -0.13611667373E+03  0.56346352083E+03  0.58372058699E+03  0.00000000000E+00 0. -1.
         22    1    1    2    0    0 -0.23079806361E+03  0.32090284776E+03  0.50805709227E+03  0.64371452747E+03  0.00000000000E+00 0. -1.
<mgrwt>
<rscale>  0 0.85190859E+03</rscale>
<asrwt>0</asrwt>
<pdfrwt beam="1">  1        2 0.27391304E+00 0.85190859E+03</pdfrwt>
<pdfrwt beam="2">  1       -2 0.15677853E-01 0.85190859E+03</pdfrwt>
<totfact> 0.29079805E+02</totfact>
</mgrwt>
</event>
<event>
 6    1  0.9906445E-006  0.2064964E+04  0.7818608E-02  0.8576836E-01
         -2   -1    0    0    0  501 -0.00000000000E+00  0.00000000000E+00  0.91719253610E+03  0.91719253610E+03  0.00000000000E+00 0.  1.
          2   -1    0    0  501    0  0.00000000000E+00 -0.00000000000E+00 -0.11622629340E+04  0.11622629340E+04  0.00000000000E+00 0. -1.
         23    2    1    2    0    0 -0.86556378358E+03  0.18568124757E+02 -0.68561916873E+03  0.11080499636E+04  0.90308573955E+02 0.  0.
         11    1    3    3    0    0 -0.54655584923E+03  0.55274442240E+02 -0.43112606540E+03  0.69831815425E+03  0.00000000000E+00 0. -1.
        -11    1    3    3    0    0 -0.31900793436E+03 -0.36706317483E+02 -0.25449310333E+03  0.40973180932E+03  0.00000000000E+00 0.  1.
         22    1    1    2    0    0  0.86556378358E+03 -0.18568124757E+02  0.44054877081E+03  0.97140550656E+03  0.00000000000E+00 0.  1.
<mgrwt>
<rscale>  0 0.20649638E+04</rscale>
<asrwt>0</asrwt>
<pdfrwt beam="1">  1        2 0.17880968E+00 0.20649638E+04</pdfrwt>
<pdfrwt beam="2">  1       -2 0.14110654E+00 0.20649638E+04</pdfrwt>
<totfact> 0.64906683E+00</totfact>
</mgrwt>
</event>
<event>
 6    1  0.9906445E-006  0.2443005E+04  0.7818608E-02  0.8423576E-01
         -2   -1    0    0    0  501 -0.00000000000E+00  0.00000000000E+00  0.13536568341E+04  0.13536568341E+04  0.00000000000E+00 0.  1.
          2   -1    0    0  501    0  0.00000000000E+00 -0.00000000000E+00 -0.11022500514E+04  0.11022500514E+04  0.00000000000E+00 0. -1.
         23    2    1    2    0    0  0.20666865481E+03 -0.57754304971E+03  0.11858111189E+04  0.13381504851E+04  0.90723777648E+02 0.  0.
         11    1    3    3    0    0  0.81425765612E+02 -0.20661631653E+03  0.33968171870E+03  0.40583756305E+03  0.00000000000E+00 0. -1.
        -11    1    3    3    0    0  0.12524288920E+03 -0.37092673318E+03  0.84612940020E+03  0.93231292202E+03  0.00000000000E+00 0.  1.
         22    1    1    2    0    0 -0.20666865481E+03  0.57754304971E+03 -0.93440433621E+03  0.11177564004E+04  0.00000000000E+00 0. -1.
<mgrwt>
<rscale>  0 0.24430050E+04</rscale>
<asrwt>0</asrwt>
<pdfrwt beam="1">  1        2 0.16957693E+00 0.24430050E+04</pdfrwt>
<pdfrwt beam="2">  1       -2 0.20825490E+00 0.24430050E+04</pdfrwt>
<totfact> 0.22864903E+00</totfact>
</mgrwt>
</event>
<event>
 6    1  0.9906445E-006  0.2743089E+04  0.7818608E-02  0.8321158E-01
          1   -1    0    0  501    0  0.00000000000E+00  0.00000000000E+00  0.15615052256E+04  0.15615052256E+04  0.00000000000E+00 0. -1.
         -1   -1    0    0    0  501 -0.00000000000E+00 -0.00000000000E+00 -0.12046932126E+04  0.12046932126E+04  0.00000000000E+00 0.  1.
         23    2    1    2    0    0  0.83558407149E+03  0.10185966746E+04 -0.20043934944E+03  0.13357198446E+04  0.90728409502E+02 0.  0.
         13    1    3    3    0    0  0.30792155826E+03  0.42866605676E+03 -0.51039948716E+02  0.53025970111E+03  0.00000000000E+00 0. -1.
        -13    1    3    3    0    0  0.52766251322E+03  0.58993061786E+03 -0.14939940072E+03  0.80546014345E+03  0.00000000000E+00 0.  1.
         22    1    1    2    0    0 -0.83558407149E+03 -0.10185966746E+04  0.55725136244E+03  0.14304785937E+04  0.00000000000E+00 0.  1.
<mgrwt>
<rscale>  0 0.27430893E+04</rscale>
<asrwt>0</asrwt>
<pdfrwt beam="1">  1        1 0.24023157E+00 0.27430893E+04</pdfrwt>
<pdfrwt beam="2">  1       -1 0.18533742E+00 0.27430893E+04</pdfrwt>
<totfact> 0.98360845E-01</totfact>
</mgrwt>
</event>
<event>
 6    1  0.9906445E-006  0.1298199E+04  0.7818608E-02  0.9030994E-01
          2   -1    0    0  501    0  0.00000000000E+00  0.00000000000E+00  0.10640417619E+04  0.10640417619E+04  0.00000000000E+00 0. -1.
         -2   -1    0    0    0  501 -0.00000000000E+00 -0.00000000000E+00 -0.39597161955E+03  0.39597161955E+03  0.00000000000E+00 0.  1.
         23    2    1    2    0    0  0.52366948360E+03 -0.15126415653E+03 -0.54603983797E+02  0.55482364128E+03  0.87960813864E+02 0.  0.
         13    1    3    3    0    0  0.40641236165E+03 -0.12463260406E+03 -0.78362121334E+02  0.43225561392E+03  0.00000000000E+00 0. -1.
        -13    1    3    3    0    0  0.11725712194E+03 -0.26631552470E+02  0.23758137537E+02  0.12256802737E+03  0.00000000000E+00 0.  1.
         22    1    1    2    0    0 -0.52366948360E+03  0.15126415653E+03  0.72267412616E+03  0.90518974018E+03  0.00000000000E+00 0. -1.
<mgrwt>
<rscale>  0 0.12981993E+04</rscale>
<asrwt>0</asrwt>
<pdfrwt beam="1">  1        2 0.16369873E+00 0.12981993E+04</pdfrwt>
<pdfrwt beam="2">  1       -2 0.60918711E-01 0.12981993E+04</pdfrwt>
<totfact> 0.56395256E+01</totfact>
</mgrwt>
</event>
<event>
 6    1  0.9906445E-006  0.3467423E+04  0.7818608E-02  0.8121554E-01
         -1   -1    0    0    0  501 -0.00000000000E+00  0.00000000000E+00  0.24159308518E+04  0.24159308518E+04  0.00000000000E+00 0.  1.
          1   -1    0    0  501    0  0.00000000000E+00 -0.00000000000E+00 -0.12441396874E+04  0.12441396874E+04  0.00000000000E+00 0. -1.
         23    2    1    2    0    0  0.80183971322E+02  0.16590569290E+04  0.11061681495E+04  0.19977812314E+04  0.92857475081E+02 0.  0.
         13    1    3    3    0    0  0.11472571373E+02  0.63409975837E+03  0.37352234408E+03  0.73602517959E+03  0.00000000000E+00 0.  1.
        -13    1    3    3    0    0  0.68711399949E+02  0.10249571706E+04  0.73264580539E+03  0.12617560518E+04  0.00000000000E+00 0. -1.
         22    1    1    2    0    0 -0.80183971322E+02 -0.16590569290E+04  0.65623014992E+02  0.16622893078E+04  0.00000000000E+00 0. -1.
<mgrwt>
<rscale>  0 0.34674229E+04</rscale>
<asrwt>0</asrwt>
<pdfrwt beam="1">  1        1 0.19140611E+00 0.34674229E+04</pdfrwt>
<pdfrwt beam="2">  1       -1 0.37168167E+00 0.34674229E+04</pdfrwt>
<totfact> 0.90316685E-02</totfact>
</mgrwt>
</event>
<event>
 6    1  0.9906445E-006  0.1654309E+04  0.7818608E-02  0.8787862E-01
         -1   -1    0    0    0  501 -0.00000000000E+00  0.00000000000E+00  0.25763096801E+04  0.25763096801E+04  0.00000000000E+00 0.  1.
          1   -1    0    0  501    0  0.00000000000E+00 -0.00000000000E+00 -0.26556759404E+03  0.26556759404E+03  0.00000000000E+00 0. -1.
         23    2    1    2    0    0  0.62159386403E+03 -0.44984788742E+03  0.16781281955E+04  0.18474214490E+04  0.90053962386E+02 0.  0.
         13    1    3    3    0    0  0.26673669009E+03 -0.21992278022E+03  0.66211367944E+03  0.74693307304E+03  0.00000000000E+00 0.  1.
        -13    1    3    3    0    0  0.35485717395E+03 -0.22992510720E+03  0.10160145160E+04  0.11004883760E+04  0.00000000000E+00 0. -1.
         22    1    1    2    0    0 -0.62159386403E+03  0.44984788742E+03  0.63261389063E+03  0.99445582518E+03  0.00000000000E+00 0. -1.
<mgrwt>
<rscale>  0 0.16543088E+04</rscale>
<asrwt>0</asrwt>
<pdfrwt beam="1">  1        1 0.40856555E-01 0.16543088E+04</pdfrwt>
<pdfrwt beam="2">  1       -1 0.39635532E+00 0.16543088E+04</pdfrwt>
<totfact> 0.74730797E-01</totfact>
</mgrwt>
</event>
<event>
 6    1  0.9906445E-006  0.2458674E+04  0.7818608E-02  0.8417858E-01
          1   -1    0    0  501    0  0.00000000000E+00  0.00000000000E+00  0.14069060232E+04  0.14069060232E+04  0.00000000000E+00 0. -1.
         -1   -1    0    0    0  501 -0.00000000000E+00 -0.00000000000E+00 -0.10741791875E+04  0.10741791875E+04  0.00000000000E+00 0.  1.
         23    2    1    2    0    0  0.86399067351E+03  0.64683413023E+03 -0.42376766868E+03  0.11630722324E+04  0.91014860546E+02 0.  0.
         13    1    3    3    0    0  0.48665542882E+03  0.32885690513E+03 -0.19227089267E+03  0.61801979468E+03  0.00000000000E+00 0. -1.
        -13    1    3    3    0    0  0.37733524468E+03  0.31797722510E+03 -0.23149677601E+03  0.54505243772E+03  0.00000000000E+00 0.  1.
         22    1    1    2    0    0 -0.86399067351E+03 -0.64683413023E+03  0.75649450437E+03  0.13180129783E+04  0.00000000000E+00 0. -1.
<mgrwt>
<rscale>  0 0.24586738E+04</rscale>
<asrwt>0</asrwt>
<pdfrwt beam="1">  1        1 0.21644708E+00 0.24586738E+04</pdfrwt>
<pdfrwt beam="2">  1       -1 0.16525834E+00 0.24586738E+04</pdfrwt>
<totfact> 0.18073526E+00</totfact>
</mgrwt>
</event>
<event>
 6    1  0.9906445E-006  0.1133553E+04  0.7818608E-02  0.9173092E-01
          1   -1    0    0  501    0  0.00000000000E+00  0.00000000000E+00  0.14070715831E+04  0.14070715831E+04  0.00000000000E+00 0. -1.
         -1   -1    0    0    0  501 -0.00000000000E+00 -0.00000000000E+00 -0.22830080581E+03  0.22830080581E+03  0.00000000000E+00 0.  1.
         23    2    1    2    0    0 -0.21915237467E+02 -0.45909842950E+03  0.12353569269E+03  0.48438466987E+03  0.90087709654E+02 0.  0.
         13    1    3    3    0    0  0.47062524105E+01 -0.36810963588E+03  0.12724146555E+03  0.38950897730E+03  0.00000000000E+00 0. -1.
        -13    1    3    3    0    0 -0.26621489878E+02 -0.90988793617E+02 -0.37057728659E+01  0.94875692565E+02  0.00000000000E+00 0.  1.
         22    1    1    2    0    0  0.21915237467E+02  0.45909842950E+03  0.10552350846E+04  0.11509877190E+04  0.00000000000E+00 0. -1.
<mgrwt>
<rscale>  0 0.11335530E+04</rscale>
<asrwt>0</asrwt>
<pdfrwt beam="1">  1        1 0.21647255E+00 0.11335530E+04</pdfrwt>
<pdfrwt beam="2">  1       -1 0.35123202E-01 0.11335530E+04</pdfrwt>
<totfact> 0.58206121E+01</totfact>
</mgrwt>
</event>
<event>
 6    1  0.9906445E-006  0.8884936E+03  0.7818608E-02  0.9440080E-01
          1   -1    0    0  501    0  0.00000000000E+00  0.00000000000E+00  0.25276796477E+04  0.25276796477E+04  0.00000000000E+00 0. -1.
         -1   -1    0    0    0  501 -0.00000000000E+00 -0.00000000000E+00 -0.78077622726E+02  0.78077622726E+02  0.00000000000E+00 0.  1.
         23    2    1    2    0    0  0.19597001652E+03 -0.20686618356E+02  0.23900778492E+04  0.23999046264E+04  0.90762915650E+02 0.  0.
         11    1    3    3    0    0  0.23421931440E+02 -0.32687796091E+02  0.30018771175E+03  0.30286918161E+03  0.00000000000E+00 0.  1.
        -11    1    3    3    0    0  0.17254808508E+03  0.12001177736E+02  0.20898901375E+04  0.20970354448E+04  0.00000000000E+00 0. -1.
         22    1    1    2    0    0 -0.19597001652E+03  0.20686618356E+02  0.59524175735E+02  0.20585264402E+03  0.00000000000E+00 0.  1.
<mgrwt>
<rscale>  0 0.88849360E+03</rscale>
<asrwt>0</asrwt>
<pdfrwt beam="1">  1        1 0.38887373E+00 0.88849360E+03</pdfrwt>
<pdfrwt beam="2">  1       -1 0.12011944E-01 0.88849360E+03</pdfrwt>
<totfact> 0.62771489E+01</totfact>
</mgrwt>
</event>
<event>
 6    1  0.9906445E-006  0.1461631E+04  0.7818608E-02  0.8910376E-01
          2   -1    0    0  501    0  0.00000000000E+00  0.00000000000E+00  0.12325000529E+04  0.12325000529E+04  0.00000000000E+00 0.  1.
         -2   -1    0    0    0  501 -0.00000000000E+00 -0.00000000000E+00 -0.43333989241E+03  0.43333989241E+03  0.00000000000E+00 0. -1.
         23    2    1    2    0    0 -0.38314068354E+03 -0.49115714184E+03  0.83064002138E+03  0.10421227795E+04  0.89581923356E+02 0.  0.
         11    1    3    3    0    0 -0.36385500318E+03 -0.47432095562E+03  0.81908037145E+03  0.10140332772E+04  0.00000000000E+00 0.  1.
        -11    1    3    3    0    0 -0.19285680361E+02 -0.16836186217E+02  0.11559649925E+02  0.28089502304E+02  0.00000000000E+00 0. -1.
         22    1    1    2    0    0  0.38314068354E+03  0.49115714184E+03 -0.31479860858E+02  0.62371716587E+03  0.00000000000E+00 0. -1.
<mgrwt>
<rscale>  0 0.14616312E+04</rscale>
<asrwt>0</asrwt>
<pdfrwt beam="1">  1        2 0.18961539E+00 0.14616312E+04</pdfrwt>
<pdfrwt beam="2">  1       -2 0.66667676E-01 0.14616312E+04</pdfrwt>
<totfact> 0.36281809E+01</totfact>
</mgrwt>
</event>
<event>
 6    1  0.9906445E-006  0.1826058E+04  0.7818608E-02  0.8692564E-01
          1   -1    0    0  501    0  0.00000000000E+00  0.00000000000E+00  0.16230178042E+04  0.16230178042E+04  0.00000000000E+00 0. -1.
         -1   -1    0    0    0  501 -0.00000000000E+00 -0.00000000000E+00 -0.51362471637E+03  0.51362471637E+03  0.00000000000E+00 0.  1.
         23    2    1    2    0    0  0.44528246615E+03  0.48518742807E+03 -0.17966732986E+03  0.68910665730E+03  0.94362708261E+02 0.  0.
         11    1    3    3    0    0  0.15691056618E+02  0.27758529448E+02  0.10211784912E+02  0.33481722865E+02  0.00000000000E+00 0. -1.
        -11    1    3    3    0    0  0.42959140953E+03  0.45742889862E+03 -0.18987911477E+03  0.65562493444E+03  0.00000000000E+00 0.  1.
         22    1    1    2    0    0 -0.44528246615E+03 -0.48518742807E+03  0.12890604177E+04  0.14475358633E+04  0.00000000000E+00 0. -1.
<mgrwt>
<rscale>  0 0.18260581E+04</rscale>
<asrwt>0</asrwt>
<pdfrwt beam="1">  1        1 0.24969505E+00 0.18260581E+04</pdfrwt>
<pdfrwt beam="2">  1       -1 0.79019188E-01 0.18260581E+04</pdfrwt>
<totfact> 0.81121175E+00</totfact>
</mgrwt>
</event>
<event>
 6    1  0.9906445E-006  0.1033627E+04  0.7818608E-02  0.9272414E-01
         -1   -1    0    0    0  501 -0.00000000000E+00  0.00000000000E+00  0.52472776714E+03  0.52472776714E+03  0.00000000000E+00 0.  1.
          1   -1    0    0  501    0  0.00000000000E+00 -0.00000000000E+00 -0.50901833948E+03  0.50901833948E+03  0.00000000000E+00 0. -1.
         23    2    1    2    0    0 -0.26189707013E+03 -0.12456230005E+03  0.43127756825E+03  0.52698904312E+03  0.87242585673E+02 0.  0.
         11    1    3    3    0    0 -0.21554438505E+03 -0.11918397785E+03  0.30294219057E+03  0.39043331483E+03  0.00000000000E+00 0. -1.
        -11    1    3    3    0    0 -0.46352685081E+02 -0.53783222008E+01  0.12833537768E+03  0.13655572829E+03  0.00000000000E+00 0.  1.
         22    1    1    2    0    0  0.26189707013E+03  0.12456230005E+03 -0.41556814059E+03  0.50675706351E+03  0.00000000000E+00 0. -1.
<mgrwt>
<rscale>  0 0.10336267E+04</rscale>
<asrwt>0</asrwt>
<pdfrwt beam="1">  1        1 0.78310514E-01 0.10336267E+04</pdfrwt>
<pdfrwt beam="2">  1       -1 0.80727349E-01 0.10336267E+04</pdfrwt>
<totfact> 0.66236088E+01</totfact>
</mgrwt>
</event>
<event>
 6    1  0.9906445E-006  0.3001708E+03  0.7818608E-02  0.1085155E+00
          1   -1    0    0  501    0  0.00000000000E+00  0.00000000000E+00  0.13410212560E+03  0.13410212560E+03  0.00000000000E+00 0.  1.
         -1   -1    0    0    0  501 -0.00000000000E+00 -0.00000000000E+00 -0.16797365437E+03  0.16797365437E+03  0.00000000000E+00 0. -1.
         23    2    1    2    0    0 -0.11560675167E+03 -0.38744156592E+02 -0.79096500872E+02  0.17203221494E+03  0.92047790994E+02 0.  0.
         11    1    3    3    0    0 -0.11308606485E+03 -0.62182350700E+02 -0.69515986626E+02  0.14658640864E+03  0.00000000000E+00 0.  1.
        -11    1    3    3    0    0 -0.25206868180E+01  0.23438194109E+02 -0.95805142458E+01  0.25445806301E+02  0.00000000000E+00 0. -1.
         22    1    1    2    0    0  0.11560675167E+03  0.38744156592E+02  0.45224972104E+02  0.13004356502E+03  0.00000000000E+00 0.  1.
<mgrwt>
<rscale>  0 0.30017078E+03</rscale>
<asrwt>0</asrwt>
<pdfrwt beam="1">  1        1 0.20631096E-01 0.30017078E+03</pdfrwt>
<pdfrwt beam="2">  1       -1 0.25842101E-01 0.30017078E+03</pdfrwt>
<totfact> 0.32245613E+03</totfact>
</mgrwt>
</event>
<event>
 6    1  0.9906445E-006  0.2011306E+04  0.7818608E-02  0.8601353E-01
          2   -1    0    0  501    0  0.00000000000E+00  0.00000000000E+00  0.12589919461E+04  0.12589919461E+04  0.00000000000E+00 0.  1.
         -2   -1    0    0    0  501 -0.00000000000E+00 -0.00000000000E+00 -0.80329186357E+03  0.80329186357E+03  0.00000000000E+00 0. -1.
         23    2    1    2    0    0  0.74599297105E+03  0.17582763705E+03 -0.43615801495E+03  0.88634514763E+03  0.89179795402E+02 0.  0.
         11    1    3    3    0    0  0.64291486965E+03  0.12873317063E+03 -0.39670951911E+03  0.76634861610E+03  0.00000000000E+00 0. -1.
        -11    1    3    3    0    0  0.10307810140E+03  0.47094466420E+02 -0.39448495843E+02  0.11999653153E+03  0.00000000000E+00 0.  1.
         22    1    1    2    0    0 -0.74599297105E+03 -0.17582763705E+03  0.89185809744E+03  0.11759386620E+04  0.00000000000E+00 0.  1.
<mgrwt>
<rscale>  0 0.20113060E+04</rscale>
<asrwt>0</asrwt>
<pdfrwt beam="1">  1        2 0.19369107E+00 0.20113060E+04</pdfrwt>
<pdfrwt beam="2">  1       -2 0.12358336E+00 0.20113060E+04</pdfrwt>
<totfact> 0.80034317E+00</totfact>
</mgrwt>
</event>
<event>
 6    1  0.9906445E-006  0.4425336E+04  0.7818608E-02  0.7923840E-01
         -2   -1    0    0    0  501 -0.00000000000E+00  0.00000000000E+00  0.31395148445E+04  0.31395148445E+04  0.00000000000E+00 0.  1.
          2   -1    0    0  501    0  0.00000000000E+00 -0.00000000000E+00 -0.15594447867E+04  0.15594447867E+04  0.00000000000E+00 0. -1.
         23    2    1    2    0    0  0.21350219733E+03 -0.21299945885E+04  0.13823210512E+04  0.25491771294E+04  0.70939505367E+02 0.  0.
         11    1    3    3    0    0  0.10514899624E+03 -0.11224506921E+04  0.68668774363E+03  0.13200348196E+04  0.00000000000E+00 0.  1.
        -11    1    3    3    0    0  0.10835320109E+03 -0.10075438964E+04  0.69563330753E+03  0.12291423099E+04  0.00000000000E+00 0. -1.
         22    1    1    2    0    0 -0.21350219733E+03  0.21299945885E+04  0.19774900658E+03  0.21497825018E+04  0.00000000000E+00 0. -1.
<mgrwt>
<rscale>  0 0.44253362E+04</rscale>
<asrwt>0</asrwt>
<pdfrwt beam="1">  1        2 0.23991458E+00 0.44253362E+04</pdfrwt>
<pdfrwt beam="2">  1       -2 0.48300228E+00 0.44253362E+04</pdfrwt>
<totfact> 0.18971521E-02</totfact>
</mgrwt>
</event>
<event>
 6    1  0.9906445E-006  0.1119932E+04  0.7818608E-02  0.9185980E-01
          4   -1    0    0  501    0  0.00000000000E+00  0.00000000000E+00  0.12989205650E+03  0.12989205650E+03  0.00000000000E+00 0. -1.
         -4   -1    0    0    0  501 -0.00000000000E+00 -0.00000000000E+00 -0.24140185265E+04  0.24140185265E+04  0.00000000000E+00 0.  1.
         23    2    1    2    0    0 -0.30907638452E+03 -0.33874919714E+03 -0.18650837122E+04  0.19227213503E+04  0.89671105557E+02 0.  0.
         11    1    3    3    0    0 -0.90009258585E+01 -0.33443867384E+02 -0.22691546736E+03  0.22954332545E+03  0.00000000000E+00 0. -1.
        -11    1    3    3    0    0 -0.30007545866E+03 -0.30530532976E+03 -0.16381682449E+04  0.16931780248E+04  0.00000000000E+00 0.  1.
         22    1    1    2    0    0  0.30907638452E+03  0.33874919714E+03 -0.41904275783E+03  0.62118923278E+03  0.00000000000E+00 0. -1.
<mgrwt>
<rscale>  0 0.11199318E+04</rscale>
<asrwt>0</asrwt>
<pdfrwt beam="1">  1        4 0.19983394E-01 0.11199318E+04</pdfrwt>
<pdfrwt beam="2">  1       -4 0.37138746E+00 0.11199318E+04</pdfrwt>
<totfact> 0.50380742E-01</totfact>
</mgrwt>
</event>
<event>
 6    1  0.9906445E-006  0.1540745E+04  0.7818608E-02  0.8857801E-01
         -1   -1    0    0    0  501 -0.00000000000E+00  0.00000000000E+00  0.51456608497E+03  0.51456608497E+03  0.00000000000E+00 0.  1.
          1   -1    0    0  501    0  0.00000000000E+00 -0.00000000000E+00 -0.11533478419E+04  0.11533478419E+04  0.00000000000E+00 0. -1.
         23    2    1    2    0    0 -0.22673891910E+03 -0.37816726594E+03  0.35980843246E+03  0.57630805258E+03  0.90817646605E+02 0.  0.
         13    1    3    3    0    0 -0.55235153704E+02 -0.33860042706E+02  0.40643654566E+02  0.76480921498E+02  0.00000000000E+00 0.  1.
        -13    1    3    3    0    0 -0.17150376540E+03 -0.34430722323E+03  0.31916477789E+03  0.49982713108E+03  0.00000000000E+00 0. -1.
         22    1    1    2    0    0  0.22673891910E+03  0.37816726594E+03 -0.99859018934E+03  0.10916058743E+04  0.00000000000E+00 0. -1.
<mgrwt>
<rscale>  0 0.15407449E+04</rscale>
<asrwt>0</asrwt>
<pdfrwt beam="1">  1        1 0.17743813E+00 0.15407449E+04</pdfrwt>
<pdfrwt beam="2">  1       -1 0.79164015E-01 0.15407449E+04</pdfrwt>
<totfact> 0.17790922E+01</totfact>
</mgrwt>
</event>
<event>
 6    1  0.9906445E-006  0.1518938E+04  0.7818608E-02  0.8871956E-01
          1   -1    0    0  501    0  0.00000000000E+00  0.00000000000E+00  0.10605955810E+04  0.10605955810E+04  0.00000000000E+00 0. -1.
         -1   -1    0    0    0  501 -0.00000000000E+00 -0.00000000000E+00 -0.54383889064E+03  0.54383889064E+03  0.00000000000E+00 0.  1.
         23    2    1    2    0    0 -0.47266773000E+03  0.42171912467E+02  0.88175895572E+03  0.10057526639E+04  0.94054833529E+02 0.  0.
         11    1    3    3    0    0 -0.68330992423E+02  0.91156413089E+01  0.69893140662E+02  0.98169600965E+02  0.00000000000E+00 0. -1.
        -11    1    3    3    0    0 -0.40433673757E+03  0.33056271158E+02  0.81186581506E+03  0.90758306291E+03  0.00000000000E+00 0.  1.
         22    1    1    2    0    0  0.47266773000E+03 -0.42171912467E+02 -0.36500226539E+03  0.59868180774E+03  0.00000000000E+00 0.  1.
<mgrwt>
<rscale>  0 0.15189380E+04</rscale>
<asrwt>0</asrwt>
<pdfrwt beam="1">  1        1 0.16316855E+00 0.15189380E+04</pdfrwt>
<pdfrwt beam="2">  1       -1 0.83667522E-01 0.15189380E+04</pdfrwt>
<totfact> 0.18590744E+01</totfact>
</mgrwt>
</event>
<event>
 6    1  0.9906445E-006  0.1416715E+04  0.7818608E-02  0.8941807E-01
         -2   -1    0    0    0  501 -0.00000000000E+00  0.00000000000E+00  0.45500056560E+03  0.45500056560E+03  0.00000000000E+00 0.  1.
          2   -1    0    0  501    0  0.00000000000E+00 -0.00000000000E+00 -0.11027908045E+04  0.11027908045E+04  0.00000000000E+00 0. -1.
         23    2    1    2    0    0  0.20774630312E+03  0.46679217396E+02 -0.10647045293E+04  0.10896514323E+04  0.91689876554E+02 0.  0.
         13    1    3    3    0    0  0.56778503978E+02 -0.11394974376E+02 -0.46213366690E+03  0.46574796836E+03  0.00000000000E+00 0.  1.
        -13    1    3    3    0    0  0.15096779914E+03  0.58074191773E+02 -0.60257086239E+03  0.62390346395E+03  0.00000000000E+00 0. -1.
         22    1    1    2    0    0 -0.20774630312E+03 -0.46679217396E+02  0.41691429040E+03  0.46813993777E+03  0.00000000000E+00 0.  1.
<mgrwt>
<rscale>  0 0.14167151E+04</rscale>
<asrwt>0</asrwt>
<pdfrwt beam="1">  1        2 0.16966012E+00 0.14167151E+04</pdfrwt>
<pdfrwt beam="2">  1       -2 0.70000087E-01 0.14167151E+04</pdfrwt>
<totfact> 0.39220211E+01</totfact>
</mgrwt>
</event>
<event>
 6    1  0.9906445E-006  0.2071925E+04  0.7818608E-02  0.8573713E-01
          2   -1    0    0  501    0  0.00000000000E+00  0.00000000000E+00  0.13457888344E+04  0.13457888344E+04  0.00000000000E+00 0. -1.
         -2   -1    0    0    0  501 -0.00000000000E+00 -0.00000000000E+00 -0.79746387098E+03  0.79746387098E+03  0.00000000000E+00 0.  1.
         23    2    1    2    0    0  0.63815069722E+03  0.52461949369E+03 -0.36844419420E+03  0.90918317172E+03  0.91656914512E+02 0.  0.
         13    1    3    3    0    0  0.45073579445E+03  0.31853388173E+03 -0.26227338292E+03  0.61107603258E+03  0.00000000000E+00 0. -1.
        -13    1    3    3    0    0  0.18741490277E+03  0.20608561196E+03 -0.10617081129E+03  0.29810713914E+03  0.00000000000E+00 0.  1.
         22    1    1    2    0    0 -0.63815069722E+03 -0.52461949369E+03  0.91676915763E+03  0.12340695337E+04  0.00000000000E+00 0. -1.
<mgrwt>
<rscale>  0 0.20719247E+04</rscale>
<asrwt>0</asrwt>
<pdfrwt beam="1">  1        2 0.20704444E+00 0.20719247E+04</pdfrwt>
<pdfrwt beam="2">  1       -2 0.12268675E+00 0.20719247E+04</pdfrwt>
<totfact> 0.72176319E+00</totfact>
</mgrwt>
</event>
<event>
 6    1  0.9906445E-006  0.1016441E+04  0.7818608E-02  0.9290695E-01
         -2   -1    0    0    0  501 -0.00000000000E+00  0.00000000000E+00  0.10789464225E+03  0.10789464225E+03  0.00000000000E+00 0. -1.
          2   -1    0    0  501    0  0.00000000000E+00 -0.00000000000E+00 -0.23938893935E+04  0.23938893935E+04  0.00000000000E+00 0.  1.
         23    2    1    2    0    0  0.30944829953E+03  0.39804740961E+03 -0.11646117247E+04  0.12722719852E+04  0.90308053264E+02 0.  0.
         13    1    3    3    0    0  0.28139120654E+03  0.34368359488E+03 -0.10807347610E+04  0.11684549834E+04  0.00000000000E+00 0. -1.
        -13    1    3    3    0    0  0.28057092999E+02  0.54363814733E+02 -0.83876963718E+02  0.10381700180E+03  0.00000000000E+00 0.  1.
         22    1    1    2    0    0 -0.30944829953E+03 -0.39804740961E+03 -0.11213830266E+04  0.12295120506E+04  0.00000000000E+00 0.  1.
<mgrwt>
<rscale>  0 0.10164405E+04</rscale>
<asrwt>0</asrwt>
<pdfrwt beam="1">  1        2 0.36829069E+00 0.10164405E+04</pdfrwt>
<pdfrwt beam="2">  1       -2 0.16599175E-01 0.10164405E+04</pdfrwt>
<totfact> 0.11925339E+02</totfact>
</mgrwt>
</event>
<event>
 6    1  0.9906445E-006  0.1588862E+04  0.7818608E-02  0.8827420E-01
          4   -1    0    0  501    0  0.00000000000E+00  0.00000000000E+00  0.82624928001E+03  0.82624928001E+03  0.00000000000E+00 0. -1.
         -4   -1    0    0    0  501 -0.00000000000E+00 -0.00000000000E+00 -0.76383849499E+03  0.76383849499E+03  0.00000000000E+00 0.  1.
         23    2    1    2    0    0  0.49437087002E+03  0.78122511635E+02  0.64531902154E+03  0.82178594879E+03  0.91595972162E+02 0.  0.
         13    1    3    3    0    0  0.25166621436E+03  0.46785541992E+02  0.25658741020E+03  0.36243878030E+03  0.00000000000E+00 0. -1.
        -13    1    3    3    0    0  0.24270465566E+03  0.31336969643E+02  0.38873161135E+03  0.45934716850E+03  0.00000000000E+00 0.  1.
         22    1    1    2    0    0 -0.49437087002E+03 -0.78122511635E+02 -0.58290823652E+03  0.76830182621E+03  0.00000000000E+00 0.  1.
<mgrwt>
<rscale>  0 0.15888625E+04</rscale>
<asrwt>0</asrwt>
<pdfrwt beam="1">  1        4 0.12711527E+00 0.15888625E+04</pdfrwt>
<pdfrwt beam="2">  1       -4 0.11751361E+00 0.15888625E+04</pdfrwt>
<totfact> 0.49031337E-01</totfact>
</mgrwt>
</event>
<event>
 6    1  0.9906445E-006  0.1660565E+04  0.7818608E-02  0.8784181E-01
         -1   -1    0    0    0  501 -0.00000000000E+00  0.00000000000E+00  0.24944955154E+03  0.24944955154E+03  0.00000000000E+00 0. -1.
          1   -1    0    0  501    0  0.00000000000E+00 -0.00000000000E+00 -0.27635609700E+04  0.27635609700E+04  0.00000000000E+00 0.  1.
         23    2    1    2    0    0  0.52344549646E+03 -0.60273561168E+03 -0.86330602940E+03  0.11793137533E+04  0.90544038701E+02 0.  0.
         11    1    3    3    0    0  0.53228205376E+02 -0.53477788338E+02 -0.47269219967E+02  0.89036480441E+02  0.00000000000E+00 0.  1.
        -11    1    3    3    0    0  0.47021729108E+03 -0.54925782334E+03 -0.81603680944E+03  0.10902772728E+04  0.00000000000E+00 0. -1.
         22    1    1    2    0    0 -0.52344549646E+03  0.60273561168E+03 -0.16508053890E+04  0.18336967682E+04  0.00000000000E+00 0.  1.
<mgrwt>
<rscale>  0 0.16605650E+04</rscale>
<asrwt>0</asrwt>
<pdfrwt beam="1">  1        1 0.42516322E+00 0.16605650E+04</pdfrwt>
<pdfrwt beam="2">  1       -1 0.38376855E-01 0.16605650E+04</pdfrwt>
<totfact> 0.55656245E+00</totfact>
</mgrwt>
</event>
<event>
 6    1  0.9906445E-006  0.1622362E+04  0.7818608E-02  0.8806927E-01
         -2   -1    0    0    0  501 -0.00000000000E+00  0.00000000000E+00  0.89539689930E+03  0.89539689930E+03  0.00000000000E+00 0.  1.
          2   -1    0    0  501    0  0.00000000000E+00 -0.00000000000E+00 -0.73488587109E+03  0.73488587109E+03  0.00000000000E+00 0. -1.
         23    2    1    2    0    0 -0.69702091153E+03  0.29324057524E+03 -0.20633431910E+03  0.78980451670E+03  0.96897560795E+02 0.  0.
         11    1    3    3    0    0 -0.46495053042E+03  0.14762786021E+03 -0.11728830974E+03  0.50172654748E+03  0.00000000000E+00 0.  1.
        -11    1    3    3    0    0 -0.23207038111E+03  0.14561271503E+03 -0.89046009357E+02  0.28807796922E+03  0.00000000000E+00 0. -1.
         22    1    1    2    0    0  0.69702091153E+03 -0.29324057524E+03  0.36684534730E+03  0.84047825368E+03  0.00000000000E+00 0.  1.
<mgrwt>
<rscale>  0 0.16223619E+04</rscale>
<asrwt>0</asrwt>
<pdfrwt beam="1">  1        2 0.11305936E+00 0.16223619E+04</pdfrwt>
<pdfrwt beam="2">  1       -2 0.13775337E+00 0.16223619E+04</pdfrwt>
<totfact> 0.13800157E+01</totfact>
</mgrwt>
</event>
<event>
 6    1  0.9906445E-006  0.1235706E+04  0.7818608E-02  0.9082164E-01
         -1   -1    0    0    0  501 -0.00000000000E+00  0.00000000000E+00  0.89963706819E+03  0.89963706819E+03  0.00000000000E+00 0.  1.
          1   -1    0    0  501    0  0.00000000000E+00 -0.00000000000E+00 -0.42432947327E+03  0.42432947327E+03  0.00000000000E+00 0. -1.
         23    2    1    2    0    0 -0.18412704791E+03 -0.24994536589E+03 -0.32921011108E+03  0.46163006713E+03  0.91365014832E+02 0.  0.
         11    1    3    3    0    0 -0.31640125782E+02 -0.50008136274E+02 -0.12278654601E+03  0.13630277743E+03  0.00000000000E+00 0. -1.
        -11    1    3    3    0    0 -0.15248692213E+03 -0.19993722961E+03 -0.20642356507E+03  0.32532728970E+03  0.00000000000E+00 0.  1.
         22    1    1    2    0    0  0.18412704791E+03  0.24994536589E+03  0.80451770600E+03  0.86233647434E+03  0.00000000000E+00 0.  1.
<mgrwt>
<rscale>  0 0.12357063E+04</rscale>
<asrwt>0</asrwt>
<pdfrwt beam="1">  1        1 0.65281458E-01 0.12357063E+04</pdfrwt>
<pdfrwt beam="2">  1       -1 0.13840570E+00 0.12357063E+04</pdfrwt>
<totfact> 0.23638552E+01</totfact>
</mgrwt>
</event>
<event>
 6    1  0.9906445E-006  0.1966393E+04  0.7818608E-02  0.8622496E-01
         -1   -1    0    0    0  501 -0.00000000000E+00  0.00000000000E+00  0.11651401456E+04  0.11651401456E+04  0.00000000000E+00 0.  1.
          1   -1    0    0  501    0  0.00000000000E+00 -0.00000000000E+00 -0.82966466516E+03  0.82966466516E+03  0.00000000000E+00 0. -1.
         23    2    1    2    0    0  0.38613326499E+02 -0.13189551591E+03  0.11535457773E+04  0.11652709497E+04  0.91110426479E+02 0.  0.
         13    1    3    3    0    0 -0.25997919426E+02 -0.33138907087E+02  0.19563248509E+03  0.20011533725E+03  0.00000000000E+00 0.  1.
        -13    1    3    3    0    0  0.64611245924E+02 -0.98756608819E+02  0.95791329216E+03  0.96515561242E+03  0.00000000000E+00 0. -1.
         22    1    1    2    0    0 -0.38613326499E+02  0.13189551591E+03 -0.81807029683E+03  0.82953386107E+03  0.00000000000E+00 0. -1.
<mgrwt>
<rscale>  0 0.19663933E+04</rscale>
<asrwt>0</asrwt>
<pdfrwt beam="1">  1        1 0.12764072E+00 0.19663933E+04</pdfrwt>
<pdfrwt beam="2">  1       -1 0.17925233E+00 0.19663933E+04</pdfrwt>
<totfact> 0.40852656E+00</totfact>
</mgrwt>
</event>
<event>
 6    1  0.9906445E-006  0.2491462E+04  0.7818608E-02  0.8406034E-01
          2   -1    0    0  501    0  0.00000000000E+00  0.00000000000E+00  0.29758332325E+04  0.29758332325E+04  0.00000000000E+00 0. -1.
         -2   -1    0    0    0  501 -0.00000000000E+00 -0.00000000000E+00 -0.52148279739E+03  0.52148279739E+03  0.00000000000E+00 0.  1.
         23    2    1    2    0    0 -0.84464529010E+03 -0.70510078720E+03  0.20440826911E+04  0.23230450186E+04  0.87586096533E+02 0.  0.
         13    1    3    3    0    0 -0.68617113226E+03 -0.58493064660E+03  0.17391972123E+04  0.19590256832E+04  0.00000000000E+00 0.  1.
        -13    1    3    3    0    0 -0.15847415784E+03 -0.12017014060E+03  0.30488547877E+03  0.36401933542E+03  0.00000000000E+00 0. -1.
         22    1    1    2    0    0  0.84464529010E+03  0.70510078720E+03  0.41026774407E+03  0.11742710113E+04  0.00000000000E+00 0.  1.
<mgrwt>
<rscale>  0 0.24914621E+04</rscale>
<asrwt>0</asrwt>
<pdfrwt beam="1">  1        2 0.45782049E+00 0.24914621E+04</pdfrwt>
<pdfrwt beam="2">  1       -2 0.80228125E-01 0.24914621E+04</pdfrwt>
<totfact> 0.22103407E+00</totfact>
</mgrwt>
</event>
<event>
 6    1  0.9906445E-006  0.1696932E+04  0.7818608E-02  0.8763116E-01
         -1   -1    0    0    0  501 -0.00000000000E+00  0.00000000000E+00  0.83241748346E+03  0.83241748346E+03  0.00000000000E+00 0.  1.
          1   -1    0    0  501    0  0.00000000000E+00 -0.00000000000E+00 -0.86482425435E+03  0.86482425435E+03  0.00000000000E+00 0. -1.
         23    2    1    2    0    0  0.54778421506E+03 -0.64369723723E+03 -0.52638856585E+02  0.85176967040E+03  0.91252631251E+02 0.  0.
         13    1    3    3    0    0  0.14849685512E+03 -0.12749739067E+03  0.11254818463E+02  0.19604482025E+03  0.00000000000E+00 0.  1.
        -13    1    3    3    0    0  0.39928735993E+03 -0.51619984656E+03 -0.63893675048E+02  0.65572485015E+03  0.00000000000E+00 0. -1.
         22    1    1    2    0    0 -0.54778421506E+03  0.64369723723E+03  0.20232085699E+02  0.84547206741E+03  0.00000000000E+00 0. -1.
<mgrwt>
<rscale>  0 0.16969323E+04</rscale>
<asrwt>0</asrwt>
<pdfrwt beam="1">  1        1 0.13304988E+00 0.16969323E+04</pdfrwt>
<pdfrwt beam="2">  1       -1 0.12806423E+00 0.16969323E+04</pdfrwt>
<totfact> 0.97585283E+00</totfact>
</mgrwt>
</event>
<event>
 6    1  0.9906445E-006  0.1898052E+04  0.7818608E-02  0.8655827E-01
         -1   -1    0    0    0  501 -0.00000000000E+00  0.00000000000E+00  0.63807899468E+03  0.63807899468E+03  0.00000000000E+00 0.  1.
          1   -1    0    0  501    0  0.00000000000E+00 -0.00000000000E+00 -0.14115026879E+04  0.14115026879E+04  0.00000000000E+00 0. -1.
         23    2    1    2    0    0  0.74968354221E+03  0.16134330133E+03 -0.98762355296E+03  0.12533790361E+04  0.86612074669E+02 0.  0.
         13    1    3    3    0    0  0.52308657490E+03  0.10034787249E+03 -0.74527639488E+03  0.91603829893E+03  0.00000000000E+00 0.  1.
        -13    1    3    3    0    0  0.22659696732E+03  0.60995428840E+02 -0.24234715809E+03  0.33734073719E+03  0.00000000000E+00 0. -1.
         22    1    1    2    0    0 -0.74968354221E+03 -0.16134330133E+03  0.21419985972E+03  0.79620264647E+03  0.00000000000E+00 0.  1.
<mgrwt>
<rscale>  0 0.18980519E+04</rscale>
<asrwt>0</asrwt>
<pdfrwt beam="1">  1        1 0.21715426E+00 0.18980519E+04</pdfrwt>
<pdfrwt beam="2">  1       -1 0.98165999E-01 0.18980519E+04</pdfrwt>
<totfact> 0.70162058E+00</totfact>
</mgrwt>
</event>
<event>
 6    1  0.9906445E-006  0.1265848E+04  0.7818608E-02  0.9057095E-01
         -1   -1    0    0    0  501 -0.00000000000E+00  0.00000000000E+00  0.42555186518E+03  0.42555186518E+03  0.00000000000E+00 0.  1.
          1   -1    0    0  501    0  0.00000000000E+00 -0.00000000000E+00 -0.94134951082E+03  0.94134951082E+03  0.00000000000E+00 0. -1.
         23    2    1    2    0    0  0.17065072075E+03 -0.15656486577E+03  0.37309113722E+03  0.44833864327E+03  0.90422987658E+02 0.  0.
         13    1    3    3    0    0  0.14984421700E+03 -0.11588232996E+03  0.22908852165E+03  0.29726007891E+03  0.00000000000E+00 0. -1.
        -13    1    3    3    0    0  0.20806503748E+02 -0.40682535810E+02  0.14400261557E+03  0.15107856436E+03  0.00000000000E+00 0.  1.
         22    1    1    2    0    0 -0.17065072075E+03  0.15656486577E+03 -0.88888878285E+03  0.91856273273E+03  0.00000000000E+00 0. -1.
<mgrwt>
<rscale>  0 0.12658484E+04</rscale>
<asrwt>0</asrwt>
<pdfrwt beam="1">  1        1 0.14482300E+00 0.12658484E+04</pdfrwt>
<pdfrwt beam="2">  1       -1 0.65469519E-01 0.12658484E+04</pdfrwt>
<totfact> 0.39239685E+01</totfact>
</mgrwt>
</event>
<event>
 6    1  0.9906445E-006  0.2619842E+04  0.7818608E-02  0.8361492E-01
         -1   -1    0    0    0  501 -0.00000000000E+00  0.00000000000E+00  0.14165768013E+04  0.14165768013E+04  0.00000000000E+00 0.  1.
          1   -1    0    0  501    0  0.00000000000E+00 -0.00000000000E+00 -0.12112957082E+04  0.12112957082E+04  0.00000000000E+00 0. -1.
         23    2    1    2    0    0 -0.71310154608E+03 -0.76686321879E+03  0.88944707916E+03  0.13770023693E+04  0.91795463066E+02 0.  0.
         11    1    3    3    0    0 -0.58258412132E+02 -0.59289849722E+02  0.40766504358E+02  0.92580973973E+02  0.00000000000E+00 0. -1.
        -11    1    3    3    0    0 -0.65484313395E+03 -0.70757336907E+03  0.84868057480E+03  0.12844213953E+04  0.00000000000E+00 0.  1.
         22    1    1    2    0    0  0.71310154608E+03  0.76686321879E+03 -0.68416598602E+03  0.12508701403E+04  0.00000000000E+00 0. -1.
<mgrwt>
<rscale>  0 0.26198423E+04</rscale>
<asrwt>0</asrwt>
<pdfrwt beam="1">  1        1 0.18635318E+00 0.26198423E+04</pdfrwt>
<pdfrwt beam="2">  1       -1 0.21793489E+00 0.26198423E+04</pdfrwt>
<totfact> 0.10473750E+00</totfact>
</mgrwt>
</event>
<event>
 6    1  0.9906445E-006  0.7937753E+03  0.7818608E-02  0.9569071E-01
         -1   -1    0    0    0  501 -0.00000000000E+00  0.00000000000E+00  0.18220376013E+03  0.18220376013E+03  0.00000000000E+00 0.  1.
          1   -1    0    0  501    0  0.00000000000E+00 -0.00000000000E+00 -0.86452563328E+03  0.86452563328E+03  0.00000000000E+00 0. -1.
         23    2    1    2    0    0  0.24020485567E+03 -0.77024455746E+02 -0.74080153935E+03  0.78778729403E+03  0.90502820203E+02 0.  0.
         13    1    3    3    0    0  0.10842250307E+03 -0.82271738137E+02 -0.37356784104E+03  0.39758899624E+03  0.00000000000E+00 0. -1.
        -13    1    3    3    0    0  0.13178235260E+03  0.52472823910E+01 -0.36723369831E+03  0.39019829779E+03  0.00000000000E+00 0.  1.
         22    1    1    2    0    0 -0.24020485567E+03  0.77024455746E+02  0.58479666197E+02  0.25894209937E+03  0.00000000000E+00 0.  1.
<mgrwt>
<rscale>  0 0.79377534E+03</rscale>
<asrwt>0</asrwt>
<pdfrwt beam="1">  1        1 0.13300395E+00 0.79377534E+03</pdfrwt>
<pdfrwt beam="2">  1       -1 0.28031347E-01 0.79377534E+03</pdfrwt>
<totfact> 0.22593750E+02</totfact>
</mgrwt>
</event>
<event>
 6    1  0.9906445E-006  0.3908156E+04  0.7818608E-02  0.8023335E-01
         -1   -1    0    0    0  501 -0.00000000000E+00  0.00000000000E+00  0.18950123227E+04  0.18950123227E+04  0.00000000000E+00 0.  1.
          1   -1    0    0  501    0  0.00000000000E+00 -0.00000000000E+00 -0.20149842133E+04  0.20149842133E+04  0.00000000000E+00 0. -1.
         23    2    1    2    0    0  0.14701656973E+03  0.44545885632E+03  0.18367265759E+04  0.18978543062E+04  0.90768874125E+02 0.  0.
         13    1    3    3    0    0  0.66958200087E+01  0.12416445675E+03  0.39493878775E+03  0.41405107462E+03  0.00000000000E+00 0.  1.
        -13    1    3    3    0    0  0.14032074972E+03  0.32129439957E+03  0.14417877881E+04  0.14838032316E+04  0.00000000000E+00 0. -1.
         22    1    1    2    0    0 -0.14701656973E+03 -0.44545885632E+03 -0.19566984664E+04  0.20121422298E+04  0.00000000000E+00 0. -1.
<mgrwt>
<rscale>  0 0.39081555E+04</rscale>
<asrwt>0</asrwt>
<pdfrwt beam="1">  1        1 0.30999757E+00 0.39081555E+04</pdfrwt>
<pdfrwt beam="2">  1       -1 0.29154036E+00 0.39081555E+04</pdfrwt>
<totfact> 0.86009166E-02</totfact>
</mgrwt>
</event>
<event>
 6    1  0.9906445E-006  0.1972718E+04  0.7818608E-02  0.8619483E-01
          1   -1    0    0  501    0  0.00000000000E+00  0.00000000000E+00  0.55514531062E+03  0.55514531062E+03  0.00000000000E+00 0. -1.
         -1   -1    0    0    0  501 -0.00000000000E+00 -0.00000000000E+00 -0.17525220779E+04  0.17525220779E+04  0.00000000000E+00 0.  1.
         23    2    1    2    0    0  0.16738528953E+03  0.68484600772E+03  0.20353233966E+03  0.73936314018E+03  0.90556889980E+02 0.  0.
         13    1    3    3    0    0  0.67105647093E+02  0.21121951774E+03  0.23579940317E+02  0.22287410377E+03  0.00000000000E+00 0.  1.
        -13    1    3    3    0    0  0.10027964244E+03  0.47362648998E+03  0.17995239935E+03  0.51648903641E+03  0.00000000000E+00 0. -1.
         22    1    1    2    0    0 -0.16738528953E+03 -0.68484600772E+03 -0.14009091070E+04  0.15683042484E+04  0.00000000000E+00 0.  1.
<mgrwt>
<rscale>  0 0.19727183E+04</rscale>
<asrwt>0</asrwt>
<pdfrwt beam="1">  1        1 0.85406970E-01 0.19727183E+04</pdfrwt>
<pdfrwt beam="2">  1       -1 0.26961878E+00 0.19727183E+04</pdfrwt>
<totfact> 0.18501384E+00</totfact>
</mgrwt>
</event>
<event>
 6    1  0.9906445E-006  0.6829451E+03  0.7818608E-02  0.9746851E-01
         -1   -1    0    0    0  501 -0.00000000000E+00  0.00000000000E+00  0.12536027598E+03  0.12536027598E+03  0.00000000000E+00 0.  1.
          1   -1    0    0  501    0  0.00000000000E+00 -0.00000000000E+00 -0.93014705113E+03  0.93014705113E+03  0.00000000000E+00 0. -1.
         23    2    1    2    0    0  0.24314414507E+03 -0.22255495377E+03 -0.50653173031E+03  0.61097852658E+03  0.89836425796E+02 0.  0.
         13    1    3    3    0    0  0.19290324161E+03 -0.15375192632E+03 -0.43347249677E+03  0.49874815381E+03  0.00000000000E+00 0. -1.
        -13    1    3    3    0    0  0.50240903460E+02 -0.68803027448E+02 -0.73059233536E+02  0.11223037277E+03  0.00000000000E+00 0.  1.
         22    1    1    2    0    0 -0.24314414507E+03  0.22255495377E+03 -0.29825504484E+03  0.44452880053E+03  0.00000000000E+00 0. -1.
<mgrwt>
<rscale>  0 0.68294507E+03</rscale>
<asrwt>0</asrwt>
<pdfrwt beam="1">  1        1 0.14309954E+00 0.68294507E+03</pdfrwt>
<pdfrwt beam="2">  1       -1 0.19286197E-01 0.68294507E+03</pdfrwt>
<totfact> 0.37828584E+02</totfact>
</mgrwt>
</event>
<event>
 6    1  0.9906445E-006  0.2605005E+04  0.7818608E-02  0.8366503E-01
          1   -1    0    0  501    0  0.00000000000E+00  0.00000000000E+00  0.23767618075E+04  0.23767618075E+04  0.00000000000E+00 0. -1.
         -1   -1    0    0    0  501 -0.00000000000E+00 -0.00000000000E+00 -0.71379173841E+03  0.71379173841E+03  0.00000000000E+00 0.  1.
         23    2    1    2    0    0 -0.72274641626E+03 -0.17317522473E+03  0.20992409654E+04  0.22287621932E+04  0.90643491051E+02 0.  0.
         13    1    3    3    0    0 -0.50212839397E+03 -0.96767863299E+02  0.15422445897E+04  0.16248123947E+04  0.00000000000E+00 0.  1.
        -13    1    3    3    0    0 -0.22061802228E+03 -0.76407361431E+02  0.55699637566E+03  0.60394979852E+03  0.00000000000E+00 0. -1.
         22    1    1    2    0    0  0.72274641626E+03  0.17317522473E+03 -0.43627089627E+03  0.86179135271E+03  0.00000000000E+00 0.  1.
<mgrwt>
<rscale>  0 0.26050051E+04</rscale>
<asrwt>0</asrwt>
<pdfrwt beam="1">  1        1 0.36565566E+00 0.26050051E+04</pdfrwt>
<pdfrwt beam="2">  1       -1 0.10981411E+00 0.26050051E+04</pdfrwt>
<totfact> 0.11115285E+00</totfact>
</mgrwt>
</event>
<event>
 6    1  0.9906445E-006  0.2250508E+04  0.7818608E-02  0.8497695E-01
          2   -1    0    0  501    0  0.00000000000E+00  0.00000000000E+00  0.22127085569E+04  0.22127085569E+04  0.00000000000E+00 0. -1.
         -2   -1    0    0    0  501 -0.00000000000E+00 -0.00000000000E+00 -0.57223847978E+03  0.57223847978E+03  0.00000000000E+00 0.  1.
         23    2    1    2    0    0 -0.89843076251E+03  0.67411483803E+03  0.79784562068E+03  0.13808015227E+04  0.91905172408E+02 0.  0.
         13    1    3    3    0    0 -0.53126524474E+03  0.34159616364E+03  0.44727516328E+03  0.77394171032E+03  0.00000000000E+00 0. -1.
        -13    1    3    3    0    0 -0.36716551777E+03  0.33251867438E+03  0.35057045741E+03  0.60685981236E+03  0.00000000000E+00 0.  1.
         22    1    1    2    0    0  0.89843076251E+03 -0.67411483803E+03  0.84262445640E+03  0.14041455140E+04  0.00000000000E+00 0.  1.
<mgrwt>
<rscale>  0 0.22505084E+04</rscale>
<asrwt>0</asrwt>
<pdfrwt beam="1">  1        2 0.34041670E+00 0.22505084E+04</pdfrwt>
<pdfrwt beam="2">  1       -2 0.88036690E-01 0.22505084E+04</pdfrwt>
<totfact> 0.51403704E+00</totfact>
</mgrwt>
</event>
<event>
 6    1  0.9906445E-006  0.1701855E+04  0.7818608E-02  0.8760307E-01
         -1   -1    0    0    0  501 -0.00000000000E+00  0.00000000000E+00  0.27992745113E+03  0.27992745113E+03  0.00000000000E+00 0.  1.
          1   -1    0    0  501    0  0.00000000000E+00 -0.00000000000E+00 -0.25866624411E+04  0.25866624411E+04  0.00000000000E+00 0. -1.
         23    2    1    2    0    0 -0.33713272555E+01  0.37835787707E+03 -0.24360193104E+04  0.24667393145E+04  0.86294358510E+02 0.  0.
         11    1    3    3    0    0 -0.43108486439E+02  0.16311985118E+03 -0.11224381828E+04  0.11350479733E+04  0.00000000000E+00 0. -1.
        -11    1    3    3    0    0  0.39737159184E+02  0.21523802589E+03 -0.13135811276E+04  0.13316913412E+04  0.00000000000E+00 0.  1.
         22    1    1    2    0    0  0.33713272555E+01 -0.37835787707E+03  0.12928432040E+03  0.39985057770E+03  0.00000000000E+00 0.  1.
<mgrwt>
<rscale>  0 0.17018553E+04</rscale>
<asrwt>0</asrwt>
<pdfrwt beam="1">  1        1 0.39794808E+00 0.17018553E+04</pdfrwt>
<pdfrwt beam="2">  1       -1 0.43065761E-01 0.17018553E+04</pdfrwt>
<totfact> 0.59730546E+00</totfact>
</mgrwt>
</event>
<event>
 6    1  0.9906445E-006  0.4754475E+04  0.7818608E-02  0.7867540E-01
         -2   -1    0    0    0  501 -0.00000000000E+00  0.00000000000E+00  0.15142091126E+04  0.15142091126E+04  0.00000000000E+00 0.  1.
          2   -1    0    0  501    0  0.00000000000E+00 -0.00000000000E+00 -0.37321512944E+04  0.37321512944E+04  0.00000000000E+00 0. -1.
         23    2    1    2    0    0 -0.45184254817E+03  0.53783594884E+03 -0.36143846831E+04  0.36831966741E+04  0.93444671659E+02 0.  0.
         11    1    3    3    0    0 -0.28334515441E+03  0.34518710482E+03 -0.25215831813E+04  0.25608241553E+04  0.00000000000E+00 0. -1.
        -11    1    3    3    0    0 -0.16849739376E+03  0.19264884402E+03 -0.10928015018E+04  0.11223725189E+04  0.00000000000E+00 0.  1.
         22    1    1    2    0    0  0.45184254817E+03 -0.53783594884E+03  0.13964425013E+04  0.15631637328E+04  0.00000000000E+00 0.  1.
<mgrwt>
<rscale>  0 0.47544747E+04</rscale>
<asrwt>0</asrwt>
<pdfrwt beam="1">  1        2 0.57417713E+00 0.47544747E+04</pdfrwt>
<pdfrwt beam="2">  1       -2 0.23295525E+00 0.47544747E+04</pdfrwt>
<totfact> 0.33505175E-02</totfact>
</mgrwt>
</event>
<event>
 6    1  0.9906445E-006  0.6579035E+04  0.7818608E-02  0.7622480E-01
         -2   -1    0    0    0  501 -0.00000000000E+00  0.00000000000E+00  0.29224493516E+04  0.29224493516E+04  0.00000000000E+00 0.  1.
          2   -1    0    0  501    0  0.00000000000E+00 -0.00000000000E+00 -0.37026905059E+04  0.37026905059E+04  0.00000000000E+00 0. -1.
         23    2    1    2    0    0  0.28936873392E+04 -0.10178539353E+04  0.80447840268E+03  0.31724902771E+04  0.89755263371E+02 0.  0.
         13    1    3    3    0    0  0.13569871492E+04 -0.47580709596E+03  0.33086777996E+03  0.14755609115E+04  0.00000000000E+00 0. -1.
        -13    1    3    3    0    0  0.15367001900E+04 -0.54204683938E+03  0.47361062272E+03  0.16969293656E+04  0.00000000000E+00 0.  1.
         22    1    1    2    0    0 -0.28936873392E+04  0.10178539353E+04 -0.15847195569E+04  0.34526495804E+04  0.00000000000E+00 0. -1.
<mgrwt>
<rscale>  0 0.65790350E+04</rscale>
<asrwt>0</asrwt>
<pdfrwt beam="1">  1        2 0.56964469E+00 0.65790350E+04</pdfrwt>
<pdfrwt beam="2">  1       -2 0.44960760E+00 0.65790350E+04</pdfrwt>
<totfact> 0.13091708E-03</totfact>
</mgrwt>
</event>
<event>
 6    1  0.9906445E-006  0.4145800E+03  0.7818608E-02  0.1038845E+00
          2   -1    0    0  501    0  0.00000000000E+00  0.00000000000E+00  0.20189422543E+03  0.20189422543E+03  0.00000000000E+00 0. -1.
         -2   -1    0    0    0  501 -0.00000000000E+00 -0.00000000000E+00 -0.21282996175E+03  0.21282996175E+03  0.00000000000E+00 0.  1.
         23    2    1    2    0    0 -0.12927175973E+03  0.12701396473E+03 -0.85314257901E+02  0.21882651090E+03  0.88106663594E+02 0.  0.
         13    1    3    3    0    0 -0.26778506885E+02  0.81371699667E+02 -0.57690204535E+02  0.10327924107E+03  0.00000000000E+00 0. -1.
        -13    1    3    3    0    0 -0.10249325285E+03  0.45642265067E+02 -0.27624053366E+02  0.11554726983E+03  0.00000000000E+00 0.  1.
         22    1    1    2    0    0  0.12927175973E+03 -0.12701396473E+03  0.74378521582E+02  0.19589767629E+03  0.00000000000E+00 0.  1.
<mgrwt>
<rscale>  0 0.41457998E+03</rscale>
<asrwt>0</asrwt>
<pdfrwt beam="1">  1        2 0.31060650E-01 0.41457998E+03</pdfrwt>
<pdfrwt beam="2">  1       -2 0.32743071E-01 0.41457998E+03</pdfrwt>
<totfact> 0.14789533E+03</totfact>
</mgrwt>
</event>
<event>
 6    1  0.9906445E-006  0.3070338E+04  0.7818608E-02  0.8223926E-01
         -2   -1    0    0    0  501 -0.00000000000E+00  0.00000000000E+00  0.21381205582E+04  0.21381205582E+04  0.00000000000E+00 0.  1.
          2   -1    0    0  501    0  0.00000000000E+00 -0.00000000000E+00 -0.11022505581E+04  0.11022505581E+04  0.00000000000E+00 0. -1.
         23    2    1    2    0    0  0.12592836143E+04  0.40482375585E+03  0.13379377039E+04  0.18835651639E+04  0.89793833900E+02 0.  0.
         13    1    3    3    0    0  0.11694490611E+04  0.38525412448E+03  0.12126746242E+04  0.17281815851E+04  0.00000000000E+00 0. -1.
        -13    1    3    3    0    0  0.89834553195E+02  0.19569631376E+02  0.12526307976E+03  0.15538357883E+03  0.00000000000E+00 0.  1.
         22    1    1    2    0    0 -0.12592836143E+04 -0.40482375585E+03 -0.30206770388E+03  0.13568059523E+04  0.00000000000E+00 0. -1.
<mgrwt>
<rscale>  0 0.30703385E+04</rscale>
<asrwt>0</asrwt>
<pdfrwt beam="1">  1        2 0.16957701E+00 0.30703385E+04</pdfrwt>
<pdfrwt beam="2">  1       -2 0.32894162E+00 0.30703385E+04</pdfrwt>
<totfact> 0.38945540E-01</totfact>
</mgrwt>
</event>
<event>
 6    1  0.9906445E-006  0.2937084E+04  0.7818608E-02  0.8261929E-01
         -1   -1    0    0    0  501 -0.00000000000E+00  0.00000000000E+00  0.52751472293E+04  0.52751472293E+04  0.00000000000E+00 0.  1.
          1   -1    0    0  501    0  0.00000000000E+00 -0.00000000000E+00 -0.40882557004E+03  0.40882557004E+03  0.00000000000E+00 0. -1.
         23    2    1    2    0    0  0.36987801517E+03  0.13985418951E+04  0.29072335471E+04  0.32486585671E+04  0.95112618158E+02 0.  0.
         13    1    3    3    0    0  0.23021490682E+03  0.10034800658E+04  0.20058708907E+04  0.22546594368E+04  0.00000000000E+00 0. -1.
        -13    1    3    3    0    0  0.13966310834E+03  0.39506182925E+03  0.90136265643E+03  0.99399913037E+03  0.00000000000E+00 0.  1.
         22    1    1    2    0    0 -0.36987801517E+03 -0.13985418951E+04  0.19590881122E+04  0.24353142322E+04  0.00000000000E+00 0.  1.
<mgrwt>
<rscale>  0 0.29370836E+04</rscale>
<asrwt>0</asrwt>
<pdfrwt beam="1">  1        1 0.62896245E-01 0.29370836E+04</pdfrwt>
<pdfrwt beam="2">  1       -1 0.81156106E+00 0.29370836E+04</pdfrwt>
<totfact> 0.29515310E-03</totfact>
</mgrwt>
</event>
<event>
 6    1  0.9906445E-006  0.2016154E+04  0.7818608E-02  0.8599105E-01
         -1   -1    0    0    0  501 -0.00000000000E+00  0.00000000000E+00  0.26228149849E+03  0.26228149849E+03  0.00000000000E+00 0.  1.
          1   -1    0    0  501    0  0.00000000000E+00 -0.00000000000E+00 -0.38745346315E+04  0.38745346315E+04  0.00000000000E+00 0. -1.
         23    2    1    2    0    0 -0.88449170071E+03 -0.47849144373E+03 -0.18671608336E+04  0.21227091904E+04  0.91241977346E+02 0.  0.
         11    1    3    3    0    0 -0.78640773616E+03 -0.44073332803E+03 -0.17192039750E+04  0.19412226306E+04  0.00000000000E+00 0. -1.
        -11    1    3    3    0    0 -0.98083964554E+02 -0.37758115702E+02 -0.14795685857E+03  0.18148655984E+03  0.00000000000E+00 0.  1.
         22    1    1    2    0    0  0.88449170071E+03  0.47849144373E+03 -0.17450922994E+04  0.20141069395E+04  0.00000000000E+00 0. -1.
<mgrwt>
<rscale>  0 0.20161535E+04</rscale>
<asrwt>0</asrwt>
<pdfrwt beam="1">  1        1 0.59608227E+00 0.20161535E+04</pdfrwt>
<pdfrwt beam="2">  1       -1 0.40350998E-01 0.20161535E+04</pdfrwt>
<totfact> 0.68920268E-01</totfact>
</mgrwt>
</event>
<event>
 6    1  0.9906445E-006  0.8569167E+03  0.7818608E-02  0.9481100E-01
          2   -1    0    0  501    0  0.00000000000E+00  0.00000000000E+00  0.10233228424E+04  0.10233228424E+04  0.00000000000E+00 0. -1.
         -2   -1    0    0    0  501 -0.00000000000E+00 -0.00000000000E+00 -0.17939260126E+03  0.17939260126E+03  0.00000000000E+00 0.  1.
         23    2    1    2    0    0  0.24772206919E+03  0.24265090608E+03  0.76826118834E+03  0.84779081594E+03  0.90985319131E+02 0.  0.
         13    1    3    3    0    0  0.18020882820E+03  0.11454586686E+03  0.44516222142E+03  0.49372601790E+03  0.00000000000E+00 0. -1.
        -13    1    3    3    0    0  0.67513240985E+02  0.12810503923E+03  0.32309896693E+03  0.35406479804E+03  0.00000000000E+00 0.  1.
         22    1    1    2    0    0 -0.24772206919E+03 -0.24265090608E+03  0.75669052744E+02  0.35492462767E+03  0.00000000000E+00 0.  1.
<mgrwt>
<rscale>  0 0.85691667E+03</rscale>
<asrwt>0</asrwt>
<pdfrwt beam="1">  1        2 0.15743428E+00 0.85691667E+03</pdfrwt>
<pdfrwt beam="2">  1       -2 0.27598862E-01 0.85691667E+03</pdfrwt>
<totfact> 0.29206475E+02</totfact>
</mgrwt>
</event>
<event>
 6    1  0.9906445E-006  0.2227537E+04  0.7818608E-02  0.8507053E-01
          2   -1    0    0  501    0  0.00000000000E+00  0.00000000000E+00  0.11244983159E+04  0.11244983159E+04  0.00000000000E+00 0. -1.
         -2   -1    0    0    0  501 -0.00000000000E+00 -0.00000000000E+00 -0.11031407934E+04  0.11031407934E+04  0.00000000000E+00 0.  1.
         23    2    1    2    0    0 -0.42435351115E+03 -0.10190275952E+04  0.14453268690E+03  0.11169342595E+04  0.90328845946E+02 0.  0.
         13    1    3    3    0    0 -0.25217948762E+03 -0.56726350153E+03  0.12388573099E+03  0.63303242293E+03  0.00000000000E+00 0.  1.
        -13    1    3    3    0    0 -0.17217402353E+03 -0.45176409364E+03  0.20646955902E+02  0.48390183661E+03  0.00000000000E+00 0. -1.
         22    1    1    2    0    0  0.42435351115E+03  0.10190275952E+04 -0.12317516435E+03  0.11107048497E+04  0.00000000000E+00 0.  1.
<mgrwt>
<rscale>  0 0.22275367E+04</rscale>
<asrwt>0</asrwt>
<pdfrwt beam="1">  1        2 0.17299974E+00 0.22275367E+04</pdfrwt>
<pdfrwt beam="2">  1       -2 0.16971397E+00 0.22275367E+04</pdfrwt>
<totfact> 0.41092711E+00</totfact>
</mgrwt>
</event>
<event>
 6    1  0.9906445E-006  0.3308774E+04  0.7818608E-02  0.8160666E-01
          2   -1    0    0  501    0  0.00000000000E+00  0.00000000000E+00  0.23499347981E+04  0.23499347981E+04  0.00000000000E+00 0. -1.
         -2   -1    0    0    0  501 -0.00000000000E+00 -0.00000000000E+00 -0.11647118533E+04  0.11647118533E+04  0.00000000000E+00 0.  1.
         23    2    1    2    0    0 -0.35591463514E+03 -0.16138374956E+04  0.63731872246E+03  0.17735706259E+04  0.90724425536E+02 0.  0.
         11    1    3    3    0    0 -0.27759935267E+03 -0.13795247588E+04  0.56245729045E+03  0.15154234274E+04  0.00000000000E+00 0.  1.
        -11    1    3    3    0    0 -0.78315282471E+02 -0.23431273682E+03  0.74861432014E+02  0.25814719852E+03  0.00000000000E+00 0. -1.
         22    1    1    2    0    0  0.35591463514E+03  0.16138374956E+04  0.54790422237E+03  0.17410760255E+04  0.00000000000E+00 0. -1.
<mgrwt>
<rscale>  0 0.33087743E+04</rscale>
<asrwt>0</asrwt>
<pdfrwt beam="1">  1        2 0.36152843E+00 0.33087743E+04</pdfrwt>
<pdfrwt beam="2">  1       -2 0.17918644E+00 0.33087743E+04</pdfrwt>
<totfact> 0.65100076E-01</totfact>
</mgrwt>
</event>
<event>
 6    1  0.9906445E-006  0.4018308E+04  0.7818608E-02  0.8000863E-01
          2   -1    0    0  501    0  0.00000000000E+00  0.00000000000E+00  0.19824992286E+04  0.19824992286E+04  0.00000000000E+00 0. -1.
         -2   -1    0    0    0  501 -0.00000000000E+00 -0.00000000000E+00 -0.20361670722E+04  0.20361670722E+04  0.00000000000E+00 0.  1.
         23    2    1    2    0    0  0.31650230228E+03  0.73945922758E+03  0.18132519631E+04  0.19858448081E+04  0.93398413276E+02 0.  0.
         13    1    3    3    0    0  0.28082754530E+03  0.58552159278E+03  0.13951007506E+04  0.15388325933E+04  0.00000000000E+00 0.  1.
        -13    1    3    3    0    0  0.35674756984E+02  0.15393763480E+03  0.41815121245E+03  0.44701221478E+03  0.00000000000E+00 0. -1.
         22    1    1    2    0    0 -0.31650230228E+03 -0.73945922758E+03 -0.18669198067E+04  0.20328214927E+04  0.00000000000E+00 0.  1.
<mgrwt>
<rscale>  0 0.40183079E+04</rscale>
<asrwt>0</asrwt>
<pdfrwt beam="1">  1        2 0.30499988E+00 0.40183079E+04</pdfrwt>
<pdfrwt beam="2">  1       -2 0.31325647E+00 0.40183079E+04</pdfrwt>
<totfact> 0.14182336E-01</totfact>
</mgrwt>
</event>
<event>
 6    1  0.9906445E-006  0.1249538E+04  0.7818608E-02  0.9070568E-01
         -2   -1    0    0    0  501 -0.00000000000E+00  0.00000000000E+00  0.93003360370E+03  0.93003360370E+03  0.00000000000E+00 0.  1.
          2   -1    0    0  501    0  0.00000000000E+00 -0.00000000000E+00 -0.41970113125E+03  0.41970113125E+03  0.00000000000E+00 0. -1.
         23    2    1    2    0    0  0.28921331272E+03 -0.26876089374E+03  0.77492873972E+03  0.87445803353E+03  0.91024955373E+02 0.  0.
         11    1    3    3    0    0  0.13242830343E+03 -0.13778731162E+03  0.27978481411E+03  0.33882464639E+03  0.00000000000E+00 0. -1.
        -11    1    3    3    0    0  0.15678500929E+03 -0.13097358211E+03  0.49514392561E+03  0.53563338714E+03  0.00000000000E+00 0.  1.
         22    1    1    2    0    0 -0.28921331272E+03  0.26876089374E+03 -0.26459626727E+03  0.47527670142E+03  0.00000000000E+00 0. -1.
<mgrwt>
<rscale>  0 0.12495378E+04</rscale>
<asrwt>0</asrwt>
<pdfrwt beam="1">  1        2 0.64569405E-01 0.12495378E+04</pdfrwt>
<pdfrwt beam="2">  1       -2 0.14308209E+00 0.12495378E+04</pdfrwt>
<totfact> 0.25108521E+01</totfact>
</mgrwt>
</event>
<event>
 6    1  0.9906445E-006  0.1279138E+04  0.7818608E-02  0.9046274E-01
         -1   -1    0    0    0  501 -0.00000000000E+00  0.00000000000E+00  0.22244228482E+03  0.22244228482E+03  0.00000000000E+00 0.  1.
          1   -1    0    0  501    0  0.00000000000E+00 -0.00000000000E+00 -0.18388980747E+04  0.18388980747E+04  0.00000000000E+00 0. -1.
         23    2    1    2    0    0 -0.32508211807E+03  0.39090130812E+03 -0.14289305523E+04  0.15194474449E+04  0.91628588650E+02 0.  0.
         11    1    3    3    0    0 -0.18205590020E+03  0.26360966045E+03 -0.79135165696E+03  0.85373991874E+03  0.00000000000E+00 0. -1.
        -11    1    3    3    0    0 -0.14302621787E+03  0.12729164767E+03 -0.63757889538E+03  0.66570752617E+03  0.00000000000E+00 0.  1.
         22    1    1    2    0    0  0.32508211807E+03 -0.39090130812E+03 -0.18752523752E+03  0.54189291459E+03  0.00000000000E+00 0.  1.
<mgrwt>
<rscale>  0 0.12791383E+04</rscale>
<asrwt>0</asrwt>
<pdfrwt beam="1">  1        1 0.28290740E+00 0.12791383E+04</pdfrwt>
<pdfrwt beam="2">  1       -1 0.34221890E-01 0.12791383E+04</pdfrwt>
<totfact> 0.30495764E+01</totfact>
</mgrwt>
</event>
<event>
 6    1  0.9906445E-006  0.2378377E+04  0.7818608E-02  0.8447643E-01
         -2   -1    0    0    0  501 -0.00000000000E+00  0.00000000000E+00  0.10741491444E+04  0.10741491444E+04  0.00000000000E+00 0.  1.
          2   -1    0    0  501    0  0.00000000000E+00 -0.00000000000E+00 -0.13165483872E+04  0.13165483872E+04  0.00000000000E+00 0. -1.
         23    2    1    2    0    0  0.74743897804E+03 -0.39340701439E+03 -0.96035894831E+03  0.12821398003E+04  0.90327476822E+02 0.  0.
         13    1    3    3    0    0  0.28143606561E+03 -0.10092570058E+03 -0.35438596967E+03  0.46366116029E+03  0.00000000000E+00 0. -1.
        -13    1    3    3    0    0  0.46600291242E+03 -0.29248131381E+03 -0.60597297864E+03  0.81847864001E+03  0.00000000000E+00 0.  1.
         22    1    1    2    0    0 -0.74743897804E+03  0.39340701439E+03  0.71795970556E+03  0.11085577313E+04  0.00000000000E+00 0.  1.
<mgrwt>
<rscale>  0 0.23783770E+04</rscale>
<asrwt>0</asrwt>
<pdfrwt beam="1">  1        2 0.20254591E+00 0.23783770E+04</pdfrwt>
<pdfrwt beam="2">  1       -2 0.16525371E+00 0.23783770E+04</pdfrwt>
<totfact> 0.33581078E+00</totfact>
</mgrwt>
</event>
<event>
 6    1  0.9906445E-006  0.1115621E+04  0.7818608E-02  0.9190099E-01
          2   -1    0    0  501    0  0.00000000000E+00  0.00000000000E+00  0.26271662949E+03  0.26271662949E+03  0.00000000000E+00 0. -1.
         -2   -1    0    0    0  501 -0.00000000000E+00 -0.00000000000E+00 -0.11843654968E+04  0.11843654968E+04  0.00000000000E+00 0.  1.
         23    2    1    2    0    0  0.35758938740E+03 -0.16769429804E+03 -0.96792782517E+03  0.10494223603E+04  0.91714055331E+02 0.  0.
         11    1    3    3    0    0  0.24952116721E+03 -0.15298518424E+03 -0.76431279584E+03  0.81843712610E+03  0.00000000000E+00 0. -1.
        -11    1    3    3    0    0  0.10806822019E+03 -0.14709113791E+02 -0.20361502932E+03  0.23098523418E+03  0.00000000000E+00 0.  1.
         22    1    1    2    0    0 -0.35758938740E+03  0.16769429804E+03  0.46278957837E+02  0.39765976602E+03  0.00000000000E+00 0. -1.
<mgrwt>
<rscale>  0 0.11156209E+04</rscale>
<asrwt>0</asrwt>
<pdfrwt beam="1">  1        2 0.40417943E-01 0.11156209E+04</pdfrwt>
<pdfrwt beam="2">  1       -2 0.18221008E+00 0.11156209E+04</pdfrwt>
<totfact> 0.22093442E+01</totfact>
</mgrwt>
</event>
<event>
 6    1  0.9906445E-006  0.1821133E+04  0.7818608E-02  0.8695141E-01
          2   -1    0    0  501    0  0.00000000000E+00  0.00000000000E+00  0.11268633044E+04  0.11268633044E+04  0.00000000000E+00 0. -1.
         -2   -1    0    0    0  501 -0.00000000000E+00 -0.00000000000E+00 -0.73578732749E+03  0.73578732749E+03  0.00000000000E+00 0.  1.
         23    2    1    2    0    0 -0.37505087301E+03 -0.42718948392E+03 -0.52848270744E+03  0.78156683010E+03  0.91644559735E+02 0.  0.
         13    1    3    3    0    0 -0.76027777350E+02 -0.37966847501E+02 -0.78417079016E+02  0.11563279258E+03  0.00000000000E+00 0. -1.
        -13    1    3    3    0    0 -0.29902309566E+03 -0.38922263642E+03 -0.45006562842E+03  0.66593403752E+03  0.00000000000E+00 0.  1.
         22    1    1    2    0    0  0.37505087301E+03  0.42718948392E+03  0.91955868439E+03  0.10810838018E+04  0.00000000000E+00 0. -1.
<mgrwt>
<rscale>  0 0.18211334E+04</rscale>
<asrwt>0</asrwt>
<pdfrwt beam="1">  1        2 0.17336359E+00 0.18211334E+04</pdfrwt>
<pdfrwt beam="2">  1       -2 0.11319805E+00 0.18211334E+04</pdfrwt>
<totfact> 0.12115115E+01</totfact>
</mgrwt>
</event>
<event>
 6    1  0.9906445E-006  0.5684075E+04  0.7818608E-02  0.7730856E-01
          2   -1    0    0  501    0  0.00000000000E+00  0.00000000000E+00  0.20619589450E+04  0.20619589450E+04  0.00000000000E+00 0. -1.
         -2   -1    0    0    0  501 -0.00000000000E+00 -0.00000000000E+00 -0.39172342022E+04  0.39172342022E+04  0.00000000000E+00 0.  1.
         23    2    1    2    0    0 -0.50780610076E+03 -0.27546654376E+04 -0.14288115395E+04  0.31458347139E+04  0.93407297313E+02 0.  0.
         11    1    3    3    0    0 -0.15592765171E+03 -0.77738691329E+03 -0.44986701527E+03  0.91160527475E+03  0.00000000000E+00 0.  1.
        -11    1    3    3    0    0 -0.35187844905E+03 -0.19772785243E+04 -0.97894452422E+03  0.22342294392E+04  0.00000000000E+00 0. -1.
         22    1    1    2    0    0  0.50780610076E+03  0.27546654376E+04 -0.42646371771E+03  0.28333584333E+04  0.00000000000E+00 0. -1.
<mgrwt>
<rscale>  0 0.56840746E+04</rscale>
<asrwt>0</asrwt>
<pdfrwt beam="1">  1        2 0.31722446E+00 0.56840746E+04</pdfrwt>
<pdfrwt beam="2">  1       -2 0.60265141E+00 0.56840746E+04</pdfrwt>
<totfact> 0.21476902E-03</totfact>
</mgrwt>
</event>
<event>
 6    1  0.9906445E-006  0.3984790E+04  0.7818608E-02  0.8007622E-01
         -1   -1    0    0    0  501 -0.00000000000E+00  0.00000000000E+00  0.20083885541E+04  0.20083885541E+04  0.00000000000E+00 0.  1.
          1   -1    0    0  501    0  0.00000000000E+00 -0.00000000000E+00 -0.19765288035E+04  0.19765288035E+04  0.00000000000E+00 0. -1.
         23    2    1    2    0    0 -0.74850944169E+03  0.15111250401E+04 -0.10433172122E+04  0.19849746653E+04  0.88590887282E+02 0.  0.
         13    1    3    3    0    0 -0.32025098983E+03  0.67335781626E+03 -0.51120986510E+03  0.90405031463E+03  0.00000000000E+00 0. -1.
        -13    1    3    3    0    0 -0.42825845186E+03  0.83776722389E+03 -0.53210734706E+03  0.10809243506E+04  0.00000000000E+00 0.  1.
         22    1    1    2    0    0  0.74850944169E+03 -0.15111250401E+04  0.10751769628E+04  0.19999426923E+04  0.00000000000E+00 0. -1.
<mgrwt>
<rscale>  0 0.39847900E+04</rscale>
<asrwt>0</asrwt>
<pdfrwt beam="1">  1        1 0.30408135E+00 0.39847900E+04</pdfrwt>
<pdfrwt beam="2">  1       -1 0.30898285E+00 0.39847900E+04</pdfrwt>
<totfact> 0.69939035E-02</totfact>
</mgrwt>
</event>
<event>
 6    1  0.9906445E-006  0.4163602E+04  0.7818608E-02  0.7972332E-01
         -2   -1    0    0    0  501 -0.00000000000E+00  0.00000000000E+00  0.30349280683E+04  0.30349280683E+04  0.00000000000E+00 0.  1.
          2   -1    0    0  501    0  0.00000000000E+00 -0.00000000000E+00 -0.14280062221E+04  0.14280062221E+04  0.00000000000E+00 0. -1.
         23    2    1    2    0    0 -0.16781385532E+04  0.20690336087E+03  0.21037769232E+04  0.27005997671E+04  0.91671998028E+02 0.  0.
         11    1    3    3    0    0 -0.12759178824E+04  0.18319654973E+03  0.16487671455E+04  0.20928355212E+04  0.00000000000E+00 0.  1.
        -11    1    3    3    0    0 -0.40222067080E+03  0.23706811137E+02  0.45500977763E+03  0.60776424595E+03  0.00000000000E+00 0. -1.
         22    1    1    2    0    0  0.16781385532E+04 -0.20690336087E+03 -0.49685507704E+03  0.17623345233E+04  0.00000000000E+00 0. -1.
<mgrwt>
<rscale>  0 0.41636024E+04</rscale>
<asrwt>0</asrwt>
<pdfrwt beam="1">  1        2 0.21969327E+00 0.41636024E+04</pdfrwt>
<pdfrwt beam="2">  1       -2 0.46691201E+00 0.41636024E+04</pdfrwt>
<totfact> 0.29191656E-02</totfact>
</mgrwt>
</event>
<event>
 6    1  0.9906445E-006  0.3213156E+04  0.7818608E-02  0.8185351E-01
          2   -1    0    0  501    0  0.00000000000E+00  0.00000000000E+00  0.13812704897E+04  0.13812704897E+04  0.00000000000E+00 0. -1.
         -2   -1    0    0    0  501 -0.00000000000E+00 -0.00000000000E+00 -0.18686368063E+04  0.18686368063E+04  0.00000000000E+00 0.  1.
         23    2    1    2    0    0 -0.21438613662E+03  0.78823844509E+03 -0.16416223973E+04  0.18358392773E+04  0.90002749143E+02 0.  0.
         11    1    3    3    0    0 -0.36294437305E+02  0.17692756461E+03 -0.28811919274E+03  0.34004899430E+03  0.00000000000E+00 0. -1.
        -11    1    3    3    0    0 -0.17809169932E+03  0.61131088049E+03 -0.13535032045E+04  0.14957902830E+04  0.00000000000E+00 0.  1.
         22    1    1    2    0    0  0.21438613662E+03 -0.78823844509E+03  0.11542560806E+04  0.14140680187E+04  0.00000000000E+00 0. -1.
<mgrwt>
<rscale>  0 0.32131560E+04</rscale>
<asrwt>0</asrwt>
<pdfrwt beam="1">  1        2 0.21250315E+00 0.32131560E+04</pdfrwt>
<pdfrwt beam="2">  1       -2 0.28748258E+00 0.32131560E+04</pdfrwt>
<totfact> 0.47295591E-01</totfact>
</mgrwt>
</event>
<event>
 6    1  0.9906445E-006  0.3770991E+04  0.7818608E-02  0.8052409E-01
         -2   -1    0    0    0  501 -0.00000000000E+00  0.00000000000E+00  0.13274785500E+04  0.13274785500E+04  0.00000000000E+00 0.  1.
          2   -1    0    0  501    0  0.00000000000E+00 -0.00000000000E+00 -0.26780796689E+04  0.26780796689E+04  0.00000000000E+00 0. -1.
         23    2    1    2    0    0 -0.83732578993E+03 -0.17059211667E+03 -0.24597098994E+04  0.26054373542E+04  0.88965549243E+02 0.  0.
         11    1    3    3    0    0 -0.35424862647E+03 -0.76673169500E+02 -0.91254013547E+03  0.98188612533E+03  0.00000000000E+00 0. -1.
        -11    1    3    3    0    0 -0.48307716346E+03 -0.93918947167E+02 -0.15471697639E+04  0.16235512289E+04  0.00000000000E+00 0.  1.
         22    1    1    2    0    0  0.83732578993E+03  0.17059211667E+03  0.11091087805E+04  0.14001208647E+04  0.00000000000E+00 0.  1.
<mgrwt>
<rscale>  0 0.37709910E+04</rscale>
<asrwt>0</asrwt>
<pdfrwt beam="1">  1        2 0.41201226E+00 0.37709910E+04</pdfrwt>
<pdfrwt beam="2">  1       -2 0.20422747E+00 0.37709910E+04</pdfrwt>
<totfact> 0.27441840E-01</totfact>
</mgrwt>
</event>
<event>
 6    1  0.9906445E-006  0.1214660E+04  0.7818608E-02  0.9100120E-01
         -2   -1    0    0    0  501 -0.00000000000E+00  0.00000000000E+00  0.17900382586E+03  0.17900382586E+03  0.00000000000E+00 0.  1.
          2   -1    0    0  501    0  0.00000000000E+00 -0.00000000000E+00 -0.20605704497E+04  0.20605704497E+04  0.00000000000E+00 0. -1.
         23    2    1    2    0    0 -0.39974933593E+03 -0.41908174539E+03 -0.63096663663E+03  0.86137640555E+03  0.91768047799E+02 0.  0.
         13    1    3    3    0    0 -0.11200443760E+03 -0.16200650394E+03 -0.16950501428E+03  0.25985197946E+03  0.00000000000E+00 0.  1.
        -13    1    3    3    0    0 -0.28774489833E+03 -0.25707524145E+03 -0.46146162235E+03  0.60152442609E+03  0.00000000000E+00 0. -1.
         22    1    1    2    0    0  0.39974933593E+03  0.41908174539E+03 -0.12505999872E+04  0.13781978700E+04  0.00000000000E+00 0. -1.
<mgrwt>
<rscale>  0 0.12146604E+04</rscale>
<asrwt>0</asrwt>
<pdfrwt beam="1">  1        2 0.31701086E+00 0.12146604E+04</pdfrwt>
<pdfrwt beam="2">  1       -2 0.27539048E-01 0.12146604E+04</pdfrwt>
<totfact> 0.73370180E+01</totfact>
</mgrwt>
</event>
<event>
 6    1  0.9906445E-006  0.1809367E+04  0.7818608E-02  0.8701334E-01
         -1   -1    0    0    0  501 -0.00000000000E+00  0.00000000000E+00  0.10381769807E+04  0.10381769807E+04  0.00000000000E+00 0.  1.
          1   -1    0    0  501    0  0.00000000000E+00 -0.00000000000E+00 -0.78835559282E+03  0.78835559282E+03  0.00000000000E+00 0. -1.
         23    2    1    2    0    0  0.66278929159E+03 -0.61040496793E+03  0.82163917292E+02  0.91002130932E+03  0.97488482313E+02 0.  0.
         13    1    3    3    0    0  0.20823448103E+03 -0.13685154645E+03  0.64726925712E+01  0.24926259368E+03  0.00000000000E+00 0. -1.
        -13    1    3    3    0    0  0.45455481056E+03 -0.47355342148E+03  0.75691224721E+02  0.66075871564E+03  0.00000000000E+00 0.  1.
         22    1    1    2    0    0 -0.66278929159E+03  0.61040496793E+03  0.16765747056E+03  0.91651126418E+03  0.00000000000E+00 0. -1.
<mgrwt>
<rscale>  0 0.18093674E+04</rscale>
<asrwt>0</asrwt>
<pdfrwt beam="1">  1        1 0.12128548E+00 0.18093674E+04</pdfrwt>
<pdfrwt beam="2">  1       -1 0.15971954E+00 0.18093674E+04</pdfrwt>
<totfact> 0.62678048E+00</totfact>
</mgrwt>
</event>
<event>
 6    1  0.9906445E-006  0.1062678E+04  0.7818608E-02  0.9242352E-01
         -1   -1    0    0    0  501 -0.00000000000E+00  0.00000000000E+00  0.30371113196E+03  0.30371113196E+03  0.00000000000E+00 0.  1.
          1   -1    0    0  501    0  0.00000000000E+00 -0.00000000000E+00 -0.92957106422E+03  0.92957106422E+03  0.00000000000E+00 0. -1.
         23    2    1    2    0    0  0.35600908098E+01 -0.48911594517E+03 -0.86323821822E+02  0.50503340866E+03  0.91432267729E+02 0.  0.
         11    1    3    3    0    0  0.31449147501E+02 -0.90378178873E+02  0.18511246458E+01  0.95711497519E+02  0.00000000000E+00 0.  1.
        -11    1    3    3    0    0 -0.27889056692E+02 -0.39873776629E+03 -0.88174946468E+02  0.40932191114E+03  0.00000000000E+00 0. -1.
         22    1    1    2    0    0 -0.35600908098E+01  0.48911594517E+03 -0.53953611044E+03  0.72824878752E+03  0.00000000000E+00 0. -1.
<mgrwt>
<rscale>  0 0.10626779E+04</rscale>
<asrwt>0</asrwt>
<pdfrwt beam="1">  1        1 0.14301093E+00 0.10626779E+04</pdfrwt>
<pdfrwt beam="2">  1       -1 0.46724790E-01 0.10626779E+04</pdfrwt>
<totfact> 0.78428996E+01</totfact>
</mgrwt>
</event>
<event>
 6    1  0.9906445E-006  0.1036999E+04  0.7818608E-02  0.9268870E-01
         -1   -1    0    0    0  501 -0.00000000000E+00  0.00000000000E+00  0.13567547330E+03  0.13567547330E+03  0.00000000000E+00 0.  1.
          1   -1    0    0  501    0  0.00000000000E+00 -0.00000000000E+00 -0.19815065831E+04  0.19815065831E+04  0.00000000000E+00 0. -1.
         23    2    1    2    0    0  0.85167682708E+02 -0.16848438765E+03 -0.19071702373E+04  0.19186801380E+04  0.91622240806E+02 0.  0.
         13    1    3    3    0    0 -0.95886783277E+01 -0.71815820276E+02 -0.79738962068E+03  0.80067450438E+03  0.00000000000E+00 0. -1.
        -13    1    3    3    0    0  0.94756361035E+02 -0.96668567376E+02 -0.11097806166E+04  0.11180056336E+04  0.00000000000E+00 0.  1.
         22    1    1    2    0    0 -0.85167682708E+02  0.16848438765E+03  0.61339127443E+02  0.19850191842E+03  0.00000000000E+00 0.  1.
<mgrwt>
<rscale>  0 0.10369992E+04</rscale>
<asrwt>0</asrwt>
<pdfrwt beam="1">  1        1 0.30484713E+00 0.10369992E+04</pdfrwt>
<pdfrwt beam="2">  1       -1 0.20873152E-01 0.10369992E+04</pdfrwt>
<totfact> 0.58639722E+01</totfact>
</mgrwt>
</event>
<event>
 6    1  0.9906445E-006  0.2489601E+04  0.7818608E-02  0.8406699E-01
         -1   -1    0    0    0  501 -0.00000000000E+00  0.00000000000E+00  0.59727262962E+03  0.59727262962E+03  0.00000000000E+00 0.  1.
          1   -1    0    0  501    0  0.00000000000E+00 -0.00000000000E+00 -0.25943410140E+04  0.25943410140E+04  0.00000000000E+00 0. -1.
         23    2    1    2    0    0  0.71814626711E+03 -0.37819053244E+03 -0.22070150345E+04  0.23532582681E+04  0.90260589643E+02 0.  0.
         13    1    3    3    0    0  0.64433545284E+03 -0.31302849487E+03 -0.18849775620E+04  0.20165057460E+04  0.00000000000E+00 0. -1.
        -13    1    3    3    0    0  0.73810814266E+02 -0.65162037570E+02 -0.32203747256E+03  0.33675252215E+03  0.00000000000E+00 0.  1.
         22    1    1    2    0    0 -0.71814626711E+03  0.37819053244E+03  0.20994665012E+03  0.83835537553E+03  0.00000000000E+00 0.  1.
<mgrwt>
<rscale>  0 0.24896015E+04</rscale>
<asrwt>0</asrwt>
<pdfrwt beam="1">  1        1 0.39912939E+00 0.24896015E+04</pdfrwt>
<pdfrwt beam="2">  1       -1 0.91888095E-01 0.24896015E+04</pdfrwt>
<totfact> 0.11940803E+00</totfact>
</mgrwt>
</event>
<event>
 6    1  0.9906445E-006  0.1040928E+04  0.7818608E-02  0.9264761E-01
          2   -1    0    0  501    0  0.00000000000E+00  0.00000000000E+00  0.79453011450E+03  0.79453011450E+03  0.00000000000E+00 0. -1.
         -2   -1    0    0    0  501 -0.00000000000E+00 -0.00000000000E+00 -0.34093430115E+03  0.34093430115E+03  0.00000000000E+00 0.  1.
         23    2    1    2    0    0 -0.21030315483E+03 -0.19145504898E+03  0.69889924145E+03  0.75988988969E+03  0.89944660968E+02 0.  0.
         11    1    3    3    0    0 -0.12551406524E+03 -0.13865934861E+03  0.34828641952E+03  0.39532723857E+03  0.00000000000E+00 0.  1.
        -11    1    3    3    0    0 -0.84789089593E+02 -0.52795700373E+02  0.35061282193E+03  0.36456265112E+03  0.00000000000E+00 0. -1.
         22    1    1    2    0    0  0.21030315483E+03  0.19145504898E+03 -0.24530342811E+03  0.37557452596E+03  0.00000000000E+00 0.  1.
<mgrwt>
<rscale>  0 0.10409276E+04</rscale>
<asrwt>0</asrwt>
<pdfrwt beam="1">  1        2 0.12223540E+00 0.10409276E+04</pdfrwt>
<pdfrwt beam="2">  1       -2 0.52451431E-01 0.10409276E+04</pdfrwt>
<totfact> 0.11880079E+02</totfact>
</mgrwt>
</event>
<event>
 6    1  0.9906445E-006  0.3825692E+04  0.7818608E-02  0.8040664E-01
         -1   -1    0    0    0  501 -0.00000000000E+00  0.00000000000E+00  0.14425083348E+04  0.14425083348E+04  0.00000000000E+00 0.  1.
          1   -1    0    0  501    0  0.00000000000E+00 -0.00000000000E+00 -0.25365398845E+04  0.25365398845E+04  0.00000000000E+00 0. -1.
         23    2    1    2    0    0  0.14054562134E+02  0.61068128332E+03  0.13368460987E+04  0.14725974813E+04  0.90866330591E+02 0.  0.
         13    1    3    3    0    0 -0.37495935847E+02  0.19218785075E+03  0.43613258331E+03  0.47807294988E+03  0.00000000000E+00 0.  1.
        -13    1    3    3    0    0  0.51550497981E+02  0.41849343257E+03  0.90071351535E+03  0.99452453146E+03  0.00000000000E+00 0. -1.
         22    1    1    2    0    0 -0.14054562134E+02 -0.61068128332E+03 -0.24308776484E+04  0.25064507380E+04  0.00000000000E+00 0. -1.
<mgrwt>
<rscale>  0 0.38256921E+04</rscale>
<asrwt>0</asrwt>
<pdfrwt beam="1">  1        1 0.39023690E+00 0.38256921E+04</pdfrwt>
<pdfrwt beam="2">  1       -1 0.22192436E+00 0.38256921E+04</pdfrwt>
<totfact> 0.10837623E-01</totfact>
</mgrwt>
</event>
<event>
 6    1  0.9906445E-006  0.2880220E+04  0.7818608E-02  0.8278787E-01
         -2   -1    0    0    0  501 -0.00000000000E+00  0.00000000000E+00  0.10222115169E+04  0.10222115169E+04  0.00000000000E+00 0. -1.
          2   -1    0    0  501    0  0.00000000000E+00 -0.00000000000E+00 -0.20288526053E+04  0.20288526053E+04  0.00000000000E+00 0.  1.
         23    2    1    2    0    0 -0.53191946715E+03 -0.12994110361E+04 -0.17165524343E+03  0.14174764381E+04  0.91468955979E+02 0.  0.
         11    1    3    3    0    0 -0.22607993816E+03 -0.61045129107E+03 -0.11979775593E+03  0.66190212232E+03  0.00000000000E+00 0.  1.
        -11    1    3    3    0    0 -0.30583952899E+03 -0.68895974499E+03 -0.51857487499E+02  0.75557431581E+03  0.00000000000E+00 0. -1.
         22    1    1    2    0    0  0.53191946715E+03  0.12994110361E+04 -0.83498584494E+03  0.16335876840E+04  0.00000000000E+00 0. -1.
<mgrwt>
<rscale>  0 0.28802198E+04</rscale>
<asrwt>0</asrwt>
<pdfrwt beam="1">  1        2 0.31213117E+00 0.28802198E+04</pdfrwt>
<pdfrwt beam="2">  1       -2 0.15726331E+00 0.28802198E+04</pdfrwt>
<totfact> 0.14693852E+00</totfact>
</mgrwt>
</event>
<event>
 6    1  0.9906445E-006  0.1713850E+04  0.7818608E-02  0.8753504E-01
          2   -1    0    0  501    0  0.00000000000E+00  0.00000000000E+00  0.14475410706E+04  0.14475410706E+04  0.00000000000E+00 0. -1.
         -2   -1    0    0    0  501 -0.00000000000E+00 -0.00000000000E+00 -0.50728813325E+03  0.50728813325E+03  0.00000000000E+00 0.  1.
         23    2    1    2    0    0  0.79975302260E+02  0.74140849795E+03  0.94740570333E+03  0.12090854329E+04  0.90705057918E+02 0.  0.
         11    1    3    3    0    0  0.33889691758E+02  0.93167711648E+02  0.15878812856E+03  0.18719616308E+03  0.00000000000E+00 0.  1.
        -11    1    3    3    0    0  0.46085610501E+02  0.64824078630E+03  0.78861757476E+03  0.10218892698E+04  0.00000000000E+00 0. -1.
         22    1    1    2    0    0 -0.79975302260E+02 -0.74140849795E+03 -0.71527660098E+01  0.74574377092E+03  0.00000000000E+00 0.  1.
<mgrwt>
<rscale>  0 0.17138499E+04</rscale>
<asrwt>0</asrwt>
<pdfrwt beam="1">  1        2 0.22269862E+00 0.17138499E+04</pdfrwt>
<pdfrwt beam="2">  1       -2 0.78044329E-01 0.17138499E+04</pdfrwt>
<totfact> 0.18881415E+01</totfact>
</mgrwt>
</event>
<event>
 6    1  0.9906445E-006  0.3466486E+04  0.7818608E-02  0.8121779E-01
          2   -1    0    0  501    0  0.00000000000E+00  0.00000000000E+00  0.13296609359E+04  0.13296609359E+04  0.00000000000E+00 0. -1.
         -2   -1    0    0    0  501 -0.00000000000E+00 -0.00000000000E+00 -0.22593211364E+04  0.22593211364E+04  0.00000000000E+00 0.  1.
         23    2    1    2    0    0 -0.20552818170E+03 -0.47510756754E+03 -0.21764247770E+04  0.22390224643E+04  0.91802784379E+02 0.  0.
         11    1    3    3    0    0 -0.19272041601E+03 -0.46074663953E+03 -0.19943222365E+04  0.20559060795E+04  0.00000000000E+00 0. -1.
        -11    1    3    3    0    0 -0.12807765688E+02 -0.14360928003E+02 -0.18210254053E+03  0.18311638480E+03  0.00000000000E+00 0.  1.
         22    1    1    2    0    0  0.20552818170E+03  0.47510756754E+03  0.12467645765E+04  0.13499596081E+04  0.00000000000E+00 0. -1.
<mgrwt>
<rscale>  0 0.34664859E+04</rscale>
<asrwt>0</asrwt>
<pdfrwt beam="1">  1        2 0.20456322E+00 0.34664859E+04</pdfrwt>
<pdfrwt beam="2">  1       -2 0.34758787E+00 0.34664859E+04</pdfrwt>
<totfact> 0.21082969E-01</totfact>
</mgrwt>
</event>
<event>
 6    1  0.9906445E-006  0.4758041E+04  0.7818608E-02  0.7866956E-01
         -2   -1    0    0    0  501 -0.00000000000E+00  0.00000000000E+00  0.14324593476E+04  0.14324593476E+04  0.00000000000E+00 0.  1.
          2   -1    0    0  501    0  0.00000000000E+00 -0.00000000000E+00 -0.39510646053E+04  0.39510646053E+04  0.00000000000E+00 0. -1.
         23    2    1    2    0    0  0.10718130910E+04  0.19030643577E+04 -0.23242036553E+04  0.31907564699E+04  0.92557911662E+02 0.  0.
         13    1    3    3    0    0  0.82706554977E+03  0.14938404348E+04 -0.18685858894E+04  0.25312467075E+04  0.00000000000E+00 0. -1.
        -13    1    3    3    0    0  0.24474754123E+03  0.40922392293E+03 -0.45561776594E+03  0.65950976238E+03  0.00000000000E+00 0.  1.
         22    1    1    2    0    0 -0.10718130910E+04 -0.19030643577E+04 -0.19440160234E+03  0.21927674831E+04  0.00000000000E+00 0.  1.
<mgrwt>
<rscale>  0 0.47580414E+04</rscale>
<asrwt>0</asrwt>
<pdfrwt beam="1">  1        2 0.60785610E+00 0.47580414E+04</pdfrwt>
<pdfrwt beam="2">  1       -2 0.22037836E+00 0.47580414E+04</pdfrwt>
<totfact> 0.27208752E-02</totfact>
</mgrwt>
</event>
<event>
 6    1  0.9906445E-006  0.3238032E+04  0.7818608E-02  0.8178845E-01
         -1   -1    0    0    0  501 -0.00000000000E+00  0.00000000000E+00  0.17426461137E+04  0.17426461137E+04  0.00000000000E+00 0.  1.
          1   -1    0    0  501    0  0.00000000000E+00 -0.00000000000E+00 -0.15041569059E+04  0.15041569059E+04  0.00000000000E+00 0. -1.
         23    2    1    2    0    0 -0.18588718175E+03  0.10593801005E+04  0.13310111940E+04  0.17136870644E+04  0.91062146197E+02 0.  0.
         13    1    3    3    0    0 -0.16758379800E+03  0.80271963700E+03  0.10570876799E+04  0.13378630378E+04  0.00000000000E+00 0. -1.
        -13    1    3    3    0    0 -0.18303383752E+02  0.25666046348E+03  0.27392351417E+03  0.37582402662E+03  0.00000000000E+00 0.  1.
         22    1    1    2    0    0  0.18588718175E+03 -0.10593801005E+04 -0.10925219863E+04  0.15331159552E+04  0.00000000000E+00 0. -1.
<mgrwt>
<rscale>  0 0.32380322E+04</rscale>
<asrwt>0</asrwt>
<pdfrwt beam="1">  1        1 0.23140875E+00 0.32380322E+04</pdfrwt>
<pdfrwt beam="2">  1       -1 0.26809940E+00 0.32380322E+04</pdfrwt>
<totfact> 0.28806231E-01</totfact>
</mgrwt>
</event>
<event>
 6    1  0.9906445E-006  0.2037314E+04  0.7818608E-02  0.8589371E-01
          1   -1    0    0  501    0  0.00000000000E+00  0.00000000000E+00  0.14743296492E+04  0.14743296492E+04  0.00000000000E+00 0. -1.
         -1   -1    0    0    0  501 -0.00000000000E+00 -0.00000000000E+00 -0.70381991950E+03  0.70381991950E+03  0.00000000000E+00 0.  1.
         23    2    1    2    0    0 -0.91101163894E+03  0.44782226135E+03  0.44669617621E+03  0.11126251900E+04  0.88940180160E+02 0.  0.
         11    1    3    3    0    0 -0.91973134676E+02  0.73456775541E+02  0.65739116536E+02  0.13482057268E+03  0.00000000000E+00 0.  1.
        -11    1    3    3    0    0 -0.81903850426E+03  0.37436548581E+03  0.38095705967E+03  0.97780461736E+03  0.00000000000E+00 0. -1.
         22    1    1    2    0    0  0.91101163894E+03 -0.44782226135E+03  0.32381355347E+03  0.10655243786E+04  0.00000000000E+00 0.  1.
<mgrwt>
<rscale>  0 0.20373145E+04</rscale>
<asrwt>0</asrwt>
<pdfrwt beam="1">  1        1 0.22681994E+00 0.20373145E+04</pdfrwt>
<pdfrwt beam="2">  1       -1 0.10827999E+00 0.20373145E+04</pdfrwt>
<totfact> 0.49923431E+00</totfact>
</mgrwt>
</event>
<event>
 6    1  0.9906445E-006  0.4753815E+04  0.7818608E-02  0.7867648E-01
         -2   -1    0    0    0  501 -0.00000000000E+00  0.00000000000E+00  0.18171848861E+04  0.18171848861E+04  0.00000000000E+00 0.  1.
          2   -1    0    0  501    0  0.00000000000E+00 -0.00000000000E+00 -0.31090335532E+04  0.31090335532E+04  0.00000000000E+00 0. -1.
         23    2    1    2    0    0 -0.13071988547E+04  0.60481899021E+03  0.13121319835E+04  0.19504344947E+04  0.89047850191E+02 0.  0.
         11    1    3    3    0    0 -0.45214403848E+03  0.23061668886E+03  0.41163899444E+03  0.65350206614E+03  0.00000000000E+00 0. -1.
        -11    1    3    3    0    0 -0.85505481620E+03  0.37420230135E+03  0.90049298902E+03  0.12969324286E+04  0.00000000000E+00 0.  1.
         22    1    1    2    0    0  0.13071988547E+04 -0.60481899021E+03 -0.26039806505E+04  0.29757839446E+04  0.00000000000E+00 0. -1.
<mgrwt>
<rscale>  0 0.47538148E+04</rscale>
<asrwt>0</asrwt>
<pdfrwt beam="1">  1        2 0.47831285E+00 0.47538148E+04</pdfrwt>
<pdfrwt beam="2">  1       -2 0.27956691E+00 0.47538148E+04</pdfrwt>
<totfact> 0.46673052E-02</totfact>
</mgrwt>
</event>
<event>
 6    1  0.9906445E-006  0.1281795E+04  0.7818608E-02  0.9044128E-01
          2   -1    0    0  501    0  0.00000000000E+00  0.00000000000E+00  0.23451084354E+04  0.23451084354E+04  0.00000000000E+00 0. -1.
         -2   -1    0    0    0  501 -0.00000000000E+00 -0.00000000000E+00 -0.17515169865E+03  0.17515169865E+03  0.00000000000E+00 0.  1.
         23    2    1    2    0    0 -0.17058093247E+03 -0.60749365708E+03  0.12713524690E+04  0.14222455495E+04  0.91098324031E+02 0.  0.
         13    1    3    3    0    0 -0.80364907725E+02 -0.14028932175E+03  0.32712570698E+03  0.36489839731E+03  0.00000000000E+00 0.  1.
        -13    1    3    3    0    0 -0.90216024750E+02 -0.46720433533E+03  0.94422676205E+03  0.10573471522E+04  0.00000000000E+00 0. -1.
         22    1    1    2    0    0  0.17058093247E+03  0.60749365708E+03  0.89860426776E+03  0.10980145846E+04  0.00000000000E+00 0.  1.
<mgrwt>
<rscale>  0 0.12817952E+04</rscale>
<asrwt>0</asrwt>
<pdfrwt beam="1">  1        2 0.36078589E+00 0.12817952E+04</pdfrwt>
<pdfrwt beam="2">  1       -2 0.26946417E-01 0.12817952E+04</pdfrwt>
<totfact> 0.52650276E+01</totfact>
</mgrwt>
</event>
<event>
 6    1  0.9906445E-006  0.2615355E+04  0.7818608E-02  0.8363004E-01
         -2   -1    0    0    0  501 -0.00000000000E+00  0.00000000000E+00  0.74828645347E+03  0.74828645347E+03  0.00000000000E+00 0.  1.
          2   -1    0    0  501    0  0.00000000000E+00 -0.00000000000E+00 -0.22852491786E+04  0.22852491786E+04  0.00000000000E+00 0. -1.
         23    2    1    2    0    0 -0.26263142013E+03 -0.11362214978E+04 -0.87304579402E+02  0.11730294390E+04  0.91659262237E+02 0.  0.
         13    1    3    3    0    0 -0.18686229432E+03 -0.76600213273E+03 -0.10088133990E+03  0.79489233807E+03  0.00000000000E+00 0.  1.
        -13    1    3    3    0    0 -0.75769125805E+02 -0.37021936507E+03  0.13576760494E+02  0.37813710096E+03  0.00000000000E+00 0. -1.
         22    1    1    2    0    0  0.26263142013E+03  0.11362214978E+04 -0.14496581457E+04  0.18605061931E+04  0.00000000000E+00 0. -1.
<mgrwt>
<rscale>  0 0.26153554E+04</rscale>
<asrwt>0</asrwt>
<pdfrwt beam="1">  1        2 0.35157678E+00 0.26153554E+04</pdfrwt>
<pdfrwt beam="2">  1       -2 0.11512100E+00 0.26153554E+04</pdfrwt>
<totfact> 0.24010768E+00</totfact>
</mgrwt>
</event>
<event>
 6    1  0.9906445E-006  0.8658091E+03  0.7818608E-02  0.9469361E-01
         -2   -1    0    0    0  501 -0.00000000000E+00  0.00000000000E+00  0.16374582077E+04  0.16374582077E+04  0.00000000000E+00 0.  1.
          2   -1    0    0  501    0  0.00000000000E+00 -0.00000000000E+00 -0.11444954299E+03  0.11444954299E+03  0.00000000000E+00 0. -1.
         23    2    1    2    0    0  0.12731554960E+03 -0.32633769412E+03  0.12688036929E+04  0.13190963513E+04  0.86295034729E+02 0.  0.
         11    1    3    3    0    0  0.12275162334E+03 -0.20568027215E+03  0.81029662021E+03  0.84495736467E+03  0.00000000000E+00 0.  1.
        -11    1    3    3    0    0  0.45639262592E+01 -0.12065742197E+03  0.45850707270E+03  0.47413898660E+03  0.00000000000E+00 0. -1.
         22    1    1    2    0    0 -0.12731554960E+03  0.32633769412E+03  0.25420497181E+03  0.43281139942E+03  0.00000000000E+00 0. -1.
<mgrwt>
<rscale>  0 0.86580909E+03</rscale>
<asrwt>0</asrwt>
<pdfrwt beam="1">  1        2 0.17607623E-01 0.86580909E+03</pdfrwt>
<pdfrwt beam="2">  1       -2 0.25191663E+00 0.86580909E+03</pdfrwt>
<totfact> 0.21046617E+01</totfact>
</mgrwt>
</event>
<event>
 6    1  0.9906445E-006  0.2493539E+04  0.7818608E-02  0.8405291E-01
         -2   -1    0    0    0  501 -0.00000000000E+00  0.00000000000E+00  0.22776897795E+04  0.22776897795E+04  0.00000000000E+00 0. -1.
          2   -1    0    0  501    0  0.00000000000E+00 -0.00000000000E+00 -0.68246091221E+03  0.68246091221E+03  0.00000000000E+00 0.  1.
         23    2    1    2    0    0 -0.44485935048E+03  0.10097643902E+04  0.11414367235E+03  0.11132242395E+04  0.93356649405E+02 0.  0.
         11    1    3    3    0    0 -0.44920410802E+02  0.15936015127E+03 -0.68552999099E+01  0.16571208845E+03  0.00000000000E+00 0. -1.
        -11    1    3    3    0    0 -0.39993893968E+03  0.85040423891E+03  0.12099897226E+03  0.94751215101E+03  0.00000000000E+00 0.  1.
         22    1    1    2    0    0  0.44485935048E+03 -0.10097643902E+04  0.14810851950E+04  0.18469264523E+04  0.00000000000E+00 0. -1.
<mgrwt>
<rscale>  0 0.24935390E+04</rscale>
<asrwt>0</asrwt>
<pdfrwt beam="1">  1        2 0.10499399E+00 0.24935390E+04</pdfrwt>
<pdfrwt beam="2">  1       -2 0.35041381E+00 0.24935390E+04</pdfrwt>
<totfact> 0.58415703E-01</totfact>
</mgrwt>
</event>
<event>
 6    1  0.9906445E-006  0.3263711E+04  0.7818608E-02  0.8172191E-01
         -2   -1    0    0    0  501 -0.00000000000E+00  0.00000000000E+00  0.16440914678E+04  0.16440914678E+04  0.00000000000E+00 0.  1.
          2   -1    0    0  501    0  0.00000000000E+00 -0.00000000000E+00 -0.16197103123E+04  0.16197103123E+04  0.00000000000E+00 0. -1.
         23    2    1    2    0    0  0.14171100132E+04  0.80483609828E+03 -0.39191072781E+02  0.16328501061E+04  0.93282335341E+02 0.  0.
         11    1    3    3    0    0  0.10239671316E+03  0.52519848520E+02  0.20677564134E+02  0.11692297898E+03  0.00000000000E+00 0. -1.
        -11    1    3    3    0    0  0.13147133000E+04  0.75231624976E+03 -0.59868636914E+02  0.15159271271E+04  0.00000000000E+00 0.  1.
         22    1    1    2    0    0 -0.14171100132E+04 -0.80483609828E+03  0.63572228314E+02  0.16309516740E+04  0.00000000000E+00 0.  1.
<mgrwt>
<rscale>  0 0.32637107E+04</rscale>
<asrwt>0</asrwt>
<pdfrwt beam="1">  1        2 0.24918620E+00 0.32637107E+04</pdfrwt>
<pdfrwt beam="2">  1       -2 0.25293715E+00 0.32637107E+04</pdfrwt>
<totfact> 0.56143451E-01</totfact>
</mgrwt>
</event>
<event>
 6    1  0.9906445E-006  0.3002031E+04  0.7818608E-02  0.8243151E-01
          1   -1    0    0  501    0  0.00000000000E+00  0.00000000000E+00  0.23718922093E+04  0.23718922093E+04  0.00000000000E+00 0. -1.
         -1   -1    0    0    0  501 -0.00000000000E+00 -0.00000000000E+00 -0.94989426786E+03  0.94989426786E+03  0.00000000000E+00 0.  1.
         23    2    1    2    0    0 -0.66170956278E+03 -0.17595655608E+03  0.21878059454E+04  0.22945172067E+04  0.97437682532E+02 0.  0.
         13    1    3    3    0    0 -0.46984983663E+03 -0.16454570037E+03  0.16456223011E+04  0.17192751131E+04  0.00000000000E+00 0. -1.
        -13    1    3    3    0    0 -0.19185972615E+03 -0.11410855714E+02  0.54218364429E+03  0.57524209363E+03  0.00000000000E+00 0.  1.
         22    1    1    2    0    0  0.66170956278E+03  0.17595655608E+03 -0.76580800396E+03  0.10272692705E+04  0.00000000000E+00 0.  1.
<mgrwt>
<rscale>  0 0.30020305E+04</rscale>
<asrwt>0</asrwt>
<pdfrwt beam="1">  1        1 0.36490649E+00 0.30020305E+04</pdfrwt>
<pdfrwt beam="2">  1       -1 0.14613758E+00 0.30020305E+04</pdfrwt>
<totfact> 0.52878059E-01</totfact>
</mgrwt>
</event>
<event>
 6    1  0.9906445E-006  0.2495996E+04  0.7818608E-02  0.8404413E-01
          2   -1    0    0  501    0  0.00000000000E+00  0.00000000000E+00  0.13118850063E+04  0.13118850063E+04  0.00000000000E+00 0. -1.
         -2   -1    0    0    0  501 -0.00000000000E+00 -0.00000000000E+00 -0.11872218340E+04  0.11872218340E+04  0.00000000000E+00 0.  1.
         23    2    1    2    0    0  0.71365806959E+03 -0.53428077308E+03  0.93448594495E+03  0.12947079413E+04  0.90779331664E+02 0.  0.
         11    1    3    3    0    0  0.34715431889E+03 -0.26851255775E+03  0.52487160144E+03  0.68418222192E+03  0.00000000000E+00 0. -1.
        -11    1    3    3    0    0  0.36650375070E+03 -0.26576821533E+03  0.40961434352E+03  0.61052571934E+03  0.00000000000E+00 0.  1.
         22    1    1    2    0    0 -0.71365806959E+03  0.53428077308E+03 -0.80982277270E+03  0.12043988990E+04  0.00000000000E+00 0.  1.
<mgrwt>
<rscale>  0 0.24959956E+04</rscale>
<asrwt>0</asrwt>
<pdfrwt beam="1">  1        2 0.20182846E+00 0.24959956E+04</pdfrwt>
<pdfrwt beam="2">  1       -2 0.18264951E+00 0.24959956E+04</pdfrwt>
<totfact> 0.25239083E+00</totfact>
</mgrwt>
</event>
<event>
 6    1  0.9906445E-006  0.2232414E+04  0.7818608E-02  0.8505057E-01
         -1   -1    0    0    0  501 -0.00000000000E+00  0.00000000000E+00  0.10586696274E+04  0.10586696274E+04  0.00000000000E+00 0.  1.
          1   -1    0    0  501    0  0.00000000000E+00 -0.00000000000E+00 -0.11768710778E+04  0.11768710778E+04  0.00000000000E+00 0. -1.
         23    2    1    2    0    0  0.45073287549E+03  0.65452316520E+03 -0.84145798029E+03  0.11609893072E+04  0.91016152433E+02 0.  0.
         13    1    3    3    0    0  0.20015757696E+03  0.22651902821E+03 -0.35536455153E+03  0.46653819805E+03  0.00000000000E+00 0. -1.
        -13    1    3    3    0    0  0.25057529853E+03  0.42800413698E+03 -0.48609342876E+03  0.69445110914E+03  0.00000000000E+00 0.  1.
         22    1    1    2    0    0 -0.45073287549E+03 -0.65452316520E+03  0.72325652987E+03  0.10745513979E+04  0.00000000000E+00 0.  1.
<mgrwt>
<rscale>  0 0.22324136E+04</rscale>
<asrwt>0</asrwt>
<pdfrwt beam="1">  1        1 0.18105709E+00 0.22324136E+04</pdfrwt>
<pdfrwt beam="2">  1       -1 0.16287225E+00 0.22324136E+04</pdfrwt>
<totfact> 0.28087730E+00</totfact>
</mgrwt>
</event>
<event>
 6    1  0.9906445E-006  0.3288548E+04  0.7818608E-02  0.8165815E-01
         -1   -1    0    0    0  501 -0.00000000000E+00  0.00000000000E+00  0.12182266541E+04  0.12182266541E+04  0.00000000000E+00 0.  1.
          1   -1    0    0  501    0  0.00000000000E+00 -0.00000000000E+00 -0.22193220540E+04  0.22193220540E+04  0.00000000000E+00 0. -1.
         23    2    1    2    0    0 -0.15345319024E+04 -0.52638453223E+03 -0.77274173738E+03  0.17992525717E+04  0.91165721945E+02 0.  0.
         11    1    3    3    0    0 -0.12995699163E+04 -0.47823486613E+03 -0.64743978274E+03  0.15286493472E+04  0.00000000000E+00 0. -1.
        -11    1    3    3    0    0 -0.23496198608E+03 -0.48149666094E+02 -0.12530195464E+03  0.27060322446E+03  0.00000000000E+00 0.  1.
         22    1    1    2    0    0  0.15345319024E+04  0.52638453223E+03 -0.22835366256E+03  0.16382961364E+04  0.00000000000E+00 0.  1.
<mgrwt>
<rscale>  0 0.32885482E+04</rscale>
<asrwt>0</asrwt>
<pdfrwt beam="1">  1        1 0.34143416E+00 0.32885482E+04</pdfrwt>
<pdfrwt beam="2">  1       -1 0.18741949E+00 0.32885482E+04</pdfrwt>
<totfact> 0.32334712E-01</totfact>
</mgrwt>
</event>
<event>
 6    1  0.9906445E-006  0.1316613E+04  0.7818608E-02  0.9016493E-01
         -1   -1    0    0    0  501 -0.00000000000E+00  0.00000000000E+00  0.41396293686E+03  0.41396293686E+03  0.00000000000E+00 0.  1.
          1   -1    0    0  501    0  0.00000000000E+00 -0.00000000000E+00 -0.10468757362E+04  0.10468757362E+04  0.00000000000E+00 0. -1.
         23    2    1    2    0    0 -0.14454860835E+03 -0.56259792542E+02 -0.10243128251E+04  0.10398238936E+04  0.89204829712E+02 0.  0.
         13    1    3    3    0    0 -0.14642894969E+03 -0.26636224184E+02 -0.82590625723E+03  0.83920919411E+03  0.00000000000E+00 0. -1.
        -13    1    3    3    0    0  0.18803413345E+01 -0.29623568358E+02 -0.19840656786E+03  0.20061469950E+03  0.00000000000E+00 0.  1.
         22    1    1    2    0    0  0.14454860835E+03  0.56259792542E+02  0.39140002571E+03  0.42101477950E+03  0.00000000000E+00 0.  1.
<mgrwt>
<rscale>  0 0.13166135E+04</rscale>
<asrwt>0</asrwt>
<pdfrwt beam="1">  1        1 0.16105780E+00 0.13166135E+04</pdfrwt>
<pdfrwt beam="2">  1       -1 0.63686607E-01 0.13166135E+04</pdfrwt>
<totfact> 0.34147559E+01</totfact>
</mgrwt>
</event>
<event>
 6    1  0.9906445E-006  0.5946911E+03  0.7818608E-02  0.9916482E-01
         -1   -1    0    0    0  501 -0.00000000000E+00  0.00000000000E+00  0.29832856129E+03  0.29832856129E+03  0.00000000000E+00 0.  1.
          1   -1    0    0  501    0  0.00000000000E+00 -0.00000000000E+00 -0.29636578447E+03  0.29636578447E+03  0.00000000000E+00 0. -1.
         23    2    1    2    0    0  0.20151906039E+03 -0.63167321338E+02 -0.19744630062E+03  0.30423949152E+03  0.94744838325E+02 0.  0.
         11    1    3    3    0    0  0.13335802719E+03 -0.16051090226E+02 -0.17061326147E+03  0.21714254742E+03  0.00000000000E+00 0. -1.
        -11    1    3    3    0    0  0.68161033204E+02 -0.47116231112E+02 -0.26833039149E+02  0.87096944100E+02  0.00000000000E+00 0.  1.
         22    1    1    2    0    0 -0.20151906039E+03  0.63167321338E+02  0.19940907744E+03  0.29045485424E+03  0.00000000000E+00 0.  1.
<mgrwt>
<rscale>  0 0.59469111E+03</rscale>
<asrwt>0</asrwt>
<pdfrwt beam="1">  1        1 0.45594736E-01 0.59469111E+03</pdfrwt>
<pdfrwt beam="2">  1       -1 0.45896702E-01 0.59469111E+03</pdfrwt>
<totfact> 0.42568801E+02</totfact>
</mgrwt>
</event>
<event>
 6    1  0.9906445E-006  0.1820931E+04  0.7818608E-02  0.8695247E-01
          1   -1    0    0  501    0  0.00000000000E+00  0.00000000000E+00  0.14518843035E+04  0.14518843035E+04  0.00000000000E+00 0. -1.
         -1   -1    0    0    0  501 -0.00000000000E+00 -0.00000000000E+00 -0.57094609322E+03  0.57094609322E+03  0.00000000000E+00 0.  1.
         23    2    1    2    0    0 -0.18633581486E+03 -0.34970520655E+03  0.13492489143E+04  0.14093732401E+04  0.94050677297E+02 0.  0.
         11    1    3    3    0    0 -0.13069050794E+03 -0.16519474420E+03  0.60682550896E+03  0.64234454205E+03  0.00000000000E+00 0.  1.
        -11    1    3    3    0    0 -0.55645306920E+02 -0.18451046235E+03  0.74242340535E+03  0.76702869810E+03  0.00000000000E+00 0. -1.
         22    1    1    2    0    0  0.18633581486E+03  0.34970520655E+03 -0.46831070405E+03  0.61345715655E+03  0.00000000000E+00 0.  1.
<mgrwt>
<rscale>  0 0.18209313E+04</rscale>
<asrwt>0</asrwt>
<pdfrwt beam="1">  1        1 0.22336681E+00 0.18209313E+04</pdfrwt>
<pdfrwt beam="2">  1       -1 0.87837861E-01 0.18209313E+04</pdfrwt>
<totfact> 0.84816647E+00</totfact>
</mgrwt>
</event>
<event>
 6    1  0.9906445E-006  0.2619609E+04  0.7818608E-02  0.8361571E-01
          2   -1    0    0  501    0  0.00000000000E+00  0.00000000000E+00  0.22999811659E+04  0.22999811659E+04  0.00000000000E+00 0. -1.
         -2   -1    0    0    0  501 -0.00000000000E+00 -0.00000000000E+00 -0.74591409988E+03  0.74591409988E+03  0.00000000000E+00 0.  1.
         23    2    1    2    0    0  0.11555916627E+04 -0.55751080799E+03  0.10750972100E+04  0.16763615806E+04  0.90242705437E+02 0.  0.
         11    1    3    3    0    0  0.12376898065E+03 -0.91161705885E+02  0.11944609501E+03  0.19467045694E+03  0.00000000000E+00 0. -1.
        -11    1    3    3    0    0  0.10318226821E+04 -0.46634910210E+03  0.95565111504E+03  0.14816911237E+04  0.00000000000E+00 0.  1.
         22    1    1    2    0    0 -0.11555916627E+04  0.55751080799E+03  0.47896985600E+03  0.13695336852E+04  0.00000000000E+00 0. -1.
<mgrwt>
<rscale>  0 0.26196094E+04</rscale>
<asrwt>0</asrwt>
<pdfrwt beam="1">  1        2 0.35384325E+00 0.26196094E+04</pdfrwt>
<pdfrwt beam="2">  1       -2 0.11475602E+00 0.26196094E+04</pdfrwt>
<totfact> 0.23728033E+00</totfact>
</mgrwt>
</event>
<event>
 6    1  0.9906445E-006  0.1805778E+04  0.7818608E-02  0.8703233E-01
          1   -1    0    0  501    0  0.00000000000E+00  0.00000000000E+00  0.18832202329E+04  0.18832202329E+04  0.00000000000E+00 0. -1.
         -1   -1    0    0    0  501 -0.00000000000E+00 -0.00000000000E+00 -0.43288008102E+03  0.43288008102E+03  0.00000000000E+00 0.  1.
         23    2    1    2    0    0 -0.29835734403E+03 -0.20932300885E+03 -0.32948459436E+03  0.49934239001E+03  0.89159956066E+02 0.  0.
         13    1    3    3    0    0 -0.85674008276E+02 -0.64970571383E+02 -0.46801854809E+02  0.11726732048E+03  0.00000000000E+00 0. -1.
        -13    1    3    3    0    0 -0.21268333576E+03 -0.14435243747E+03 -0.28268273956E+03  0.38207506953E+03  0.00000000000E+00 0.  1.
         22    1    1    2    0    0  0.29835734403E+03  0.20932300885E+03  0.17798247462E+04  0.18167579239E+04  0.00000000000E+00 0. -1.
<mgrwt>
<rscale>  0 0.18057780E+04</rscale>
<asrwt>0</asrwt>
<pdfrwt beam="1">  1        1 0.28972618E+00 0.18057780E+04</pdfrwt>
<pdfrwt beam="2">  1       -1 0.66596937E-01 0.18057780E+04</pdfrwt>
<totfact> 0.77065846E+00</totfact>
</mgrwt>
</event>
<event>
 6    1  0.9906445E-006  0.3344213E+04  0.7818608E-02  0.8151736E-01
         -2   -1    0    0    0  501 -0.00000000000E+00  0.00000000000E+00  0.83645908584E+03  0.83645908584E+03  0.00000000000E+00 0.  1.
          2   -1    0    0  501    0  0.00000000000E+00 -0.00000000000E+00 -0.33425905294E+04  0.33425905294E+04  0.00000000000E+00 0. -1.
         23    2    1    2    0    0 -0.13206489878E+04 -0.44821690975E+03 -0.24038806008E+04  0.27806693443E+04  0.92021259505E+02 0.  0.
         13    1    3    3    0    0 -0.69278451650E+03 -0.21638815876E+03 -0.11660570832E+04  0.13734858365E+04  0.00000000000E+00 0. -1.
        -13    1    3    3    0    0 -0.62786447129E+03 -0.23182875099E+03 -0.12378235176E+04  0.14071835079E+04  0.00000000000E+00 0.  1.
         22    1    1    2    0    0  0.13206489878E+04  0.44821690975E+03 -0.10225084268E+03  0.13983802709E+04  0.00000000000E+00 0.  1.
<mgrwt>
<rscale>  0 0.33442130E+04</rscale>
<asrwt>0</asrwt>
<pdfrwt beam="1">  1        2 0.51424469E+00 0.33442130E+04</pdfrwt>
<pdfrwt beam="2">  1       -2 0.12868601E+00 0.33442130E+04</pdfrwt>
<totfact> 0.38628584E-01</totfact>
</mgrwt>
</event>
<event>
 6    1  0.9906445E-006  0.4375717E+04  0.7818608E-02  0.7932764E-01
          2   -1    0    0  501    0  0.00000000000E+00  0.00000000000E+00  0.26680275731E+04  0.26680275731E+04  0.00000000000E+00 0. -1.
         -2   -1    0    0    0  501 -0.00000000000E+00 -0.00000000000E+00 -0.17941060755E+04  0.17941060755E+04  0.00000000000E+00 0.  1.
         23    2    1    2    0    0 -0.20779499827E+03 -0.98447535489E+03  0.24172007572E+04  0.26198303732E+04  0.91001090311E+02 0.  0.
         11    1    3    3    0    0 -0.11930369596E+03 -0.40289897464E+03  0.93057451764E+03  0.10210435292E+04  0.00000000000E+00 0.  1.
        -11    1    3    3    0    0 -0.88491302315E+02 -0.58157638024E+03  0.14866262395E+04  0.15987868440E+04  0.00000000000E+00 0. -1.
         22    1    1    2    0    0  0.20779499827E+03  0.98447535489E+03 -0.15432792596E+04  0.18423032754E+04  0.00000000000E+00 0.  1.
<mgrwt>
<rscale>  0 0.43757168E+04</rscale>
<asrwt>0</asrwt>
<pdfrwt beam="1">  1        2 0.41046578E+00 0.43757168E+04</pdfrwt>
<pdfrwt beam="2">  1       -2 0.27601632E+00 0.43757168E+04</pdfrwt>
<totfact> 0.94557611E-02</totfact>
</mgrwt>
</event>
<event>
 6    1  0.9906445E-006  0.2095309E+04  0.7818608E-02  0.8563313E-01
          1   -1    0    0  501    0  0.00000000000E+00  0.00000000000E+00  0.27720346389E+04  0.27720346389E+04  0.00000000000E+00 0. -1.
         -1   -1    0    0    0  501 -0.00000000000E+00 -0.00000000000E+00 -0.39594740840E+03  0.39594740840E+03  0.00000000000E+00 0.  1.
         23    2    1    2    0    0  0.40341467405E+03 -0.53980374384E+03 -0.18844126966E+02  0.68004561563E+03  0.89305414786E+02 0.  0.
         11    1    3    3    0    0  0.18686445321E+03 -0.31363813569E+03 -0.33228194591E+02  0.36659421292E+03  0.00000000000E+00 0. -1.
        -11    1    3    3    0    0  0.21655022084E+03 -0.22616560815E+03  0.14384067625E+02  0.31345140270E+03  0.00000000000E+00 0.  1.
         22    1    1    2    0    0 -0.40341467405E+03  0.53980374384E+03  0.23949313574E+04  0.24879364316E+04  0.00000000000E+00 0. -1.
<mgrwt>
<rscale>  0 0.20953090E+04</rscale>
<asrwt>0</asrwt>
<pdfrwt beam="1">  1        1 0.42646686E+00 0.20953090E+04</pdfrwt>
<pdfrwt beam="2">  1       -1 0.60914988E-01 0.20953090E+04</pdfrwt>
<totfact> 0.21957477E+00</totfact>
</mgrwt>
</event>
<event>
 6    1  0.9906445E-006  0.2722353E+04  0.7818608E-02  0.8327789E-01
         -1   -1    0    0    0  501 -0.00000000000E+00  0.00000000000E+00  0.73128872066E+03  0.73128872066E+03  0.00000000000E+00 0.  1.
          1   -1    0    0  501    0  0.00000000000E+00 -0.00000000000E+00 -0.25336105342E+04  0.25336105342E+04  0.00000000000E+00 0. -1.
         23    2    1    2    0    0  0.21620662173E+03  0.42786242768E+03 -0.24279684845E+04  0.24767080870E+04  0.96127135384E+02 0.  0.
         11    1    3    3    0    0  0.73381174344E+02  0.11386406826E+03 -0.91076641099E+03  0.92078514225E+03  0.00000000000E+00 0. -1.
        -11    1    3    3    0    0  0.14282544738E+03  0.31399835941E+03 -0.15172020735E+04  0.15559229447E+04  0.00000000000E+00 0.  1.
         22    1    1    2    0    0 -0.21620662173E+03 -0.42786242768E+03  0.62564667094E+03  0.78819116790E+03  0.00000000000E+00 0.  1.
<mgrwt>
<rscale>  0 0.27223525E+04</rscale>
<asrwt>0</asrwt>
<pdfrwt beam="1">  1        1 0.38978623E+00 0.27223525E+04</pdfrwt>
<pdfrwt beam="2">  1       -1 0.11250596E+00 0.27223525E+04</pdfrwt>
<totfact> 0.80896434E-01</totfact>
</mgrwt>
</event>
<event>
 6    1  0.9906445E-006  0.2916203E+04  0.7818608E-02  0.8268073E-01
          2   -1    0    0  501    0  0.00000000000E+00  0.00000000000E+00  0.14726927176E+04  0.14726927176E+04  0.00000000000E+00 0. -1.
         -2   -1    0    0    0  501 -0.00000000000E+00 -0.00000000000E+00 -0.14436547208E+04  0.14436547208E+04  0.00000000000E+00 0.  1.
         23    2    1    2    0    0  0.20870381810E+03  0.13737132375E+04 -0.42297865831E+03  0.14551957012E+04  0.89656235766E+02 0.  0.
         11    1    3    3    0    0  0.37080203010E+01  0.25273816478E+03 -0.72771603751E+02  0.26303238520E+03  0.00000000000E+00 0.  1.
        -11    1    3    3    0    0  0.20499579780E+03  0.11209750728E+04 -0.35020705456E+03  0.11921633160E+04  0.00000000000E+00 0. -1.
         22    1    1    2    0    0 -0.20870381810E+03 -0.13737132375E+04  0.45201665519E+03  0.14611517372E+04  0.00000000000E+00 0.  1.
<mgrwt>
<rscale>  0 0.29162029E+04</rscale>
<asrwt>0</asrwt>
<pdfrwt beam="1">  1        2 0.22656811E+00 0.29162029E+04</pdfrwt>
<pdfrwt beam="2">  1       -2 0.22210072E+00 0.29162029E+04</pdfrwt>
<totfact> 0.10868330E+00</totfact>
</mgrwt>
</event>
<event>
 6    1  0.9906445E-006  0.2375734E+04  0.7818608E-02  0.8448645E-01
          1   -1    0    0  501    0  0.00000000000E+00  0.00000000000E+00  0.14158522452E+04  0.14158522452E+04  0.00000000000E+00 0. -1.
         -1   -1    0    0    0  501 -0.00000000000E+00 -0.00000000000E+00 -0.99659275602E+03  0.99659275602E+03  0.00000000000E+00 0.  1.
         23    2    1    2    0    0 -0.64023521931E+03  0.33376257911E+03  0.11655083884E+04  0.13740876375E+04  0.91697529443E+02 0.  0.
         11    1    3    3    0    0 -0.91233164793E+02  0.85444729183E+02  0.21447778233E+03  0.24824385434E+03  0.00000000000E+00 0.  1.
        -11    1    3    3    0    0 -0.54900205451E+03  0.24831784992E+03  0.95103060603E+03  0.11258437831E+04  0.00000000000E+00 0. -1.
         22    1    1    2    0    0  0.64023521931E+03 -0.33376257911E+03 -0.74624889920E+03  0.10383573637E+04  0.00000000000E+00 0.  1.
<mgrwt>
<rscale>  0 0.23757341E+04</rscale>
<asrwt>0</asrwt>
<pdfrwt beam="1">  1        1 0.21782342E+00 0.23757341E+04</pdfrwt>
<pdfrwt beam="2">  1       -1 0.15332196E+00 0.23757341E+04</pdfrwt>
<totfact> 0.22109481E+00</totfact>
</mgrwt>
</event>
<event>
 6    1  0.9906445E-006  0.1658627E+04  0.7818608E-02  0.8785319E-01
          1   -1    0    0  501    0  0.00000000000E+00  0.00000000000E+00  0.13455243058E+04  0.13455243058E+04  0.00000000000E+00 0. -1.
         -1   -1    0    0    0  501 -0.00000000000E+00 -0.00000000000E+00 -0.51114742024E+03  0.51114742024E+03  0.00000000000E+00 0.  1.
         23    2    1    2    0    0  0.23722474856E+02  0.72748660574E+03  0.85714115473E+03  0.11284425524E+04  0.94298025361E+02 0.  0.
         11    1    3    3    0    0 -0.14110166201E+02  0.49179211492E+03  0.62559324300E+03  0.79588032189E+03  0.00000000000E+00 0. -1.
        -11    1    3    3    0    0  0.37832641057E+02  0.23569449082E+03  0.23154791172E+03  0.33256223050E+03  0.00000000000E+00 0.  1.
         22    1    1    2    0    0 -0.23722474856E+02 -0.72748660574E+03 -0.22764269200E+02  0.72822917361E+03  0.00000000000E+00 0. -1.
<mgrwt>
<rscale>  0 0.16586275E+04</rscale>
<asrwt>0</asrwt>
<pdfrwt beam="1">  1        1 0.20700374E+00 0.16586275E+04</pdfrwt>
<pdfrwt beam="2">  1       -1 0.78638065E-01 0.16586275E+04</pdfrwt>
<totfact> 0.12969630E+01</totfact>
</mgrwt>
</event>
<event>
 6    1  0.9906445E-006  0.2449752E+04  0.7818608E-02  0.8421108E-01
         -2   -1    0    0    0  501 -0.00000000000E+00  0.00000000000E+00  0.15820547507E+04  0.15820547507E+04  0.00000000000E+00 0.  1.
          2   -1    0    0  501    0  0.00000000000E+00 -0.00000000000E+00 -0.94833746461E+03  0.94833746461E+03  0.00000000000E+00 0. -1.
         23    2    1    2    0    0  0.61450680034E+03 -0.77566856452E+03 -0.42620215690E+03  0.10803199567E+04  0.78502233079E+02 0.  0.
         11    1    3    3    0    0  0.55051557910E+03 -0.68631454577E+03 -0.40421324348E+03  0.96823726677E+03  0.00000000000E+00 0. -1.
        -11    1    3    3    0    0  0.63991221246E+02 -0.89354018749E+02 -0.21988913429E+02  0.11208268991E+03  0.00000000000E+00 0.  1.
         22    1    1    2    0    0 -0.61450680034E+03  0.77566856452E+03  0.10599194430E+04  0.14500722587E+04  0.00000000000E+00 0.  1.
<mgrwt>
<rscale>  0 0.24497525E+04</rscale>
<asrwt>0</asrwt>
<pdfrwt beam="1">  1        2 0.14589807E+00 0.24497525E+04</pdfrwt>
<pdfrwt beam="2">  1       -2 0.24339304E+00 0.24497525E+04</pdfrwt>
<totfact> 0.17202068E+00</totfact>
</mgrwt>
</event>
<event>
 6    1  0.9906445E-006  0.1637272E+04  0.7818608E-02  0.8797972E-01
         -1   -1    0    0    0  501 -0.00000000000E+00  0.00000000000E+00  0.30703556024E+03  0.30703556024E+03  0.00000000000E+00 0.  1.
          1   -1    0    0  501    0  0.00000000000E+00 -0.00000000000E+00 -0.21826934106E+04  0.21826934106E+04  0.00000000000E+00 0. -1.
         23    2    1    2    0    0 -0.60754590363E+03 -0.33404603122E+03 -0.15945056667E+04  0.17415676738E+04  0.99553329313E+02 0.  0.
         13    1    3    3    0    0 -0.40987135661E+03 -0.19092393353E+03 -0.94145506101E+03  0.10444061036E+04  0.00000000000E+00 0. -1.
        -13    1    3    3    0    0 -0.19767454702E+03 -0.14312209769E+03 -0.65305060566E+03  0.69716157018E+03  0.00000000000E+00 0.  1.
         22    1    1    2    0    0  0.60754590363E+03  0.33404603122E+03 -0.28115218367E+03  0.74816129703E+03  0.00000000000E+00 0.  1.
<mgrwt>
<rscale>  0 0.16372715E+04</rscale>
<asrwt>0</asrwt>
<pdfrwt beam="1">  1        1 0.33579900E+00 0.16372715E+04</pdfrwt>
<pdfrwt beam="2">  1       -1 0.47236239E-01 0.16372715E+04</pdfrwt>
<totfact> 0.95815054E+00</totfact>
</mgrwt>
</event>
<event>
 6    1  0.9906445E-006  0.5277732E+03  0.7818608E-02  0.1006774E+00
         -2   -1    0    0    0  501 -0.00000000000E+00  0.00000000000E+00  0.38468646063E+02  0.38468646063E+02  0.00000000000E+00 0.  1.
          2   -1    0    0  501    0  0.00000000000E+00 -0.00000000000E+00 -0.18102053419E+04  0.18102053419E+04  0.00000000000E+00 0. -1.
         23    2    1    2    0    0 -0.13055842890E+03  0.81441433456E+01 -0.16831867523E+04  0.16907090459E+04  0.90926366931E+02 0.  0.
         11    1    3    3    0    0 -0.10419304939E+03  0.22714457472E+02 -0.80835060763E+03  0.81535442783E+03  0.00000000000E+00 0. -1.
        -11    1    3    3    0    0 -0.26365379508E+02 -0.14570314126E+02 -0.87483614466E+03  0.87535461802E+03  0.00000000000E+00 0.  1.
         22    1    1    2    0    0  0.13055842890E+03 -0.81441433456E+01 -0.88549943499E+02  0.15796494207E+03  0.00000000000E+00 0.  1.
<mgrwt>
<rscale>  0 0.52777324E+03</rscale>
<asrwt>0</asrwt>
<pdfrwt beam="1">  1        2 0.27849320E+00 0.52777324E+03</pdfrwt>
<pdfrwt beam="2">  1       -2 0.59182516E-02 0.52777324E+03</pdfrwt>
<totfact> 0.13909228E+03</totfact>
</mgrwt>
</event>
<event>
 6    1  0.9906445E-006  0.1245925E+04  0.7818608E-02  0.9073582E-01
         -2   -1    0    0    0  501 -0.00000000000E+00  0.00000000000E+00  0.18043650548E+03  0.18043650548E+03  0.00000000000E+00 0.  1.
          2   -1    0    0  501    0  0.00000000000E+00 -0.00000000000E+00 -0.21507963068E+04  0.21507963068E+04  0.00000000000E+00 0. -1.
         23    2    1    2    0    0 -0.88021242669E+02 -0.32650029512E+03 -0.18942462763E+02  0.35073292308E+03  0.91129493367E+02 0.  0.
         13    1    3    3    0    0 -0.52506643236E+02 -0.21674087989E+03 -0.55323777720E+02  0.22977005240E+03  0.00000000000E+00 0. -1.
        -13    1    3    3    0    0 -0.35514599433E+02 -0.10975941524E+03  0.36381314957E+02  0.12096287068E+03  0.00000000000E+00 0.  1.
         22    1    1    2    0    0  0.88021242669E+02  0.32650029512E+03 -0.19514173386E+04  0.19804998892E+04  0.00000000000E+00 0. -1.
<mgrwt>
<rscale>  0 0.12459248E+04</rscale>
<asrwt>0</asrwt>
<pdfrwt beam="1">  1        2 0.33089173E+00 0.12459248E+04</pdfrwt>
<pdfrwt beam="2">  1       -2 0.27759463E-01 0.12459248E+04</pdfrwt>
<totfact> 0.64261309E+01</totfact>
</mgrwt>
</event>
<event>
 6    1  0.1148047E-005  0.2149367E+04  0.7818608E-02  0.8539803E-01
         -2   -1    0    0    0  501 -0.00000000000E+00  0.00000000000E+00  0.57124013552E+03  0.57124013552E+03  0.00000000000E+00 0. -1.
          2   -1    0    0  501    0  0.00000000000E+00 -0.00000000000E+00 -0.20218192215E+04  0.20218192215E+04  0.00000000000E+00 0.  1.
         23    2    1    2    0    0 -0.32649737782E+03  0.16461935435E+03  0.49029567924E+03  0.61804165486E+03  0.88800701049E+02 0.  0.
         11    1    3    3    0    0 -0.19335509515E+03  0.10208640241E+03  0.21918236952E+03  0.30959447264E+03  0.00000000000E+00 0. -1.
        -11    1    3    3    0    0 -0.13314228266E+03  0.62532951938E+02  0.27111330972E+03  0.30844718222E+03  0.00000000000E+00 0.  1.
         22    1    1    2    0    0  0.32649737782E+03 -0.16461935435E+03 -0.19408747652E+04  0.19750177022E+04  0.00000000000E+00 0.  1.
<mgrwt>
<rscale>  0 0.21493667E+04</rscale>
<asrwt>0</asrwt>
<pdfrwt beam="1">  1        2 0.31104911E+00 0.21493667E+04</pdfrwt>
<pdfrwt beam="2">  1       -2 0.87883097E-01 0.21493667E+04</pdfrwt>
<totfact> 0.66563784E+00</totfact>
</mgrwt>
</event>
<event>
 6    1  0.9906445E-006  0.2098596E+04  0.7818608E-02  0.8561862E-01
         -2   -1    0    0    0  501 -0.00000000000E+00  0.00000000000E+00  0.75078285069E+03  0.75078285069E+03  0.00000000000E+00 0.  1.
          2   -1    0    0  501    0  0.00000000000E+00 -0.00000000000E+00 -0.14665040645E+04  0.14665040645E+04  0.00000000000E+00 0. -1.
         23    2    1    2    0    0  0.47874868500E+03 -0.89959989316E+03 -0.61357557762E+03  0.11931218884E+04  0.92653007982E+02 0.  0.
         13    1    3    3    0    0  0.71785203126E+02 -0.89503325484E+02 -0.46497441366E+02  0.12379811272E+03  0.00000000000E+00 0.  1.
        -13    1    3    3    0    0  0.40696348188E+03 -0.81009656767E+03 -0.56707813626E+03  0.10693237756E+04  0.00000000000E+00 0. -1.
         22    1    1    2    0    0 -0.47874868500E+03  0.89959989316E+03 -0.10214563617E+03  0.10241650268E+04  0.00000000000E+00 0.  1.
<mgrwt>
<rscale>  0 0.20985958E+04</rscale>
<asrwt>0</asrwt>
<pdfrwt beam="1">  1        2 0.22561601E+00 0.20985958E+04</pdfrwt>
<pdfrwt beam="2">  1       -2 0.11550506E+00 0.20985958E+04</pdfrwt>
<totfact> 0.71309042E+00</totfact>
</mgrwt>
</event>
<event>
 6    1  0.9906445E-006  0.6914658E+03  0.7818608E-02  0.9731939E-01
         -1   -1    0    0    0  501 -0.00000000000E+00  0.00000000000E+00  0.15951638211E+03  0.15951638211E+03  0.00000000000E+00 0.  1.
          1   -1    0    0  501    0  0.00000000000E+00 -0.00000000000E+00 -0.74933512227E+03  0.74933512227E+03  0.00000000000E+00 0. -1.
         23    2    1    2    0    0 -0.24225477888E+03  0.16416331287E+03 -0.72944341104E+02  0.31488507808E+03  0.90524937545E+02 0.  0.
         13    1    3    3    0    0 -0.16229628884E+03  0.81679847909E+02 -0.82633432808E+02  0.19959951689E+03  0.00000000000E+00 0. -1.
        -13    1    3    3    0    0 -0.79958490042E+02  0.82483464957E+02  0.96890917033E+01  0.11528556119E+03  0.00000000000E+00 0.  1.
         22    1    1    2    0    0  0.24225477888E+03 -0.16416331287E+03 -0.51687439905E+03  0.59396642630E+03  0.00000000000E+00 0. -1.
<mgrwt>
<rscale>  0 0.69146577E+03</rscale>
<asrwt>0</asrwt>
<pdfrwt beam="1">  1        1 0.11528233E+00 0.69146577E+03</pdfrwt>
<pdfrwt beam="2">  1       -1 0.24540981E-01 0.69146577E+03</pdfrwt>
<totfact> 0.35857230E+02</totfact>
</mgrwt>
</event>
<event>
 6    1  0.9906445E-006  0.2225191E+04  0.7818608E-02  0.8508016E-01
          2   -1    0    0  501    0  0.00000000000E+00  0.00000000000E+00  0.19068053464E+04  0.19068053464E+04  0.00000000000E+00 0. -1.
         -2   -1    0    0    0  501 -0.00000000000E+00 -0.00000000000E+00 -0.64918449898E+03  0.64918449898E+03  0.00000000000E+00 0.  1.
         23    2    1    2    0    0  0.59160183077E+03  0.78756840051E+03  0.12194923443E+04  0.15702360757E+04  0.90681001021E+02 0.  0.
         11    1    3    3    0    0  0.43773385004E+03  0.60712712457E+03  0.86676615607E+03  0.11452064609E+04  0.00000000000E+00 0. -1.
        -11    1    3    3    0    0  0.15386798073E+03  0.18044127594E+03  0.35272618823E+03  0.42502961476E+03  0.00000000000E+00 0.  1.
         22    1    1    2    0    0 -0.59160183077E+03 -0.78756840051E+03  0.38128503083E+02  0.98575376966E+03  0.00000000000E+00 0.  1.
<mgrwt>
<rscale>  0 0.22251908E+04</rscale>
<asrwt>0</asrwt>
<pdfrwt beam="1">  1        2 0.29335467E+00 0.22251908E+04</pdfrwt>
<pdfrwt beam="2">  1       -2 0.99874539E-01 0.22251908E+04</pdfrwt>
<totfact> 0.56884462E+00</totfact>
</mgrwt>
</event>
<event>
 6    1  0.9906445E-006  0.2010242E+04  0.7818608E-02  0.8601847E-01
         -2   -1    0    0    0  501 -0.00000000000E+00  0.00000000000E+00  0.51442375687E+03  0.51442375687E+03  0.00000000000E+00 0.  1.
          2   -1    0    0  501    0  0.00000000000E+00 -0.00000000000E+00 -0.19638831182E+04  0.19638831182E+04  0.00000000000E+00 0. -1.
         23    2    1    2    0    0  0.67063605854E+03  0.50087418617E+03 -0.14076386343E+04  0.16402277340E+04  0.90955051434E+02 0.  0.
         13    1    3    3    0    0  0.60164956343E+03  0.42512572060E+03 -0.12763017252E+04  0.14736553767E+04  0.00000000000E+00 0.  1.
        -13    1    3    3    0    0  0.68986495114E+02  0.75748465569E+02 -0.13133690906E+03  0.16657235733E+03  0.00000000000E+00 0. -1.
         22    1    1    2    0    0 -0.67063605854E+03 -0.50087418617E+03 -0.41820727032E+02  0.83807914101E+03  0.00000000000E+00 0. -1.
<mgrwt>
<rscale>  0 0.20102419E+04</rscale>
<asrwt>0</asrwt>
<pdfrwt beam="1">  1        2 0.30213586E+00 0.20102419E+04</pdfrwt>
<pdfrwt beam="2">  1       -2 0.79142117E-01 0.20102419E+04</pdfrwt>
<totfact> 0.91986233E+00</totfact>
</mgrwt>
</event>
<event>
 6    1  0.1077635E-005  0.3632557E+04  0.7818608E-02  0.8083074E-01
          1   -1    0    0  501    0  0.00000000000E+00  0.00000000000E+00  0.21030593107E+04  0.21030593107E+04  0.00000000000E+00 0. -1.
         -1   -1    0    0    0  501 -0.00000000000E+00 -0.00000000000E+00 -0.15686045287E+04  0.15686045287E+04  0.00000000000E+00 0.  1.
         23    2    1    2    0    0 -0.88637181131E+03 -0.88624746180E+03 -0.10596407060E+04  0.16438004377E+04  0.90287883651E+02 0.  0.
         13    1    3    3    0    0 -0.47812944814E+03 -0.50820614568E+03 -0.53767731626E+03  0.88089622096E+03  0.00000000000E+00 0. -1.
        -13    1    3    3    0    0 -0.40824236317E+03 -0.37804131612E+03 -0.52196338969E+03  0.76290421676E+03  0.00000000000E+00 0.  1.
         22    1    1    2    0    0  0.88637181131E+03  0.88624746180E+03  0.15940954879E+04  0.20278634017E+04  0.00000000000E+00 0. -1.
<mgrwt>
<rscale>  0 0.36325574E+04</rscale>
<asrwt>0</asrwt>
<pdfrwt beam="1">  1        1 0.32354759E+00 0.36325574E+04</pdfrwt>
<pdfrwt beam="2">  1       -1 0.24132377E+00 0.36325574E+04</pdfrwt>
<totfact> 0.16263286E-01</totfact>
</mgrwt>
</event>
<event>
 6    1  0.9906445E-006  0.1566638E+04  0.7818608E-02  0.8841310E-01
         -1   -1    0    0    0  501 -0.00000000000E+00  0.00000000000E+00  0.46900758772E+03  0.46900758772E+03  0.00000000000E+00 0.  1.
          1   -1    0    0  501    0  0.00000000000E+00 -0.00000000000E+00 -0.13082700476E+04  0.13082700476E+04  0.00000000000E+00 0. -1.
         23    2    1    2    0    0 -0.20148954325E+03  0.71971189508E+03 -0.16817684698E+03  0.77281800558E+03  0.10188704497E+03 0.  0.
         13    1    3    3    0    0 -0.11070079662E+03  0.22911645334E+03 -0.74854250678E+02  0.26523984317E+03  0.00000000000E+00 0.  1.
        -13    1    3    3    0    0 -0.90788746628E+02  0.49059544174E+03 -0.93322596307E+02  0.50757816241E+03  0.00000000000E+00 0. -1.
         22    1    1    2    0    0  0.20148954325E+03 -0.71971189508E+03 -0.67108561290E+03  0.10044596297E+04  0.00000000000E+00 0. -1.
<mgrwt>
<rscale>  0 0.15666379E+04</rscale>
<asrwt>0</asrwt>
<pdfrwt beam="1">  1        1 0.20127232E+00 0.15666379E+04</pdfrwt>
<pdfrwt beam="2">  1       -1 0.72155013E-01 0.15666379E+04</pdfrwt>
<totfact> 0.16638728E+01</totfact>
</mgrwt>
</event>
<event>
 6    1  0.9906445E-006  0.2908125E+04  0.7818608E-02  0.8270464E-01
          1   -1    0    0  501    0  0.00000000000E+00  0.00000000000E+00  0.16538920855E+04  0.16538920855E+04  0.00000000000E+00 0. -1.
         -1   -1    0    0    0  501 -0.00000000000E+00 -0.00000000000E+00 -0.12783769389E+04  0.12783769389E+04  0.00000000000E+00 0.  1.
         23    2    1    2    0    0  0.54266037596E+03  0.24165011744E+03 -0.11486560567E+04  0.12964288977E+04  0.91880831479E+02 0.  0.
         11    1    3    3    0    0  0.11447654949E+03  0.92448486217E+02 -0.30507303355E+03  0.33870512069E+03  0.00000000000E+00 0. -1.
        -11    1    3    3    0    0  0.42818382647E+03  0.14920163122E+03 -0.84358302319E+03  0.95772377700E+03  0.00000000000E+00 0.  1.
         22    1    1    2    0    0 -0.54266037596E+03 -0.24165011744E+03  0.15241712034E+04  0.16358401267E+04  0.00000000000E+00 0. -1.
<mgrwt>
<rscale>  0 0.29081248E+04</rscale>
<asrwt>0</asrwt>
<pdfrwt beam="1">  1        1 0.25444494E+00 0.29081248E+04</pdfrwt>
<pdfrwt beam="2">  1       -1 0.19667337E+00 0.29081248E+04</pdfrwt>
<totfact> 0.69768317E-01</totfact>
</mgrwt>
</event>
<event>
 6    1  0.9906445E-006  0.1579010E+04  0.7818608E-02  0.8833548E-01
          2   -1    0    0  501    0  0.00000000000E+00  0.00000000000E+00  0.29805719135E+04  0.29805719135E+04  0.00000000000E+00 0. -1.
         -2   -1    0    0    0  501 -0.00000000000E+00 -0.00000000000E+00 -0.20912700386E+03  0.20912700386E+03  0.00000000000E+00 0.  1.
         23    2    1    2    0    0 -0.66574873640E+02  0.78404172532E+03  0.14089487254E+04  0.16163110145E+04  0.90394379852E+02 0.  0.
         13    1    3    3    0    0 -0.35710180471E+02  0.11109220685E+03  0.24766568747E+03  0.27377908642E+03  0.00000000000E+00 0. -1.
        -13    1    3    3    0    0 -0.30864693169E+02  0.67294951847E+03  0.11612830379E+04  0.13425319281E+04  0.00000000000E+00 0.  1.
         22    1    1    2    0    0  0.66574873640E+02 -0.78404172532E+03  0.13624961843E+04  0.15733879029E+04  0.00000000000E+00 0.  1.
<mgrwt>
<rscale>  0 0.15790099E+04</rscale>
<asrwt>0</asrwt>
<pdfrwt beam="1">  1        2 0.45854949E+00 0.15790099E+04</pdfrwt>
<pdfrwt beam="2">  1       -2 0.32173387E-01 0.15790099E+04</pdfrwt>
<totfact> 0.15558044E+01</totfact>
</mgrwt>
</event>
<event>
 6    1  0.9906445E-006  0.5314708E+04  0.7818608E-02  0.7781713E-01
          2   -1    0    0  501    0  0.00000000000E+00  0.00000000000E+00  0.40002037122E+04  0.40002037122E+04  0.00000000000E+00 0. -1.
         -2   -1    0    0    0  501 -0.00000000000E+00 -0.00000000000E+00 -0.17652924460E+04  0.17652924460E+04  0.00000000000E+00 0.  1.
         23    2    1    2    0    0 -0.22674523135E+04  0.14922067459E+03 -0.37490533268E+03  0.23050410604E+04  0.95149767065E+02 0.  0.
         13    1    3    3    0    0 -0.20377787856E+04  0.11083543393E+03 -0.31908882265E+03  0.20655857642E+04  0.00000000000E+00 0. -1.
        -13    1    3    3    0    0 -0.22967352786E+03  0.38385240658E+02 -0.55816510029E+02  0.23945529623E+03  0.00000000000E+00 0.  1.
         22    1    1    2    0    0  0.22674523135E+04 -0.14922067459E+03  0.26098165989E+04  0.34604550978E+04  0.00000000000E+00 0. -1.
<mgrwt>
<rscale>  0 0.53147077E+04</rscale>
<asrwt>0</asrwt>
<pdfrwt beam="1">  1        2 0.61541596E+00 0.53147077E+04</pdfrwt>
<pdfrwt beam="2">  1       -2 0.27158345E+00 0.53147077E+04</pdfrwt>
<totfact> 0.11454592E-02</totfact>
</mgrwt>
</event>
<event>
 6    1  0.9906445E-006  0.3315793E+04  0.7818608E-02  0.8158888E-01
          2   -1    0    0  501    0  0.00000000000E+00  0.00000000000E+00  0.24250625005E+04  0.24250625005E+04  0.00000000000E+00 0. -1.
         -2   -1    0    0    0  501 -0.00000000000E+00 -0.00000000000E+00 -0.11334228180E+04  0.11334228180E+04  0.00000000000E+00 0.  1.
         23    2    1    2    0    0  0.80384770768E+03  0.24720896274E+03  0.21783006110E+04  0.23364169855E+04  0.81039308256E+02 0.  0.
         11    1    3    3    0    0  0.54724967880E+03  0.20591201340E+03  0.14794488901E+04  0.15908019948E+04  0.00000000000E+00 0. -1.
        -11    1    3    3    0    0  0.25659802888E+03  0.41296949340E+02  0.69885172094E+03  0.74561499067E+03  0.00000000000E+00 0.  1.
         22    1    1    2    0    0 -0.80384770768E+03 -0.24720896274E+03 -0.88666092853E+03  0.12220683330E+04  0.00000000000E+00 0.  1.
<mgrwt>
<rscale>  0 0.33157932E+04</rscale>
<asrwt>0</asrwt>
<pdfrwt beam="1">  1        2 0.37308654E+00 0.33157932E+04</pdfrwt>
<pdfrwt beam="2">  1       -2 0.17437274E+00 0.33157932E+04</pdfrwt>
<totfact> 0.63667233E-01</totfact>
</mgrwt>
</event>
<event>
 6    1  0.1641485E-005  0.2247836E+04  0.7818608E-02  0.8498777E-01
         -2   -1    0    0    0  501 -0.00000000000E+00  0.00000000000E+00  0.60453239778E+03  0.60453239778E+03  0.00000000000E+00 0.  1.
          2   -1    0    0  501    0  0.00000000000E+00 -0.00000000000E+00 -0.20895355137E+04  0.20895355137E+04  0.00000000000E+00 0. -1.
         23    2    1    2    0    0 -0.92136292594E+03  0.62401156132E+03 -0.91665889724E+03  0.14445419130E+04  0.90209393293E+02 0.  0.
         11    1    3    3    0    0 -0.53486895129E+03  0.38158055662E+03 -0.48698428946E+03  0.81782774129E+03  0.00000000000E+00 0.  1.
        -11    1    3    3    0    0 -0.38649397465E+03  0.24243100469E+03 -0.42967460778E+03  0.62671417173E+03  0.00000000000E+00 0. -1.
         22    1    1    2    0    0  0.92136292594E+03 -0.62401156132E+03 -0.56834421870E+03  0.12495259985E+04  0.00000000000E+00 0.  1.
<mgrwt>
<rscale>  0 0.22478362E+04</rscale>
<asrwt>0</asrwt>
<pdfrwt beam="1">  1        2 0.32146700E+00 0.22478362E+04</pdfrwt>
<pdfrwt beam="2">  1       -2 0.93004984E-01 0.22478362E+04</pdfrwt>
<totfact> 0.53096775E+00</totfact>
</mgrwt>
</event>
<event>
 6    1  0.9906445E-006  0.4061935E+04  0.7818608E-02  0.7992168E-01
          1   -1    0    0  501    0  0.00000000000E+00  0.00000000000E+00  0.22988001179E+04  0.22988001179E+04  0.00000000000E+00 0. -1.
         -1   -1    0    0    0  501 -0.00000000000E+00 -0.00000000000E+00 -0.17943400280E+04  0.17943400280E+04  0.00000000000E+00 0.  1.
         23    2    1    2    0    0 -0.16123931429E+03 -0.87827454981E+03  0.20893722873E+04  0.22739889771E+04  0.90471054838E+02 0.  0.
         13    1    3    3    0    0 -0.19225219509E+02 -0.24206866600E+03  0.65038882760E+03  0.69424237496E+03  0.00000000000E+00 0.  1.
        -13    1    3    3    0    0 -0.14201409478E+03 -0.63620588381E+03  0.14389834597E+04  0.15797466021E+04  0.00000000000E+00 0. -1.
         22    1    1    2    0    0  0.16123931429E+03  0.87827454981E+03 -0.15849121975E+04  0.18191511688E+04  0.00000000000E+00 0.  1.
<mgrwt>
<rscale>  0 0.40619350E+04</rscale>
<asrwt>0</asrwt>
<pdfrwt beam="1">  1        1 0.35366156E+00 0.40619350E+04</pdfrwt>
<pdfrwt beam="2">  1       -1 0.27605231E+00 0.40619350E+04</pdfrwt>
<totfact> 0.68548094E-02</totfact>
</mgrwt>
</event>
<event>
 6    1  0.9906445E-006  0.1409172E+04  0.7818608E-02  0.8947206E-01
         -2   -1    0    0    0  501 -0.00000000000E+00  0.00000000000E+00  0.16302621274E+03  0.16302621274E+03  0.00000000000E+00 0.  1.
          2   -1    0    0  501    0  0.00000000000E+00 -0.00000000000E+00 -0.30451653722E+04  0.30451653722E+04  0.00000000000E+00 0. -1.
         23    2    1    2    0    0 -0.44927071579E+03  0.53450687017E+03 -0.15986146945E+04  0.17470355965E+04  0.94987702972E+02 0.  0.
         11    1    3    3    0    0 -0.25269537669E+03  0.22713236340E+03 -0.78074471448E+03  0.85147306069E+03  0.00000000000E+00 0. -1.
        -11    1    3    3    0    0 -0.19657533910E+03  0.30737450677E+03 -0.81786998004E+03  0.89556253585E+03  0.00000000000E+00 0.  1.
         22    1    1    2    0    0  0.44927071579E+03 -0.53450687017E+03 -0.12835244650E+04  0.14611559884E+04  0.00000000000E+00 0.  1.
<mgrwt>
<rscale>  0 0.14091725E+04</rscale>
<asrwt>0</asrwt>
<pdfrwt beam="1">  1        2 0.46848694E+00 0.14091725E+04</pdfrwt>
<pdfrwt beam="2">  1       -2 0.25080958E-01 0.14091725E+04</pdfrwt>
<totfact> 0.22839621E+01</totfact>
</mgrwt>
</event>
<event>
 6    1  0.9906445E-006  0.7651712E+03  0.7818608E-02  0.9611845E-01
         -2   -1    0    0    0  501 -0.00000000000E+00  0.00000000000E+00  0.55907480675E+03  0.55907480675E+03  0.00000000000E+00 0.  1.
          2   -1    0    0  501    0  0.00000000000E+00 -0.00000000000E+00 -0.26181066485E+03  0.26181066485E+03  0.00000000000E+00 0. -1.
         23    2    1    2    0    0  0.20445132583E+03 -0.28163405370E+03 -0.53703981963E+01  0.35968513585E+03  0.90699894950E+02 0.  0.
         13    1    3    3    0    0  0.18751876664E+03 -0.19881519219E+03  0.11280056726E+02  0.27352880683E+03  0.00000000000E+00 0.  1.
        -13    1    3    3    0    0  0.16932559192E+02 -0.82818861504E+02 -0.16650454922E+02  0.86156329023E+02  0.00000000000E+00 0. -1.
         22    1    1    2    0    0 -0.20445132583E+03  0.28163405370E+03  0.30263454009E+03  0.46120033574E+03  0.00000000000E+00 0. -1.
<mgrwt>
<rscale>  0 0.76517121E+03</rscale>
<asrwt>0</asrwt>
<pdfrwt beam="1">  1        2 0.40278564E-01 0.76517121E+03</pdfrwt>
<pdfrwt beam="2">  1       -2 0.86011508E-01 0.76517121E+03</pdfrwt>
<totfact> 0.15116245E+02</totfact>
</mgrwt>
</event>
<event>
 6    1  0.9906445E-006  0.6062124E+03  0.7818608E-02  0.9892600E-01
         -2   -1    0    0    0  501 -0.00000000000E+00  0.00000000000E+00  0.10733548813E+03  0.10733548813E+03  0.00000000000E+00 0.  1.
          2   -1    0    0  501    0  0.00000000000E+00 -0.00000000000E+00 -0.85594586717E+03  0.85594586717E+03  0.00000000000E+00 0. -1.
         23    2    1    2    0    0 -0.24390966044E+03  0.15168480690E+03 -0.49802087467E+03  0.58210514566E+03  0.91221740250E+02 0.  0.
         13    1    3    3    0    0 -0.86715265723E+02  0.10192348356E+03 -0.18516952468E+03  0.22846375353E+03  0.00000000000E+00 0. -1.
        -13    1    3    3    0    0 -0.15719439472E+03  0.49761323346E+02 -0.31285134999E+03  0.35364139212E+03  0.00000000000E+00 0.  1.
         22    1    1    2    0    0  0.24390966044E+03 -0.15168480690E+03 -0.25058950437E+03  0.38117620965E+03  0.00000000000E+00 0.  1.
<mgrwt>
<rscale>  0 0.60621240E+03</rscale>
<asrwt>0</asrwt>
<pdfrwt beam="1">  1        2 0.13168398E+00 0.60621240E+03</pdfrwt>
<pdfrwt beam="2">  1       -2 0.16513152E-01 0.60621240E+03</pdfrwt>
<totfact> 0.94078988E+02</totfact>
</mgrwt>
</event>
<event>
 6    1  0.9906445E-006  0.3631816E+04  0.7818608E-02  0.8083242E-01
          2   -1    0    0  501    0  0.00000000000E+00  0.00000000000E+00  0.25500710662E+04  0.25500710662E+04  0.00000000000E+00 0.  1.
         -2   -1    0    0    0  501 -0.00000000000E+00 -0.00000000000E+00 -0.12931099645E+04  0.12931099645E+04  0.00000000000E+00 0. -1.
         23    2    1    2    0    0  0.45944544793E+03 -0.15987804856E+03  0.24789749514E+04  0.25278981869E+04  0.91111599642E+02 0.  0.
         11    1    3    3    0    0  0.39946767518E+03 -0.16468684460E+03  0.20793181282E+04  0.21237372857E+04  0.00000000000E+00 0. -1.
        -11    1    3    3    0    0  0.59977772749E+02  0.48087960422E+01  0.39965682323E+03  0.40416090125E+03  0.00000000000E+00 0.  1.
         22    1    1    2    0    0 -0.45944544793E+03  0.15987804856E+03 -0.12220138497E+04  0.13152828437E+04  0.00000000000E+00 0. -1.
<mgrwt>
<rscale>  0 0.36318162E+04</rscale>
<asrwt>0</asrwt>
<pdfrwt beam="1">  1        2 0.39231863E+00 0.36318162E+04</pdfrwt>
<pdfrwt beam="2">  1       -2 0.19893999E+00 0.36318162E+04</pdfrwt>
<totfact> 0.35760277E-01</totfact>
</mgrwt>
</event>
<event>
 6    1  0.9906445E-006  0.1488837E+04  0.7818608E-02  0.8891911E-01
         -2   -1    0    0    0  501 -0.00000000000E+00  0.00000000000E+00  0.27265196251E+03  0.27265196251E+03  0.00000000000E+00 0.  1.
          2   -1    0    0  501    0  0.00000000000E+00 -0.00000000000E+00 -0.20324759387E+04  0.20324759387E+04  0.00000000000E+00 0. -1.
         23    2    1    2    0    0  0.38239706843E+03  0.22355035926E+03  0.37443556866E+02  0.45408147649E+03  0.92658978343E+02 0.  0.
         13    1    3    3    0    0  0.11712592653E+03  0.21645948175E+02  0.66624947293E+01  0.11929550945E+03  0.00000000000E+00 0. -1.
        -13    1    3    3    0    0  0.26527114190E+03  0.20190441108E+03  0.30781062137E+02  0.33478596704E+03  0.00000000000E+00 0.  1.
         22    1    1    2    0    0 -0.38239706843E+03 -0.22355035926E+03 -0.17972675331E+04  0.18510464247E+04  0.00000000000E+00 0. -1.
<mgrwt>
<rscale>  0 0.14888365E+04</rscale>
<asrwt>0</asrwt>
<pdfrwt beam="1">  1        2 0.31268863E+00 0.14888365E+04</pdfrwt>
<pdfrwt beam="2">  1       -2 0.41946453E-01 0.14888365E+04</pdfrwt>
<totfact> 0.33394983E+01</totfact>
</mgrwt>
</event>
<event>
 6    1  0.9906445E-006  0.1671678E+04  0.7818608E-02  0.8777684E-01
         -2   -1    0    0    0  501 -0.00000000000E+00  0.00000000000E+00  0.20372654534E+03  0.20372654534E+03  0.00000000000E+00 0.  1.
          2   -1    0    0  501    0  0.00000000000E+00 -0.00000000000E+00 -0.34292377957E+04  0.34292377957E+04  0.00000000000E+00 0. -1.
         23    2    1    2    0    0 -0.38591711761E+03 -0.43764244887E+03 -0.29106079109E+04  0.29699205658E+04  0.91251417494E+02 0.  0.
         11    1    3    3    0    0 -0.10048058348E+03 -0.73577040186E+02 -0.75798150259E+03  0.76814444395E+03  0.00000000000E+00 0. -1.
        -11    1    3    3    0    0 -0.28543653413E+03 -0.36406540868E+03 -0.21526264083E+04  0.22017761218E+04  0.00000000000E+00 0.  1.
         22    1    1    2    0    0  0.38591711761E+03  0.43764244887E+03 -0.31490333943E+03  0.66304377525E+03  0.00000000000E+00 0.  1.
<mgrwt>
<rscale>  0 0.16716779E+04</rscale>
<asrwt>0</asrwt>
<pdfrwt beam="1">  1        2 0.52757506E+00 0.16716779E+04</pdfrwt>
<pdfrwt beam="2">  1       -2 0.31342545E-01 0.16716779E+04</pdfrwt>
<totfact> 0.82802851E+00</totfact>
</mgrwt>
</event>
<event>
 6    1  0.9906445E-006  0.3777419E+04  0.7818608E-02  0.8051018E-01
         -2   -1    0    0    0  501 -0.00000000000E+00  0.00000000000E+00  0.11190296762E+04  0.11190296762E+04  0.00000000000E+00 0.  1.
          2   -1    0    0  501    0  0.00000000000E+00 -0.00000000000E+00 -0.31877829770E+04  0.31877829770E+04  0.00000000000E+00 0. -1.
         23    2    1    2    0    0 -0.15722747650E+04  0.49939429989E+03  0.10916274974E+02  0.16522942133E+04  0.92273499547E+02 0.  0.
         13    1    3    3    0    0 -0.12305902557E+03  0.40921814089E+02 -0.23994197595E+02  0.13188570871E+03  0.00000000000E+00 0. -1.
        -13    1    3    3    0    0 -0.14492157394E+04  0.45847248580E+03  0.34910472569E+02  0.15204085045E+04  0.00000000000E+00 0.  1.
         22    1    1    2    0    0  0.15722747650E+04 -0.49939429989E+03 -0.20796695758E+04  0.26545184400E+04  0.00000000000E+00 0. -1.
<mgrwt>
<rscale>  0 0.37774191E+04</rscale>
<asrwt>0</asrwt>
<pdfrwt beam="1">  1        2 0.49042815E+00 0.37774191E+04</pdfrwt>
<pdfrwt beam="2">  1       -2 0.17215841E+00 0.37774191E+04</pdfrwt>
<totfact> 0.21807495E-01</totfact>
</mgrwt>
</event>
<event>
 6    1  0.9906445E-006  0.1775012E+04  0.7818608E-02  0.8719702E-01
         -1   -1    0    0    0  501 -0.00000000000E+00  0.00000000000E+00  0.12949874194E+04  0.12949874194E+04  0.00000000000E+00 0.  1.
          1   -1    0    0  501    0  0.00000000000E+00 -0.00000000000E+00 -0.60824275306E+03  0.60824275306E+03  0.00000000000E+00 0. -1.
         23    2    1    2    0    0  0.16782139168E+03 -0.84132653201E+03  0.58073799013E+03  0.10388044854E+04  0.76575405879E+02 0.  0.
         13    1    3    3    0    0  0.37572295942E+02 -0.18549534551E+03  0.16775761465E+03  0.25290871456E+03  0.00000000000E+00 0.  1.
        -13    1    3    3    0    0  0.13024909574E+03 -0.65583118650E+03  0.41298037548E+03  0.78589577086E+03  0.00000000000E+00 0. -1.
         22    1    1    2    0    0 -0.16782139168E+03  0.84132653201E+03  0.10600667619E+03  0.86442568701E+03  0.00000000000E+00 0.  1.
<mgrwt>
<rscale>  0 0.17750118E+04</rscale>
<asrwt>0</asrwt>
<pdfrwt beam="1">  1        1 0.93575808E-01 0.17750118E+04</pdfrwt>
<pdfrwt beam="2">  1       -1 0.19922883E+00 0.17750118E+04</pdfrwt>
<totfact> 0.48367655E+00</totfact>
</mgrwt>
</event>
<event>
 6    1  0.9906445E-006  0.1226006E+04  0.7818608E-02  0.9090393E-01
         -3   -1    0    0    0  501 -0.00000000000E+00  0.00000000000E+00  0.43961078157E+03  0.43961078157E+03  0.00000000000E+00 0.  1.
          3   -1    0    0  501    0  0.00000000000E+00 -0.00000000000E+00 -0.85478505484E+03  0.85478505484E+03  0.00000000000E+00 0. -1.
         23    2    1    2    0    0 -0.17251244771E+03 -0.71404303605E+02  0.40453453325E+03  0.45369276953E+03  0.85614375812E+02 0.  0.
         13    1    3    3    0    0 -0.67691102266E+02  0.15213961786E+02  0.13241475323E+03  0.14948985528E+03  0.00000000000E+00 0. -1.
        -13    1    3    3    0    0 -0.10482134544E+03 -0.86618265391E+02  0.27211978002E+03  0.30420291425E+03  0.00000000000E+00 0.  1.
         22    1    1    2    0    0  0.17251244771E+03  0.71404303605E+02 -0.81970880652E+03  0.84070306689E+03  0.00000000000E+00 0. -1.
<mgrwt>
<rscale>  0 0.12260061E+04</rscale>
<asrwt>0</asrwt>
<pdfrwt beam="1">  1        3 0.13150539E+00 0.12260061E+04</pdfrwt>
<pdfrwt beam="2">  1       -3 0.67632429E-01 0.12260061E+04</pdfrwt>
<totfact> 0.24537202E+00</totfact>
</mgrwt>
</event>
<event>
 6    1  0.9906445E-006  0.5761081E+04  0.7818608E-02  0.7720752E-01
          2   -1    0    0  501    0  0.00000000000E+00  0.00000000000E+00  0.37061657243E+04  0.37061657243E+04  0.00000000000E+00 0. -1.
         -2   -1    0    0    0  501 -0.00000000000E+00 -0.00000000000E+00 -0.22388406705E+04  0.22388406705E+04  0.00000000000E+00 0.  1.
         23    2    1    2    0    0 -0.78409951137E+02  0.20599886697E+04 -0.13412348454E+04  0.24610847327E+04  0.91245335330E+02 0.  0.
         11    1    3    3    0    0 -0.99082315015E+02  0.16299502808E+04 -0.10592464799E+04  0.19464219297E+04  0.00000000000E+00 0. -1.
        -11    1    3    3    0    0  0.20672363879E+02  0.43003838891E+03 -0.28198836546E+03  0.51466280303E+03  0.00000000000E+00 0.  1.
         22    1    1    2    0    0  0.78409951137E+02 -0.20599886697E+04  0.28085598993E+04  0.34839216621E+04  0.00000000000E+00 0. -1.
<mgrwt>
<rscale>  0 0.57610813E+04</rscale>
<asrwt>0</asrwt>
<pdfrwt beam="1">  1        2 0.57017934E+00 0.57610813E+04</pdfrwt>
<pdfrwt beam="2">  1       -2 0.34443703E+00 0.57610813E+04</pdfrwt>
<totfact> 0.66579881E-03</totfact>
</mgrwt>
</event>
<event>
 6    1  0.9906445E-006  0.1346905E+04  0.7818608E-02  0.8993174E-01
          1   -1    0    0  501    0  0.00000000000E+00  0.00000000000E+00  0.20267907697E+04  0.20267907697E+04  0.00000000000E+00 0. -1.
         -1   -1    0    0    0  501 -0.00000000000E+00 -0.00000000000E+00 -0.22377161308E+03  0.22377161308E+03  0.00000000000E+00 0.  1.
         23    2    1    2    0    0 -0.28068397603E+03  0.46142422802E+03  0.24190614494E+03  0.59866358205E+03  0.90463743645E+02 0.  0.
         13    1    3    3    0    0 -0.11136397261E+03  0.11994369136E+03  0.10084224141E+03  0.19224354643E+03  0.00000000000E+00 0. -1.
        -13    1    3    3    0    0 -0.16932000342E+03  0.34148053665E+03  0.14106390353E+03  0.40642003562E+03  0.00000000000E+00 0.  1.
         22    1    1    2    0    0  0.28068397603E+03 -0.46142422802E+03  0.15611130117E+04  0.16518988008E+04  0.00000000000E+00 0. -1.
<mgrwt>
<rscale>  0 0.13469050E+04</rscale>
<asrwt>0</asrwt>
<pdfrwt beam="1">  1        1 0.31181395E+00 0.13469050E+04</pdfrwt>
<pdfrwt beam="2">  1       -1 0.34426403E-01 0.13469050E+04</pdfrwt>
<totfact> 0.22391451E+01</totfact>
</mgrwt>
</event>
<event>
 6    1  0.9906445E-006  0.2815669E+04  0.7818608E-02  0.8298420E-01
          1   -1    0    0  501    0  0.00000000000E+00  0.00000000000E+00  0.27698933187E+04  0.27698933187E+04  0.00000000000E+00 0. -1.
         -1   -1    0    0    0  501 -0.00000000000E+00 -0.00000000000E+00 -0.71555004030E+03  0.71555004030E+03  0.00000000000E+00 0.  1.
         23    2    1    2    0    0 -0.47156963570E+03  0.72467148867E+02 -0.60941050953E+03  0.77929967255E+03  0.91090073697E+02 0.  0.
         13    1    3    3    0    0 -0.25793923463E+03  0.74785952451E+02 -0.29239667526E+03  0.39701562078E+03  0.00000000000E+00 0. -1.
        -13    1    3    3    0    0 -0.21363040107E+03 -0.23188035833E+01 -0.31701383427E+03  0.38228405176E+03  0.00000000000E+00 0.  1.
         22    1    1    2    0    0  0.47156963570E+03 -0.72467148867E+02  0.26637537880E+04  0.27061436865E+04  0.00000000000E+00 0. -1.
<mgrwt>
<rscale>  0 0.28156685E+04</rscale>
<asrwt>0</asrwt>
<pdfrwt beam="1">  1        1 0.42613743E+00 0.28156685E+04</pdfrwt>
<pdfrwt beam="2">  1       -1 0.11008462E+00 0.28156685E+04</pdfrwt>
<totfact> 0.57634797E-01</totfact>
</mgrwt>
</event>
<event>
 6    1  0.9906445E-006  0.2391941E+04  0.7818608E-02  0.8442527E-01
          2   -1    0    0  501    0  0.00000000000E+00  0.00000000000E+00  0.13445202927E+04  0.13445202927E+04  0.00000000000E+00 0. -1.
         -2   -1    0    0    0  501 -0.00000000000E+00 -0.00000000000E+00 -0.10638334711E+04  0.10638334711E+04  0.00000000000E+00 0.  1.
         23    2    1    2    0    0  0.20780396661E+03 -0.71720874436E+03  0.10788971003E+04  0.13153256212E+04  0.92150232623E+02 0.  0.
         13    1    3    3    0    0  0.16040640377E+03 -0.45258498152E+03  0.74993681448E+03  0.89048784696E+03  0.00000000000E+00 0. -1.
        -13    1    3    3    0    0  0.47397562840E+02 -0.26462376284E+03  0.32896028579E+03  0.42483777427E+03  0.00000000000E+00 0.  1.
         22    1    1    2    0    0 -0.20780396661E+03  0.71720874436E+03 -0.79821027864E+03  0.10930281426E+04  0.00000000000E+00 0.  1.
<mgrwt>
<rscale>  0 0.23919412E+04</rscale>
<asrwt>0</asrwt>
<pdfrwt beam="1">  1        2 0.20684928E+00 0.23919412E+04</pdfrwt>
<pdfrwt beam="2">  1       -2 0.16366669E+00 0.23919412E+04</pdfrwt>
<totfact> 0.33183665E+00</totfact>
</mgrwt>
</event>
<event>
 6    1  0.9906445E-006  0.2569062E+04  0.7818608E-02  0.8378787E-01
         -1   -1    0    0    0  501 -0.00000000000E+00  0.00000000000E+00  0.79409941724E+03  0.79409941724E+03  0.00000000000E+00 0.  1.
          1   -1    0    0  501    0  0.00000000000E+00 -0.00000000000E+00 -0.20778499557E+04  0.20778499557E+04  0.00000000000E+00 0. -1.
         23    2    1    2    0    0 -0.11460263908E+04 -0.29254775276E+03 -0.11982170536E+04  0.16860840125E+04  0.90523552685E+02 0.  0.
         13    1    3    3    0    0 -0.73916513776E+03 -0.23054022375E+03 -0.80291806281E+03  0.11154332393E+04  0.00000000000E+00 0.  1.
        -13    1    3    3    0    0 -0.40686125304E+03 -0.62007529009E+02 -0.39529899083E+03  0.57065077326E+03  0.00000000000E+00 0. -1.
         22    1    1    2    0    0  0.11460263908E+04  0.29254775276E+03 -0.85533484826E+02  0.11858653604E+04  0.00000000000E+00 0.  1.
<mgrwt>
<rscale>  0 0.25690616E+04</rscale>
<asrwt>0</asrwt>
<pdfrwt beam="1">  1        1 0.31966923E+00 0.25690616E+04</pdfrwt>
<pdfrwt beam="2">  1       -1 0.12216914E+00 0.25690616E+04</pdfrwt>
<totfact> 0.13799031E+00</totfact>
</mgrwt>
</event>
<event>
 6    1  0.9906445E-006  0.6674882E+03  0.7818608E-02  0.9774506E-01
          1   -1    0    0  501    0  0.00000000000E+00  0.00000000000E+00  0.59902033643E+03  0.59902033643E+03  0.00000000000E+00 0. -1.
         -1   -1    0    0    0  501 -0.00000000000E+00 -0.00000000000E+00 -0.18594548399E+03  0.18594548399E+03  0.00000000000E+00 0.  1.
         23    2    1    2    0    0 -0.24945486982E+03  0.10013322218E+03  0.42997471660E+03  0.51563331278E+03  0.93515036646E+02 0.  0.
         11    1    3    3    0    0 -0.19638534936E+03  0.55513309586E+02  0.37581943226E+03  0.42765544385E+03  0.00000000000E+00 0. -1.
        -11    1    3    3    0    0 -0.53069520457E+02  0.44619912593E+02  0.54155284334E+02  0.87977868937E+02  0.00000000000E+00 0.  1.
         22    1    1    2    0    0  0.24945486982E+03 -0.10013322218E+03 -0.16899864156E+02  0.26933250764E+03  0.00000000000E+00 0.  1.
<mgrwt>
<rscale>  0 0.66748821E+03</rscale>
<asrwt>0</asrwt>
<pdfrwt beam="1">  1        1 0.92156974E-01 0.66748821E+03</pdfrwt>
<pdfrwt beam="2">  1       -1 0.28606998E-01 0.66748821E+03</pdfrwt>
<totfact> 0.38501508E+02</totfact>
</mgrwt>
</event>
<event>
 6    1  0.9906445E-006  0.2706900E+04  0.7818608E-02  0.8332770E-01
          2   -1    0    0  501    0  0.00000000000E+00  0.00000000000E+00  0.28758143611E+04  0.28758143611E+04  0.00000000000E+00 0. -1.
         -2   -1    0    0    0  501 -0.00000000000E+00 -0.00000000000E+00 -0.63697659491E+03  0.63697659491E+03  0.00000000000E+00 0.  1.
         23    2    1    2    0    0  0.69372724455E+03 -0.96763696493E+03  0.19517706110E+04  0.22880516624E+04  0.90515777977E+02 0.  0.
         13    1    3    3    0    0  0.16255167041E+02 -0.78221653646E+01  0.44080380106E+02  0.47628737510E+02  0.00000000000E+00 0. -1.
        -13    1    3    3    0    0  0.67747207751E+03 -0.95981479957E+03  0.19076902309E+04  0.22404229249E+04  0.00000000000E+00 0.  1.
         22    1    1    2    0    0 -0.69372724455E+03  0.96763696493E+03  0.28706715519E+03  0.12247392936E+04  0.00000000000E+00 0.  1.
<mgrwt>
<rscale>  0 0.27068997E+04</rscale>
<asrwt>0</asrwt>
<pdfrwt beam="1">  1        2 0.44243297E+00 0.27068997E+04</pdfrwt>
<pdfrwt beam="2">  1       -2 0.97996401E-01 0.27068997E+04</pdfrwt>
<totfact> 0.15789912E+00</totfact>
</mgrwt>
</event>
<event>
 6    1  0.9906445E-006  0.3104576E+04  0.7818608E-02  0.8214483E-01
          2   -1    0    0  501    0  0.00000000000E+00  0.00000000000E+00  0.23224244140E+04  0.23224244140E+04  0.00000000000E+00 0. -1.
         -2   -1    0    0    0  501 -0.00000000000E+00 -0.00000000000E+00 -0.10375358054E+04  0.10375358054E+04  0.00000000000E+00 0.  1.
         23    2    1    2    0    0 -0.14656459703E+04 -0.49388503220E+03  0.76815503508E+03  0.17292995799E+04  0.91511440324E+02 0.  0.
         11    1    3    3    0    0 -0.99257908213E+03 -0.29057533916E+03  0.52538461459E+03  0.11600328682E+04  0.00000000000E+00 0.  1.
        -11    1    3    3    0    0 -0.47306688820E+03 -0.20330969304E+03  0.24277042049E+03  0.56926671171E+03  0.00000000000E+00 0. -1.
         22    1    1    2    0    0  0.14656459703E+04  0.49388503220E+03  0.51673357350E+03  0.16306606395E+04  0.00000000000E+00 0. -1.
<mgrwt>
<rscale>  0 0.31045763E+04</rscale>
<asrwt>0</asrwt>
<pdfrwt beam="1">  1        2 0.35729606E+00 0.31045763E+04</pdfrwt>
<pdfrwt beam="2">  1       -2 0.15962089E+00 0.31045763E+04</pdfrwt>
<totfact> 0.94719361E-01</totfact>
</mgrwt>
</event>
<event>
 6    1  0.9906445E-006  0.2951400E+04  0.7818608E-02  0.8257747E-01
          1   -1    0    0  501    0  0.00000000000E+00  0.00000000000E+00  0.27324834934E+04  0.27324834934E+04  0.00000000000E+00 0. -1.
         -1   -1    0    0    0  501 -0.00000000000E+00 -0.00000000000E+00 -0.79696391860E+03  0.79696391860E+03  0.00000000000E+00 0.  1.
         23    2    1    2    0    0  0.49466525375E+03  0.13790311908E+04  0.11664740065E+04  0.18748018836E+04  0.88316231004E+02 0.  0.
         11    1    3    3    0    0  0.30402194942E+03  0.78612753969E+03  0.71963641035E+03  0.11082880571E+04  0.00000000000E+00 0. -1.
        -11    1    3    3    0    0  0.19064330433E+03  0.59290365110E+03  0.44683759615E+03  0.76651382656E+03  0.00000000000E+00 0.  1.
         22    1    1    2    0    0 -0.49466525375E+03 -0.13790311908E+04  0.76904556835E+03  0.16546455284E+04  0.00000000000E+00 0.  1.
<mgrwt>
<rscale>  0 0.29514002E+04</rscale>
<asrwt>0</asrwt>
<pdfrwt beam="1">  1        1 0.42038207E+00 0.29514002E+04</pdfrwt>
<pdfrwt beam="2">  1       -1 0.12260984E+00 0.29514002E+04</pdfrwt>
<totfact> 0.46675638E-01</totfact>
</mgrwt>
</event>
<event>
 6    1  0.9906445E-006  0.1371678E+04  0.7818608E-02  0.8974578E-01
          1   -1    0    0  501    0  0.00000000000E+00  0.00000000000E+00  0.11110590948E+04  0.11110590948E+04  0.00000000000E+00 0. -1.
         -1   -1    0    0    0  501 -0.00000000000E+00 -0.00000000000E+00 -0.42335768686E+03  0.42335768686E+03  0.00000000000E+00 0.  1.
         23    2    1    2    0    0 -0.32340311583E+03  0.48959013716E+03  0.73606527375E+03  0.94566629013E+03  0.90579066729E+02 0.  0.
         13    1    3    3    0    0 -0.20683769986E+03  0.33917480089E+03  0.55861659204E+03  0.68547346889E+03  0.00000000000E+00 0. -1.
        -13    1    3    3    0    0 -0.11656541597E+03  0.15041533626E+03  0.17744868171E+03  0.26019282124E+03  0.00000000000E+00 0.  1.
         22    1    1    2    0    0  0.32340311583E+03 -0.48959013716E+03 -0.48363865831E+02  0.58875049151E+03  0.00000000000E+00 0.  1.
<mgrwt>
<rscale>  0 0.13716784E+04</rscale>
<asrwt>0</asrwt>
<pdfrwt beam="1">  1        1 0.17093217E+00 0.13716784E+04</pdfrwt>
<pdfrwt beam="2">  1       -1 0.65131952E-01 0.13716784E+04</pdfrwt>
<totfact> 0.29049106E+01</totfact>
</mgrwt>
</event>
<event>
 6    1  0.9906445E-006  0.3535654E+04  0.7818608E-02  0.8105392E-01
          2   -1    0    0  501    0  0.00000000000E+00  0.00000000000E+00  0.16063674963E+04  0.16063674963E+04  0.00000000000E+00 0.  1.
         -2   -1    0    0    0  501 -0.00000000000E+00 -0.00000000000E+00 -0.19455151065E+04  0.19455151065E+04  0.00000000000E+00 0. -1.
         23    2    1    2    0    0  0.13996876768E+04  0.10567715108E+04  0.44548504748E+02  0.17565791947E+04  0.87717042557E+02 0.  0.
         13    1    3    3    0    0  0.82504056908E+03  0.59308201791E+03  0.61981901137E+02  0.10179783773E+04  0.00000000000E+00 0. -1.
        -13    1    3    3    0    0  0.57464710769E+03  0.46368949290E+03 -0.17433396388E+02  0.73860081743E+03  0.00000000000E+00 0.  1.
         22    1    1    2    0    0 -0.13996876768E+04 -0.10567715108E+04 -0.38369611496E+03  0.17953034081E+04  0.00000000000E+00 0. -1.
<mgrwt>
<rscale>  0 0.35356540E+04</rscale>
<asrwt>0</asrwt>
<pdfrwt beam="1">  1        2 0.24713346E+00 0.35356540E+04</pdfrwt>
<pdfrwt beam="2">  1       -2 0.29931002E+00 0.35356540E+04</pdfrwt>
<totfact> 0.29082476E-01</totfact>
</mgrwt>
</event>
<event>
 6    1  0.9906445E-006  0.3678281E+04  0.7818608E-02  0.8072792E-01
         -1   -1    0    0    0  501 -0.00000000000E+00  0.00000000000E+00  0.13093165521E+04  0.13093165521E+04  0.00000000000E+00 0.  1.
          1   -1    0    0  501    0  0.00000000000E+00 -0.00000000000E+00 -0.25833617958E+04  0.25833617958E+04  0.00000000000E+00 0. -1.
         23    2    1    2    0    0 -0.93153491833E+03  0.51051228592E+03  0.94998463845E+03  0.14279899265E+04  0.91128034606E+02 0.  0.
         13    1    3    3    0    0 -0.31800264712E+03  0.22328935848E+03  0.35792523497E+03  0.52829375826E+03  0.00000000000E+00 0.  1.
        -13    1    3    3    0    0 -0.61353227121E+03  0.28722292744E+03  0.59205940348E+03  0.89969616822E+03  0.00000000000E+00 0. -1.
         22    1    1    2    0    0  0.93153491833E+03 -0.51051228592E+03 -0.22240298821E+04  0.24646884214E+04  0.00000000000E+00 0. -1.
<mgrwt>
<rscale>  0 0.36782813E+04</rscale>
<asrwt>0</asrwt>
<pdfrwt beam="1">  1        1 0.39744027E+00 0.36782813E+04</pdfrwt>
<pdfrwt beam="2">  1       -1 0.20143332E+00 0.36782813E+04</pdfrwt>
<totfact> 0.14012700E-01</totfact>
</mgrwt>
</event>
<event>
 6    1  0.9906445E-006  0.1421258E+04  0.7818608E-02  0.8938573E-01
          1   -1    0    0  501    0  0.00000000000E+00  0.00000000000E+00  0.15268327104E+04  0.15268327104E+04  0.00000000000E+00 0. -1.
         -1   -1    0    0    0  501 -0.00000000000E+00 -0.00000000000E+00 -0.33074589171E+03  0.33074589171E+03  0.00000000000E+00 0.  1.
         23    2    1    2    0    0  0.43077612878E+03 -0.55690785207E+03  0.50715978080E+03  0.87252282078E+03  0.91490986883E+02 0.  0.
         11    1    3    3    0    0  0.12943964582E+03 -0.24003101911E+03  0.19416552016E+03  0.33476822021E+03  0.00000000000E+00 0.  1.
        -11    1    3    3    0    0  0.30133648296E+03 -0.31687683297E+03  0.31299426065E+03  0.53775460057E+03  0.00000000000E+00 0. -1.
         22    1    1    2    0    0 -0.43077612878E+03  0.55690785207E+03  0.68892703792E+03  0.98505578137E+03  0.00000000000E+00 0.  1.
<mgrwt>
<rscale>  0 0.14212581E+04</rscale>
<asrwt>0</asrwt>
<pdfrwt beam="1">  1        1 0.23489734E+00 0.14212581E+04</pdfrwt>
<pdfrwt beam="2">  1       -1 0.50883984E-01 0.14212581E+04</pdfrwt>
<totfact> 0.23681270E+01</totfact>
</mgrwt>
</event>
<event>
 6    1  0.9906445E-006  0.2608798E+04  0.7818608E-02  0.8365219E-01
         -2   -1    0    0    0  501 -0.00000000000E+00  0.00000000000E+00  0.71027972488E+03  0.71027972488E+03  0.00000000000E+00 0.  1.
          2   -1    0    0  501    0  0.00000000000E+00 -0.00000000000E+00 -0.23954744427E+04  0.23954744427E+04  0.00000000000E+00 0. -1.
         23    2    1    2    0    0 -0.73182626028E+02  0.87183415375E+03  0.30557718007E+03  0.93121439147E+03  0.91281660257E+02 0.  0.
         11    1    3    3    0    0 -0.54293088395E+02  0.44139375161E+03  0.11043034440E+03  0.45822597523E+03  0.00000000000E+00 0. -1.
        -11    1    3    3    0    0 -0.18889537633E+02  0.43044040214E+03  0.19514683567E+03  0.47298841624E+03  0.00000000000E+00 0.  1.
         22    1    1    2    0    0  0.73182626028E+02 -0.87183415375E+03 -0.19907718978E+04  0.21745397761E+04  0.00000000000E+00 0. -1.
<mgrwt>
<rscale>  0 0.26087981E+04</rscale>
<asrwt>0</asrwt>
<pdfrwt beam="1">  1        2 0.36853453E+00 0.26087981E+04</pdfrwt>
<pdfrwt beam="2">  1       -2 0.10927380E+00 0.26087981E+04</pdfrwt>
<totfact> 0.23597184E+00</totfact>
</mgrwt>
</event>
<event>
 6    1  0.9906445E-006  0.2822863E+04  0.7818608E-02  0.8296205E-01
          2   -1    0    0  501    0  0.00000000000E+00  0.00000000000E+00  0.16592380032E+04  0.16592380032E+04  0.00000000000E+00 0. -1.
         -2   -1    0    0    0  501 -0.00000000000E+00 -0.00000000000E+00 -0.12006346366E+04  0.12006346366E+04  0.00000000000E+00 0.  1.
         23    2    1    2    0    0 -0.54121946401E+03 -0.46098108554E+02 -0.10883748325E+04  0.12203040710E+04  0.97666298097E+02 0.  0.
         13    1    3    3    0    0 -0.31759959995E+03  0.16916043968E+02 -0.67305572592E+03  0.74441901415E+03  0.00000000000E+00 0. -1.
        -13    1    3    3    0    0 -0.22361986406E+03 -0.63014152523E+02 -0.41531910656E+03  0.47588505681E+03  0.00000000000E+00 0.  1.
         22    1    1    2    0    0  0.54121946401E+03  0.46098108554E+02  0.15469781991E+04  0.16395685689E+04  0.00000000000E+00 0. -1.
<mgrwt>
<rscale>  0 0.28228628E+04</rscale>
<asrwt>0</asrwt>
<pdfrwt beam="1">  1        2 0.25526739E+00 0.28228628E+04</pdfrwt>
<pdfrwt beam="2">  1       -2 0.18471302E+00 0.28228628E+04</pdfrwt>
<totfact> 0.15107707E+00</totfact>
</mgrwt>
</event>
<event>
 6    1  0.9906445E-006  0.1461418E+04  0.7818608E-02  0.8910523E-01
          1   -1    0    0  501    0  0.00000000000E+00  0.00000000000E+00  0.90363730922E+03  0.90363730922E+03  0.00000000000E+00 0.  1.
         -1   -1    0    0    0  501 -0.00000000000E+00 -0.00000000000E+00 -0.59087366696E+03  0.59087366696E+03  0.00000000000E+00 0. -1.
         23    2    1    2    0    0 -0.46946864636E+01  0.42903756850E+03 -0.44685412514E+03  0.62209225343E+03  0.56788091599E+02 0.  0.
         11    1    3    3    0    0  0.17305103189E+02  0.28617793073E+03 -0.32147512502E+03  0.43074764148E+03  0.00000000000E+00 0.  1.
        -11    1    3    3    0    0 -0.21999789652E+02  0.14285963777E+03 -0.12537900012E+03  0.19134461194E+03  0.00000000000E+00 0. -1.
         22    1    1    2    0    0  0.46946864636E+01 -0.42903756850E+03  0.75961776740E+03  0.87241872276E+03  0.00000000000E+00 0.  1.
<mgrwt>
<rscale>  0 0.14614178E+04</rscale>
<asrwt>0</asrwt>
<pdfrwt beam="1">  1        1 0.13902113E+00 0.14614178E+04</pdfrwt>
<pdfrwt beam="2">  1       -1 0.90903640E-01 0.14614178E+04</pdfrwt>
<totfact> 0.20726061E+01</totfact>
</mgrwt>
</event>
<event>
 6    1  0.9906445E-006  0.3096946E+04  0.7818608E-02  0.8216577E-01
          2   -1    0    0  501    0  0.00000000000E+00  0.00000000000E+00  0.13891001513E+04  0.13891001513E+04  0.00000000000E+00 0.  1.
         -2   -1    0    0    0  501 -0.00000000000E+00 -0.00000000000E+00 -0.17261307586E+04  0.17261307586E+04  0.00000000000E+00 0. -1.
         23    2    1    2    0    0  0.14949256270E+04  0.32214212518E+03  0.68580250213E+02  0.15331125999E+04  0.84574311698E+02 0.  0.
         13    1    3    3    0    0  0.37426999664E+03  0.53205033986E+02 -0.77665728548E+01  0.37811258334E+03  0.00000000000E+00 0. -1.
        -13    1    3    3    0    0  0.11206556304E+04  0.26893709120E+03  0.76346823068E+02  0.11550000166E+04  0.00000000000E+00 0.  1.
         22    1    1    2    0    0 -0.14949256270E+04 -0.32214212518E+03 -0.40561085755E+03  0.15821183100E+04  0.00000000000E+00 0.  1.
<mgrwt>
<rscale>  0 0.30969459E+04</rscale>
<asrwt>0</asrwt>
<pdfrwt beam="1">  1        2 0.21370772E+00 0.30969459E+04</pdfrwt>
<pdfrwt beam="2">  1       -2 0.26555858E+00 0.30969459E+04</pdfrwt>
<totfact> 0.64320838E-01</totfact>
</mgrwt>
</event>
<event>
 6    1  0.9906445E-006  0.1299390E+04  0.7818608E-02  0.9030049E-01
          1   -1    0    0  501    0  0.00000000000E+00  0.00000000000E+00  0.10229553100E+04  0.10229553100E+04  0.00000000000E+00 0. -1.
         -1   -1    0    0    0  501 -0.00000000000E+00 -0.00000000000E+00 -0.41263120423E+03  0.41263120423E+03  0.00000000000E+00 0.  1.
         23    2    1    2    0    0 -0.32777552287E+03 -0.48762077216E+03  0.60464072170E+03  0.84801259406E+03  0.91236760739E+02 0.  0.
         11    1    3    3    0    0 -0.18403966450E+03 -0.32894751396E+03  0.42918071422E+03  0.57120324798E+03  0.00000000000E+00 0. -1.
        -11    1    3    3    0    0 -0.14373585837E+03 -0.15867325821E+03  0.17546000748E+03  0.27680934608E+03  0.00000000000E+00 0.  1.
         22    1    1    2    0    0  0.32777552287E+03  0.48762077216E+03  0.56833840952E+01  0.58757392020E+03  0.00000000000E+00 0.  1.
<mgrwt>
<rscale>  0 0.12993895E+04</rscale>
<asrwt>0</asrwt>
<pdfrwt beam="1">  1        1 0.15737774E+00 0.12993895E+04</pdfrwt>
<pdfrwt beam="2">  1       -1 0.63481724E-01 0.12993895E+04</pdfrwt>
<totfact> 0.35908919E+01</totfact>
</mgrwt>
</event>
<event>
 6    1  0.9906445E-006  0.2191566E+04  0.7818608E-02  0.8521947E-01
          2   -1    0    0  501    0  0.00000000000E+00  0.00000000000E+00  0.12775975428E+04  0.12775975428E+04  0.00000000000E+00 0. -1.
         -2   -1    0    0    0  501 -0.00000000000E+00 -0.00000000000E+00 -0.93984216238E+03  0.93984216238E+03  0.00000000000E+00 0.  1.
         23    2    1    2    0    0 -0.98808508828E+03 -0.36429608852E+03 -0.13015167698E+03  0.10650678919E+04  0.91686277313E+02 0.  0.
         13    1    3    3    0    0 -0.44084217693E+03 -0.14022321459E+03 -0.16468934441E+02  0.46289912580E+03  0.00000000000E+00 0. -1.
        -13    1    3    3    0    0 -0.54724291135E+03 -0.22407287393E+03 -0.11368274254E+03  0.60216876605E+03  0.00000000000E+00 0.  1.
         22    1    1    2    0    0  0.98808508828E+03  0.36429608852E+03  0.46790705740E+03  0.11523718133E+04  0.00000000000E+00 0.  1.
<mgrwt>
<rscale>  0 0.21915657E+04</rscale>
<asrwt>0</asrwt>
<pdfrwt beam="1">  1        2 0.19655347E+00 0.21915657E+04</pdfrwt>
<pdfrwt beam="2">  1       -2 0.14459110E+00 0.21915657E+04</pdfrwt>
<totfact> 0.51453798E+00</totfact>
</mgrwt>
</event>
<event>
 6    1  0.9906445E-006  0.7047279E+03  0.7818608E-02  0.9709181E-01
         -2   -1    0    0    0  501 -0.00000000000E+00  0.00000000000E+00  0.37946977538E+02  0.37946977538E+02  0.00000000000E+00 0. -1.
          2   -1    0    0  501    0  0.00000000000E+00 -0.00000000000E+00 -0.32719431592E+04  0.32719431592E+04  0.00000000000E+00 0.  1.
         23    2    1    2    0    0 -0.30395161829E+03 -0.23147917062E+02 -0.23892855532E+04  0.24118598154E+04  0.12433785329E+03 0.  0.
         11    1    3    3    0    0 -0.46732686889E+01  0.25568630767E+02 -0.18507794985E+03  0.18689419959E+03  0.00000000000E+00 0. -1.
        -11    1    3    3    0    0 -0.29927834961E+03 -0.48716547829E+02 -0.22042076034E+04  0.22249656158E+04  0.00000000000E+00 0.  1.
         22    1    1    2    0    0  0.30395161829E+03  0.23147917062E+02 -0.84471062847E+03  0.89803032141E+03  0.00000000000E+00 0. -1.
<mgrwt>
<rscale>  0 0.70472790E+03</rscale>
<asrwt>0</asrwt>
<pdfrwt beam="1">  1        2 0.50337593E+00 0.70472790E+03</pdfrwt>
<pdfrwt beam="2">  1       -2 0.58379959E-02 0.70472790E+03</pdfrwt>
<totfact> 0.20207493E+02</totfact>
</mgrwt>
</event>
<event>
 6    1  0.9906445E-006  0.1318568E+04  0.7818608E-02  0.9014969E-01
         -1   -1    0    0    0  501 -0.00000000000E+00  0.00000000000E+00  0.54240875780E+03  0.54240875780E+03  0.00000000000E+00 0.  1.
          1   -1    0    0  501    0  0.00000000000E+00 -0.00000000000E+00 -0.80134280540E+03  0.80134280540E+03  0.00000000000E+00 0. -1.
         23    2    1    2    0    0 -0.37846902249E+02  0.49580833845E+03 -0.56626840361E+03  0.75918958799E+03  0.91927303328E+02 0.  0.
         13    1    3    3    0    0  0.24929051369E+02  0.27444165278E+03 -0.31090803565E+03  0.41545575579E+03  0.00000000000E+00 0. -1.
        -13    1    3    3    0    0 -0.62775953617E+02  0.22136668567E+03 -0.25536036796E+03  0.34373383220E+03  0.00000000000E+00 0.  1.
         22    1    1    2    0    0  0.37846902249E+02 -0.49580833845E+03  0.30733435601E+03  0.58456197521E+03  0.00000000000E+00 0.  1.
<mgrwt>
<rscale>  0 0.13185679E+04</rscale>
<asrwt>0</asrwt>
<pdfrwt beam="1">  1        1 0.12328351E+00 0.13185679E+04</pdfrwt>
<pdfrwt beam="2">  1       -1 0.83447501E-01 0.13185679E+04</pdfrwt>
<totfact> 0.30838895E+01</totfact>
</mgrwt>
</event>
<event>
 6    1  0.9906445E-006  0.1869706E+04  0.7818608E-02  0.8670084E-01
         -1   -1    0    0    0  501 -0.00000000000E+00  0.00000000000E+00  0.44601625483E+03  0.44601625483E+03  0.00000000000E+00 0.  1.
          1   -1    0    0  501    0  0.00000000000E+00 -0.00000000000E+00 -0.19594578047E+04  0.19594578047E+04  0.00000000000E+00 0. -1.
         23    2    1    2    0    0  0.48655644476E+03  0.16518368467E+03 -0.17605612863E+04  0.18353065510E+04  0.68929456343E+02 0.  0.
         11    1    3    3    0    0  0.68810074822E+02  0.49002832167E+02 -0.31307963337E+03  0.32427605645E+03  0.00000000000E+00 0. -1.
        -11    1    3    3    0    0  0.41774636994E+03  0.11618085250E+03 -0.14474816529E+04  0.15110304946E+04  0.00000000000E+00 0.  1.
         22    1    1    2    0    0 -0.48655644476E+03 -0.16518368467E+03  0.24711973639E+03  0.57016750849E+03  0.00000000000E+00 0.  1.
<mgrwt>
<rscale>  0 0.18697059E+04</rscale>
<asrwt>0</asrwt>
<pdfrwt beam="1">  1        1 0.30145505E+00 0.18697059E+04</pdfrwt>
<pdfrwt beam="2">  1       -1 0.68617886E-01 0.18697059E+04</pdfrwt>
<totfact> 0.64013516E+00</totfact>
</mgrwt>
</event>
<event>
 6    1  0.9906445E-006  0.1390825E+04  0.7818608E-02  0.8960487E-01
          2   -1    0    0  501    0  0.00000000000E+00  0.00000000000E+00  0.17555517856E+04  0.17555517856E+04  0.00000000000E+00 0. -1.
         -2   -1    0    0    0  501 -0.00000000000E+00 -0.00000000000E+00 -0.27546812434E+03  0.27546812434E+03  0.00000000000E+00 0.  1.
         23    2    1    2    0    0  0.43342694031E+03 -0.17125354706E+03  0.14909388265E+04  0.15648605761E+04  0.93291736256E+02 0.  0.
         13    1    3    3    0    0  0.28287222436E+03 -0.14403373667E+03  0.11053841352E+04  0.11500593458E+04  0.00000000000E+00 0. -1.
        -13    1    3    3    0    0  0.15055471596E+03 -0.27219810390E+02  0.38555469133E+03  0.41480123020E+03  0.00000000000E+00 0.  1.
         22    1    1    2    0    0 -0.43342694031E+03  0.17125354706E+03 -0.10855165259E+02  0.46615933390E+03  0.00000000000E+00 0. -1.
<mgrwt>
<rscale>  0 0.13908250E+04</rscale>
<asrwt>0</asrwt>
<pdfrwt beam="1">  1        2 0.27008488E+00 0.13908250E+04</pdfrwt>
<pdfrwt beam="2">  1       -2 0.42379713E-01 0.13908250E+04</pdfrwt>
<totfact> 0.46945394E+01</totfact>
</mgrwt>
</event>
<event>
 6    1  0.9906445E-006  0.1405004E+04  0.7818608E-02  0.8950204E-01
         -1   -1    0    0    0  501 -0.00000000000E+00  0.00000000000E+00  0.54206599450E+03  0.54206599450E+03  0.00000000000E+00 0.  1.
          1   -1    0    0  501    0  0.00000000000E+00 -0.00000000000E+00 -0.91042228391E+03  0.91042228391E+03  0.00000000000E+00 0. -1.
         23    2    1    2    0    0  0.17995320760E+03  0.53072957953E+03  0.24802830395E+03  0.61942945068E+03  0.90098619802E+02 0.  0.
         11    1    3    3    0    0  0.18800770798E+03  0.46847943315E+03  0.21832169515E+03  0.54998567264E+03  0.00000000000E+00 0. -1.
        -11    1    3    3    0    0 -0.80545003737E+01  0.62250146386E+02  0.29706608809E+02  0.69443778039E+02  0.00000000000E+00 0.  1.
         22    1    1    2    0    0 -0.17995320760E+03 -0.53072957953E+03 -0.61638459337E+03  0.83305882773E+03  0.00000000000E+00 0. -1.
<mgrwt>
<rscale>  0 0.14050039E+04</rscale>
<asrwt>0</asrwt>
<pdfrwt beam="1">  1        1 0.14006497E+00 0.14050039E+04</pdfrwt>
<pdfrwt beam="2">  1       -1 0.83394769E-01 0.14050039E+04</pdfrwt>
<totfact> 0.24820863E+01</totfact>
</mgrwt>
</event>
<event>
 6    1  0.9906445E-006  0.1491826E+04  0.7818608E-02  0.8889907E-01
         -1   -1    0    0    0  501 -0.00000000000E+00  0.00000000000E+00  0.29798920365E+03  0.29798920365E+03  0.00000000000E+00 0.  1.
          1   -1    0    0  501    0  0.00000000000E+00 -0.00000000000E+00 -0.18671346243E+04  0.18671346243E+04  0.00000000000E+00 0. -1.
         23    2    1    2    0    0 -0.98150029119E+02 -0.73418126066E+03 -0.87384802375E+03  0.11492035447E+04  0.91667152930E+02 0.  0.
         11    1    3    3    0    0 -0.40942509101E+02 -0.38273667898E+03 -0.38492049988E+03  0.54435966576E+03  0.00000000000E+00 0. -1.
        -11    1    3    3    0    0 -0.57207520018E+02 -0.35144458168E+03 -0.48892752388E+03  0.60484387898E+03  0.00000000000E+00 0.  1.
         22    1    1    2    0    0  0.98150029119E+02  0.73418126066E+03 -0.69529739694E+03  0.10159202832E+04  0.00000000000E+00 0.  1.
<mgrwt>
<rscale>  0 0.14918257E+04</rscale>
<asrwt>0</asrwt>
<pdfrwt beam="1">  1        1 0.28725149E+00 0.14918257E+04</pdfrwt>
<pdfrwt beam="2">  1       -1 0.45844492E-01 0.14918257E+04</pdfrwt>
<totfact> 0.16798161E+01</totfact>
</mgrwt>
</event>
<event>
 6    1  0.9906445E-006  0.2812687E+04  0.7818608E-02  0.8299340E-01
         -1   -1    0    0    0  501 -0.00000000000E+00  0.00000000000E+00  0.99432380694E+03  0.99432380694E+03  0.00000000000E+00 0.  1.
          1   -1    0    0  501    0  0.00000000000E+00 -0.00000000000E+00 -0.19890926657E+04  0.19890926657E+04  0.00000000000E+00 0. -1.
         23    2    1    2    0    0  0.92210921044E+03  0.57698227765E+03  0.44535596487E+03  0.11786579147E+04  0.87741665177E+02 0.  0.
         13    1    3    3    0    0  0.57290152104E+03  0.40743657732E+03  0.28001463038E+03  0.75672247923E+03  0.00000000000E+00 0.  1.
        -13    1    3    3    0    0  0.34920768940E+03  0.16954570032E+03  0.16534133449E+03  0.42193543550E+03  0.00000000000E+00 0. -1.
         22    1    1    2    0    0 -0.92210921044E+03 -0.57698227765E+03 -0.14401248236E+04  0.18047585579E+04  0.00000000000E+00 0. -1.
<mgrwt>
<rscale>  0 0.28126871E+04</rscale>
<asrwt>0</asrwt>
<pdfrwt beam="1">  1        1 0.30601425E+00 0.28126871E+04</pdfrwt>
<pdfrwt beam="2">  1       -1 0.15297290E+00 0.28126871E+04</pdfrwt>
<totfact> 0.86712197E-01</totfact>
</mgrwt>
</event>
<event>
 6    1  0.9906445E-006  0.3649051E+04  0.7818608E-02  0.8079347E-01
          1   -1    0    0  501    0  0.00000000000E+00  0.00000000000E+00  0.32298513609E+04  0.32298513609E+04  0.00000000000E+00 0. -1.
         -1   -1    0    0    0  501 -0.00000000000E+00 -0.00000000000E+00 -0.10306648024E+04  0.10306648024E+04  0.00000000000E+00 0.  1.
         23    2    1    2    0    0  0.14801593576E+04  0.10569252703E+04  0.94983065225E+03  0.20539684227E+04  0.92979903605E+02 0.  0.
         11    1    3    3    0    0  0.23268132544E+03  0.16247202773E+03  0.11110077450E+03  0.30476407449E+03  0.00000000000E+00 0.  1.
        -11    1    3    3    0    0  0.12474780322E+04  0.89445324259E+03  0.83872987775E+03  0.17492043482E+04  0.00000000000E+00 0. -1.
         22    1    1    2    0    0 -0.14801593576E+04 -0.10569252703E+04  0.12493559063E+04  0.22065477406E+04  0.00000000000E+00 0. -1.
<mgrwt>
<rscale>  0 0.36490514E+04</rscale>
<asrwt>0</asrwt>
<pdfrwt beam="1">  1        1 0.49690020E+00 0.36490514E+04</pdfrwt>
<pdfrwt beam="2">  1       -1 0.15856382E+00 0.36490514E+04</pdfrwt>
<totfact> 0.97363872E-02</totfact>
</mgrwt>
</event>
<event>
 6    1  0.9906445E-006  0.1015908E+04  0.7818608E-02  0.9291267E-01
         -2   -1    0    0    0  501 -0.00000000000E+00  0.00000000000E+00  0.16309504311E+03  0.16309504311E+03  0.00000000000E+00 0. -1.
          2   -1    0    0  501    0  0.00000000000E+00 -0.00000000000E+00 -0.15820051273E+04  0.15820051273E+04  0.00000000000E+00 0.  1.
         23    2    1    2    0    0 -0.33544268871E+03 -0.37419050829E+03 -0.76253287175E+03  0.91843737404E+03  0.97624257488E+02 0.  0.
         11    1    3    3    0    0 -0.28989694031E+03 -0.34622933694E+03 -0.62648184631E+03  0.77226581791E+03  0.00000000000E+00 0.  1.
        -11    1    3    3    0    0 -0.45545748399E+02 -0.27961171345E+02 -0.13605102543E+03  0.14617155613E+03  0.00000000000E+00 0. -1.
         22    1    1    2    0    0  0.33544268871E+03  0.37419050829E+03 -0.65637721245E+03  0.82666279638E+03  0.00000000000E+00 0. -1.
<mgrwt>
<rscale>  0 0.10159079E+04</rscale>
<asrwt>0</asrwt>
<pdfrwt beam="1">  1        2 0.24338540E+00 0.10159079E+04</pdfrwt>
<pdfrwt beam="2">  1       -2 0.25091545E-01 0.10159079E+04</pdfrwt>
<totfact> 0.16218991E+02</totfact>
</mgrwt>
</event>
<event>
 6    1  0.9906445E-006  0.2028971E+04  0.7818608E-02  0.8593194E-01
         -1   -1    0    0    0  501 -0.00000000000E+00  0.00000000000E+00  0.77295840551E+03  0.77295840551E+03  0.00000000000E+00 0.  1.
          1   -1    0    0  501    0  0.00000000000E+00 -0.00000000000E+00 -0.13314830117E+04  0.13314830117E+04  0.00000000000E+00 0. -1.
         23    2    1    2    0    0  0.93911534762E+03 -0.30713517327E+03 -0.50575076629E+02  0.99345880017E+03  0.90182584027E+02 0.  0.
         13    1    3    3    0    0  0.41373442596E+03 -0.15032162777E+03  0.20003632400E+02  0.44065055578E+03  0.00000000000E+00 0. -1.
        -13    1    3    3    0    0  0.52538092166E+03 -0.15681354551E+03 -0.70578709029E+02  0.55280824439E+03  0.00000000000E+00 0.  1.
         22    1    1    2    0    0 -0.93911534762E+03  0.30713517327E+03 -0.50794952957E+03  0.11109826171E+04  0.00000000000E+00 0. -1.
<mgrwt>
<rscale>  0 0.20289712E+04</rscale>
<asrwt>0</asrwt>
<pdfrwt beam="1">  1        1 0.20484354E+00 0.20289712E+04</pdfrwt>
<pdfrwt beam="2">  1       -1 0.11891668E+00 0.20289712E+04</pdfrwt>
<totfact> 0.50314852E+00</totfact>
</mgrwt>
</event>
<event>
 6    1  0.9906445E-006  0.2267515E+04  0.7818608E-02  0.8490841E-01
          1   -1    0    0  501    0  0.00000000000E+00  0.00000000000E+00  0.72326272817E+03  0.72326272817E+03  0.00000000000E+00 0. -1.
         -1   -1    0    0    0  501 -0.00000000000E+00 -0.00000000000E+00 -0.17772328888E+04  0.17772328888E+04  0.00000000000E+00 0.  1.
         23    2    1    2    0    0  0.46015008521E+01  0.13984439429E+03 -0.17664859487E+04  0.17743714012E+04  0.91343495872E+02 0.  0.
         13    1    3    3    0    0  0.16013445330E+02  0.70216504516E+02 -0.13524807785E+04  0.13543969301E+04  0.00000000000E+00 0. -1.
        -13    1    3    3    0    0 -0.11411944478E+02  0.69627889769E+02 -0.41400517016E+03  0.41997447116E+03  0.00000000000E+00 0.  1.
         22    1    1    2    0    0 -0.46015008521E+01 -0.13984439429E+03  0.71251578805E+03  0.72612421572E+03  0.00000000000E+00 0. -1.
<mgrwt>
<rscale>  0 0.22675152E+04</rscale>
<asrwt>0</asrwt>
<pdfrwt beam="1">  1        1 0.11127119E+00 0.22675152E+04</pdfrwt>
<pdfrwt beam="2">  1       -1 0.27342044E+00 0.22675152E+04</pdfrwt>
<totfact> 0.11532392E+00</totfact>
</mgrwt>
</event>
<event>
 6    1  0.9906445E-006  0.1044194E+04  0.7818608E-02  0.9261359E-01
         -1   -1    0    0    0  501 -0.00000000000E+00  0.00000000000E+00  0.76130011708E+03  0.76130011708E+03  0.00000000000E+00 0.  1.
          1   -1    0    0  501    0  0.00000000000E+00 -0.00000000000E+00 -0.35805246843E+03  0.35805246843E+03  0.00000000000E+00 0. -1.
         23    2    1    2    0    0 -0.32864690805E+03 -0.99984211308E+01  0.63217919745E+03  0.71870509377E+03  0.93689463254E+02 0.  0.
         13    1    3    3    0    0 -0.12116780893E+03  0.25413472948E+02  0.31063774173E+03  0.33439989401E+03  0.00000000000E+00 0. -1.
        -13    1    3    3    0    0 -0.20747909912E+03 -0.35411894079E+02  0.32154145573E+03  0.38430519977E+03  0.00000000000E+00 0.  1.
         22    1    1    2    0    0  0.32864690805E+03  0.99984211308E+01 -0.22893154880E+03  0.40064749174E+03  0.00000000000E+00 0. -1.
<mgrwt>
<rscale>  0 0.10441942E+04</rscale>
<asrwt>0</asrwt>
<pdfrwt beam="1">  1        1 0.55084995E-01 0.10441942E+04</pdfrwt>
<pdfrwt beam="2">  1       -1 0.11712309E+00 0.10441942E+04</pdfrwt>
<totfact> 0.45666284E+01</totfact>
</mgrwt>
</event>
